chitosan Film  in water:acetic acid 2%
38571
    1CHTO  H203    1   5.756   5.526   2.951 -0.6933 -0.6361  1.7418
    1CHTO   O82    2   5.795   5.597   2.998  0.0324  0.2292 -0.0953
    1CHTO  C123    3   5.935   5.576   2.999  0.3875 -0.2698 -0.3313
    1CHTO  H227    4   5.979   5.635   3.081 -1.0295  1.1206 -0.5565
    1CHTO   O77    5   5.938   5.433   3.039  0.6881  0.2637  0.2845
    1CHTO  C118    6   6.064   5.380   3.061  0.4371  0.1332  0.3433
    1CHTO  H222    7   6.128   5.438   3.129  1.2225  0.4864 -0.6742
    1CHTO  C125    8   6.048   5.232   3.115 -0.1791 -0.1568  0.0271
    1CHTO   O84    9   5.991   5.231   3.244  0.0179 -0.2644  0.3125
    1CHTO  H205   10   5.953   5.146   3.257 -0.6910 -0.1828 -1.1284
    1CHTO  C114   11   6.143   5.381   2.931 -0.0100  0.1174  0.1172
    1CHTO  H218   12   6.101   5.317   2.853  1.1880 -0.3915 -0.1347
    1CHTO  C116   13   6.155   5.527   2.866  0.6073  1.0609  0.0939
    1CHTO  H220   14   6.211   5.591   2.937 -0.0674  1.8712 -0.1021
    1CHTO   O79   15   6.225   5.528   2.744  0.1016  0.0979  0.3522
    1CHTO  H201   16   6.299   5.586   2.738 -0.3798  0.8659  1.5132
    1CHTO  C120   17   6.007   5.590   2.862 -0.1693  0.1301  0.3252
    1CHTO  H224   18   5.939   5.537   2.791  0.0729 -1.9805  1.6400
    1CHTO   N21   19   6.011   5.725   2.803  0.4304  0.0211  0.4274
    1CHTO  H211   20   6.074   5.722   2.715  0.2303  0.0601  0.2834
    1CHTO  H212   21   6.038   5.797   2.878 -0.7860 -1.2438  2.0968
    1CHTO   O75   22   6.275   5.338   2.971 -0.3373 -0.1290 -0.6146
    1CHTO  C112   23   6.341   5.225   2.866  0.5868 -0.0757  0.1945
    1CHTO  H216   24   6.337   5.257   2.761  1.0164 -2.0337 -0.4292
    1CHTO   O73   25   6.256   5.108   2.888 -0.4512  0.0098 -0.1852
    1CHTO  C113   26   6.291   5.005   2.798  0.0153 -0.4090  0.2931
    1CHTO  H217   27   6.271   5.036   2.693  0.2520 -2.5310 -0.4035
    1CHTO  C124   28   6.184   4.899   2.830  0.2559  0.0831  0.1738
    1CHTO   O83   29   6.078   4.896   2.727 -0.0308  0.3665  0.3378
    1CHTO  H204   30   6.048   4.807   2.721  1.1702 -0.1798  2.1430
    1CHTO  C109   31   6.440   4.951   2.833 -0.3346  0.2049 -0.2029
    1CHTO  H213   32   6.434   4.905   2.933 -0.7862  0.1037 -0.2756
    1CHTO  C110   33   6.540   5.061   2.837 -0.1140  0.2101  0.5970
    1CHTO  H214   34   6.548   5.090   2.732 -3.0815  0.8569  0.4878
    1CHTO   O78   35   6.668   5.009   2.879  0.3258  0.2076 -0.0381
    1CHTO  H200   36   6.731   5.078   2.885  1.0368 -0.4370 -0.0991
    1CHTO  C111   37   6.490   5.192   2.911  0.0911 -0.0353  0.7456
    1CHTO  H215   38   6.500   5.183   3.020  1.8884  2.0906  0.7912
    1CHTO   N19   39   6.572   5.311   2.876  0.2954  0.4259  0.3388
    1CHTO  H207   40   6.582   5.309   2.768  1.1071  0.4542  0.4059
    1CHTO  H208   41   6.540   5.407   2.915 -1.5316 -0.8558  2.0593
    1CHTO   O74   42   6.470   4.851   2.723 -0.2510 -0.3270 -0.2554
    1CHTO  C115   43   6.498   4.711   2.776  0.1885 -0.0567 -0.5070
    1CHTO  H219   44   6.498   4.709   2.885 -0.6457  1.0588 -0.4691
    1CHTO   O76   45   6.380   4.619   2.748 -0.6344 -0.2982  0.1165
    1CHTO  C122   46   6.357   4.627   2.608 -0.0221  0.1333 -0.0367
    1CHTO  H226   47   6.343   4.728   2.570 -0.4219  0.2172  0.3305
    1CHTO  C126   48   6.224   4.552   2.574  0.2526  0.0855  0.7097
    1CHTO   O85   49   6.203   4.542   2.432 -0.2124  0.4152  0.2941
    1CHTO  H206   50   6.228   4.620   2.386 -3.1289 -0.2621 -2.6200
    1CHTO  C121   51   6.475   4.568   2.521  0.3947  0.7585  0.2765
    1CHTO  H225   52   6.438   4.473   2.478 -1.4505  0.5373  2.2922
    1CHTO   O81   53   6.512   4.655   2.413 -0.0340  0.0093 -0.1210
    1CHTO  H202   54   6.455   4.638   2.340  0.2669 -0.3613 -0.2724
    1CHTO  C119   55   6.604   4.536   2.609  0.1003  0.1422  0.5088
    1CHTO  H223   56   6.572   4.453   2.672  0.9495  0.6603  1.6538
    1CHTO  C117   57   6.631   4.652   2.714 -0.6183 -0.5963 -0.1606
    1CHTO  H221   58   6.680   4.742   2.675  1.1665 -0.9071  1.3209
    1CHTO   N20   59   6.726   4.601   2.817 -0.6134  0.6441  0.3877
    1CHTO  H209   60   6.810   4.546   2.776 -0.8224  0.4582  0.2067
    1CHTO  H210   61   6.772   4.684   2.869 -1.9887  2.3009 -1.0163
    1CHTO   O80   62   6.734   4.482   2.520 -0.1353  0.5995  0.4239
    1CHTO  C103   63   6.763   4.346   2.506 -0.3471 -0.1289  0.2199
    1CHTO  H190   64   6.758   4.309   2.608  1.3843  1.5882  0.9589
    1CHTO  C101   65   6.669   4.265   2.414  0.2482  0.8940 -0.0736
    1CHTO  H188   66   6.642   4.316   2.322  0.3257  0.2658 -0.4446
    1CHTO   O68   67   6.527   4.259   2.483  0.2909  0.8442 -0.1690
    1CHTO  H168   68   6.486   4.341   2.464 -0.6031  0.4579  0.0249
    1CHTO   C99   69   6.721   4.120   2.374  0.4669  0.5617  0.1317
    1CHTO  H186   70   6.732   4.066   2.470  0.1194  0.3765  0.0693
    1CHTO   N17   71   6.635   4.026   2.284  0.6400 -0.2965 -0.7282
    1CHTO  H174   72   6.625   3.921   2.308 -2.4100 -0.1016 -0.9902
    1CHTO  H175   73   6.655   4.053   2.181  3.4720 -0.0098 -0.1307
    1CHTO   C97   74   6.860   4.135   2.323  0.0716 -1.1578  0.4462
    1CHTO  H184   75   6.859   4.189   2.228  3.9025  0.0105  0.9664
    1CHTO   O64   76   6.948   4.203   2.417 -0.7523  0.1895 -0.1194
    1CHTO  C104   77   6.915   4.335   2.449 -0.3813  0.8072 -0.4953
    1CHTO  H191   78   6.923   4.394   2.357  0.4580 -0.0050 -0.9553
    1CHTO  C108   79   7.018   4.383   2.547  1.0058 -0.2972  0.1562
    1CHTO   O71   80   7.004   4.527   2.576 -0.1926 -0.3858 -0.0927
    1CHTO  H171   81   6.928   4.536   2.631  0.9974  1.4248  1.3254
    1CHTO   O62   82   6.931   4.008   2.318  0.3716  0.7468 -0.3007
    1CHTO   C91   83   7.052   3.992   2.255 -0.7840 -0.0286 -0.2279
    1CHTO  H178   84   7.109   4.085   2.263  1.7943 -1.4280 -1.9024
    1CHTO   C92   85   7.039   3.960   2.098  0.9472  0.5514  0.3907
    1CHTO  H179   86   6.957   4.026   2.066 -0.7919 -1.1985  1.1445
    1CHTO   O66   87   7.158   4.000   2.035 -0.7167  0.0357 -0.5062
    1CHTO  H166   88   7.146   4.062   1.966  0.3244  1.4984  0.5963
    1CHTO   C93   89   7.008   3.809   2.053  0.2034 -0.4506 -0.1970
    1CHTO  H180   90   7.026   3.798   1.945 -2.6852 -1.7433 -0.5985
    1CHTO   N16   91   6.865   3.770   2.075 -0.4502 -0.8167  0.6101
    1CHTO  H172   92   6.839   3.677   2.027  3.2305 -1.8572  0.4588
    1CHTO  H173   93   6.856   3.749   2.181  0.4438  0.4779  0.9527
    1CHTO   C94   94   7.111   3.716   2.133 -0.3626 -0.4040 -0.6685
    1CHTO  H181   95   7.056   3.640   2.189 -1.0430  1.2039  0.8801
    1CHTO   O61   96   7.189   3.780   2.229  0.4907 -0.4568  0.1762
    1CHTO   C95   97   7.128   3.864   2.329  0.2627 -0.3731 -0.1646
    1CHTO  H182   98   7.061   3.808   2.393 -1.0034  0.7726 -0.4695
    1CHTO  C106   99   7.245   3.917   2.428  0.9551  0.2923 -0.0261
    1CHTO   O69  100   7.321   3.811   2.486  0.2905  0.8031  0.1395
    1CHTO  H169  101   7.340   3.823   2.577 -0.5811 -0.2176  0.4785
    1CHTO   O63  102   7.212   3.637   2.015  0.1934  0.3673 -0.0758
    1CHTO   C96  103   7.332   3.549   2.070  0.0781  0.5146  0.5695
    1CHTO  H183  104   7.296   3.459   2.120  0.0994  0.4344  0.4395
    1CHTO   C98  105   7.433   3.612   2.168  0.0933 -0.7534 -0.0110
    1CHTO  H185  106   7.381   3.653   2.256  1.8432 -1.0742  1.2043
    1CHTO   O67  107   7.516   3.512   2.225  0.3737 -0.4179 -0.0497
    1CHTO  H167  108   7.535   3.533   2.314 -0.6672  0.6439 -0.0762
    1CHTO  C102  109   7.522   3.722   2.092  0.4242  0.1045  0.5854
    1CHTO  H189  110   7.598   3.757   2.164  0.8924  3.3974 -1.4244
    1CHTO   N18  111   7.460   3.841   2.035  0.6641 -0.0331 -0.2594
    1CHTO  H176  112   7.384   3.884   2.097  1.3887  1.2133 -0.2294
    1CHTO  H177  113   7.411   3.805   1.946  1.3890 -0.9346 -0.3061
    1CHTO  C105  114   7.601   3.643   1.979 -0.4209 -0.2643  0.5154
    1CHTO  H192  115   7.609   3.696   1.884  1.6541 -1.8735 -0.2437
    1CHTO   O65  116   7.537   3.514   1.950 -0.3042 -1.2372  0.3341
    1CHTO  C100  117   7.399   3.500   1.942  0.4007 -0.0143  0.3908
    1CHTO  H187  118   7.366   3.562   1.857  0.2596 -0.5492  0.0554
    1CHTO  C107  119   7.376   3.357   1.899 -0.0782  0.0378 -0.3625
    1CHTO   O70  120   7.237   3.339   1.868  0.7223 -0.4711 -0.0067
    1CHTO  H170  121   7.230   3.266   1.808 -1.3054 -0.0248 -0.3542
    1CHTO   O57  122   7.730   3.633   2.033 -0.3597  0.2157 -0.1244
    1CHTO   C85  123   7.824   3.524   2.004 -0.5759  0.4610 -0.1826
    1CHTO  H157  124   7.806   3.479   1.904 -0.9560  0.4991 -0.1333
    1CHTO   C83  125   7.798   3.408   2.104  0.5153  0.4386 -0.0781
    1CHTO  H155  126   7.704   3.361   2.074 -0.4155  1.4132  1.2772
    1CHTO   O56  127   7.783   3.454   2.233 -0.5331 -0.2819 -0.1757
    1CHTO  H135  128   7.697   3.488   2.244 -0.1558  0.8175 -0.5331
    1CHTO   C81  129   7.909   3.300   2.076  0.0111  0.2220 -0.1563
    1CHTO  H153  130   7.909   3.284   1.968 -3.0440  0.1827 -0.1844
    1CHTO   N14  131   7.878   3.168   2.136  0.2404  0.0460 -0.1559
    1CHTO  H141  132   7.838   3.186   2.234  0.0470  1.0438 -0.4060
    1CHTO  H142  133   7.804   3.119   2.076 -0.6321 -0.8385  1.6178
    1CHTO   C79  134   8.049   3.358   2.118  0.1936 -0.0969 -0.5371
    1CHTO  H151  135   8.127   3.291   2.081 -0.6480 -1.1289 -0.4490
    1CHTO   O52  136   8.076   3.478   2.037  0.1684 -0.1426  0.1132
    1CHTO   C86  137   7.971   3.578   2.023  0.3758  0.0334 -0.2452
    1CHTO  H158  138   7.977   3.647   2.109  1.8424  1.9224 -1.8159
    1CHTO   C90  139   8.014   3.674   1.908 -0.4759  0.3465  0.6346
    1CHTO   O60  140   8.131   3.741   1.956 -0.5482  0.5336  0.3576
    1CHTO  H138  141   8.127   3.820   1.905 -0.6330 -1.1834 -2.4309
    1CHTO   O50  142   8.062   3.377   2.262 -0.3560  0.6474 -0.1287
    1CHTO   C73  143   8.126   3.368   2.386 -0.0718  0.1748 -0.5164
    1CHTO  H145  144   8.234   3.354   2.372 -0.3047 -4.0783  1.3106
    1CHTO   C74  145   8.059   3.249   2.468  0.6796 -0.5165  0.0251
    1CHTO  H146  146   8.061   3.160   2.404 -0.7330 -0.4608 -0.1102
    1CHTO   O54  147   8.148   3.229   2.590  0.2453  0.1293  0.0538
    1CHTO  H133  148   8.235   3.214   2.557  0.6266  0.7657  0.7559
    1CHTO   C75  149   7.910   3.286   2.499 -0.4190  0.1550  0.5906
    1CHTO  H147  150   7.851   3.286   2.406  0.5644 -0.5205 -0.0477
    1CHTO   N13  151   7.843   3.175   2.577 -0.8482 -0.2691  0.6311
    1CHTO  H139  152   7.761   3.128   2.524  0.2547  0.0951 -1.4432
    1CHTO  H140  153   7.921   3.107   2.607 -1.3072 -0.2498  1.9130
    1CHTO   C76  154   7.901   3.425   2.579 -0.2582 -0.2620  0.5354
    1CHTO  H148  155   7.957   3.419   2.673  0.0274 -0.1128  0.3774
    1CHTO   O49  156   7.962   3.528   2.505  0.1331 -0.5255  0.1018
    1CHTO   C77  157   8.095   3.504   2.461  0.1117  0.1953  0.0409
    1CHTO  H149  158   8.160   3.509   2.548 -0.5368 -2.2132  0.6923
    1CHTO   C88  159   8.137   3.626   2.379  0.2078 -0.8889  0.0624
    1CHTO   O58  160   8.280   3.627   2.305  0.1197  0.3481  0.8924
    1CHTO  H136  161   8.277   3.695   2.240 -2.5739 -1.8931 -1.4814
    1CHTO   O51  162   7.746   3.472   2.593 -0.2099 -0.3287 -0.7375
    1CHTO   C78  163   7.727   3.570   2.686 -0.2717  0.0989 -0.1705
    1CHTO  H150  164   7.822   3.621   2.712 -0.6024  1.2322 -1.1431
    1CHTO   C80  165   7.667   3.521   2.816  0.4015  0.7071 -0.3296
    1CHTO  H152  166   7.579   3.461   2.786  2.6463 -1.5628 -2.6999
    1CHTO   O55  167   7.751   3.432   2.892 -0.5796 -0.0296 -0.1456
    1CHTO  H134  168   7.723   3.343   2.883  2.5496 -1.1194  0.3448
    1CHTO   C84  169   7.619   3.641   2.906 -0.2550  0.4881 -1.2925
    1CHTO  H156  170   7.711   3.686   2.943  0.2991 -2.7880  1.6304
    1CHTO   N15  171   7.538   3.600   3.033 -0.2719  0.9026 -0.5405
    1CHTO  H143  172   7.433   3.596   3.015 -0.1780  1.3985 -1.2271
    1CHTO  H144  173   7.551   3.677   3.107 -2.3438  1.4545 -0.7267
    1CHTO   C87  174   7.529   3.744   2.822  0.0088  0.1374  0.2627
    1CHTO  H159  175   7.438   3.695   2.787  1.5939 -1.8558 -1.1301
    1CHTO   O53  176   7.616   3.785   2.720  0.1609 -0.2226  0.6072
    1CHTO   C82  177   7.636   3.684   2.620 -0.0367  0.1877  0.2864
    1CHTO  H154  178   7.537   3.651   2.586 -0.7210  3.0689 -0.6348
    1CHTO   C89  179   7.702   3.739   2.492 -0.7447 -0.6049  0.3769
    1CHTO   O59  180   7.628   3.834   2.415 -0.3661  0.2152 -0.3818
    1CHTO  H137  181   7.536   3.822   2.428  0.0113 -2.1109  0.3844
    1CHTO   O45  182   7.485   3.880   2.924  0.4334  0.0768  0.6185
    1CHTO   C67  183   7.396   3.972   2.861  0.5481 -0.1387  0.1900
    1CHTO  H124  184   7.338   3.920   2.785  2.1814  0.0467 -1.2218
    1CHTO   C65  185   7.303   4.024   2.972 -0.4512  0.3704  0.4136
    1CHTO  H122  186   7.278   3.931   3.025  2.1996 -1.4406 -1.3906
    1CHTO   O44  187   7.186   4.069   2.901 -0.8110  0.0256  0.1324
    1CHTO  H102  188   7.122   4.102   2.961 -0.1140 -0.4429  1.1470
    1CHTO   C63  189   7.375   4.125   3.073  0.3106  0.4151  1.1155
    1CHTO  H120  190   7.460   4.073   3.119  0.0658 -0.9236  0.0995
    1CHTO   N11  191   7.286   4.152   3.190 -0.5641  1.0247  0.3332
    1CHTO  H108  192   7.346   4.204   3.261  1.0259 -0.8040  0.3988
    1CHTO  H109  193   7.201   4.212   3.167 -0.6795  0.7828  0.1142
    1CHTO   C61  194   7.442   4.242   2.993  0.3483  0.4928 -0.4294
    1CHTO  H118  195   7.508   4.295   3.064 -0.0510  1.1471 -0.5409
    1CHTO   O40  196   7.524   4.198   2.879  0.0313  0.3781  0.6510
    1CHTO   C68  197   7.483   4.084   2.795 -0.2354 -0.2804 -0.1065
    1CHTO  H125  198   7.572   4.027   2.761 -1.0550 -1.4234 -0.3907
    1CHTO   C72  199   7.412   4.137   2.667 -0.3010 -0.5407 -0.1959
    1CHTO   O48  200   7.483   4.230   2.591 -0.2568  1.3222  0.0785
    1CHTO  H105  201   7.427   4.238   2.516  1.0539 -1.2774 -1.2372
    1CHTO   O38  202   7.339   4.332   2.953  0.5265  0.1236  0.1823
    1CHTO   C55  203   7.374   4.471   2.963 -0.0166  0.0064  0.1307
    1CHTO  H112  204   7.483   4.474   2.958 -0.0262  0.3933  0.1640
    1CHTO   C56  205   7.308   4.528   3.112 -0.3848  0.0148  0.0845
    1CHTO  H113  206   7.201   4.509   3.097 -0.4473 -1.3799  2.1854
    1CHTO   O42  207   7.357   4.453   3.224 -0.1636  0.0241  0.0284
    1CHTO  H100  208   7.306   4.475   3.300  0.3632 -0.2659  0.4737
    1CHTO   C57  209   7.335   4.683   3.132 -0.2683  0.3867  0.3065
    1CHTO  H114  210   7.441   4.691   3.156 -0.4187  0.3611  0.9714
    1CHTO   N10  211   7.264   4.730   3.261  0.2785 -0.2038  0.2651
    1CHTO  H106  212   7.180   4.670   3.294  0.9250 -0.0913  2.1521
    1CHTO  H107  213   7.231   4.831   3.242 -0.3363 -0.3834  0.3528
    1CHTO   C58  214   7.302   4.762   2.997 -0.0101 -0.0649 -0.6939
    1CHTO  H115  215   7.191   4.764   2.986  0.0954  2.0941 -1.4731
    1CHTO   O37  216   7.361   4.699   2.877  0.0385  0.1573  0.2968
    1CHTO   C59  217   7.327   4.561   2.846 -0.0109 -0.0820 -0.4841
    1CHTO  H116  218   7.220   4.555   2.827  0.3998  0.0569 -3.0721
    1CHTO   C70  219   7.385   4.516   2.711 -0.4691 -0.0954  0.2400
    1CHTO   O46  220   7.531   4.517   2.708  0.7144  0.3489  0.6680
    1CHTO  H103  221   7.562   4.555   2.788 -2.2072  0.5488  1.7487
    1CHTO   O39  222   7.356   4.900   2.997 -0.8779 -0.0337 -0.0507
    1CHTO   C60  223   7.264   5.009   2.965  0.1206 -0.7485  0.4111
    1CHTO  H117  224   7.205   4.984   2.877  1.7864  2.0560 -1.5569
    1CHTO   C62  225   7.154   5.044   3.071 -0.0024 -0.3117 -0.3480
    1CHTO  H119  226   7.088   4.956   3.085 -0.3892  0.1291  0.6011
    1CHTO   O43  227   7.221   5.083   3.192  0.1216 -0.0527 -0.0862
    1CHTO  H101  228   7.164   5.090   3.266 -1.5060  0.9202 -1.3952
    1CHTO   C66  229   7.057   5.161   3.011 -0.2826 -0.0248  0.5584
    1CHTO  H123  230   7.027   5.132   2.910 -2.1714  0.7891  0.8790
    1CHTO   N12  231   6.939   5.182   3.090 -0.0141  0.4627 -0.0976
    1CHTO  H110  232   6.974   5.205   3.190  0.9412  0.2218 -0.3764
    1CHTO  H111  233   6.886   5.274   3.070  0.5915  0.4946 -1.5912
    1CHTO   C69  234   7.150   5.283   2.988  0.0929 -0.4717 -0.6435
    1CHTO  H126  235   7.202   5.303   3.085  0.8507  0.9350 -1.3177
    1CHTO   O41  236   7.259   5.242   2.879  0.0787 -0.1529  0.2298
    1CHTO   C64  237   7.350   5.139   2.930  0.4883  0.4828 -0.4682
    1CHTO  H121  238   7.385   5.170   3.031  0.3299 -0.4888 -0.1067
    1CHTO   C71  239   7.459   5.127   2.831 -0.6493 -0.0348  0.1274
    1CHTO   O47  240   7.404   5.076   2.709 -0.5606  0.4147  0.4575
    1CHTO  H104  241   7.385   4.984   2.716  0.8005  0.1412  0.6912
    1CHTO   O34  242   7.077   5.403   2.938 -0.3242  0.3397  0.5106
    1CHTO   C49  243   7.093   5.553   2.978  0.1045 -0.2385  0.4427
    1CHTO   H91  244   7.110   5.574   3.083 -1.1921  0.3725  0.5360
    1CHTO   C47  245   6.959   5.624   2.942 -0.3153  0.1236  0.6791
    1CHTO   H89  246   6.981   5.732   2.954  0.4622  0.0360  0.0435
    1CHTO   O33  247   6.858   5.586   3.031 -0.0730 -0.0953  0.1133
    1CHTO   H70  248   6.791   5.651   3.044  0.5966  0.4345  0.9723
    1CHTO   C45  249   6.935   5.595   2.788  0.2685 -0.0658 -1.0289
    1CHTO   H87  250   6.934   5.486   2.772 -0.2190 -0.4173  1.2435
    1CHTO    N8  251   6.807   5.645   2.742 -1.5964  0.3090 -0.1201
    1CHTO   H75  252   6.820   5.687   2.643 -0.0363 -2.1287 -0.9976
    1CHTO   H76  253   6.724   5.577   2.756 -0.1925 -1.1223  1.5450
    1CHTO   C43  254   7.061   5.641   2.696 -0.6053  0.0499 -0.0454
    1CHTO   H85  255   7.036   5.599   2.599 -0.1656  0.1791 -0.2174
    1CHTO   O29  256   7.186   5.593   2.743 -0.7111  0.2976  0.9377
    1CHTO   C50  257   7.205   5.607   2.884 -0.6513 -0.2539  0.2139
    1CHTO   H92  258   7.287   5.542   2.918 -1.8930 -0.4416  2.9986
    1CHTO   C54  259   7.265   5.751   2.919  0.2159  0.9529 -0.2560
    1CHTO   O36  260   7.319   5.756   3.050 -0.2784 -0.5147  0.0268
    1CHTO   H72  261   7.410   5.736   3.042 -0.1906 -0.2501  0.3561
    1CHTO   O27  262   7.076   5.783   2.678 -0.2118  0.1697  0.1732
    1CHTO   C37  263   7.064   5.882   2.569  0.0277 -0.6479 -0.4522
    1CHTO   H79  264   6.982   5.863   2.498 -1.2547 -0.1824  0.8829
    1CHTO   C38  265   7.031   6.026   2.619  0.0346  0.0842  0.4457
    1CHTO   H80  266   7.096   6.049   2.705 -1.1003  1.9448  0.8251
    1CHTO   O31  267   6.898   6.033   2.672 -0.0607 -0.1461  0.0474
    1CHTO   H68  268   6.883   5.970   2.739  0.8034  0.1795  0.5522
    1CHTO   C39  269   7.058   6.142   2.510  0.3132  0.9971 -0.1722
    1CHTO   H81  270   6.993   6.124   2.425  1.7064  1.4762 -1.3649
    1CHTO    N7  271   7.034   6.280   2.568 -0.1841  0.1712 -0.2344
    1CHTO   H73  272   6.961   6.329   2.505  0.0022  0.8000  0.0382
    1CHTO   H74  273   7.121   6.344   2.571 -0.8993  1.1625 -0.1453
    1CHTO   C40  274   7.198   6.126   2.447 -0.1328  0.0764  0.1408
    1CHTO   H82  275   7.272   6.138   2.527 -0.3061  0.3409  0.2659
    1CHTO   O26  276   7.198   5.991   2.395 -0.7223 -0.2079 -0.3461
    1CHTO   C41  277   7.201   5.889   2.494  0.3926 -0.4213 -0.1757
    1CHTO   H83  278   7.279   5.905   2.569 -1.2285  0.5878  1.3414
    1CHTO   C52  279   7.224   5.754   2.425 -0.2598  0.0132  0.5114
    1CHTO   O35  280   7.356   5.761   2.335  0.3518  0.4262 -0.0816
    1CHTO   H71  281   7.422   5.782   2.398  0.1903  0.3805  0.1047
    1CHTO   O28  282   7.226   6.220   2.343 -0.5962  0.0500 -0.1679
    1CHTO   C42  283   7.333   6.200   2.249  0.5460 -0.1876  0.1099
    1CHTO   H84  284   7.372   6.103   2.281  2.0262  0.8484  1.5735
    1CHTO   C44  285   7.453   6.302   2.253  0.5370  0.4207  0.5660
    1CHTO   H86  286   7.414   6.402   2.230  1.9472  0.7582 -0.3835
    1CHTO   O32  287   7.492   6.299   2.388  0.2565  1.0152  0.1914
    1CHTO   H69  288   7.416   6.322   2.439  0.2395  1.0160  0.1655
    1CHTO   C48  289   7.570   6.269   2.155  0.6090 -0.3239  0.2934
    1CHTO   H90  290   7.617   6.184   2.206 -1.3191 -1.1397  0.7324
    1CHTO    N9  291   7.685   6.370   2.162 -0.3559 -0.0544 -0.4301
    1CHTO   H77  292   7.727   6.362   2.261 -0.0631  1.3697 -0.4298
    1CHTO   H78  293   7.670   6.470   2.124 -0.5548 -0.3905 -1.2357
    1CHTO   C51  294   7.519   6.248   2.013 -0.6465 -0.1024 -0.5280
    1CHTO   H93  295   7.497   6.345   1.967  0.6647  0.2293 -0.4774
    1CHTO   O30  296   7.408   6.163   2.021  0.3980 -0.7756  0.4158
    1CHTO   C46  297   7.293   6.192   2.101 -0.1234 -0.4861  0.0837
    1CHTO   H88  298   7.258   6.292   2.073  2.2363  0.8747  1.7772
    1CHTO   C53  299   7.174   6.100   2.069  0.4757  0.3579  0.0430
    1CHTO   O72  300   7.123   6.143   1.945 -0.4642  0.2516 -0.4575
    1CHTO  H199  301   7.102   6.074   1.885 -0.7771 -0.2661  0.2472
    1CHTO   O22  302   7.617   6.162   1.945 -0.8518 -0.0335 -0.0570
    1CHTO   C31  303   7.600   6.154   1.802 -0.1664 -0.3906  0.2600
    1CHTO   H59  304   7.492   6.165   1.781  0.1908 -1.1720 -2.1866
    1CHTO   C29  305   7.676   6.269   1.726 -0.2769  0.4270 -0.0111
    1CHTO   H57  306   7.781   6.267   1.757 -0.2471 -2.6809 -0.1384
    1CHTO   O21  307   7.600   6.392   1.756 -0.2364 -0.4290 -0.2476
    1CHTO   H37  308   7.636   6.469   1.715 -0.0138  0.9078  2.3456
    1CHTO   C27  309   7.663   6.247   1.565  0.6707 -0.4270  0.6446
    1CHTO   H55  310   7.556   6.246   1.539  0.8911  1.4067 -0.4080
    1CHTO    N5  311   7.728   6.349   1.482 -0.4691  0.1970 -0.5544
    1CHTO   H43  312   7.799   6.412   1.534 -1.7848 -1.4188  3.4335
    1CHTO   H44  313   7.762   6.300   1.392  0.8131 -0.4013  0.2509
    1CHTO   C25  314   7.711   6.105   1.535  0.6077 -0.4783 -0.5953
    1CHTO   H53  315   7.812   6.097   1.577  0.3495  0.6516  0.2574
    1CHTO   O17  316   7.636   6.007   1.609 -0.4502 -0.5838  0.5046
    1CHTO   C32  317   7.632   6.009   1.753 -0.0671  0.1075  1.2323
    1CHTO   H60  318   7.732   5.982   1.789  0.7328 -0.3384 -1.2555
    1CHTO   C36  319   7.537   5.900   1.801  0.4858 -0.5589 -0.3941
    1CHTO   O25  320   7.539   5.892   1.943  0.4391  0.0858 -0.1128
    1CHTO   H40  321   7.448   5.895   1.965  0.8292  0.3808  1.5854
    1CHTO   O15  322   7.717   6.069   1.397  0.0226  0.0958 -0.7151
    1CHTO   C19  323   7.668   6.083   1.262  0.1046  0.5279  0.0005
    1CHTO   H47  324   7.646   6.190   1.250 -2.5924  0.1216  1.0495
    1CHTO   C20  325   7.779   6.041   1.165  0.2892 -0.8748 -0.0979
    1CHTO   H48  326   7.809   5.937   1.180 -2.5713 -1.4677  1.7615
    1CHTO   O19  327   7.890   6.131   1.190 -0.3413  0.1432 -0.2302
    1CHTO   H35  328   7.910   6.134   1.282 -3.0764  4.8358  0.3599
    1CHTO   C21  329   7.733   6.059   1.016  0.0717 -0.9572 -0.2923
    1CHTO   H49  330   7.722   6.166   1.002  0.4001 -0.8903 -0.0524
    1CHTO    N4  331   7.833   6.023   0.913  0.2948  0.3910 -0.2911
    1CHTO   H41  332   7.923   5.970   0.941 -0.2477 -0.5883 -0.3463
    1CHTO   H42  333   7.861   6.104   0.848 -0.2273  0.8634  0.0748
    1CHTO   C22  334   7.599   5.981   0.997  0.1508 -0.1684 -0.0169
    1CHTO   H50  335   7.618   5.875   1.010  1.9395 -0.0932 -1.6225
    1CHTO   O14  336   7.498   6.026   1.086  0.0570  0.0840 -0.4708
    1CHTO   C23  337   7.530   6.002   1.224 -0.4503 -0.2709  0.3657
    1CHTO   H51  338   7.546   5.893   1.225  0.6122 -0.1214  0.6650
    1CHTO   C34  339   7.408   6.037   1.303  0.6113  0.4560  0.6596
    1CHTO   O23  340   7.367   6.172   1.291 -1.3549 -0.4153 -0.7159
    1CHTO   H38  341   7.342   6.198   1.378  2.6490 -0.7899  0.6754
    1CHTO   O16  342   7.540   6.003   0.868 -0.0041 -0.2351  0.4727
    1CHTO   C24  343   7.441   5.868   0.803 -0.2800 -0.1357 -0.7424
    1CHTO   H52  344   7.439   5.783   0.871  0.3718 -0.5076 -1.1858
    1CHTO   C26  345   7.504   5.826   0.675 -0.2517 -0.9232 -0.8119
    1CHTO   H54  346   7.511   5.918   0.614  0.7597 -0.1217  0.4899
    1CHTO   O20  347   7.640   5.778   0.696  0.3379  0.0027  0.3894
    1CHTO   H36  348   7.661   5.704   0.751  3.6112 -1.0716 -2.1693
    1CHTO   C30  349   7.416   5.717   0.603 -0.3621  1.0868  0.0883
    1CHTO   H58  350   7.415   5.626   0.665  0.2883  0.9353 -0.1205
    1CHTO    N6  351   7.460   5.693   0.467 -0.1965  0.2153  0.0519
    1CHTO   H45  352   7.566   5.675   0.473 -0.2355 -0.4969 -1.2358
    1CHTO   H46  353   7.445   5.773   0.396  1.3344  2.4532  2.1691
    1CHTO   C33  354   7.264   5.754   0.603  0.0650  0.1826  0.3890
    1CHTO   H61  355   7.231   5.830   0.530 -1.2194 -1.8939 -1.2385
    1CHTO   O18  356   7.221   5.802   0.730 -0.2903  0.3791  0.0467
    1CHTO   C28  357   7.296   5.915   0.787  0.3709 -0.3809 -0.1540
    1CHTO   H56  358   7.297   5.992   0.710 -1.3966 -0.1826  0.0019
    1CHTO   C35  359   7.252   5.968   0.923  0.4390 -0.3738 -0.1648
    1CHTO   O24  360   7.271   5.880   1.033 -0.3095 -0.0040  0.2509
    1CHTO   H39  361   7.357   5.894   1.070 -0.7108  0.8258  0.9108
    1CHTO    O9  362   7.188   5.642   0.566  0.1577 -0.3711  0.3375
    1CHTO   C13  363   7.021   5.635   0.553 -0.5622 -0.0334 -0.5471
    1CHTO   H26  364   6.980   5.728   0.508 -1.6896  0.9584  2.4413
    1CHTO   C11  365   6.963   5.617   0.698  0.3181  1.2284 -0.1364
    1CHTO   H24  366   6.971   5.705   0.764  0.8788  0.4740  0.8248
    1CHTO    O8  367   7.036   5.517   0.766 -0.4833 -0.3569  0.0720
    1CHTO    H3  368   7.073   5.539   0.849  0.9163  1.0912 -0.9260
    1CHTO    C9  369   6.809   5.574   0.685  0.3188 -0.2148  0.6935
    1CHTO   H22  370   6.763   5.652   0.622  0.2648 -0.0685  0.9142
    1CHTO    N2  371   6.729   5.585   0.807 -0.0425 -0.4886 -0.4259
    1CHTO   H10  372   6.751   5.674   0.864 -1.6755  0.3602 -1.0869
    1CHTO   H11  373   6.623   5.588   0.784 -0.1414  2.3650  0.1103
    1CHTO    C7  374   6.796   5.434   0.610 -0.5285 -0.9483  0.2956
    1CHTO   H20  375   6.706   5.451   0.546 -0.0423  0.6471  0.0056
    1CHTO    O4  376   6.917   5.402   0.543 -0.1264 -0.1637  0.2085
    1CHTO   C14  377   6.970   5.512   0.463 -0.2363 -0.0378  0.3779
    1CHTO   H27  378   6.898   5.553   0.390 -0.9562 -0.4860  0.8277
    1CHTO   C18  379   7.089   5.446   0.386 -0.1974  0.1123 -0.6709
    1CHTO   O13  380   7.135   5.549   0.302 -0.3769 -0.2821  0.6271
    1CHTO    H7  381   7.203   5.593   0.349 -0.0995 -0.3129  0.2621
    1CHTO    O2  382   6.756   5.313   0.703  0.0193 -0.3081 -0.1694
    1CHTO    C1  383   6.703   5.199   0.646 -0.6955  0.2691 -0.1731
    1CHTO   H14  384   6.693   5.216   0.537 -0.3751 -0.5654 -0.3428
    1CHTO    C2  385   6.565   5.167   0.698 -0.4581 -0.0933  0.1272
    1CHTO   H15  386   6.585   5.149   0.805 -0.3527  0.9050  0.2821
    1CHTO    O6  387   6.476   5.280   0.682  0.0270 -0.1928 -0.8223
    1CHTO    H1  388   6.390   5.249   0.704  0.6450 -1.4469 -0.1161
    1CHTO    C3  389   6.506   5.034   0.615 -0.3226  0.0984  0.4367
    1CHTO   H16  390   6.510   5.047   0.506  2.1806  0.1635  0.5071
    1CHTO    N1  391   6.367   5.006   0.652  0.1010 -0.5695 -0.8566
    1CHTO    H8  392   6.352   5.044   0.753  0.8352 -1.1804 -0.5140
    1CHTO    H9  393   6.296   5.060   0.590  0.6047 -1.7293 -2.4460
    1CHTO    C4  394   6.599   4.917   0.642  0.0815  0.0232 -0.1324
    1CHTO   H17  395   6.596   4.890   0.748  0.4417 -1.6925 -0.5497
    1CHTO    O1  396   6.729   4.961   0.596 -0.1119 -0.0392 -0.7637
    1CHTO    C5  397   6.786   5.068   0.666  0.1884 -0.6022  0.7093
    1CHTO   H18  398   6.795   5.048   0.773 -0.1692 -2.6945  0.3759
    1CHTO   C16  399   6.935   5.089   0.621 -0.1844 -0.4503  0.1835
    1CHTO   O11  400   7.032   5.156   0.709  0.4384  0.0466 -0.6004
    1CHTO    H5  401   7.031   5.114   0.794 -2.4703  0.3595 -0.4337
    1CHTO    O3  402   6.561   4.796   0.566  0.6964 -0.2868  0.1821
    1CHTO    C6  403   6.652   4.681   0.590 -0.2734  0.0574 -0.0892
    1CHTO   H19  404   6.749   4.710   0.629  0.6969 -1.3228 -1.3895
    1CHTO    C8  405   6.589   4.571   0.675  0.9098 -0.3832  1.0342
    1CHTO   H21  406   6.490   4.561   0.630  1.7176 -0.9422 -0.6788
    1CHTO    O7  407   6.573   4.621   0.805  0.0642 -0.1981  0.4076
    1CHTO    H2  408   6.539   4.551   0.857 -2.6933  1.4701  0.9255
    1CHTO   C12  409   6.664   4.430   0.664 -0.2542 -0.3007  0.6954
    1CHTO   H25  410   6.758   4.453   0.720 -0.8851  2.7754  0.5714
    1CHTO    N3  411   6.600   4.331   0.753 -0.2730  1.1221 -0.2408
    1CHTO   H12  412   6.648   4.234   0.755  0.1490  1.2984 -1.5670
    1CHTO   H13  413   6.502   4.308   0.714 -0.4321 -0.7843  1.2275
    1CHTO   C15  414   6.710   4.388   0.516  0.7785 -0.4246  0.1433
    1CHTO   H28  415   6.639   4.329   0.460  2.1345 -0.8269 -1.1753
    1CHTO   O10  416   6.849   4.293   0.528  0.1434  0.0087 -0.2022
    1CHTO    H4  417   6.837   4.214   0.578  0.6711 -0.7319 -1.2302
    1CHTO    O5  418   6.763   4.507   0.454  0.1497 -0.7354 -0.3868
    1CHTO   C10  419   6.678   4.622   0.448 -0.2071 -0.0695  0.1950
    1CHTO   H23  420   6.587   4.599   0.394  0.8785  0.6791 -2.0006
    1CHTO   C17  421   6.755   4.721   0.362  0.5972  0.0535  0.2886
    1CHTO   O12  422   6.748   4.695   0.222 -0.2325  0.6744 -0.0219
    1CHTO    H6  423   6.781   4.773   0.184  1.7901 -0.1739 -0.0453
    2CHTO  H203  424   5.464   2.748   3.970 -1.5540 -0.8935 -0.7776
    2CHTO   O82  425   5.412   2.826   3.972  0.1843  0.2988 -0.4463
    2CHTO  C123  426   5.415   2.899   3.849 -0.0300 -0.4205  0.1062
    2CHTO  H227  427   5.411   2.830   3.763 -0.4104 -0.2003 -0.0528
    2CHTO   O77  428   5.287   2.974   3.855 -0.2974  0.4343 -0.1464
    2CHTO  C118  429   5.262   3.046   3.734 -0.0433  0.1213 -0.2596
    2CHTO  H222  430   5.292   2.983   3.649 -1.4901  0.4331 -1.0159
    2CHTO  C125  431   5.109   3.074   3.732 -0.2429 -0.2856 -0.2348
    2CHTO   O84  432   5.068   3.088   3.597  0.2536 -0.1574 -0.2809
    2CHTO  H205  433   4.975   3.077   3.603  0.2906 -1.0673 -1.1437
    2CHTO  C114  434   5.358   3.174   3.730  0.7911  0.2936  0.0251
    2CHTO  H218  435   5.344   3.220   3.828  0.3910 -1.4393  0.7916
    2CHTO  C116  436   5.504   3.126   3.728  0.8877  0.3479  0.8824
    2CHTO  H220  437   5.523   3.088   3.625  0.2329 -0.5596  1.0918
    2CHTO   O79  438   5.593   3.233   3.754  0.3389  0.2870 -0.1391
    2CHTO  H201  439   5.575   3.253   3.844 -2.1570 -1.8508 -0.1148
    2CHTO  C120  440   5.534   3.001   3.827  0.1782 -0.7375  0.2298
    2CHTO  H224  441   5.558   3.045   3.926  1.0930 -0.4220 -0.1314
    2CHTO   N21  442   5.654   2.923   3.796  0.0058 -0.2689  0.1414
    2CHTO  H211  443   5.634   2.854   3.716 -1.6289  2.5310 -1.9663
    2CHTO  H212  444   5.731   2.994   3.771  1.1163 -1.1523  0.9800
    2CHTO   O75  445   5.316   3.254   3.617 -0.4992 -0.1336  0.4412
    2CHTO  C112  446   5.235   3.400   3.637 -0.4405  0.4520 -0.1073
    2CHTO  H216  447   5.240   3.429   3.743 -0.9104 -0.3244  0.1346
    2CHTO   O73  448   5.096   3.386   3.597  0.4167  0.0189 -0.1641
    2CHTO  C113  449   5.016   3.508   3.585 -0.0418  0.7792 -0.5167
    2CHTO  H217  450   5.010   3.553   3.686 -2.0690 -0.5366 -0.0289
    2CHTO  C124  451   4.874   3.464   3.552 -0.1100 -0.2523  0.3994
    2CHTO   O83  452   4.844   3.361   3.464  0.2370  0.1763 -0.2252
    2CHTO  H204  453   4.873   3.380   3.377  1.7043 -2.4722 -0.3660
    2CHTO  C109  454   5.076   3.604   3.484 -0.3958 -0.1954 -0.5022
    2CHTO  H213  455   5.082   3.550   3.389 -0.6588 -0.9328 -0.1074
    2CHTO  C110  456   5.220   3.641   3.516 -0.5650 -0.2847 -0.2396
    2CHTO  H214  457   5.212   3.704   3.605 -0.1547 -0.2695 -0.2121
    2CHTO   O78  458   5.270   3.711   3.404 -0.8482 -0.4994  0.2174
    2CHTO  H200  459   5.326   3.778   3.437  0.6371 -0.4277 -2.2873
    2CHTO  C111  460   5.303   3.507   3.534 -0.4375 -0.3403  0.6397
    2CHTO  H215  461   5.314   3.462   3.435  0.6763  2.0935 -0.3853
    2CHTO   N19  462   5.440   3.525   3.584 -0.0717  0.4050  0.0503
    2CHTO  H207  463   5.444   3.629   3.613 -0.5070  0.4042  0.1052
    2CHTO  H208  464   5.473   3.452   3.656 -0.1562 -0.0496 -0.3698
    2CHTO   O74  465   4.993   3.723   3.469  0.5987 -0.1355  0.1858
    2CHTO  C115  466   4.968   3.771   3.325 -0.6985 -0.1515  0.2664
    2CHTO  H219  467   5.040   3.732   3.252 -0.6032  0.1763  0.1836
    2CHTO   O76  468   4.830   3.716   3.266 -0.2881 -0.3185  0.3102
    2CHTO  C122  469   4.722   3.784   3.326  0.5041 -0.7048  0.5876
    2CHTO  H226  470   4.727   3.768   3.433  0.9956 -0.8161  0.5480
    2CHTO  C126  471   4.597   3.708   3.277  0.1074  0.3191  0.3416
    2CHTO   O85  472   4.587   3.685   3.136  0.0383 -0.0794 -0.0231
    2CHTO  H206  473   4.624   3.600   3.120 -0.3865 -0.6290  1.7982
    2CHTO  C121  474   4.718   3.932   3.277 -0.2063 -0.0884  0.8686
    2CHTO  H225  475   4.650   3.948   3.191  1.8426 -1.0239 -0.9508
    2CHTO   O81  476   4.666   4.016   3.377  0.2966 -0.5503 -0.3837
    2CHTO  H202  477   4.583   3.988   3.411  0.5440  0.1919  0.8855
    2CHTO  C119  478   4.854   3.991   3.231  0.3994  0.2759  0.5319
    2CHTO  H223  479   4.870   3.953   3.130  0.0745  0.9189  0.2287
    2CHTO  C117  480   4.969   3.931   3.325  0.0064 -0.4281  0.0122
    2CHTO  H221  481   4.945   3.958   3.427 -2.0915 -0.3420 -0.4795
    2CHTO   N20  482   5.107   3.979   3.293  0.0370  0.2009 -0.4616
    2CHTO  H209  483   5.110   4.085   3.271  0.1456  0.0106 -1.4140
    2CHTO  H210  484   5.146   3.923   3.209  0.2736 -1.0853  0.4859
    2CHTO   O80  485   4.856   4.154   3.204 -0.3848 -0.1313 -0.6135
    2CHTO  C103  486   4.811   4.220   3.063  0.1826  0.0238 -0.7739
    2CHTO  H190  487   4.897   4.238   2.999  0.2872 -1.4438 -1.0557
    2CHTO  C101  488   4.701   4.151   2.974 -0.0202  0.7977  0.3626
    2CHTO  H188  489   4.629   4.114   3.046  1.4211 -1.3079  0.7849
    2CHTO   O68  490   4.747   4.011   2.916  0.0046 -0.0905  0.0430
    2CHTO  H168  491   4.839   4.012   2.898  0.1265  1.8691  0.7096
    2CHTO   C99  492   4.642   4.245   2.858 -0.2533  0.5913  0.5170
    2CHTO  H186  493   4.717   4.272   2.781 -1.5232  1.5275 -0.4306
    2CHTO   N17  494   4.521   4.190   2.786  0.5443  0.6486  0.3946
    2CHTO  H174  495   4.539   4.182   2.680 -0.4446 -1.3189  0.3530
    2CHTO  H175  496   4.481   4.102   2.834 -1.2605  0.2670 -1.7048
    2CHTO   C97  497   4.600   4.379   2.920 -0.1313  0.0568  0.1011
    2CHTO  H184  498   4.520   4.356   2.992  1.2873 -0.6340  1.4971
    2CHTO   O64  499   4.716   4.432   2.986  0.2187  0.3710  0.1789
    2CHTO  C104  500   4.758   4.359   3.105 -0.8944  0.0104 -0.3703
    2CHTO  H191  501   4.681   4.348   3.181  0.1576 -0.1172  0.6943
    2CHTO  C108  502   4.867   4.432   3.178  0.0749 -0.3897 -0.0091
    2CHTO   O71  503   4.831   4.564   3.214 -0.1342  0.3432 -0.0170
    2CHTO  H171  504   4.908   4.615   3.230  1.8081 -2.5583  0.2998
    2CHTO   O62  505   4.552   4.468   2.825  0.5092 -0.2085  0.4983
    2CHTO   C91  506   4.479   4.580   2.870 -0.2650 -0.2238  0.3540
    2CHTO  H178  507   4.481   4.581   2.979 -1.9450  0.2770  0.3956
    2CHTO   C92  508   4.329   4.562   2.832 -0.4430 -0.3305 -0.9011
    2CHTO  H179  509   4.309   4.459   2.863  0.3048  0.0998  1.1384
    2CHTO   O66  510   4.238   4.637   2.919 -0.5554  0.3883  0.2116
    2CHTO  H166  511   4.244   4.726   2.891  0.3685  0.2925  0.0754
    2CHTO   C93  512   4.305   4.596   2.684 -0.0092 -0.0902  0.1764
    2CHTO  H180  513   4.195   4.599   2.678 -0.2055  0.4602  3.2576
    2CHTO   N16  514   4.354   4.500   2.580 -0.1897  0.4047  0.0549
    2CHTO  H172  515   4.328   4.541   2.483 -1.4178  0.6108  0.4550
    2CHTO  H173  516   4.315   4.400   2.593 -0.9141  0.4291 -1.7478
    2CHTO   C94  517   4.356   4.740   2.647  0.5551 -0.2580 -0.1263
    2CHTO  H181  518   4.431   4.740   2.568  0.2200  0.7300 -0.4585
    2CHTO   O61  519   4.426   4.802   2.755 -0.2841 -0.2051  0.2216
    2CHTO   C95  520   4.530   4.719   2.815 -0.2681 -0.5255 -0.1967
    2CHTO  H182  521   4.606   4.700   2.738 -0.2832 -1.1709 -0.0586
    2CHTO  C106  522   4.589   4.811   2.932  0.5782  0.0367  0.5569
    2CHTO   O69  523   4.670   4.758   3.035  0.1414  0.2155 -0.9804
    2CHTO  H169  524   4.755   4.797   3.029  0.6188 -0.0807  2.6955
    2CHTO   O63  525   4.217   4.822   2.587 -0.1168 -0.4047  0.4784
    2CHTO   C96  526   4.190   4.957   2.604 -0.5245  0.5035  0.2075
    2CHTO  H183  527   4.269   4.991   2.671 -1.3925 -0.6600  1.8432
    2CHTO   C98  528   4.057   4.971   2.686  0.1710 -0.6485  0.7773
    2CHTO  H185  529   3.974   4.928   2.629  0.4118 -0.7942  0.5368
    2CHTO   O67  530   4.072   4.885   2.798  0.3907 -0.2428 -0.3108
    2CHTO  H167  531   4.100   4.796   2.782  1.0428 -0.2850  0.9705
    2CHTO  C102  532   4.035   5.125   2.724  0.1561  0.2138 -0.2935
    2CHTO  H189  533   4.108   5.151   2.802 -1.0141  0.6179  0.6871
    2CHTO   N18  534   3.909   5.151   2.794 -0.7791  0.0562  0.3015
    2CHTO  H176  535   3.934   5.116   2.892 -0.8832 -0.5860  0.1002
    2CHTO  H177  536   3.831   5.096   2.743 -1.2279 -1.2999  2.3998
    2CHTO  C105  537   4.047   5.212   2.595 -0.1666  0.4240  0.2058
    2CHTO  H192  538   3.951   5.256   2.566  0.4944  0.4207 -2.1056
    2CHTO   O65  539   4.076   5.143   2.469  0.4464  0.5411  0.5853
    2CHTO  C100  540   4.180   5.036   2.470 -0.2407  0.0441  0.2641
    2CHTO  H187  541   4.147   4.972   2.388 -0.8700  0.2518  0.3513
    2CHTO  C107  542   4.315   5.090   2.435 -0.2609 -0.1161 -0.1539
    2CHTO   O70  543   4.314   5.152   2.305 -0.0988  0.1335 -0.4726
    2CHTO  H170  544   4.278   5.096   2.239  0.5309  1.0992 -1.6569
    2CHTO   O57  545   4.160   5.332   2.628 -0.1674  0.1544 -0.8224
    2CHTO   C85  546   4.132   5.475   2.601 -0.1273  1.1476 -0.6017
    2CHTO  H157  547   4.031   5.494   2.644 -2.5499 -2.0835 -4.5181
    2CHTO   C83  548   4.124   5.486   2.445  0.6855 -0.1075  0.8726
    2CHTO  H155  549   4.036   5.433   2.408  0.9694  0.2320 -0.2958
    2CHTO   O56  550   4.234   5.430   2.371  0.3310 -0.3105  0.2649
    2CHTO  H135  551   4.314   5.476   2.386 -0.2735  1.2935 -1.3345
    2CHTO   C81  552   4.112   5.636   2.416  0.4989 -0.4849  0.1216
    2CHTO  H153  553   4.026   5.670   2.474  2.2037  2.4013  1.0335
    2CHTO   N14  554   4.073   5.666   2.272 -0.5248  0.1187  0.0028
    2CHTO  H141  555   4.048   5.766   2.246 -4.6605 -0.5748  0.8891
    2CHTO  H142  556   3.997   5.599   2.237  2.0030 -2.9139  0.0509
    2CHTO   C79  557   4.237   5.717   2.462  1.1966 -0.1694  0.0490
    2CHTO  H151  558   4.213   5.820   2.437 -1.0360 -0.3192  1.4376
    2CHTO   O52  559   4.243   5.712   2.601  0.1032 -0.4840  0.2867
    2CHTO   C86  560   4.250   5.574   2.659  0.5525 -0.1303  0.0210
    2CHTO  H158  561   4.347   5.526   2.632  1.1382  0.5834  0.8561
    2CHTO   C90  562   4.243   5.579   2.813 -0.1114 -0.2486 -0.9751
    2CHTO   O60  563   4.325   5.672   2.880 -0.2499 -0.6138 -0.1771
    2CHTO  H138  564   4.284   5.756   2.875 -0.0332 -0.6051 -2.4455
    2CHTO   O50  565   4.359   5.685   2.389 -0.2840 -0.1461 -0.4803
    2CHTO   C73  566   4.487   5.730   2.339  0.0840  0.0313 -0.2472
    2CHTO  H145  567   4.480   5.829   2.292  1.1636  1.0539  1.6696
    2CHTO   C74  568   4.540   5.619   2.235  0.0885 -0.4083 -0.9114
    2CHTO  H146  569   4.475   5.610   2.147 -0.8684  0.8408 -0.3467
    2CHTO   O54  570   4.665   5.665   2.185 -0.1985 -0.1963  0.2938
    2CHTO  H133  571   4.683   5.623   2.103 -0.7279  0.1489 -0.0040
    2CHTO   C75  572   4.564   5.476   2.305  0.3912  0.7777 -0.1887
    2CHTO  H147  573   4.466   5.443   2.344 -0.4319  3.1841 -0.1551
    2CHTO   N13  574   4.605   5.363   2.222 -0.4351  0.1166 -0.1229
    2CHTO  H139  575   4.683   5.393   2.153 -0.7544  3.5984  0.9388
    2CHTO  H140  576   4.517   5.319   2.177  0.6323 -1.4960 -0.6770
    2CHTO   C76  577   4.649   5.496   2.439 -0.3775  0.0188 -0.3058
    2CHTO  H148  578   4.754   5.502   2.409 -0.7360  3.0194 -1.0213
    2CHTO   O49  579   4.603   5.610   2.517  0.1864 -0.0782  0.0271
    2CHTO   C77  580   4.590   5.735   2.453 -0.0571 -0.8518  0.0058
    2CHTO  H149  581   4.685   5.769   2.412  1.4331 -1.0734  3.1013
    2CHTO   C88  582   4.559   5.843   2.557 -0.2471  0.2518 -0.2244
    2CHTO   O58  583   4.655   5.848   2.673 -0.2852  0.1711 -0.0947
    2CHTO  H136  584   4.734   5.882   2.636  0.3726  0.7182  1.7846
    2CHTO   O51  585   4.648   5.365   2.531  0.0903  0.5224  0.1139
    2CHTO   C78  586   4.751   5.349   2.649 -0.0121  0.3326 -0.1060
    2CHTO  H150  587   4.779   5.445   2.696  0.4658 -0.1947  0.6910
    2CHTO   C80  588   4.885   5.282   2.606  0.4530 -0.3187  0.0217
    2CHTO  H152  589   4.862   5.180   2.569 -0.3078 -1.0315  2.3834
    2CHTO   O55  590   4.932   5.372   2.498  0.2767  0.6516 -0.4772
    2CHTO  H134  591   4.940   5.462   2.524  1.4598  0.4791 -0.2025
    2CHTO   C84  592   4.986   5.270   2.718 -0.1373  0.8972  0.4455
    2CHTO  H156  593   5.012   5.374   2.740  3.3254  0.1993 -0.0007
    2CHTO   N15  594   5.122   5.214   2.683  0.0138  0.7630 -0.3252
    2CHTO  H143  595   5.141   5.213   2.578 -0.5711  1.2218 -0.4370
    2CHTO  H144  596   5.126   5.112   2.714  1.2903  1.1785  0.9545
    2CHTO   C87  597   4.924   5.205   2.840 -0.5708 -0.0478  0.0734
    2CHTO  H159  598   4.930   5.098   2.818  3.0369  0.5355 -2.1186
    2CHTO   O53  599   4.769   5.268   2.877 -0.4105  0.1640 -0.1701
    2CHTO   C82  600   4.684   5.270   2.765 -0.1148  0.0244  0.4972
    2CHTO  H154  601   4.664   5.167   2.734 -0.2966  0.6626 -1.5952
    2CHTO   C89  602   4.544   5.331   2.810 -0.8586 -0.0589  0.6606
    2CHTO   O59  603   4.459   5.235   2.868  0.0965 -0.0913  0.3075
    2CHTO  H137  604   4.370   5.236   2.839 -0.4596  1.6764  1.9454
    2CHTO   O45  605   5.019   5.223   2.984 -0.3359  0.1046  0.1098
    2CHTO   C67  606   4.971   5.142   3.093 -0.2939 -0.3443 -0.0535
    2CHTO  H124  607   4.862   5.150   3.100 -0.4453 -2.4075  0.1268
    2CHTO   C65  608   5.010   4.998   3.081 -0.1613 -0.3577  0.7482
    2CHTO  H122  609   5.100   5.016   3.021  0.5333 -0.3356  1.7916
    2CHTO   O44  610   4.899   4.934   3.012 -0.8168  0.4606  0.3873
    2CHTO  H102  611   4.923   4.845   2.997 -0.2582  0.3385  1.9418
    2CHTO   C63  612   5.070   4.930   3.213  0.1212 -0.0692  0.1901
    2CHTO  H120  613   5.166   4.976   3.234  0.1115  0.5985 -1.1713
    2CHTO   N11  614   5.104   4.781   3.204 -1.2962 -0.1597 -0.0652
    2CHTO  H108  615   5.095   4.742   3.104 -1.2409 -0.5810  0.0972
    2CHTO  H109  616   5.054   4.729   3.282 -0.6471  2.8222  2.4425
    2CHTO   C61  617   4.981   4.981   3.322  0.1013 -0.2445 -0.1877
    2CHTO  H118  618   5.024   4.939   3.414 -2.1565  0.5825  1.3136
    2CHTO   O40  619   4.981   5.131   3.343 -0.7844  0.5222 -0.5840
    2CHTO   C68  620   5.021   5.215   3.225 -0.4332  0.3658 -0.4077
    2CHTO  H125  621   5.132   5.212   3.221 -0.4557 -2.7650 -0.0460
    2CHTO   C72  622   4.978   5.363   3.245  0.4280 -0.2115  0.4047
    2CHTO   O48  623   5.052   5.439   3.333 -0.4621  0.3420  0.3942
    2CHTO  H105  624   5.022   5.527   3.344  0.9567  0.7523  1.0821
    2CHTO   O38  625   4.853   4.931   3.301  0.6170  0.1502 -0.1729
    2CHTO   C55  626   4.750   4.952   3.403  0.0480 -0.6771  0.1498
    2CHTO  H112  627   4.785   5.003   3.494 -1.1939 -0.1678  0.3486
    2CHTO   C56  628   4.700   4.808   3.438 -0.9299  0.0721  0.5547
    2CHTO  H113  629   4.690   4.766   3.336  3.1915 -0.0660  0.1372
    2CHTO   O42  630   4.808   4.740   3.500 -0.4101 -0.5231  0.2539
    2CHTO  H100  631   4.779   4.678   3.564 -0.8583 -0.3217  0.2411
    2CHTO   C57  632   4.570   4.813   3.525 -0.1221 -0.3299  0.0530
    2CHTO  H114  633   4.604   4.841   3.625  1.6417  0.0362 -0.6180
    2CHTO   N10  634   4.510   4.677   3.530 -0.2395  0.3282  0.1089
    2CHTO  H106  635   4.514   4.625   3.435 -0.2310 -0.7287  0.6747
    2CHTO  H107  636   4.564   4.616   3.600 -0.0038 -0.9679 -1.1715
    2CHTO   C58  637   4.467   4.920   3.475 -0.1357 -0.2017  0.0960
    2CHTO  H115  638   4.414   4.877   3.386  0.2398 -0.8651  0.1884
    2CHTO   O37  639   4.532   5.043   3.445  0.0246 -0.3978 -0.5559
    2CHTO   C59  640   4.628   5.037   3.344 -0.4413 -0.1234  0.8966
    2CHTO  H116  641   4.583   4.989   3.258  1.5096 -0.2082 -0.1066
    2CHTO   C70  642   4.650   5.183   3.297 -0.6464 -0.0934 -0.6871
    2CHTO   O46  643   4.547   5.237   3.212  0.0098  0.0349 -0.2238
    2CHTO  H103  644   4.577   5.324   3.195 -2.2319  0.5764 -1.5085
    2CHTO   O39  645   4.363   4.957   3.600  0.1453 -0.2255  0.4816
    2CHTO   C60  646   4.274   5.068   3.578  0.8397  0.3025 -0.6256
    2CHTO  H117  647   4.298   5.117   3.483 -0.6181  1.2474 -0.5240
    2CHTO   C62  648   4.120   5.029   3.564 -0.1337  0.4837 -0.1408
    2CHTO  H119  649   4.113   4.950   3.487  0.0740  1.6093 -1.3440
    2CHTO   O43  650   4.059   4.961   3.680  0.1203 -0.3433 -0.2760
    2CHTO  H101  651   4.039   4.870   3.668  0.8372 -0.1561 -3.6391
    2CHTO   C66  652   4.044   5.155   3.507 -0.4050  0.1767 -0.5978
    2CHTO  H123  653   4.102   5.192   3.423  1.5438 -0.0741  0.5799
    2CHTO   N12  654   3.913   5.126   3.464  0.3645  0.1309  0.1876
    2CHTO  H110  655   3.899   5.141   3.358  0.2654  0.2477  0.2158
    2CHTO  H111  656   3.842   5.187   3.518  1.5548  0.4919  1.3894
    2CHTO   C69  657   4.043   5.255   3.624 -0.2042  0.3372 -0.9178
    2CHTO  H126  658   3.980   5.217   3.708 -1.0516 -0.1472 -1.7676
    2CHTO   O41  659   4.201   5.296   3.675 -0.3299 -0.1311  0.0684
    2CHTO   C64  660   4.294   5.171   3.694 -0.0489  0.2995 -0.1820
    2CHTO  H121  661   4.274   5.116   3.788  1.4973  0.5919  0.3232
    2CHTO   C71  662   4.436   5.233   3.700  0.2092  0.0664  0.1320
    2CHTO   O47  663   4.527   5.140   3.755 -0.0314  0.3721  0.7277
    2CHTO  H104  664   4.507   5.107   3.841  1.5206 -1.5305  0.3964
    2CHTO   O34  665   3.968   5.392   3.575 -0.2677  0.0347 -0.2369
    2CHTO   C49  666   3.965   5.524   3.523  0.1043  0.0261 -0.5170
    2CHTO   H91  667   3.862   5.558   3.529  0.6723  1.6071  0.7344
    2CHTO   C47  668   4.017   5.522   3.376  0.2203  0.9804  0.5853
    2CHTO   H89  669   3.989   5.620   3.331  0.4987 -0.3498 -2.6362
    2CHTO   O33  670   3.938   5.425   3.301  0.2789  0.0549  0.8389
    2CHTO   H70  671   3.955   5.335   3.323 -2.0881 -0.4854  0.5957
    2CHTO   C45  672   4.176   5.500   3.369 -1.0855  0.3471  0.3137
    2CHTO   H87  673   4.201   5.412   3.431 -2.6363  0.7582  1.5764
    2CHTO    N8  674   4.227   5.477   3.230 -0.0468 -0.0755 -0.4825
    2CHTO   H75  675   4.332   5.456   3.247 -0.5425 -1.7074  0.6258
    2CHTO   H76  676   4.186   5.388   3.185 -1.3675  0.8989 -1.2434
    2CHTO   C43  677   4.246   5.623   3.442 -0.6229 -0.0825  0.1142
    2CHTO   H85  678   4.353   5.602   3.443 -0.6334 -0.5108 -3.7447
    2CHTO   O29  679   4.193   5.633   3.576 -0.5462  0.4605 -0.1651
    2CHTO   C50  680   4.053   5.628   3.599  0.3184  0.2374  0.6493
    2CHTO   H92  681   4.052   5.594   3.704  0.2149 -1.5570  0.0863
    2CHTO   C54  682   3.976   5.766   3.605  0.2120 -0.5165 -0.1014
    2CHTO   O36  683   4.037   5.855   3.697 -0.5217 -0.1857 -0.4143
    2CHTO   H72  684   4.127   5.861   3.670 -0.0614  0.6626  1.2520
    2CHTO   O27  685   4.228   5.749   3.375 -0.2635 -0.3149  0.0505
    2CHTO   C37  686   4.215   5.871   3.298  0.3721  0.6216 -0.3180
    2CHTO   H79  687   4.280   5.867   3.210 -1.0030 -0.7949 -1.3108
    2CHTO   C38  688   4.072   5.892   3.244 -0.2829  0.1779  0.0193
    2CHTO   H80  689   4.000   5.889   3.327 -1.7917 -0.2862 -1.2750
    2CHTO   O31  690   4.052   5.787   3.150  0.4703  0.5749  0.0351
    2CHTO   H68  691   3.960   5.770   3.140  0.0415  2.5716  0.3557
    2CHTO   C39  692   4.061   6.032   3.165 -0.2010  0.0201  0.1497
    2CHTO   H81  693   4.143   6.021   3.093 -1.7192 -1.5808 -1.3801
    2CHTO    N7  694   3.941   6.062   3.083  0.0043  0.2085 -0.6207
    2CHTO   H73  695   3.970   6.145   3.019  2.0028  0.2461  0.2933
    2CHTO   H74  696   3.867   6.094   3.155 -0.9249 -0.7133 -1.1543
    2CHTO   C40  697   4.106   6.142   3.264 -0.0872 -0.6703 -0.5108
    2CHTO   H82  698   4.032   6.137   3.344 -0.6843 -0.0172 -1.0071
    2CHTO   O26  699   4.238   6.119   3.308 -0.5271  0.7699 -0.4301
    2CHTO   C41  700   4.250   5.994   3.388  0.0012 -1.1014 -0.1968
    2CHTO   H83  701   4.169   5.990   3.461 -1.2501  1.8642 -1.3167
    2CHTO   C52  702   4.390   5.999   3.450 -0.7912 -0.4260 -0.3426
    2CHTO   O35  703   4.405   6.097   3.554  0.2670 -0.2026  0.2240
    2CHTO   H71  704   4.335   6.091   3.617 -0.6378 -1.5891 -0.8720
    2CHTO   O28  705   4.111   6.278   3.207  0.8330 -0.7383 -0.1644
    2CHTO   C42  706   4.105   6.396   3.296 -0.6319  0.7638 -0.4985
    2CHTO   H84  707   4.130   6.480   3.230  3.9933  1.0887  1.4807
    2CHTO   C44  708   4.215   6.404   3.408  0.1418 -0.9350  0.2506
    2CHTO   H86  709   4.192   6.331   3.485  1.5066  0.3647  1.9214
    2CHTO   O32  710   4.340   6.371   3.332  0.6011  0.3937 -0.5595
    2CHTO   H69  711   4.338   6.314   3.257 -1.3823  1.2145 -1.1700
    2CHTO   C48  712   4.208   6.554   3.472  0.2359  0.5073 -0.4443
    2CHTO   H90  713   4.224   6.630   3.396  0.7001  1.6529  0.7873
    2CHTO    N9  714   4.320   6.575   3.569  0.0378  0.2557  0.4904
    2CHTO   H77  715   4.300   6.661   3.631  0.5039  0.6680  0.0785
    2CHTO   H78  716   4.417   6.588   3.522  1.9717 -0.6243  3.9925
    2CHTO   C51  717   4.063   6.568   3.533  0.0612 -0.2069 -0.3382
    2CHTO   H93  718   4.046   6.494   3.611 -2.2589 -0.6452 -1.2420
    2CHTO   O30  719   3.967   6.559   3.425 -0.3145 -0.0664  0.1900
    2CHTO   C46  720   3.961   6.423   3.355  0.0168  0.9738 -0.4810
    2CHTO   H88  721   3.930   6.359   3.438  1.1585 -1.0013 -1.5287
    2CHTO   C53  722   3.851   6.444   3.239  0.1871  0.3724 -0.0961
    2CHTO   O72  723   3.718   6.469   3.281  0.2151  0.2579  0.1961
    2CHTO  H199  724   3.703   6.556   3.314 -0.6263  0.0202  0.4429
    2CHTO   O22  725   4.040   6.693   3.587 -0.2638  0.2581 -0.9259
    2CHTO   C31  726   3.929   6.712   3.690  0.0512 -0.0950  0.0353
    2CHTO   H59  727   3.909   6.821   3.695 -0.2361 -0.1302 -0.3092
    2CHTO   C29  728   3.796   6.646   3.653 -0.2807 -0.0263  0.4155
    2CHTO   H57  729   3.817   6.538   3.651  0.2790  0.0899 -0.5715
    2CHTO   O21  730   3.742   6.684   3.521  0.1113  0.2460 -0.0222
    2CHTO   H37  731   3.728   6.776   3.518 -0.9919  0.1459  1.3239
    2CHTO   C27  732   3.685   6.689   3.764  0.1401  0.5195  0.3025
    2CHTO   H55  733   3.685   6.799   3.770  1.7313  0.4596  1.6106
    2CHTO    N5  734   3.546   6.640   3.743 -0.8993 -0.4172  0.0122
    2CHTO   H43  735   3.501   6.580   3.820 -0.9490  1.0534  1.1642
    2CHTO   H44  736   3.490   6.727   3.713  0.1539 -0.5033 -2.3227
    2CHTO   C25  737   3.738   6.651   3.906 -0.2891  0.0622  0.0791
    2CHTO   H53  738   3.756   6.543   3.915 -0.7632 -0.0023  0.2744
    2CHTO   O17  739   3.868   6.709   3.929  0.2234 -0.0960 -0.0063
    2CHTO   C32  740   3.969   6.675   3.830 -0.3906 -0.0136 -0.0963
    2CHTO   H60  741   3.986   6.567   3.833 -0.2965  0.0171  0.5013
    2CHTO   C36  742   4.107   6.742   3.868  0.7655 -0.2278 -0.0634
    2CHTO   O25  743   4.094   6.883   3.877  0.6649 -0.2891  0.2064
    2CHTO   H40  744   4.020   6.907   3.930 -1.5487  0.9525 -3.2670
    2CHTO   O15  745   3.658   6.703   4.024  0.2865 -0.0581 -0.1867
    2CHTO   C19  746   3.594   6.638   4.142  0.0469  0.3283 -0.0210
    2CHTO   H47  747   3.500   6.696   4.151  0.1682  0.2104  2.2701
    2CHTO   C20  748   3.565   6.486   4.119 -0.6935 -0.2434  0.0780
    2CHTO   H48  749   3.654   6.432   4.084  1.1581  2.1178  0.9949
    2CHTO   O19  750   3.460   6.475   4.014 -0.4440 -0.1833 -0.1296
    2CHTO   H35  751   3.381   6.515   4.045 -0.1929  0.2769 -0.0721
    2CHTO   C21  752   3.512   6.413   4.252  0.0563  0.2610 -0.1716
    2CHTO   H49  753   3.410   6.448   4.269 -0.2485 -1.3610  1.4691
    2CHTO    N4  754   3.510   6.263   4.234  0.0538  0.0103 -0.0746
    2CHTO   H41  755   3.546   6.224   4.328  2.2017  1.6605 -0.1610
    2CHTO   H42  756   3.563   6.220   4.150 -1.0465 -0.3206 -0.6045
    2CHTO   C22  757   3.600   6.457   4.371 -0.2220 -0.0061  0.0257
    2CHTO   H50  758   3.699   6.417   4.352 -0.2545  1.6188 -3.9980
    2CHTO   O14  759   3.602   6.603   4.383 -0.5485 -0.2215  0.2179
    2CHTO   C23  760   3.672   6.658   4.273  0.1692 -0.0921  0.3484
    2CHTO   H51  761   3.767   6.602   4.271 -0.0956 -0.5327  0.0606
    2CHTO   C34  762   3.705   6.804   4.312 -0.4444 -0.2029  0.0391
    2CHTO   O23  763   3.786   6.819   4.427  0.1645  0.2912 -0.1962
    2CHTO   H38  764   3.832   6.900   4.436  1.6388 -0.6149  0.7287
    2CHTO   O16  765   3.536   6.428   4.494  0.4832  0.8709  0.4295
    2CHTO   C24  766   3.633   6.373   4.600 -0.0828  0.3103 -0.7586
    2CHTO   H52  767   3.736   6.395   4.573 -0.1303  0.8993 -0.4755
    2CHTO   C26  768   3.611   6.231   4.638 -0.4284  0.4068 -0.1476
    2CHTO   H54  769   3.501   6.218   4.647 -0.7146  3.1935  0.9497
    2CHTO   O20  770   3.653   6.154   4.523  0.7350  0.3689  0.1762
    2CHTO   H36  771   3.623   6.065   4.530 -0.2482  0.7959  1.6200
    2CHTO   C30  772   3.675   6.175   4.769  0.6373 -0.2132  0.1896
    2CHTO   H58  773   3.780   6.152   4.745  0.5388  0.8613 -1.3454
    2CHTO    N6  774   3.623   6.042   4.809  0.0087  0.2891 -0.2546
    2CHTO   H45  775   3.659   6.015   4.907 -1.5018 -0.4294  0.1223
    2CHTO   H46  776   3.657   5.966   4.741  1.4029 -0.9329  1.7620
    2CHTO   C33  777   3.669   6.278   4.889 -0.3293  0.0097 -0.6268
    2CHTO   H61  778   3.564   6.284   4.923 -0.0413  1.8187 -0.0382
    2CHTO   O18  779   3.705   6.409   4.841  0.2580 -0.0320  0.1471
    2CHTO   C28  780   3.613   6.455   4.734  0.1852 -0.1592 -0.2706
    2CHTO   H56  781   3.510   6.438   4.767  0.7099 -2.0448  0.4949
    2CHTO   C35  782   3.632   6.610   4.711  0.1441 -0.2712 -0.2374
    2CHTO   O24  783   3.531   6.665   4.634 -0.3151 -0.5560  0.0751
    2CHTO   H39  784   3.515   6.752   4.664 -0.1699 -0.3198 -0.5249
    2CHTO    O9  785   3.756   6.238   4.991 -0.0193  0.0555 -0.9529
    2CHTO   C13  786   3.732   6.321   5.129 -0.3743  0.0692 -0.4832
    2CHTO   H26  787   3.628   6.359   5.132 -0.4545 -0.0672 -1.4910
    2CHTO   C11  788   3.836   6.442   5.154 -0.8485  0.1058  0.1763
    2CHTO   H24  789   3.811   6.521   5.082 -2.1785  0.6300  1.1894
    2CHTO    O8  790   3.964   6.385   5.116 -0.4937 -0.1936  0.0335
    2CHTO    H3  791   3.984   6.300   5.152  1.0055 -0.3203 -1.0372
    2CHTO    C9  792   3.835   6.489   5.304 -0.2833 -0.1036 -0.9271
    2CHTO   H22  793   3.729   6.508   5.327  0.3762  0.5197  1.8208
    2CHTO    N2  794   3.905   6.619   5.333  0.0799 -0.1741  1.3086
    2CHTO   H10  795   4.011   6.599   5.335  0.3466  0.5652 -1.8797
    2CHTO   H11  796   3.878   6.668   5.425  0.0833 -0.6776  1.5806
    2CHTO    C7  797   3.886   6.363   5.389  0.4327  0.2812 -1.4648
    2CHTO   H20  798   3.833   6.361   5.487  0.0825 -1.6325 -1.6644
    2CHTO    O4  799   3.861   6.236   5.323 -0.4305  0.2869 -0.4435
    2CHTO   C14  800   3.730   6.222   5.254  0.2956 -0.5261  0.8538
    2CHTO   H27  801   3.652   6.245   5.329  0.6204 -0.3763  1.1508
    2CHTO   C18  802   3.715   6.073   5.205 -0.2046 -0.0112 -0.0811
    2CHTO   O13  803   3.594   6.050   5.139 -0.3138  0.4689  0.1656
    2CHTO    H7  804   3.526   6.086   5.193 -0.0520 -1.3739  1.7734
    2CHTO    O2  805   4.045   6.366   5.425 -0.0589 -0.3228 -1.2910
    2CHTO    C1  806   4.075   6.311   5.554 -0.2778  1.1922  0.2971
    2CHTO   H14  807   3.999   6.233   5.575  2.1517 -1.1208  0.6393
    2CHTO    C2  808   4.070   6.416   5.667 -0.2380 -0.6050  0.7176
    2CHTO   H15  809   4.123   6.509   5.640 -0.3141 -0.9795 -0.7302
    2CHTO    O6  810   3.934   6.454   5.691 -0.0897  0.1885  0.4929
    2CHTO    H1  811   3.902   6.485   5.609 -2.4147 -0.0894  1.2699
    2CHTO    C3  812   4.124   6.376   5.809 -0.2664 -0.0417 -0.0426
    2CHTO   H16  813   4.057   6.307   5.862  0.7794  0.9204  2.5909
    2CHTO    N1  814   4.139   6.491   5.907  0.2239  0.0159  0.8764
    2CHTO    H8  815   4.088   6.580   5.875 -0.8655 -0.2477  1.8357
    2CHTO    H9  816   4.242   6.521   5.898 -0.1440  1.0679  0.1541
    2CHTO    C4  817   4.254   6.285   5.783 -0.2760  0.4762  0.5615
    2CHTO   H17  818   4.339   6.349   5.759  0.3984  1.4477  5.1348
    2CHTO    O1  819   4.239   6.177   5.688  1.0334 -0.5475  0.4003
    2CHTO    C5  820   4.211   6.228   5.556 -0.1905  0.1268 -0.0183
    2CHTO   H18  821   4.295   6.291   5.526 -1.7672  1.8249 -0.9891
    2CHTO   C16  822   4.213   6.100   5.470 -0.3815 -0.2559  0.5745
    2CHTO   O11  823   4.197   6.132   5.331 -0.3650 -0.1509 -0.5406
    2CHTO    H5  824   4.259   6.080   5.282  0.3237  0.8826 -0.7895
    2CHTO    O3  825   4.271   6.219   5.912  0.0715  0.5129  0.5900
    2CHTO    C6  826   4.398   6.151   5.929 -0.1980 -0.3487  1.0737
    2CHTO   H19  827   4.439   6.125   5.831  0.8809  0.9036  1.1820
    2CHTO    C8  828   4.492   6.238   6.013 -0.1656  0.7373 -0.2431
    2CHTO   H21  829   4.444   6.269   6.106 -0.1156  1.9627 -0.6137
    2CHTO    O7  830   4.525   6.356   5.939  0.1233 -0.5833 -0.5288
    2CHTO    H2  831   4.544   6.424   6.001  1.1714 -2.1403  0.8722
    2CHTO   C12  832   4.628   6.161   6.036  0.9372 -0.2799  0.2767
    2CHTO   H25  833   4.673   6.156   5.935  0.9354  1.8462  0.1358
    2CHTO    N3  834   4.730   6.247   6.110  0.1863 -0.9030 -0.1386
    2CHTO   H12  835   4.716   6.347   6.148 -0.5610 -0.1949 -2.2222
    2CHTO   H13  836   4.795   6.182   6.167  1.1772 -0.2295 -0.4864
    2CHTO   C15  837   4.602   6.017   6.091  0.2586 -0.1876 -0.1833
    2CHTO   H28  838   4.568   6.010   6.194 -0.6419 -1.9364 -0.5771
    2CHTO   O10  839   4.708   5.937   6.094  0.3051  0.3674  0.3122
    2CHTO    H4  840   4.766   5.930   6.021 -0.2580  1.0107 -0.2020
    2CHTO    O5  841   4.506   5.944   6.015 -0.1779  0.2735 -0.0992
    2CHTO   C10  842   4.377   6.011   6.006 -0.7143 -0.5743 -0.0253
    2CHTO   H23  843   4.344   6.031   6.108 -0.0585 -1.7866  0.4252
    2CHTO   C17  844   4.272   5.916   5.950 -0.0922  0.9773  0.3886
    2CHTO   O12  845   4.286   5.893   5.814  0.1814  0.6357 -0.1633
    2CHTO    H6  846   4.208   5.852   5.782  1.5587 -2.7768  0.6270
    3CHTO  H203  847   6.486   1.216   1.983  0.6372  1.7822  1.4010
    3CHTO   O82  848   6.471   1.299   1.940 -0.0469  1.0388  0.1672
    3CHTO  C123  849   6.570   1.323   1.838  0.8292  0.3692  0.0348
    3CHTO  H227  850   6.580   1.231   1.778 -1.9181 -0.5823  0.9168
    3CHTO   O77  851   6.495   1.425   1.756  0.1654  0.4838 -0.2599
    3CHTO  C118  852   6.570   1.458   1.639 -0.0719  0.0102 -0.0869
    3CHTO  H222  853   6.602   1.371   1.579  2.8099  0.6400  0.4500
    3CHTO  C125  854   6.477   1.550   1.543  0.1284 -0.0223 -0.4218
    3CHTO   O84  855   6.414   1.655   1.620  0.2204 -0.2181  0.2446
    3CHTO  H205  856   6.324   1.678   1.608  0.8680  2.7552  0.8605
    3CHTO  C114  857   6.700   1.531   1.681 -0.1333 -0.5201  0.2415
    3CHTO  H218  858   6.674   1.612   1.749  1.4736 -0.3782  0.6985
    3CHTO  C116  859   6.790   1.444   1.765 -0.0358 -0.2652 -0.3062
    3CHTO  H220  860   6.834   1.362   1.704 -0.1839 -0.4986 -0.0978
    3CHTO   O79  861   6.899   1.524   1.814  0.3230 -0.2942  0.0973
    3CHTO  H201  862   6.971   1.522   1.754  0.6345 -0.1913  0.4676
    3CHTO  C120  863   6.705   1.391   1.890  0.1898  0.9651  0.2175
    3CHTO  H224  864   6.686   1.477   1.957 -0.9479  0.7320  0.2078
    3CHTO   N21  865   6.775   1.305   1.985  0.5366  0.2647 -0.2344
    3CHTO  H211  866   6.707   1.232   2.025 -0.8647 -0.0547 -3.1079
    3CHTO  H212  867   6.855   1.254   1.932  0.8188  0.0343  0.4061
    3CHTO   O75  868   6.762   1.586   1.561  0.1234  0.3052 -0.0168
    3CHTO  C112  869   6.869   1.485   1.471 -0.3893  0.8491  0.1926
    3CHTO  H216  870   6.834   1.384   1.495  0.3263  0.3844 -0.6721
    3CHTO   O73  871   7.004   1.503   1.514 -0.5394 -0.0331  0.1499
    3CHTO  C113  872   7.114   1.452   1.433 -0.5480 -0.4548  0.2796
    3CHTO  H217  873   7.173   1.385   1.499  1.0410  0.7444  0.1160
    3CHTO  C124  874   7.212   1.563   1.376 -0.4890 -0.0722  0.6001
    3CHTO   O83  875   7.267   1.653   1.467 -0.0012 -0.1268  0.5927
    3CHTO  H204  876   7.360   1.654   1.458 -0.2127  0.6013 -1.8734
    3CHTO  C109  877   7.075   1.354   1.321 -0.1240  0.1953 -0.3539
    3CHTO  H213  878   7.166   1.322   1.268  0.7108 -0.5532  1.4925
    3CHTO  C110  879   6.959   1.420   1.236 -0.0811  0.2111  0.7166
    3CHTO  H214  880   6.906   1.336   1.192  0.8737 -0.6820  1.2381
    3CHTO   O78  881   7.014   1.482   1.115 -0.1582 -0.3188  0.4226
    3CHTO  H200  882   7.022   1.414   1.051  0.9792  0.9330 -0.7952
    3CHTO  C111  883   6.863   1.518   1.312  0.9848 -0.1813 -0.1669
    3CHTO  H215  884   6.903   1.620   1.307 -1.0846  0.8202  2.5600
    3CHTO   N19  885   6.728   1.523   1.254 -0.1613  0.1937  0.2709
    3CHTO  H207  886   6.688   1.423   1.264  0.4194 -0.1495 -0.7255
    3CHTO  H208  887   6.663   1.576   1.323 -4.0305 -0.2841 -2.8334
    3CHTO   O74  888   7.009   1.243   1.393 -0.1315 -0.0108  0.3065
    3CHTO  C115  889   7.102   1.115   1.428 -0.3691 -0.4431  0.5951
    3CHTO  H219  890   7.205   1.132   1.400 -0.5111  1.0569  0.9183
    3CHTO   O76  891   7.117   1.093   1.585 -0.1593  0.1682  0.3390
    3CHTO  C122  892   7.001   1.081   1.662  0.5687 -0.5913  0.1766
    3CHTO  H226  893   6.964   1.182   1.676  0.3503 -0.9165  2.0880
    3CHTO  C126  894   7.044   1.037   1.810 -0.1077 -0.2120  0.0841
    3CHTO   O85  895   6.928   1.019   1.890  0.1663 -0.4520  0.2012
    3CHTO  H206  896   6.935   1.057   1.976  1.7825 -0.1774 -0.0452
    3CHTO  C121  897   6.897   0.997   1.580  0.2418 -0.7438 -0.5010
    3CHTO  H225  898   6.851   0.930   1.655  0.7363 -1.2182 -0.6174
    3CHTO   O81  899   6.795   1.078   1.528  0.0477 -0.1822  0.0083
    3CHTO  H202  900   6.739   1.017   1.485  0.0298  0.6103 -1.1281
    3CHTO  C119  901   6.980   0.904   1.483  0.2364 -0.3162 -0.0269
    3CHTO  H223  902   7.052   0.863   1.554 -0.4291 -1.1870  0.1592
    3CHTO  C117  903   7.046   0.977   1.364 -0.2215 -0.2433 -0.6075
    3CHTO  H221  904   6.979   1.014   1.286  1.4682  1.7534 -1.1513
    3CHTO   N20  905   7.155   0.893   1.301 -0.0652 -0.0583 -0.0705
    3CHTO  H209  906   7.131   0.789   1.316 -1.4230  0.6131  2.9699
    3CHTO  H210  907   7.244   0.909   1.360 -0.2694  0.7191  0.0347
    3CHTO   O80  908   6.912   0.771   1.437  0.0295  0.1715 -0.1126
    3CHTO  C103  909   6.961   0.636   1.498 -0.0095 -0.2394 -0.4264
    3CHTO  H190  910   7.067   0.625   1.520 -0.3312 -2.3351  0.1276
    3CHTO  C101  911   6.873   0.604   1.629  0.0903  0.5319  0.2005
    3CHTO  H188  912   6.770   0.639   1.619 -0.4891 -1.2032 -0.0083
    3CHTO   O68  913   6.932   0.695   1.759  0.1493  0.7965 -0.4968
    3CHTO  H168  914   7.025   0.708   1.754  0.2184 -0.2918 -2.3980
    3CHTO   C99  915   6.869   0.443   1.662 -0.1207 -0.5722  0.1823
    3CHTO  H186  916   6.971   0.422   1.701  0.8750  3.6858  0.1084
    3CHTO   N17  917   6.776   0.411   1.776 -1.0577  0.7450  0.3475
    3CHTO  H174  918   6.672   0.427   1.755 -0.5963  3.1702 -0.2626
    3CHTO  H175  919   6.791   0.312   1.815  1.7418  1.3458  0.9623
    3CHTO   C97  920   6.856   0.362   1.534  0.3646  0.9131 -0.0002
    3CHTO  H184  921   6.752   0.357   1.497  1.1108 -1.0394 -1.9992
    3CHTO   O64  922   6.948   0.402   1.439 -0.5608  0.2765 -0.2070
    3CHTO  C104  923   6.923   0.534   1.385 -0.2925  0.4196 -0.0307
    3CHTO  H191  924   6.819   0.551   1.358  0.7991  1.2998 -4.0550
    3CHTO  C108  925   7.002   0.558   1.260 -0.0400 -0.0111 -0.5300
    3CHTO   O71  926   6.936   0.488   1.150  0.0545 -0.1279 -0.4415
    3CHTO  H171  927   7.006   0.473   1.089 -1.0222 -2.9474 -1.0842
    3CHTO   O62  928   6.896   0.222   1.557 -0.5115 -0.4561 -1.0443
    3CHTO   C91  929   6.787   0.127   1.547 -0.1511 -0.1732 -0.2562
    3CHTO  H178  930   6.694   0.180   1.566 -0.0993  0.2902 -1.2352
    3CHTO   C92  931   6.813   0.014   1.651  0.3475 -0.2634  0.2232
    3CHTO  H179  932   6.911  -0.033   1.631  0.4982 -0.4300  1.3548
    3CHTO   O66  933   6.836   0.070   1.783 -0.2460 -0.4702 -0.1166
    3CHTO  H166  934   6.773   0.137   1.803  0.5764 -0.2253  1.7621
    3CHTO   C93  935   6.692  -0.101   1.641 -0.1710 -0.3664 -0.3548
    3CHTO  H180  936   6.616  -0.073   1.715  1.5752 -2.2939  2.2761
    3CHTO   N16  937   6.732  -0.236   1.689  0.8979 -0.1210  0.1360
    3CHTO  H172  938   6.700  -0.301   1.609 -0.2280  0.4001  0.1612
    3CHTO  H173  939   6.691  -0.262   1.785  2.4223 -1.3087  0.4880
    3CHTO   C94  940   6.617  -0.098   1.502 -0.0481 -0.2929  0.0606
    3CHTO  H181  941   6.567  -0.192   1.480 -0.6135  0.4057 -1.7473
    3CHTO   O61  942   6.703  -0.057   1.390  0.7629  0.7591  0.4332
    3CHTO   C95  943   6.784   0.061   1.401 -0.3225  0.2424  0.7856
    3CHTO  H182  944   6.885   0.035   1.370  0.3842  1.1228  2.2734
    3CHTO  C106  945   6.745   0.163   1.299 -0.4506  0.2071 -0.2540
    3CHTO   O69  946   6.614   0.214   1.327 -0.1435 -0.2088 -0.3442
    3CHTO  H169  947   6.616   0.300   1.363 -1.1566  0.4260 -1.7581
    3CHTO   O63  948   6.493   0.009   1.514 -0.2688  0.1578  0.1910
    3CHTO   C96  949   6.354  -0.027   1.438 -0.2762  0.5754  0.5151
    3CHTO  H183  950   6.299  -0.097   1.501 -1.1107  0.7659  0.0113
    3CHTO   C98  951   6.346  -0.078   1.291  0.4314 -0.4217  0.5069
    3CHTO  H185  952   6.400  -0.014   1.220 -0.4818  1.9047  1.8600
    3CHTO   O67  953   6.419  -0.198   1.288  0.5034  0.0967 -0.1460
    3CHTO  H167  954   6.407  -0.249   1.211 -0.1473 -1.1570  0.7652
    3CHTO  C102  955   6.194  -0.108   1.249 -0.2127 -0.2890 -0.2908
    3CHTO  H189  956   6.162  -0.182   1.324  2.6048 -0.3240  0.9364
    3CHTO   N18  957   6.176  -0.167   1.114 -0.2087  0.2752  1.2948
    3CHTO  H176  958   6.263  -0.155   1.052  0.2955 -0.2143  1.8995
    3CHTO  H177  959   6.142  -0.270   1.109  0.3208  0.1750 -1.0033
    3CHTO  C105  960   6.121   0.025   1.273  0.5205  0.7382 -0.1200
    3CHTO  H192  961   6.161   0.101   1.205 -1.0856  0.9004 -0.9047
    3CHTO   O65  962   6.128   0.079   1.407  0.0052  0.1025  0.6399
    3CHTO  C100  963   6.266   0.101   1.453  0.2649  0.3579 -0.6979
    3CHTO  H187  964   6.301   0.184   1.390  1.1909  0.6018  0.1363
    3CHTO  C107  965   6.252   0.151   1.601 -0.1247  0.2434  0.1157
    3CHTO   O70  966   6.172   0.270   1.598  0.3803  0.3380  0.5642
    3CHTO  H170  967   6.188   0.319   1.520 -1.2023 -1.0321 -0.6682
    3CHTO   O57  968   5.976  -0.008   1.246 -0.0838 -0.4201  0.1632
    3CHTO   C85  969   5.891   0.095   1.194  0.5184  0.3142 -0.2764
    3CHTO  H157  970   5.955   0.139   1.115  1.2917  0.3342  0.3503
    3CHTO   C83  971   5.867   0.208   1.300  0.4770  0.2481 -0.2099
    3CHTO  H155  972   5.969   0.243   1.321  0.6604 -0.6471  0.4453
    3CHTO   O56  973   5.821   0.148   1.423 -0.6931 -0.1852 -0.6664
    3CHTO  H135  974   5.886   0.099   1.470 -2.4203 -0.0748  1.9605
    3CHTO   C81  975   5.780   0.319   1.233  0.3368 -0.2074  0.0655
    3CHTO  H153  976   5.824   0.345   1.137 -2.1214  0.7284 -0.8390
    3CHTO   N14  977   5.770   0.447   1.310 -0.3587  0.5862  0.9624
    3CHTO  H141  978   5.740   0.443   1.413 -2.2751  0.4921  0.4145
    3CHTO  H142  979   5.866   0.494   1.300 -1.4110  2.6759  0.3611
    3CHTO   C79  980   5.639   0.262   1.200 -0.7570 -0.4712 -0.0988
    3CHTO  H151  981   5.583   0.339   1.146 -0.6187  0.2794  0.8171
    3CHTO   O52  982   5.650   0.142   1.106  0.2095  0.0310 -0.0263
    3CHTO   C86  983   5.756   0.043   1.136 -0.0856 -0.0827  0.0598
    3CHTO  H158  984   5.708  -0.027   1.208 -0.9681 -1.7315 -2.0691
    3CHTO   C90  985   5.787  -0.049   1.010 -0.0383 -0.2666  0.0225
    3CHTO   O60  986   5.851   0.017   0.903  0.1969 -0.3654 -0.0295
    3CHTO  H138  987   5.917   0.081   0.922  0.2844 -0.5897  0.4215
    3CHTO   O50  988   5.553   0.235   1.312  0.0198 -0.3522  0.5714
    3CHTO   C73  989   5.412   0.228   1.347 -0.8463 -0.3712  0.3325
    3CHTO  H145  990   5.375   0.127   1.325  2.3929 -1.9461  1.7228
    3CHTO   C74  991   5.328   0.329   1.267  0.0951  0.4896  0.3327
    3CHTO  H146  992   5.354   0.317   1.161 -0.9448  1.5985 -0.0625
    3CHTO   O54  993   5.194   0.273   1.284  0.1692  0.1556 -0.1077
    3CHTO  H133  994   5.134   0.332   1.242  0.7268  1.1515  0.4678
    3CHTO   C75  995   5.347   0.472   1.319  0.0748  0.4560 -0.6462
    3CHTO  H147  996   5.445   0.511   1.288  0.0504  1.7427  0.8429
    3CHTO   N13  997   5.252   0.569   1.262 -0.1497 -0.2430 -0.3882
    3CHTO  H139  998   5.289   0.666   1.291 -2.7089  0.6939 -0.1270
    3CHTO  H140  999   5.148   0.561   1.289 -0.9257  0.3902 -3.0567
    3CHTO   C76 1000   5.344   0.481   1.480  0.2868 -0.6791  0.1090
    3CHTO  H148 1001   5.243   0.442   1.495  0.0529 -0.1647 -0.0863
    3CHTO   O49 1002   5.440   0.381   1.540  0.0252  0.8454 -0.3178
    3CHTO   C77 1003   5.401   0.246   1.499 -0.2636  0.1087 -0.2093
    3CHTO  H149 1004   5.302   0.215   1.533  0.5934 -1.6041  0.7688
    3CHTO   C88 1005   5.503   0.154   1.570 -0.2059  0.8618 -0.0381
    3CHTO   O58 1006   5.487   0.153   1.712 -0.3488  0.0037 -0.1538
    3CHTO  H136 1007   5.486   0.243   1.738  2.2761 -0.2151  0.8330
    3CHTO   O51 1008   5.379   0.631   1.542  0.0290  0.1075 -0.7197
    3CHTO   C78 1009   5.444   0.644   1.668  0.0303  0.4047  0.0957
    3CHTO  H150 1010   5.491   0.549   1.702  1.0863  1.2857  1.1628
    3CHTO   C80 1011   5.334   0.685   1.771  0.0533  0.1475 -0.3768
    3CHTO  H152 1012   5.273   0.771   1.739  1.7175  1.1889 -0.8116
    3CHTO   O55 1013   5.252   0.566   1.773  0.1311  0.3360  0.0811
    3CHTO  H134 1014   5.264   0.519   1.853 -0.9379  0.7058  0.4629
    3CHTO   C84 1015   5.394   0.720   1.911  0.1564 -0.3244  0.3515
    3CHTO  H156 1016   5.437   0.625   1.945  0.3538  0.2236  1.6339
    3CHTO   N15 1017   5.295   0.763   2.017  0.3633  0.3233  0.5064
    3CHTO  H143 1018   5.346   0.772   2.111  2.4772  1.7946 -0.7242
    3CHTO  H144 1019   5.248   0.857   1.999 -0.0049  0.0545  0.0409
    3CHTO   C87 1020   5.513   0.821   1.905 -0.1824 -0.4411 -0.0797
    3CHTO  H159 1021   5.468   0.918   1.882 -2.1760 -1.8798 -2.3517
    3CHTO   O53 1022   5.615   0.761   1.796  0.2455 -0.6835 -0.3340
    3CHTO   C82 1023   5.555   0.748   1.666 -0.1312  0.0138  0.4548
    3CHTO  H154 1024   5.512   0.844   1.637  1.7388  0.3824 -1.1929
    3CHTO   C89 1025   5.668   0.716   1.565 -0.5669  0.2190  0.0237
    3CHTO   O59 1026   5.751   0.830   1.552  0.2074  0.3833  0.6619
    3CHTO  H137 1027   5.716   0.903   1.599 -2.6887 -0.5436  0.0947
    3CHTO   O45 1028   5.588   0.830   2.048 -0.2826  0.4269  0.2586
    3CHTO   C67 1029   5.734   0.805   2.044 -0.6668  0.8816 -0.6172
    3CHTO  H124 1030   5.756   0.720   1.981  1.6288  0.8390  0.2230
    3CHTO   C65 1031   5.816   0.924   1.981 -0.3562 -0.0534 -0.0561
    3CHTO  H122 1032   5.750   0.996   1.932 -1.7129 -2.4385 -1.9057
    3CHTO   O44 1033   5.893   0.862   1.873  0.9123  0.3755 -0.3842
    3CHTO  H102 1034   5.965   0.813   1.906 -0.1189 -1.3361 -0.6257
    3CHTO   C63 1035   5.919   0.994   2.088 -0.0510  0.6487 -0.1839
    3CHTO  H120 1036   5.861   1.044   2.165 -1.1059 -1.4391  0.3995
    3CHTO   N11 1037   5.992   1.108   2.026 -0.7490  0.7292 -0.4852
    3CHTO  H108 1038   5.982   1.112   1.920 -0.7237 -0.8091 -0.5485
    3CHTO  H109 1039   6.093   1.103   2.059 -0.7613 -3.0557 -0.8870
    3CHTO   C61 1040   6.005   0.877   2.154 -0.1059 -0.3216 -0.4977
    3CHTO  H118 1041   6.045   0.916   2.249  2.8585  1.4134 -2.3790
    3CHTO   O40 1042   5.927   0.760   2.186 -0.1439  0.6417 -0.1447
    3CHTO   C68 1043   5.789   0.763   2.189  0.7898 -0.2717 -0.4945
    3CHTO  H125 1044   5.769   0.836   2.269  0.2416 -1.8435  0.8373
    3CHTO   C72 1045   5.722   0.634   2.243 -0.2132  0.7331 -0.1462
    3CHTO   O48 1046   5.751   0.523   2.151  0.7089 -0.2448 -0.6376
    3CHTO  H105 1047   5.844   0.516   2.142  0.5491 -0.6143 -2.1444
    3CHTO   O38 1048   6.113   0.830   2.078 -1.1319  0.2527 -0.3141
    3CHTO   C55 1049   6.243   0.804   2.145  0.1482  0.4185  0.4834
    3CHTO  H112 1050   6.229   0.808   2.254  2.1769 -2.1432  0.8827
    3CHTO   C56 1051   6.341   0.915   2.092  0.4879 -0.0109  0.4382
    3CHTO  H113 1052   6.356   0.925   1.984  0.0665 -1.3306  0.2561
    3CHTO   O42 1053   6.283   1.044   2.127 -0.0793  0.4180  0.0108
    3CHTO  H100 1054   6.360   1.098   2.120 -0.7541  1.2981 -0.8207
    3CHTO   C57 1055   6.478   0.893   2.165  0.7731  0.0898  0.3068
    3CHTO  H114 1056   6.469   0.908   2.272 -1.3197  1.8406 -0.0657
    3CHTO   N10 1057   6.575   0.995   2.113  0.3356 -0.4512 -0.1946
    3CHTO  H106 1058   6.549   1.030   2.014  1.0772  1.0295  0.1055
    3CHTO  H107 1059   6.676   0.956   2.112 -0.2913 -2.1865  1.2814
    3CHTO   C58 1060   6.528   0.753   2.135  0.8299 -0.0178  0.0211
    3CHTO  H115 1061   6.556   0.741   2.028 -1.3297 -1.0542 -0.4642
    3CHTO   O37 1062   6.429   0.657   2.181  0.0616  0.1200  0.2729
    3CHTO   C59 1063   6.301   0.659   2.115 -0.9619  0.3759  0.3561
    3CHTO  H116 1064   6.311   0.646   2.007  1.7727 -1.4756  0.7694
    3CHTO   C70 1065   6.215   0.547   2.177 -0.4410  0.0869  0.2949
    3CHTO   O46 1066   6.145   0.585   2.294  0.2248 -0.2874  0.1336
    3CHTO  H103 1067   6.128   0.521   2.361 -1.2763  2.1223  2.1584
    3CHTO   O39 1068   6.658   0.733   2.249  0.0623  0.3251  0.6829
    3CHTO   C60 1069   6.795   0.723   2.201 -0.1636  0.0494 -0.3316
    3CHTO  H117 1070   6.794   0.738   2.093 -0.9387 -0.0761 -0.3430
    3CHTO   C62 1071   6.886   0.830   2.277 -0.0178 -0.2038 -0.0053
    3CHTO  H119 1072   6.830   0.924   2.256  0.9143  0.0032 -1.6300
    3CHTO   O43 1073   6.882   0.804   2.421  0.2483 -0.4636  0.1135
    3CHTO  H101 1074   6.800   0.830   2.458  0.8613  1.6669  0.0890
    3CHTO   C66 1075   7.034   0.829   2.220 -0.0595  0.7977  0.3937
    3CHTO  H123 1076   7.032   0.847   2.113  1.9416 -0.3841  0.1566
    3CHTO   N12 1077   7.115   0.944   2.276  0.5595  0.2632  0.1266
    3CHTO  H110 1078   7.063   1.036   2.252 -2.6159 -0.6275  3.2499
    3CHTO  H111 1079   7.125   0.929   2.382  3.8856  1.3215  0.0262
    3CHTO   C69 1080   7.104   0.696   2.233  0.0867 -0.2401 -0.0140
    3CHTO  H126 1081   7.136   0.685   2.339 -1.7340  0.7704  0.6697
    3CHTO   O41 1082   7.000   0.563   2.182  0.4628 -0.0258 -0.1074
    3CHTO   C64 1083   6.844   0.581   2.231 -0.6505  0.5094 -0.8051
    3CHTO  H121 1084   6.839   0.559   2.340  0.3914  2.9948 -0.2322
    3CHTO   C71 1085   6.752   0.484   2.151 -0.4543 -0.1313 -0.1237
    3CHTO   O47 1086   6.731   0.356   2.213 -0.4648  0.0768  0.1334
    3CHTO  H104 1087   6.798   0.330   2.274 -1.5331 -0.2422  1.1977
    3CHTO   O34 1088   7.227   0.692   2.141 -0.2646 -0.6578 -0.2436
    3CHTO   C49 1089   7.331   0.613   2.092  0.1531 -0.8022  0.3386
    3CHTO   H91 1090   7.390   0.599   2.183  1.5100 -0.0261 -0.3882
    3CHTO   C47 1091   7.398   0.689   1.974 -0.5390 -0.5933 -0.3554
    3CHTO   H89 1092   7.486   0.629   1.940 -1.8520 -1.7737 -1.7537
    3CHTO   O33 1093   7.453   0.813   2.017  0.5808 -0.3908  0.7632
    3CHTO   H70 1094   7.497   0.849   1.942  3.3699 -3.5966  0.7672
    3CHTO   C45 1095   7.293   0.701   1.846  0.3399 -0.3969 -0.0316
    3CHTO   H87 1096   7.198   0.740   1.885 -0.1847  1.7449 -3.2745
    3CHTO    N8 1097   7.342   0.799   1.745 -0.2065 -0.0399 -0.3365
    3CHTO   H75 1098   7.270   0.879   1.733  1.8448  1.8150 -0.5327
    3CHTO   H76 1099   7.353   0.742   1.653 -0.6908 -0.5225 -0.0972
    3CHTO   C43 1100   7.255   0.545   1.802 -0.2821  0.0519 -0.7178
    3CHTO   H85 1101   7.168   0.562   1.739 -0.0608  0.1813 -0.9915
    3CHTO   O29 1102   7.228   0.454   1.910  0.1640  0.1433  0.2013
    3CHTO   C50 1103   7.283   0.472   2.044 -0.0531  0.9662  0.3704
    3CHTO   H92 1104   7.198   0.444   2.108 -0.6553  2.2686  0.1617
    3CHTO   C54 1105   7.388   0.354   2.061 -0.0717 -0.1078  0.2363
    3CHTO   O36 1106   7.424   0.330   2.194 -0.9130  0.3996 -0.6323
    3CHTO   H72 1107   7.398   0.242   2.214  1.6802 -0.1363  0.5867
    3CHTO   O27 1108   7.365   0.482   1.727 -0.6158  0.6951  0.3733
    3CHTO   C37 1109   7.375   0.387   1.620 -0.0670  0.3164  0.4893
    3CHTO   H79 1110   7.480   0.354   1.611 -0.0856  0.8804 -2.2399
    3CHTO   C38 1111   7.293   0.265   1.663  0.6210  0.5871 -0.5061
    3CHTO   H80 1112   7.188   0.292   1.685  0.3894 -0.0171 -0.8746
    3CHTO   O31 1113   7.344   0.213   1.784  0.0502 -0.0383  0.5018
    3CHTO   H68 1114   7.332   0.120   1.793  1.2069 -0.2502 -0.0252
    3CHTO   C39 1115   7.280   0.159   1.543  0.4955 -0.5504 -0.1083
    3CHTO   H81 1116   7.378   0.114   1.527  1.1359  0.4662  0.8505
    3CHTO    N7 1117   7.194   0.044   1.581 -0.4099 -0.5569 -0.4213
    3CHTO   H73 1118   7.188  -0.020   1.494  1.4426 -1.8223  0.3516
    3CHTO   H74 1119   7.234  -0.011   1.665  2.6914 -1.3011 -2.3024
    3CHTO   C40 1120   7.245   0.234   1.406 -0.0122 -0.5298 -0.2386
    3CHTO   H82 1121   7.139   0.259   1.393  0.8039  2.0655 -2.1810
    3CHTO   O26 1122   7.329   0.348   1.374  0.0168 -0.4518  0.0612
    3CHTO   C41 1123   7.337   0.448   1.477 -0.7260  0.0181 -0.1064
    3CHTO   H83 1124   7.235   0.488   1.492  0.0597  1.8622  0.3373
    3CHTO   C52 1125   7.441   0.558   1.426  0.3844  0.6894 -0.8213
    3CHTO   O35 1126   7.406   0.622   1.295 -1.0674  0.0995 -0.5072
    3CHTO   H71 1127   7.477   0.668   1.254  0.2631 -2.4964 -1.2496
    3CHTO   O28 1128   7.290   0.163   1.292 -0.5260  0.9622  0.3283
    3CHTO   C42 1129   7.235   0.156   1.155  1.5683  0.0993  0.7548
    3CHTO   H84 1130   7.314   0.107   1.099  1.0981 -2.9110  2.5429
    3CHTO   C44 1131   7.199   0.289   1.078  0.0763  0.6318 -0.3194
    3CHTO   H86 1132   7.129   0.347   1.138 -0.4150 -1.3001  1.0214
    3CHTO   O32 1133   7.320   0.359   1.082 -0.5178  0.0968  0.2608
    3CHTO   H69 1134   7.324   0.420   1.153  2.1486  1.4957 -0.9908
    3CHTO   C48 1135   7.147   0.265   0.924  0.2966  0.2288  0.0825
    3CHTO   H90 1136   7.227   0.217   0.868  0.3994 -0.4171  0.7842
    3CHTO    N9 1137   7.115   0.393   0.857  0.8377 -0.2186  0.1704
    3CHTO   H77 1138   7.032   0.377   0.789  1.0142 -0.6127  0.0475
    3CHTO   H78 1139   7.094   0.464   0.936  1.9109  1.0440 -0.6562
    3CHTO   C51 1140   7.021   0.174   0.935 -0.0745 -0.9100 -0.0587
    3CHTO   H93 1141   6.945   0.224   0.995  0.1865  0.4845 -0.8799
    3CHTO   O30 1142   7.068   0.049   0.997  0.3635  0.4054 -0.2196
    3CHTO   C46 1143   7.106   0.061   1.141 -0.2987 -0.1113 -0.2974
    3CHTO   H88 1144   7.025   0.109   1.196  0.3331  0.6716 -0.0391
    3CHTO   C53 1145   7.141  -0.084   1.180  0.4822  0.0169 -0.5902
    3CHTO   O72 1146   7.025  -0.163   1.187 -0.1766 -0.2591 -0.1125
    3CHTO  H199 1147   6.964  -0.158   1.115  0.7720  0.9035 -0.8492
    3CHTO   O22 1148   6.975   0.139   0.799 -0.2162  0.0347  0.3143
    3CHTO   C31 1149   6.841   0.091   0.758  0.2588  0.0120  0.6825
    3CHTO   H59 1150   6.854   0.039   0.661  0.2486  0.1622  0.6002
    3CHTO   C29 1151   6.767  -0.010   0.855  0.6030 -0.6002 -0.7558
    3CHTO   H57 1152   6.761   0.044   0.951  0.5529 -0.3580 -0.8937
    3CHTO   O21 1153   6.855  -0.125   0.870  0.4764 -1.1931 -0.0302
    3CHTO   H37 1154   6.935  -0.084   0.900  0.6876 -0.1548 -1.9177
    3CHTO   C27 1155   6.618  -0.043   0.804 -0.3681 -0.4354 -0.1547
    3CHTO   H55 1156   6.627  -0.095   0.707  1.1149 -1.5240  0.5440
    3CHTO    N5 1157   6.540  -0.133   0.894 -0.3085 -0.0122  0.6248
    3CHTO   H43 1158   6.601  -0.158   0.980  0.6192  1.6788  0.4752
    3CHTO   H44 1159   6.501  -0.216   0.837 -1.0316  1.7926 -1.5872
    3CHTO   C25 1160   6.542   0.092   0.773 -0.0999  0.5934 -0.5770
    3CHTO   H53 1161   6.548   0.143   0.871  1.5536  1.2268 -0.9960
    3CHTO   O17 1162   6.627   0.172   0.678 -0.2733  0.1160  0.6378
    3CHTO   C32 1163   6.754   0.215   0.724  0.1745 -0.1487  0.1342
    3CHTO   H60 1164   6.735   0.269   0.817 -0.8300 -0.8996  0.3788
    3CHTO   C36 1165   6.834   0.294   0.623  0.4240 -0.3007 -0.1629
    3CHTO   O25 1166   6.876   0.222   0.509 -0.0290 -0.2173  0.0428
    3CHTO   H40 1167   6.804   0.183   0.464  2.1348 -0.7552 -3.1277
    3CHTO   O15 1168   6.394   0.066   0.716 -0.0095  0.0906  0.2154
    3CHTO   C19 1169   6.285   0.167   0.700  0.1142  0.6568 -0.8828
    3CHTO   H47 1170   6.229   0.126   0.615 -1.5184  1.6344 -0.3120
    3CHTO   C20 1171   6.196   0.193   0.823 -0.0633 -0.0304 -0.3368
    3CHTO   H48 1172   6.252   0.214   0.916 -0.4113 -0.4500 -0.0327
    3CHTO   O19 1173   6.124   0.075   0.834 -0.0966  0.0936  0.3052
    3CHTO   H35 1174   6.176   0.022   0.891 -1.7484  1.0126  2.7766
    3CHTO   C21 1175   6.103   0.314   0.805  0.0705  0.0585 -0.4651
    3CHTO   H49 1176   6.040   0.307   0.716  1.4878 -2.1284 -1.3203
    3CHTO    N4 1177   6.012   0.345   0.917  0.4351  0.0824  0.3925
    3CHTO   H41 1178   5.922   0.380   0.871  0.3234  1.3395  1.5284
    3CHTO   H42 1179   6.055   0.422   0.981  1.4526 -1.0940  1.1471
    3CHTO   C22 1180   6.188   0.436   0.768  0.3248 -0.2696 -0.6579
    3CHTO   H50 1181   6.272   0.463   0.832 -0.4538  1.8907 -0.5063
    3CHTO   O14 1182   6.245   0.409   0.645  0.3441 -0.9072 -0.1902
    3CHTO   C23 1183   6.339   0.301   0.643  0.0263 -0.5342 -0.3616
    3CHTO   H51 1184   6.431   0.334   0.692  1.1531 -0.8437 -2.2274
    3CHTO   C34 1185   6.379   0.283   0.496  0.4590 -0.0043  0.5958
    3CHTO   O23 1186   6.490   0.371   0.464  0.1778  0.2744  0.4065
    3CHTO   H38 1187   6.462   0.418   0.387  0.2886 -1.1165 -0.4998
    3CHTO   O16 1188   6.122   0.566   0.741 -0.1256 -0.0433  0.1773
    3CHTO   C24 1189   6.215   0.700   0.759  0.5615  0.8594  0.0098
    3CHTO   H52 1190   6.321   0.678   0.769 -0.1127 -1.4831  2.3880
    3CHTO   C26 1191   6.176   0.773   0.887 -0.4975 -0.5998 -0.8510
    3CHTO   H54 1192   6.068   0.795   0.884 -0.6158 -1.0061  0.1383
    3CHTO   O20 1193   6.199   0.694   1.007 -0.1573 -0.0588  0.3922
    3CHTO   H36 1194   6.164   0.738   1.082  0.1823  1.5699 -0.3842
    3CHTO   C30 1195   6.264   0.902   0.896  0.1256 -0.3396  0.3872
    3CHTO   H58 1196   6.369   0.875   0.914  0.5556  1.2386  0.3307
    3CHTO    N6 1197   6.230   0.985   1.018 -0.4286 -0.0350  0.6055
    3CHTO   H45 1198   6.125   1.008   1.027 -0.3633  0.5051 -0.0210
    3CHTO   H46 1199   6.255   0.939   1.113 -2.1230 -1.7261  0.2680
    3CHTO   C33 1200   6.253   0.982   0.766  0.8802  0.5237 -0.0166
    3CHTO   H61 1201   6.151   1.023   0.757  0.2299 -0.8054  1.1160
    3CHTO   O18 1202   6.280   0.899   0.650 -0.1145 -0.1532  0.8059
    3CHTO   C28 1203   6.194   0.783   0.633 -0.2589 -0.0854 -0.0985
    3CHTO   H56 1204   6.088   0.804   0.616  0.0312  0.3951 -1.3513
    3CHTO   C35 1205   6.245   0.702   0.513 -0.1196 -0.2309  0.4175
    3CHTO   O24 1206   6.277   0.790   0.400  0.5485 -0.2663 -0.2888
    3CHTO   H39 1207   6.247   0.750   0.320  1.1054 -0.0536 -0.6086
    3CHTO    O9 1208   6.338   1.094   0.776  0.2151  0.2984  0.4346
    3CHTO   C13 1209   6.281   1.233   0.720  0.5684 -0.3947  0.6686
    3CHTO   H26 1210   6.177   1.252   0.755  0.2809 -0.2316 -0.2685
    3CHTO   C11 1211   6.293   1.241   0.566  0.6556 -0.3696  0.5921
    3CHTO   H24 1212   6.231   1.163   0.520  1.0281 -0.6943  0.6340
    3CHTO    O8 1213   6.425   1.193   0.528 -0.2543  0.0945  0.1931
    3CHTO    H3 1214   6.466   1.271   0.495 -0.6210  1.1898  2.2650
    3CHTO    C9 1215   6.265   1.382   0.511  0.0761  0.1699 -0.2567
    3CHTO   H22 1216   6.166   1.410   0.551  0.8102  0.1154  1.6730
    3CHTO    N2 1217   6.246   1.384   0.362 -0.1161 -0.3208 -0.0851
    3CHTO   H10 1218   6.192   1.299   0.324 -2.5783  0.8432  0.6622
    3CHTO   H11 1219   6.337   1.411   0.311 -2.1181  0.5833 -3.3210
    3CHTO    C7 1220   6.368   1.478   0.577  0.0857  0.3012 -0.2169
    3CHTO   H20 1221   6.333   1.579   0.548 -0.2435 -0.0744 -1.1491
    3CHTO    O4 1222   6.369   1.469   0.720  0.2685 -0.2614  0.2658
    3CHTO   C14 1223   6.372   1.346   0.795 -0.6260 -0.0251 -0.0945
    3CHTO   H27 1224   6.325   1.377   0.891  0.2809 -0.6085  0.5456
    3CHTO   C18 1225   6.523   1.308   0.825  0.3939 -0.1207 -0.6735
    3CHTO   O13 1226   6.585   1.404   0.914  0.5312 -0.5253  0.0617
    3CHTO    H7 1227   6.663   1.373   0.955  0.1855 -1.3087  0.1365
    3CHTO    O2 1228   6.514   1.443   0.510  0.4504  0.1605  0.4556
    3CHTO    C1 1229   6.592   1.550   0.453  0.0141  0.1447  0.0246
    3CHTO   H14 1230   6.624   1.623   0.530  1.1926 -0.0636 -0.2635
    3CHTO    C2 1231   6.536   1.631   0.329 -0.0799 -0.3315  0.3651
    3CHTO   H15 1232   6.512   1.554   0.254 -0.6798 -1.0042  1.2441
    3CHTO    O6 1233   6.426   1.706   0.371  0.2488 -0.2816  0.2080
    3CHTO    H1 1234   6.456   1.782   0.417 -2.0343 -0.0571  1.4033
    3CHTO    C3 1235   6.654   1.731   0.267 -0.4039 -0.2873 -0.2442
    3CHTO   H16 1236   6.685   1.799   0.347  1.8246  0.7994 -1.9423
    3CHTO    N1 1237   6.605   1.819   0.159 -0.5835  0.3984 -0.3874
    3CHTO    H8 1238   6.648   1.918   0.161  0.2677  0.0759 -1.9000
    3CHTO    H9 1239   6.497   1.824   0.164 -0.5813  0.3023 -0.2142
    3CHTO    C4 1240   6.779   1.642   0.237  0.6260 -0.1119 -0.4350
    3CHTO   H17 1241   6.751   1.569   0.161 -0.3094  0.1565 -0.3509
    3CHTO    O1 1242   6.828   1.579   0.359  0.0564 -0.1296 -0.2629
    3CHTO    C5 1243   6.728   1.483   0.405 -0.8146 -0.2182 -0.0045
    3CHTO   H18 1244   6.707   1.405   0.332  0.9567 -1.3299  0.6361
    3CHTO   C16 1245   6.788   1.411   0.533  0.0833  0.1084 -0.5991
    3CHTO   O11 1246   6.808   1.500   0.645  0.6420 -0.4412 -0.5605
    3CHTO    H5 1247   6.847   1.460   0.720  0.5672  0.6744  0.0789
    3CHTO    O3 1248   6.888   1.720   0.192 -0.0049 -0.1767 -0.1569
    3CHTO    C6 1249   6.989   1.651   0.108  0.0396 -0.8084 -0.2222
    3CHTO   H19 1250   6.993   1.543   0.120  1.7238 -0.8131 -0.7693
    3CHTO    C8 1251   6.979   1.683  -0.042 -0.0528  0.1042  0.3783
    3CHTO   H21 1252   6.980   1.791  -0.054  2.4294  0.1211  0.4856
    3CHTO    O7 1253   6.854   1.632  -0.092  0.3603  0.6183  0.3668
    3CHTO    H2 1254   6.841   1.644  -0.184 -1.1733  0.4714  0.5481
    3CHTO   C12 1255   7.109   1.624  -0.123 -0.0995 -0.0363  0.3507
    3CHTO   H25 1256   7.092   1.514  -0.114 -0.6966 -0.0400 -0.7122
    3CHTO    N3 1257   7.095   1.661  -0.264 -0.6234 -0.6398  0.2161
    3CHTO   H12 1258   7.173   1.729  -0.296  2.0421 -2.2138  3.2150
    3CHTO   H13 1259   7.101   1.569  -0.320  0.3031 -0.6906  0.4002
    3CHTO   C15 1260   7.243   1.661  -0.042 -0.1183 -0.3150 -0.3834
    3CHTO   H28 1261   7.269   1.764  -0.069 -0.7049 -0.2800 -0.8235
    3CHTO   O10 1262   7.363   1.576  -0.087 -0.1337  0.2313  0.2881
    3CHTO    H4 1263   7.435   1.626  -0.120  1.3926 -2.1208 -0.1075
    3CHTO    O5 1264   7.225   1.634   0.096 -0.1314  0.2693  0.5710
    3CHTO   C10 1265   7.122   1.701   0.163 -0.1595 -0.3089  0.8175
    3CHTO   H23 1266   7.137   1.807   0.143 -2.9673 -0.1735 -0.9044
    3CHTO   C17 1267   7.132   1.659   0.314  0.1979  0.5459  0.1311
    3CHTO   O12 1268   7.230   1.723   0.382 -0.3016 -0.3400 -0.0511
    3CHTO    H6 1269   7.195   1.800   0.422 -1.4497 -1.3234  0.8569
    4CHTO  H203 1270   6.680   6.569   2.006 -0.8422  1.2355 -0.0313
    4CHTO   O82 1271   6.722   6.544   1.926 -0.7165 -0.4882  0.5549
    4CHTO  C123 1272   6.832   6.635   1.903 -0.2114  0.2814  0.1181
    4CHTO  H227 1273   6.859   6.681   1.999 -2.6598  2.4387 -0.1756
    4CHTO   O77 1274   6.930   6.542   1.852 -0.3726  0.3591  0.1329
    4CHTO  C118 1275   7.063   6.596   1.833  0.6135 -0.2367  0.3720
    4CHTO  H222 1276   7.120   6.648   1.911  1.0061 -1.9040  1.1997
    4CHTO  C125 1277   7.151   6.477   1.789  0.3051 -0.2310 -1.0156
    4CHTO   O84 1278   7.280   6.508   1.730  0.0195  0.0140 -0.0059
    4CHTO  H205 1279   7.326   6.586   1.757  1.3381 -0.8176  0.2106
    4CHTO  C114 1280   7.050   6.711   1.726  0.1720  0.3229  0.1154
    4CHTO  H218 1281   7.024   6.659   1.634 -1.2607 -0.9680  1.2141
    4CHTO  C116 1282   6.940   6.813   1.761  1.0090  0.3646  0.1784
    4CHTO  H220 1283   6.964   6.874   1.850 -3.3191 -2.8307  3.7488
    4CHTO   O79 1284   6.926   6.898   1.645 -0.3385  0.7316  0.2792
    4CHTO  H201 1285   6.846   6.946   1.634  0.0379  1.1046 -0.8279
    4CHTO  C120 1286   6.804   6.744   1.794 -0.3773 -0.6083  0.1183
    4CHTO  H224 1287   6.774   6.699   1.697 -2.4552  0.0193  0.4551
    4CHTO   N21 1288   6.697   6.838   1.833  0.5420  0.7139 -0.2212
    4CHTO  H211 1289   6.652   6.880   1.744 -1.5932 -0.5676  0.2264
    4CHTO  H212 1290   6.733   6.918   1.896 -0.4691 -0.9432  2.5619
    4CHTO   O75 1291   7.188   6.775   1.719  0.4522 -0.0592 -0.4327
    4CHTO  C112 1292   7.228   6.800   1.564 -0.0703  0.4206 -0.8292
    4CHTO  H216 1293   7.145   6.836   1.501 -1.5124 -2.4388 -0.6411
    4CHTO   O73 1294   7.286   6.678   1.510 -0.6085 -0.6910 -0.1114
    4CHTO  C113 1295   7.346   6.697   1.387  0.2284  0.4335 -0.0240
    4CHTO  H217 1296   7.260   6.719   1.321 -0.8253  0.9316  1.5014
    4CHTO  C124 1297   7.387   6.559   1.337 -0.1083 -0.0154 -0.6530
    4CHTO   O83 1298   7.427   6.554   1.197  1.2248 -0.3492  0.3059
    4CHTO  H204 1299   7.403   6.471   1.161  2.0893 -1.3601  1.9720
    4CHTO  C109 1300   7.467   6.789   1.400  0.6834 -0.4092  0.0983
    4CHTO  H213 1301   7.537   6.740   1.470  0.3889  0.6024  1.1086
    4CHTO  C110 1302   7.423   6.929   1.458  0.4644  0.7174 -0.3530
    4CHTO  H214 1303   7.369   6.983   1.379  0.3304 -0.2030 -0.9000
    4CHTO   O78 1304   7.541   7.004   1.495  0.5567 -0.3113 -0.2617
    4CHTO  H200 1305   7.619   6.985   1.447  0.4707 -0.5342 -0.3150
    4CHTO  C111 1306   7.334   6.914   1.582 -0.0850  0.5164  0.2970
    4CHTO  H215 1307   7.403   6.893   1.665  0.2281 -0.5694 -0.2183
    4CHTO   N19 1308   7.263   7.041   1.607 -0.2823  0.0032  0.2471
    4CHTO  H207 1309   7.334   7.109   1.651  0.2054 -0.1255 -0.3395
    4CHTO  H208 1310   7.198   7.025   1.691 -0.5557 -0.3906 -0.0366
    4CHTO   O74 1311   7.530   6.814   1.273  0.0620 -0.2443 -0.3536
    4CHTO  C115 1312   7.697   6.844   1.286 -0.6546 -0.1818  0.3761
    4CHTO  H219 1313   7.723   6.894   1.379  1.7804 -0.9156  0.1417
    4CHTO   O76 1314   7.783   6.711   1.293 -0.4196 -0.0423  0.2764
    4CHTO  C122 1315   7.782   6.625   1.176  0.2712  1.2626 -0.0608
    4CHTO  H226 1316   7.697   6.556   1.176  1.5394 -0.3220 -0.5240
    4CHTO  C126 1317   7.907   6.537   1.173 -0.1204  0.0391 -0.0672
    4CHTO   O85 1318   7.894   6.434   1.079  0.5359  0.5434  0.4163
    4CHTO  H206 1319   7.902   6.455   0.988  1.8637  0.7297  0.5711
    4CHTO  C121 1320   7.780   6.711   1.037  0.4825  0.5929 -0.2833
    4CHTO  H225 1321   7.845   6.653   0.968  1.2055 -0.6634  1.4147
    4CHTO   O81 1322   7.641   6.727   0.981  0.2312 -0.5344 -0.2652
    4CHTO  H202 1323   7.615   6.652   0.931 -1.1118 -0.2939  0.0463
    4CHTO  C119 1324   7.837   6.851   1.060  0.0571 -0.1751 -0.3530
    4CHTO  H223 1325   7.938   6.844   1.101 -0.4096 -0.9681  0.6931
    4CHTO  C117 1326   7.747   6.937   1.163 -0.0803 -0.0728 -0.7693
    4CHTO  H221 1327   7.656   6.980   1.120 -0.9393 -1.3725 -0.2879
    4CHTO   N20 1328   7.826   7.055   1.211 -0.0621  0.2652  0.0978
    4CHTO  H209 1329   7.802   7.078   1.314  0.7121  0.1802  0.3028
    4CHTO  H210 1330   7.933   7.041   1.203  0.0475  0.4215  1.1224
    4CHTO   O80 1331   7.856   6.942   0.921 -0.1128 -0.2225 -0.0040
    4CHTO  C103 1332   7.985   6.946   0.855 -0.4113 -0.7008  0.0519
    4CHTO  H190 1333   8.057   6.985   0.926 -1.8349  2.5145 -0.1989
    4CHTO  C101 1334   8.050   6.806   0.811 -0.4515  0.3453 -0.4410
    4CHTO  H188 1335   7.974   6.758   0.750 -1.1715  1.2757 -0.2931
    4CHTO   O68 1336   8.081   6.713   0.944  0.1497  0.9011  0.0184
    4CHTO  H168 1337   8.112   6.626   0.932 -1.7656  0.3805 -1.4549
    4CHTO   C99 1338   8.185   6.830   0.722  0.0122 -0.3491  0.0334
    4CHTO  H186 1339   8.264   6.877   0.785 -0.2644  3.4126 -2.3174
    4CHTO   N17 1340   8.231   6.697   0.659 -0.1424  0.3715 -0.2850
    4CHTO  H174 1341   8.307   6.646   0.716  0.4935  0.3249 -1.1737
    4CHTO  H175 1342   8.145   6.636   0.632 -0.0661  0.1301  0.0158
    4CHTO   C97 1343   8.157   6.933   0.611 -0.5349  0.0937 -0.0655
    4CHTO  H184 1344   8.083   6.887   0.544  0.3959 -1.2072 -0.2418
    4CHTO   O64 1345   8.112   7.058   0.670 -0.3060  0.4935  0.0411
    4CHTO  C104 1346   7.976   7.049   0.727 -0.1540  0.4391  0.0255
    4CHTO  H191 1347   7.905   7.005   0.658 -0.4170 -0.5046  0.8779
    4CHTO  C108 1348   7.928   7.192   0.767 -0.1626 -0.2365 -0.0194
    4CHTO   O71 1349   7.792   7.189   0.801 -0.7441 -0.3414  0.4862
    4CHTO  H171 1350   7.742   7.250   0.751 -2.5909 -1.4379  0.9586
    4CHTO   O62 1351   8.277   6.961   0.529 -0.3636 -0.1642 -0.4456
    4CHTO   C91 1352   8.247   7.005   0.394 -0.2479  0.2573 -0.1413
    4CHTO  H178 1353   8.143   7.037   0.392  0.0596  1.2098 -1.1497
    4CHTO   C92 1354   8.257   6.878   0.299 -0.0127  0.0857  0.3389
    4CHTO  H179 1355   8.348   6.822   0.324 -1.6879 -2.4310  0.9172
    4CHTO   O66 1356   8.147   6.796   0.330 -0.4443 -0.1276 -0.1026
    4CHTO  H166 1357   8.071   6.826   0.284 -1.2562  0.8205  1.7826
    4CHTO   C93 1358   8.248   6.918   0.146 -0.9715 -0.3948  0.8442
    4CHTO  H180 1359   8.143   6.933   0.120 -0.1168  0.2888 -2.3416
    4CHTO   N16 1360   8.283   6.805   0.053 -0.0328  0.0725  0.1736
    4CHTO  H172 1361   8.251   6.718   0.109 -1.8062 -0.5014 -1.6785
    4CHTO  H173 1362   8.221   6.813  -0.035  0.5222 -0.8837 -0.3270
    4CHTO   C94 1363   8.331   7.051   0.107  0.5176  0.8059 -0.5534
    4CHTO  H181 1364   8.438   7.029   0.103 -0.0193 -2.3297  0.4003
    4CHTO   O61 1365   8.308   7.152   0.205 -0.0051 -0.2215  0.4196
    4CHTO   C95 1366   8.337   7.116   0.342 -0.9115  0.0143 -0.9156
    4CHTO  H182 1367   8.440   7.079   0.345 -0.3505  1.6014  1.0079
    4CHTO  C106 1368   8.332   7.253   0.429 -0.4438 -0.0097  0.4490
    4CHTO   O69 1369   8.367   7.239   0.562  0.9369  0.4599 -0.9018
    4CHTO  H169 1370   8.288   7.268   0.603 -0.0266  3.4722 -4.6666
    4CHTO   O63 1371   8.292   7.108  -0.040 -0.3267  1.0737  0.1388
    4CHTO   C96 1372   8.129   7.168  -0.046  0.0879  0.1733 -0.6639
    4CHTO  H183 1373   8.095   7.153   0.057  0.4143 -0.1014 -0.5959
    4CHTO   C98 1374   8.036   7.094  -0.154  0.2264 -0.3805 -0.0861
    4CHTO  H185 1375   8.080   7.096  -0.255 -1.4502 -3.5227 -0.9361
    4CHTO   O67 1376   8.045   6.953  -0.112 -0.2332  0.2424  0.2410
    4CHTO  H167 1377   8.008   6.950  -0.025 -1.6369 -1.5542 -0.3710
    4CHTO  C102 1378   7.890   7.159  -0.149 -0.0123 -0.4916 -0.4473
    4CHTO  H189 1379   7.858   7.130  -0.048  1.1096 -0.1471  0.0098
    4CHTO   N18 1380   7.783   7.109  -0.235  0.1138  0.1690 -0.1221
    4CHTO  H176 1381   7.693   7.090  -0.180 -0.5306  1.9437 -0.5211
    4CHTO  H177 1382   7.820   7.030  -0.299  1.2381  1.2707 -0.8624
    4CHTO  C105 1383   7.892   7.316  -0.153  0.6153 -0.5058 -0.1311
    4CHTO  H192 1384   7.832   7.354  -0.236 -0.0797  1.3326  1.1953
    4CHTO   O65 1385   8.021   7.373  -0.167 -0.0053  0.0322  0.5090
    4CHTO  C100 1386   8.132   7.320  -0.083  0.3061 -1.6815  0.4063
    4CHTO  H187 1387   8.220   7.325  -0.149 -1.4776 -0.5762 -2.0195
    4CHTO  C107 1388   8.155   7.404   0.042  0.5211 -0.3425 -0.9152
    4CHTO   O70 1389   8.070   7.382   0.153  0.1517  0.4259  0.0691
    4CHTO  H170 1390   8.081   7.293   0.181 -1.1724 -0.1334 -1.1719
    4CHTO   O57 1391   7.822   7.357  -0.005  0.1195 -0.1198 -0.1723
    4CHTO   C85 1392   7.750   7.482  -0.005 -0.3508  0.0023  0.6339
    4CHTO  H157 1393   7.768   7.524  -0.106 -0.1026 -0.8983  0.3008
    4CHTO   C83 1394   7.812   7.580   0.098 -0.5677  0.5054 -0.1409
    4CHTO  H155 1395   7.916   7.595   0.070 -1.0377  3.5780 -0.4876
    4CHTO   O56 1396   7.811   7.530   0.231  0.3054 -0.3966  0.1379
    4CHTO  H135 1397   7.724   7.522   0.265 -0.6958  0.6235 -2.0738
    4CHTO   C81 1398   7.735   7.712   0.074 -0.0514  0.5035  0.0922
    4CHTO  H153 1399   7.747   7.741  -0.030 -0.0635 -1.4036 -0.4472
    4CHTO   N14 1400   7.786   7.830   0.145 -0.0934 -0.0247  0.4008
    4CHTO  H141 1401   7.794   7.805   0.248  1.9600 -0.4279  0.1432
    4CHTO  H142 1402   7.717   7.912   0.136 -0.1199 -0.1874 -1.0800
    4CHTO   C79 1403   7.578   7.695   0.102 -0.2400  0.1752  0.0327
    4CHTO  H151 1404   7.523   7.787   0.083 -0.2510  1.6566  6.1299
    4CHTO   O52 1405   7.519   7.593   0.012 -0.0112  0.2296  0.5773
    4CHTO   C86 1406   7.597   7.468   0.026 -0.0076 -0.4600  0.4172
    4CHTO  H158 1407   7.589   7.435   0.132  0.4676 -0.5964  0.4138
    4CHTO   C90 1408   7.520   7.361  -0.058  0.2647  0.0186 -1.2993
    4CHTO   O60 1409   7.385   7.332  -0.009  0.3826 -0.0359  0.3540
    4CHTO  H138 1410   7.325   7.295  -0.070 -1.9219 -2.0922  3.6866
    4CHTO   O50 1411   7.544   7.668   0.243 -0.0650 -0.8907 -0.3361
    4CHTO   C73 1412   7.460   7.678   0.358 -0.3332 -0.2831 -0.0055
    4CHTO  H145 1413   7.412   7.776   0.362  1.0673  0.4225 -0.0556
    4CHTO   C74 1414   7.541   7.676   0.490 -0.3322  0.7751  0.9217
    4CHTO  H146 1415   7.613   7.759   0.489 -0.6596  1.0825  1.9162
    4CHTO   O54 1416   7.459   7.706   0.595  0.0241 -0.3451  0.3133
    4CHTO  H133 1417   7.501   7.719   0.678  0.3110 -3.9456  0.8246
    4CHTO   C75 1418   7.613   7.537   0.508  0.2658 -0.5628 -0.3189
    4CHTO  H147 1419   7.666   7.507   0.417 -1.2515 -1.8872 -0.7951
    4CHTO   N13 1420   7.712   7.528   0.622 -0.3794 -0.1695  0.2337
    4CHTO  H139 1421   7.656   7.552   0.710  1.7609  1.9049  1.0902
    4CHTO  H140 1422   7.754   7.430   0.638  0.6418  0.6893  3.1381
    4CHTO   C76 1423   7.495   7.425   0.507 -0.4387  0.3811  0.3338
    4CHTO  H148 1424   7.431   7.440   0.594 -1.4327 -4.9663  0.7136
    4CHTO   O49 1425   7.405   7.429   0.391 -0.3573 -0.7252  0.0099
    4CHTO   C77 1426   7.354   7.558   0.361  0.3451  0.5641 -0.0336
    4CHTO  H149 1427   7.286   7.573   0.445 -0.7107 -0.5526 -0.6772
    4CHTO   C88 1428   7.265   7.550   0.231  0.4600  0.3002  0.1259
    4CHTO   O58 1429   7.167   7.459   0.267  0.7365  0.0373  0.3269
    4CHTO  H136 1430   7.155   7.401   0.194 -0.4400  0.4460  0.1857
    4CHTO   O51 1431   7.563   7.270   0.509 -0.1467  0.0918  0.0675
    4CHTO   C78 1432   7.588   7.197   0.372 -0.2927  0.1887  0.1126
    4CHTO  H150 1433   7.580   7.271   0.289  2.3504 -1.3645 -1.6125
    4CHTO   C80 1434   7.478   7.092   0.342 -0.4134  0.3045 -0.4027
    4CHTO  H152 1435   7.466   7.042   0.441 -0.2338 -1.8679 -1.4421
    4CHTO   O55 1436   7.358   7.167   0.315  0.4140 -0.7208 -0.1967
    4CHTO  H134 1437   7.349   7.219   0.393  1.1609  0.0394 -0.5980
    4CHTO   C84 1438   7.509   6.995   0.219 -0.4031  0.0952 -0.4151
    4CHTO  H156 1439   7.508   7.053   0.127  1.0014 -1.0175 -1.1541
    4CHTO   N15 1440   7.407   6.884   0.199 -0.2061 -0.1489  0.3443
    4CHTO  H143 1441   7.445   6.806   0.136  1.2920  1.9878 -1.4957
    4CHTO  H144 1442   7.315   6.923   0.161 -0.8101  0.1786  2.1087
    4CHTO   C87 1443   7.654   6.934   0.245  0.1243  0.9394  0.8072
    4CHTO  H159 1444   7.649   6.873   0.336  1.3588  0.0155  0.2632
    4CHTO   O53 1445   7.756   7.058   0.263 -0.1725 -0.3423  0.7207
    4CHTO   C82 1446   7.727   7.141   0.372 -0.5801 -0.9180  0.1737
    4CHTO  H154 1447   7.733   7.081   0.463  0.2522 -3.9123 -1.7823
    4CHTO   C89 1448   7.833   7.247   0.383 -0.5586  0.0468 -0.0650
    4CHTO   O59 1449   7.957   7.197   0.431  0.0920 -0.1574 -0.5856
    4CHTO  H137 1450   8.018   7.268   0.436 -1.0057  0.9986 -2.8339
    4CHTO   O45 1451   7.706   6.845   0.108  0.9525 -1.1148  0.0692
    4CHTO   C67 1452   7.810   6.743   0.117  0.0493 -0.6923  0.0266
    4CHTO  H124 1453   7.905   6.780   0.157 -0.6706  1.5505 -0.3031
    4CHTO   C65 1454   7.752   6.628   0.218 -0.6123 -0.0158 -0.5125
    4CHTO  H122 1455   7.722   6.681   0.308  0.8097 -1.5072  0.8672
    4CHTO   O44 1456   7.864   6.543   0.243  0.2908  0.3770 -0.5862
    4CHTO  H102 1457   7.941   6.584   0.278 -0.6825  3.9649 -2.4063
    4CHTO   C63 1458   7.627   6.558   0.153  0.3960  0.7067 -0.2515
    4CHTO  H120 1459   7.555   6.634   0.124  0.1669  0.3652 -0.5745
    4CHTO   N11 1460   7.558   6.458   0.242  0.0370 -0.2162  0.2003
    4CHTO  H108 1461   7.465   6.506   0.263  1.3934  1.8182  1.7094
    4CHTO  H109 1462   7.620   6.455   0.329  1.7788 -0.5522 -1.0234
    4CHTO   C61 1463   7.661   6.495   0.015  1.0365 -0.5798 -0.1243
    4CHTO  H118 1464   7.568   6.476  -0.039 -0.0264  1.2724  1.0017
    4CHTO   O40 1465   7.738   6.592  -0.069  0.2056  0.1475 -0.5541
    4CHTO   C68 1466   7.836   6.684  -0.026  0.0612 -0.3144  0.0681
    4CHTO  H125 1467   7.841   6.769  -0.097 -0.1396 -1.0936 -0.8829
    4CHTO   C72 1468   7.974   6.614  -0.033 -0.1295 -0.4341 -0.2966
    4CHTO   O48 1469   8.046   6.623  -0.156  0.2525 -0.0399 -0.2991
    4CHTO  H105 1470   8.139   6.620  -0.140  0.3568  1.5480 -0.4911
    4CHTO   O38 1471   7.753   6.382   0.013 -0.7934 -0.9166 -0.0491
    4CHTO   C55 1472   7.713   6.265  -0.069  0.2651  0.7258  0.6906
    4CHTO  H112 1473   7.612   6.283  -0.108 -0.3985 -3.0450  0.4618
    4CHTO   C56 1474   7.714   6.124   0.013 -0.3410 -0.3833  0.6896
    4CHTO  H113 1475   7.797   6.124   0.085  0.5071  0.2263 -0.2799
    4CHTO   O42 1476   7.601   6.123   0.098 -0.4870  0.0120 -0.1457
    4CHTO  H100 1477   7.526   6.098   0.048 -1.4302 -0.2605  1.3979
    4CHTO   C57 1478   7.711   5.998  -0.085  0.4857 -0.3191  0.1578
    4CHTO  H114 1479   7.611   6.003  -0.129  0.2570 -0.5839  0.6382
    4CHTO   N10 1480   7.721   5.866  -0.015  0.5741  0.7016 -0.3715
    4CHTO  H106 1481   7.758   5.864   0.087  1.5813 -3.1474 -0.7404
    4CHTO  H107 1482   7.785   5.803  -0.074  0.3002  0.6902 -0.6595
    4CHTO   C58 1483   7.815   6.019  -0.195  0.2433  0.4015 -0.3663
    4CHTO  H115 1484   7.914   6.012  -0.146 -1.1649  0.4424  2.5816
    4CHTO   O37 1485   7.788   6.143  -0.264 -0.2213 -0.1918 -0.6870
    4CHTO   C59 1486   7.813   6.257  -0.189 -0.8229 -0.7583  0.6093
    4CHTO  H116 1487   7.917   6.259  -0.158 -0.5386 -0.3107 -0.3639
    4CHTO   C70 1488   7.794   6.371  -0.295 -0.1693  0.2674  0.2228
    4CHTO   O46 1489   7.896   6.387  -0.397 -0.4438 -0.3045  0.0669
    4CHTO  H103 1490   7.847   6.363  -0.473  3.2142 -1.1696 -2.0927
    4CHTO   O39 1491   7.811   5.907  -0.306 -0.0544 -0.2863  0.6592
    4CHTO   C60 1492   7.687   5.878  -0.376 -0.1884 -0.4608 -0.0669
    4CHTO  H117 1493   7.602   5.901  -0.312 -0.1230 -0.6167  0.0761
    4CHTO   C62 1494   7.676   5.951  -0.512 -0.5128 -0.9825 -0.1372
    4CHTO  H119 1495   7.675   6.061  -0.493  0.2847 -0.5842 -2.3409
    4CHTO   O43 1496   7.794   5.924  -0.584 -0.5969  0.5243  0.3594
    4CHTO  H101 1497   7.817   5.834  -0.591 -3.4066 -0.0968 -2.2060
    4CHTO   C66 1498   7.543   5.908  -0.594  0.3077  0.6800  0.4975
    4CHTO  H123 1499   7.455   5.935  -0.535  0.0835  2.5046 -0.6145
    4CHTO   N12 1500   7.525   5.971  -0.728  0.8133  1.3511 -0.3566
    4CHTO  H110 1501   7.592   6.054  -0.746  2.5634  0.0496 -0.0251
    4CHTO  H111 1502   7.422   6.001  -0.739 -0.5959 -3.3286 -1.1036
    4CHTO   C69 1503   7.537   5.754  -0.595 -0.4925  0.5609 -0.4738
    4CHTO  H126 1504   7.620   5.726  -0.665  0.8177 -0.4044  1.4207
    4CHTO   O41 1505   7.556   5.695  -0.470 -0.1220  0.4703 -0.4768
    4CHTO   C64 1506   7.674   5.723  -0.400  0.3091 -0.1439 -0.3524
    4CHTO  H121 1507   7.764   5.686  -0.453  0.6877  2.2126 -1.4217
    4CHTO   C71 1508   7.654   5.635  -0.276 -0.3754  0.1217 -0.2987
    4CHTO   O47 1509   7.527   5.656  -0.217 -0.0492  0.1846 -0.5153
    4CHTO  H104 1510   7.520   5.738  -0.172 -1.3416 -0.5062  0.5904
    4CHTO   O34 1511   7.401   5.698  -0.649 -0.1918  0.0872  0.2315
    4CHTO   C49 1512   7.382   5.561  -0.730  0.4044 -0.5027 -0.4765
    4CHTO   H91 1513   7.384   5.588  -0.836 -2.0025  0.7714 -0.2367
    4CHTO   C47 1514   7.249   5.508  -0.679  0.1547 -0.1261 -0.0843
    4CHTO   H89 1515   7.232   5.414  -0.737  0.9260  1.4045 -2.8854
    4CHTO   O33 1516   7.140   5.605  -0.696 -1.0050  0.0803  0.6762
    4CHTO   H70 1517   7.080   5.571  -0.760 -0.7504  0.6388  0.1357
    4CHTO   C45 1518   7.270   5.474  -0.528 -0.0507 -0.6690  0.0965
    4CHTO   H87 1519   7.314   5.563  -0.480 -0.5927 -0.8706  0.9700
    4CHTO    N8 1520   7.136   5.444  -0.461 -0.1709  0.9186 -0.2184
    4CHTO   H75 1521   7.140   5.439  -0.353 -0.0021  1.0436 -0.2197
    4CHTO   H76 1522   7.089   5.354  -0.496  0.6261  1.2479 -2.1831
    4CHTO   C43 1523   7.382   5.363  -0.510 -0.1866  0.5750  0.0377
    4CHTO   H85 1524   7.406   5.350  -0.405  0.4747 -0.0248 -0.1818
    4CHTO   O29 1525   7.507   5.390  -0.585  0.7706  0.1565 -0.8688
    4CHTO   C50 1526   7.496   5.457  -0.710 -0.5149  0.4648 -0.5755
    4CHTO   H92 1527   7.590   5.511  -0.732  0.2476 -0.9015 -0.7225
    4CHTO   C54 1528   7.491   5.353  -0.828 -0.4716 -0.6946 -0.3333
    4CHTO   O36 1529   7.603   5.272  -0.811 -0.6346 -0.4530 -0.8303
    4CHTO   H72 1530   7.574   5.205  -0.752 -0.5092  1.6317  1.6939
    4CHTO   O27 1531   7.337   5.233  -0.554  0.3713 -0.1397 -0.3421
    4CHTO   C37 1532   7.377   5.098  -0.529  0.0591 -0.4340  0.5040
    4CHTO   H79 1533   7.391   5.055  -0.630 -2.6464 -0.0581 -0.0764
    4CHTO   C38 1534   7.504   5.081  -0.445  0.1083  0.5752 -0.2293
    4CHTO   H80 1535   7.488   5.145  -0.357 -1.2140 -1.0931  0.7783
    4CHTO   O31 1536   7.617   5.131  -0.514  0.3893  0.1634  0.3789
    4CHTO   H68 1537   7.604   5.222  -0.533  0.6576  0.1413  0.0801
    4CHTO   C39 1538   7.524   4.927  -0.406 -0.0723 -0.3009  0.3841
    4CHTO   H81 1539   7.560   4.874  -0.494  2.3506  1.5012  0.2424
    4CHTO    N7 1540   7.631   4.915  -0.302 -0.0451 -0.8703  0.2916
    4CHTO   H73 1541   7.617   4.986  -0.221 -0.4374  1.6234 -1.8986
    4CHTO   H74 1542   7.729   4.923  -0.347 -0.0702  2.5990  0.6819
    4CHTO   C40 1543   7.388   4.863  -0.359  0.5240 -0.0749 -0.8813
    4CHTO   H82 1544   7.351   4.900  -0.263 -0.3415 -0.1878 -1.1658
    4CHTO   O26 1545   7.292   4.878  -0.463 -0.1236 -0.1052  0.0659
    4CHTO   C41 1546   7.252   5.019  -0.474 -0.3175  0.1008 -0.1126
    4CHTO   H83 1547   7.220   5.056  -0.375  1.9685  0.6429  0.4553
    4CHTO   C52 1548   7.128   5.041  -0.565 -0.1868  0.4056 -0.4566
    4CHTO   O35 1549   7.027   4.942  -0.546  0.1387  0.5014 -0.6498
    4CHTO   H71 1550   7.009   4.890  -0.621  0.8719 -2.5143  1.1624
    4CHTO   O28 1551   7.393   4.727  -0.347 -0.7955 -0.0331  0.8976
    4CHTO   C42 1552   7.335   4.648  -0.241  0.4408 -0.0942  0.5600
    4CHTO   H84 1553   7.343   4.547  -0.281  0.5840 -0.5422  1.6967
    4CHTO   C44 1554   7.178   4.679  -0.217 -0.3089  0.7123  0.3273
    4CHTO   H86 1555   7.172   4.780  -0.176 -2.3387 -0.1637  2.2897
    4CHTO   O32 1556   7.105   4.681  -0.345 -0.0270 -0.0081 -0.7437
    4CHTO   H69 1557   7.107   4.598  -0.389  0.6228 -1.2941  1.6315
    4CHTO   C48 1558   7.120   4.581  -0.110  0.1096  0.0582 -0.0379
    4CHTO   H90 1559   7.144   4.475  -0.121  3.3671  0.5274  1.8582
    4CHTO    N9 1560   6.970   4.606  -0.088  0.3247 -0.0684  0.6763
    4CHTO   H77 1561   6.920   4.608  -0.183  1.2249  0.8759  0.2035
    4CHTO   H78 1562   6.964   4.703  -0.040  0.9619 -0.1472  0.9262
    4CHTO   C51 1563   7.211   4.607   0.022  0.3907  0.1751 -0.1946
    4CHTO   H93 1564   7.193   4.708   0.060  0.0455  0.2993 -0.6928
    4CHTO   O30 1565   7.352   4.583  -0.012 -0.3579 -0.2164  0.5610
    4CHTO   C46 1566   7.417   4.656  -0.112 -0.2352 -0.5245 -0.2713
    4CHTO   H88 1567   7.436   4.755  -0.070  1.7492 -1.0302  0.0442
    4CHTO   C53 1568   7.555   4.579  -0.112  0.0105  0.1941 -0.4755
    4CHTO   O72 1569   7.628   4.603   0.013  0.8615  0.5230 -0.5539
    4CHTO  H199 1570   7.706   4.551   0.012 -0.3457 -1.3136 -1.0965
    4CHTO   O22 1571   7.187   4.511   0.131  0.5051  0.0942  0.3942
    4CHTO   C31 1572   7.228   4.531   0.276 -0.4549 -0.1880 -0.1090
    4CHTO   H59 1573   7.309   4.607   0.280 -0.3120 -0.3941  1.3507
    4CHTO   C29 1574   7.117   4.580   0.369 -0.9124 -0.1543  0.2183
    4CHTO   H57 1575   7.040   4.502   0.362 -0.5907 -0.3818 -0.8352
    4CHTO   O21 1576   7.068   4.702   0.314 -0.6936 -0.1174  0.3088
    4CHTO   H37 1577   7.092   4.712   0.223 -0.0884 -1.7737  0.2655
    4CHTO   C27 1578   7.174   4.600   0.520 -0.5429 -0.8993  0.1130
    4CHTO   H55 1579   7.255   4.674   0.517  0.4991 -2.0738 -1.1526
    4CHTO    N5 1580   7.070   4.639   0.616 -0.0301 -0.0509  0.1972
    4CHTO   H43 1581   6.989   4.568   0.623  0.1370 -0.2963 -0.3829
    4CHTO   H44 1582   7.111   4.675   0.710 -3.4253 -0.3115  1.8664
    4CHTO   C25 1583   7.242   4.458   0.558 -0.0179 -0.0209 -0.3299
    4CHTO   H53 1584   7.162   4.382   0.554  0.5019 -0.5495 -0.8461
    4CHTO   O17 1585   7.345   4.421   0.465 -0.5250  0.4539  0.2967
    4CHTO   C32 1586   7.294   4.404   0.334 -0.3942  0.1031 -0.1966
    4CHTO   H60 1587   7.223   4.321   0.333 -1.4802  1.0175  0.0651
    4CHTO   C36 1588   7.411   4.349   0.243 -0.3697 -0.0563 -0.4745
    4CHTO   O25 1589   7.475   4.231   0.295 -0.2540  0.0385  0.3442
    4CHTO   H40 1590   7.412   4.167   0.320  0.6725 -0.2779  1.9406
    4CHTO   O15 1591   7.312   4.460   0.710  0.1620  0.2451 -0.0598
    4CHTO   C19 1592   7.418   4.522   0.787 -0.2024  0.5804  0.0908
    4CHTO   H47 1593   7.508   4.470   0.751 -0.0356 -1.5505  3.3412
    4CHTO   C20 1594   7.436   4.677   0.771  0.4065  0.2077 -0.2128
    4CHTO   H48 1595   7.344   4.730   0.799  0.7070 -0.1660  1.5485
    4CHTO   O19 1596   7.466   4.701   0.638 -0.3523 -0.3912 -0.2064
    4CHTO   H35 1597   7.397   4.671   0.583 -0.2013 -0.0869 -0.5689
    4CHTO   C21 1598   7.547   4.732   0.867 -0.1670 -0.0192 -0.2959
    4CHTO   H49 1599   7.644   4.704   0.826 -0.1110  0.0188 -0.1874
    4CHTO    N4 1600   7.555   4.878   0.874  0.7268 -0.1147  0.0245
    4CHTO   H41 1601   7.587   4.908   0.972  0.5066 -2.7619  0.9325
    4CHTO   H42 1602   7.452   4.910   0.865 -0.0058 -2.5089 -0.2697
    4CHTO   C22 1603   7.530   4.670   1.006  0.1867  0.5018 -0.0236
    4CHTO   H50 1604   7.435   4.710   1.042 -1.0855 -1.5656 -0.9279
    4CHTO   O14 1605   7.516   4.528   1.007 -0.3459 -0.2189  0.0293
    4CHTO   C23 1606   7.401   4.489   0.937 -0.1388 -0.3487 -0.1039
    4CHTO   H51 1607   7.307   4.527   0.980 -0.8168 -3.3310  1.1459
    4CHTO   C34 1608   7.401   4.339   0.978  0.1823  0.4643  0.6396
    4CHTO   O23 1609   7.275   4.264   0.964  0.2820 -0.2981 -0.0252
    4CHTO   H38 1610   7.270   4.181   1.009  0.2226 -1.7470 -2.5856
    4CHTO   O16 1611   7.631   4.696   1.106  0.4315  0.4795 -0.4183
    4CHTO   C24 1612   7.589   4.813   1.224  0.5367  0.1784 -0.3839
    4CHTO   H52 1613   7.504   4.874   1.193 -1.1316 -2.5071 -1.2649
    4CHTO   C26 1614   7.714   4.905   1.250  0.4024  0.1563 -0.0188
    4CHTO   H54 1615   7.795   4.843   1.295 -0.3606  0.0773  1.2868
    4CHTO   O20 1616   7.761   4.947   1.122 -0.3675  0.0120 -0.3737
    4CHTO   H36 1617   7.786   5.037   1.125  0.1803 -0.1188 -0.9543
    4CHTO   C30 1618   7.663   5.012   1.349 -0.5125  0.0391  0.1639
    4CHTO   H58 1619   7.578   5.065   1.303 -0.0688  0.3960 -0.2469
    4CHTO    N6 1620   7.766   5.112   1.386  0.2516  0.7673  0.1970
    4CHTO   H45 1621   7.764   5.129   1.492  1.0506 -0.3209  0.3946
    4CHTO   H46 1622   7.756   5.202   1.327  0.6392 -0.1659 -1.3222
    4CHTO   C33 1623   7.608   4.941   1.478  0.2637  0.0542 -0.3783
    4CHTO   H61 1624   7.688   4.892   1.535  0.1123  1.0967  0.7521
    4CHTO   O18 1625   7.508   4.847   1.443  0.5290  0.6048 -0.0486
    4CHTO   C28 1626   7.555   4.746   1.360  0.2984 -0.0680  0.1133
    4CHTO   H56 1627   7.642   4.699   1.406  1.1951  0.1532 -1.3319
    4CHTO   C35 1628   7.449   4.634   1.343  0.2186  1.1792  0.1226
    4CHTO   O24 1629   7.421   4.553   1.457 -0.0214 -0.0370 -0.2736
    4CHTO   H39 1630   7.351   4.494   1.436  0.8764 -1.7471  1.2813
    4CHTO    O9 1631   7.557   5.038   1.573  0.4177 -0.2875  0.5200
    4CHTO   C13 1632   7.545   4.970   1.726  0.3751 -0.6426 -0.1580
    4CHTO   H26 1633   7.620   4.890   1.735 -1.0046 -1.9659 -0.2344
    4CHTO   C11 1634   7.399   4.909   1.728  0.6681 -0.2875  0.0898
    4CHTO   H24 1635   7.412   4.813   1.674 -2.3217 -0.2028 -0.8571
    4CHTO    O8 1636   7.288   4.989   1.677 -0.1762 -0.1977 -0.0773
    4CHTO    H3 1637   7.249   4.965   1.595  1.2206  2.4930 -1.6022
    4CHTO    C9 1638   7.374   4.872   1.876 -0.5716 -0.4601 -0.8910
    4CHTO   H22 1639   7.463   4.823   1.918 -0.7087  1.2078  1.4390
    4CHTO    N2 1640   7.271   4.772   1.899  0.7202  0.6458  0.1877
    4CHTO   H10 1641   7.279   4.720   1.993  0.0203  0.4932  0.1672
    4CHTO   H11 1642   7.265   4.697   1.821  0.4837 -0.2325  1.0436
    4CHTO    C7 1643   7.365   5.007   1.962  0.0561  0.1327  0.3144
    4CHTO   H20 1644   7.393   4.978   2.065  0.8083  4.8232  1.5171
    4CHTO    O4 1645   7.470   5.107   1.927 -0.1092 -0.0685  0.9462
    4CHTO   C14 1646   7.580   5.061   1.843  0.3520 -0.2558  0.4334
    4CHTO   H27 1647   7.639   5.004   1.918  1.8134 -1.4517 -1.5720
    4CHTO   C18 1648   7.669   5.180   1.803  0.3171 -0.1871  0.4114
    4CHTO   O13 1649   7.777   5.145   1.716  0.6276  0.1393  0.3073
    4CHTO    H7 1650   7.856   5.177   1.755  0.5620 -0.2803  0.8058
    4CHTO    O2 1651   7.207   5.084   1.962 -0.1404 -0.2330 -0.2934
    4CHTO    C1 1652   7.203   5.196   2.051 -0.7016 -0.2300 -0.0866
    4CHTO   H14 1653   7.306   5.233   2.069 -1.6365  2.3131  0.3629
    4CHTO    C2 1654   7.142   5.179   2.195  0.4567  0.2004 -0.7401
    4CHTO   H15 1655   7.036   5.150   2.187  0.4142 -0.1089  0.7481
    4CHTO    O6 1656   7.224   5.085   2.267 -0.6931  0.1706 -0.0146
    4CHTO    H1 1657   7.182   5.068   2.349 -1.0335  0.2838 -0.1631
    4CHTO    C3 1658   7.149   5.323   2.274  0.6085  0.1744 -0.2835
    4CHTO   H16 1659   7.252   5.359   2.263  0.3062  0.4877 -2.1097
    4CHTO    N1 1660   7.103   5.308   2.414  0.4732  0.1739  0.0170
    4CHTO    H8 1661   7.141   5.217   2.459  0.2741 -1.2731 -2.6522
    4CHTO    H9 1662   7.130   5.394   2.473 -0.0341  1.8831 -2.1873
    4CHTO    C4 1663   7.057   5.417   2.180  0.0804  0.1219 -0.4290
    4CHTO   H17 1664   6.959   5.371   2.170 -0.3933  0.9927  0.1045
    4CHTO    O1 1665   7.121   5.427   2.053 -0.0613 -0.2041  0.1765
    4CHTO    C5 1666   7.126   5.308   1.979 -0.0578  0.3946  0.0074
    4CHTO   H18 1667   7.022   5.283   1.960  0.5199 -1.7511 -0.4773
    4CHTO   C16 1668   7.197   5.337   1.845  0.5139  0.7887 -0.0307
    4CHTO   O11 1669   7.132   5.443   1.770 -0.2273 -0.9098  0.7520
    4CHTO    H5 1670   7.073   5.483   1.831  1.6604 -1.9607  3.3975
    4CHTO    O3 1671   7.040   5.550   2.237 -0.2661  0.0323  0.2275
    4CHTO    C6 1672   6.924   5.627   2.195 -0.2203  0.7027 -0.3315
    4CHTO   H19 1673   6.861   5.572   2.125 -0.2538  0.7872 -0.3680
    4CHTO    C8 1674   6.840   5.661   2.322 -0.2720  0.1923 -0.1441
    4CHTO   H21 1675   6.905   5.708   2.396  0.5897  0.4256 -1.0520
    4CHTO    O7 1676   6.795   5.532   2.365 -0.2013 -0.1616  0.7417
    4CHTO    H2 1677   6.862   5.506   2.426  0.0948 -0.0017  0.4873
    4CHTO   C12 1678   6.724   5.768   2.299 -0.1205 -0.1792  0.6133
    4CHTO   H25 1679   6.652   5.708   2.239 -0.1124 -0.3608  0.7859
    4CHTO    N3 1680   6.650   5.823   2.423  0.5085  0.2474 -0.0501
    4CHTO   H12 1681   6.674   5.924   2.453  0.1254 -0.3230  2.2845
    4CHTO   H13 1682   6.544   5.805   2.423  0.6078 -0.3778 -1.4087
    4CHTO   C15 1683   6.772   5.886   2.211 -0.3785 -0.0260  0.5172
    4CHTO   H28 1684   6.838   5.955   2.263 -1.5313  1.1388  0.4703
    4CHTO   O10 1685   6.651   5.965   2.148  0.3255  0.0394 -0.2511
    4CHTO    H4 1686   6.592   5.905   2.107  0.0603 -2.4945  3.5732
    4CHTO    O5 1687   6.843   5.833   2.095 -0.1919  0.0314 -0.0975
    4CHTO   C10 1688   6.962   5.763   2.131 -0.4137  0.3336  0.4548
    4CHTO   H23 1689   7.013   5.822   2.207  1.3519 -2.1245  1.2466
    4CHTO   C17 1690   7.049   5.761   2.004 -0.5412  0.7201  0.2322
    4CHTO   O12 1691   7.192   5.734   2.025  0.4314  0.5177  0.2445
    4CHTO    H6 1692   7.240   5.733   1.944  0.4529 -0.2691  0.2631
    5CHTO  H203 1693   7.593   1.931   2.275  0.9554  0.6640  1.6302
    5CHTO   O82 1694   7.530   1.913   2.343 -0.1593  0.1480  0.4911
    5CHTO  C123 1695   7.517   2.015   2.439  0.1030  0.5352  0.6253
    5CHTO  H227 1696   7.615   2.022   2.487  2.5414  0.3315 -4.0074
    5CHTO   O77 1697   7.490   2.140   2.364 -0.4055  0.1979  0.8800
    5CHTO  C118 1698   7.470   2.259   2.432 -0.2315 -0.5761  0.5104
    5CHTO  H222 1699   7.557   2.285   2.493 -0.3926 -2.2076  1.4822
    5CHTO  C125 1700   7.441   2.370   2.325  0.0262  0.3235  0.4684
    5CHTO   O84 1701   7.487   2.500   2.373  0.2823  0.4127 -0.0868
    5CHTO  H205 1702   7.485   2.565   2.306 -0.3311  1.3897  0.8809
    5CHTO  C114 1703   7.353   2.242   2.528 -0.2413 -0.6735  0.6566
    5CHTO  H218 1704   7.261   2.228   2.471  0.4738 -1.9337 -0.2204
    5CHTO  C116 1705   7.356   2.114   2.611  0.7126 -1.0475  0.1303
    5CHTO  H220 1706   7.431   2.133   2.691 -0.2210 -0.3426  0.8481
    5CHTO   O79 1707   7.228   2.095   2.681 -0.4096 -0.3402  0.5368
    5CHTO  H201 1708   7.161   2.105   2.617  1.7897  1.5009 -1.6010
    5CHTO  C120 1709   7.393   1.981   2.530  0.1531 -0.4592  0.4580
    5CHTO  H224 1710   7.302   1.957   2.471 -1.2161  0.7859  2.0015
    5CHTO   N21 1711   7.424   1.871   2.627 -0.8857 -0.3002  0.0106
    5CHTO  H211 1712   7.371   1.883   2.720 -2.0772  0.5845 -0.7717
    5CHTO  H212 1713   7.403   1.776   2.581  2.9959 -1.1362 -0.2257
    5CHTO   O75 1714   7.347   2.364   2.604  0.0502 -0.0811  0.4196
    5CHTO  C112 1715   7.206   2.395   2.680  0.1462 -0.5970 -0.1848
    5CHTO  H216 1716   7.185   2.326   2.762 -1.3721  1.3062  1.0673
    5CHTO   O73 1717   7.097   2.397   2.584 -0.1863 -0.1954 -0.2226
    5CHTO  C113 1718   6.967   2.428   2.643 -0.2237 -0.3112  0.7551
    5CHTO  H217 1719   6.935   2.345   2.708  1.5349  0.2054  2.3352
    5CHTO  C124 1720   6.872   2.431   2.521 -0.3968 -0.5434  0.2837
    5CHTO   O83 1721   6.757   2.356   2.555  0.3777  0.3881 -0.0747
    5CHTO  H204 1722   6.719   2.383   2.636 -3.0889 -0.8921 -1.1849
    5CHTO  C109 1723   6.963   2.555   2.736 -0.4286 -0.3902  0.0812
    5CHTO  H213 1724   6.960   2.644   2.672  1.6598 -0.4144 -0.0900
    5CHTO  C110 1725   7.077   2.555   2.836  0.1008  0.7719 -0.2848
    5CHTO  H214 1726   7.057   2.470   2.902 -2.1586 -0.6804 -2.7625
    5CHTO   O78 1727   7.079   2.676   2.906 -0.8884 -0.2230 -0.0166
    5CHTO  H200 1728   7.097   2.669   2.997  0.2428  0.1159 -0.2014
    5CHTO  C111 1729   7.212   2.527   2.757  0.0698 -0.4310  0.3937
    5CHTO  H215 1730   7.225   2.605   2.681 -1.9153  1.2269  1.7288
    5CHTO   N19 1731   7.330   2.535   2.852  0.0144  0.8816 -0.5790
    5CHTO  H207 1732   7.422   2.502   2.804  2.0119  4.1823  0.8624
    5CHTO  H208 1733   7.308   2.484   2.944 -1.1524 -0.0217 -1.3349
    5CHTO   O74 1734   6.839   2.550   2.812  0.7416  0.0133  0.1055
    5CHTO  C115 1735   6.747   2.700   2.783 -0.2943 -0.4469  0.3357
    5CHTO  H219 1736   6.750   2.770   2.866 -1.3377  0.6953 -0.5683
    5CHTO   O76 1737   6.797   2.786   2.639 -0.2327 -0.1632  0.0809
    5CHTO  C122 1738   6.730   2.915   2.624 -0.0015  0.1163 -0.7826
    5CHTO  H226 1739   6.758   2.950   2.525 -0.0175 -1.2408 -1.2762
    5CHTO  C126 1740   6.787   3.023   2.728  0.8500  0.0682 -0.0275
    5CHTO   O85 1741   6.927   3.043   2.733 -0.3402  0.1443 -0.4816
    5CHTO  H206 1742   6.970   2.961   2.720 -0.1647  0.2820 -0.7836
    5CHTO  C121 1743   6.567   2.898   2.630 -0.6114  0.0551 -0.2497
    5CHTO  H225 1744   6.509   2.993   2.635  0.0982  0.5224 -0.7713
    5CHTO   O81 1745   6.534   2.858   2.498 -0.4596  0.1734  0.1532
    5CHTO  H202 1746   6.496   2.932   2.454 -0.8175  0.6695  1.2793
    5CHTO  C119 1747   6.512   2.798   2.742  0.2749  0.3099 -0.4086
    5CHTO  H223 1748   6.531   2.861   2.829  0.1790  0.7359 -0.6913
    5CHTO  C117 1749   6.596   2.668   2.754  0.2521 -0.3281 -0.5184
    5CHTO  H221 1750   6.590   2.605   2.665  1.1548 -1.6716  0.3437
    5CHTO   N20 1751   6.539   2.587   2.868  0.1812 -0.6714  0.3370
    5CHTO  H209 1752   6.597   2.500   2.895 -0.3433 -1.6548 -1.6326
    5CHTO  H210 1753   6.519   2.644   2.958  0.3130  0.4085 -0.3128
    5CHTO   O80 1754   6.342   2.789   2.749  0.2565 -0.3197  0.1177
    5CHTO  C103 1755   6.260   2.790   2.620  0.0343 -0.4407 -0.2121
    5CHTO  H190 1756   6.276   2.864   2.542  2.1935 -0.8152 -0.1550
    5CHTO  C101 1757   6.256   2.645   2.553 -0.0072 -0.4990  0.0466
    5CHTO  H188 1758   6.258   2.580   2.640  1.4340  2.6445  2.4989
    5CHTO   O68 1759   6.379   2.635   2.465 -0.1023 -0.0916 -0.3280
    5CHTO  H168 1760   6.452   2.680   2.502 -0.0608 -0.3644 -0.0739
    5CHTO   C99 1761   6.130   2.619   2.461 -0.0772  0.0997 -0.0985
    5CHTO  H186 1762   6.123   2.682   2.370  1.6174 -0.1649 -0.4287
    5CHTO   N17 1763   6.117   2.478   2.415 -0.3333 -0.4185  0.0114
    5CHTO  H174 1764   6.049   2.465   2.332 -0.1495 -2.7446  0.1847
    5CHTO  H175 1765   6.215   2.438   2.394 -0.2463 -0.0014 -0.3656
    5CHTO   C97 1766   6.004   2.655   2.548 -0.0747 -0.4504 -0.5161
    5CHTO  H184 1767   6.004   2.594   2.639  0.0898  1.3185  0.6894
    5CHTO   O64 1768   6.018   2.801   2.577 -0.1956  0.0275 -0.0298
    5CHTO  C104 1769   6.119   2.821   2.677 -0.5364 -0.4285  0.8637
    5CHTO  H191 1770   6.108   2.763   2.768 -1.7855 -0.9811  0.3784
    5CHTO  C108 1771   6.105   2.970   2.719  0.1345  0.5807 -0.0890
    5CHTO   O71 1772   6.189   3.004   2.826  0.1025 -0.6059 -0.3335
    5CHTO  H171 1773   6.191   3.095   2.845  1.5450  0.3791 -4.4965
    5CHTO   O62 1774   5.882   2.652   2.474 -0.3616 -0.7811  0.0251
    5CHTO   C91 1775   5.761   2.677   2.550  0.8276 -0.0927  0.4195
    5CHTO  H178 1776   5.779   2.761   2.618  0.9141  0.1415  0.1064
    5CHTO   C92 1777   5.725   2.547   2.637  0.3353  0.4427  0.2537
    5CHTO  H179 1778   5.815   2.522   2.695 -0.1581  0.9677  1.2522
    5CHTO   O66 1779   5.624   2.572   2.728 -0.1526 -0.0531 -0.2794
    5CHTO  H166 1780   5.611   2.504   2.791 -1.3663  0.6661  0.2518
    5CHTO   C93 1781   5.681   2.423   2.548  0.0423 -0.3992  0.1097
    5CHTO  H180 1782   5.625   2.348   2.606 -1.9631 -0.3230 -1.6791
    5CHTO   N16 1783   5.800   2.338   2.511 -0.2031 -0.1433 -0.1606
    5CHTO  H172 1784   5.807   2.321   2.405  0.6909 -2.3306  0.2329
    5CHTO  H173 1785   5.887   2.390   2.547 -0.5775 -1.0540  2.1551
    5CHTO   C94 1786   5.582   2.470   2.437 -0.0760  1.0223 -0.2004
    5CHTO  H181 1787   5.628   2.469   2.338  2.8449 -1.0145  1.1153
    5CHTO   O61 1788   5.540   2.605   2.455 -0.0873  0.3898  0.0156
    5CHTO   C95 1789   5.640   2.708   2.448  0.6488  0.5012 -0.0397
    5CHTO  H182 1790   5.678   2.717   2.346  3.2029  1.6532  0.9839
    5CHTO  C106 1791   5.561   2.845   2.478 -0.9273 -0.5995 -0.4093
    5CHTO   O69 1792   5.455   2.858   2.383  0.1385  0.2252 -0.2267
    5CHTO  H169 1793   5.495   2.901   2.310 -1.2558 -0.9064 -1.6863
    5CHTO   O63 1794   5.452   2.366   2.432  0.1408 -0.1099  0.1717
    5CHTO   C96 1795   5.452   2.284   2.294  0.3065  0.8729  0.0418
    5CHTO  H183 1796   5.554   2.275   2.256  0.3258  1.0063  0.0622
    5CHTO   C98 1797   5.370   2.359   2.181 -1.0262  0.1054 -0.0241
    5CHTO  H185 1798   5.278   2.393   2.230  0.6603  2.0026  1.9544
    5CHTO   O67 1799   5.452   2.477   2.155 -0.0659  0.0210  0.0147
    5CHTO  H167 1800   5.441   2.526   2.234  0.6793 -3.3103  2.3252
    5CHTO  C102 1801   5.344   2.265   2.045  0.2229 -0.0211 -0.1964
    5CHTO  H189 1802   5.437   2.275   1.987  1.2064  0.9779  1.5103
    5CHTO   N18 1803   5.236   2.322   1.963  0.2149  0.2517  0.2044
    5CHTO  H176 1804   5.281   2.406   1.912  1.6637  0.2785  1.4963
    5CHTO  H177 1805   5.205   2.249   1.890  0.0900 -0.2527  0.7526
    5CHTO  C105 1806   5.327   2.114   2.079  0.9787  0.0723 -0.0615
    5CHTO  H192 1807   5.224   2.094   2.108  0.6162  0.3416 -1.1290
    5CHTO   O65 1808   5.405   2.068   2.189 -0.4735 -0.2688 -0.2744
    5CHTO  C100 1809   5.384   2.141   2.316 -0.2105  0.2189  0.5671
    5CHTO  H187 1810   5.276   2.147   2.332 -0.1225 -0.0311  1.2864
    5CHTO  C107 1811   5.451   2.062   2.443  0.1647 -0.3865 -0.2111
    5CHTO   O70 1812   5.412   2.110   2.568 -0.1845  0.0389  0.2255
    5CHTO  H170 1813   5.318   2.107   2.561  0.0525 -2.1534 -3.2991
    5CHTO   O57 1814   5.350   2.027   1.946 -0.0133 -0.5738 -1.2285
    5CHTO   C85 1815   5.331   1.887   1.951 -0.0544 -0.0685  0.1373
    5CHTO  H157 1816   5.256   1.860   2.029  2.1360 -5.2535  0.6275
    5CHTO   C83 1817   5.459   1.810   2.005  0.7247 -0.4721  0.5417
    5CHTO  H155 1818   5.468   1.839   2.110  1.7030  2.2720 -0.2619
    5CHTO   O56 1819   5.572   1.852   1.926  0.1000  0.5757  0.2560
    5CHTO  H135 1820   5.628   1.901   1.982  0.1714 -0.2084  0.8701
    5CHTO   C81 1821   5.431   1.654   2.000  0.2107 -0.2029  0.0073
    5CHTO  H153 1822   5.342   1.628   2.058 -0.4682  1.4656 -0.2604
    5CHTO   N14 1823   5.540   1.581   2.066  0.0028  0.1088  0.0732
    5CHTO  H141 1824   5.514   1.477   2.063 -0.1716  0.1758 -0.6993
    5CHTO  H142 1825   5.560   1.611   2.167  0.1793 -2.8967  0.9842
    5CHTO   C79 1826   5.407   1.606   1.853  0.0991  0.2352  0.0497
    5CHTO  H151 1827   5.394   1.497   1.856  1.8075  0.0217  0.4641
    5CHTO   O52 1828   5.291   1.681   1.798 -0.1597  0.7019  0.1796
    5CHTO   C86 1829   5.286   1.828   1.809  0.4151  1.0494  0.5171
    5CHTO  H158 1830   5.354   1.858   1.727 -0.0209 -0.6844 -0.5064
    5CHTO   C90 1831   5.139   1.880   1.774 -0.1139  0.0081  0.9291
    5CHTO   O60 1832   5.031   1.829   1.860  0.7612  0.3135  0.2030
    5CHTO  H138 1833   5.010   1.742   1.832  0.8849  0.7733 -1.4105
    5CHTO   O50 1834   5.522   1.604   1.773 -0.7465 -0.3334 -0.8659
    5CHTO   C73 1835   5.575   1.571   1.652 -0.6881 -0.0274  0.3426
    5CHTO  H145 1836   5.498   1.577   1.573 -0.5939 -2.4239  0.0050
    5CHTO   C74 1837   5.632   1.418   1.647 -0.2431 -0.0019  0.2606
    5CHTO  H146 1838   5.539   1.366   1.672 -0.7215  1.2730  1.2125
    5CHTO   O54 1839   5.664   1.377   1.516 -0.6131 -0.1917  0.0192
    5CHTO  H133 1840   5.733   1.314   1.512 -0.4047  0.0894 -0.8086
    5CHTO   C75 1841   5.747   1.396   1.750  0.4450  0.0329 -0.1695
    5CHTO  H147 1842   5.708   1.410   1.852 -1.3565  1.9689 -1.0892
    5CHTO   N13 1843   5.809   1.268   1.755 -0.5859  0.7518 -0.5459
    5CHTO  H139 1844   5.724   1.205   1.773 -1.5748  2.2841  0.2110
    5CHTO  H140 1845   5.851   1.243   1.658  1.1141  1.4291 -0.0088
    5CHTO   C76 1846   5.855   1.519   1.739  0.0842 -0.4156 -0.2699
    5CHTO  H148 1847   5.933   1.496   1.666  1.0624  0.5996  0.4348
    5CHTO   O49 1848   5.799   1.650   1.721 -0.4276 -0.2747  0.1060
    5CHTO   C77 1849   5.696   1.664   1.615 -0.3597  0.2851 -0.3146
    5CHTO  H149 1850   5.732   1.629   1.518  3.4489  2.7376  0.0940
    5CHTO   C88 1851   5.655   1.809   1.599  0.0570 -0.1275 -0.1669
    5CHTO   O58 1852   5.546   1.846   1.522 -0.0990  0.2549 -0.7262
    5CHTO  H136 1853   5.548   1.940   1.526 -2.6598  0.3525 -0.9589
    5CHTO   O51 1854   5.921   1.546   1.902 -0.1252 -0.0566  0.2523
    5CHTO   C78 1855   6.055   1.655   1.923  0.2638 -0.2448 -0.0191
    5CHTO  H150 1856   6.061   1.718   1.832  2.5394 -0.5680 -0.1198
    5CHTO   C80 1857   6.186   1.577   1.945 -0.4939 -0.3724 -0.5926
    5CHTO  H152 1858   6.179   1.511   2.034  3.2830  1.4397  1.1823
    5CHTO   O55 1859   6.229   1.517   1.825  0.1897 -0.8965  0.2656
    5CHTO  H134 1860   6.159   1.466   1.789  0.0330 -0.9169  0.5977
    5CHTO   C84 1861   6.302   1.681   1.998 -0.8655  0.3639  0.2487
    5CHTO  H156 1862   6.336   1.738   1.912 -0.8536  1.0600  0.7144
    5CHTO   N15 1863   6.422   1.595   2.033  0.3588  0.2588 -1.0456
    5CHTO  H143 1864   6.444   1.545   1.941  1.1604 -0.2972 -0.5629
    5CHTO  H144 1865   6.388   1.521   2.102  0.7067  2.0174  1.0511
    5CHTO   C87 1866   6.248   1.764   2.115  0.3276 -0.2404 -0.3699
    5CHTO  H159 1867   6.238   1.704   2.206  1.6351  0.7608  0.4417
    5CHTO   O53 1868   6.122   1.826   2.082 -0.4998  0.1825 -0.5566
    5CHTO   C82 1869   6.018   1.733   2.050  0.3020 -0.1546 -0.2645
    5CHTO  H154 1870   5.995   1.662   2.129  0.7787 -0.7162 -0.6308
    5CHTO   C89 1871   5.891   1.810   2.020  0.4015 -0.5312  0.5697
    5CHTO   O59 1872   5.838   1.862   2.143  0.0578 -0.3165  0.1251
    5CHTO  H137 1873   5.755   1.817   2.149 -0.2864  0.5716  2.1647
    5CHTO   O45 1874   6.352   1.898   2.141  0.3399 -0.2020  0.5422
    5CHTO   C67 1875   6.330   1.960   2.272 -0.7098  0.0257 -0.1157
    5CHTO  H124 1876   6.230   1.946   2.313 -0.0699 -0.3051  1.3570
    5CHTO   C65 1877   6.440   1.902   2.377 -0.5440 -0.3219 -0.3000
    5CHTO  H122 1878   6.521   1.871   2.311 -0.5765 -0.0003 -0.4933
    5CHTO   O44 1879   6.373   1.780   2.429  0.4742  0.4600  0.0634
    5CHTO  H102 1880   6.360   1.723   2.356  3.3760 -0.0633 -0.0713
    5CHTO   C63 1881   6.500   1.996   2.483  0.5170 -0.0734 -0.7999
    5CHTO  H120 1882   6.578   2.056   2.436  0.7674  0.1320 -0.1220
    5CHTO   N11 1883   6.568   1.935   2.598  0.2498  0.2442 -0.1273
    5CHTO  H108 1884   6.499   1.922   2.679 -0.0738 -0.6210 -0.5279
    5CHTO  H109 1885   6.639   2.009   2.627 -0.0500  0.6460 -0.4212
    5CHTO   C61 1886   6.393   2.106   2.514  0.0601 -0.1895  0.0664
    5CHTO  H118 1887   6.437   2.174   2.589  0.9703 -0.0018 -0.6332
    5CHTO   O40 1888   6.359   2.184   2.398  0.2280  0.5674 -0.5809
    5CHTO   C68 1889   6.343   2.121   2.265 -0.6875 -0.4199  0.5488
    5CHTO  H125 1890   6.437   2.150   2.213 -2.6988  3.1969 -1.1835
    5CHTO   C72 1891   6.232   2.178   2.187 -0.3155  0.7981  0.5918
    5CHTO   O48 1892   6.110   2.190   2.258 -0.0559  0.2786  0.1097
    5CHTO  H105 1893   6.061   2.250   2.204  2.9452  3.4396  0.6773
    5CHTO   O38 1894   6.276   2.044   2.567  0.0894 -0.1711 -1.3212
    5CHTO   C55 1895   6.185   2.137   2.636  0.1441 -0.2523  0.2134
    5CHTO  H112 1896   6.122   2.176   2.555  1.9176 -0.9644 -1.5334
    5CHTO   C56 1897   6.256   2.253   2.727  0.1663 -0.6018 -0.1715
    5CHTO  H113 1898   6.344   2.209   2.776  1.3455  0.1631 -1.5442
    5CHTO   O42 1899   6.317   2.355   2.639  0.3127 -0.0157 -0.3915
    5CHTO  H100 1900   6.257   2.405   2.587 -1.0547  1.3739  2.3890
    5CHTO   C57 1901   6.155   2.316   2.828 -0.2849 -0.1092  0.1893
    5CHTO  H114 1902   6.083   2.384   2.781  0.8537 -0.4498 -2.0951
    5CHTO   N10 1903   6.219   2.403   2.922 -0.5902 -0.7931  0.5124
    5CHTO  H106 1904   6.209   2.506   2.890  2.0720 -0.7438 -0.3217
    5CHTO  H107 1905   6.324   2.384   2.941 -0.0796  0.6055 -0.7840
    5CHTO   C58 1906   6.073   2.205   2.896 -0.4792 -0.1054 -0.7206
    5CHTO  H115 1907   6.143   2.139   2.951 -0.9534 -0.9635 -1.1501
    5CHTO   O37 1908   6.005   2.125   2.802 -0.2463  0.1665  0.7581
    5CHTO   C59 1909   6.089   2.042   2.718 -0.0196 -0.0143  0.5585
    5CHTO  H116 1910   6.155   1.981   2.781  1.9206  1.3718 -0.0669
    5CHTO   C70 1911   5.986   1.962   2.630 -0.3171  0.2171 -1.1088
    5CHTO   O46 1912   5.921   1.863   2.714 -0.6188 -0.4064 -0.0667
    5CHTO  H103 1913   5.987   1.802   2.742 -1.6760 -2.4556 -1.8839
    5CHTO   O39 1914   5.964   2.266   3.017  0.5403 -0.3077  0.1945
    5CHTO   C60 1915   5.836   2.326   2.971 -0.1788  0.2789 -0.3686
    5CHTO  H117 1916   5.857   2.375   2.875 -1.4127 -1.5225 -1.5882
    5CHTO   C62 1917   5.736   2.205   2.960 -1.3367  0.4662 -1.0454
    5CHTO  H119 1918   5.769   2.147   2.872  0.8825 -0.6868  0.5027
    5CHTO   O43 1919   5.722   2.129   3.085  0.2300 -0.0313  0.4358
    5CHTO  H101 1920   5.796   2.080   3.116  0.3685 -0.8124 -1.0767
    5CHTO   C66 1921   5.598   2.270   2.909  0.7077 -0.0711 -0.5696
    5CHTO  H123 1922   5.614   2.318   2.812 -0.2965 -1.1331 -1.2751
    5CHTO   N12 1923   5.500   2.171   2.870  0.2521 -0.4130  0.4352
    5CHTO  H110 1924   5.502   2.080   2.929  1.0246  0.6402  2.0674
    5CHTO  H111 1925   5.493   2.150   2.764  0.7962  2.5988 -0.2338
    5CHTO   C69 1926   5.537   2.372   3.017  0.1510 -0.2232 -0.5750
    5CHTO  H126 1927   5.525   2.316   3.112  0.2436  1.0983  0.2303
    5CHTO   O41 1928   5.639   2.480   3.036 -0.4914 -0.2369 -0.3826
    5CHTO   C64 1929   5.782   2.434   3.072 -0.6011 -0.6127  0.0420
    5CHTO  H121 1930   5.783   2.392   3.175 -0.5858  0.5032  0.5029
    5CHTO   C71 1931   5.876   2.555   3.072  0.3272 -0.5121 -0.3204
    5CHTO   O47 1932   5.877   2.615   2.936 -0.3676 -0.5730  0.4327
    5CHTO  H104 1933   5.934   2.690   2.943  0.2656 -0.8706 -1.4069
    5CHTO   O34 1934   5.405   2.442   2.986  0.1636 -0.0484 -0.2052
    5CHTO   C49 1935   5.256   2.428   2.923 -0.5304  0.3851  0.0002
    5CHTO   H91 1936   5.219   2.331   2.956  0.4092 -0.5569 -1.6435
    5CHTO   C47 1937   5.264   2.436   2.769  0.1599  0.3246 -0.9512
    5CHTO   H89 1938   5.317   2.343   2.739 -1.7824 -0.0760 -3.3205
    5CHTO   O33 1939   5.343   2.542   2.727  0.3001 -0.4945  0.3173
    5CHTO   H70 1940   5.435   2.525   2.731  0.5900  0.5434 -1.5123
    5CHTO   C45 1941   5.110   2.448   2.706  0.5605 -0.0731  0.5606
    5CHTO   H87 1942   5.102   2.550   2.665  1.4757  0.2305  1.1409
    5CHTO    N8 1943   5.088   2.355   2.586  0.3793  0.3570  0.1042
    5CHTO   H75 1944   5.174   2.370   2.523  0.4983 -0.7168  0.0088
    5CHTO   H76 1945   4.998   2.384   2.533 -0.3756  0.9180  1.6546
    5CHTO   C43 1946   4.989   2.441   2.809  0.4117  0.2212 -0.9177
    5CHTO   H85 1947   4.891   2.462   2.765  0.7898  1.7388 -1.0446
    5CHTO   O29 1948   5.018   2.522   2.927 -0.5217  0.0891 -0.2587
    5CHTO   C50 1949   5.151   2.543   2.975 -0.4760 -0.0889  0.0162
    5CHTO   H92 1950   5.192   2.637   2.936 -1.2089  0.2411  0.0296
    5CHTO   C54 1951   5.161   2.543   3.127 -0.2451 -1.2800 -0.2211
    5CHTO   O36 1952   5.095   2.423   3.180  0.2020  0.2479 -0.2282
    5CHTO   H72 1953   5.092   2.425   3.273  1.2787  1.7513 -0.2131
    5CHTO   O27 1954   4.966   2.317   2.877  0.7527 -0.1155 -0.3830
    5CHTO   C37 1955   4.844   2.250   2.918 -0.3986 -0.5515  0.2051
    5CHTO   H79 1956   4.790   2.314   2.989  0.1047 -0.2500  0.3239
    5CHTO   C38 1957   4.752   2.212   2.791  0.2954 -0.9787 -0.5069
    5CHTO   H80 1958   4.813   2.169   2.711 -0.2137 -3.6497  0.4699
    5CHTO   O31 1959   4.695   2.338   2.746  0.1248 -0.3556 -0.7731
    5CHTO   H68 1960   4.680   2.328   2.654 -3.1830 -2.4090 -0.1178
    5CHTO   C39 1961   4.639   2.104   2.821 -0.0808 -0.3417 -0.1968
    5CHTO   H81 1962   4.562   2.140   2.890 -0.3959 -2.2260  0.4834
    5CHTO    N7 1963   4.568   2.058   2.694  0.3556 -0.3817 -0.7066
    5CHTO   H73 1964   4.537   1.954   2.692 -1.7865  0.2249 -0.1988
    5CHTO   H74 1965   4.626   2.096   2.611 -2.7212 -0.6693 -3.0706
    5CHTO   C40 1966   4.702   1.981   2.894 -0.4685 -0.3012  0.1603
    5CHTO   H82 1967   4.769   1.935   2.821  0.3101  3.8892 -1.9831
    5CHTO   O26 1968   4.775   2.032   3.007 -0.1652  0.0363 -0.5712
    5CHTO   C41 1969   4.883   2.120   2.988 -0.2256 -0.5867 -0.0292
    5CHTO   H83 1970   4.961   2.074   2.925  1.0775 -0.9238  1.7756
    5CHTO   C52 1971   4.950   2.147   3.124 -0.0262  0.3287  0.0542
    5CHTO   O35 1972   5.027   2.023   3.170  0.5877 -0.4480  0.1720
    5CHTO   H71 1973   5.027   2.019   3.263 -2.4795 -1.1185  0.1963
    5CHTO   O28 1974   4.597   1.888   2.941 -0.9188 -0.4501  0.1049
    5CHTO   C42 1975   4.547   1.873   3.081 -0.2744 -0.3061  0.2877
    5CHTO   H84 1976   4.477   1.790   3.069 -1.0538  0.7559 -3.0076
    5CHTO   C44 1977   4.466   1.994   3.133 -1.0221 -0.2813  0.3610
    5CHTO   H86 1978   4.524   2.086   3.126 -0.9404 -0.3894 -0.5005
    5CHTO   O32 1979   4.360   2.016   3.044  0.4871  0.7241  0.3195
    5CHTO   H69 1980   4.288   2.051   3.093  0.6659  4.2300 -1.7541
    5CHTO   C48 1981   4.425   1.987   3.286  0.5465  0.2569  0.2978
    5CHTO   H90 1982   4.348   1.911   3.296 -0.0345  0.6224 -1.2064
    5CHTO    N9 1983   4.363   2.120   3.327 -0.6789  0.2351  0.7364
    5CHTO   H77 1984   4.435   2.180   3.381  1.9879 -0.7109 -1.6365
    5CHTO   H78 1985   4.271   2.110   3.383 -1.1200 -3.4189 -0.4907
    5CHTO   C51 1986   4.557   1.946   3.368  0.5501  0.8268 -0.5120
    5CHTO   H93 1987   4.634   2.020   3.346  0.2239  0.9567 -1.2623
    5CHTO   O30 1988   4.586   1.817   3.313  0.8461  0.6718  0.0938
    5CHTO   C46 1989   4.662   1.830   3.187 -0.2036  0.3438  0.4962
    5CHTO   H88 1990   4.740   1.904   3.197  1.0362 -0.9021  0.2386
    5CHTO   C53 1991   4.717   1.690   3.142 -0.7035 -0.2362 -0.1753
    5CHTO   O72 1992   4.855   1.670   3.168 -0.4428 -0.2032  0.2088
    5CHTO  H199 1993   4.899   1.748   3.142 -0.2299 -0.8007 -1.2836
    5CHTO   O22 1994   4.541   1.935   3.513  0.0752 -0.3045  0.0417
    5CHTO   C31 1995   4.668   1.942   3.584  0.0324 -0.7057  0.9907
    5CHTO   H59 1996   4.643   1.948   3.692  2.9325  0.8411  1.6464
    5CHTO   C29 1997   4.765   1.820   3.562 -0.7589  0.7941 -0.8869
    5CHTO   H57 1998   4.800   1.823   3.458 -0.6393  1.6708 -0.8235
    5CHTO   O21 1999   4.683   1.701   3.579  0.1217 -0.2106 -0.2729
    5CHTO   H37 2000   4.683   1.653   3.499  1.8327 -0.4803 -0.1436
    5CHTO   C27 2001   4.892   1.826   3.655 -0.4625  0.3472 -0.3217
    5CHTO   H55 2002   4.862   1.833   3.760 -0.4393  0.8093 -0.3476
    5CHTO    N5 2003   4.975   1.704   3.644  0.3867  0.7458  0.5195
    5CHTO   H43 2004   5.010   1.666   3.550  1.9279  1.9164  0.5980
    5CHTO   H44 2005   5.065   1.715   3.704 -0.5345  2.7761  1.5662
    5CHTO   C25 2006   4.964   1.963   3.625 -0.4357  0.1290  0.1434
    5CHTO   H53 2007   5.003   1.971   3.523 -1.1108  0.6277 -0.0790
    5CHTO   O17 2008   4.868   2.070   3.642 -0.3510 -0.2344 -0.2266
    5CHTO   C32 2009   4.749   2.075   3.559 -0.2767 -0.4380  0.6133
    5CHTO   H60 2010   4.777   2.077   3.454 -0.4847  0.0224  0.5637
    5CHTO   C36 2011   4.658   2.194   3.590 -0.3589 -0.1320 -0.6086
    5CHTO   O25 2012   4.715   2.316   3.556  1.2726 -0.0232  0.2746
    5CHTO   H40 2013   4.648   2.370   3.518  0.6096 -2.3685 -2.0476
    5CHTO   O15 2014   5.096   1.983   3.704 -0.0263 -0.1702 -1.0749
    5CHTO   C19 2015   5.202   2.083   3.721  0.3180 -0.7103 -0.3705
    5CHTO   H47 2016   5.157   2.180   3.748 -1.4620 -1.5182 -0.3576
    5CHTO   C20 2017   5.292   2.044   3.838  0.1385  0.2400  0.2153
    5CHTO   H48 2018   5.313   1.936   3.840  0.8441  0.3723 -0.1255
    5CHTO   O19 2019   5.209   2.047   3.954 -0.3765  0.9531  0.0845
    5CHTO   H35 2020   5.151   1.976   3.973 -0.1314  0.9406  0.7971
    5CHTO   C21 2021   5.422   2.132   3.851 -0.7803  0.1094 -0.3883
    5CHTO   H49 2022   5.395   2.233   3.881  0.3168 -0.1020  1.4019
    5CHTO    N4 2023   5.515   2.084   3.959  0.1298  0.0670  0.5924
    5CHTO   H41 2024   5.455   2.065   4.047 -1.0305  3.6820  0.6561
    5CHTO   H42 2025   5.591   2.156   3.985  1.2180 -1.0549  0.5598
    5CHTO   C22 2026   5.490   2.149   3.717 -0.2055  0.3762  0.9024
    5CHTO   H50 2027   5.536   2.053   3.692 -1.2560  0.0816  0.0834
    5CHTO   O14 2028   5.394   2.206   3.625  0.2791  0.8270 -0.3289
    5CHTO   C23 2029   5.285   2.112   3.593 -0.6398  0.1593 -0.7013
    5CHTO   H51 2030   5.323   2.019   3.547 -1.3200 -0.2867 -0.3682
    5CHTO   C34 2031   5.208   2.177   3.478 -0.2687 -0.3887  0.0391
    5CHTO   O23 2032   5.280   2.208   3.351  0.1873 -0.0296 -0.0549
    5CHTO   H38 2033   5.225   2.243   3.283 -0.0456 -0.7993 -0.2659
    5CHTO   O16 2034   5.576   2.263   3.718 -0.0769  0.2010 -0.3109
    5CHTO   C24 2035   5.732   2.233   3.639 -0.1560  0.2345  0.2726
    5CHTO   H52 2036   5.720   2.156   3.563  0.5463 -0.7197  1.1096
    5CHTO   C26 2037   5.837   2.192   3.745 -0.3669  0.1364 -0.0054
    5CHTO   H54 2038   5.833   2.263   3.830  2.3499 -0.1726  0.4363
    5CHTO   O20 2039   5.794   2.063   3.792 -0.1182 -0.0592  0.2492
    5CHTO   H36 2040   5.787   1.998   3.724 -2.1653 -0.5100  0.8687
    5CHTO   C30 2041   5.974   2.176   3.681 -0.0013 -0.5414 -0.0929
    5CHTO   H58 2042   5.978   2.090   3.612 -1.1958 -0.0323 -0.8121
    5CHTO    N6 2043   6.080   2.145   3.782 -0.3135  0.1380  0.5197
    5CHTO   H45 2044   6.039   2.144   3.882 -0.6414 -1.8614  0.3793
    5CHTO   H46 2045   6.134   2.053   3.766  0.8419  0.6979  1.1495
    5CHTO   C33 2046   6.010   2.309   3.604 -0.3030  0.1536 -0.0999
    5CHTO   H61 2047   6.020   2.390   3.677 -1.0328  1.2313 -1.1735
    5CHTO   O18 2048   5.910   2.343   3.513  0.0853  0.0346  0.1490
    5CHTO   C28 2049   5.774   2.357   3.570 -0.5839  0.2182 -0.5800
    5CHTO   H56 2050   5.767   2.438   3.642 -1.8829 -0.6962  0.3368
    5CHTO   C35 2051   5.681   2.387   3.454 -0.0653  0.2817  0.6691
    5CHTO   O24 2052   5.670   2.285   3.351  0.5149  0.0380  0.1847
    5CHTO   H39 2053   5.637   2.209   3.394 -0.1190 -0.3838 -1.0244
    5CHTO    O9 2054   6.142   2.295   3.542  0.3154 -0.2148  0.0855
    5CHTO   C13 2055   6.137   2.219   3.417 -0.7592  0.1764 -0.6731
    5CHTO   H26 2056   6.030   2.208   3.389 -0.9907  0.6952 -0.0045
    5CHTO   C11 2057   6.215   2.077   3.449  0.3644  0.3892  0.3099
    5CHTO   H24 2058   6.148   2.006   3.500  0.6905  1.0607  1.6905
    5CHTO    O8 2059   6.332   2.105   3.529  0.3504  0.0046 -0.4689
    5CHTO    H3 2060   6.412   2.094   3.480  1.7229  0.2272  1.6645
    5CHTO    C9 2061   6.247   2.002   3.315 -0.6778 -0.0354 -0.1977
    5CHTO   H22 2062   6.151   1.973   3.270  0.4091 -0.3904 -2.3403
    5CHTO    N2 2063   6.309   1.866   3.342  0.5312 -0.2932  0.0911
    5CHTO   H10 2064   6.333   1.815   3.250 -1.4247 -1.6877  0.3227
    5CHTO   H11 2065   6.402   1.882   3.395 -0.0467 -0.8864  1.2901
    5CHTO    C7 2066   6.332   2.099   3.222 -0.6150  0.7879 -0.6265
    5CHTO   H20 2067   6.285   2.088   3.121 -0.9881  2.1883 -0.6093
    5CHTO    O4 2068   6.328   2.234   3.265 -0.3228 -0.0468 -0.5739
    5CHTO   C14 2069   6.199   2.291   3.293  0.9093 -1.4363  0.2319
    5CHTO   H27 2070   6.139   2.274   3.201  0.9836 -0.2427 -0.0480
    5CHTO   C18 2071   6.215   2.441   3.306 -0.0990  0.3020 -0.2263
    5CHTO   O13 2072   6.086   2.500   3.316 -0.7231 -0.8698  0.2090
    5CHTO    H7 2073   6.055   2.514   3.403 -3.4784  0.9230 -0.9739
    5CHTO    O2 2074   6.500   2.063   3.206  0.0302  0.2836  0.5637
    5CHTO    C1 2075   6.589   2.151   3.140  0.0660 -0.3936  0.3752
    5CHTO   H14 2076   6.547   2.254   3.127 -1.1296 -1.3098 -3.7934
    5CHTO    C2 2077   6.633   2.095   3.000 -0.3425 -0.1601  0.2676
    5CHTO   H15 2078   6.653   1.987   3.001  1.2746  0.1390  0.6815
    5CHTO    O6 2079   6.527   2.122   2.901 -0.0642 -0.5588 -0.7963
    5CHTO    H1 2080   6.449   2.076   2.927  0.9885 -2.2356 -0.4850
    5CHTO    C3 2081   6.770   2.166   2.948  0.6016  0.5438  0.0049
    5CHTO   H16 2082   6.741   2.269   2.920  1.9561  1.0888  0.5579
    5CHTO    N1 2083   6.825   2.102   2.826 -0.4155 -0.9167  0.5801
    5CHTO    H8 2084   6.778   2.019   2.777  0.0176 -0.7400 -0.1411
    5CHTO    H9 2085   6.931   2.084   2.837 -0.0543 -0.7809 -2.3725
    5CHTO    C4 2086   6.877   2.181   3.061  0.0175 -0.6446  0.3527
    5CHTO   H17 2087   6.924   2.084   3.076 -0.0695 -0.5656  1.1834
    5CHTO    O1 2088   6.807   2.246   3.176 -0.8097 -0.2754 -0.1479
    5CHTO    C5 2089   6.713   2.163   3.238 -0.2809  1.0819  0.0818
    5CHTO   H18 2090   6.762   2.067   3.256  0.6602  2.0443  3.0316
    5CHTO   C16 2091   6.686   2.223   3.373  0.6548 -0.2208 -0.6637
    5CHTO   O11 2092   6.628   2.140   3.471  0.1281  0.4319 -0.6508
    5CHTO    H5 2093   6.643   2.178   3.555  0.0093  3.4157 -1.9442
    5CHTO    O3 2094   6.982   2.276   3.032 -0.3201 -0.5196  0.1344
    5CHTO    C6 2095   7.096   2.253   3.116 -0.3626  0.3702 -0.0077
    5CHTO   H19 2096   7.071   2.188   3.199  1.7981 -0.1816  0.2566
    5CHTO    C8 2097   7.219   2.195   3.029 -0.6930 -0.1913  0.1656
    5CHTO   H21 2098   7.249   2.270   2.956  0.1124 -0.2886  0.3873
    5CHTO    O7 2099   7.167   2.074   2.961 -0.1418  0.6601  0.0091
    5CHTO    H2 2100   7.230   2.041   2.900 -0.0748 -2.3553  1.5691
    5CHTO   C12 2101   7.330   2.176   3.132 -0.2230 -0.6987  0.1801
    5CHTO   H25 2102   7.299   2.116   3.220 -0.1945  0.2748  0.8619
    5CHTO    N3 2103   7.451   2.098   3.074  0.1372 -0.3668  0.1270
    5CHTO   H12 2104   7.462   2.125   2.970 -1.7850 -0.8819 -0.2180
    5CHTO   H13 2105   7.543   2.135   3.118 -0.9054  3.7339 -0.8791
    5CHTO   C15 2106   7.368   2.312   3.183 -0.2722 -0.1311 -0.0962
    5CHTO   H28 2107   7.389   2.374   3.096  2.3543  1.8392  1.8590
    5CHTO   O10 2108   7.486   2.321   3.287 -0.5705 -0.3676  0.2218
    5CHTO    H4 2109   7.568   2.316   3.244 -0.9063 -1.1397 -0.3379
    5CHTO    O5 2110   7.260   2.366   3.263 -0.1774  0.3687 -0.2095
    5CHTO   C10 2111   7.146   2.390   3.178  0.5427 -0.1170  0.6791
    5CHTO   H23 2112   7.170   2.465   3.103 -2.9622  0.4950  0.1016
    5CHTO   C17 2113   7.043   2.461   3.264  0.0370  0.3535  0.1387
    5CHTO   O12 2114   6.926   2.502   3.190 -0.0238  0.2388  0.3645
    5CHTO    H6 2115   6.954   2.566   3.127 -1.2574  0.1471 -0.3017
    6CHTO  H203 2116   6.642   3.276   0.342 -0.2305 -2.8494  2.6687
    6CHTO   O82 2117   6.625   3.337   0.411 -0.7237  0.1560  0.0042
    6CHTO  C123 2118   6.515   3.421   0.371 -0.2511 -0.5663 -0.3675
    6CHTO  H227 2119   6.541   3.475   0.279 -1.2825  2.2170  0.9105
    6CHTO   O77 2120   6.409   3.329   0.343  0.1284 -1.0399  0.0157
    6CHTO  C118 2121   6.298   3.400   0.295 -0.4849 -0.1555  0.3559
    6CHTO  H222 2122   6.332   3.455   0.207  1.4934 -1.2289  0.4207
    6CHTO  C125 2123   6.205   3.284   0.239 -0.1122  0.1179 -0.6201
    6CHTO   O84 2124   6.248   3.220   0.119  0.1924  0.0579 -0.0591
    6CHTO  H205 2125   6.335   3.249   0.098 -0.0484  1.1273  0.4075
    6CHTO  C114 2126   6.232   3.493   0.395 -0.4211 -0.0838 -0.0719
    6CHTO  H218 2127   6.219   3.447   0.493  1.9475 -1.9840 -0.6158
    6CHTO  C116 2128   6.340   3.594   0.432  0.1359 -0.9396 -0.1546
    6CHTO  H220 2129   6.363   3.654   0.341  0.8574  0.0974  0.7052
    6CHTO   O79 2130   6.290   3.682   0.534 -0.5423 -0.3395  0.0370
    6CHTO  H201 2131   6.219   3.729   0.495  1.5876  2.1015 -1.0378
    6CHTO  C120 2132   6.472   3.525   0.480 -0.1621  0.3290 -0.0030
    6CHTO  H224 2133   6.448   3.469   0.574  2.1481  1.6046  1.3813
    6CHTO   N21 2134   6.574   3.622   0.516  0.4303  0.7061  0.3609
    6CHTO  H211 2135   6.544   3.724   0.538 -1.7014  0.3081 -0.6191
    6CHTO  H212 2136   6.652   3.623   0.441  0.6463 -1.3838  0.5248
    6CHTO   O75 2137   6.111   3.543   0.328 -0.0771  0.4712 -0.2493
    6CHTO  C112 2138   6.005   3.612   0.422  0.3840  0.1520 -0.6425
    6CHTO  H216 2139   6.050   3.638   0.519 -0.6884  2.4137 -0.7122
    6CHTO   O73 2140   5.899   3.517   0.439 -0.1581 -0.3738  0.5553
    6CHTO  C113 2141   5.782   3.568   0.512  0.0857 -0.3738 -0.4488
    6CHTO  H217 2142   5.818   3.607   0.610 -1.4072 -3.2973  1.3426
    6CHTO  C124 2143   5.682   3.458   0.540 -0.2678 -0.8708 -0.1109
    6CHTO   O83 2144   5.725   3.388   0.656  0.0587 -0.6151  0.1099
    6CHTO  H204 2145   5.649   3.345   0.691  1.0165 -1.2678  1.4579
    6CHTO  C109 2146   5.713   3.682   0.439 -0.2879 -0.3043  0.0151
    6CHTO  H213 2147   5.690   3.640   0.340 -1.1854 -0.2096  0.1835
    6CHTO  C110 2148   5.823   3.788   0.430 -0.2542  0.7218  0.1819
    6CHTO  H214 2149   5.859   3.814   0.530  0.7504  0.1583 -0.0191
    6CHTO   O78 2150   5.766   3.894   0.351 -0.1167  0.0858 -0.1527
    6CHTO  H200 2151   5.738   3.961   0.411 -2.3264  0.6308 -1.7614
    6CHTO  C111 2152   5.948   3.740   0.350 -0.6603  0.1203  0.6287
    6CHTO  H215 2153   5.915   3.712   0.249 -0.8751 -1.2945  1.0706
    6CHTO   N19 2154   6.058   3.838   0.334 -0.1221  0.3430  0.1530
    6CHTO  H207 2155   6.100   3.869   0.428 -0.5752  0.9564  0.1552
    6CHTO  H208 2156   6.116   3.801   0.251  0.2601 -1.4129  1.1745
    6CHTO   O74 2157   5.594   3.728   0.498 -0.1767  0.3379  0.3334
    6CHTO  C115 2158   5.619   3.777   0.658 -0.8670 -0.5952  0.0427
    6CHTO  H219 2159   5.696   3.718   0.709  2.0770  1.6906 -1.6507
    6CHTO   O76 2160   5.679   3.912   0.665 -0.3332  0.4520 -0.4842
    6CHTO  C122 2161   5.582   4.018   0.644  0.3591  0.3952  0.0892
    6CHTO  H226 2162   5.546   4.001   0.543  0.0193  0.6700  0.1614
    6CHTO  C126 2163   5.661   4.158   0.638  0.6185  0.2579  0.5017
    6CHTO   O85 2164   5.583   4.285   0.640  0.0761 -0.0248  0.4990
    6CHTO  H206 2165   5.536   4.289   0.559  0.1223  0.2859  0.4897
    6CHTO  C121 2166   5.469   4.011   0.758  0.4446 -0.4539  0.9799
    6CHTO  H225 2167   5.510   4.079   0.837 -1.3089  0.0431  1.4857
    6CHTO   O81 2168   5.339   4.052   0.707 -0.5049 -0.1483  0.1047
    6CHTO  H202 2169   5.336   4.137   0.668 -0.5984 -0.7706 -1.2777
    6CHTO  C119 2170   5.460   3.867   0.826 -0.2297  0.3474  0.0250
    6CHTO  H223 2171   5.550   3.856   0.888  0.0625  1.2217 -0.2279
    6CHTO  C117 2172   5.477   3.751   0.729 -0.3682 -0.7601 -0.0895
    6CHTO  H221 2173   5.405   3.749   0.647 -0.7759 -1.6319  0.2875
    6CHTO   N20 2174   5.466   3.618   0.790 -0.8099  0.1287  0.0503
    6CHTO  H209 2175   5.564   3.598   0.830 -1.0930 -1.3684  0.0238
    6CHTO  H210 2176   5.421   3.546   0.723  0.7635 -0.3102 -0.5417
    6CHTO   O80 2177   5.343   3.868   0.938 -0.7695 -0.2932 -0.5148
    6CHTO  C103 2178   5.371   3.851   1.085  0.0050 -0.3123  1.0700
    6CHTO  H190 2179   5.456   3.789   1.112  2.6750  3.8358  2.6009
    6CHTO  C101 2180   5.399   3.984   1.159  0.5544  0.3533 -0.0196
    6CHTO  H188 2181   5.320   4.056   1.137 -1.1674 -1.2638  0.7250
    6CHTO   O68 2182   5.534   4.041   1.122  0.0215 -0.1842 -0.2378
    6CHTO  H168 2183   5.545   4.045   1.029 -0.4825 -0.7262 -0.3267
    6CHTO   C99 2184   5.396   3.955   1.317  0.1658 -0.1302 -0.1267
    6CHTO  H186 2185   5.477   3.883   1.341 -0.2901 -0.9179 -0.9231
    6CHTO   N17 2186   5.432   4.074   1.402  0.1017  0.4065 -0.0857
    6CHTO  H174 2187   5.425   4.051   1.507  0.4850  1.0161  0.0819
    6CHTO  H175 2188   5.371   4.162   1.384 -1.5764 -0.6311  0.4518
    6CHTO   C97 2189   5.260   3.884   1.357  0.4188  0.1858 -0.3368
    6CHTO  H184 2190   5.173   3.951   1.361  0.0593 -0.3336  0.7323
    6CHTO   O64 2191   5.235   3.769   1.277  0.1744 -0.4263 -0.2288
    6CHTO  C104 2192   5.240   3.781   1.137  0.7329  0.5886  0.3642
    6CHTO  H191 2193   5.154   3.836   1.098  1.4446  1.0653 -0.5395
    6CHTO  C108 2194   5.216   3.634   1.091  0.4627 -0.2411  0.1685
    6CHTO   O71 2195   5.327   3.545   1.117  0.2599 -0.3724 -0.0536
    6CHTO  H171 2196   5.403   3.599   1.115  0.7991 -0.9949  2.0822
    6CHTO   O62 2197   5.282   3.827   1.488 -0.2805  0.3422 -0.1789
    6CHTO   C91 2198   5.203   3.881   1.596 -0.4002 -0.1130 -0.0007
    6CHTO  H178 2199   5.225   3.988   1.586  1.2961 -0.4376  0.0717
    6CHTO   C92 2200   5.268   3.832   1.732  0.0480 -0.3509 -0.3380
    6CHTO  H179 2201   5.377   3.844   1.744 -0.0896 -0.5705  1.2332
    6CHTO   O66 2202   5.214   3.900   1.843 -0.3793 -0.1424 -0.3219
    6CHTO  H166 2203   5.186   3.989   1.829  0.3993  0.2852  0.7820
    6CHTO   C93 2204   5.245   3.670   1.761  0.3035 -0.0268 -0.6273
    6CHTO  H180 2205   5.238   3.665   1.871  2.2121 -0.5824 -0.5168
    6CHTO   N16 2206   5.366   3.591   1.725  0.1348  0.2292 -0.5325
    6CHTO  H172 2207   5.447   3.597   1.797  1.9036 -0.4628 -2.4209
    6CHTO  H173 2208   5.407   3.627   1.632 -0.9919 -0.9570 -1.5020
    6CHTO   C94 2209   5.109   3.628   1.694 -0.4520  0.2198 -0.2854
    6CHTO  H181 2210   5.124   3.606   1.588 -0.6913  1.1298 -0.5128
    6CHTO   O61 2211   5.024   3.740   1.700 -0.7812  0.4248 -0.2208
    6CHTO   C95 2212   5.050   3.848   1.599 -0.3591 -0.7336  0.5335
    6CHTO  H182 2213   5.025   3.810   1.500 -1.3276 -2.5253  1.4393
    6CHTO  C106 2214   4.959   3.973   1.627  0.2752  0.4473  0.0469
    6CHTO   O69 2215   4.818   3.946   1.594 -0.0047  0.1104 -0.0385
    6CHTO  H169 2216   4.808   3.909   1.508 -1.3771  1.5726 -0.5421
    6CHTO   O63 2217   5.030   3.485   1.750 -0.1100  0.7241 -0.2603
    6CHTO   C96 2218   5.022   3.365   1.650 -0.4320 -0.4369 -0.2910
    6CHTO  H183 2219   5.116   3.368   1.594  0.3968  0.8200  1.1208
    6CHTO   C98 2220   4.896   3.383   1.551  0.1653  0.1913  0.1101
    6CHTO  H185 2221   4.811   3.392   1.621  0.3434  3.1758  0.0212
    6CHTO   O67 2222   4.898   3.507   1.473  0.5648  0.4829 -0.6486
    6CHTO  H167 2223   4.976   3.511   1.420 -0.4826 -1.3140 -2.3776
    6CHTO  C102 2224   4.889   3.250   1.446 -0.5872 -0.2081 -0.1953
    6CHTO  H189 2225   4.965   3.267   1.367  0.3427 -2.4804  0.1842
    6CHTO   N18 2226   4.761   3.240   1.375 -0.6689  0.2615 -0.1544
    6CHTO  H176 2227   4.688   3.199   1.443  1.0546  0.5375  1.9030
    6CHTO  H177 2228   4.754   3.185   1.282  1.4601 -1.1522  0.4856
    6CHTO  C105 2229   4.940   3.123   1.510  0.6226  0.3904 -0.6242
    6CHTO  H192 2230   4.880   3.038   1.475  1.3387 -0.0152 -0.8840
    6CHTO   O65 2231   4.924   3.137   1.654 -0.3190 -0.1895 -0.2076
    6CHTO  C100 2232   5.001   3.231   1.727 -0.3341  0.5579 -0.0656
    6CHTO  H187 2233   4.935   3.247   1.814 -2.2710  1.4522 -1.6528
    6CHTO  C107 2234   5.138   3.172   1.775  0.6085  0.0153  0.3346
    6CHTO   O70 2235   5.107   3.065   1.868 -0.5744  0.1786 -0.3012
    6CHTO  H170 2236   5.045   3.088   1.934 -0.3596 -0.5619  0.1709
    6CHTO   O57 2237   5.091   3.118   1.469 -0.5248  0.3345  0.1479
    6CHTO   C85 2238   5.132   2.992   1.409 -0.5718  0.1945  0.4045
    6CHTO  H157 2239   5.042   2.947   1.362  0.2656  0.0814 -1.1302
    6CHTO   C83 2240   5.163   2.896   1.521  0.0029  0.6641  0.0385
    6CHTO  H155 2241   5.074   2.879   1.582 -1.4305 -1.6321 -2.5741
    6CHTO   O56 2242   5.266   2.941   1.612 -0.1932  0.3731 -0.4184
    6CHTO  H135 2243   5.351   2.910   1.590  0.2121  0.2573  1.2033
    6CHTO   C81 2244   5.209   2.761   1.454 -0.0921  0.2838 -0.5450
    6CHTO  H153 2245   5.124   2.717   1.402 -0.5342 -0.1674  0.5352
    6CHTO   N14 2246   5.237   2.660   1.559 -0.5804 -0.7338 -0.0331
    6CHTO  H141 2247   5.296   2.579   1.523  2.5546  1.0272  0.9200
    6CHTO  H142 2248   5.283   2.705   1.644  0.6210  0.0252 -1.0667
    6CHTO   C79 2249   5.328   2.775   1.346  0.3963 -0.5562  0.8370
    6CHTO  H151 2250   5.337   2.679   1.295  0.0938 -1.1325  1.8520
    6CHTO   O52 2251   5.283   2.872   1.250  0.2795 -0.1220  0.0092
    6CHTO   C86 2252   5.253   3.002   1.307 -0.0805 -0.3268 -0.0131
    6CHTO  H158 2253   5.351   3.036   1.348  0.5088  0.5613 -2.0831
    6CHTO   C90 2254   5.219   3.099   1.194 -0.2441 -0.0330  0.2813
    6CHTO   O60 2255   5.191   3.235   1.240  0.3071  0.1458  0.0926
    6CHTO  H138 2256   5.100   3.230   1.264  0.6253  0.2138  1.3553
    6CHTO   O50 2257   5.449   2.819   1.403 -0.0287  0.4040  0.1606
    6CHTO   C73 2258   5.594   2.815   1.388  0.4599  0.2351  0.0995
    6CHTO  H145 2259   5.635   2.713   1.391 -0.6410 -0.4432 -4.6493
    6CHTO   C74 2260   5.652   2.900   1.507  0.5872  0.6502 -0.3003
    6CHTO  H146 2261   5.619   2.859   1.603  1.2653  0.6393 -0.0670
    6CHTO   O54 2262   5.795   2.888   1.512 -0.1158  0.2090 -0.4824
    6CHTO  H133 2263   5.836   2.890   1.596 -0.1488 -1.8666 -0.3897
    6CHTO   C75 2264   5.608   3.048   1.493 -0.8730 -0.0419 -0.2925
    6CHTO  H147 2265   5.499   3.058   1.507 -0.8045  1.4157 -0.7306
    6CHTO   N13 2266   5.655   3.140   1.599 -0.0282  0.2382  0.2394
    6CHTO  H139 2267   5.715   3.090   1.673  0.0397 -2.6491 -1.6977
    6CHTO  H140 2268   5.570   3.184   1.649  0.7333 -0.6053  2.3128
    6CHTO   C76 2269   5.637   3.107   1.355 -0.3073  0.1777 -0.8034
    6CHTO  H148 2270   5.745   3.116   1.344 -0.2655 -0.5742 -1.0608
    6CHTO   O49 2271   5.591   3.019   1.249  0.0782 -0.5396  0.1544
    6CHTO   C77 2272   5.638   2.879   1.252 -0.7271  0.3120  0.3470
    6CHTO  H149 2273   5.746   2.878   1.247 -0.8230 -0.6725 -2.3942
    6CHTO   C88 2274   5.587   2.793   1.131  0.8620 -0.1856  0.4368
    6CHTO   O58 2275   5.657   2.818   1.006  0.2301 -0.0578 -0.1142
    6CHTO  H136 2276   5.669   2.733   0.967  0.2509  0.1295 -0.5115
    6CHTO   O51 2277   5.551   3.259   1.310  0.4193 -0.3815  0.1907
    6CHTO   C78 2278   5.656   3.381   1.291 -0.4944 -0.3593  0.7133
    6CHTO  H150 2279   5.757   3.337   1.306  0.1783  0.6720 -0.6666
    6CHTO   C80 2280   5.630   3.493   1.390 -0.0709 -0.1566 -0.3013
    6CHTO  H152 2281   5.523   3.521   1.380  0.5076  2.4361  0.3673
    6CHTO   O55 2282   5.652   3.437   1.525 -0.3374  1.2380 -0.3427
    6CHTO  H134 2283   5.731   3.467   1.566  1.5246 -1.4086 -1.9062
    6CHTO   C84 2284   5.721   3.620   1.356 -0.3445 -0.0457 -0.4588
    6CHTO  H156 2285   5.826   3.592   1.366 -0.7371 -1.1216  0.7540
    6CHTO   N15 2286   5.689   3.729   1.453  0.0404 -0.7271 -0.2876
    6CHTO  H143 2287   5.709   3.698   1.553 -0.8507 -0.4190 -0.0070
    6CHTO  H144 2288   5.584   3.747   1.446  0.1211 -0.0151  0.2102
    6CHTO   C87 2289   5.690   3.666   1.211 -0.2431 -0.4818  0.1670
    6CHTO  H159 2290   5.582   3.677   1.221  0.0029 -0.3779  2.8198
    6CHTO   O53 2291   5.726   3.550   1.119  0.1354  0.2970 -1.1603
    6CHTO   C82 2292   5.652   3.430   1.141  0.6662  0.1827 -0.2003
    6CHTO  H154 2293   5.548   3.432   1.108  0.5009 -0.9183  0.2501
    6CHTO   C89 2294   5.719   3.326   1.053  0.1394 -0.3143  0.2193
    6CHTO   O59 2295   5.639   3.213   1.017 -1.0938  0.3412 -0.0454
    6CHTO  H137 2296   5.548   3.233   1.005 -0.4501  2.9835 -0.8754
    6CHTO   O45 2297   5.784   3.806   1.168 -0.3016  0.5911 -0.1265
    6CHTO   C67 2298   5.918   3.804   1.131 -0.0343 -0.5610  0.4308
    6CHTO  H124 2299   5.976   3.723   1.175 -0.1783 -2.6611 -3.0812
    6CHTO   C65 2300   5.922   3.785   0.970  0.3042 -0.1690 -0.1654
    6CHTO  H122 2301   5.816   3.782   0.944 -0.3552  0.5931  2.3157
    6CHTO   O44 2302   5.971   3.656   0.940 -0.4548 -0.2594 -0.0893
    6CHTO  H102 2303   5.913   3.591   0.975  0.4203 -0.6681  0.6190
    6CHTO   C63 2304   5.995   3.912   0.902 -0.3375 -0.4219 -0.1812
    6CHTO  H120 2305   5.935   4.000   0.920  0.3938 -0.2966  1.8509
    6CHTO   N11 2306   6.011   3.897   0.751  0.4247 -0.2723 -0.5825
    6CHTO  H108 2307   6.044   3.994   0.721 -0.1372  0.6796  1.7601
    6CHTO  H109 2308   6.073   3.824   0.704  1.9708  0.9651 -0.5069
    6CHTO   C61 2309   6.133   3.937   0.962 -0.6288 -0.1538 -0.3481
    6CHTO  H118 2310   6.184   4.025   0.920 -0.9173  0.8627  1.3713
    6CHTO   O40 2311   6.121   3.967   1.107  0.0148  0.0079 -0.1674
    6CHTO   C68 2312   5.985   3.943   1.176 -0.1168 -0.1633 -0.6290
    6CHTO  H125 2313   5.924   4.034   1.156  1.1418  1.1934  1.4811
    6CHTO   C72 2314   6.009   3.946   1.329 -0.3382  0.4357 -0.1706
    6CHTO   O48 2315   5.888   3.988   1.402  0.0286  0.4178  0.1229
    6CHTO  H105 2316   5.814   3.933   1.384  1.0533 -1.4735  1.4815
    6CHTO   O38 2317   6.222   3.825   0.950 -0.0763  0.0064  0.1009
    6CHTO   C55 2318   6.364   3.849   0.956  0.9111  0.0299  0.0790
    6CHTO  H112 2319   6.398   3.923   1.029 -1.3168  2.2754 -1.0550
    6CHTO   C56 2320   6.429   3.876   0.816 -0.1305  0.0478 -1.0340
    6CHTO  H113 2321   6.409   3.788   0.754 -1.4996 -0.3725 -0.0238
    6CHTO   O42 2322   6.364   3.994   0.757  0.1942  0.2725  0.2163
    6CHTO  H100 2323   6.271   3.989   0.758  0.2237 -0.3305  1.7381
    6CHTO   C57 2324   6.593   3.897   0.825  0.2493 -0.5172 -0.7816
    6CHTO  H114 2325   6.602   3.978   0.897  1.5675 -0.1579 -1.3507
    6CHTO   N10 2326   6.671   3.935   0.705 -1.1655  0.2273 -0.0211
    6CHTO  H106 2327   6.675   4.043   0.700  2.5208  0.2246  0.7373
    6CHTO  H107 2328   6.640   3.897   0.609  2.2229  0.4995 -1.2932
    6CHTO   C58 2329   6.646   3.767   0.888  0.0797 -0.2357  0.4184
    6CHTO  H115 2330   6.634   3.683   0.816 -1.1915 -0.3197  0.7177
    6CHTO   O37 2331   6.573   3.737   1.007  0.1794  0.1108 -0.5294
    6CHTO   C59 2332   6.432   3.716   0.993  0.1427  0.1948 -0.3951
    6CHTO  H116 2333   6.406   3.637   0.922  0.3743  0.2057 -0.4932
    6CHTO   C70 2334   6.372   3.680   1.125  0.2622 -0.3353 -0.0995
    6CHTO   O46 2335   6.411   3.546   1.166  0.6287  0.5093  0.2803
    6CHTO  H103 2336   6.343   3.506   1.216 -0.6243  3.1313  0.7200
    6CHTO   O39 2337   6.791   3.785   0.935  0.3700  0.1551 -0.3154
    6CHTO   C60 2338   6.874   3.672   0.936  0.5511  0.0004  0.0024
    6CHTO  H117 2339   6.811   3.585   0.953 -0.2048  0.3790 -0.8302
    6CHTO   C62 2340   6.939   3.653   0.794  0.4516 -0.2730  0.2109
    6CHTO  H119 2341   6.860   3.647   0.716  0.1745  1.1717  0.3741
    6CHTO   O43 2342   7.033   3.758   0.766 -0.6038  0.9442  0.2143
    6CHTO  H101 2343   7.106   3.763   0.825  1.1524  4.3262 -2.1292
    6CHTO   C66 2344   7.022   3.515   0.791 -0.6130 -0.1055 -0.6652
    6CHTO  H123 2345   6.954   3.442   0.837  0.7378 -0.6001  0.5756
    6CHTO   N12 2346   7.064   3.474   0.655  0.3004  0.8157 -0.0868
    6CHTO  H110 2347   7.073   3.367   0.644  1.4215  1.1404 -2.6902
    6CHTO  H111 2348   7.152   3.528   0.621  0.2479  0.6626 -0.4678
    6CHTO   C69 2349   7.142   3.524   0.889 -0.0941  0.7928  0.5369
    6CHTO  H126 2350   7.208   3.604   0.851  0.5773 -0.1716 -0.3619
    6CHTO   O41 2351   7.102   3.570   1.025  0.0557  0.5168 -0.3307
    6CHTO   C64 2352   6.977   3.683   1.041 -0.4336  0.0043 -0.1204
    6CHTO  H121 2353   7.023   3.784   1.032 -0.6952  0.2371  1.0114
    6CHTO   C71 2354   6.909   3.656   1.173 -0.4975  0.2392  0.0397
    6CHTO   O47 2355   6.967   3.731   1.277 -0.2148 -0.7647  0.1813
    6CHTO  H104 2356   6.902   3.793   1.305 -0.9152 -1.9125  1.1966
    6CHTO   O34 2357   7.206   3.377   0.908  0.1984 -0.3280 -0.2337
    6CHTO   C49 2358   7.293   3.281   0.877 -0.3793 -0.2023  0.5155
    6CHTO   H91 2359   7.244   3.215   0.805  1.7498 -0.9966 -0.2376
    6CHTO   C47 2360   7.343   3.197   0.993  0.7953  0.4663 -0.0234
    6CHTO   H89 2361   7.391   3.104   0.955 -1.6148 -1.1810  0.8059
    6CHTO   O33 2362   7.234   3.148   1.073  0.2450  0.4018  0.1872
    6CHTO   H70 2363   7.199   3.223   1.117 -0.2532  1.0355 -1.2477
    6CHTO   C45 2364   7.451   3.272   1.085 -0.3555  0.3483  0.5399
    6CHTO   H87 2365   7.419   3.292   1.188 -1.4690  0.1327  0.2534
    6CHTO    N8 2366   7.580   3.192   1.087 -0.1870 -0.2527 -0.2899
    6CHTO   H75 2367   7.582   3.112   1.014 -1.2651 -0.7970  0.2662
    6CHTO   H76 2368   7.593   3.154   1.187 -3.5890  0.8712  0.6655
    6CHTO   C43 2369   7.479   3.422   1.036 -0.2334 -0.0457  0.2269
    6CHTO   H85 2370   7.391   3.481   1.063  0.4682  1.2763 -0.3212
    6CHTO   O29 2371   7.500   3.418   0.893  0.0245  0.3162 -0.3288
    6CHTO   C50 2372   7.412   3.345   0.808  0.0777 -0.7467  0.2189
    6CHTO   H92 2373   7.369   3.408   0.728 -0.2319 -2.5537 -1.0733
    6CHTO   C54 2374   7.497   3.235   0.732  0.2262  0.4991  0.3234
    6CHTO   O36 2375   7.607   3.298   0.669 -0.1584 -0.0351  0.0781
    6CHTO   H72 2376   7.636   3.373   0.717  1.2852 -0.6634  0.2225
    6CHTO   O27 2377   7.584   3.502   1.093  0.1646  0.2830 -0.2235
    6CHTO   C37 2378   7.622   3.638   1.067  0.2755 -0.4115 -0.4436
    6CHTO   H79 2379   7.639   3.657   0.960 -0.7159 -1.1169 -0.7391
    6CHTO   C38 2380   7.515   3.741   1.112  0.1393 -0.4791 -0.0836
    6CHTO   H80 2381   7.484   3.723   1.216 -1.3606  0.6893 -0.3040
    6CHTO   O31 2382   7.400   3.714   1.029 -0.1508 -0.1198  0.0310
    6CHTO   H68 2383   7.405   3.756   0.945 -1.1168  1.4640  0.7421
    6CHTO   C39 2384   7.566   3.888   1.106 -0.4573 -0.7242 -0.2764
    6CHTO   H81 2385   7.599   3.916   1.006 -2.1349  1.3915 -0.2868
    6CHTO    N7 2386   7.466   3.990   1.151  0.6341 -0.3481  0.0615
    6CHTO   H73 2387   7.362   3.962   1.161  0.3963  0.1959 -0.8013
    6CHTO   H74 2388   7.497   4.052   1.233 -1.3834 -0.8285  1.2060
    6CHTO   C40 2389   7.699   3.890   1.187 -0.2206 -0.0918 -0.3347
    6CHTO   H82 2390   7.682   3.867   1.293 -0.4082 -0.7718 -0.5050
    6CHTO   O26 2391   7.790   3.802   1.129 -0.2962 -0.1964  0.4907
    6CHTO   C41 2392   7.759   3.661   1.141 -0.7833 -0.0395  1.0380
    6CHTO   H83 2393   7.753   3.625   1.245 -2.1403  1.2031  1.4135
    6CHTO   C52 2394   7.875   3.579   1.073  0.0491  0.4300  0.0009
    6CHTO   O35 2395   7.876   3.422   1.088  0.0915 -0.0734  0.0904
    6CHTO   H71 2396   7.829   3.407   1.168  1.0940 -0.4116  0.6263
    6CHTO   O28 2397   7.777   4.013   1.173  0.2568  0.3803 -0.1042
    6CHTO   C42 2398   7.850   4.074   1.292  0.0094 -0.2542 -0.2580
    6CHTO   H84 2399   7.932   4.124   1.240  1.6641 -1.7172  0.8980
    6CHTO   C44 2400   7.915   3.985   1.403  0.2431 -0.5301  0.0227
    6CHTO   H86 2401   7.840   3.923   1.451  0.1384  0.8511  1.6883
    6CHTO   O32 2402   8.004   3.899   1.330 -0.8322 -0.1104  0.6350
    6CHTO   H69 2403   7.965   3.826   1.287  4.3197 -0.9355 -2.9916
    6CHTO   C48 2404   7.985   4.058   1.524  0.0017  0.8775 -0.1112
    6CHTO   H90 2405   8.070   4.112   1.483 -1.0351  1.0871 -2.0608
    6CHTO    N9 2406   8.025   3.963   1.629 -0.5465  0.4716 -0.2438
    6CHTO   H77 2407   8.093   3.891   1.585  0.9536 -1.1697  4.4658
    6CHTO   H78 2408   8.060   4.000   1.724  1.8309 -3.5918  0.5944
    6CHTO   C51 2409   7.884   4.168   1.576  0.1445  0.6002  0.2890
    6CHTO   H93 2410   7.798   4.114   1.616 -0.9706  1.9489 -0.2803
    6CHTO   O30 2411   7.848   4.255   1.471 -0.1394  0.0033 -0.0577
    6CHTO   C46 2412   7.766   4.187   1.363 -0.4609 -0.4908 -0.0400
    6CHTO   H88 2413   7.693   4.130   1.421  1.5358 -2.8006  0.2972
    6CHTO   C53 2414   7.689   4.293   1.263 -0.1820  0.3616 -0.1693
    6CHTO   O72 2415   7.784   4.372   1.181 -0.1759  0.7801  0.1639
    6CHTO  H199 2416   7.829   4.313   1.124  2.0975  1.7914  0.8492
    6CHTO   O22 2417   7.942   4.251   1.679  0.5365  0.3825 -0.2114
    6CHTO   C31 2418   7.844   4.297   1.779  0.1615  0.0870 -0.1482
    6CHTO   H59 2419   7.908   4.367   1.837  1.7519  1.0515 -2.9677
    6CHTO   C29 2420   7.724   4.382   1.723  0.5915  0.5248 -0.7607
    6CHTO   H57 2421   7.665   4.324   1.651  1.5249 -0.5230 -0.6960
    6CHTO   O21 2422   7.789   4.490   1.651  0.1526  0.8634  0.2462
    6CHTO   H37 2423   7.867   4.530   1.683  0.5943  0.2372 -0.0528
    6CHTO   C27 2424   7.633   4.430   1.837 -1.0180  0.5768  0.4453
    6CHTO   H55 2425   7.687   4.507   1.895  0.0858  1.0839 -1.2260
    6CHTO    N5 2426   7.521   4.493   1.773  0.1342  0.3864 -0.2392
    6CHTO   H43 2427   7.481   4.424   1.700  2.4352  0.9229 -2.0714
    6CHTO   H44 2428   7.442   4.498   1.846 -0.8439  0.9082 -1.3297
    6CHTO   C25 2429   7.594   4.321   1.939 -0.7085 -0.4777  0.5656
    6CHTO   H53 2430   7.515   4.254   1.901 -1.8426  0.3927  1.3689
    6CHTO   O17 2431   7.707   4.249   1.988 -0.4994  0.6829  0.7373
    6CHTO   C32 2432   7.785   4.190   1.885 -0.1247  0.1026  0.5400
    6CHTO   H60 2433   7.729   4.118   1.826 -1.0548  0.6175  0.7800
    6CHTO   C36 2434   7.892   4.115   1.963  0.2416  0.1471 -0.3599
    6CHTO   O25 2435   7.850   3.998   2.042  0.0796 -0.0829  0.1627
    6CHTO   H40 2436   7.917   3.935   2.060 -0.5961 -0.9722 -0.4328
    6CHTO   O15 2437   7.521   4.403   2.069  0.5265  0.3835 -0.3957
    6CHTO   C19 2438   7.429   4.457   2.175  0.3736  0.5495  0.0035
    6CHTO   H47 2439   7.437   4.392   2.263 -2.5807  0.9649  0.6232
    6CHTO   C20 2440   7.481   4.606   2.210 -0.1084  0.4451  0.0088
    6CHTO   H48 2441   7.487   4.673   2.124  2.7169  0.7869  0.4120
    6CHTO   O19 2442   7.616   4.600   2.258  0.2571 -0.2012 -0.1872
    6CHTO   H35 2443   7.667   4.556   2.192 -1.1122 -1.5283 -0.4050
    6CHTO   C21 2444   7.389   4.678   2.318  0.2438  0.0607 -0.4220
    6CHTO   H49 2445   7.402   4.627   2.413 -1.2665 -0.3705 -0.4399
    6CHTO    N4 2446   7.416   4.824   2.328 -0.1609  0.6697  0.3234
    6CHTO   H41 2447   7.355   4.868   2.406  0.4381  1.1435  0.5257
    6CHTO   H42 2448   7.398   4.883   2.239 -1.3783 -1.0745 -0.6085
    6CHTO   C22 2449   7.240   4.652   2.273 -0.6078  0.1022 -0.5466
    6CHTO   H50 2450   7.206   4.715   2.191 -0.8751  0.6986  0.0201
    6CHTO   O14 2451   7.207   4.517   2.249  0.2833 -0.9439 -0.2835
    6CHTO   C23 2452   7.275   4.457   2.137 -0.1349 -0.2158  1.1712
    6CHTO   H51 2453   7.261   4.507   2.040  0.2070  0.0048  1.2339
    6CHTO   C34 2454   7.211   4.315   2.117  0.4628  0.3285 -0.1508
    6CHTO   O23 2455   7.242   4.255   1.990  0.5863  1.1794  0.2693
    6CHTO   H38 2456   7.332   4.226   1.989  0.3229  0.2937  0.8977
    6CHTO   O16 2457   7.148   4.676   2.382  0.1794 -0.0975  0.0193
    6CHTO   C24 2458   7.046   4.798   2.372 -0.1694 -0.0384  0.0831
    6CHTO   H52 2459   7.079   4.876   2.304 -0.8479 -0.1042 -0.3318
    6CHTO   C26 2460   7.011   4.854   2.512 -0.1522  0.6010 -0.0792
    6CHTO   H54 2461   6.966   4.774   2.574 -2.9897  2.5882  0.5630
    6CHTO   O20 2462   7.125   4.902   2.587  0.3840 -0.2363  0.3484
    6CHTO   H36 2463   7.125   4.990   2.620 -1.4557 -1.0474  2.6631
    6CHTO   C30 2464   6.905   4.964   2.496 -0.4115 -0.2311  0.5319
    6CHTO   H58 2465   6.951   5.050   2.444 -0.0804 -1.4179 -1.2169
    6CHTO    N6 2466   6.863   5.018   2.627 -0.3777 -0.1448  0.6537
    6CHTO   H45 2467   6.832   4.939   2.695 -0.3793 -1.7821 -1.2084
    6CHTO   H46 2468   6.787   5.094   2.618  0.7687  1.1120  1.4558
    6CHTO   C33 2469   6.780   4.918   2.417  1.1616  0.1911 -0.3846
    6CHTO   H61 2470   6.723   4.845   2.476 -0.0825  0.7588 -0.8521
    6CHTO   O18 2471   6.819   4.852   2.297 -0.3648  0.1808 -0.0014
    6CHTO   C28 2472   6.907   4.746   2.317 -0.2387 -0.0707  0.2107
    6CHTO   H56 2473   6.862   4.678   2.389  1.5440 -0.7637  0.6927
    6CHTO   C35 2474   6.923   4.666   2.183  0.2939 -0.0429  0.1092
    6CHTO   O24 2475   6.793   4.596   2.148 -0.7267  0.4778 -0.3947
    6CHTO   H39 2476   6.721   4.655   2.146 -0.5989  0.6746  0.6544
    6CHTO    O9 2477   6.689   5.029   2.386 -0.2586  0.4473 -0.6418
    6CHTO   C13 2478   6.541   4.984   2.359 -0.7055  0.1059  0.4849
    6CHTO   H26 2479   6.512   4.913   2.440  1.5486  0.0182  1.2330
    6CHTO   C11 2480   6.513   4.923   2.219  0.3150  0.1618 -0.0532
    6CHTO   H24 2481   6.586   4.841   2.206 -0.7841 -0.4565 -2.7388
    6CHTO    O8 2482   6.543   5.017   2.119  0.0992 -0.2327 -0.4202
    6CHTO    H3 2483   6.629   4.996   2.086  1.3188  1.0050  1.8243
    6CHTO    C9 2484   6.369   4.872   2.216  0.3999 -0.2835  0.0890
    6CHTO   H22 2485   6.363   4.783   2.281  0.3826  1.0699  1.9843
    6CHTO    N2 2486   6.332   4.820   2.078 -0.1188  0.2713 -0.4192
    6CHTO   H10 2487   6.243   4.759   2.076 -0.6900  1.0796 -0.3067
    6CHTO   H11 2488   6.325   4.898   2.003 -1.5601  1.8574  1.3114
    6CHTO    C7 2489   6.276   4.985   2.284 -0.0981  0.3295 -0.3818
    6CHTO   H20 2490   6.260   4.951   2.389 -1.8549 -0.0400 -0.7403
    6CHTO    O4 2491   6.340   5.111   2.284  0.2335  0.3714  0.3072
    6CHTO   C14 2492   6.449   5.115   2.379 -0.7926  0.1343  0.5890
    6CHTO   H27 2493   6.419   5.106   2.485 -3.8560  0.5474 -0.1745
    6CHTO   C18 2494   6.518   5.248   2.368  0.4768  0.5041 -0.4406
    6CHTO   O13 2495   6.551   5.282   2.229  0.8174  0.0684  0.0457
    6CHTO    H7 2496   6.477   5.268   2.174  0.4398 -0.4999  0.6846
    6CHTO    O2 2497   6.116   5.002   2.212 -0.0406  0.0472  0.0972
    6CHTO    C1 2498   6.010   5.041   2.306  0.2063  0.3692 -0.5708
    6CHTO   H14 2499   5.917   5.058   2.248 -0.6457 -0.1156  0.6491
    6CHTO    C2 2500   6.048   5.174   2.383  0.0540 -0.3916 -0.3544
    6CHTO   H15 2501   6.136   5.150   2.444 -0.4544  0.3754  0.7056
    6CHTO    O6 2502   6.083   5.278   2.289 -0.1754  0.6653  0.2674
    6CHTO    H1 2503   6.075   5.366   2.319  0.5190  0.7394  0.2609
    6CHTO    C3 2504   5.922   5.217   2.474 -0.2476  0.3546 -0.6638
    6CHTO   H16 2505   5.839   5.237   2.404 -0.4087 -0.5846 -0.7569
    6CHTO    N1 2506   5.949   5.342   2.557 -0.3680  0.0920 -0.1874
    6CHTO    H8 2507   6.049   5.383   2.546  0.0427 -0.1330  2.4770
    6CHTO    H9 2508   5.866   5.411   2.550 -1.2839 -1.2476 -3.3953
    6CHTO    C4 2509   5.874   5.099   2.558  0.8359 -0.1983  0.1060
    6CHTO   H17 2510   5.939   5.091   2.646  1.5251  0.2866 -0.3492
    6CHTO    O1 2511   5.865   4.978   2.483 -0.4915  0.5340  0.1654
    6CHTO    C5 2512   5.976   4.932   2.410 -0.3274  0.1528 -0.3118
    6CHTO   H18 2513   6.069   4.920   2.466 -1.1253  0.0311  1.0135
    6CHTO   C16 2514   5.927   4.800   2.338 -0.1860  0.3967  0.4081
    6CHTO   O11 2515   5.918   4.690   2.435 -0.2184 -0.3261  0.0467
    6CHTO    H5 2516   6.002   4.655   2.456  1.1632  1.9162 -1.6072
    6CHTO    O3 2517   5.738   5.122   2.603 -0.1187  0.6514  0.0081
    6CHTO    C6 2518   5.687   5.075   2.736  0.7180 -0.2795  0.0955
    6CHTO   H19 2519   5.752   5.008   2.792  1.0045 -0.2410 -0.1939
    6CHTO    C8 2520   5.666   5.204   2.830 -0.1164 -0.4656  0.3315
    6CHTO   H21 2521   5.621   5.283   2.769  1.4114  0.5854  0.5249
    6CHTO    O7 2522   5.804   5.242   2.857  0.2989 -0.3029  0.3150
    6CHTO    H2 2523   5.853   5.175   2.901  2.0787 -0.2148 -1.4540
    6CHTO   C12 2524   5.582   5.173   2.959 -0.1950  0.1866 -0.1252
    6CHTO   H25 2525   5.642   5.126   3.040  0.7531  0.0307 -0.9191
    6CHTO    N3 2526   5.550   5.304   3.032  0.0395  0.0404  0.1588
    6CHTO   H12 2527   5.636   5.358   3.068 -2.5329  2.2291  3.3299
    6CHTO   H13 2528   5.489   5.369   2.970 -0.5465 -1.5779 -1.0070
    6CHTO   C15 2529   5.456   5.080   2.925 -0.3216 -0.1286  0.4672
    6CHTO   H28 2530   5.377   5.131   2.869 -0.0178  2.1254  1.9944
    6CHTO   O10 2531   5.387   5.026   3.054 -0.1519 -0.1653 -0.5834
    6CHTO    H4 2532   5.438   4.951   3.080  0.0531  0.5389  1.0955
    6CHTO    O5 2533   5.507   4.964   2.851 -0.1155 -0.0635 -0.5821
    6CHTO   C10 2534   5.551   5.004   2.721 -0.0469 -0.2882 -0.1843
    6CHTO   H23 2535   5.469   5.061   2.677  0.0047 -1.2700 -1.5798
    6CHTO   C17 2536   5.564   4.879   2.643  0.5206 -0.3505 -0.0960
    6CHTO   O12 2537   5.436   4.822   2.624 -0.2239  0.0618 -0.3646
    6CHTO    H6 2538   5.447   4.730   2.610  0.5112 -0.0154  0.6516
    7CHTO  H203 2539   5.031   1.190   2.558  1.8572  0.2040 -2.0502
    7CHTO   O82 2540   5.083   1.238   2.619 -0.5569 -0.5526  0.7371
    7CHTO  C123 2541   5.221   1.253   2.576 -0.1998 -0.5760  0.4262
    7CHTO  H227 2542   5.242   1.183   2.494 -0.6980 -0.2115 -0.0131
    7CHTO   O77 2543   5.223   1.388   2.527  0.6508 -0.0008  0.6013
    7CHTO  C118 2544   5.350   1.441   2.473  0.6192  0.3069  0.3859
    7CHTO  H222 2545   5.370   1.404   2.372 -0.1249  1.8697 -0.3428
    7CHTO  C125 2546   5.356   1.608   2.471  0.1831  0.0734  0.8266
    7CHTO   O84 2547   5.243   1.664   2.406  0.4073  0.7279  0.1079
    7CHTO  H205 2548   5.237   1.757   2.413  1.8200  0.9177 -0.9986
    7CHTO  C114 2549   5.471   1.405   2.566  0.2871 -0.1356  0.7097
    7CHTO  H218 2550   5.474   1.468   2.655 -0.0579  0.6410  0.1842
    7CHTO  C116 2551   5.478   1.268   2.624 -0.4082 -0.0401  0.1762
    7CHTO  H220 2552   5.510   1.195   2.546  0.9733 -0.0629  0.7454
    7CHTO   O79 2553   5.580   1.272   2.729  0.1800  0.3197  0.1049
    7CHTO  H201 2554   5.668   1.273   2.696 -0.2904 -0.2994 -1.1980
    7CHTO  C120 2555   5.334   1.233   2.687 -1.2748  0.0696  0.1126
    7CHTO  H224 2556   5.322   1.302   2.773 -1.0292 -0.1242  0.3023
    7CHTO   N21 2557   5.329   1.098   2.743 -0.2475 -0.2055  0.4970
    7CHTO  H211 2558   5.234   1.082   2.791 -1.2710  0.3345 -1.2891
    7CHTO  H212 2559   5.410   1.079   2.812  0.7100  1.3934 -0.1687
    7CHTO   O75 2560   5.579   1.441   2.484 -0.1848 -0.6974  0.1972
    7CHTO  C112 2561   5.744   1.424   2.537 -0.1816 -0.1853 -0.0199
    7CHTO  H216 2562   5.763   1.316   2.530 -1.3090 -0.2155 -3.1065
    7CHTO   O73 2563   5.762   1.472   2.672  0.6064 -0.6137  0.5823
    7CHTO  C113 2564   5.890   1.434   2.725  0.4917 -0.6468  0.0763
    7CHTO  H217 2565   5.926   1.330   2.716  3.2829  0.1404  1.3775
    7CHTO  C124 2566   5.883   1.462   2.870  0.2748  0.4799  0.0680
    7CHTO   O83 2567   5.800   1.373   2.946  0.0675  0.0895  0.5868
    7CHTO  H204 2568   5.768   1.424   3.018 -3.0168 -1.0498  0.0995
    7CHTO  C109 2569   5.998   1.520   2.658  0.3869 -0.3037 -0.1369
    7CHTO  H213 2570   5.975   1.625   2.683  0.3602 -0.3282 -0.0582
    7CHTO  C110 2571   5.986   1.499   2.509  0.5244 -0.5858 -0.3047
    7CHTO  H214 2572   6.022   1.397   2.493  0.3289 -1.1482  2.6225
    7CHTO   O78 2573   6.065   1.604   2.445 -0.1470 -0.2785 -0.4204
    7CHTO  H200 2574   6.034   1.687   2.475 -1.0500 -0.7691  0.0326
    7CHTO  C111 2575   5.840   1.501   2.453 -0.6778  0.6669 -0.4307
    7CHTO  H215 2576   5.806   1.606   2.458 -1.8652  0.1920  1.9582
    7CHTO   N19 2577   5.824   1.457   2.309  0.6315  0.2542 -0.6536
    7CHTO  H207 2578   5.919   1.430   2.265 -0.1622 -0.0393 -2.2469
    7CHTO  H208 2579   5.732   1.405   2.289  1.0244 -0.7354  0.0872
    7CHTO   O74 2580   6.124   1.475   2.720  0.5722  0.8127 -0.2249
    7CHTO  C115 2581   6.243   1.587   2.711 -0.1271 -0.7419 -0.1234
    7CHTO  H219 2582   6.256   1.626   2.610  0.3537 -1.3824 -0.3110
    7CHTO   O76 2583   6.205   1.719   2.806  0.9275  0.1567 -0.5350
    7CHTO  C122 2584   6.204   1.675   2.946 -0.7276  0.1230  0.2241
    7CHTO  H226 2585   6.122   1.604   2.954 -0.4702 -0.2675 -0.6097
    7CHTO  C126 2586   6.168   1.800   3.021  0.4629 -0.2040  0.6320
    7CHTO   O85 2587   6.050   1.866   2.979  0.4795  0.0944 -0.5876
    7CHTO  H206 2588   6.073   1.916   2.903  0.3326 -0.3000 -0.8953
    7CHTO  C121 2589   6.338   1.620   2.999  0.0377 -0.1708 -0.1490
    7CHTO  H225 2590   6.410   1.703   2.983 -0.2424  0.0544 -0.2411
    7CHTO   O81 2591   6.336   1.587   3.138 -0.4312 -0.0327 -0.5966
    7CHTO  H202 2592   6.256   1.551   3.171 -0.3922  1.0250  0.6543
    7CHTO  C119 2593   6.379   1.494   2.916 -0.3181 -0.2253  0.6941
    7CHTO  H223 2594   6.478   1.467   2.953 -0.6665 -1.2351  0.9077
    7CHTO  C117 2595   6.386   1.521   2.760 -0.2302  0.7930 -0.3531
    7CHTO  H221 2596   6.401   1.438   2.690  0.4207  0.1824  0.5051
    7CHTO   N20 2597   6.500   1.615   2.729 -0.1867  0.3859 -0.2758
    7CHTO  H209 2598   6.603   1.588   2.745 -0.0171  0.2981 -1.4482
    7CHTO  H210 2599   6.474   1.717   2.755 -0.8157  0.0750  0.3228
    7CHTO   O80 2600   6.301   1.361   2.957  0.1425  0.8426 -0.1293
    7CHTO  C103 2601   6.338   1.218   2.897 -0.2153  0.2338  0.2240
    7CHTO  H190 2602   6.323   1.228   2.789 -2.6878 -0.8396  0.4358
    7CHTO  C101 2603   6.484   1.175   2.928 -0.1012  0.2829 -0.6365
    7CHTO  H188 2604   6.500   1.196   3.033 -1.3165  1.1003 -0.6003
    7CHTO   O68 2605   6.594   1.270   2.842  0.5911  0.6693 -0.0782
    7CHTO  H168 2606   6.576   1.261   2.750  1.3816  0.5807 -0.2287
    7CHTO   C99 2607   6.506   1.013   2.901  0.8346 -0.5228  0.0852
    7CHTO  H186 2608   6.502   0.988   2.793  0.6061  0.0121 -0.0297
    7CHTO   N17 2609   6.633   0.952   2.955  0.5661 -0.5558 -0.5361
    7CHTO  H174 2610   6.654   0.995   3.051 -0.7473  1.7125 -1.2249
    7CHTO  H175 2611   6.712   0.993   2.893 -0.3090  0.3536 -1.0598
    7CHTO   C97 2612   6.383   0.944   2.962 -0.7014  0.3289  0.3163
    7CHTO  H184 2613   6.382   0.955   3.072 -2.0290 -0.6365  0.4128
    7CHTO   O64 2614   6.261   0.995   2.903  0.0177  0.1723 -0.0558
    7CHTO  C104 2615   6.230   1.123   2.951 -0.2006  0.8594  0.4303
    7CHTO  H191 2616   6.236   1.127   3.059  2.3545 -1.6014  0.4377
    7CHTO  C108 2617   6.089   1.167   2.911 -0.2850  0.0664 -0.2968
    7CHTO   O71 2618   5.997   1.084   2.970  0.3425  0.5678  0.2003
    7CHTO  H171 2619   5.960   1.044   2.894  0.5137  1.3639 -0.3030
    7CHTO   O62 2620   6.382   0.802   2.921  0.6491  0.1400  0.1771
    7CHTO   C91 2621   6.313   0.707   3.007  0.6911 -0.9950 -0.2379
    7CHTO  H178 2622   6.326   0.606   2.968  0.8329 -0.6846 -0.9961
    7CHTO   C92 2623   6.163   0.732   3.022  0.3566  0.6350  0.4789
    7CHTO  H179 2624   6.151   0.834   3.061 -0.4718  0.8224 -0.2652
    7CHTO   O66 2625   6.112   0.715   2.887  1.0177  0.5117 -0.2317
    7CHTO  H166 2626   6.040   0.767   2.857  0.3394 -1.6200 -2.5173
    7CHTO   C93 2627   6.087   0.638   3.127  0.8879  0.1646 -0.4529
    7CHTO  H180 2628   6.080   0.541   3.076  4.9275 -0.4139 -0.0760
    7CHTO   N16 2629   5.948   0.679   3.156  0.0837 -0.0941  0.0201
    7CHTO  H172 2630   5.960   0.770   3.214  2.5817 -0.4270  0.0940
    7CHTO  H173 2631   5.906   0.599   3.214 -0.6808  1.1200  1.1867
    7CHTO   C94 2632   6.170   0.624   3.260 -0.1159  0.7620  0.2613
    7CHTO  H181 2633   6.173   0.718   3.315  0.7651  0.7697  0.2041
    7CHTO   O61 2634   6.310   0.595   3.232 -0.5618 -0.3221  0.0205
    7CHTO   C95 2635   6.385   0.693   3.155 -0.1949 -0.6965  0.1769
    7CHTO  H182 2636   6.382   0.789   3.206 -0.2094 -0.0427 -1.0129
    7CHTO  C106 2637   6.533   0.647   3.146 -0.0271  0.3776 -0.0888
    7CHTO   O69 2638   6.592   0.634   3.276  0.5787  0.1178 -0.1623
    7CHTO  H169 2639   6.600   0.718   3.317  1.1761 -0.2032  0.3734
    7CHTO   O63 2640   6.120   0.503   3.346  0.3803 -0.6839 -0.1024
    7CHTO   C96 2641   6.090   0.531   3.507 -0.3075 -0.1853  0.1058
    7CHTO  H183 2642   6.031   0.623   3.515  0.4480  0.1500  2.2510
    7CHTO   C98 2643   6.216   0.552   3.588  0.3316  0.8477  0.1085
    7CHTO  H185 2644   6.278   0.638   3.559  0.2712  1.3697  1.5218
    7CHTO   O67 2645   6.185   0.576   3.726  0.0989 -0.5730  0.0857
    7CHTO  H167 2646   6.256   0.616   3.773  0.7210  0.6899 -1.8755
    7CHTO  C102 2647   6.305   0.411   3.600 -0.1357 -0.1553  0.6674
    7CHTO  H189 2648   6.350   0.403   3.700 -0.0904  0.4405  0.6996
    7CHTO   N18 2649   6.415   0.394   3.499  0.5042  0.1419 -0.4905
    7CHTO  H176 2650   6.489   0.470   3.521  0.3089 -0.0844  1.0266
    7CHTO  H177 2651   6.467   0.301   3.522 -0.4923 -0.8568 -2.2172
    7CHTO  C105 2652   6.210   0.282   3.591 -0.1881 -1.5341  0.7623
    7CHTO  H192 2653   6.210   0.244   3.489 -0.4776 -0.3076  0.3075
    7CHTO   O65 2654   6.082   0.312   3.645 -0.1087 -0.2026  0.2055
    7CHTO  C100 2655   6.006   0.406   3.559 -0.3373  0.6054 -0.7265
    7CHTO  H187 2656   5.978   0.339   3.476 -0.4041 -2.0019  1.3041
    7CHTO  C107 2657   5.873   0.452   3.635 -0.1910  0.1741  0.8376
    7CHTO   O70 2658   5.798   0.547   3.560  0.9189  0.4908 -0.8283
    7CHTO  H170 2659   5.790   0.524   3.469 -2.0539  1.0989 -0.7831
    7CHTO   O57 2660   6.290   0.180   3.700 -0.0769  0.2621 -0.3543
    7CHTO   C85 2661   6.316   0.044   3.651 -0.9836 -0.3320 -0.2880
    7CHTO  H157 2662   6.343   0.068   3.546 -0.0662 -2.2565 -0.5052
    7CHTO   C83 2663   6.196  -0.046   3.640  0.3318  0.1386 -0.2614
    7CHTO  H155 2664   6.113   0.005   3.591  0.1668 -2.2968 -2.6634
    7CHTO   O56 2665   6.148  -0.060   3.780 -0.1094 -0.3455 -0.3443
    7CHTO  H135 2666   6.084  -0.128   3.779 -1.0988  0.5744 -0.2612
    7CHTO   C81 2667   6.233  -0.173   3.564  0.1726 -0.1626  0.3919
    7CHTO  H153 2668   6.264  -0.144   3.463  0.1894  1.8368  0.9507
    7CHTO   N14 2669   6.114  -0.261   3.530 -0.7669  0.2078  0.3005
    7CHTO  H141 2670   6.077  -0.297   3.623  0.9663  0.4969  1.1321
    7CHTO  H142 2671   6.145  -0.342   3.467 -0.6354 -0.4696  1.2221
    7CHTO   C79 2672   6.354  -0.250   3.627 -0.0213  0.0407 -0.7124
    7CHTO  H151 2673   6.387  -0.324   3.555  0.1287 -1.0376  0.4555
    7CHTO   O52 2674   6.464  -0.154   3.637 -0.4345 -0.5229  0.3360
    7CHTO   C86 2675   6.431  -0.035   3.720 -0.5299 -0.0328 -0.3588
    7CHTO  H158 2676   6.406  -0.073   3.822  0.6654 -2.2603 -0.8638
    7CHTO   C90 2677   6.557   0.057   3.740 -0.0133 -0.2574 -0.3485
    7CHTO   O60 2678   6.665  -0.017   3.796  0.4667  0.0866  0.4386
    7CHTO  H138 2679   6.736   0.042   3.814 -0.7668  1.0113  2.4837
    7CHTO   O50 2680   6.321  -0.301   3.758  0.2582 -0.0107  0.6156
    7CHTO   C73 2681   6.349  -0.403   3.852 -0.0805  0.1108 -0.2573
    7CHTO  H145 2682   6.441  -0.455   3.822 -0.8894 -2.1864  1.1943
    7CHTO   C74 2683   6.241  -0.523   3.856  0.0926 -0.4106  0.6715
    7CHTO  H146 2684   6.239  -0.567   3.755 -0.5220 -1.1025  0.9923
    7CHTO   O54 2685   6.288  -0.632   3.935 -0.3843  0.2750 -0.6606
    7CHTO  H133 2686   6.238  -0.652   4.011  1.7012  1.8393  1.2101
    7CHTO   C75 2687   6.103  -0.469   3.903  0.1574  0.2059 -0.5754
    7CHTO  H147 2688   6.058  -0.402   3.827 -1.1078 -1.5476 -1.3980
    7CHTO   N13 2689   5.994  -0.572   3.914 -0.0628  0.3424  0.1449
    7CHTO  H139 2690   5.902  -0.520   3.934 -0.3463  0.0952 -0.4858
    7CHTO  H140 2691   6.005  -0.638   3.999 -3.7914 -1.2448 -0.4923
    7CHTO   C76 2692   6.113  -0.368   4.030  1.3628  0.3591 -0.4797
    7CHTO  H148 2693   6.117  -0.420   4.125 -4.1752  0.3134 -0.0860
    7CHTO   O49 2694   6.238  -0.281   4.037  0.8131 -0.2601 -0.0401
    7CHTO   C77 2695   6.362  -0.344   3.996 -0.1197  0.1138 -0.1340
    7CHTO  H149 2696   6.362  -0.428   4.065  0.1078  0.8744  0.7998
    7CHTO   C88 2697   6.481  -0.249   4.005 -0.0836 -0.5797 -0.1037
    7CHTO   O58 2698   6.617  -0.307   3.994 -0.1397  0.2956  0.2886
    7CHTO  H136 2699   6.673  -0.306   4.069  0.3585 -2.1939  0.0091
    7CHTO   O51 2700   6.010  -0.256   4.023 -0.0172 -0.1640  0.4815
    7CHTO   C78 2701   5.913  -0.236   4.152 -0.0606 -0.2773  0.0261
    7CHTO  H150 2702   5.945  -0.303   4.235  1.5687 -0.3039 -0.5971
    7CHTO   C80 2703   5.768  -0.266   4.116 -0.1708 -0.0812  0.7720
    7CHTO  H152 2704   5.748  -0.229   4.013  1.4714 -1.0809  0.0853
    7CHTO   O55 2705   5.767  -0.405   4.091 -0.4136  0.2577 -0.2764
    7CHTO  H134 2706   5.693  -0.432   4.040  0.0044 -1.4107 -0.0163
    7CHTO   C84 2707   5.666  -0.224   4.233  0.6509 -0.5286  0.0756
    7CHTO  H156 2708   5.685  -0.289   4.318 -0.8595 -0.2089  0.6822
    7CHTO   N15 2709   5.524  -0.229   4.192 -0.0531  0.7004  0.1283
    7CHTO  H143 2710   5.504  -0.146   4.127  0.8178  0.1774 -0.8444
    7CHTO  H144 2711   5.489  -0.321   4.150 -0.9691  1.8650 -1.7161
    7CHTO   C87 2712   5.701  -0.082   4.281 -0.1946  0.4816  0.4879
    7CHTO  H159 2713   5.671  -0.018   4.197 -3.2479 -1.6176 -0.1163
    7CHTO   O53 2714   5.853  -0.076   4.317 -0.0910 -0.4608 -0.1574
    7CHTO   C82 2715   5.929  -0.099   4.198  0.0572 -0.4220  0.2794
    7CHTO  H154 2716   5.892  -0.036   4.117 -1.0416 -2.3007 -0.7068
    7CHTO   C89 2717   6.078  -0.069   4.221  0.5964  0.2759 -0.0011
    7CHTO   O59 2718   6.082   0.075   4.239 -0.2225  0.1530  0.5754
    7CHTO  H137 2719   6.155   0.115   4.283 -1.4015 -0.2472  2.9680
    7CHTO   O45 2720   5.620  -0.034   4.423  0.6222 -0.0838  0.2142
    7CHTO   C67 2721   5.618   0.112   4.429 -0.2511  0.0677 -0.2893
    7CHTO  H124 2722   5.698   0.152   4.366  0.3152 -1.2394 -0.4053
    7CHTO   C65 2723   5.479   0.161   4.363 -0.3087 -0.3062 -0.3697
    7CHTO  H122 2724   5.411   0.079   4.342 -0.0748 -0.4468 -0.5862
    7CHTO   O44 2725   5.516   0.225   4.242  0.1390 -0.6073 -0.4432
    7CHTO  H102 2726   5.567   0.156   4.203 -1.9520 -1.4319 -1.7950
    7CHTO   C63 2727   5.406   0.256   4.473  0.8298 -0.3176  0.1521
    7CHTO  H120 2728   5.384   0.195   4.561 -0.6795 -0.1477 -0.0992
    7CHTO   N11 2729   5.270   0.304   4.435 -0.0103 -0.2498 -0.2715
    7CHTO  H108 2730   5.243   0.283   4.334  0.0058 -0.5187 -0.2216
    7CHTO  H109 2731   5.255   0.409   4.449  0.2348 -0.1129 -1.0471
    7CHTO   C61 2732   5.500   0.363   4.526  0.0960 -0.3019  0.5110
    7CHTO  H118 2733   5.440   0.419   4.599  0.3504 -0.0551  0.5302
    7CHTO   O40 2734   5.617   0.313   4.602 -0.8677 -0.0404  0.8454
    7CHTO   C68 2735   5.651   0.168   4.581  0.3976  0.3180  0.4617
    7CHTO  H125 2736   5.594   0.122   4.665  0.1402  1.3733  0.8736
    7CHTO   C72 2737   5.803   0.155   4.611  0.0764  0.2459 -0.2019
    7CHTO   O48 2738   5.887   0.197   4.504 -0.3970 -0.4486 -0.5080
    7CHTO  H105 2739   5.879   0.289   4.487 -1.4244 -0.8847 -2.6266
    7CHTO   O38 2740   5.531   0.458   4.420  0.0748 -0.2714 -0.6146
    7CHTO   C55 2741   5.565   0.579   4.475 -0.2424  0.6909  0.0687
    7CHTO  H112 2742   5.573   0.580   4.585  0.3621 -2.2225  0.1178
    7CHTO   C56 2743   5.460   0.684   4.415  0.0241 -0.2509 -0.0041
    7CHTO  H113 2744   5.460   0.674   4.306 -0.6270 -1.7204  0.1188
    7CHTO   O42 2745   5.332   0.662   4.474  0.2342 -0.3993  0.4700
    7CHTO  H100 2746   5.343   0.681   4.565 -1.8154  0.1807  0.6217
    7CHTO   C57 2747   5.510   0.836   4.433 -0.2914 -0.3615  0.0366
    7CHTO  H114 2748   5.507   0.867   4.537 -0.9384 -0.2254 -0.0220
    7CHTO   N10 2749   5.425   0.935   4.362 -0.4185 -0.2711 -0.3383
    7CHTO  H106 2750   5.466   0.955   4.264  1.5951 -0.6998  0.3890
    7CHTO  H107 2751   5.424   1.025   4.423  0.3753 -0.6246  0.2021
    7CHTO   C58 2752   5.654   0.846   4.381 -0.9062 -0.8799 -0.0476
    7CHTO  H115 2753   5.654   0.819   4.273 -0.7505 -1.7363  0.1687
    7CHTO   O37 2754   5.738   0.755   4.454  0.2084  0.2287 -0.0076
    7CHTO   C59 2755   5.710   0.617   4.427 -0.0841  1.0531 -0.5074
    7CHTO  H116 2756   5.725   0.598   4.321  0.2902  0.2318 -0.3133
    7CHTO   C70 2757   5.822   0.540   4.506 -0.1466 -0.5996  0.3739
    7CHTO   O46 2758   5.800   0.536   4.650 -0.4285  0.1965 -0.4613
    7CHTO  H103 2759   5.709   0.543   4.672  0.1650  1.0794  1.8560
    7CHTO   O39 2760   5.713   0.997   4.398 -0.8007  0.2746  0.1606
    7CHTO   C60 2761   5.834   1.009   4.323 -1.1693 -0.1333  0.0118
    7CHTO  H117 2762   5.885   0.915   4.305 -2.1762 -0.3318 -1.9494
    7CHTO   C62 2763   5.798   1.077   4.181  0.7899 -0.2731 -0.7010
    7CHTO  H119 2764   5.730   1.002   4.135  1.6154 -1.3130 -0.2536
    7CHTO   O43 2765   5.718   1.199   4.204  0.0752  0.2814  0.1378
    7CHTO  H101 2766   5.654   1.207   4.136  1.1087  0.6908 -0.7957
    7CHTO   C66 2767   5.925   1.093   4.094  0.2923  0.3910 -0.2114
    7CHTO  H123 2768   5.973   0.995   4.083 -0.0489  0.1415  0.5336
    7CHTO   N12 2769   5.889   1.145   3.962 -0.4310 -0.0191  0.0552
    7CHTO  H110 2770   5.938   1.090   3.883  1.1313  0.9855  0.3060
    7CHTO  H111 2771   5.895   1.253   3.959  0.2374 -0.0752 -0.9121
    7CHTO   C69 2772   6.027   1.176   4.175  0.5623  0.2948  0.0844
    7CHTO  H126 2773   5.987   1.279   4.178  1.3252  0.7929 -3.8448
    7CHTO   O41 2774   6.051   1.132   4.307 -0.0316  0.1517 -0.0051
    7CHTO   C64 2775   5.934   1.095   4.392  0.4696  0.3764 -0.1700
    7CHTO  H121 2776   5.889   1.191   4.425  1.2767  1.6692 -2.6627
    7CHTO   C71 2777   5.995   1.024   4.517  0.5283  0.3223  0.2192
    7CHTO   O47 2778   5.903   1.038   4.629 -0.2587 -0.6302  0.5451
    7CHTO  H104 2779   5.818   1.001   4.617 -1.9472  2.8696  0.9942
    7CHTO   O34 2780   6.151   1.182   4.107  0.0551 -0.2396 -0.2346
    7CHTO   C49 2781   6.220   1.265   4.003  0.3552 -0.2480  0.6840
    7CHTO   H91 2782   6.148   1.300   3.928  0.3597 -1.4623  0.1022
    7CHTO   C47 2783   6.317   1.177   3.926  0.8815 -0.1637 -0.2245
    7CHTO   H89 2784   6.336   1.243   3.839  2.7853 -0.0799  0.2486
    7CHTO   O33 2785   6.260   1.053   3.878 -0.4795 -0.1156  0.2494
    7CHTO   H70 2786   6.246   0.995   3.950  1.0548 -1.2662 -0.3642
    7CHTO   C45 2787   6.441   1.148   4.022  0.5928  0.6023 -0.6307
    7CHTO   H87 2788   6.435   1.045   4.062 -0.6050  0.6948 -0.5533
    7CHTO    N8 2789   6.561   1.156   3.936 -0.1690 -0.4596 -0.3871
    7CHTO   H75 2790   6.569   1.261   3.915  1.2243 -0.0717  1.8811
    7CHTO   H76 2791   6.655   1.140   3.987  0.2157  4.0465  0.5678
    7CHTO   C43 2792   6.447   1.230   4.153  0.1072 -0.1844  0.1621
    7CHTO   H85 2793   6.368   1.197   4.221  0.2946 -0.1846  0.3790
    7CHTO   O29 2794   6.427   1.366   4.113  0.7596 -0.3336  0.1083
    7CHTO   C50 2795   6.294   1.391   4.058  0.7875 -0.3197  0.0697
    7CHTO   H92 2796   6.234   1.430   4.141 -1.7459 -1.3666 -1.2087
    7CHTO   C54 2797   6.302   1.504   3.950 -0.0014  0.2419  0.1487
    7CHTO   O36 2798   6.329   1.633   4.018  0.0046 -0.0068 -0.2671
    7CHTO   H72 2799   6.365   1.682   3.947  2.2791  0.2976  1.0216
    7CHTO   O27 2800   6.565   1.207   4.224  0.0726  0.6133  0.2839
    7CHTO   C37 2801   6.647   1.109   4.299 -0.3302 -0.6099  0.0507
    7CHTO   H79 2802   6.657   1.153   4.399  0.9036 -2.5633  0.8108
    7CHTO   C38 2803   6.586   0.968   4.312  0.3044  0.2860 -0.7823
    7CHTO   H80 2804   6.546   0.936   4.215 -2.5209 -3.4576  1.4766
    7CHTO   O31 2805   6.477   0.970   4.406  0.1432 -0.0875  0.8773
    7CHTO   H68 2806   6.441   0.884   4.417 -0.5317 -0.1284 -1.3104
    7CHTO   C39 2807   6.690   0.856   4.360  0.0122 -0.0471 -0.3532
    7CHTO   H81 2808   6.691   0.859   4.469  0.3916 -0.5956 -0.3392
    7CHTO    N7 2809   6.644   0.720   4.317  0.2376 -0.8749  0.1797
    7CHTO   H73 2810   6.702   0.647   4.372  1.0883 -0.8871 -0.7198
    7CHTO   H74 2811   6.538   0.712   4.331  0.5410 -0.5778  3.0784
    7CHTO   C40 2812   6.834   0.878   4.303  0.1009  0.2300 -0.8571
    7CHTO   H82 2813   6.841   0.846   4.199  2.4173  0.4000 -0.7834
    7CHTO   O26 2814   6.868   1.014   4.322 -0.6751  0.1265 -0.7587
    7CHTO   C41 2815   6.788   1.102   4.239 -0.5246  0.3519 -0.4237
    7CHTO   H83 2816   6.788   1.065   4.135  0.0073 -1.1656  0.1114
    7CHTO   C52 2817   6.862   1.235   4.228 -0.3889 -0.4357 -0.0257
    7CHTO   O35 2818   6.982   1.232   4.131  0.1633  0.0486  0.6368
    7CHTO   H71 2819   6.981   1.311   4.081  0.1667  0.1542  0.8021
    7CHTO   O28 2820   6.940   0.809   4.376  0.0733 -0.0466  0.0595
    7CHTO   C42 2821   7.068   0.763   4.326  0.2249 -0.5648  0.3413
    7CHTO   H84 2822   7.120   0.715   4.409  1.9319 -1.7238 -1.3710
    7CHTO   C44 2823   7.156   0.883   4.277  0.6748 -0.2275  0.0815
    7CHTO   H86 2824   7.111   0.926   4.188  0.8506 -1.2743 -0.5121
    7CHTO   O32 2825   7.167   0.980   4.385 -0.0762  0.0535  0.8622
    7CHTO   H69 2826   7.123   0.970   4.467 -1.4852  2.4482  0.4542
    7CHTO   C48 2827   7.299   0.832   4.227  0.1313 -0.6479  0.6730
    7CHTO   H90 2828   7.356   0.796   4.312 -1.7845 -1.8284  1.4791
    7CHTO    N9 2829   7.382   0.956   4.185 -0.1265 -0.9136  0.7341
    7CHTO   H77 2830   7.470   0.964   4.248 -0.6720  4.1968  1.0900
    7CHTO   H78 2831   7.331   1.051   4.189 -1.5917 -1.6894  0.5808
    7CHTO   C51 2832   7.286   0.724   4.109  0.2231 -0.4045  0.5113
    7CHTO   H93 2833   7.238   0.770   4.023 -1.7673 -1.0592  1.2426
    7CHTO   O30 2834   7.205   0.619   4.165 -0.4845  0.0310  0.0832
    7CHTO   C46 2835   7.065   0.655   4.206  0.1248  0.3968 -0.2616
    7CHTO   H88 2836   6.996   0.685   4.128  0.5622  4.1314  0.6999
    7CHTO   C53 2837   6.994   0.524   4.257  0.2856  0.0417 -0.2324
    7CHTO   O72 2838   7.053   0.466   4.369  0.1530 -0.5297 -0.0359
    7CHTO  H199 2839   7.038   0.508   4.452  0.9462  0.2855 -0.2924
    7CHTO   O22 2840   7.408   0.664   4.068  0.2349  0.0647 -0.7777
    7CHTO   C31 2841   7.436   0.614   3.937  0.5351  0.4309 -0.0146
    7CHTO   H59 2842   7.523   0.546   3.951  0.1449 -0.1337 -0.3168
    7CHTO   C29 2843   7.329   0.531   3.864  0.0553  0.0829 -0.8319
    7CHTO   H57 2844   7.233   0.582   3.873  0.7404  1.2428  0.0375
    7CHTO   O21 2845   7.307   0.416   3.949 -0.2087  0.2419  0.2452
    7CHTO   H37 2846   7.224   0.384   3.919  0.0156  0.9267 -1.1328
    7CHTO   C27 2847   7.361   0.495   3.720  0.3592 -0.2468 -0.0835
    7CHTO   H55 2848   7.458   0.444   3.717  1.1021  1.1108  0.6416
    7CHTO    N5 2849   7.252   0.404   3.668 -1.0701 -0.3240 -0.2286
    7CHTO   H43 2850   7.156   0.432   3.709 -1.2805  0.2582 -1.1098
    7CHTO   H44 2851   7.245   0.398   3.560  3.3818 -1.8102 -0.5454
    7CHTO   C25 2852   7.372   0.644   3.653 -0.3838  0.1589  0.8644
    7CHTO   H53 2853   7.286   0.705   3.682 -1.0338  0.1287 -0.9293
    7CHTO   O17 2854   7.496   0.705   3.704  0.1617  0.1684 -0.5036
    7CHTO   C32 2855   7.490   0.730   3.841 -0.5415  0.0598  0.0974
    7CHTO   H60 2856   7.438   0.824   3.858 -0.9668 -0.0003 -0.8641
    7CHTO   C36 2857   7.629   0.762   3.894  0.2294 -0.4755 -0.4735
    7CHTO   O25 2858   7.635   0.829   4.023  0.0549  0.0936 -0.4796
    7CHTO   H40 2859   7.574   0.787   4.081  1.1654 -0.9842 -0.0555
    7CHTO   O15 2860   7.395   0.633   3.482  0.6411  0.5806  0.9003
    7CHTO   C19 2861   7.368   0.719   3.366 -0.2904  0.7537  0.0444
    7CHTO   H47 2862   7.440   0.672   3.297 -2.7549  0.3509 -2.3025
    7CHTO   C20 2863   7.223   0.703   3.319 -0.2342 -0.0401  0.9082
    7CHTO   H48 2864   7.149   0.729   3.396 -0.0761  2.8514  0.1337
    7CHTO   O19 2865   7.209   0.568   3.273 -0.4221 -0.2299  0.3824
    7CHTO   H35 2866   7.268   0.546   3.203 -0.0840 -2.2814  1.2772
    7CHTO   C21 2867   7.192   0.798   3.203 -0.5136 -1.0353 -0.5117
    7CHTO   H49 2868   7.254   0.768   3.119  0.0966  1.9699 -1.1874
    7CHTO    N4 2869   7.047   0.796   3.162  0.4857 -0.2391 -0.4666
    7CHTO   H41 2870   7.022   0.701   3.117 -0.8749 -0.4880  0.7799
    7CHTO   H42 2871   6.988   0.805   3.252  0.9477 -0.3604 -0.1475
    7CHTO   C22 2872   7.236   0.945   3.229 -0.7328 -0.2004 -0.1308
    7CHTO   H50 2873   7.184   0.979   3.318 -0.2153  0.1722  0.0272
    7CHTO   O14 2874   7.379   0.944   3.264  0.2918 -0.3255 -0.4607
    7CHTO   C23 2875   7.419   0.868   3.380  0.4949 -0.0459  0.3365
    7CHTO   H51 2876   7.378   0.917   3.470  0.3138  0.7979 -0.2013
    7CHTO   C34 2877   7.573   0.875   3.384 -0.0233  0.3421 -0.0601
    7CHTO   O23 2878   7.639   1.002   3.402  0.1073  0.1475  0.4002
    7CHTO   H38 2879   7.607   1.048   3.478 -2.5563 -1.0451  0.0776
    7CHTO   O16 2880   7.225   1.032   3.113 -0.5475  0.0804 -0.2232
    7CHTO   C24 2881   7.110   1.155   3.149  0.1075 -1.0562  0.3076
    7CHTO   H52 2882   7.040   1.124   3.226 -1.9872 -0.1190 -1.1671
    7CHTO   C26 2883   7.035   1.184   3.021  0.2419 -0.5490  0.0722
    7CHTO   H54 2884   7.112   1.200   2.942  0.6525  0.5397  0.6823
    7CHTO   O20 2885   6.950   1.077   2.967  0.0798 -0.2527 -0.0957
    7CHTO   H36 2886   6.935   1.109   2.880  0.4690  0.1439 -0.0141
    7CHTO   C30 2887   6.945   1.309   3.028  0.1704  0.6335 -0.4898
    7CHTO   H58 2888   6.860   1.278   3.090  0.2021  0.0861 -0.7108
    7CHTO    N6 2889   6.898   1.345   2.895  0.3107 -0.0578 -0.3230
    7CHTO   H45 2890   6.839   1.263   2.855 -2.2052  1.5755 -0.0965
    7CHTO   H46 2891   6.830   1.429   2.899  0.3070 -0.0737  0.0052
    7CHTO   C33 2892   7.006   1.432   3.101 -0.0700 -0.6553  0.1363
    7CHTO   H61 2893   7.083   1.488   3.046  1.7749 -2.5320  0.7431
    7CHTO   O18 2894   7.072   1.381   3.218 -0.1286  0.5241 -0.1089
    7CHTO   C28 2895   7.180   1.284   3.193  0.9184 -0.5220  0.1179
    7CHTO   H56 2896   7.252   1.317   3.118  0.0870  0.6027 -0.2071
    7CHTO   C35 2897   7.265   1.267   3.321 -0.4631 -0.2971 -0.4385
    7CHTO   O24 2898   7.328   1.388   3.356 -0.4043 -0.1113  0.0737
    7CHTO   H39 2899   7.289   1.428   3.432  0.0664  0.5497 -0.0360
    7CHTO    O9 2900   6.915   1.535   3.137  0.1147  0.2891 -0.8679
    7CHTO   C13 2901   6.978   1.690   3.193 -0.2735 -0.3646  0.3299
    7CHTO   H26 2902   7.007   1.752   3.105  0.7912  1.6825  2.0583
    7CHTO   C11 2903   7.099   1.683   3.302 -0.1315  1.1323  0.1570
    7CHTO   H24 2904   7.182   1.631   3.253  0.2033  1.0040  0.8438
    7CHTO    O8 2905   7.058   1.612   3.426 -0.2687 -0.5232  0.2870
    7CHTO    H3 2906   7.138   1.590   3.470 -1.2065 -0.6256  1.9489
    7CHTO    C9 2907   7.140   1.834   3.330 -0.9585 -0.5156 -0.2641
    7CHTO   H22 2908   7.170   1.880   3.234 -1.8380 -0.6826 -0.6236
    7CHTO    N2 2909   7.271   1.843   3.398 -0.1725 -0.6300  0.0237
    7CHTO   H10 2910   7.292   1.948   3.413  1.7812 -1.0024  0.1305
    7CHTO   H11 2911   7.355   1.800   3.345  3.2607  1.0232  3.8777
    7CHTO    C7 2912   7.017   1.913   3.388 -0.1116  1.0333 -0.1414
    7CHTO   H20 2913   7.003   2.008   3.332 -4.0239  0.9727  0.5843
    7CHTO    O4 2914   6.898   1.836   3.380  0.6148 -0.0144 -0.0421
    7CHTO   C14 2915   6.862   1.776   3.253  0.3224  0.1402  0.1616
    7CHTO   H27 2916   6.838   1.854   3.177 -2.2725 -1.3101 -0.5771
    7CHTO   C18 2917   6.729   1.700   3.282 -0.3260  0.5342 -0.3688
    7CHTO   O13 2918   6.616   1.788   3.255  0.4378 -0.6170 -0.1459
    7CHTO    H7 2919   6.529   1.753   3.258 -0.3245  1.1924 -0.6882
    7CHTO    O2 2920   7.043   1.953   3.544  0.4463 -0.2779  0.1251
    7CHTO    C1 2921   6.981   2.077   3.598 -0.8392  0.6077 -0.1333
    7CHTO   H14 2922   6.899   2.109   3.530 -1.1925  2.5056  1.1493
    7CHTO    C2 2923   7.086   2.197   3.606  0.0573 -1.0640 -0.6207
    7CHTO   H15 2924   7.162   2.161   3.677 -1.9126  2.3865  3.4360
    7CHTO    O6 2925   7.138   2.207   3.476 -0.0838 -0.1160  0.4307
    7CHTO    H1 2926   7.230   2.226   3.470 -0.2463  0.2280 -1.4886
    7CHTO    C3 2927   7.013   2.328   3.655  0.5637 -0.4552 -0.0984
    7CHTO   H16 2928   6.940   2.368   3.583 -0.5517 -2.1915  0.0511
    7CHTO    N1 2929   7.113   2.440   3.684 -0.9229  0.2932  0.7516
    7CHTO    H8 2930   7.194   2.406   3.747 -0.4525  2.4366  1.3583
    7CHTO    H9 2931   7.140   2.498   3.597 -0.4957  0.4186  0.9623
    7CHTO    C4 2932   6.931   2.288   3.787  0.3151  0.0480  0.2940
    7CHTO   H17 2933   7.002   2.271   3.868 -0.1878 -0.0835  0.7018
    7CHTO    O1 2934   6.846   2.170   3.772  0.2702  0.4175  0.2250
    7CHTO    C5 2935   6.910   2.051   3.741 -0.5968 -0.4043  0.5337
    7CHTO   H18 2936   6.982   2.017   3.815 -0.7327 -1.9619 -0.0345
    7CHTO   C16 2937   6.799   1.945   3.730 -0.3848  0.0304  0.4447
    7CHTO   O11 2938   6.772   1.908   3.858 -0.2956  0.0150 -0.7731
    7CHTO    H5 2939   6.713   1.973   3.891 -1.0767 -1.0497 -0.0327
    7CHTO    O3 2940   6.838   2.397   3.835  0.3123  0.2857 -0.1946
    7CHTO    C6 2941   6.805   2.381   3.978 -0.1951 -0.0889 -0.7679
    7CHTO   H19 2942   6.848   2.290   4.021 -0.7521  0.8265  1.8200
    7CHTO    C8 2943   6.862   2.503   4.057  0.6041 -0.1969  0.3401
    7CHTO   H21 2944   6.820   2.597   4.020 -2.4503 -0.0121  3.9714
    7CHTO    O7 2945   7.000   2.511   4.040  0.5663  0.6474  0.7630
    7CHTO    H2 2946   7.050   2.445   4.082 -0.3088 -0.0971  0.6546
    7CHTO   C12 2947   6.812   2.494   4.208 -0.4408  0.0856  0.9941
    7CHTO   H25 2948   6.867   2.411   4.256  1.0941  0.3101 -0.3608
    7CHTO    N3 2949   6.855   2.616   4.285 -0.4034 -0.4692  0.3525
    7CHTO   H12 2950   6.963   2.615   4.294 -0.2483  1.6313 -1.1510
    7CHTO   H13 2951   6.803   2.608   4.380  0.0010 -0.0797  0.6054
    7CHTO   C15 2952   6.657   2.469   4.222 -0.6512  0.2107  0.4490
    7CHTO   H28 2953   6.603   2.548   4.170 -0.6431  0.5215  0.9002
    7CHTO   O10 2954   6.603   2.446   4.344 -0.0922  0.3275 -0.4106
    7CHTO    H4 2955   6.558   2.519   4.382  0.5477  0.7354 -0.4327
    7CHTO    O5 2956   6.633   2.347   4.150  0.5560  0.2117 -0.3232
    7CHTO   C10 2957   6.646   2.373   4.008  0.4783  0.5720 -0.3638
    7CHTO   H23 2958   6.600   2.469   3.984  1.5616  1.5064  1.2406
    7CHTO   C17 2959   6.571   2.252   3.941 -0.3116 -0.3165  0.2217
    7CHTO   O12 2960   6.429   2.234   3.952 -0.0489  0.1060  0.4611
    7CHTO    H6 2961   6.387   2.150   3.955  0.2994 -0.0924 -0.2129
    8CHTO  H203 2962   8.047   6.125   0.315  0.5605  0.9744  0.2875
    8CHTO   O82 2963   7.973   6.182   0.303  0.1071  0.3733  0.2263
    8CHTO  C123 2964   7.900   6.172   0.425 -0.1972  0.6899 -0.4192
    8CHTO  H227 2965   7.948   6.096   0.489 -1.3201  0.7106  0.4646
    8CHTO   O77 2966   7.911   6.302   0.487 -0.2480 -0.0407 -0.6286
    8CHTO  C118 2967   7.862   6.305   0.620  0.2036 -0.9686  0.2798
    8CHTO  H222 2968   7.893   6.213   0.672  1.7644 -0.9552 -0.6187
    8CHTO  C125 2969   7.925   6.429   0.695  0.1668  0.0187 -0.4682
    8CHTO   O84 2970   7.870   6.552   0.641 -0.0376 -0.0520  0.3068
    8CHTO  H205 2971   7.865   6.604   0.719  0.2427  1.5567 -0.7098
    8CHTO  C114 2972   7.708   6.304   0.602 -0.2162  0.3176 -0.2065
    8CHTO  H218 2973   7.680   6.393   0.546  0.5116  0.5400 -0.2258
    8CHTO  C116 2974   7.668   6.169   0.539  0.8484  0.0992  0.1320
    8CHTO  H220 2975   7.673   6.087   0.613  0.7020  0.3551  0.4292
    8CHTO   O79 2976   7.526   6.176   0.508 -0.6810 -0.4210  0.5939
    8CHTO  H201 2977   7.489   6.210   0.587  0.8737 -1.1405  1.6479
    8CHTO  C120 2978   7.752   6.138   0.408  0.2908 -0.4832  0.0373
    8CHTO  H224 2979   7.704   6.203   0.332  0.1461  0.3201  0.7985
    8CHTO   N21 2980   7.726   5.992   0.360 -0.3088 -0.4768  0.3161
    8CHTO  H211 2981   7.729   5.991   0.252 -2.3862  0.9112  0.2139
    8CHTO  H212 2982   7.791   5.922   0.410 -1.4204  0.0712  2.5837
    8CHTO   O75 2983   7.650   6.326   0.734 -0.5114 -0.3943  0.4746
    8CHTO  C112 2984   7.517   6.434   0.728 -0.2815 -0.3309  0.1112
    8CHTO  H216 2985   7.447   6.394   0.653  0.2779  1.7836 -1.6085
    8CHTO   O73 2986   7.563   6.558   0.687  0.2346 -0.1703 -0.3489
    8CHTO  C113 2987   7.470   6.665   0.655 -0.5623 -0.2821  0.2851
    8CHTO  H217 2988   7.407   6.619   0.576 -0.6846 -0.9473  0.7647
    8CHTO  C124 2989   7.553   6.788   0.603  1.1388 -0.1333  0.4251
    8CHTO   O83 2990   7.632   6.841   0.710 -0.1742  0.1313  0.4046
    8CHTO  H204 2991   7.583   6.919   0.729 -1.6634  0.1219 -3.0199
    8CHTO  C109 2992   7.388   6.697   0.776  0.4262  0.3647 -0.0582
    8CHTO  H213 2993   7.452   6.760   0.839 -1.6663  2.5104 -0.0144
    8CHTO  C110 2994   7.332   6.565   0.846  0.2714 -0.8657  0.0916
    8CHTO  H214 2995   7.257   6.516   0.783  0.4581  0.1762 -0.9516
    8CHTO   O78 2996   7.279   6.603   0.974  0.0163  0.1557  0.3224
    8CHTO  H200 2997   7.191   6.629   0.955  0.1086  0.2412 -0.0031
    8CHTO  C111 2998   7.448   6.463   0.866 -0.5984 -0.0975  0.2628
    8CHTO  H215 2999   7.520   6.510   0.936 -0.7514 -0.2157  0.5003
    8CHTO   N19 3000   7.415   6.332   0.927  0.1287 -0.3271  0.5810
    8CHTO  H207 3001   7.462   6.253   0.870  0.4212  0.8046 -0.7850
    8CHTO  H208 3002   7.307   6.332   0.928 -0.0210  0.5752 -3.8876
    8CHTO   O74 3003   7.281   6.777   0.735  0.0336  0.1125  0.2759
    8CHTO  C115 3004   7.245   6.895   0.819 -0.3915 -0.4128 -0.4169
    8CHTO  H219 3005   7.140   6.896   0.848  0.1591  0.9791  1.6546
    8CHTO   O76 3006   7.324   6.897   0.965  0.1796 -0.4666 -0.5806
    8CHTO  C122 3007   7.302   7.022   1.033 -0.2626  0.6780 -0.3634
    8CHTO  H226 3008   7.374   7.028   1.115 -1.0954  2.6227  0.2530
    8CHTO  C126 3009   7.169   7.024   1.110 -0.2987  0.1237  0.9449
    8CHTO   O85 3010   7.125   7.151   1.155 -0.1269 -0.1717 -0.2752
    8CHTO  H206 3011   7.108   7.201   1.078  1.9823 -2.5900 -2.4070
    8CHTO  C121 3012   7.330   7.152   0.933 -0.0872  0.4373  0.7840
    8CHTO  H225 3013   7.310   7.245   0.989 -0.0785 -0.8308  2.9640
    8CHTO   O81 3014   7.471   7.147   0.896  0.0379 -0.2541  0.0697
    8CHTO  H202 3015   7.509   7.233   0.898  2.8303 -1.4464  0.5213
    8CHTO  C119 3016   7.235   7.150   0.814  0.3715 -0.8026 -0.4017
    8CHTO  H223 3017   7.140   7.142   0.868  0.9557  2.3301  1.2004
    8CHTO  C117 3018   7.265   7.021   0.728  0.0286  0.4649 -0.0164
    8CHTO  H221 3019   7.370   7.004   0.701 -0.5596 -3.1082 -0.3205
    8CHTO   N20 3020   7.191   7.024   0.595  0.6253 -0.2300 -0.0561
    8CHTO  H209 3021   7.199   6.931   0.540  1.0360 -0.0755 -0.2624
    8CHTO  H210 3022   7.085   7.040   0.607  1.0696  2.6505  0.3535
    8CHTO   O80 3023   7.231   7.313   0.750  0.1374 -0.1827  0.2926
    8CHTO  C103 3024   7.176   7.441   0.832  0.2423 -0.2366 -0.5004
    8CHTO  H190 3025   7.098   7.407   0.900  0.6179  0.9208  0.5328
    8CHTO  C101 3026   7.277   7.542   0.898 -0.3012  0.2800  0.2058
    8CHTO  H188 3027   7.354   7.569   0.825 -2.0572 -1.0512 -2.2336
    8CHTO   O68 3028   7.332   7.478   1.015  0.4140  0.1015  0.9006
    8CHTO  H168 3029   7.359   7.395   0.981  2.0909  1.3290 -0.8856
    8CHTO   C99 3030   7.209   7.681   0.935  0.3627 -0.0960  0.7710
    8CHTO  H186 3031   7.125   7.659   1.004 -1.2890  2.7933 -0.2324
    8CHTO   N17 3032   7.299   7.776   0.996  0.2006 -0.2291  0.3145
    8CHTO  H174 3033   7.387   7.774   0.933  0.2683 -0.3409  0.4127
    8CHTO  H175 3034   7.322   7.731   1.091  1.6444 -1.6177 -0.6671
    8CHTO   C97 3035   7.147   7.741   0.810  0.4710 -0.1995  0.1992
    8CHTO  H184 3036   7.225   7.766   0.736  0.4705  3.2993  1.3161
    8CHTO   O64 3037   7.046   7.652   0.754 -0.2245  0.2011 -0.0980
    8CHTO  C104 3038   7.103   7.528   0.716  0.0279 -0.0942  0.5669
    8CHTO  H191 3039   7.175   7.542   0.636  0.3543 -0.7617  0.7386
    8CHTO  C108 3040   6.982   7.444   0.663 -0.1928  0.4872  0.3019
    8CHTO   O71 3041   6.918   7.513   0.554  0.0948  0.0973  0.3515
    8CHTO  H171 3042   6.985   7.528   0.490  0.1647 -2.7560 -0.3280
    8CHTO   O62 3043   7.073   7.859   0.833  0.6618  0.3782  0.6245
    8CHTO   C91 3044   7.120   7.985   0.774 -1.3126 -0.0244 -0.0609
    8CHTO  H178 3045   7.228   7.998   0.765 -1.4610  0.1958 -1.7653
    8CHTO   C92 3046   7.064   8.099   0.861 -0.1410 -0.2073 -0.1989
    8CHTO  H179 3047   6.956   8.084   0.862 -0.0585 -0.8193 -0.5502
    8CHTO   O66 3048   7.116   8.074   0.997 -0.3828  0.1565 -0.1962
    8CHTO  H166 3049   7.073   8.135   1.053 -2.5880 -3.3599  2.1578
    8CHTO   C93 3050   7.092   8.250   0.811  0.2474 -0.4694  0.3858
    8CHTO  H180 3051   7.201   8.258   0.821  0.1027 -0.3590  2.0618
    8CHTO   N16 3052   7.018   8.357   0.888 -0.4992  0.0034 -0.7961
    8CHTO  H172 3053   7.053   8.350   0.990  1.0534 -0.5982 -1.3597
    8CHTO  H173 3054   6.910   8.360   0.882 -0.5039  0.4253 -0.5339
    8CHTO   C94 3055   7.059   8.261   0.669  0.2163 -0.2160 -0.0813
    8CHTO  H181 3056   6.952   8.262   0.648  0.2221  2.3345 -0.1063
    8CHTO   O61 3057   7.111   8.150   0.593  0.4809 -0.1532 -0.3991
    8CHTO   C95 3058   7.066   8.020   0.625  0.2903  0.0469 -0.8713
    8CHTO  H182 3059   6.957   8.017   0.623  0.2757  0.3657 -0.4705
    8CHTO  C106 3060   7.114   7.917   0.507  0.6281  0.7507 -0.2555
    8CHTO   O69 3061   7.256   7.896   0.510 -0.6806  0.1423  0.0965
    8CHTO  H169 3062   7.311   7.968   0.485  1.2799 -2.0592 -2.1958
    8CHTO   O63 3063   7.148   8.415   0.610 -0.1422 -0.5054  0.0767
    8CHTO   C96 3064   7.113   8.451   0.467 -0.1342 -0.0788 -0.3549
    8CHTO  H183 3065   7.023   8.394   0.446  2.5567 -4.1008 -1.5046
    8CHTO   C98 3066   7.219   8.406   0.363  0.2834  0.3984 -0.2729
    8CHTO  H185 3067   7.321   8.444   0.381  0.5491  0.1886 -1.3049
    8CHTO   O67 3068   7.225   8.264   0.370  0.3386  0.4203 -0.2593
    8CHTO  H167 3069   7.308   8.238   0.334 -0.7712 -0.7737 -2.0142
    8CHTO  C102 3070   7.174   8.459   0.219 -0.3442 -0.1837 -1.3186
    8CHTO  H189 3071   7.091   8.393   0.190 -1.1987 -0.5966  1.8139
    8CHTO   N18 3072   7.280   8.446   0.119  0.2664  0.2672  0.5305
    8CHTO  H176 3073   7.371   8.498   0.146  0.0774 -0.2564  2.2748
    8CHTO  H177 3074   7.235   8.497   0.035 -0.2421 -0.0850  0.5853
    8CHTO  C105 3075   7.115   8.604   0.228  0.1169  0.4828  0.4857
    8CHTO  H192 3076   7.191   8.674   0.261  0.7429 -0.2522  0.6181
    8CHTO   O65 3077   7.014   8.611   0.325 -0.1554 -0.2932 -0.4337
    8CHTO  C100 3078   7.067   8.607   0.457 -0.2685 -0.0217 -0.2678
    8CHTO  H187 3079   7.155   8.669   0.478 -1.1352  1.2520 -0.3309
    8CHTO  C107 3080   6.941   8.654   0.542 -0.0882 -0.3489 -0.5083
    8CHTO   O70 3081   6.943   8.792   0.530 -0.9236 -0.5269 -0.0503
    8CHTO  H170 3082   6.865   8.827   0.491 -0.3702  1.2261  0.3580
    8CHTO   O57 3083   7.050   8.647   0.076  0.1728 -0.0645  0.4771
    8CHTO   C85 3084   7.091   8.780   0.040  0.0354  1.1782 -0.1784
    8CHTO  H157 3085   7.201   8.782   0.059  0.2056  1.4965 -1.1445
    8CHTO   C83 3086   7.034   8.891   0.130 -0.0155 -0.2285  0.1496
    8CHTO  H155 3087   7.087   8.878   0.225 -1.2509 -0.4368  0.8128
    8CHTO   O56 3088   6.898   8.851   0.164 -0.3790  0.0292  1.0647
    8CHTO  H135 3089   6.841   8.892   0.102  0.4780 -1.3343 -0.6791
    8CHTO   C81 3090   7.049   9.038   0.078  0.5645 -0.9325 -0.2915
    8CHTO  H153 3091   7.155   9.056   0.066  0.5380  0.0060  0.8052
    8CHTO   N14 3092   6.987   9.137   0.174 -0.2697  0.1751 -0.2780
    8CHTO  H141 3093   7.026   9.235   0.156  2.0911 -0.6948  0.0100
    8CHTO  H142 3094   6.880   9.144   0.164 -0.2777 -1.0682 -1.1888
    8CHTO   C79 3095   6.981   9.044  -0.063 -0.0073 -0.1458 -0.1441
    8CHTO  H151 3096   6.992   9.145  -0.101  0.9979 -0.8539 -1.7749
    8CHTO   O52 3097   7.058   8.959  -0.153 -0.3725 -0.1490  0.0145
    8CHTO   C86 3098   7.054   8.818  -0.118 -0.1069 -0.0127  0.2468
    8CHTO  H158 3099   6.947   8.796  -0.139 -0.0063 -1.0068  0.7552
    8CHTO   C90 3100   7.140   8.740  -0.225 -0.5454  0.3972  0.2544
    8CHTO   O60 3101   7.282   8.735  -0.203 -0.1563 -0.4386  0.0519
    8CHTO  H138 3102   7.319   8.683  -0.135  0.1778 -0.0740  0.1492
    8CHTO   O50 3103   6.840   9.013  -0.069  0.1717 -0.6186  0.0741
    8CHTO   C73 3104   6.730   9.042  -0.159 -0.3463 -0.6305 -0.2531
    8CHTO  H145 3105   6.757   9.029  -0.265  0.3058 -1.4649  0.0096
    8CHTO   C74 3106   6.691   9.190  -0.135 -1.2856 -0.5197  0.2414
    8CHTO  H146 3107   6.776   9.251  -0.167 -2.2277  0.3842 -0.5963
    8CHTO   O54 3108   6.584   9.235  -0.221  0.3421 -0.0538 -0.6317
    8CHTO  H133 3109   6.515   9.171  -0.231 -2.6103  3.2870 -2.8880
    8CHTO   C75 3110   6.652   9.214   0.006  0.2421 -0.1333  0.1677
    8CHTO  H147 3111   6.744   9.217   0.066  1.0033 -1.3976 -0.9071
    8CHTO   N13 3112   6.612   9.352   0.049 -0.1473 -0.3014  0.1764
    8CHTO  H139 3113   6.686   9.429   0.033 -1.3217  1.1476  1.6032
    8CHTO  H140 3114   6.529   9.370  -0.017 -0.1701 -1.8468 -0.2465
    8CHTO   C76 3115   6.550   9.101   0.058 -0.3468 -0.3231  0.1568
    8CHTO  H148 3116   6.448   9.131   0.033 -1.2778 -2.3214  1.4197
    8CHTO   O49 3117   6.580   8.959   0.014 -0.5021  0.1038 -0.5875
    8CHTO   C77 3118   6.610   8.956  -0.126  0.8389  0.5792 -0.1204
    8CHTO  H149 3119   6.524   8.994  -0.180  0.9583 -0.1250 -0.8269
    8CHTO   C88 3120   6.635   8.804  -0.152  0.8481  0.1966  0.1165
    8CHTO   O58 3121   6.526   8.709  -0.118  0.1481  0.0153 -0.1629
    8CHTO  H136 3122   6.464   8.769  -0.080 -0.3397  0.4120 -1.5388
    8CHTO   O51 3123   6.564   9.083   0.222 -0.2051  0.1426 -0.0145
    8CHTO   C78 3124   6.443   9.011   0.290  0.1483  0.5543  0.6926
    8CHTO  H150 3125   6.371   8.968   0.217 -1.3644 -0.0179  2.5061
    8CHTO   C80 3126   6.358   9.113   0.377 -0.2265  0.1733 -0.0342
    8CHTO  H152 3127   6.433   9.164   0.441 -0.3927 -1.1686  1.2545
    8CHTO   O55 3128   6.285   9.197   0.297  0.1335  0.0152  0.1095
    8CHTO  H134 3129   6.332   9.278   0.290 -0.3760  0.3092  0.0102
    8CHTO   C84 3130   6.258   9.045   0.471  0.1718  0.3459 -0.3732
    8CHTO  H156 3131   6.175   9.000   0.417  1.4030 -2.1622 -0.2623
    8CHTO   N15 3132   6.200   9.144   0.572 -0.1321  0.6334  0.1018
    8CHTO  H143 3133   6.117   9.198   0.528 -1.7556 -0.9057  1.2274
    8CHTO  H144 3134   6.168   9.089   0.657 -2.1257  1.1692 -0.2729
    8CHTO   C87 3135   6.320   8.925   0.549  0.3137  0.3158  0.1301
    8CHTO  H159 3136   6.396   8.968   0.614  0.9315  2.7498 -2.1078
    8CHTO   O53 3137   6.374   8.836   0.445 -0.0354 -0.3793 -0.0042
    8CHTO   C82 3138   6.490   8.894   0.379 -0.2339 -0.1918 -0.0429
    8CHTO  H154 3139   6.561   8.931   0.454 -0.2304  0.6982 -0.4755
    8CHTO   C89 3140   6.563   8.785   0.295 -0.1761 -0.0495  0.5095
    8CHTO   O59 3141   6.479   8.729   0.189  0.1830  0.1251 -0.7426
    8CHTO  H137 3142   6.428   8.655   0.216  0.8406 -0.5892 -1.4058
    8CHTO   O45 3143   6.214   8.842   0.620  0.3093  1.1327 -0.3785
    8CHTO   C67 3144   6.266   8.718   0.685  0.5845 -0.4663 -0.4948
    8CHTO  H124 3145   6.368   8.705   0.650  1.1872  2.3668  0.1205
    8CHTO   C65 3146   6.268   8.733   0.835  0.4428 -0.2866 -0.1885
    8CHTO  H122 3147   6.212   8.825   0.854 -0.4073 -0.8410  0.0075
    8CHTO   O44 3148   6.404   8.739   0.879  0.4666 -0.7609 -0.6840
    8CHTO  H102 3149   6.432   8.650   0.871  2.5487 -0.1122 -0.8671
    8CHTO   C63 3150   6.184   8.617   0.910  0.2975  0.3448  0.6828
    8CHTO  H120 3151   6.080   8.623   0.878  0.3032  0.1279  0.6193
    8CHTO   N11 3152   6.168   8.630   1.058  0.1324  0.2030  0.0833
    8CHTO  H108 3153   6.256   8.605   1.113  0.0429  0.0193  0.1425
    8CHTO  H109 3154   6.091   8.562   1.086 -1.8007  1.9326 -0.8719
    8CHTO   C61 3155   6.248   8.475   0.862 -0.1398 -0.2237 -0.7689
    8CHTO  H118 3156   6.193   8.390   0.904  0.9622 -1.6083 -2.0815
    8CHTO   O40 3157   6.236   8.466   0.717  0.2463  0.1347 -0.5578
    8CHTO   C68 3158   6.186   8.587   0.640  0.3497  0.3806 -0.3525
    8CHTO  H125 3159   6.078   8.603   0.660  0.1729 -0.3413 -0.7215
    8CHTO   C72 3160   6.204   8.548   0.495  0.5388  0.1649 -0.0922
    8CHTO   O48 3161   6.112   8.447   0.461 -0.0440 -0.1410 -0.0212
    8CHTO  H105 3162   6.109   8.441   0.367 -3.4679  1.0257 -0.0594
    8CHTO   O38 3163   6.387   8.465   0.897 -0.1657  1.1344 -0.9004
    8CHTO   C55 3164   6.450   8.334   0.882 -0.5651 -0.5383  0.1273
    8CHTO  H112 3165   6.402   8.272   0.805  0.5645 -2.6325  1.0671
    8CHTO   C56 3166   6.452   8.261   1.015 -0.5317 -0.3820  0.2177
    8CHTO  H113 3167   6.515   8.317   1.085  0.9079  0.3963 -1.6772
    8CHTO   O42 3168   6.318   8.263   1.073  0.2978 -0.0993 -0.1310
    8CHTO  H100 3169   6.313   8.276   1.166 -0.4952  0.5991 -0.2670
    8CHTO   C57 3170   6.503   8.119   0.995 -1.0011  0.3907 -0.1498
    8CHTO  H114 3171   6.444   8.055   0.930  0.9307  1.5869 -3.1753
    8CHTO   N10 3172   6.518   8.037   1.121 -1.0114 -0.5481 -0.0424
    8CHTO  H106 3173   6.536   8.111   1.198  2.7221 -0.5927 -0.7786
    8CHTO  H107 3174   6.426   7.988   1.146 -1.2598  0.7024  1.5991
    8CHTO   C58 3175   6.643   8.128   0.921 -0.4429 -0.2768  0.1448
    8CHTO  H115 3176   6.728   8.165   0.983  0.3302  0.3754 -1.2946
    8CHTO   O37 3177   6.627   8.204   0.802  0.1680 -0.5479 -0.8603
    8CHTO   C59 3178   6.599   8.342   0.831  0.4801 -0.3341  0.2270
    8CHTO  H116 3179   6.664   8.398   0.899 -0.4053 -0.7042  1.3824
    8CHTO   C70 3180   6.617   8.419   0.696 -0.2436 -0.0652 -0.4486
    8CHTO   O46 3181   6.615   8.558   0.722  0.2416  0.4650 -0.4443
    8CHTO  H103 3182   6.660   8.587   0.799 -0.6053  0.0330  0.2235
    8CHTO   O39 3183   6.679   7.979   0.865  0.4920  0.1766 -0.2024
    8CHTO   C60 3184   6.611   7.926   0.752  0.1369 -0.0373  0.9789
    8CHTO  H117 3185   6.523   7.987   0.733 -0.4015 -0.7897  1.0227
    8CHTO   C62 3186   6.694   7.924   0.617  0.4485  0.0424  0.4156
    8CHTO  H119 3187   6.742   8.022   0.599  0.9516  0.6245  4.4168
    8CHTO   O43 3188   6.805   7.836   0.639  0.3636 -0.5750  0.6993
    8CHTO  H101 3189   6.872   7.853   0.575 -0.7967 -2.1850 -1.0266
    8CHTO   C66 3190   6.613   7.887   0.483 -0.2390  0.1514 -0.4072
    8CHTO  H123 3191   6.537   7.963   0.469 -0.5548 -0.2467 -0.8590
    8CHTO   N12 3192   6.698   7.888   0.360  0.6333  0.4521  0.0704
    8CHTO  H110 3193   6.785   7.824   0.368 -0.5097 -1.1638 -0.1025
    8CHTO  H111 3194   6.631   7.844   0.288 -0.4110 -0.5434  1.6084
    8CHTO   C69 3195   6.539   7.750   0.500 -0.4048  0.2641  0.0428
    8CHTO  H126 3196   6.604   7.665   0.469  1.0374  0.2382  2.9478
    8CHTO   O41 3197   6.491   7.712   0.649 -0.6854 -1.1490  0.8891
    8CHTO   C64 3198   6.559   7.781   0.770 -0.2037 -0.9088 -0.4091
    8CHTO  H121 3199   6.645   7.719   0.802  0.7777  0.8284  0.4073
    8CHTO   C71 3200   6.450   7.778   0.882 -0.3876 -0.2805 -0.9254
    8CHTO   O47 3201   6.326   7.837   0.839  0.1771 -0.1172  0.1476
    8CHTO  H104 3202   6.260   7.840   0.905 -0.2572  1.4025 -0.3191
    8CHTO   O34 3203   6.423   7.743   0.400  0.3249 -0.6519  0.7989
    8CHTO   C49 3204   6.271   7.782   0.381 -0.4101  0.8484 -0.6683
    8CHTO   H91 3205   6.247   7.740   0.283 -1.9403  1.4091 -0.5455
    8CHTO   C47 3206   6.264   7.934   0.363 -0.7957  0.2583  0.4995
    8CHTO   H89 3207   6.159   7.947   0.331 -0.8472 -0.5808  0.3163
    8CHTO   O33 3208   6.358   7.968   0.257 -0.9048  0.0871 -0.1324
    8CHTO   H70 3209   6.444   7.977   0.294 -2.0816  0.7188  2.6008
    8CHTO   C45 3210   6.288   8.009   0.501  0.9889 -0.5943 -0.0954
    8CHTO   H87 3211   6.371   7.970   0.561  0.4307 -1.4235  0.1444
    8CHTO    N8 3212   6.312   8.157   0.484  0.1016 -0.1473  0.1123
    8CHTO   H75 3213   6.369   8.183   0.396  0.7650  1.6258  1.0441
    8CHTO   H76 3214   6.363   8.200   0.569  0.4332  0.7844 -0.5528
    8CHTO   C43 3215   6.169   7.970   0.596  0.3282 -0.2565  0.2573
    8CHTO   H85 3216   6.183   8.016   0.693  1.0499 -0.4797  0.2630
    8CHTO   O29 3217   6.163   7.826   0.603 -0.0888  0.4782 -0.1956
    8CHTO   C50 3218   6.165   7.744   0.485  0.2622  0.3440 -0.2779
    8CHTO   H92 3219   6.186   7.639   0.510 -0.8098 -0.1452 -1.3472
    8CHTO   C54 3220   6.020   7.740   0.420 -0.0601  0.2029 -0.4471
    8CHTO   O36 3221   5.939   7.646   0.495  0.1455 -0.2259  0.0023
    8CHTO   H72 3222   5.868   7.611   0.445 -0.7619 -1.6509  2.1933
    8CHTO   O27 3223   6.048   8.027   0.542 -0.1220  0.2494  0.1437
    8CHTO   C37 3224   5.931   8.094   0.580 -0.1092  0.3978  0.9741
    8CHTO   H79 3225   5.864   8.028   0.636 -1.4175  0.6212 -0.2750
    8CHTO   C38 3226   5.960   8.208   0.678 -0.2054 -0.2899  0.2896
    8CHTO   H80 3227   6.055   8.261   0.661  1.5321 -2.2640  3.3374
    8CHTO   O31 3228   5.993   8.148   0.806 -0.2445 -0.1172  0.0586
    8CHTO   H68 3229   6.077   8.108   0.800 -0.8725 -2.1729  3.7960
    8CHTO   C39 3230   5.840   8.307   0.691 -0.3995  0.0342  0.6303
    8CHTO   H81 3231   5.756   8.259   0.741  0.3768 -2.4344 -0.3385
    8CHTO    N7 3232   5.878   8.421   0.787  0.1898 -0.2996 -0.3472
    8CHTO   H73 3233   5.790   8.436   0.848 -0.2967 -3.2781 -0.2020
    8CHTO   H74 3234   5.912   8.512   0.742 -0.9247  0.1079 -0.3839
    8CHTO   C40 3235   5.795   8.357   0.546  0.5240 -0.3140  0.1831
    8CHTO   H82 3236   5.874   8.407   0.491 -1.7098  2.4087 -0.6653
    8CHTO   O26 3237   5.748   8.242   0.476  0.6384  0.0306 -0.3333
    8CHTO   C41 3238   5.860   8.148   0.446  0.6249  0.3079 -0.1792
    8CHTO   H83 3239   5.933   8.207   0.389  2.1743 -0.5609  0.8656
    8CHTO   C52 3240   5.814   8.030   0.360  0.5974 -0.5496 -0.8933
    8CHTO   O35 3241   5.767   8.062   0.231  0.2859 -0.5735  0.2387
    8CHTO   H71 3242   5.673   8.057   0.227  0.1071 -0.0803  2.8289
    8CHTO   O28 3243   5.681   8.448   0.562 -0.4383  0.1805 -0.3917
    8CHTO   C42 3244   5.652   8.551   0.463 -0.6647  0.4282 -0.3387
    8CHTO   H84 3245   5.562   8.603   0.494 -0.3928  0.9329 -0.3987
    8CHTO   C44 3246   5.613   8.483   0.323  0.3497  0.2828  0.4150
    8CHTO   H86 3247   5.702   8.430   0.288 -0.5064 -0.3416 -0.8692
    8CHTO   O32 3248   5.518   8.378   0.345 -0.1184 -0.3316 -0.1027
    8CHTO   H69 3249   5.540   8.308   0.287 -0.8717 -3.7218  3.5380
    8CHTO   C48 3250   5.570   8.602   0.222 -0.1210  0.9045 -0.8039
    8CHTO   H90 3251   5.473   8.647   0.240 -0.6950 -0.8391  0.5736
    8CHTO    N9 3252   5.541   8.540   0.086  0.9360 -0.5041 -0.0651
    8CHTO   H77 3253   5.634   8.509   0.039  1.8651 -0.3294  1.6090
    8CHTO   H78 3254   5.503   8.616   0.020 -1.2647  1.2743  3.1537
    8CHTO   C51 3255   5.677   8.714   0.214 -0.1776 -0.6944 -0.1239
    8CHTO   H93 3256   5.769   8.675   0.169 -1.1974 -2.0288 -1.0684
    8CHTO   O30 3257   5.703   8.769   0.345  0.2195 -0.0676 -0.0342
    8CHTO   C46 3258   5.757   8.659   0.447 -0.3318 -0.7146  0.7652
    8CHTO   H88 3259   5.845   8.611   0.402 -0.1667  0.4436 -0.1884
    8CHTO   C53 3260   5.803   8.720   0.580  0.3152  0.8723 -0.3229
    8CHTO   O72 3261   5.906   8.813   0.564  0.0308 -0.0641  0.5785
    8CHTO  H199 3262   5.919   8.865   0.641  2.3272 -0.2192  0.3127
    8CHTO   O22 3263   5.634   8.826   0.131 -0.4914 -0.2938 -0.8095
    8CHTO   C31 3264   5.714   8.904   0.038  0.8745 -0.1911 -0.0821
    8CHTO   H59 3265   5.652   8.992   0.010 -0.9580 -1.1262  0.9039
    8CHTO   C29 3266   5.844   8.963   0.097 -0.0107 -0.1850 -0.1742
    8CHTO   H57 3267   5.899   8.879   0.141  1.0851  0.8432  0.4623
    8CHTO   O21 3268   5.810   9.059   0.199 -0.3492 -0.6512 -0.1054
    8CHTO   H37 3269   5.827   9.020   0.282  0.7897  0.6209  0.2823
    8CHTO   C27 3270   5.939   9.032  -0.009  0.5275 -0.1486 -0.3850
    8CHTO   H55 3271   5.882   9.116  -0.050 -4.0043 -2.7576  0.1437
    8CHTO    N5 3272   6.069   9.076   0.048  0.1433  0.1552 -0.0071
    8CHTO   H43 3273   6.109   9.138  -0.031  0.0013  0.3679  0.0860
    8CHTO   H44 3274   6.045   9.147   0.126  0.1936  2.1266 -1.7446
    8CHTO   C25 3275   5.962   8.921  -0.113  0.0043 -0.3749 -0.0085
    8CHTO   H53 3276   6.020   8.842  -0.063  3.3955  1.6993 -0.4835
    8CHTO   O17 3277   5.835   8.894  -0.178  0.1514 -0.1859 -0.5703
    8CHTO   C32 3278   5.742   8.826  -0.091 -0.1493  0.2719  1.5756
    8CHTO   H60 3279   5.777   8.726  -0.065 -1.4134 -1.0220 -1.4197
    8CHTO   C36 3280   5.608   8.803  -0.176  0.2403  0.2116  0.3360
    8CHTO   O25 3281   5.622   8.697  -0.272 -0.4077  0.4377  0.4239
    8CHTO   H40 3282   5.613   8.726  -0.361 -0.2548  0.7485  0.5074
    8CHTO   O15 3283   6.074   8.988  -0.243  0.8730  0.2733  0.2170
    8CHTO   C19 3284   6.165   8.957  -0.346  0.4450 -0.8191  0.3421
    8CHTO   H47 3285   6.101   8.916  -0.426 -0.0503 -1.4977  1.0900
    8CHTO   C20 3286   6.237   9.085  -0.409 -0.8699  0.2157 -0.2167
    8CHTO   H48 3287   6.293   9.138  -0.330 -0.7660  0.5302 -0.5021
    8CHTO   O19 3288   6.140   9.182  -0.454  0.0730  0.0730 -0.4370
    8CHTO   H35 3289   6.057   9.157  -0.489 -0.8479  1.5422  0.6792
    8CHTO   C21 3290   6.344   9.063  -0.521  0.1261 -0.8360 -0.0338
    8CHTO   H49 3291   6.290   9.035  -0.612 -0.2536 -1.7173  0.4543
    8CHTO    N4 3292   6.427   9.187  -0.553  0.2819 -0.0931 -0.1607
    8CHTO   H41 3293   6.518   9.168  -0.609 -0.0146  0.7409 -0.9354
    8CHTO   H42 3294   6.364   9.246  -0.617 -0.7539 -1.3558 -0.3276
    8CHTO   C22 3295   6.425   8.939  -0.487  0.5377  0.0390 -0.2256
    8CHTO   H50 3296   6.494   8.968  -0.408 -0.8778 -0.4013  1.1905
    8CHTO   O14 3297   6.340   8.833  -0.441 -0.7705  0.1403 -0.1278
    8CHTO   C23 3298   6.271   8.849  -0.315  0.5183  0.1664 -0.3981
    8CHTO   H51 3299   6.346   8.884  -0.242  1.3555  0.7162 -1.5141
    8CHTO   C34 3300   6.213   8.708  -0.287 -0.1357 -0.0635  0.3400
    8CHTO   O23 3301   6.315   8.604  -0.281  0.5096 -1.0482 -0.2476
    8CHTO   H38 3302   6.381   8.644  -0.227  0.1047 -3.5358  2.2188
    8CHTO   O16 3303   6.495   8.885  -0.596 -0.4499 -0.2289  0.4890
    8CHTO   C24 3304   6.616   8.819  -0.567 -0.7402  0.8356  0.4192
    8CHTO   H52 3305   6.628   8.806  -0.459 -1.7982  1.9992  0.6777
    8CHTO   C26 3306   6.738   8.907  -0.608  0.3811 -0.4193 -0.1328
    8CHTO   H54 3307   6.721   8.943  -0.712  2.4766 -2.7552 -1.3265
    8CHTO   O20 3308   6.732   9.034  -0.540 -0.2964 -0.1957  0.1454
    8CHTO   H36 3309   6.802   9.040  -0.478 -1.4149  0.7607  1.3462
    8CHTO   C30 3310   6.879   8.837  -0.611 -0.2519  0.0127 -0.1974
    8CHTO   H58 3311   6.909   8.816  -0.508 -0.6393 -0.3184 -0.1522
    8CHTO    N6 3312   6.986   8.919  -0.676 -0.4192 -0.1949  0.0169
    8CHTO   H45 3313   7.054   8.977  -0.616  1.9097 -0.6915 -2.0132
    8CHTO   H46 3314   6.941   8.986  -0.747 -1.4398  0.2143  1.0358
    8CHTO   C33 3315   6.867   8.702  -0.682  0.7104  0.3791  0.2040
    8CHTO   H61 3316   6.831   8.718  -0.785 -0.9196 -0.0679  0.6892
    8CHTO   O18 3317   6.762   8.625  -0.613  0.6177 -0.5264  0.4681
    8CHTO   C28 3318   6.626   8.678  -0.626 -0.5376 -0.1328  0.5224
    8CHTO   H56 3319   6.606   8.692  -0.733 -0.8390  1.6856  0.8036
    8CHTO   C35 3320   6.527   8.575  -0.560 -0.3852  0.1379 -0.8579
    8CHTO   O24 3321   6.500   8.463  -0.643  0.2511  0.4412  0.7556
    8CHTO   H39 3322   6.444   8.406  -0.594 -1.3190  1.9148  0.7204
    8CHTO    O9 3323   6.985   8.625  -0.690  0.3533 -0.0290  0.3131
    8CHTO   C13 3324   6.974   8.459  -0.784 -0.2008 -0.0274  0.3600
    8CHTO   H26 3325   6.960   8.474  -0.893  2.6218 -0.7169 -0.1426
    8CHTO   C11 3326   6.864   8.368  -0.721  0.0031 -0.0149  0.1840
    8CHTO   H24 3327   6.762   8.400  -0.748  0.2941  1.9011  1.2493
    8CHTO    O8 3328   6.884   8.370  -0.584  0.3691  0.1147 -0.5923
    8CHTO    H3 3329   6.830   8.307  -0.540  1.4640  0.4515  1.2876
    8CHTO    C9 3330   6.874   8.225  -0.776  0.0173 -1.1146 -0.5835
    8CHTO   H22 3331   6.858   8.237  -0.884 -3.5788  0.2552  0.0221
    8CHTO    N2 3332   6.755   8.144  -0.740  0.1844 -0.1890 -0.2220
    8CHTO   H10 3333   6.669   8.160  -0.803 -0.1916  0.4500  0.4559
    8CHTO   H11 3334   6.726   8.175  -0.641  0.6048 -1.9707  0.4891
    8CHTO    C7 3335   7.017   8.152  -0.751  0.2408  1.1963 -0.1303
    8CHTO   H20 3336   7.055   8.114  -0.848 -0.3121 -0.1721  0.1755
    8CHTO    O4 3337   7.114   8.254  -0.709  0.1486  0.1130  0.2519
    8CHTO   C14 3338   7.115   8.377  -0.783  0.0270 -0.2187  0.0505
    8CHTO   H27 3339   7.137   8.348  -0.888  1.6231 -0.9751  0.5819
    8CHTO   C18 3340   7.228   8.476  -0.734  0.8690  0.5261 -0.6722
    8CHTO   O13 3341   7.254   8.598  -0.810 -0.9482  0.4153 -0.7973
    8CHTO    H7 3342   7.175   8.628  -0.850 -1.7165 -1.8034 -1.0070
    8CHTO    O2 3343   7.008   8.025  -0.615 -0.0492 -0.2978 -0.1771
    8CHTO    C1 3344   7.068   7.895  -0.632  0.1973  0.1609  0.7094
    8CHTO   H14 3345   7.108   7.866  -0.533  1.5569 -0.3172  0.0392
    8CHTO    C2 3346   7.188   7.896  -0.739 -0.2009 -0.0322  0.0341
    8CHTO   H15 3347   7.149   7.931  -0.835 -1.4756 -2.8804 -0.5479
    8CHTO    O6 3348   7.298   7.985  -0.702 -0.2794  0.4967  0.0817
    8CHTO    H1 3349   7.324   7.977  -0.612  1.4884 -3.0363 -0.6897
    8CHTO    C3 3350   7.246   7.751  -0.755 -0.5036  0.3237  0.5780
    8CHTO   H16 3351   7.296   7.724  -0.661  0.5035  1.9304  0.5243
    8CHTO    N1 3352   7.346   7.738  -0.864 -0.0418  0.2432  0.7237
    8CHTO    H8 3353   7.447   7.759  -0.831  1.0463 -1.8446 -1.0854
    8CHTO    H9 3354   7.329   7.799  -0.952 -0.9111 -1.9886 -0.7110
    8CHTO    C4 3355   7.131   7.646  -0.771  0.0527  0.2129 -0.2902
    8CHTO   H17 3356   7.076   7.662  -0.863 -2.3325 -0.3411  0.9894
    8CHTO    O1 3357   7.039   7.655  -0.666 -0.2269 -0.2174 -0.1488
    8CHTO    C5 3358   6.970   7.781  -0.655  0.2210 -0.7010  0.9231
    8CHTO   H18 3359   6.911   7.805  -0.744  3.0788  0.0449 -0.8117
    8CHTO   C16 3360   6.870   7.777  -0.543 -0.1272  0.1545  0.1743
    8CHTO   O11 3361   6.750   7.713  -0.574 -0.0862  0.0649  0.1660
    8CHTO    H5 3362   6.700   7.756  -0.640 -1.0060  0.0531  0.8521
    8CHTO    O3 3363   7.187   7.516  -0.760  0.2991  0.8161  0.0376
    8CHTO    C6 3364   7.114   7.396  -0.815 -0.1802 -0.8692 -0.1585
    8CHTO   H19 3365   7.014   7.430  -0.844  0.1955  0.7515  0.4335
    8CHTO    C8 3366   7.192   7.350  -0.942  0.1271  0.3147 -0.1578
    8CHTO   H21 3367   7.297   7.343  -0.917 -0.0227  1.4764  0.8329
    8CHTO    O7 3368   7.166   7.455  -1.041  0.6217 -0.4164  0.4976
    8CHTO    H2 3369   7.080   7.443  -1.075  0.5859 -1.2534  0.8890
    8CHTO   C12 3370   7.135   7.216  -0.997 -0.6733 -0.5482  0.0666
    8CHTO   H25 3371   7.035   7.236  -1.040 -0.0218  0.1108 -1.1616
    8CHTO    N3 3372   7.226   7.165  -1.111  0.2166 -0.5772 -0.4907
    8CHTO   H12 3373   7.282   7.074  -1.093 -1.3049 -1.3096  0.6739
    8CHTO   H13 3374   7.163   7.160  -1.198 -0.3195 -0.7144 -0.1016
    8CHTO   C15 3375   7.117   7.110  -0.884 -0.4272  0.3319 -0.2615
    8CHTO   H28 3376   7.211   7.078  -0.840  0.9088  2.3948 -1.5197
    8CHTO   O10 3377   7.045   7.013  -0.919  0.7172 -0.0658 -0.3999
    8CHTO    H4 3378   7.078   6.925  -0.927 -0.2200 -0.4736  0.1759
    8CHTO    O5 3379   7.032   7.173  -0.785 -0.7048  0.2274  0.2073
    8CHTO   C10 3380   7.088   7.284  -0.716 -0.4610 -0.4909 -0.1675
    8CHTO   H23 3381   7.184   7.258  -0.672 -0.8591 -3.0316 -0.7516
    8CHTO   C17 3382   6.993   7.319  -0.595  0.9029  0.9223  0.0186
    8CHTO   O12 3383   7.066   7.409  -0.512 -0.5740  0.0585  0.0482
    8CHTO    H6 3384   7.138   7.362  -0.474 -0.8214 -1.7614 -1.6124
    9CHTO  H203 3385   6.882   3.330   3.540 -1.8915  1.3539 -2.2108
    9CHTO   O82 3386   6.904   3.245   3.508  0.2423  0.5182  1.1900
    9CHTO  C123 3387   7.045   3.244   3.520 -0.2494  0.5956 -0.5664
    9CHTO  H227 3388   7.069   3.265   3.626  0.4910  1.9833 -0.9951
    9CHTO   O77 3389   7.082   3.103   3.494  0.1578  0.2384  0.4391
    9CHTO  C118 3390   7.221   3.074   3.501  0.2401  0.0262  0.0722
    9CHTO  H222 3391   7.250   3.115   3.599  0.4511 -1.0913  0.4853
    9CHTO  C125 3392   7.238   2.922   3.501  0.1671  0.6444 -0.5147
    9CHTO   O84 3393   7.222   2.862   3.632 -0.0937 -0.0073  0.7852
    9CHTO  H205 3394   7.302   2.865   3.681  0.4432 -1.3018  0.0031
    9CHTO  C114 3395   7.286   3.150   3.380 -1.2290  1.0168 -0.7465
    9CHTO  H218 3396   7.240   3.111   3.289 -2.4782 -0.9110  0.6603
    9CHTO  C116 3397   7.261   3.305   3.389  0.2222  0.1535  0.8427
    9CHTO  H220 3398   7.316   3.341   3.479  0.5770 -2.6109  1.8008
    9CHTO   O79 3399   7.323   3.368   3.276 -0.3621 -0.2101 -0.1851
    9CHTO  H201 3400   7.268   3.362   3.201 -0.8360  0.6370  0.0893
    9CHTO  C120 3401   7.107   3.337   3.411  0.0401  0.1869 -0.2332
    9CHTO  H224 3402   7.061   3.329   3.310 -0.0930 -1.2403 -0.0740
    9CHTO   N21 3403   7.093   3.480   3.453  0.1692 -0.5050 -0.3643
    9CHTO  H211 3404   6.998   3.516   3.418  1.4339  2.6422 -0.6989
    9CHTO  H212 3405   7.173   3.540   3.413 -0.1213 -0.3477 -0.7082
    9CHTO   O75 3406   7.425   3.111   3.375  0.4307 -0.1126 -0.6885
    9CHTO  C112 3407   7.471   3.042   3.236 -0.0490  0.2140 -0.2406
    9CHTO  H216 3408   7.405   3.078   3.156 -0.8763  0.8349  0.7272
    9CHTO   O73 3409   7.464   2.902   3.253 -0.0841  0.1831  0.2389
    9CHTO  C113 3410   7.476   2.824   3.134  0.5434 -0.2797 -0.4540
    9CHTO  H217 3411   7.395   2.848   3.063  1.8251  2.3420 -1.0719
    9CHTO  C124 3412   7.452   2.677   3.173  0.5080 -0.3348 -0.3844
    9CHTO   O83 3413   7.328   2.664   3.246 -0.2750 -0.3547 -0.6108
    9CHTO  H204 3414   7.311   2.572   3.254 -0.2132 -0.3760 -0.7184
    9CHTO  C109 3415   7.615   2.844   3.074 -1.0027  0.4012 -0.0112
    9CHTO  H213 3416   7.684   2.783   3.134  1.0427 -0.2557 -2.9159
    9CHTO  C110 3417   7.656   2.998   3.069  0.2101 -0.0552  0.2366
    9CHTO  H214 3418   7.591   3.031   2.987  0.0327  0.7045  0.6720
    9CHTO   O78 3419   7.801   3.004   3.043  0.0194  0.0298 -0.2772
    9CHTO  H200 3420   7.819   3.086   3.001 -1.4360  0.5528  0.1004
    9CHTO  C111 3421   7.619   3.084   3.194 -0.0145  0.4895 -0.1504
    9CHTO  H215 3422   7.688   3.060   3.276  1.9377  0.0984 -1.8533
    9CHTO   N19 3423   7.633   3.235   3.175 -0.3369  0.2456 -0.3439
    9CHTO  H207 3424   7.635   3.287   3.270  0.1675  0.5562 -0.5254
    9CHTO  H208 3425   7.727   3.247   3.123 -0.7241  0.5502 -0.9685
    9CHTO   O74 3426   7.607   2.780   2.944 -0.0901 -0.2469  0.5404
    9CHTO  C115 3427   7.752   2.728   2.892 -0.5278  0.2986 -0.0118
    9CHTO  H219 3428   7.831   2.746   2.965 -1.8553 -3.0881  2.3901
    9CHTO   O76 3429   7.759   2.572   2.883 -0.2743  0.2123 -0.0755
    9CHTO  C122 3430   7.722   2.501   2.763 -0.3091 -0.9934 -0.0320
    9CHTO  H226 3431   7.613   2.501   2.773 -0.0382  1.8777  4.2729
    9CHTO  C126 3432   7.763   2.354   2.792 -0.5256  0.1533  0.8428
    9CHTO   O85 3433   7.726   2.247   2.695  0.2015 -0.0670  0.2411
    9CHTO  H206 3434   7.683   2.284   2.621 -0.1109 -1.4903 -0.3073
    9CHTO  C121 3435   7.772   2.570   2.630  0.7519  0.0224  0.8301
    9CHTO  H225 3436   7.882   2.561   2.633  0.7867  0.2461  0.2740
    9CHTO   O81 3437   7.714   2.502   2.515  0.2579  0.3665 -0.0725
    9CHTO  H202 3438   7.781   2.494   2.450 -1.0741  0.4445 -1.4940
    9CHTO  C119 3439   7.733   2.715   2.639  0.0994 -0.4738  0.1511
    9CHTO  H223 3440   7.769   2.759   2.546 -1.5357 -1.8290 -1.1612
    9CHTO  C117 3441   7.793   2.802   2.759 -0.5059 -0.5070  0.5113
    9CHTO  H221 3442   7.738   2.895   2.771  2.7772  1.5159  0.3956
    9CHTO   N20 3443   7.935   2.837   2.733  0.2845  0.5542 -0.0908
    9CHTO  H209 3444   7.932   2.916   2.659 -0.3735  0.7223  0.1126
    9CHTO  H210 3445   7.980   2.749   2.689 -1.6495  0.2041 -1.4441
    9CHTO   O80 3446   7.579   2.741   2.624 -0.6045 -0.4577 -0.3800
    9CHTO  C103 3447   7.525   2.862   2.555  0.6287  0.0981 -0.1843
    9CHTO  H190 3448   7.576   2.953   2.587  0.3453  0.2688 -0.2121
    9CHTO  C101 3449   7.546   2.861   2.393  0.2637 -0.7017  0.3329
    9CHTO  H188 3450   7.507   2.770   2.345  0.7981 -0.7371 -0.0355
    9CHTO   O68 3451   7.697   2.866   2.365 -0.1151  0.4822 -0.6878
    9CHTO  H168 3452   7.712   2.854   2.273 -0.6518 -2.5141 -0.4370
    9CHTO   C99 3453   7.466   2.981   2.327  0.1348  0.2587 -0.1017
    9CHTO  H186 3454   7.509   3.083   2.342  1.3873 -0.5887  2.4567
    9CHTO   N17 3455   7.462   2.971   2.177  0.2264  0.2215  0.6085
    9CHTO  H174 3456   7.544   3.006   2.116 -1.1350  1.2377 -0.6600
    9CHTO  H175 3457   7.371   3.018   2.144  0.8482  1.4123  0.5570
    9CHTO   C97 3458   7.323   2.988   2.386  0.7444  0.0738 -0.2020
    9CHTO  H184 3459   7.276   2.896   2.349  1.9968 -0.2208 -1.0990
    9CHTO   O64 3460   7.319   2.994   2.532 -0.4067  0.5108  0.4201
    9CHTO  C104 3461   7.371   2.876   2.594  1.0746 -0.0592 -0.2283
    9CHTO  H191 3462   7.315   2.795   2.546  0.7087  0.5221 -0.7876
    9CHTO  C108 3463   7.336   2.880   2.744  0.1864  0.0193  0.3276
    9CHTO   O71 3464   7.199   2.863   2.745  0.8253  0.3111 -0.3624
    9CHTO  H171 3465   7.164   2.780   2.770  0.7696  1.2145  2.7704
    9CHTO   O62 3466   7.255   3.113   2.350  0.7092  0.2675  0.4914
    9CHTO   C91 3467   7.139   3.093   2.272  0.1348  0.2430 -0.3288
    9CHTO  H178 3468   7.165   3.021   2.195 -2.1207  0.3046 -1.1999
    9CHTO   C92 3469   7.109   3.226   2.197 -0.1291 -0.4242  0.6312
    9CHTO  H179 3470   7.202   3.261   2.149  0.4282  1.2183  2.7872
    9CHTO   O66 3471   7.017   3.197   2.090 -0.4725  0.0053  0.1540
    9CHTO  H166 3472   7.061   3.141   2.027  0.3093  0.4507  0.2955
    9CHTO   C93 3473   7.047   3.334   2.294 -0.0010  0.2840  0.0287
    9CHTO  H180 3474   7.015   3.404   2.216  3.5251 -0.4387 -2.1623
    9CHTO   N16 3475   7.140   3.413   2.376  0.2308  0.3050  0.1411
    9CHTO  H172 3476   7.207   3.461   2.306 -0.1913  0.5206 -0.1208
    9CHTO  H173 3477   7.194   3.354   2.449  0.0209  0.6428  0.5718
    9CHTO   C94 3478   6.920   3.277   2.366  0.3001 -0.0401  0.9673
    9CHTO  H181 3479   6.927   3.282   2.475  0.3560  2.5109  0.8763
    9CHTO   O61 3480   6.895   3.138   2.343 -0.5133 -0.2583  0.4577
    9CHTO   C95 3481   7.011   3.058   2.363  0.0961 -0.2205 -0.3014
    9CHTO  H182 3482   7.038   3.065   2.468  1.1239  4.0528 -0.7520
    9CHTO  C106 3483   6.979   2.912   2.331  0.6946  0.4192 -0.0517
    9CHTO   O69 3484   6.924   2.875   2.201 -0.4142 -0.0282  0.0691
    9CHTO  H169 3485   6.842   2.916   2.182 -1.3029 -2.0351 -0.5549
    9CHTO   O63 3486   6.791   3.369   2.316  0.2060 -0.6274  0.4772
    9CHTO   C96 3487   6.660   3.361   2.426 -0.2141  0.2727 -0.4038
    9CHTO  H183 3488   6.681   3.329   2.528 -0.7199 -0.4508 -0.5238
    9CHTO   C98 3489   6.549   3.264   2.382  0.2835  0.4079  0.1384
    9CHTO  H185 3490   6.531   3.280   2.275  1.0104 -1.8074 -0.3376
    9CHTO   O67 3491   6.613   3.133   2.394  1.0694 -0.2937  0.2193
    9CHTO  H167 3492   6.562   3.060   2.366  0.7946 -0.2449  0.5982
    9CHTO  C102 3493   6.421   3.267   2.471 -0.6062  0.2853  1.1385
    9CHTO  H189 3494   6.458   3.228   2.567  0.6109  1.0438  0.9961
    9CHTO   N18 3495   6.310   3.171   2.427  0.2373 -0.2257 -0.3811
    9CHTO  H176 3496   6.234   3.229   2.377 -0.3456  1.0312  1.8920
    9CHTO  H177 3497   6.273   3.126   2.518  0.4331 -0.5087 -0.4408
    9CHTO  C105 3498   6.378   3.418   2.472  0.3478  0.1867  0.0664
    9CHTO  H192 3499   6.343   3.442   2.372 -1.5659  0.2713  0.7298
    9CHTO   O65 3500   6.478   3.510   2.510  0.6548  0.3727 -0.2676
    9CHTO  C100 3501   6.592   3.506   2.419  0.0921 -0.2294 -0.5976
    9CHTO  H187 3502   6.560   3.513   2.314  0.1092 -0.9897 -0.6575
    9CHTO  C107 3503   6.698   3.614   2.455  0.1394  0.1316  0.2845
    9CHTO   O70 3504   6.637   3.744   2.450  0.0700  0.0341 -0.0795
    9CHTO  H170 3505   6.584   3.749   2.373  1.2558  1.3103 -0.8313
    9CHTO   O57 3506   6.258   3.424   2.583  0.4995  0.2005 -0.2711
    9CHTO   C85 3507   6.128   3.472   2.553  0.5292 -0.9248  0.1823
    9CHTO  H157 3508   6.083   3.398   2.485 -1.7091 -0.0468  0.6669
    9CHTO   C83 3509   6.127   3.603   2.473 -0.0784  0.3050 -0.2747
    9CHTO  H155 3510   6.165   3.587   2.373 -2.0017  1.2265 -1.1679
    9CHTO   O56 3511   6.214   3.699   2.538  0.0641  0.3619  0.6103
    9CHTO  H135 3512   6.267   3.739   2.471 -0.8059  0.4009 -0.0723
    9CHTO   C81 3513   5.980   3.652   2.451  0.4598 -0.4094 -0.1459
    9CHTO  H153 3514   5.927   3.570   2.404  1.1848 -0.7377 -0.4054
    9CHTO   N14 3515   5.968   3.760   2.348 -0.2678  0.1815  0.8332
    9CHTO  H141 3516   6.003   3.719   2.256 -0.3695  0.1935  0.7890
    9CHTO  H142 3517   5.866   3.791   2.339  0.4048  2.0325 -0.6132
    9CHTO   C79 3518   5.908   3.682   2.588 -0.4341  0.3868  0.2006
    9CHTO  H151 3519   5.804   3.706   2.563 -0.6432 -1.9983 -1.3137
    9CHTO   O52 3520   5.907   3.562   2.665  0.4775  0.3957  0.6703
    9CHTO   C86 3521   6.037   3.494   2.688  0.2512  0.0637  0.3735
    9CHTO  H158 3522   6.084   3.570   2.754 -0.5265  0.8722 -0.0054
    9CHTO   C90 3523   6.018   3.369   2.776  0.0509 -0.2863 -0.0475
    9CHTO   O60 3524   6.136   3.304   2.802 -0.0872  0.1526 -0.2297
    9CHTO  H138 3525   6.144   3.216   2.769  3.8688 -0.1783  1.3250
    9CHTO   O50 3526   5.963   3.795   2.658 -0.0518 -0.5761 -0.1947
    9CHTO   C73 3527   5.962   3.905   2.755 -0.0899  0.5001 -0.6322
    9CHTO  H145 3528   5.863   3.926   2.798  0.7993  1.9571  0.7815
    9CHTO   C74 3529   6.008   4.037   2.692 -0.3960  0.5468 -0.3441
    9CHTO  H146 3530   5.933   4.062   2.615 -1.3613 -0.0652  0.3837
    9CHTO   O54 3531   5.995   4.150   2.773 -0.2551 -0.3074  0.1969
    9CHTO  H133 3532   6.023   4.230   2.733  1.1682 -0.9220 -0.0685
    9CHTO   C75 3533   6.147   4.013   2.629 -0.5236  0.5185 -0.7149
    9CHTO  H147 3534   6.140   3.926   2.563  3.0093 -0.9015  0.6268
    9CHTO   N13 3535   6.204   4.123   2.547  0.4303 -0.4034  0.2902
    9CHTO  H139 3536   6.181   4.115   2.441  0.7140 -1.0467  0.2739
    9CHTO  H140 3537   6.312   4.122   2.544  0.4585  2.6571 -1.1200
    9CHTO   C76 3538   6.243   3.963   2.748  0.1642 -0.3428  0.3655
    9CHTO  H148 3539   6.251   4.046   2.819 -2.8310  1.0194 -0.8337
    9CHTO   O49 3540   6.183   3.854   2.826  0.3968  0.1913 -0.5103
    9CHTO   C77 3541   6.050   3.873   2.873  0.4252 -0.3356 -0.4218
    9CHTO  H149 3542   6.050   3.956   2.943  2.8751 -1.3154  0.7860
    9CHTO   C88 3543   6.002   3.747   2.949 -0.3127  0.3023  0.4317
    9CHTO   O58 3544   5.859   3.772   2.999  0.0050  0.3289  0.3361
    9CHTO  H136 3545   5.802   3.778   2.924  0.2735 -0.1829  0.0858
    9CHTO   O51 3546   6.370   3.915   2.702 -0.6228 -0.6284 -0.2929
    9CHTO   C78 3547   6.496   3.903   2.787  0.1048  0.1052  0.9807
    9CHTO  H150 3548   6.472   3.941   2.888  0.8827  0.3361  1.0837
    9CHTO   C80 3549   6.600   3.992   2.719 -0.1719  0.1420  0.1580
    9CHTO  H152 3550   6.625   3.953   2.618  2.7074 -1.1809  1.3089
    9CHTO   O55 3551   6.542   4.128   2.730 -0.2279 -0.0275 -0.1718
    9CHTO  H134 3552   6.583   4.184   2.793 -0.2809 -1.5673  1.2859
    9CHTO   C84 3553   6.732   3.974   2.794 -0.2258  0.2672  0.5325
    9CHTO  H156 3554   6.728   4.031   2.887 -0.7288  1.9277 -0.4898
    9CHTO   N15 3555   6.837   4.042   2.718  0.4981  0.4269 -0.0029
    9CHTO  H143 3556   6.934   4.032   2.762  1.3877  2.9114 -1.2981
    9CHTO  H144 3557   6.817   4.147   2.707 -1.9022  0.1144  0.9999
    9CHTO   C87 3558   6.777   3.829   2.817 -0.5507 -0.1446 -1.0000
    9CHTO  H159 3559   6.811   3.780   2.725 -0.2777 -0.9876 -0.4609
    9CHTO   O53 3560   6.655   3.735   2.863  0.4522 -0.0983 -0.1809
    9CHTO   C82 3561   6.535   3.753   2.785 -0.6641  0.1365 -0.2703
    9CHTO  H154 3562   6.547   3.718   2.682 -3.3407 -0.5236 -0.3845
    9CHTO   C89 3563   6.425   3.668   2.848 -0.0653  0.0130  0.6322
    9CHTO   O59 3564   6.408   3.681   2.989 -0.6807 -0.4037 -0.3720
    9CHTO  H137 3565   6.337   3.625   3.014 -2.5363  1.7078 -0.6044
    9CHTO   O45 3566   6.907   3.823   2.923 -0.1127 -0.2170  0.0098
    9CHTO   C67 3567   6.955   3.689   2.937 -0.6458  0.5749  0.1763
    9CHTO  H124 3568   6.867   3.626   2.950  0.4436 -0.7240  1.4033
    9CHTO   C65 3569   7.040   3.634   2.819  0.5528  0.2770 -0.4484
    9CHTO  H122 3570   7.087   3.720   2.772  0.1023  1.6945  1.6322
    9CHTO   O44 3571   6.942   3.590   2.724  0.3938  0.2043 -0.1944
    9CHTO  H102 3572   6.959   3.648   2.652  0.1148 -1.5632 -1.7234
    9CHTO   C63 3573   7.157   3.543   2.866  0.5960  0.0531  0.5719
    9CHTO  H120 3574   7.235   3.604   2.911  0.7035  0.4207 -0.1034
    9CHTO   N11 3575   7.234   3.460   2.763 -0.1853  0.8963  0.1004
    9CHTO  H108 3576   7.319   3.405   2.798 -0.9052 -0.5649 -0.4506
    9CHTO  H109 3577   7.269   3.530   2.690  1.8402 -0.1831  0.0010
    9CHTO   C61 3578   7.099   3.457   2.978 -0.5097 -0.4139 -0.4798
    9CHTO  H118 3579   7.169   3.381   3.014 -1.6275 -1.5413 -0.6341
    9CHTO   O40 3580   7.075   3.538   3.091  0.3147  0.1341  0.3205
    9CHTO   C68 3581   7.035   3.678   3.069 -0.3970  0.2642 -1.2019
    9CHTO  H125 3582   7.124   3.744   3.067 -0.1425 -0.0294 -0.0691
    9CHTO   C72 3583   6.948   3.718   3.197  0.4208 -0.0851 -0.0274
    9CHTO   O48 3584   6.921   3.863   3.213  0.1429  0.2216 -0.0048
    9CHTO  H105 3585   6.849   3.870   3.272 -1.0119 -0.5648 -1.2829
    9CHTO   O38 3586   6.981   3.378   2.946 -0.2161 -0.0794 -0.3024
    9CHTO   C55 3587   6.922   3.296   3.046 -0.1877 -0.1436 -0.0087
    9CHTO  H112 3588   6.924   3.353   3.140 -2.0995  0.5533 -0.3572
    9CHTO   C56 3589   6.985   3.148   3.058  0.2588 -0.2118 -0.1510
    9CHTO  H113 3590   6.977   3.121   2.952  0.2312  2.2998 -0.8093
    9CHTO   O42 3591   7.128   3.162   3.090 -0.0057 -0.1328  0.0532
    9CHTO  H100 3592   7.147   3.197   3.174  1.6766  1.2083 -0.8446
    9CHTO   C57 3593   6.907   3.060   3.160  0.5412 -0.4357  0.4126
    9CHTO  H114 3594   6.936   3.101   3.257 -0.3908 -0.4754  0.7179
    9CHTO   N10 3595   6.952   2.915   3.166  0.2451  0.0123 -0.3585
    9CHTO  H106 3596   7.032   2.898   3.237 -1.2823 -0.3494  1.3081
    9CHTO  H107 3597   6.985   2.888   3.067 -0.7810 -2.3481 -0.0779
    9CHTO   C58 3598   6.755   3.076   3.141 -0.1018 -0.7919 -0.9634
    9CHTO  H115 3599   6.724   3.019   3.051 -1.9192  0.4781 -1.1780
    9CHTO   O37 3600   6.716   3.220   3.142 -0.6061 -0.0494 -0.5274
    9CHTO   C59 3601   6.766   3.281   3.022  0.3891 -0.3342 -0.5317
    9CHTO  H116 3602   6.740   3.215   2.939 -3.2677 -0.4464  0.6003
    9CHTO   C70 3603   6.687   3.411   2.996  0.1164 -0.0054  0.7195
    9CHTO   O46 3604   6.683   3.498   3.110  0.1877  0.2521 -0.2892
    9CHTO  H103 3605   6.639   3.579   3.092 -2.5366 -0.8650  1.0472
    9CHTO   O39 3606   6.681   3.006   3.271  0.0241 -0.6851 -0.4050
    9CHTO   C60 3607   6.534   2.993   3.266  0.7235 -0.6299  1.0658
    9CHTO  H117 3608   6.490   3.084   3.226 -0.3317 -1.1270  1.0850
    9CHTO   C62 3609   6.490   2.877   3.174  0.8306 -0.2111 -0.7680
    9CHTO  H119 3610   6.519   2.899   3.069  2.2677 -1.8248 -0.7426
    9CHTO   O43 3611   6.554   2.757   3.223  0.1463  0.5455  0.2777
    9CHTO  H101 3612   6.511   2.678   3.195  0.8030 -0.2189  1.3871
    9CHTO   C66 3613   6.334   2.854   3.180 -0.8840 -0.2231 -0.2319
    9CHTO  H123 3614   6.284   2.944   3.143 -2.2892 -1.2221 -0.7979
    9CHTO   N12 3615   6.289   2.742   3.091 -0.8545 -0.7825  0.0709
    9CHTO  H110 3616   6.364   2.724   3.015  2.0085 -1.3912  2.9634
    9CHTO  H111 3617   6.190   2.763   3.052 -0.7875 -2.3702 -1.0067
    9CHTO   C69 3618   6.281   2.828   3.323  0.2863  0.2674  0.6899
    9CHTO  H126 3619   6.313   2.732   3.369 -0.7501 -0.8530 -0.8351
    9CHTO   O41 3620   6.327   2.945   3.419  0.2031 -0.0337  0.0552
    9CHTO   C64 3621   6.482   2.979   3.418  0.0323  0.3542 -0.2169
    9CHTO  H121 3622   6.533   2.891   3.465  0.5330  0.3001 -0.8650
    9CHTO   C71 3623   6.513   3.103   3.506 -0.0037  0.5460 -0.1740
    9CHTO   O47 3624   6.652   3.138   3.513 -0.4705 -0.3827 -0.2660
    9CHTO  H104 3625   6.655   3.208   3.575  1.1393  0.9148 -1.7524
    9CHTO   O34 3626   6.105   2.842   3.320  0.4463 -0.2135 -0.0212
    9CHTO   C49 3627   5.984   2.872   3.428 -0.3083 -0.0621  0.2151
    9CHTO   H91 3628   5.915   2.924   3.362  1.9646  1.7712 -0.7914
    9CHTO   C47 3629   6.025   2.967   3.544  0.3495 -0.0707  0.6842
    9CHTO   H89 3630   5.925   3.004   3.575  0.7140 -1.7681  4.0305
    9CHTO   O33 3631   6.095   3.080   3.490 -0.2050  0.0914 -0.3019
    9CHTO   H70 3632   6.081   3.155   3.545 -0.8961  0.0454 -0.4091
    9CHTO   C45 3633   6.102   2.889   3.665 -0.1727 -0.3412  0.2676
    9CHTO   H87 3634   6.206   2.924   3.667 -0.1421 -0.3995  4.1754
    9CHTO    N8 3635   6.056   2.928   3.799 -0.1099 -0.1196 -0.1292
    9CHTO   H75 3636   5.952   2.904   3.817  0.4783 -3.4490 -0.7683
    9CHTO   H76 3637   6.116   2.887   3.879 -2.4598 -0.5438  1.4923
    9CHTO   C43 3638   6.093   2.732   3.642  0.1464  0.4350  0.4777
    9CHTO   H85 3639   6.150   2.710   3.551 -0.1896 -0.2357  0.4266
    9CHTO   O29 3640   5.952   2.704   3.621  0.6565 -0.5263 -0.2995
    9CHTO   C50 3641   5.915   2.738   3.488  0.1161 -0.0493  0.9017
    9CHTO   H92 3642   5.942   2.661   3.414 -0.3948  2.5970 -2.1544
    9CHTO   C54 3643   5.762   2.734   3.486 -0.1698  0.4890  0.2618
    9CHTO   O36 3644   5.709   2.758   3.358  0.9068 -0.3559 -0.3106
    9CHTO   H72 3645   5.620   2.731   3.362  0.5203  1.0529  1.3742
    9CHTO   O27 3646   6.155   2.652   3.742 -0.2412  0.3327  0.0470
    9CHTO   C37 3647   6.292   2.614   3.784  0.0846  0.5576 -0.2808
    9CHTO   H79 3648   6.298   2.511   3.821 -3.1315  1.6684  3.7258
    9CHTO   C38 3649   6.390   2.620   3.661  0.6068 -0.6361 -0.3170
    9CHTO   H80 3650   6.371   2.715   3.609  1.1194 -0.2828  0.1462
    9CHTO   O31 3651   6.349   2.506   3.584  0.1350  0.1609 -0.4813
    9CHTO   H68 3652   6.298   2.521   3.507 -2.1416 -1.6917  0.6090
    9CHTO   C39 3653   6.545   2.610   3.699  0.7762  0.7177  0.5043
    9CHTO   H81 3654   6.572   2.516   3.748 -1.2493 -0.9140 -1.3777
    9CHTO    N7 3655   6.626   2.624   3.581 -0.0850  0.1101  0.8546
    9CHTO   H73 3656   6.654   2.728   3.573 -0.9398  0.1814 -1.4899
    9CHTO   H74 3657   6.581   2.601   3.486  0.7328  0.0071  0.4864
    9CHTO   C40 3658   6.564   2.726   3.810  0.4858 -0.0109 -0.8400
    9CHTO   H82 3659   6.529   2.821   3.770  1.1018  0.9397  0.8528
    9CHTO   O26 3660   6.484   2.685   3.924 -0.4783 -0.2178  0.4369
    9CHTO   C41 3661   6.341   2.700   3.900 -0.3778 -0.6483 -0.2719
    9CHTO   H83 3662   6.315   2.800   3.862 -0.4202  0.1999  1.9409
    9CHTO   C52 3663   6.266   2.679   4.044  0.4074  0.4324 -0.8991
    9CHTO   O35 3664   6.326   2.758   4.145  0.2862 -0.2941 -0.1188
    9CHTO   H71 3665   6.301   2.743   4.233 -0.5867 -0.7645 -0.4481
    9CHTO   O28 3666   6.700   2.747   3.863  0.4037  0.2141 -0.0424
    9CHTO   C42 3667   6.738   2.879   3.907 -0.3559 -0.1704  0.0689
    9CHTO   H84 3668   6.836   2.861   3.953 -0.0341  1.4606  0.0597
    9CHTO   C44 3669   6.645   2.939   4.020  0.6279  0.3522 -0.2426
    9CHTO   H86 3670   6.541   2.930   3.988  0.1417 -2.3349  1.8713
    9CHTO   O32 3671   6.646   2.849   4.133 -0.4008  0.1938  0.2023
    9CHTO   H69 3672   6.607   2.767   4.110 -1.0570  0.5292  0.1204
    9CHTO   C48 3673   6.675   3.086   4.052 -0.1659  0.2818  0.4287
    9CHTO   H90 3674   6.778   3.095   4.084  0.4337 -0.6397 -1.1659
    9CHTO    N9 3675   6.593   3.140   4.159 -0.2051 -0.5339 -0.0160
    9CHTO   H77 3676   6.619   3.238   4.194  2.8268 -1.5987  0.8376
    9CHTO   H78 3677   6.490   3.105   4.167 -0.4243  0.1629  0.2038
    9CHTO   C51 3678   6.661   3.165   3.918 -1.1040 -0.3569 -0.6081
    9CHTO   H93 3679   6.563   3.143   3.876 -1.7204  0.4499  0.3577
    9CHTO   O30 3680   6.772   3.128   3.839 -0.2948  0.3119  0.7471
    9CHTO   C46 3681   6.761   2.978   3.785  0.0841  0.1271 -0.1933
    9CHTO   H88 3682   6.675   2.968   3.719  0.4410 -0.0062 -0.6375
    9CHTO   C53 3683   6.880   2.933   3.703 -0.0453 -0.2556  0.1346
    9CHTO   O72 3684   6.998   2.980   3.767 -0.0773 -0.3861 -0.1258
    9CHTO  H199 3685   7.001   2.958   3.859  1.7699  1.2106  0.2383
    9CHTO   O22 3686   6.677   3.307   3.942  0.0694 -0.0288 -0.1930
    9CHTO   C31 3687   6.614   3.407   3.856 -0.1240  0.5003 -0.1354
    9CHTO   H59 3688   6.625   3.501   3.913  0.8009 -0.0861  0.6552
    9CHTO   C29 3689   6.688   3.425   3.721  0.2259 -0.5146 -0.5568
    9CHTO   H57 3690   6.695   3.320   3.686  1.0247 -1.6897  2.9494
    9CHTO   O21 3691   6.826   3.468   3.744  0.2746 -0.0170 -0.1032
    9CHTO   H37 3692   6.880   3.458   3.669 -0.0568  0.1406 -0.3654
    9CHTO   C27 3693   6.619   3.520   3.616 -0.0563 -0.0947  0.0885
    9CHTO   H55 3694   6.626   3.623   3.654  0.5363 -0.5680  1.2794
    9CHTO    N5 3695   6.685   3.509   3.483  0.3165 -0.0389 -0.3123
    9CHTO   H43 3696   6.664   3.596   3.423 -1.7041 -1.4071 -1.6637
    9CHTO   H44 3697   6.661   3.420   3.426  0.2236  0.4956 -1.1047
    9CHTO   C25 3698   6.462   3.501   3.609  0.2352  0.0569  0.4980
    9CHTO   H53 3699   6.448   3.405   3.557  1.5039  0.3290 -0.3672
    9CHTO   O17 3700   6.411   3.498   3.744 -0.2913 -0.3441  0.2910
    9CHTO   C32 3701   6.460   3.398   3.835  0.7978  0.5090  0.1927
    9CHTO   H60 3702   6.434   3.295   3.809 -0.5570  0.3326  2.1395
    9CHTO   C36 3703   6.381   3.424   3.964 -0.0036 -0.5443 -0.0751
    9CHTO   O25 3704   6.238   3.439   3.948 -0.2075 -0.2879 -0.3531
    9CHTO   H40 3705   6.198   3.456   4.032  0.0039  2.0758 -0.6952
    9CHTO   O15 3706   6.387   3.605   3.533  0.0959  0.2216 -0.4702
    9CHTO   C19 3707   6.289   3.570   3.434 -0.5137 -0.1582  0.1181
    9CHTO   H47 3708   6.269   3.673   3.399  1.3989  0.3276  0.3807
    9CHTO   C20 3709   6.353   3.489   3.317 -0.4049  0.6144  0.1145
    9CHTO   H48 3710   6.402   3.396   3.349 -3.5774 -0.9527  0.5972
    9CHTO   O19 3711   6.459   3.568   3.262 -0.5071  0.0440  0.4599
    9CHTO   H35 3712   6.536   3.557   3.315  0.3561 -2.2237 -1.2095
    9CHTO   C21 3713   6.247   3.456   3.207  0.3192  0.5200 -0.4164
    9CHTO   H49 3714   6.206   3.542   3.155 -2.3934 -0.8066 -0.5402
    9CHTO    N4 3715   6.294   3.361   3.097  0.6616  0.4091 -0.2332
    9CHTO   H41 3716   6.215   3.368   3.024 -1.4043 -0.4365  1.8609
    9CHTO   H42 3717   6.385   3.401   3.054  1.4271 -0.2671  0.7238
    9CHTO   C22 3718   6.122   3.394   3.269  0.6494 -0.7597 -0.7578
    9CHTO   H50 3719   6.152   3.301   3.317  1.0583  0.5799  1.6742
    9CHTO   O14 3720   6.071   3.481   3.375  0.2886 -0.3097 -0.1220
    9CHTO   C23 3721   6.155   3.505   3.488 -0.5274  0.1397 -0.7383
    9CHTO   H51 3722   6.172   3.410   3.540  1.0229  0.4241 -0.7169
    9CHTO   C34 3723   6.085   3.600   3.585 -0.8784 -0.0562  0.3662
    9CHTO   O23 3724   6.164   3.627   3.700  0.4261 -0.3406 -0.0967
    9CHTO   H38 3725   6.119   3.696   3.745 -0.7705 -1.8316  1.0716
    9CHTO   O16 3726   6.012   3.383   3.183 -0.4946 -0.5379  0.2491
    9CHTO   C24 3727   5.907   3.270   3.206  0.0100  0.5578  0.5068
    9CHTO   H52 3728   5.910   3.231   3.307  0.8171  1.3324  0.7859
    9CHTO   C26 3729   5.943   3.155   3.110  0.0454 -0.5249  0.1827
    9CHTO   H54 3730   5.948   3.198   3.008 -0.1837 -0.5655  0.1548
    9CHTO   O20 3731   6.072   3.117   3.159  0.2527 -0.2508  0.2234
    9CHTO   H36 3732   6.133   3.090   3.093 -1.8112  0.9787 -2.2977
    9CHTO   C30 3733   5.841   3.039   3.114  0.2554  0.5259 -0.4267
    9CHTO   H58 3734   5.826   2.998   3.215 -0.4701 -2.3483 -1.6528
    9CHTO    N6 3735   5.883   2.929   3.022 -0.2333  0.4178  0.1294
    9CHTO   H45 3736   5.902   2.837   3.076 -0.5978 -1.0574 -2.2099
    9CHTO   H46 3737   5.807   2.913   2.948 -0.8095  2.7194  0.1899
    9CHTO   C33 3738   5.699   3.099   3.085 -0.4924  0.4902  0.6804
    9CHTO   H61 3739   5.691   3.129   2.980  1.6541 -0.8273  0.0872
    9CHTO   O18 3740   5.670   3.211   3.168  0.5420  0.0820  0.1860
    9CHTO   C28 3741   5.762   3.318   3.172 -0.9006 -0.2062  0.4141
    9CHTO   H56 3742   5.756   3.357   3.070 -1.9334 -0.4466  0.3682
    9CHTO   C35 3743   5.719   3.422   3.267  0.2371  0.0246 -0.4254
    9CHTO   O24 3744   5.678   3.381   3.395  0.2839  0.1361  0.1776
    9CHTO   H39 3745   5.745   3.397   3.459  0.6117  0.3007 -0.2088
    9CHTO    O9 3746   5.602   2.993   3.101 -1.0772 -0.0504 -0.6430
    9CHTO   C13 3747   5.457   3.026   3.079 -0.3534 -0.6968 -0.6478
    9CHTO   H26 3748   5.445   3.085   2.986  0.3256 -0.9802 -0.9124
    9CHTO   C11 3749   5.389   3.107   3.205  0.0776 -0.4497  0.1082
    9CHTO   H24 3750   5.422   3.211   3.191 -0.3256 -0.4477 -0.8483
    9CHTO    O8 3751   5.452   3.063   3.328 -0.4264  0.0148  0.2056
    9CHTO    H3 3752   5.544   3.050   3.320 -0.8377 -1.9396 -2.0488
    9CHTO    C9 3753   5.235   3.093   3.210  0.0745 -0.0666 -0.0575
    9CHTO   H22 3754   5.196   3.118   3.111 -1.0622 -1.4156  0.0412
    9CHTO    N2 3755   5.171   3.196   3.303  0.3966 -0.0736  0.0448
    9CHTO   H10 3756   5.240   3.227   3.381 -0.5762  0.1931  0.8047
    9CHTO   H11 3757   5.082   3.151   3.343  2.1184 -1.7314  2.1379
    9CHTO    C7 3758   5.207   2.940   3.228  0.0382  0.0194 -0.8037
    9CHTO   H20 3759   5.104   2.927   3.188 -0.1893 -2.9781  0.6461
    9CHTO    O4 3760   5.298   2.848   3.169 -0.0584  0.2339  0.0290
    9CHTO   C14 3761   5.381   2.886   3.057  0.4264 -1.1243 -0.4627
    9CHTO   H27 3762   5.316   2.909   2.970 -0.5891 -2.7259 -0.1564
    9CHTO   C18 3763   5.471   2.762   3.011  0.0098  0.2902 -0.5052
    9CHTO   O13 3764   5.516   2.787   2.880 -0.2275  0.1503 -0.2313
    9CHTO    H7 3765   5.580   2.729   2.844  0.2090 -0.3299  1.3008
    9CHTO    O2 3766   5.196   2.908   3.391  0.2716 -0.1017  0.6260
    9CHTO    C1 3767   5.135   2.785   3.421  0.4585  0.1534  0.1926
    9CHTO   H14 3768   5.149   2.723   3.330  0.2166  0.0257  0.2428
    9CHTO    C2 3769   4.987   2.802   3.459  0.5068  0.8403 -0.7805
    9CHTO   H15 3770   4.976   2.892   3.521 -2.9936 -0.2315  0.2745
    9CHTO    O6 3771   4.918   2.819   3.335 -0.1566 -0.3796  0.4369
    9CHTO    H1 3772   4.919   2.746   3.276  2.2773  0.1561 -0.2180
    9CHTO    C3 3773   4.930   2.674   3.544  0.5694 -0.0857 -1.1429
    9CHTO   H16 3774   4.913   2.594   3.470  0.1208  0.2259 -1.3771
    9CHTO    N1 3775   4.793   2.700   3.604 -0.7107 -0.2871  0.5719
    9CHTO    H8 3776   4.730   2.741   3.527  0.4517  0.4585  0.0124
    9CHTO    H9 3777   4.797   2.780   3.676  0.5237  1.2280 -1.1356
    9CHTO    C4 3778   5.043   2.620   3.645 -0.1813  1.3819 -0.4127
    9CHTO   H17 3779   5.053   2.695   3.724 -1.4819  0.4506  0.6504
    9CHTO    O1 3780   5.162   2.597   3.576  0.2174 -0.4431 -0.0336
    9CHTO    C5 3781   5.225   2.715   3.527  0.5494 -0.3932  0.3801
    9CHTO   H18 3782   5.242   2.787   3.607  3.4576 -2.0671  1.3474
    9CHTO   C16 3783   5.361   2.661   3.478  0.3900 -0.2475  0.3354
    9CHTO   O11 3784   5.455   2.617   3.584 -0.6679 -0.1199  0.5642
    9CHTO    H5 3785   5.511   2.688   3.611 -0.4237 -0.8304  1.9758
    9CHTO    O3 3786   5.003   2.497   3.707 -0.0437  0.0972  0.7368
    9CHTO    C6 3787   4.989   2.481   3.854 -0.5624 -0.5799  0.6614
    9CHTO   H19 3788   4.960   2.576   3.900 -1.8203  0.6768 -2.5533
    9CHTO    C8 3789   4.864   2.394   3.886 -0.0068  0.2040  0.2921
    9CHTO   H21 3790   4.883   2.299   3.835 -2.5304 -0.8090  1.1543
    9CHTO    O7 3791   4.744   2.450   3.826  0.4880 -0.2060  0.5307
    9CHTO    H2 3792   4.756   2.490   3.742  1.6566  1.8870  1.6512
    9CHTO   C12 3793   4.843   2.376   4.039  0.1147  0.5040 -0.4560
    9CHTO   H25 3794   4.803   2.473   4.076 -2.7953 -0.0726 -1.9452
    9CHTO    N3 3795   4.729   2.289   4.090  0.0103 -0.6617  0.0326
    9CHTO   H12 3796   4.653   2.288   4.012 -0.2871 -1.0842  0.3285
    9CHTO   H13 3797   4.754   2.188   4.119 -0.7558 -0.8201  0.1600
    9CHTO   C15 3798   4.979   2.345   4.112  0.3394 -0.5467 -0.6409
    9CHTO   H28 3799   5.000   2.239   4.117 -1.5071 -0.9836 -1.6373
    9CHTO   O10 3800   4.977   2.390   4.243 -0.0517 -0.1771  0.1915
    9CHTO    H4 3801   4.953   2.481   4.252  1.3260  0.2511 -0.3099
    9CHTO    O5 3802   5.093   2.420   4.067  0.6478  0.7737 -0.3509
    9CHTO   C10 3803   5.117   2.422   3.929  0.0908 -0.9773  0.1086
    9CHTO   H23 3804   5.143   2.325   3.888  1.6029  0.3356 -2.1840
    9CHTO   C17 3805   5.242   2.505   3.903 -0.3990  0.4503 -0.8720
    9CHTO   O12 3806   5.323   2.456   3.794 -0.9938 -0.0110  0.5774
    9CHTO    H6 3807   5.369   2.531   3.762 -1.6129  1.1828  2.4003
   10CHTO  H203 3808   5.626   5.585   2.598 -1.1289  0.6695 -0.1383
   10CHTO   O82 3809   5.673   5.640   2.658 -0.4397 -0.3739  0.3032
   10CHTO  C123 3810   5.567   5.732   2.692  0.0817  0.5142  0.3673
   10CHTO  H227 3811   5.506   5.753   2.603  0.6684  0.6323 -0.0107
   10CHTO   O77 3812   5.501   5.651   2.792  0.2387 -0.0040 -0.0924
   10CHTO  C118 3813   5.374   5.702   2.832  0.4522  0.5387 -0.0386
   10CHTO  H222 3814   5.321   5.731   2.741 -1.7590 -2.5101  0.2031
   10CHTO  C125 3815   5.293   5.595   2.906 -0.4678 -0.4530  0.0397
   10CHTO   O84 3816   5.153   5.628   2.909 -0.4908 -0.1985 -0.0622
   10CHTO  H205 3817   5.104   5.555   2.941 -0.5580 -1.1186 -2.1552
   10CHTO  C114 3818   5.400   5.827   2.921 -0.6806 -0.7942  0.2039
   10CHTO  H218 3819   5.441   5.796   3.017  0.7814  1.0831  0.1982
   10CHTO  C116 3820   5.490   5.928   2.836 -0.6094 -0.1082 -1.1346
   10CHTO  H220 3821   5.437   5.999   2.769  1.7302  1.8354 -1.0371
   10CHTO   O79 3822   5.545   6.011   2.942 -0.1987  0.0024 -0.4725
   10CHTO  H201 3823   5.601   6.077   2.906 -0.0845  0.1422 -0.0495
   10CHTO  C120 3824   5.615   5.860   2.759 -0.4642  0.3013 -0.6123
   10CHTO  H224 3825   5.698   5.853   2.832 -2.4478  2.8052  1.9417
   10CHTO   N21 3826   5.663   5.957   2.661  0.2973 -0.0479 -0.5418
   10CHTO  H211 3827   5.719   6.037   2.708 -0.6959  0.3309  0.0168
   10CHTO  H212 3828   5.582   6.004   2.608  1.0178 -0.0632 -1.6771
   10CHTO   O75 3829   5.277   5.894   2.944 -0.4136 -0.4021  0.5192
   10CHTO  C112 3830   5.243   5.928   3.113 -0.1431  0.8198  0.5059
   10CHTO  H216 3831   5.321   6.000   3.143  0.2311  0.5376  0.1937
   10CHTO   O73 3832   5.247   5.809   3.194  0.8595  1.0248 -0.0436
   10CHTO  C113 3833   5.216   5.826   3.334  0.6308 -0.5693  0.3057
   10CHTO  H217 3834   5.277   5.912   3.369 -2.6407  1.8215  0.3866
   10CHTO  C124 3835   5.252   5.704   3.415  0.0844 -0.3882 -0.0318
   10CHTO   O83 3836   5.394   5.679   3.394  0.1608 -0.5542  0.5693
   10CHTO  H204 3837   5.459   5.736   3.428  0.0778 -0.6029  0.8082
   10CHTO  C109 3838   5.064   5.861   3.339 -0.2652  0.2145 -0.5424
   10CHTO  H213 3839   5.016   5.786   3.274  1.3192 -0.7220 -0.6793
   10CHTO  C110 3840   5.051   6.002   3.271  0.0975 -0.8214  0.3119
   10CHTO  H214 3841   5.111   6.069   3.332 -0.5346 -1.7889  2.0404
   10CHTO   O78 3842   4.906   6.024   3.270  0.5792  0.2367  0.0614
   10CHTO  H200 3843   4.876   6.074   3.343  0.2697  2.2940 -1.4091
   10CHTO  C111 3844   5.104   5.996   3.124  0.0809 -0.0143 -0.8596
   10CHTO  H215 3845   5.029   5.939   3.067  0.7173  0.4489 -2.1966
   10CHTO   N19 3846   5.109   6.135   3.060 -0.0269  0.2387 -0.0184
   10CHTO  H207 3847   5.151   6.212   3.123 -2.7093  1.8972 -0.2056
   10CHTO  H208 3848   5.165   6.148   2.968 -0.0440  1.1104  0.0882
   10CHTO   O74 3849   5.002   5.852   3.478  0.0290 -0.2590  0.4548
   10CHTO  C115 3850   4.852   5.794   3.486 -0.1190  0.3634 -0.0015
   10CHTO  H219 3851   4.778   5.848   3.427 -1.8088 -1.9598 -0.0934
   10CHTO   O76 3852   4.838   5.641   3.433  0.6502  0.3797 -0.0437
   10CHTO  C122 3853   4.708   5.575   3.452 -0.3778  0.3849  0.4289
   10CHTO  H226 3854   4.727   5.473   3.420  2.2896  1.0068 -0.0876
   10CHTO  C126 3855   4.616   5.633   3.337  0.1960  0.2786  0.3846
   10CHTO   O85 3856   4.667   5.645   3.206 -0.3397 -0.2212  0.3898
   10CHTO  H206 3857   4.745   5.697   3.204  1.2221 -2.5131 -1.2379
   10CHTO  C121 3858   4.642   5.571   3.591  0.0056 -0.3484 -0.0171
   10CHTO  H225 3859   4.536   5.539   3.581  0.6481 -2.0766 -1.6013
   10CHTO   O81 3860   4.730   5.487   3.668  0.2743 -0.3819  0.1328
   10CHTO  H202 3861   4.808   5.532   3.695  1.5709 -2.9765  0.9103
   10CHTO  C119 3862   4.648   5.716   3.648 -0.2200  0.4829  0.2519
   10CHTO  H223 3863   4.580   5.778   3.589  0.2370  0.2000 -0.5723
   10CHTO  C117 3864   4.795   5.785   3.637  0.4364  0.5214 -0.2048
   10CHTO  H221 3865   4.880   5.738   3.686  0.5156  0.3314 -0.5208
   10CHTO   N20 3866   4.785   5.920   3.698 -0.6219 -0.4790  0.3343
   10CHTO  H209 3867   4.800   6.007   3.635 -1.5511  0.6424  1.6244
   10CHTO  H210 3868   4.697   5.927   3.760 -1.3995  0.0567 -0.8112
   10CHTO   O80 3869   4.580   5.733   3.793 -0.2264  0.2713 -0.3530
   10CHTO  C103 3870   4.462   5.658   3.829  0.5407 -0.1127 -0.0218
   10CHTO  H190 3871   4.411   5.608   3.747 -0.5714 -0.7388  1.0384
   10CHTO  C101 3872   4.475   5.553   3.951  1.1052 -0.1196 -0.1288
   10CHTO  H188 3873   4.501   5.608   4.041  1.3923 -1.3881  0.5895
   10CHTO   O68 3874   4.584   5.463   3.906 -0.6084 -0.0848  0.3223
   10CHTO  H168 3875   4.669   5.502   3.913  0.4166 -2.4972  2.2300
   10CHTO   C99 3876   4.336   5.482   3.971  0.0132 -0.4523  0.1184
   10CHTO  H186 3877   4.311   5.439   3.872 -2.7044  0.0455  0.5339
   10CHTO   N17 3878   4.336   5.364   4.056  0.2109 -0.2448 -0.5278
   10CHTO  H174 3879   4.314   5.393   4.157 -0.8268  0.1489 -0.8699
   10CHTO  H175 3880   4.274   5.282   4.023 -3.0392  1.2279  1.7357
   10CHTO   C97 3881   4.225   5.586   3.995 -0.2211 -0.1366  0.4985
   10CHTO  H184 3882   4.228   5.618   4.100  0.7340 -0.0962  0.4649
   10CHTO   O64 3883   4.227   5.698   3.907 -0.2823 -0.3017  0.6814
   10CHTO  C104 3884   4.355   5.763   3.893  0.1765 -0.2865 -0.4867
   10CHTO  H191 3885   4.395   5.799   3.988 -0.8369  2.3539 -1.0243
   10CHTO  C108 3886   4.328   5.893   3.810 -0.1478  0.3234 -0.1156
   10CHTO   O71 3887   4.275   5.990   3.903 -0.5394  0.3099 -0.1109
   10CHTO  H171 3888   4.338   5.997   3.972 -1.6794 -1.5118  1.1625
   10CHTO   O62 3889   4.097   5.536   3.956 -0.7575  0.0615  0.4478
   10CHTO   C91 3890   3.987   5.544   4.049  0.0719 -0.1798  0.5015
   10CHTO  H178 3891   4.015   5.525   4.153  0.2528 -0.5965  0.3767
   10CHTO   C92 3892   3.900   5.410   4.017 -0.3353  0.0394  0.3261
   10CHTO  H179 3893   3.875   5.391   3.911 -0.2546  3.1236 -0.3013
   10CHTO   O66 3894   3.993   5.305   4.055 -0.4602 -0.1475 -0.4073
   10CHTO  H166 3895   3.952   5.221   4.049 -0.9745  0.0771 -0.0645
   10CHTO   C93 3896   3.772   5.404   4.113 -1.2146 -0.8458 -0.6399
   10CHTO  H180 3897   3.812   5.379   4.212  0.4014 -0.3390 -1.1481
   10CHTO   N16 3898   3.689   5.289   4.075 -0.1905  0.2071 -0.9295
   10CHTO  H172 3899   3.592   5.309   4.118 -0.4868  0.8261 -1.8652
   10CHTO  H173 3900   3.721   5.193   4.112 -0.4325  0.4969  0.0515
   10CHTO   C94 3901   3.696   5.541   4.129  0.0555  0.5761 -0.6177
   10CHTO  H181 3902   3.627   5.559   4.046  0.1199  1.0478 -0.5680
   10CHTO   O61 3903   3.777   5.660   4.123 -0.1964  0.2146 -0.2168
   10CHTO   C95 3904   3.881   5.658   4.022  0.3138  0.2511  0.2594
   10CHTO  H182 3905   3.844   5.644   3.921  1.1510  2.7793 -0.4316
   10CHTO  C106 3906   3.945   5.797   4.024 -0.2611  0.1708 -0.4150
   10CHTO   O69 3907   3.860   5.897   3.982  0.3524 -0.4973 -0.0303
   10CHTO  H169 3908   3.897   5.924   3.900  0.3260 -2.9818 -0.8909
   10CHTO   O63 3909   3.608   5.545   4.284 -0.0458 -1.2625 -0.2891
   10CHTO   C96 3910   3.705   5.554   4.409 -0.1121  0.0116  0.1146
   10CHTO  H183 3911   3.807   5.549   4.370 -0.4660 -0.5522 -0.7567
   10CHTO   C98 3912   3.693   5.438   4.513 -0.1005  0.6574 -0.4771
   10CHTO  H185 3913   3.591   5.434   4.554 -0.6004  0.6423 -1.6998
   10CHTO   O67 3914   3.712   5.315   4.443  0.4626 -0.1496 -0.0515
   10CHTO  H167 3915   3.684   5.242   4.494 -1.2159 -0.4742 -1.3614
   10CHTO  C102 3916   3.793   5.457   4.638  0.1971  1.1788  0.7401
   10CHTO  H189 3917   3.894   5.438   4.600 -0.0930  0.8154  0.1377
   10CHTO   N18 3918   3.772   5.345   4.741 -0.4092  0.1479 -0.1973
   10CHTO  H176 3919   3.794   5.372   4.844 -0.6845  1.1328 -0.3904
   10CHTO  H177 3920   3.835   5.260   4.720  0.2518  1.1628 -2.4101
   10CHTO  C105 3921   3.773   5.593   4.695  0.6770  0.3666  0.1914
   10CHTO  H192 3922   3.674   5.599   4.742  0.7336  1.1761  0.2253
   10CHTO   O65 3923   3.791   5.695   4.596 -0.5223 -0.4006  0.5022
   10CHTO  C100 3924   3.686   5.688   4.500  0.2414 -0.1304 -0.2456
   10CHTO  H187 3925   3.585   5.683   4.544 -0.1060 -2.0926 -1.1914
   10CHTO  C107 3926   3.685   5.820   4.417 -0.1833  0.1567  0.3772
   10CHTO   O70 3927   3.593   5.823   4.306  0.1163 -0.6304  0.1498
   10CHTO  H170 3928   3.511   5.798   4.344 -0.8805  1.5899 -0.4227
   10CHTO   O57 3929   3.903   5.619   4.807  0.3619  0.8883 -0.2559
   10CHTO   C85 3930   3.893   5.724   4.897 -0.4502 -0.4451 -0.8125
   10CHTO  H157 3931   3.791   5.766   4.883 -0.4795  0.1926  1.1697
   10CHTO   C83 3932   3.997   5.845   4.858 -0.2297  0.0656  0.8538
   10CHTO  H155 3933   3.967   5.887   4.762  2.0976  1.1288  0.5682
   10CHTO   O56 3934   4.128   5.787   4.842  1.0110  0.0172 -0.0364
   10CHTO  H135 3935   4.151   5.746   4.923 -1.2163  0.6190  0.9426
   10CHTO   C81 3936   3.996   5.952   4.968  0.5126 -0.0732  0.0039
   10CHTO  H153 3937   3.896   5.994   4.974  0.1572 -1.2081  3.1001
   10CHTO   N14 3938   4.072   6.074   4.937 -0.4629  0.3056 -0.2823
   10CHTO  H141 3939   4.125   6.103   5.026 -3.7873 -4.1248  3.3957
   10CHTO  H142 3940   4.004   6.154   4.913 -1.2195 -0.4541 -0.6942
   10CHTO   C79 3941   4.029   5.885   5.113  1.0095  0.3953 -0.1641
   10CHTO  H151 3942   4.007   5.961   5.188 -1.0134 -0.4962  0.1846
   10CHTO   O52 3943   3.924   5.791   5.143 -0.0761 -0.2285 -0.5507
   10CHTO   C86 3944   3.918   5.687   5.048  0.8450 -0.7952 -0.1690
   10CHTO  H158 3945   4.016   5.635   5.047  1.3793  0.1348  1.5600
   10CHTO   C90 3946   3.822   5.580   5.099  0.4361 -0.3757  0.2432
   10CHTO   O60 3947   3.880   5.498   5.203 -0.0126  0.6918 -0.5325
   10CHTO  H138 3948   3.922   5.422   5.167  0.2612  2.6709 -4.7650
   10CHTO   O50 3949   4.167   5.833   5.120 -0.3958  0.3464  0.0946
   10CHTO   C73 3950   4.260   5.725   5.112 -0.2143 -0.4085 -0.7325
   10CHTO  H145 3951   4.254   5.671   5.016 -0.1922 -0.1950 -0.8530
   10CHTO   C74 3952   4.238   5.622   5.236 -0.4132  0.1353  1.1530
   10CHTO  H146 3953   4.137   5.580   5.225 -0.1608  0.0502 -1.0053
   10CHTO   O54 3954   4.324   5.503   5.215 -0.2277 -0.2381 -0.4868
   10CHTO  H133 3955   4.291   5.436   5.272 -0.2923  0.1903 -0.0156
   10CHTO   C75 3956   4.258   5.693   5.374 -0.6523  0.3121  0.6185
   10CHTO  H147 3957   4.182   5.772   5.383  1.0873  2.1631 -0.6002
   10CHTO   N13 3958   4.250   5.604   5.493  0.0288  0.6476  0.2261
   10CHTO  H139 3959   4.204   5.513   5.459  2.9772 -1.3859  1.4901
   10CHTO  H140 3960   4.174   5.646   5.557 -2.1198  0.6392 -2.2231
   10CHTO   C76 3961   4.401   5.778   5.367  0.1930  0.6402  0.0280
   10CHTO  H148 3962   4.477   5.701   5.361 -0.8832 -0.4044 -0.4493
   10CHTO   O49 3963   4.405   5.861   5.245  0.8088  0.1579 -0.0048
   10CHTO   C77 3964   4.400   5.780   5.119 -0.8678 -0.3215  0.3423
   10CHTO  H149 3965   4.476   5.703   5.132  0.3050  0.5499 -1.1734
   10CHTO   C88 3966   4.431   5.880   5.003 -0.1992  0.2827 -0.1693
   10CHTO   O58 3967   4.445   5.819   4.862 -0.3842  0.1699 -0.4125
   10CHTO  H136 3968   4.364   5.825   4.815 -1.7393  0.8099  1.9430
   10CHTO   O51 3969   4.418   5.868   5.492  0.3956 -0.0962 -0.5847
   10CHTO   C78 3970   4.568   5.898   5.510  0.3808 -0.7177 -0.8232
   10CHTO  H150 3971   4.628   5.854   5.428  0.6211 -0.1113 -0.9756
   10CHTO   C80 3972   4.614   5.843   5.644 -0.1723 -0.7808  0.0303
   10CHTO  H152 3973   4.551   5.882   5.727 -2.4101 -2.3457 -0.8756
   10CHTO   O55 3974   4.587   5.705   5.642  0.2641 -0.4843  0.3533
   10CHTO  H134 3975   4.502   5.679   5.613  1.2438 -3.3163 -0.2557
   10CHTO   C84 3976   4.769   5.874   5.666  0.0013 -0.4963  0.4280
   10CHTO  H156 3977   4.826   5.820   5.590  2.8738 -1.5442  3.2275
   10CHTO   N15 3978   4.815   5.821   5.805 -0.6908  0.7858  0.7316
   10CHTO  H143 3979   4.765   5.889   5.871  0.8446 -0.0994  2.8744
   10CHTO  H144 3980   4.770   5.725   5.814  0.9482 -0.2207 -1.4606
   10CHTO   C87 3981   4.786   6.025   5.653 -0.2179 -0.5870 -0.4542
   10CHTO  H159 3982   4.729   6.070   5.735 -2.1151  0.1591 -2.1430
   10CHTO   O53 3983   4.738   6.078   5.516 -0.5048  0.3869 -0.2317
   10CHTO   C82 3984   4.596   6.053   5.506 -0.1882 -0.2274 -0.1349
   10CHTO  H154 3985   4.540   6.106   5.583 -1.4573  0.1856 -1.3055
   10CHTO   C89 3986   4.555   6.111   5.370  0.9131  0.3364  0.2022
   10CHTO   O59 3987   4.565   6.248   5.358  0.3478  0.3835  0.0938
   10CHTO  H137 3988   4.566   6.269   5.267  3.1567 -1.0173 -0.2506
   10CHTO   O45 3989   4.947   6.065   5.678  0.1754  0.7344 -0.7791
   10CHTO   C67 3990   4.957   6.195   5.747  0.3355 -1.3225 -0.6563
   10CHTO  H124 3991   4.862   6.219   5.796  0.3588 -0.5658 -0.9741
   10CHTO   C65 3992   5.073   6.200   5.853 -0.1019  0.1411 -0.1685
   10CHTO  H122 3993   5.056   6.115   5.918  0.6897  0.0435 -0.0824
   10CHTO   O44 3994   5.062   6.308   5.939 -0.3577 -0.2452 -0.5668
   10CHTO  H102 3995   5.012   6.282   6.014  1.8554 -1.8367  0.4150
   10CHTO   C63 3996   5.214   6.181   5.787  0.0343 -0.0508  0.3748
   10CHTO  H120 3997   5.216   6.095   5.721  1.8042  0.9534 -0.9197
   10CHTO   N11 3998   5.323   6.156   5.887 -0.0739  0.0942  0.4667
   10CHTO  H108 3999   5.420   6.177   5.847 -0.2383 -2.3558 -1.3399
   10CHTO  H109 4000   5.294   6.217   5.970  0.9470  0.7691  0.3381
   10CHTO   C61 4001   5.226   6.292   5.676 -0.2690  0.4329 -0.1401
   10CHTO  H118 4002   5.310   6.262   5.612  2.5187 -1.0300  3.9301
   10CHTO   O40 4003   5.112   6.325   5.596 -0.0411  0.0626 -0.3803
   10CHTO   C68 4004   4.975   6.311   5.638  0.1748  0.8603 -0.8797
   10CHTO  H125 4005   4.929   6.280   5.541  0.3090 -0.4652 -0.5251
   10CHTO   C72 4006   4.897   6.433   5.687  0.2987  0.0566 -0.1519
   10CHTO   O48 4007   4.869   6.530   5.582 -0.5906 -0.2592 -0.4972
   10CHTO  H105 4008   4.949   6.552   5.539  0.2263 -1.4432  0.3884
   10CHTO   O38 4009   5.251   6.415   5.741  0.5428 -0.6952  0.1050
   10CHTO   C55 4010   5.348   6.501   5.681  0.0128  0.1469  0.3785
   10CHTO  H112 4011   5.356   6.461   5.579  1.1207 -2.6941  1.5233
   10CHTO   C56 4012   5.481   6.488   5.755 -0.1850  0.4597 -0.2563
   10CHTO  H113 4013   5.458   6.505   5.861  1.8742  2.0912 -0.0271
   10CHTO   O42 4014   5.534   6.356   5.747 -0.0416 -0.6682  0.5256
   10CHTO  H100 4015   5.620   6.356   5.785  0.5601 -2.3569 -0.7868
   10CHTO   C57 4016   5.587   6.582   5.701 -0.0597 -0.4146  0.8424
   10CHTO  H114 4017   5.630   6.547   5.607  0.1754  1.9756  0.0093
   10CHTO   N10 4018   5.713   6.591   5.781 -0.0578  0.0006  0.1809
   10CHTO  H106 4019   5.793   6.529   5.744  0.7483  1.8254 -1.1562
   10CHTO  H107 4020   5.686   6.552   5.879  1.1270 -2.2230 -0.3372
   10CHTO   C58 4021   5.532   6.725   5.678 -0.1272 -0.6693  0.4022
   10CHTO  H115 4022   5.520   6.778   5.775 -0.9056  1.4892 -0.8264
   10CHTO   O37 4023   5.410   6.720   5.606  0.3328 -0.5162 -0.3359
   10CHTO   C59 4024   5.312   6.647   5.676  0.4132 -0.5120  0.2259
   10CHTO  H116 4025   5.305   6.670   5.783  2.7603 -1.1029  0.5340
   10CHTO   C70 4026   5.182   6.679   5.593  0.4408  0.2529  0.1498
   10CHTO   O46 4027   5.109   6.793   5.626  0.0217  0.3830  0.2942
   10CHTO  H103 4028   5.164   6.868   5.636 -0.5246  0.6825  1.1082
   10CHTO   O39 4029   5.638   6.800   5.566 -0.3591 -0.0748 -0.2123
   10CHTO   C60 4030   5.674   6.938   5.581 -1.1295  0.0422  0.0014
   10CHTO  H117 4031   5.595   6.992   5.634  0.5287  1.9975  0.5123
   10CHTO   C62 4032   5.799   6.956   5.660  0.6040 -0.5335  0.4116
   10CHTO  H119 4033   5.758   6.930   5.760 -1.1765  0.7374  0.0385
   10CHTO   O43 4034   5.897   6.864   5.616 -0.5378  0.6527 -0.0634
   10CHTO  H101 4035   5.981   6.892   5.647 -0.2931 -0.5307  0.3569
   10CHTO   C66 4036   5.830   7.125   5.661 -0.2382  0.5449 -0.1835
   10CHTO  H123 4037   5.773   7.176   5.739  0.5270  0.1530  0.6435
   10CHTO   N12 4038   5.970   7.150   5.714 -0.3300  0.1526  0.1130
   10CHTO  H110 4039   6.019   7.055   5.729 -0.3580  0.1627  0.2734
   10CHTO  H111 4040   5.967   7.204   5.808  2.2425  0.7982 -0.1329
   10CHTO   C69 4041   5.807   7.188   5.529  0.8961  0.3728  0.2017
   10CHTO  H126 4042   5.897   7.173   5.466  0.0069  1.9742 -1.4932
   10CHTO   O41 4043   5.681   7.143   5.450  0.1469 -0.0155 -0.3415
   10CHTO   C64 4044   5.672   7.002   5.433  0.6737 -0.0450 -0.6719
   10CHTO  H121 4045   5.754   6.963   5.370  2.4492  0.3117  1.3337
   10CHTO   C71 4046   5.530   6.981   5.364 -0.2674 -0.2242 -0.1211
   10CHTO   O47 4047   5.500   6.848   5.336 -0.1731  0.5932  0.3134
   10CHTO  H104 4048   5.510   6.794   5.412 -1.6650  2.1364  1.6705
   10CHTO   O34 4049   5.779   7.359   5.551  0.2470  0.2964 -0.2283
   10CHTO   C49 4050   5.760   7.487   5.468 -0.0902 -0.2216  0.1853
   10CHTO   H91 4051   5.814   7.554   5.535 -1.2977  1.4092 -0.4617
   10CHTO   C47 4052   5.610   7.519   5.468 -0.0243  0.3707  0.5330
   10CHTO   H89 4053   5.606   7.622   5.426  2.5498  0.3826  0.2017
   10CHTO   O33 4054   5.560   7.525   5.606 -0.0946 -0.0678 -0.2171
   10CHTO   H70 4055   5.576   7.442   5.646  0.1400 -0.5275 -1.2351
   10CHTO   C45 4056   5.529   7.425   5.368 -0.4279 -0.3422 -0.6427
   10CHTO   H87 4057   5.547   7.322   5.402 -2.0327 -0.2823  0.4458
   10CHTO    N8 4058   5.382   7.448   5.378  0.2218  0.0073  0.0460
   10CHTO   H75 4059   5.349   7.450   5.481 -1.1827 -0.1328 -0.3901
   10CHTO   H76 4060   5.333   7.358   5.344  1.3244 -0.2035 -1.0316
   10CHTO   C43 4061   5.592   7.441   5.220 -0.3370 -0.6450 -0.2041
   10CHTO   H85 4062   5.542   7.364   5.161 -0.6905  0.2755 -1.1231
   10CHTO   O29 4063   5.736   7.419   5.226  0.1933  0.1400  0.2826
   10CHTO   C50 4064   5.810   7.481   5.332 -0.2156 -0.0513  0.0780
   10CHTO   H92 4065   5.900   7.419   5.336 -1.2995 -1.8020 -1.8289
   10CHTO   C54 4066   5.881   7.616   5.294 -0.1572 -0.1340 -0.1041
   10CHTO   O36 4067   5.992   7.613   5.205  0.1295 -0.2543 -0.2353
   10CHTO   H72 4068   5.975   7.561   5.129 -0.8269  0.6817 -0.6729
   10CHTO   O27 4069   5.579   7.561   5.154  0.4432  0.1175 -0.1582
   10CHTO   C37 4070   5.593   7.668   5.050  0.3413 -0.1061  0.0957
   10CHTO   H79 4071   5.691   7.718   5.062 -0.2489  1.2031 -0.4262
   10CHTO   C38 4072   5.587   7.614   4.906 -0.2602 -0.1862  0.1471
   10CHTO   H80 4073   5.489   7.566   4.894 -0.2356 -0.7124  1.8971
   10CHTO   O31 4074   5.699   7.527   4.889  0.3170  0.3173  0.1302
   10CHTO   H68 4075   5.695   7.477   4.810 -0.7285  1.1773 -0.3808
   10CHTO   C39 4076   5.605   7.743   4.813 -0.4182  0.8995 -0.2422
   10CHTO   H81 4077   5.701   7.794   4.819  0.0038 -0.0979  1.8312
   10CHTO    N7 4078   5.605   7.702   4.667 -0.2928 -0.7081 -0.6559
   10CHTO   H73 4079   5.689   7.644   4.633 -1.1291 -2.3209 -0.0356
   10CHTO   H74 4080   5.575   7.779   4.597 -0.9409  1.2572  1.7347
   10CHTO   C40 4081   5.493   7.843   4.839 -0.2375  0.1912 -0.1882
   10CHTO   H82 4082   5.402   7.799   4.799  0.5532  1.5799 -3.7610
   10CHTO   O26 4083   5.481   7.883   4.978 -0.5881  0.3579 -0.0499
   10CHTO   C41 4084   5.477   7.779   5.077  0.2151  0.4772 -0.9083
   10CHTO   H83 4085   5.380   7.727   5.085 -0.2337  1.6814  2.1687
   10CHTO   C52 4086   5.503   7.840   5.210  0.4596 -0.6872  0.6842
   10CHTO   O35 4087   5.632   7.914   5.208 -0.3471 -0.3835 -0.5132
   10CHTO   H71 4088   5.694   7.848   5.232 -0.5205  0.0907  1.3481
   10CHTO   O28 4089   5.522   7.965   4.769  0.4782  0.3786  0.0030
   10CHTO   C42 4090   5.423   8.073   4.755  0.6668 -0.1923  1.2177
   10CHTO   H84 4091   5.338   8.032   4.811  0.9439 -1.6084  0.6111
   10CHTO   C44 4092   5.383   8.106   4.606  0.2518  0.3527  0.0338
   10CHTO   H86 4093   5.469   8.149   4.555 -0.5746 -0.3767 -2.0109
   10CHTO   O32 4094   5.337   7.979   4.562  0.0433 -0.1923  0.5679
   10CHTO   H69 4095   5.246   7.960   4.568  0.1624 -0.5152  1.3554
   10CHTO   C48 4096   5.264   8.211   4.594 -0.2891  0.4936 -0.2107
   10CHTO   H90 4097   5.177   8.162   4.638  1.0572 -1.0690  0.7891
   10CHTO    N9 4098   5.225   8.260   4.461 -0.1916  0.2052 -0.0177
   10CHTO   H77 4099   5.118   8.249   4.448 -0.0629 -0.5888 -0.4438
   10CHTO   H78 4100   5.274   8.195   4.391  0.9303  0.3342  0.6521
   10CHTO   C51 4101   5.310   8.332   4.685  0.3118  0.7129  0.0908
   10CHTO   H93 4102   5.400   8.372   4.638  1.8074 -1.7794  0.7108
   10CHTO   O30 4103   5.338   8.283   4.817  0.0405  0.1776 -0.2954
   10CHTO   C46 4104   5.457   8.213   4.821 -0.0047 -0.3367  0.4285
   10CHTO   H88 4105   5.544   8.258   4.772 -0.1777  0.0860  0.5073
   10CHTO   C53 4106   5.506   8.189   4.966 -0.3441 -0.0388  0.4763
   10CHTO   O72 4107   5.647   8.159   4.973  0.9119  0.2353  0.0236
   10CHTO  H199 4108   5.706   8.226   4.945  2.0199 -0.8480 -0.2566
   10CHTO   O22 4109   5.211   8.431   4.710 -0.9087  0.1137 -0.2842
   10CHTO   C31 4110   5.241   8.569   4.753 -0.3527 -0.2338 -0.3860
   10CHTO   H59 4111   5.144   8.609   4.791 -0.4441  0.5162 -1.4120
   10CHTO   C29 4112   5.346   8.590   4.866  0.2539  0.9142  0.3919
   10CHTO   H57 4113   5.431   8.522   4.847  1.4125  2.5066 -0.2355
   10CHTO   O21 4114   5.291   8.547   4.996 -0.5966 -0.0613 -0.3450
   10CHTO   H37 4115   5.364   8.543   5.055  0.3940  2.4560 -1.3464
   10CHTO   C27 4116   5.392   8.737   4.873 -0.5911 -0.3096 -0.0185
   10CHTO   H55 4117   5.314   8.795   4.925  0.6394  3.9104 -2.6828
   10CHTO    N5 4118   5.518   8.743   4.948  0.8397 -0.4556 -0.0574
   10CHTO   H43 4119   5.601   8.716   4.884 -0.4118 -3.6279 -0.4581
   10CHTO   H44 4120   5.519   8.845   4.983  2.6689 -0.3478 -0.3613
   10CHTO   C25 4121   5.404   8.808   4.730 -0.0290  0.5021  0.1301
   10CHTO   H53 4122   5.493   8.772   4.675 -1.2676 -0.9823 -0.9232
   10CHTO   O17 4123   5.291   8.793   4.658  0.0410 -0.2365  0.3571
   10CHTO   C32 4124   5.274   8.656   4.625  0.1655  0.0807 -0.1507
   10CHTO   H60 4125   5.363   8.615   4.578 -0.5655  0.7279 -2.1576
   10CHTO   C36 4126   5.159   8.640   4.518 -0.2735 -0.1908  0.3956
   10CHTO   O25 4127   5.152   8.742   4.418 -0.5817  0.1929  0.1125
   10CHTO   H40 4128   5.073   8.739   4.367 -1.8010 -0.7486  2.0018
   10CHTO   O15 4129   5.414   8.968   4.751  0.0272 -0.8323  0.0193
   10CHTO   C19 4130   5.519   9.038   4.672 -0.0264  0.1860  0.3848
   10CHTO   H47 4131   5.602   8.966   4.670 -1.0236 -0.9682 -0.1220
   10CHTO   C20 4132   5.459   9.085   4.530 -0.2319 -0.4675 -0.4653
   10CHTO   H48 4133   5.366   9.143   4.540 -0.1577 -0.3584 -0.4112
   10CHTO   O19 4134   5.435   8.965   4.454  0.3996 -0.2914 -0.0582
   10CHTO   H35 4135   5.344   8.962   4.431  0.8696  1.0608 -2.3048
   10CHTO   C21 4136   5.563   9.179   4.459 -0.1175 -0.0667  0.2561
   10CHTO   H49 4137   5.661   9.134   4.449  1.1447  2.9530 -1.5865
   10CHTO    N4 4138   5.512   9.232   4.330  0.0659  0.4784 -0.2370
   10CHTO   H41 4139   5.425   9.292   4.350 -1.1072 -0.9356 -1.0457
   10CHTO   H42 4140   5.490   9.144   4.272 -0.3090 -0.6866  1.6553
   10CHTO   C22 4141   5.592   9.300   4.553 -0.2820  0.5410  0.0744
   10CHTO   H50 4142   5.494   9.343   4.573 -0.5754 -0.4641  0.7761
   10CHTO   O14 4143   5.652   9.241   4.671 -0.2126 -0.5011  0.7958
   10CHTO   C23 4144   5.566   9.164   4.756 -0.3972 -0.0091  0.8834
   10CHTO   H51 4145   5.483   9.230   4.786 -1.0727 -0.7315  0.6269
   10CHTO   C34 4146   5.635   9.133   4.890 -1.1352 -0.2511 -0.3356
   10CHTO   O23 4147   5.748   9.048   4.869  0.0067  0.1533 -0.0394
   10CHTO   H38 4148   5.728   8.959   4.848  1.0049  0.1870 -1.1439
   10CHTO   O16 4149   5.676   9.398   4.487 -0.0678 -0.3945 -0.3311
   10CHTO   C24 4150   5.802   9.443   4.552  1.1787  0.1827  0.9144
   10CHTO   H52 4151   5.838   9.377   4.631  1.7223  0.6893  1.0911
   10CHTO   C26 4152   5.777   9.587   4.608 -0.5304 -0.5625 -0.2583
   10CHTO   H54 4153   5.735   9.652   4.528 -1.8409 -1.0084  0.0576
   10CHTO   O20 4154   5.687   9.588   4.716 -0.4006  0.3814  0.8267
   10CHTO   H36 4155   5.621   9.524   4.700  2.0016 -1.5137 -2.0951
   10CHTO   C30 4156   5.915   9.642   4.661 -0.3274 -0.2242 -0.5283
   10CHTO   H58 4157   5.944   9.600   4.758 -2.1883  1.7919  0.9583
   10CHTO    N6 4158   5.910   9.791   4.688  0.1868 -0.9748 -0.1072
   10CHTO   H45 4159   5.822   9.820   4.742 -1.1414 -3.4133 -0.8766
   10CHTO   H46 4160   5.912   9.839   4.591 -1.6880 -1.4236 -0.3821
   10CHTO   C33 4161   6.040   9.617   4.565  1.5267 -0.3109  0.3507
   10CHTO   H61 4162   6.033   9.688   4.480  0.4503  0.4229  1.0416
   10CHTO   O18 4163   6.027   9.479   4.518  0.0805  0.4040  0.7834
   10CHTO   C28 4164   5.908   9.457   4.446  0.0810 -0.2385 -0.2032
   10CHTO   H56 4165   5.886   9.550   4.393 -2.8905  0.3184  1.8889
   10CHTO   C35 4166   5.923   9.333   4.368  0.2333 -0.2099  0.7796
   10CHTO   O24 4167   6.034   9.348   4.283 -0.0958  0.1500  0.1464
   10CHTO   H39 4168   6.011   9.339   4.193 -1.0177 -0.4726  0.4305
   10CHTO    O9 4169   6.167   9.640   4.625  0.3386 -0.1133 -0.4122
   10CHTO   C13 4170   6.288   9.605   4.499 -0.2459 -0.0101  0.1287
   10CHTO   H26 4171   6.235   9.552   4.417 -2.7298  2.3146  0.1502
   10CHTO   C11 4172   6.410   9.527   4.556 -0.2511  0.1927 -1.1274
   10CHTO   H24 4173   6.371   9.438   4.607 -0.2462 -0.0224 -1.4995
   10CHTO    O8 4174   6.468   9.608   4.664  0.0976  0.1150 -0.0925
   10CHTO    H3 4175   6.528   9.668   4.623  0.0120 -0.0348 -0.4396
   10CHTO    C9 4176   6.498   9.479   4.436 -0.2856  0.2337  0.3911
   10CHTO   H22 4177   6.433   9.407   4.384  3.0899 -2.7263  0.0556
   10CHTO    N2 4178   6.611   9.401   4.479 -0.4424  0.1220  0.0637
   10CHTO   H10 4179   6.682   9.468   4.524  0.6458  0.2464 -1.7674
   10CHTO   H11 4180   6.593   9.317   4.545  1.1161 -0.1709  0.1300
   10CHTO    C7 4181   6.537   9.607   4.349 -0.2501 -0.0759  0.0101
   10CHTO   H20 4182   6.484   9.591   4.253  1.5530 -1.4175 -0.7857
   10CHTO    O4 4183   6.486   9.732   4.403  0.3462 -0.0534  0.2242
   10CHTO   C14 4184   6.346   9.738   4.425 -0.1312  0.0289  0.2697
   10CHTO   H27 4185   6.295   9.762   4.330 -0.3290 -1.9702 -0.1528
   10CHTO   C18 4186   6.326   9.864   4.517 -0.9662 -0.1338  0.2286
   10CHTO   O13 4187   6.363   9.985   4.446 -0.1171 -0.0606 -0.8932
   10CHTO    H7 4188   6.416   9.965   4.371  0.7731  0.9600 -0.5597
   10CHTO    O2 4189   6.710   9.627   4.292  0.5890 -1.0564  0.0407
   10CHTO    C1 4190   6.782   9.734   4.354  0.6224 -0.1011 -0.4990
   10CHTO   H14 4191   6.733   9.751   4.453  0.8781  0.0853 -0.4050
   10CHTO    C2 4192   6.787   9.863   4.270 -0.4676  0.6843 -0.3610
   10CHTO   H15 4193   6.836   9.835   4.176 -2.3011 -2.8498 -0.3238
   10CHTO    O6 4194   6.652   9.916   4.247  0.1548 -0.2173 -0.0482
   10CHTO    H1 4195   6.601   9.839   4.231  1.8017 -1.4197  0.3242
   10CHTO    C3 4196   6.875   9.970   4.333 -0.5934  0.0016 -0.2692
   10CHTO   H16 4197   6.819  10.002   4.422 -0.3419 -0.6405  0.1216
   10CHTO    N1 4198   6.902  10.087   4.243  1.3542 -0.2312  0.2144
   10CHTO    H8 4199   6.869  10.089   4.140  1.3838  2.1318  0.2143
   10CHTO    H9 4200   7.002  10.126   4.251  0.8955  0.8742  0.5840
   10CHTO    C4 4201   7.004   9.917   4.389 -0.4757  0.1260  0.1580
   10CHTO   H17 4202   7.076   9.903   4.308  1.1166  1.1531  1.3630
   10CHTO    O1 4203   7.002   9.788   4.458 -0.8355 -0.0710  0.4083
   10CHTO    C5 4204   6.924   9.686   4.391 -0.9606 -0.2024  0.2678
   10CHTO   H18 4205   6.963   9.658   4.293  0.5326  1.2055  0.4337
   10CHTO   C16 4206   6.934   9.559   4.473 -0.2022  0.1428  0.2041
   10CHTO   O11 4207   6.872   9.579   4.603 -0.4219 -0.3122  0.0489
   10CHTO    H5 4208   6.864   9.498   4.650  0.5150 -0.3956  0.0805
   10CHTO    O3 4209   7.056  10.006   4.489  0.5333 -0.0816 -0.5716
   10CHTO    C6 4210   7.202  10.022   4.505  0.2188  0.5894 -0.6285
   10CHTO   H19 4211   7.260   9.949   4.450  1.8555  0.9974  0.4923
   10CHTO    C8 4212   7.244  10.166   4.468  0.3721 -0.4260 -0.2119
   10CHTO   H21 4213   7.184  10.232   4.531  1.9115  0.8394 -0.0197
   10CHTO    O7 4214   7.209  10.178   4.332  0.6635  0.1243 -0.0074
   10CHTO    H2 4215   7.150  10.111   4.303  0.7123 -0.4393  1.1524
   10CHTO   C12 4216   7.397  10.194   4.483  0.6375 -0.4154 -0.0154
   10CHTO   H25 4217   7.447  10.130   4.408  1.2100  1.0523 -0.9261
   10CHTO    N3 4218   7.440  10.334   4.450  0.5501  0.0739 -0.2975
   10CHTO   H12 4219   7.477  10.352   4.350 -2.3057  0.3866 -1.3450
   10CHTO   H13 4220   7.507  10.369   4.528 -2.0863  0.7261  1.7462
   10CHTO   C15 4221   7.440  10.137   4.622 -0.2336  0.5367  0.3823
   10CHTO   H28 4222   7.414  10.202   4.705 -0.5432 -0.8094  1.3553
   10CHTO   O10 4223   7.594  10.086   4.613  0.1116 -0.1509 -0.1907
   10CHTO    H4 4224   7.619  10.096   4.703  1.3947  2.4607 -0.8008
   10CHTO    O5 4225   7.391  10.005   4.663  0.0540 -0.3522  0.1943
   10CHTO   C10 4226   7.244   9.994   4.657  0.5003  0.5099 -0.2071
   10CHTO   H23 4227   7.203  10.074   4.719  0.5952  0.8671 -0.6068
   10CHTO   C17 4228   7.208   9.851   4.708 -0.2298 -0.7406  0.2413
   10CHTO   O12 4229   7.242   9.828   4.842  0.3585 -0.3933  0.4775
   10CHTO    H6 4230   7.277   9.911   4.870 -3.3501  2.1461 -1.8428
   11CHTO  H203 4231   6.978   3.876   3.594  0.1040 -0.6566 -1.2503
   11CHTO   O82 4232   6.899   3.846   3.634  0.5475  0.0826  0.1860
   11CHTO  C123 4233   6.823   3.966   3.680  0.4407  0.2983 -0.4436
   11CHTO  H227 4234   6.783   4.020   3.593  0.0017  1.7768  0.6451
   11CHTO   O77 4235   6.720   3.898   3.765  0.1366 -0.6900 -0.2398
   11CHTO  C118 4236   6.621   3.999   3.788  0.6577 -0.3852 -0.0073
   11CHTO  H222 4237   6.599   4.053   3.695 -0.0813 -2.6922 -1.1905
   11CHTO  C125 4238   6.488   3.936   3.844  0.5514  0.1907  0.0040
   11CHTO   O84 4239   6.431   3.847   3.746  0.1651  0.8248 -0.1546
   11CHTO  H205 4240   6.401   3.767   3.784  1.4948  0.2743 -0.2446
   11CHTO  C114 4241   6.668   4.099   3.889 -0.0577 -0.7969 -0.2610
   11CHTO  H218 4242   6.707   4.046   3.977  0.5225 -1.5421 -0.9583
   11CHTO  C116 4243   6.801   4.166   3.833  0.1174 -0.1650  0.3770
   11CHTO  H220 4244   6.767   4.234   3.753  1.2671  0.6438  0.5697
   11CHTO   O79 4245   6.854   4.255   3.934  0.0907 -0.3218 -0.4706
   11CHTO  H201 4246   6.902   4.213   4.003  3.1687  2.0611 -1.0498
   11CHTO  C120 4247   6.899   4.057   3.781 -0.4958 -0.1179 -0.1083
   11CHTO  H224 4248   6.930   4.006   3.874  0.4889  3.5149  1.6374
   11CHTO   N21 4249   7.019   4.119   3.720 -0.6751 -0.0070 -0.1434
   11CHTO  H211 4250   7.004   4.209   3.663  1.8493 -0.0429 -0.9276
   11CHTO  H212 4251   7.099   4.120   3.793 -0.0841 -0.4965 -0.7855
   11CHTO   O75 4252   6.556   4.183   3.925  0.7789  0.1288  0.0359
   11CHTO  C112 4253   6.568   4.237   4.069 -0.4194 -0.4642  0.4315
   11CHTO  H216 4254   6.673   4.240   4.101  0.5390 -2.2208 -2.2829
   11CHTO   O73 4255   6.487   4.150   4.151  0.3127 -0.6930 -0.1416
   11CHTO  C113 4256   6.479   4.187   4.288 -0.7923 -0.1648  0.1138
   11CHTO  H217 4257   6.575   4.201   4.342 -0.7035 -1.1802  0.2382
   11CHTO  C124 4258   6.405   4.074   4.372 -0.2759 -0.2987 -0.4557
   11CHTO   O83 4259   6.474   3.952   4.388 -0.1728  0.7318  0.2024
   11CHTO  H204 4260   6.559   3.976   4.420 -1.0949  0.4802  2.9370
   11CHTO  C109 4261   6.399   4.313   4.305  0.2031  0.0102  0.2441
   11CHTO  H213 4262   6.299   4.298   4.262 -0.9687  1.4566  2.3644
   11CHTO  C110 4263   6.472   4.427   4.220 -0.5718 -0.2959  0.3567
   11CHTO  H214 4264   6.562   4.451   4.278  0.1209  0.2125 -0.8928
   11CHTO   O78 4265   6.396   4.547   4.219  0.0781  0.1189 -0.7628
   11CHTO  H200 4266   6.309   4.531   4.188 -0.2012 -1.1680  0.6564
   11CHTO  C111 4267   6.504   4.383   4.075 -0.1192 -0.6302 -0.1621
   11CHTO  H215 4268   6.410   4.376   4.019  0.5197  1.2654 -1.5317
   11CHTO   N19 4269   6.588   4.474   3.995 -0.1420 -0.6673  0.4158
   11CHTO  H207 4270   6.536   4.568   3.999 -1.3467 -1.1699 -2.2198
   11CHTO  H208 4271   6.692   4.472   4.025 -0.9384 -3.5690  3.2530
   11CHTO   O74 4272   6.382   4.363   4.441 -0.5774 -0.1491  0.7792
   11CHTO  C115 4273   6.229   4.388   4.477  0.6737 -0.1583 -0.4422
   11CHTO  H219 4274   6.168   4.390   4.386 -2.8561 -2.2796  1.7394
   11CHTO   O76 4275   6.170   4.283   4.563  0.0298 -0.4601 -0.3009
   11CHTO  C122 4276   6.030   4.289   4.571 -0.7746  0.1643  0.3852
   11CHTO  H226 4277   6.005   4.214   4.646  1.1842  1.9181  2.8488
   11CHTO  C126 4278   5.962   4.238   4.432 -0.3408  0.0140 -0.0180
   11CHTO   O85 4279   5.819   4.213   4.438  0.9107  0.3553 -0.5269
   11CHTO  H206 4280   5.780   4.223   4.523 -1.6257 -0.0782 -1.5782
   11CHTO  C121 4281   5.984   4.422   4.639 -0.0817 -0.4335  0.3050
   11CHTO  H225 4282   5.876   4.436   4.620 -0.2208 -1.2953  0.4608
   11CHTO   O81 4283   5.999   4.403   4.780 -0.3291 -0.0552 -0.0057
   11CHTO  H202 4284   6.089   4.409   4.808 -0.7897  1.7311  1.1715
   11CHTO  C119 4285   6.052   4.554   4.578  0.2010 -0.1832 -0.2606
   11CHTO  H223 4286   6.002   4.571   4.483 -2.2478 -1.1341  0.8213
   11CHTO  C117 4287   6.207   4.521   4.558  0.5585 -0.3503 -1.1282
   11CHTO  H221 4288   6.253   4.495   4.653 -0.9640 -2.0340 -0.8291
   11CHTO   N20 4289   6.275   4.639   4.507  0.2216 -1.2143 -0.8580
   11CHTO  H209 4290   6.217   4.708   4.447  1.3443  0.4257 -0.0778
   11CHTO  H210 4291   6.307   4.706   4.585  1.4411 -0.4803 -1.9626
   11CHTO   O80 4292   6.009   4.684   4.650 -0.6695  0.7836 -0.0517
   11CHTO  C103 4293   6.043   4.721   4.806 -0.8895  0.3360 -0.6652
   11CHTO  H190 4294   5.986   4.653   4.870  2.9868 -1.1224  1.3917
   11CHTO  C101 4295   6.192   4.716   4.866  0.1058 -0.5606  0.2264
   11CHTO  H188 4296   6.258   4.772   4.799 -1.5300  0.6923 -0.3613
   11CHTO   O68 4297   6.239   4.570   4.880  0.4074 -0.5317 -0.2481
   11CHTO  H168 4298   6.167   4.512   4.899  0.1974 -0.3612 -0.5291
   11CHTO   C99 4299   6.193   4.782   5.012  0.2826  0.0183  0.2599
   11CHTO  H186 4300   6.121   4.721   5.071 -0.3349 -1.0398 -1.5511
   11CHTO   N17 4301   6.332   4.789   5.072  0.0292  0.2589 -0.1554
   11CHTO  H174 4302   6.414   4.757   5.009 -1.0527 -0.2969 -1.3286
   11CHTO  H175 4303   6.331   4.742   5.169 -1.4784 -1.0598 -0.7865
   11CHTO   C97 4304   6.131   4.926   5.004  0.2076 -0.7488 -0.2355
   11CHTO  H184 4305   6.189   4.979   4.928 -1.2367  0.3911 -0.5672
   11CHTO   O64 4306   5.992   4.912   4.959 -0.2509  0.3780  0.1887
   11CHTO  C104 4307   5.990   4.862   4.822  1.2359 -0.5663 -0.2527
   11CHTO  H191 4308   6.048   4.932   4.762 -0.8993  0.8260 -0.7692
   11CHTO  C108 4309   5.842   4.875   4.775  0.4780  0.4408 -0.2779
   11CHTO   O71 4310   5.763   4.778   4.838  0.7088 -0.2582 -0.1292
   11CHTO  H171 4311   5.789   4.690   4.818 -2.4838 -1.0544 -1.1303
   11CHTO   O62 4312   6.118   4.993   5.135  0.6797 -0.0268  0.4576
   11CHTO   C91 4313   6.092   5.138   5.136 -0.2147 -0.0970 -0.2336
   11CHTO  H178 4314   5.997   5.148   5.084 -0.8889 -1.2775  0.7560
   11CHTO   C92 4315   6.197   5.218   5.042 -0.4384  0.5912  0.1508
   11CHTO  H179 4316   6.290   5.159   5.038 -1.1805 -0.5543 -0.4911
   11CHTO   O66 4317   6.150   5.218   4.908  0.2135  0.4776  0.2305
   11CHTO  H166 4318   6.178   5.142   4.861  0.3263  0.7037 -0.0688
   11CHTO   C93 4319   6.219   5.367   5.088  0.2686 -0.0209 -0.3357
   11CHTO  H180 4320   6.122   5.414   5.065 -0.6095 -0.3276  2.4799
   11CHTO   N16 4321   6.323   5.447   5.022  0.2741  0.0415 -0.1068
   11CHTO  H172 4322   6.282   5.497   4.935 -0.7474 -0.1759  0.2407
   11CHTO  H173 4323   6.394   5.378   4.978 -0.4061 -0.7814  0.0597
   11CHTO   C94 4324   6.232   5.371   5.248 -0.0343  0.6452 -0.3040
   11CHTO  H181 4325   6.303   5.302   5.292  2.3640  2.3705 -1.4015
   11CHTO   O61 4326   6.104   5.340   5.298 -0.3272 -0.2973  0.3578
   11CHTO   C95 4327   6.074   5.197   5.283 -0.3504 -0.5198  0.2798
   11CHTO  H182 4328   6.138   5.136   5.347  1.3426  0.8107 -0.1135
   11CHTO  C106 4329   5.929   5.186   5.350  0.0745  0.5817 -0.2776
   11CHTO   O69 4330   5.932   5.204   5.492 -0.0039 -0.1708  0.0914
   11CHTO  H169 4331   5.948   5.119   5.530 -0.2553  0.2632  1.1754
   11CHTO   O63 4332   6.268   5.533   5.299 -0.1686 -0.5274 -0.3977
   11CHTO   C96 4333   6.326   5.529   5.440 -0.9287 -0.1189  0.0675
   11CHTO  H183 4334   6.371   5.431   5.449 -1.2184 -0.1911  0.7395
   11CHTO   C98 4335   6.238   5.561   5.566  0.3119 -0.3347 -0.0891
   11CHTO  H185 4336   6.179   5.652   5.548 -0.0769 -0.5656  0.0061
   11CHTO   O67 4337   6.139   5.456   5.573  0.6415 -0.0539  0.1584
   11CHTO  H167 4338   6.071   5.465   5.637 -1.9304 -1.7816 -2.2177
   11CHTO  C102 4339   6.318   5.575   5.706 -0.1035 -0.0136 -0.3405
   11CHTO  H189 4340   6.373   5.481   5.725 -0.6698  0.1779  2.4282
   11CHTO   N18 4341   6.243   5.603   5.832  0.3368 -0.5017  0.4933
   11CHTO  H176 4342   6.257   5.704   5.867 -1.7652 -0.4223  1.2112
   11CHTO  H177 4343   6.277   5.531   5.905 -0.9089  0.1287  1.7227
   11CHTO  C105 4344   6.432   5.679   5.683  0.9443 -0.2416  0.2505
   11CHTO  H192 4345   6.390   5.778   5.665  1.3706 -0.0839  0.1239
   11CHTO   O65 4346   6.517   5.638   5.574  0.5169 -0.1290  0.5134
   11CHTO  C100 4347   6.463   5.619   5.443 -0.2158  0.1789  0.2588
   11CHTO  H187 4348   6.430   5.722   5.420  1.8989  0.6081 -0.9615
   11CHTO  C107 4349   6.571   5.569   5.343  0.0090 -0.4233 -0.1778
   11CHTO   O70 4350   6.627   5.446   5.376  0.5141  0.3787  0.1885
   11CHTO  H170 4351   6.555   5.386   5.364  0.0074  1.1125 -0.5417
   11CHTO   O57 4352   6.524   5.690   5.831 -0.3633 -0.0398 -0.6012
   11CHTO   C85 4353   6.634   5.778   5.849  0.2213  0.3867  0.1687
   11CHTO  H157 4354   6.666   5.777   5.955  3.0049  0.0255 -0.6455
   11CHTO   C83 4355   6.592   5.932   5.843 -0.5189 -0.1041  0.3422
   11CHTO  H155 4356   6.510   5.958   5.909 -2.6345  0.0465 -2.2592
   11CHTO   O56 4357   6.542   5.956   5.711  0.2264 -0.8725  0.2052
   11CHTO  H135 4358   6.467   6.011   5.719  1.9827  1.6340  0.3677
   11CHTO   C81 4359   6.710   6.023   5.872 -0.2369  0.0899  0.1590
   11CHTO  H153 4360   6.746   5.999   5.972 -0.1223 -0.8720 -0.0996
   11CHTO   N14 4361   6.680   6.169   5.886  0.6162  0.1774  0.1896
   11CHTO  H141 4362   6.645   6.200   5.790  0.3885  1.3356  0.6358
   11CHTO  H142 4363   6.774   6.218   5.901  0.8164  0.1082 -0.7560
   11CHTO   C79 4364   6.834   5.989   5.772 -0.2098  0.3169 -0.1644
   11CHTO  H151 4365   6.920   6.044   5.810  0.4102 -0.2170 -0.7806
   11CHTO   O52 4366   6.867   5.849   5.775 -0.0260  0.5163 -0.2713
   11CHTO   C86 4367   6.757   5.756   5.755  0.3796  0.2855  0.4831
   11CHTO  H158 4368   6.738   5.755   5.645 -0.8771 -0.9863  0.6889
   11CHTO   C90 4369   6.821   5.615   5.780 -0.0695  0.4053  0.8213
   11CHTO   O60 4370   6.758   5.506   5.706 -0.1968 -0.3488  0.4004
   11CHTO  H138 4371   6.667   5.513   5.727 -0.2555  1.0542 -0.2447
   11CHTO   O50 4372   6.826   6.043   5.640  0.0483 -0.1860 -0.2252
   11CHTO   C73 4373   6.906   6.088   5.527 -0.4697  0.4343  0.2882
   11CHTO  H145 4374   6.913   6.198   5.528  0.5782  0.3784 -0.0465
   11CHTO   C74 4375   6.847   6.043   5.391  0.0299 -0.3926  0.1187
   11CHTO  H146 4376   6.742   6.077   5.386 -0.2270 -1.2136 -0.2406
   11CHTO   O54 4377   6.925   6.108   5.297 -0.7050 -0.4303  0.1410
   11CHTO  H133 4378   6.892   6.196   5.297 -4.2089 -1.6443 -1.8213
   11CHTO   C75 4379   6.853   5.891   5.372 -0.0568  0.6111 -0.3372
   11CHTO  H147 4380   6.782   5.850   5.446  1.4286 -2.3500 -0.4836
   11CHTO   N13 4381   6.797   5.840   5.244 -0.3446  0.0171  0.0424
   11CHTO  H139 4382   6.783   5.733   5.246  3.9533 -0.6204  0.4640
   11CHTO  H140 4383   6.869   5.865   5.168  1.1498 -1.6573  0.8745
   11CHTO   C76 4384   6.998   5.836   5.415  0.3105 -0.2641  0.2822
   11CHTO  H148 4385   7.064   5.838   5.328  0.5684  1.7801  0.4909
   11CHTO   O49 4386   7.068   5.895   5.526  0.1590 -0.3021 -0.4585
   11CHTO   C77 4387   7.060   6.036   5.532 -0.1532  1.4416  0.0364
   11CHTO  H149 4388   7.113   6.079   5.447  0.7156 -0.1068 -0.2246
   11CHTO   C88 4389   7.146   6.073   5.655 -0.2144 -0.1656  0.1077
   11CHTO   O58 4390   7.286   6.042   5.644 -0.8224  0.5445  0.2885
   11CHTO  H136 4391   7.339   6.079   5.712  1.8231  0.2268 -1.5272
   11CHTO   O51 4392   6.971   5.701   5.459 -0.2758 -0.4388  0.1152
   11CHTO   C78 4393   7.102   5.585   5.446 -0.4032 -0.3293 -0.3479
   11CHTO  H150 4394   7.076   5.496   5.506  2.5580  0.2620  1.9160
   11CHTO   C80 4395   7.240   5.641   5.494  0.4090  0.7158  0.0804
   11CHTO  H152 4396   7.268   5.727   5.429  1.9935 -1.5984 -2.4196
   11CHTO   O55 4397   7.216   5.675   5.636  0.4782  0.6473 -0.4931
   11CHTO  H134 4398   7.214   5.592   5.680 -1.5218  1.4841  1.0538
   11CHTO   C84 4399   7.348   5.521   5.479  0.3219  0.0019  0.4826
   11CHTO  H156 4400   7.307   5.430   5.525 -2.1766 -0.2042 -1.9995
   11CHTO   N15 4401   7.481   5.549   5.542  0.0608  0.0095 -0.0832
   11CHTO  H143 4402   7.522   5.463   5.590  0.6767  1.0275  1.2461
   11CHTO  H144 4403   7.478   5.635   5.605 -0.0350 -1.7660  2.3913
   11CHTO   C87 4404   7.360   5.491   5.328 -0.1979  0.2177  0.1594
   11CHTO  H159 4405   7.399   5.575   5.270 -0.8224 -1.6562 -3.1201
   11CHTO   O53 4406   7.212   5.444   5.282 -0.3172  0.1708 -0.1722
   11CHTO   C82 4407   7.104   5.537   5.299  0.4265 -0.5942  0.5935
   11CHTO  H154 4408   7.114   5.626   5.237 -2.3901 -0.3151  0.4703
   11CHTO   C89 4409   6.974   5.467   5.255 -0.1803  0.7503 -0.0977
   11CHTO   O59 4410   6.985   5.399   5.127  0.4037  0.4181  0.7267
   11CHTO  H137 4411   6.911   5.396   5.070  0.7603 -1.5302  0.3481
   11CHTO   O45 4412   7.451   5.372   5.293  0.2069  0.6345  0.2131
   11CHTO   C67 4413   7.485   5.376   5.153 -0.4357  0.1240  0.1164
   11CHTO  H124 4414   7.397   5.410   5.098 -1.9485 -1.8837  1.2531
   11CHTO   C65 4415   7.601   5.478   5.108 -0.2670  0.4640 -0.0607
   11CHTO  H122 4416   7.652   5.515   5.197 -0.8226  0.2285  0.3648
   11CHTO   O44 4417   7.537   5.589   5.040 -0.4262  0.6807 -0.1899
   11CHTO  H102 4418   7.534   5.579   4.947 -0.6076  0.2387 -0.1343
   11CHTO   C63 4419   7.715   5.401   5.021  0.2721 -0.0181 -0.0398
   11CHTO  H120 4420   7.778   5.347   5.092 -0.7056  1.8456  2.2824
   11CHTO   N11 4421   7.809   5.493   4.950 -0.2522 -0.0947  0.0755
   11CHTO  H108 4422   7.829   5.590   4.989  0.6488  0.1529 -0.9505
   11CHTO  H109 4423   7.884   5.444   4.892  0.3053  0.7488  0.0877
   11CHTO   C61 4424   7.658   5.301   4.916 -0.9066 -0.2449 -0.2328
   11CHTO  H118 4425   7.744   5.235   4.897 -1.1917 -0.1724 -1.7969
   11CHTO   O40 4426   7.555   5.219   4.965 -0.3455  0.6359 -0.3033
   11CHTO   C68 4427   7.508   5.222   5.107 -0.7903  0.0554  0.0776
   11CHTO  H125 4428   7.575   5.179   5.185 -0.8868  2.4892  1.5677
   11CHTO   C72 4429   7.372   5.147   5.123 -0.1684  0.3022  0.4185
   11CHTO   O48 4430   7.270   5.201   5.040 -0.9540  0.3010 -0.5956
   11CHTO  H105 4431   7.201   5.139   5.025 -0.7684 -0.2325  0.6840
   11CHTO   O38 4432   7.608   5.360   4.796  0.2871  0.0974  0.5584
   11CHTO   C55 4433   7.621   5.281   4.674  0.4170 -0.0227  0.1235
   11CHTO  H112 4434   7.641   5.174   4.693 -0.2876  0.2027  2.2069
   11CHTO   C56 4435   7.725   5.344   4.570  0.2545 -0.1305  0.7673
   11CHTO  H113 4436   7.707   5.449   4.545 -2.8791 -0.5198  1.2186
   11CHTO   O42 4437   7.860   5.339   4.611 -0.0766 -0.1660 -0.7549
   11CHTO  H100 4438   7.890   5.257   4.646  0.0449  0.0855 -0.2511
   11CHTO   C57 4439   7.714   5.263   4.435 -0.0334 -0.3784 -0.4949
   11CHTO  H114 4440   7.756   5.168   4.465  1.2517  0.5288  0.6111
   11CHTO   N10 4441   7.806   5.307   4.324 -0.0924  0.2993 -0.6665
   11CHTO  H106 4442   7.748   5.379   4.267  2.7511  1.8885 -1.6537
   11CHTO  H107 4443   7.888   5.361   4.368  1.4926 -1.6864 -1.1253
   11CHTO   C58 4444   7.571   5.246   4.381  0.9491  0.4204  0.1390
   11CHTO  H115 4445   7.532   5.344   4.348  0.4728  0.0695 -0.3588
   11CHTO   O37 4446   7.486   5.194   4.489  0.3989 -0.6703 -0.5590
   11CHTO   C59 4447   7.486   5.283   4.600  0.2139 -0.0074  0.8612
   11CHTO  H116 4448   7.476   5.384   4.561  0.5325 -0.7040 -1.0620
   11CHTO   C70 4449   7.370   5.242   4.692 -0.1023  0.3342 -0.6627
   11CHTO   O46 4450   7.373   5.121   4.761 -0.4323 -0.3671  0.2071
   11CHTO  H103 4451   7.372   5.046   4.705  2.2926 -1.1357  1.1289
   11CHTO   O39 4452   7.564   5.148   4.249 -0.6081 -0.1013  0.1112
   11CHTO   C60 4453   7.435   5.160   4.188 -0.2754 -0.9193 -0.1188
   11CHTO  H117 4454   7.356   5.196   4.254  0.1763  1.4255 -0.8101
   11CHTO   C62 4455   7.435   5.270   4.084  0.2012 -0.5339  0.4536
   11CHTO  H119 4456   7.468   5.358   4.143  1.5355 -0.1523 -0.8180
   11CHTO   O43 4457   7.534   5.241   3.984  0.0546 -0.1519  0.0781
   11CHTO  H101 4458   7.537   5.307   3.918 -0.0012 -0.3004 -0.0732
   11CHTO   C66 4459   7.286   5.290   4.029  0.4317  0.0751 -0.1827
   11CHTO  H123 4460   7.218   5.285   4.114  1.3867 -1.0361  0.5336
   11CHTO   N12 4461   7.259   5.420   3.961  0.3600  0.0324  0.5574
   11CHTO  H110 4462   7.354   5.467   3.940 -0.0177  1.1515  1.2992
   11CHTO  H111 4463   7.199   5.483   4.025  1.3243  3.2367 -1.5631
   11CHTO   C69 4464   7.249   5.163   3.949  0.4571  0.2071 -0.1544
   11CHTO  H126 4465   7.307   5.158   3.855 -0.3100 -1.3777 -0.5634
   11CHTO   O41 4466   7.262   5.037   4.033 -0.2697  0.1252 -0.5107
   11CHTO   C64 4467   7.395   5.019   4.135 -0.4784 -0.5468 -0.0824
   11CHTO  H121 4468   7.489   4.990   4.084 -1.5341 -1.6048 -1.4640
   11CHTO   C71 4469   7.372   4.918   4.251 -1.0954 -0.4846 -0.1951
   11CHTO   O47 4470   7.262   4.952   4.334  0.2656 -0.0878 -0.1608
   11CHTO  H104 4471   7.180   4.958   4.288  0.4700  1.0225 -0.3969
   11CHTO   O34 4472   7.082   5.145   3.897  0.5628  0.4255  0.4613
   11CHTO   C49 4473   6.983   5.068   3.985  0.4657 -0.3850 -0.8205
   11CHTO   H91 4474   7.018   4.966   3.998 -0.2852 -0.7854 -1.8570
   11CHTO   C47 4475   6.848   5.064   3.908 -0.0308  1.1959  0.0982
   11CHTO   H89 4476   6.775   5.003   3.965  1.6212 -0.4394  0.5160
   11CHTO   O33 4477   6.869   4.998   3.781  0.4978  0.5937 -0.2757
   11CHTO   H70 4478   6.794   4.998   3.724  1.4300  0.3931 -1.5412
   11CHTO   C45 4479   6.794   5.216   3.900 -0.0754 -0.3457 -0.1607
   11CHTO   H87 4480   6.870   5.279   3.852 -0.1288  1.1323  1.6296
   11CHTO    N8 4481   6.665   5.226   3.824 -0.1297 -0.2565 -0.2904
   11CHTO   H75 4482   6.637   5.330   3.820 -1.1258 -0.5498 -1.2341
   11CHTO   H76 4483   6.590   5.182   3.889  0.0592 -1.8572 -1.1384
   11CHTO   C43 4484   6.777   5.279   4.044  0.6146 -0.3707  0.1975
   11CHTO   H85 4485   6.760   5.386   4.032 -1.0296 -0.7246 -0.7631
   11CHTO   O29 4486   6.887   5.255   4.134  0.2108  0.2934  0.1222
   11CHTO   C50 4487   6.960   5.125   4.129  0.4464  0.1871  0.6405
   11CHTO   H92 4488   7.061   5.144   4.168  0.3282  0.6062  0.7455
   11CHTO   C54 4489   6.890   5.021   4.225 -0.3593 -0.5604 -0.1578
   11CHTO   O36 4490   6.866   5.083   4.355 -0.1693  0.5614 -0.2166
   11CHTO   H72 4491   6.774   5.097   4.360 -0.2296  0.7688 -1.5732
   11CHTO   O27 4492   6.666   5.215   4.115  0.0045  0.6632 -0.3936
   11CHTO   C37 4493   6.559   5.196   4.204  0.7495 -0.7562  0.1850
   11CHTO   H79 4494   6.573   5.107   4.267 -1.8947 -1.8331 -0.7168
   11CHTO   C38 4495   6.547   5.328   4.288  0.2820  0.6766 -0.0543
   11CHTO   H80 4496   6.542   5.416   4.222  2.0664  3.4210  3.3050
   11CHTO   O31 4497   6.671   5.349   4.366 -0.2972 -0.5256 -0.2315
   11CHTO   H68 4498   6.735   5.281   4.374  1.3793  1.2979  2.4248
   11CHTO   C39 4499   6.422   5.317   4.387 -0.3297 -0.2737 -0.7934
   11CHTO   H81 4500   6.444   5.246   4.465 -1.2492 -1.2357 -1.3918
   11CHTO    N7 4501   6.387   5.450   4.446 -0.0787  0.4692  0.9368
   11CHTO   H73 4502   6.316   5.441   4.527 -0.4132  0.0608  0.5999
   11CHTO   H74 4503   6.338   5.505   4.367 -0.1577 -1.2520 -0.2397
   11CHTO   C40 4504   6.295   5.270   4.313  0.1538 -0.0787 -0.5148
   11CHTO   H82 4505   6.227   5.345   4.273 -0.8581 -0.2531  0.8157
   11CHTO   O26 4506   6.310   5.157   4.225  0.1371  0.1937  0.1434
   11CHTO   C41 4507   6.422   5.172   4.122  0.5313  0.3929  0.1927
   11CHTO   H83 4508   6.392   5.254   4.056 -2.5432 -1.9200 -1.3807
   11CHTO   C52 4509   6.424   5.041   4.042  0.2184  0.1376 -0.3280
   11CHTO   O35 4510   6.432   4.924   4.133  0.3133  0.5856 -0.1122
   11CHTO   H71 4511   6.453   4.849   4.081  1.2682  0.1260  0.9065
   11CHTO   O28 4512   6.217   5.196   4.409 -0.1517 -0.1114 -0.4883
   11CHTO   C42 4513   6.074   5.189   4.400  0.1163  0.0875  0.4344
   11CHTO   H84 4514   6.044   5.224   4.301 -2.1680  0.8890  1.3727
   11CHTO   C44 4515   6.006   5.293   4.500 -0.2412 -0.1157  0.0892
   11CHTO   H86 4516   6.025   5.256   4.600  1.6835  0.8128  0.0988
   11CHTO   O32 4517   6.067   5.422   4.470 -0.5915 -0.3080  0.5623
   11CHTO   H69 4518   6.158   5.416   4.448 -0.6009  0.5323  0.2677
   11CHTO   C48 4519   5.846   5.299   4.475 -0.2479  0.3901  0.8706
   11CHTO   H90 4520   5.818   5.327   4.373  2.6493 -0.5514 -0.2525
   11CHTO    N9 4521   5.785   5.402   4.566 -0.0940 -0.1720 -0.3794
   11CHTO   H77 4522   5.741   5.493   4.526 -1.2003 -0.8948 -0.8327
   11CHTO   H78 4523   5.729   5.359   4.647 -1.3707  0.5070 -0.8863
   11CHTO   C51 4524   5.798   5.151   4.501 -0.0164 -0.5535 -0.1509
   11CHTO   H93 4525   5.834   5.133   4.602 -0.6341  1.6728  0.5030
   11CHTO   O30 4526   5.848   5.058   4.405  0.0167 -0.0292 -0.3687
   11CHTO   C46 4527   6.016   5.045   4.417 -0.0599 -0.1244  0.0925
   11CHTO   H88 4528   6.034   5.007   4.517  0.6395  0.6120  0.2501
   11CHTO   C53 4529   6.071   4.948   4.311 -0.4675  0.1770  0.4158
   11CHTO   O72 4530   6.023   4.811   4.340 -0.2913 -0.4107 -0.1852
   11CHTO  H199 4531   6.084   4.761   4.391  2.4424 -0.8373 -3.7148
   11CHTO   O22 4532   5.652   5.148   4.484 -0.4340  0.2869  0.2796
   11CHTO   C31 4533   5.576   5.024   4.514 -0.7313 -0.4997  0.2720
   11CHTO   H59 4534   5.652   4.943   4.526  1.7960  1.7601  0.0624
   11CHTO   C29 4535   5.500   5.038   4.645 -0.0551 -0.6058  0.4935
   11CHTO   H57 4536   5.416   5.105   4.621  0.3955  0.1403  0.9649
   11CHTO   O21 4537   5.582   5.101   4.745 -0.0551 -0.5170 -0.0992
   11CHTO   H37 4538   5.538   5.167   4.795 -0.2623 -0.9178  0.2571
   11CHTO   C27 4539   5.442   4.897   4.684 -0.2472 -0.0461  0.2757
   11CHTO   H55 4540   5.526   4.827   4.689  1.0734  1.5255  0.3992
   11CHTO    N5 4541   5.359   4.894   4.812 -0.0081  0.0847 -0.5365
   11CHTO   H43 4542   5.294   4.979   4.820 -0.5501 -0.2643 -1.1735
   11CHTO   H44 4543   5.410   4.901   4.906  0.1338  2.3078 -0.7641
   11CHTO   C25 4544   5.362   4.843   4.573  0.2511 -0.2915 -0.0765
   11CHTO   H53 4545   5.271   4.901   4.556  1.6186  2.0625  0.4195
   11CHTO   O17 4546   5.419   4.857   4.441 -0.2537 -0.4152  0.3911
   11CHTO   C32 4547   5.484   4.981   4.402 -0.1660  0.3115 -0.2860
   11CHTO   H60 4548   5.403   5.053   4.388 -0.7442 -0.6184 -1.7779
   11CHTO   C36 4549   5.549   4.967   4.255  0.2505  0.1549 -0.2496
   11CHTO   O25 4550   5.630   4.847   4.242 -0.1628  0.4957 -0.0775
   11CHTO   H40 4551   5.714   4.872   4.207 -1.6153  3.1121 -1.9028
   11CHTO   O15 4552   5.348   4.675   4.583  0.2894 -0.5527  0.4281
   11CHTO   C19 4553   5.311   4.536   4.581 -0.5397  0.5644  0.1975
   11CHTO   H47 4554   5.385   4.479   4.639 -0.4850 -2.4776 -2.6480
   11CHTO   C20 4555   5.174   4.519   4.642  0.4796  0.7700 -0.1305
   11CHTO   H48 4556   5.097   4.576   4.588 -1.2645 -1.6728 -0.2486
   11CHTO   O19 4557   5.174   4.580   4.772 -0.2810 -0.1840 -0.0339
   11CHTO   H35 4558   5.245   4.552   4.827  0.0612 -0.8573 -0.8110
   11CHTO   C21 4559   5.136   4.366   4.653 -0.1944  0.4136  0.1644
   11CHTO   H49 4560   5.205   4.321   4.724  0.9261  2.2110  0.2509
   11CHTO    N4 4561   5.003   4.344   4.707  1.5259 -0.7270 -0.2812
   11CHTO   H41 4562   4.996   4.380   4.809 -2.5045 -0.7250 -0.4826
   11CHTO   H42 4563   4.933   4.403   4.651  2.3388 -0.5894 -1.1542
   11CHTO   C22 4564   5.150   4.299   4.509  0.0638 -0.0989 -0.2824
   11CHTO   H50 4565   5.086   4.348   4.435 -0.0210  1.6787  0.9436
   11CHTO   O14 4566   5.279   4.327   4.456  0.0466 -0.4637 -0.6333
   11CHTO   C23 4567   5.316   4.467   4.441 -0.0209  0.1552  0.0776
   11CHTO   H51 4568   5.255   4.523   4.368  0.2907  0.1555 -0.1835
   11CHTO   C34 4569   5.461   4.475   4.386 -0.4683  0.2217  0.4539
   11CHTO   O23 4570   5.496   4.601   4.325  0.4076  0.0983 -1.2087
   11CHTO   H38 4571   5.508   4.665   4.392 -2.3922 -0.0355 -0.4994
   11CHTO   O16 4572   5.140   4.156   4.508 -0.1582  0.2380 -0.1765
   11CHTO   C24 4573   5.103   4.092   4.364  0.5964 -0.2915 -0.1097
   11CHTO   H52 4574   5.137   4.156   4.283  0.8455  0.3053  0.4671
   11CHTO   C26 4575   4.957   4.055   4.361  0.5552  0.0726  0.6707
   11CHTO   H54 4576   4.935   3.977   4.436 -1.0606  0.3359  0.4766
   11CHTO   O20 4577   4.879   4.171   4.374  0.3877 -0.4669  0.2871
   11CHTO   H36 4578   4.796   4.154   4.416 -0.0453  0.9575  0.0359
   11CHTO   C30 4579   4.931   3.991   4.221 -0.5744 -0.4853  0.1544
   11CHTO   H58 4580   4.946   4.072   4.149  5.4044 -0.8349  0.7751
   11CHTO    N6 4581   4.787   3.947   4.207 -0.5596 -0.0789 -0.0493
   11CHTO   H45 4582   4.762   3.867   4.275 -0.8637  1.3546  1.5794
   11CHTO   H46 4583   4.711   4.024   4.201  1.6950  2.0646 -2.4853
   11CHTO   C33 4584   5.033   3.881   4.188 -0.7534 -0.1321  0.5125
   11CHTO   H61 4585   5.001   3.783   4.228  2.4382 -2.1846 -1.6282
   11CHTO   O18 4586   5.168   3.908   4.228  0.2245 -0.5203  0.0863
   11CHTO   C28 4587   5.192   3.957   4.356  0.2132 -0.1794 -0.0307
   11CHTO   H56 4588   5.153   3.885   4.428  0.8653  0.9844  1.4964
   11CHTO   C35 4589   5.352   3.983   4.388 -0.0302  0.6944 -0.1449
   11CHTO   O24 4590   5.426   3.861   4.367 -0.3394 -0.7829  0.0095
   11CHTO   H39 4591   5.435   3.822   4.452  1.7290 -0.8274 -0.1980
   11CHTO    O9 4592   5.022   3.863   4.039 -0.4721  0.8218  0.3089
   11CHTO   C13 4593   5.129   3.961   3.960  0.4561  0.5985 -0.0707
   11CHTO   H26 4594   5.166   4.034   4.034 -0.0684  0.0445  0.7481
   11CHTO   C11 4595   5.057   4.035   3.838  0.7066 -0.1346  0.8165
   11CHTO   H24 4596   4.974   4.097   3.874  0.6039  0.2614 -0.0836
   11CHTO    O8 4597   5.004   3.936   3.744 -0.1068 -0.4727 -0.1405
   11CHTO    H3 4598   4.973   3.986   3.671  1.9651  1.2920  0.1376
   11CHTO    C9 4599   5.159   4.133   3.776 -0.0552 -0.3014  0.1489
   11CHTO   H22 4600   5.155   4.223   3.839  0.4499 -0.6052  0.6118
   11CHTO    N2 4601   5.110   4.186   3.647  0.2375  1.0970  0.4284
   11CHTO   H10 4602   5.102   4.294   3.647 -0.1042  1.0690  1.2089
   11CHTO   H11 4603   5.015   4.151   3.609  1.2368 -0.0938 -1.0847
   11CHTO    C7 4604   5.309   4.077   3.774 -0.3061 -0.4792 -0.8620
   11CHTO   H20 4605   5.350   4.131   3.862 -0.0450  3.5928 -3.3545
   11CHTO    O4 4606   5.305   3.932   3.785 -0.0414 -0.0484 -0.4802
   11CHTO   C14 4607   5.257   3.874   3.907 -0.5636 -0.9784 -0.2329
   11CHTO   H27 4608   5.343   3.879   3.976 -0.0883 -1.8948 -0.7563
   11CHTO   C18 4609   5.219   3.723   3.884 -0.4431  0.1789 -0.4243
   11CHTO   O13 4610   5.340   3.648   3.873 -0.2387  0.0534  0.4730
   11CHTO    H7 4611   5.319   3.572   3.822 -1.0110  0.0545  0.7863
   11CHTO    O2 4612   5.385   4.113   3.649 -0.0102 -0.0923 -0.0804
   11CHTO    C1 4613   5.510   4.176   3.667  0.0832 -0.0119  0.1298
   11CHTO   H14 4614   5.535   4.176   3.775 -0.9570  1.8355  0.3939
   11CHTO    C2 4615   5.506   4.327   3.622  0.6554  0.5813 -0.1561
   11CHTO   H15 4616   5.460   4.327   3.523 -3.7650  2.3802  1.7630
   11CHTO    O6 4617   5.424   4.391   3.716  0.0564 -0.0484  0.0330
   11CHTO    H1 4618   5.447   4.482   3.722  0.2076 -0.0351 -0.6751
   11CHTO    C3 4619   5.648   4.402   3.629 -0.5971 -0.2640  0.5379
   11CHTO   H16 4620   5.672   4.417   3.735  0.3650 -0.1548  0.3186
   11CHTO    N1 4621   5.649   4.543   3.568  0.0713 -0.4865 -0.4315
   11CHTO    H8 4622   5.569   4.565   3.498 -1.9032 -0.0125  1.9144
   11CHTO    H9 4623   5.741   4.563   3.515  0.0395 -0.2214 -0.3921
   11CHTO    C4 4624   5.763   4.303   3.572  0.3782 -0.2045  0.0821
   11CHTO   H17 4625   5.742   4.291   3.465 -0.5281  1.7743  0.0088
   11CHTO    O1 4626   5.742   4.169   3.631 -0.6112 -0.0953  0.1818
   11CHTO    C5 4627   5.620   4.100   3.588 -0.6101  0.2862 -0.5051
   11CHTO   H18 4628   5.598   4.108   3.482  0.1956  0.8519 -0.6367
   11CHTO   C16 4629   5.623   3.950   3.628 -0.2766  0.2944 -0.1748
   11CHTO   O11 4630   5.708   3.874   3.547 -0.0611  0.3780 -0.2698
   11CHTO    H5 4631   5.801   3.884   3.558 -0.0042 -0.8424  0.4696
   11CHTO    O3 4632   5.898   4.335   3.606 -0.1740  0.6739  0.2882
   11CHTO    C6 4633   6.014   4.344   3.520 -0.2867 -0.3768  0.5597
   11CHTO   H19 4634   5.979   4.302   3.426  1.3548  0.9032 -0.6470
   11CHTO    C8 4635   6.059   4.495   3.494 -0.1098  0.1302  0.0870
   11CHTO   H21 4636   6.089   4.547   3.585 -0.6647  0.9550 -0.1929
   11CHTO    O7 4637   5.945   4.557   3.437  0.3346 -0.1842  0.2455
   11CHTO    H2 4638   5.925   4.641   3.473 -1.9988 -0.0160 -1.3254
   11CHTO   C12 4639   6.187   4.492   3.398  0.8598 -0.4798 -0.6548
   11CHTO   H25 4640   6.152   4.451   3.300 -2.2713 -0.0932  0.2454
   11CHTO    N3 4641   6.230   4.634   3.383 -0.0608  0.3208 -0.4890
   11CHTO   H12 4642   6.227   4.660   3.278  0.9541  0.2652 -0.5375
   11CHTO   H13 4643   6.175   4.709   3.438  0.0642 -0.1380  0.2699
   11CHTO   C15 4644   6.292   4.399   3.468  0.1330 -0.5447  0.2458
   11CHTO   H28 4645   6.326   4.430   3.567 -3.0486 -0.9119  1.4904
   11CHTO   O10 4646   6.435   4.387   3.380  0.0861  0.2258 -0.6062
   11CHTO    H4 4647   6.423   4.330   3.306 -1.5188  0.3834 -0.5002
   11CHTO    O5 4648   6.242   4.261   3.466 -0.4740 -0.6823  0.3014
   11CHTO   C10 4649   6.137   4.261   3.559  0.1035  0.7942 -0.0146
   11CHTO   H23 4650   6.173   4.308   3.651 -0.9091  2.7629 -0.6024
   11CHTO   C17 4651   6.091   4.120   3.598 -0.3384  0.5260  0.6380
   11CHTO   O12 4652   6.178   4.035   3.673 -0.2800 -0.2097  0.4758
   11CHTO    H6 4653   6.258   4.028   3.624 -0.8337 -1.5858 -0.2459
   12CHTO  H203 4654   4.807   1.112   0.471 -0.9100 -0.9803  0.2103
   12CHTO   O82 4655   4.789   1.053   0.401 -0.1581 -0.0928 -0.7471
   12CHTO  C123 4656   4.907   0.988   0.345  0.1813  0.3764 -0.1245
   12CHTO  H227 4657   4.998   1.030   0.391  0.5746  1.5760 -1.9582
   12CHTO   O77 4658   4.899   0.851   0.398 -0.2346 -0.3595  0.7174
   12CHTO  C118 4659   5.006   0.758   0.365 -0.7023 -0.2490 -0.2815
   12CHTO  H222 4660   5.100   0.782   0.417 -0.3240 -0.6691 -0.7683
   12CHTO  C125 4661   4.955   0.622   0.409  0.4064  0.3960 -0.5398
   12CHTO   O84 4662   5.062   0.533   0.413  0.1781  0.4908  1.0283
   12CHTO  H205 4663   5.111   0.559   0.488  0.7619  0.7710  0.5562
   12CHTO  C114 4664   5.030   0.759   0.213  0.6428 -0.2868  0.2835
   12CHTO  H218 4665   4.950   0.704   0.162 -0.4079  2.1525 -0.7960
   12CHTO  C116 4666   5.048   0.910   0.153 -0.1846  0.4400  0.4826
   12CHTO  H220 4667   5.143   0.956   0.187  0.6349 -1.9216  1.4723
   12CHTO   O79 4668   5.073   0.901   0.015  0.2494  0.1486 -0.0159
   12CHTO  H201 4669   4.995   0.869  -0.026  0.1418 -1.7993  1.6211
   12CHTO  C120 4670   4.924   1.004   0.191 -0.1763 -0.5395  0.5883
   12CHTO  H224 4671   4.839   0.967   0.131  0.4857 -1.3439  0.1268
   12CHTO   N21 4672   4.941   1.146   0.154  0.6130 -0.0001  0.4055
   12CHTO  H211 4673   4.913   1.168   0.052  2.0474  1.1546  0.2284
   12CHTO  H212 4674   4.902   1.209   0.232  2.2282  0.6827  0.6967
   12CHTO   O75 4675   5.145   0.683   0.188  0.0191 -0.0484  0.7545
   12CHTO  C112 4676   5.147   0.587   0.077 -0.3427  0.0786 -0.2515
   12CHTO  H216 4677   5.093   0.638  -0.005 -0.3447 -0.6832 -0.7256
   12CHTO   O73 4678   5.075   0.474   0.127 -0.2709 -0.2799 -0.4847
   12CHTO  C113 4679   5.071   0.370   0.030 -0.0718  0.0950 -0.1634
   12CHTO  H217 4680   5.046   0.407  -0.072 -0.8494 -0.6866 -0.2626
   12CHTO  C124 4681   4.969   0.262   0.062  0.5350 -0.1338 -0.2726
   12CHTO   O83 4682   4.973   0.212   0.194 -0.2159  0.3219 -0.4745
   12CHTO  H204 4683   5.047   0.157   0.209  0.4914  1.7886  1.6198
   12CHTO  C109 4684   5.209   0.305   0.000  0.4953  0.3163 -0.4339
   12CHTO  H213 4685   5.249   0.261   0.093 -3.5120 -0.2861  1.1086
   12CHTO  C110 4686   5.304   0.411  -0.049  0.0591 -0.4218 -0.2052
   12CHTO  H214 4687   5.285   0.428  -0.155 -1.2556  1.9019  0.3910
   12CHTO   O78 4688   5.436   0.357  -0.046 -0.2299 -0.0986 -0.1766
   12CHTO  H200 4689   5.439   0.282  -0.101  4.3667  0.8778 -1.4565
   12CHTO  C111 4690   5.295   0.543   0.038  0.3399 -0.7475  0.2704
   12CHTO  H215 4691   5.345   0.526   0.135  1.3988  0.2504 -0.0878
   12CHTO   N19 4692   5.372   0.659  -0.023  0.6064 -0.1070 -0.0255
   12CHTO  H207 4693   5.346   0.758   0.012  1.9199  0.0407  0.5542
   12CHTO  H208 4694   5.362   0.651  -0.130 -2.4033 -1.5742  0.3105
   12CHTO   O74 4695   5.192   0.196  -0.107  0.1084 -0.2195  0.1125
   12CHTO  C115 4696   5.257   0.037  -0.061 -0.3386  0.4508 -0.1238
   12CHTO  H219 4697   5.363   0.029  -0.087 -0.6335 -2.5446 -0.6704
   12CHTO   O76 4698   5.258   0.011   0.109 -0.1800 -0.3045  0.0641
   12CHTO  C122 4699   5.151  -0.083   0.155  0.1850 -0.1134  0.3578
   12CHTO  H226 4700   5.061  -0.023   0.136  0.6252  0.3518 -0.2704
   12CHTO  C126 4701   5.160  -0.103   0.309 -0.3837 -0.0920  0.4703
   12CHTO   O85 4702   5.052  -0.182   0.367  0.0105  0.2163  0.4651
   12CHTO  H206 4703   5.058  -0.266   0.326 -0.4427  0.5662 -0.3101
   12CHTO  C121 4704   5.137  -0.215   0.068 -0.3576  0.6524  0.3784
   12CHTO  H225 4705   5.172  -0.301   0.128  1.6186 -0.4562 -2.2444
   12CHTO   O81 4706   4.995  -0.237   0.059 -0.2777  0.7113  0.1948
   12CHTO  H202 4707   4.960  -0.244   0.145 -0.6122  0.0263  0.0092
   12CHTO  C119 4708   5.215  -0.214  -0.067  0.4745  0.1883  0.1630
   12CHTO  H223 4709   5.321  -0.215  -0.041 -0.2093  0.0455  3.0716
   12CHTO  C117 4710   5.181  -0.077  -0.141 -0.4290  0.1606 -0.0951
   12CHTO  H221 4711   5.075  -0.053  -0.139 -0.6443 -0.7366 -0.8801
   12CHTO   N20 4712   5.225  -0.067  -0.284 -0.1482  0.3295 -0.0223
   12CHTO  H209 4713   5.141  -0.089  -0.348  0.4640 -0.7089 -0.4750
   12CHTO  H210 4714   5.291  -0.150  -0.307 -1.8423 -0.7077 -1.3266
   12CHTO   O80 4715   5.206  -0.341  -0.167 -0.1248  0.3186  0.3857
   12CHTO  C103 4716   5.301  -0.454  -0.155 -0.2514 -0.1270 -0.0747
   12CHTO  H190 4717   5.390  -0.438  -0.094 -1.5910 -0.8977  2.1370
   12CHTO  C101 4718   5.242  -0.583  -0.085  0.1259  0.5120  0.2334
   12CHTO  H188 4719   5.150  -0.615  -0.132  0.4668  0.3973 -0.3553
   12CHTO   O68 4720   5.213  -0.544   0.055 -0.0936 -0.0639  0.4491
   12CHTO  H168 4721   5.134  -0.493   0.050  1.0403  1.7542  0.6448
   12CHTO   C99 4722   5.332  -0.707  -0.093  1.2105 -0.3420  0.3536
   12CHTO  H186 4723   5.434  -0.692  -0.051  0.7153  2.1480  0.7590
   12CHTO   N17 4724   5.272  -0.826  -0.024 -1.0451 -0.2740  0.0147
   12CHTO  H174 4725   5.234  -0.904  -0.089 -0.1063 -1.0383  0.3592
   12CHTO  H175 4726   5.203  -0.794   0.052  0.3303 -0.6202  1.4306
   12CHTO   C97 4727   5.362  -0.738  -0.243 -0.5843  0.0987 -0.4186
   12CHTO  H184 4728   5.267  -0.772  -0.288 -1.2320 -1.3061  1.8501
   12CHTO   O64 4729   5.413  -0.616  -0.302 -0.5585  0.2894  0.3413
   12CHTO  C104 4730   5.337  -0.493  -0.303 -0.3381 -0.2737  0.3118
   12CHTO  H191 4731   5.245  -0.501  -0.361 -0.5578  1.5429  0.3678
   12CHTO  C108 4732   5.423  -0.388  -0.373  0.2964 -0.1398 -0.0515
   12CHTO   O71 4733   5.543  -0.358  -0.306  0.1822 -0.6877  0.1203
   12CHTO  H171 4734   5.537  -0.368  -0.213 -0.2991 -0.0117  0.1676
   12CHTO   O62 4735   5.468  -0.834  -0.265 -0.0047 -0.1896 -0.2774
   12CHTO   C91 4736   5.501  -0.878  -0.400 -0.1264 -0.1767  0.0821
   12CHTO  H178 4737   5.481  -0.801  -0.474  0.9826 -2.2524 -2.4403
   12CHTO   C92 4738   5.427  -1.005  -0.450  0.5620  0.1186 -0.2626
   12CHTO  H179 4739   5.404  -1.071  -0.365 -2.1430  1.9677  0.4917
   12CHTO   O66 4740   5.293  -0.966  -0.483  0.2840 -0.0859  0.7838
   12CHTO  H166 4741   5.292  -0.898  -0.547  0.0743 -0.9908 -0.1930
   12CHTO   C93 4742   5.500  -1.079  -0.569 -0.5012 -0.1806  0.1420
   12CHTO  H180 4743   5.480  -1.014  -0.655  2.5663  1.4194  0.5440
   12CHTO   N16 4744   5.433  -1.204  -0.615 -0.3731 -0.4483 -0.3132
   12CHTO  H172 4745   5.450  -1.283  -0.544 -1.7158  1.1397  1.8803
   12CHTO  H173 4746   5.334  -1.188  -0.657 -0.4432  1.3504  0.4773
   12CHTO   C94 4747   5.656  -1.089  -0.548 -0.3980  0.0268  0.1081
   12CHTO  H181 4748   5.680  -1.153  -0.463  2.0013 -0.1814 -0.6952
   12CHTO   O61 4749   5.705  -0.960  -0.520 -0.4526  1.2125 -0.3407
   12CHTO   C95 4750   5.652  -0.901  -0.403  0.3266  0.3948 -0.0780
   12CHTO  H182 4751   5.682  -0.957  -0.314 -2.9123  0.3267  1.0351
   12CHTO  C106 4752   5.722  -0.766  -0.403  0.0591  0.0432  0.6136
   12CHTO   O69 4753   5.728  -0.710  -0.269 -0.0375 -0.1063 -0.3908
   12CHTO  H169 4754   5.677  -0.633  -0.257 -1.5414 -1.1404  0.0682
   12CHTO   O63 4755   5.714  -1.122  -0.690 -0.2885  0.7950 -0.5759
   12CHTO   C96 4756   5.840  -1.227  -0.679  0.4557  0.4595 -0.1499
   12CHTO  H183 4757   5.857  -1.249  -0.573 -1.1215 -0.3948 -0.0657
   12CHTO   C98 4758   5.972  -1.164  -0.732 -1.3241 -1.1323 -0.7367
   12CHTO  H185 4759   5.961  -1.138  -0.838 -2.2060  0.6190 -0.2226
   12CHTO   O67 4760   6.002  -1.042  -0.662  0.2852  0.1573 -0.1821
   12CHTO  H167 4761   5.973  -1.040  -0.573  1.5097  0.5493  0.2190
   12CHTO  C102 4762   6.095  -1.267  -0.720  0.4883 -0.4099  0.1735
   12CHTO  H189 4763   6.145  -1.241  -0.626 -0.0979 -2.1596  0.9824
   12CHTO   N18 4764   6.206  -1.246  -0.814  0.4620  0.8100  0.5527
   12CHTO  H176 4765   6.279  -1.324  -0.829 -0.2705  0.4581 -1.3433
   12CHTO  H177 4766   6.177  -1.205  -0.910  2.1247  0.3994 -0.1581
   12CHTO  C105 4767   6.053  -1.413  -0.701  0.4326 -0.5812  0.0645
   12CHTO  H192 4768   6.125  -1.476  -0.753 -1.3548 -0.9423 -2.0830
   12CHTO   O65 4769   5.925  -1.449  -0.753 -0.4176  0.0341  0.1752
   12CHTO  C100 4770   5.815  -1.354  -0.765 -0.6220  0.6235  1.1551
   12CHTO  H187 4771   5.808  -1.323  -0.871 -2.4350 -0.7006  0.8553
   12CHTO  C107 4772   5.684  -1.422  -0.724  0.3297  0.1712  0.4303
   12CHTO   O70 4773   5.666  -1.545  -0.786 -0.0346 -0.3926  0.0551
   12CHTO  H170 4774   5.589  -1.595  -0.767  0.5413 -0.9015  1.1219
   12CHTO   O57 4775   6.044  -1.448  -0.537  0.2484 -0.2627  0.7800
   12CHTO   C85 4776   5.986  -1.570  -0.485 -0.0449  0.0183  0.4620
   12CHTO  H157 4777   5.936  -1.628  -0.565  1.2710  2.4009 -2.1915
   12CHTO   C83 4778   5.870  -1.530  -0.386  0.4393 -0.0161  0.4186
   12CHTO  H155 4779   5.792  -1.474  -0.438 -0.0020 -0.7029  0.3345
   12CHTO   O56 4780   5.918  -1.439  -0.285 -0.6756 -0.2492 -0.2139
   12CHTO  H135 4781   5.883  -1.441  -0.198  0.0216 -1.0902  0.0528
   12CHTO   C81 4782   5.806  -1.658  -0.326  0.1667 -0.7196 -0.1908
   12CHTO  H153 4783   5.780  -1.729  -0.405  2.0950 -1.5643 -0.0955
   12CHTO   N14 4784   5.672  -1.638  -0.250  0.5877  1.2931 -0.1788
   12CHTO  H141 4785   5.670  -1.676  -0.150 -0.0642  0.1253 -0.6267
   12CHTO  H142 4786   5.594  -1.685  -0.307 -0.3272  1.5711  0.8235
   12CHTO   C79 4787   5.911  -1.739  -0.238  0.7986  0.3079 -0.1681
   12CHTO  H151 4788   5.861  -1.830  -0.205  0.1970  0.0042 -1.8738
   12CHTO   O52 4789   6.015  -1.777  -0.331 -0.1767  0.3577 -0.0671
   12CHTO   C86 4790   6.084  -1.660  -0.398  0.8476  0.2083  0.3586
   12CHTO  H158 4791   6.130  -1.606  -0.314 -0.3724 -0.8535  1.7321
   12CHTO   C90 4792   6.203  -1.720  -0.483 -0.4561 -0.4312 -0.4014
   12CHTO   O60 4793   6.158  -1.804  -0.585  0.2647 -0.1991 -0.6358
   12CHTO  H138 4794   6.232  -1.829  -0.637  0.1148 -1.2232 -0.3524
   12CHTO   O50 4795   5.963  -1.676  -0.119  0.0200  0.0907 -0.0940
   12CHTO   C73 4796   5.968  -1.694   0.022  0.7870 -0.3165  0.3173
   12CHTO  H145 4797   5.883  -1.756   0.055  0.6333 -0.0215  0.4743
   12CHTO   C74 4798   5.978  -1.549   0.089  0.4297 -0.1075  0.0719
   12CHTO  H146 4799   5.898  -1.487   0.047  2.0471  0.5617 -2.1077
   12CHTO   O54 4800   5.950  -1.561   0.232  0.0548 -0.1329 -0.4193
   12CHTO  H133 4801   6.023  -1.580   0.287 -1.5427 -1.9128  1.1167
   12CHTO   C75 4802   6.117  -1.483   0.062 -0.6765 -0.9907 -0.0227
   12CHTO  H147 4803   6.130  -1.472  -0.046  1.2606  1.0070  0.3835
   12CHTO   N13 4804   6.146  -1.342   0.103 -0.2362 -0.2306  0.4064
   12CHTO  H139 4805   6.175  -1.327   0.206  1.9086  2.3041 -0.4883
   12CHTO  H140 4806   6.225  -1.300   0.042  0.0873 -0.3392  0.7495
   12CHTO   C76 4807   6.241  -1.578   0.100  0.2205  0.3546  0.2925
   12CHTO  H148 4808   6.249  -1.601   0.206 -0.3484  0.2911  0.3191
   12CHTO   O49 4809   6.220  -1.707   0.035 -0.1728  0.2165  0.4573
   12CHTO   C77 4810   6.095  -1.781   0.062 -0.1040  0.6503 -0.2992
   12CHTO  H149 4811   6.092  -1.793   0.170 -0.3034 -0.5780 -0.4389
   12CHTO   C88 4812   6.106  -1.923  -0.000  0.5678 -0.0572 -0.3112
   12CHTO   O58 4813   6.010  -2.021   0.090 -0.0301 -0.0125  0.2020
   12CHTO  H136 4814   5.934  -2.057   0.049 -0.3144 -1.0058  1.5955
   12CHTO   O51 4815   6.394  -1.520   0.031  0.0395 -0.4455  0.0746
   12CHTO   C78 4816   6.515  -1.640   0.052 -0.3895  0.1460 -0.0619
   12CHTO  H150 4817   6.462  -1.737   0.047  0.7928 -0.5659  0.9672
   12CHTO   C80 4818   6.583  -1.630   0.182  0.3505  0.2431 -0.3639
   12CHTO  H152 4819   6.625  -1.527   0.188 -2.8053  1.6788 -1.4881
   12CHTO   O55 4820   6.487  -1.626   0.283  0.0764  0.1892  0.0162
   12CHTO  H134 4821   6.520  -1.599   0.367 -0.3545 -1.4167  0.7188
   12CHTO   C84 4822   6.696  -1.737   0.203  0.3202 -1.2323  0.2000
   12CHTO  H156 4823   6.653  -1.837   0.200  0.2698 -1.1882 -1.5284
   12CHTO   N15 4824   6.766  -1.715   0.327 -0.9558 -0.0193  0.5885
   12CHTO  H143 4825   6.700  -1.672   0.399 -0.3069  1.9491  0.0189
   12CHTO  H144 4826   6.845  -1.646   0.307 -0.4133 -1.0218 -0.8141
   12CHTO   C87 4827   6.792  -1.735   0.086  0.3181  0.0682  0.0902
   12CHTO  H159 4828   6.852  -1.645   0.090 -0.3498  0.6825 -2.6026
   12CHTO   O53 4829   6.700  -1.746  -0.056 -0.5873 -0.2783  0.3858
   12CHTO   C82 4830   6.611  -1.636  -0.066 -0.2427  0.3258 -0.3629
   12CHTO  H154 4831   6.668  -1.543  -0.073 -0.1208  0.2927  0.1653
   12CHTO   C89 4832   6.526  -1.653  -0.196 -0.0585  0.0869 -0.0108
   12CHTO   O59 4833   6.608  -1.627  -0.313 -0.5194 -0.2825  0.9455
   12CHTO  H137 4834   6.672  -1.694  -0.324  1.2172  1.3689  0.7595
   12CHTO   O45 4835   6.894  -1.860   0.085 -0.0294  0.6455 -0.1571
   12CHTO   C67 4836   6.980  -1.870  -0.035  0.4777  0.3408  0.2671
   12CHTO  H124 4837   6.983  -1.771  -0.081  0.6444 -0.0349 -0.5415
   12CHTO   C65 4838   7.128  -1.914   0.006 -0.0789  0.4439 -0.4368
   12CHTO  H122 4839   7.156  -1.846   0.087  2.5417  0.3955 -1.2349
   12CHTO   O44 4840   7.212  -1.896  -0.114  0.0207 -0.3416 -0.5159
   12CHTO  H102 4841   7.259  -1.972  -0.142  0.0514 -0.6078  0.2765
   12CHTO   C63 4842   7.124  -2.063   0.057 -0.3433 -0.7920  0.1347
   12CHTO  H120 4843   7.060  -2.064   0.146 -0.4476  0.2082  0.0751
   12CHTO   N11 4844   7.253  -2.115   0.113  0.0002 -0.7543  0.3365
   12CHTO  H108 4845   7.332  -2.059   0.067 -2.2669  1.7597 -0.6065
   12CHTO  H109 4846   7.262  -2.104   0.219  0.3409  0.6314  0.1691
   12CHTO   C61 4847   7.059  -2.162  -0.051 -0.1163 -0.8342 -0.5846
   12CHTO  H118 4848   7.045  -2.260  -0.002 -4.3293 -0.2867 -0.5100
   12CHTO   O40 4849   6.923  -2.112  -0.084  0.3762 -0.0383  0.9167
   12CHTO   C68 4850   6.907  -1.971  -0.131  0.1745  0.2632  0.1741
   12CHTO  H125 4851   6.797  -1.956  -0.119  0.0022  1.4389 -2.3668
   12CHTO   C72 4852   6.938  -1.944  -0.283 -0.3516 -0.3261  0.5667
   12CHTO   O48 4853   6.905  -1.811  -0.312  0.7064  0.4767 -0.2875
   12CHTO  H105 4854   6.980  -1.764  -0.344  0.5428  0.9521  0.0229
   12CHTO   O38 4855   7.134  -2.180  -0.175  0.7944 -0.1305  0.7063
   12CHTO   C55 4856   7.235  -2.282  -0.202  0.6557 -0.2712 -0.1675
   12CHTO  H112 4857   7.268  -2.317  -0.104  0.8667  1.7020  0.4774
   12CHTO   C56 4858   7.355  -2.203  -0.276 -0.2354  0.5310 -0.4606
   12CHTO  H113 4859   7.323  -2.171  -0.377 -0.1036 -0.6306 -0.8878
   12CHTO   O42 4860   7.407  -2.088  -0.201 -0.0496  0.0842 -0.3644
   12CHTO  H100 4861   7.381  -2.100  -0.112  0.1612  3.1639  0.1314
   12CHTO   C57 4862   7.470  -2.312  -0.296  0.2438  0.0525 -0.2372
   12CHTO  H114 4863   7.499  -2.349  -0.198 -1.6840  0.3622  0.4627
   12CHTO   N10 4864   7.588  -2.268  -0.373 -0.3935  0.1948 -0.3346
   12CHTO  H106 4865   7.623  -2.169  -0.348  2.8483 -1.5379  2.4820
   12CHTO  H107 4866   7.667  -2.339  -0.352 -0.6253  0.3385  1.1109
   12CHTO   C58 4867   7.399  -2.430  -0.374 -0.1936 -0.4913  0.0256
   12CHTO  H115 4868   7.369  -2.397  -0.475 -1.1112 -1.9552 -0.1975
   12CHTO   O37 4869   7.290  -2.491  -0.302  0.0452 -0.0326 -0.2304
   12CHTO   C59 4870   7.179  -2.404  -0.284 -0.1409 -0.4602  0.3281
   12CHTO  H116 4871   7.125  -2.363  -0.370  0.3026  0.1701  0.3456
   12CHTO   C70 4872   7.073  -2.483  -0.200 -0.4249 -0.1364  0.5030
   12CHTO   O46 4873   7.056  -2.617  -0.248 -0.0447  0.0793 -0.6001
   12CHTO  H103 4874   7.027  -2.610  -0.337 -0.5029 -1.0673 -0.5489
   12CHTO   O39 4875   7.493  -2.560  -0.387  0.6736  0.5109 -0.0181
   12CHTO   C60 4876   7.465  -2.628  -0.508  0.0790  0.1445  0.1570
   12CHTO  H117 4877   7.365  -2.603  -0.542  0.6370  0.6020 -1.1598
   12CHTO   C62 4878   7.574  -2.588  -0.615 -0.0472  0.1599 -0.6064
   12CHTO  H119 4879   7.569  -2.479  -0.636 -2.2256 -0.0289 -1.1258
   12CHTO   O43 4880   7.710  -2.598  -0.555 -0.0408 -0.2868 -0.8763
   12CHTO  H101 4881   7.775  -2.584  -0.621 -0.7121 -0.9535 -1.7063
   12CHTO   C66 4882   7.546  -2.668  -0.746 -0.1600  0.0854  0.7834
   12CHTO  H123 4883   7.443  -2.658  -0.779 -0.2046 -0.5668  0.7329
   12CHTO   N12 4884   7.627  -2.629  -0.869  0.0411 -0.2655 -0.5309
   12CHTO  H110 4885   7.590  -2.667  -0.963 -0.9581  0.1290 -0.3114
   12CHTO  H111 4886   7.734  -2.644  -0.870 -0.2446 -2.7003  1.4164
   12CHTO   C69 4887   7.580  -2.810  -0.711 -0.2214  0.5201  0.5116
   12CHTO  H126 4888   7.682  -2.820  -0.669 -0.9038  1.4206  2.4264
   12CHTO   O41 4889   7.480  -2.855  -0.601 -1.0791 -0.2919  0.4168
   12CHTO   C64 4890   7.471  -2.784  -0.486  0.0928  0.5079 -0.0280
   12CHTO  H121 4891   7.562  -2.808  -0.427  0.2867  0.9408 -0.1466
   12CHTO   C71 4892   7.342  -2.830  -0.405 -0.4677  0.2776  0.4392
   12CHTO   O47 4893   7.346  -2.773  -0.276 -0.4182 -0.4488 -0.2316
   12CHTO  H104 4894   7.320  -2.683  -0.267  2.3606  0.2771  1.0457
   12CHTO   O34 4895   7.550  -2.909  -0.841 -0.4596  0.1363  0.3091
   12CHTO   C49 4896   7.650  -3.045  -0.856 -0.0365  0.6136  0.5367
   12CHTO   H91 4897   7.741  -3.005  -0.899 -0.6731  2.2455  0.6799
   12CHTO   C47 4898   7.580  -3.125  -0.970 -0.0710 -0.1432 -0.7693
   12CHTO   H89 4899   7.651  -3.205  -1.000 -0.3878 -0.7604  0.0891
   12CHTO   O33 4900   7.547  -3.049  -1.089 -0.3710  0.1420 -0.1176
   12CHTO   H70 4901   7.618  -3.069  -1.147 -0.5463  0.7695 -0.5670
   12CHTO   C45 4902   7.432  -3.192  -0.916  0.3156 -0.1757 -0.4205
   12CHTO   H87 4903   7.350  -3.123  -0.943 -0.0100 -0.4702 -0.1707
   12CHTO    N8 4904   7.407  -3.320  -0.988  0.0880  0.0736  0.1815
   12CHTO   H75 4905   7.331  -3.307  -1.064 -0.4549 -0.0606  0.7029
   12CHTO   H76 4906   7.380  -3.395  -0.916  0.3381  1.2952  1.5644
   12CHTO   C43 4907   7.428  -3.186  -0.756 -0.6499 -0.0710  0.6036
   12CHTO   H85 4908   7.415  -3.083  -0.724 -0.7213  0.1556 -0.1341
   12CHTO   O29 4909   7.555  -3.239  -0.716  0.5320  0.0681 -0.4665
   12CHTO   C50 4910   7.655  -3.137  -0.732  0.3436 -0.3855 -0.4143
   12CHTO   H92 4911   7.657  -3.064  -0.649 -0.5021  0.1384 -0.8531
   12CHTO   C54 4912   7.792  -3.201  -0.711  0.0005  0.5015  0.2554
   12CHTO   O36 4913   7.822  -3.273  -0.591 -0.0742  0.5965  0.1887
   12CHTO   H72 4914   7.878  -3.347  -0.609  2.6268  2.2879  1.4181
   12CHTO   O27 4915   7.315  -3.258  -0.713  0.9581  0.2702 -0.6119
   12CHTO   C37 4916   7.259  -3.265  -0.580 -0.2025  0.0233 -0.4009
   12CHTO   H79 4917   7.205  -3.360  -0.564  2.2116 -1.0877  1.5380
   12CHTO   C38 4918   7.375  -3.262  -0.471  0.0580 -0.3619  0.2695
   12CHTO   H80 4919   7.428  -3.167  -0.482  0.7011 -0.9499 -2.0740
   12CHTO   O31 4920   7.451  -3.377  -0.504  0.1778 -0.1263  0.1450
   12CHTO   H68 4921   7.531  -3.364  -0.456  1.1411  0.0643 -1.4647
   12CHTO   C39 4922   7.314  -3.268  -0.321  0.0608 -0.5095  0.3742
   12CHTO   H81 4923   7.261  -3.362  -0.307  1.9949 -1.9171 -1.3268
   12CHTO    N7 4924   7.417  -3.251  -0.216  0.4558  0.2605 -0.0362
   12CHTO   H73 4925   7.371  -3.253  -0.118 -0.5185  3.7141 -0.3444
   12CHTO   H74 4926   7.485  -3.334  -0.216  0.2650  0.0877 -1.2428
   12CHTO   C40 4927   7.197  -3.158  -0.311  0.3009 -0.2537  0.1112
   12CHTO   H82 4928   7.226  -3.054  -0.309  0.7267 -0.3479 -1.0685
   12CHTO   O26 4929   7.104  -3.181  -0.423 -0.6765  0.7235 -0.5603
   12CHTO   C41 4930   7.156  -3.158  -0.553 -0.2598  0.1457  0.0861
   12CHTO   H83 4931   7.204  -3.059  -0.551  0.8964 -0.4038  0.1500
   12CHTO   C52 4932   7.035  -3.174  -0.645  0.5321  0.0066  0.4006
   12CHTO   O35 4933   6.947  -3.048  -0.651 -0.0134  0.3344  0.2843
   12CHTO   H71 4934   6.992  -2.984  -0.703  0.4961 -0.3278 -0.0980
   12CHTO   O28 4935   7.120  -3.179  -0.190 -0.0947 -0.8264  0.2861
   12CHTO   C42 4936   7.002  -3.097  -0.152  0.2226  0.4429 -0.1901
   12CHTO   H84 4937   6.977  -3.127  -0.050  0.5171  0.2190 -0.1819
   12CHTO   C44 4938   6.867  -3.124  -0.239  0.4788 -0.1700  0.0247
   12CHTO   H86 4939   6.871  -3.070  -0.334  0.1128 -1.9547 -1.0265
   12CHTO   O32 4940   6.859  -3.265  -0.255 -0.0239  0.2574 -0.1904
   12CHTO   H69 4941   6.807  -3.284  -0.331 -1.0549 -2.6226  1.1426
   12CHTO   C48 4942   6.741  -3.055  -0.167 -0.1633 -0.2672 -0.1127
   12CHTO   H90 4943   6.757  -3.108  -0.073  1.7971 -0.7992 -0.7125
   12CHTO    N9 4944   6.615  -3.091  -0.219  0.5787  0.3756 -0.8607
   12CHTO   H77 4945   6.565  -3.175  -0.173 -2.6367  0.8965 -3.2012
   12CHTO   H78 4946   6.550  -3.006  -0.206  1.0083  0.1974  2.8288
   12CHTO   C51 4947   6.766  -2.898  -0.162  0.1598  0.7098 -0.3040
   12CHTO   H93 4948   6.775  -2.874  -0.268  1.5289  0.6491 -0.2094
   12CHTO   O30 4949   6.891  -2.872  -0.093 -0.7325 -0.0392  0.1640
   12CHTO   C46 4950   7.014  -2.943  -0.149 -0.5816  0.0102  0.1003
   12CHTO   H88 4951   7.032  -2.905  -0.249 -1.8904 -1.3632 -0.6763
   12CHTO   C53 4952   7.131  -2.893  -0.054 -0.1953 -0.0595  0.7311
   12CHTO   O72 4953   7.111  -2.944   0.079 -0.3251 -0.4006 -0.2778
   12CHTO  H199 4954   7.194  -2.952   0.121 -0.0501 -0.5393 -0.8377
   12CHTO   O22 4955   6.663  -2.817  -0.096 -0.3329 -0.1019  0.1272
   12CHTO   C31 4956   6.644  -2.671  -0.088 -0.6342  0.5285  0.0611
   12CHTO   H59 4957   6.539  -2.654  -0.056 -0.4505  0.0554  0.9334
   12CHTO   C29 4958   6.732  -2.616   0.026  0.1200 -0.7179 -0.4979
   12CHTO   H57 4959   6.837  -2.615  -0.006  0.3900  0.0414  0.3935
   12CHTO   O21 4960   6.728  -2.697   0.146 -0.4476 -0.0656 -0.4464
   12CHTO   H37 4961   6.759  -2.781   0.121 -2.4574 -0.1850 -2.7857
   12CHTO   C27 4962   6.686  -2.460   0.045  0.0504  0.4757 -0.2517
   12CHTO   H55 4963   6.588  -2.456   0.096  0.2911 -0.1849  0.2785
   12CHTO    N5 4964   6.776  -2.387   0.131  0.1928  0.4808 -0.3903
   12CHTO   H43 4965   6.784  -2.419   0.234 -0.1322  0.2129 -0.4475
   12CHTO   H44 4966   6.873  -2.385   0.082 -0.4682 -0.6987 -1.7832
   12CHTO   C25 4967   6.676  -2.386  -0.088  0.8153  0.0661  0.7932
   12CHTO   H53 4968   6.772  -2.347  -0.124  0.1859  1.3148  0.4223
   12CHTO   O17 4969   6.616  -2.459  -0.201 -0.9062 -0.0231  0.3644
   12CHTO   C32 4970   6.661  -2.592  -0.218 -0.1294  0.6870  0.4241
   12CHTO   H60 4971   6.769  -2.589  -0.236  0.1611  0.7179  2.1364
   12CHTO   C36 4972   6.607  -2.655  -0.338  0.0920  0.0831  0.3679
   12CHTO   O25 4973   6.642  -2.593  -0.462 -0.3077  0.2278 -0.6208
   12CHTO   H40 4974   6.577  -2.631  -0.518  0.0945 -0.1943 -0.8045
   12CHTO   O15 4975   6.601  -2.247  -0.073  0.1396  0.7067 -0.1468
   12CHTO   C19 4976   6.497  -2.178  -0.141 -0.6923  1.0152 -0.1501
   12CHTO   H47 4977   6.488  -2.084  -0.084  1.7302  1.4243 -0.3684
   12CHTO   C20 4978   6.522  -2.147  -0.287 -0.6501  0.0478  0.1480
   12CHTO   H48 4979   6.520  -2.240  -0.347  0.5546  1.0845 -1.5390
   12CHTO   O19 4980   6.654  -2.092  -0.300 -0.0288  0.1462  0.9735
   12CHTO   H35 4981   6.712  -2.161  -0.275 -1.4536 -1.7425 -0.7751
   12CHTO   C21 4982   6.416  -2.047  -0.337 -0.1252  0.0830 -0.2840
   12CHTO   H49 4983   6.416  -1.956  -0.276 -0.1907  0.8929 -1.4803
   12CHTO    N4 4984   6.442  -2.000  -0.476 -0.2772  0.2598 -0.1843
   12CHTO   H41 4985   6.417  -2.086  -0.536 -1.0610  0.9935 -0.9252
   12CHTO   H42 4986   6.385  -1.916  -0.512 -0.1803  0.6490  0.5546
   12CHTO   C22 4987   6.275  -2.112  -0.316  0.6356  0.3529 -1.0105
   12CHTO   H50 4988   6.269  -2.209  -0.366  0.0489 -1.2333  2.0320
   12CHTO   O14 4989   6.263  -2.151  -0.173  0.0718  0.0905 -0.1868
   12CHTO   C23 4990   6.361  -2.246  -0.130 -0.0615 -0.6129  0.0370
   12CHTO   H51 4991   6.354  -2.333  -0.197  0.3853  0.4803 -1.4493
   12CHTO   C34 4992   6.335  -2.282   0.017  0.0746  0.0162  0.7858
   12CHTO   O23 4993   6.198  -2.326   0.035  0.3419  0.1581  0.3220
   12CHTO   H38 4994   6.196  -2.415   0.004 -0.5364  0.1422  0.4158
   12CHTO   O16 4995   6.156  -2.035  -0.350 -0.3762 -0.4957 -0.6114
   12CHTO   C24 4996   6.050  -2.130  -0.430  0.2199  0.1464 -0.0643
   12CHTO   H52 4997   6.074  -2.236  -0.418  2.2361  0.4706 -1.0032
   12CHTO   C26 4998   6.054  -2.100  -0.584  0.3573  0.0179 -0.5887
   12CHTO   H54 4999   6.030  -1.993  -0.595  3.4799  0.7584 -0.5871
   12CHTO   O20 5000   6.185  -2.145  -0.625 -0.5291  0.4000 -0.0320
   12CHTO   H36 5001   6.245  -2.076  -0.606  0.3260 -0.5257  0.6827
   12CHTO   C30 5002   5.943  -2.182  -0.655 -0.5261 -0.2190 -0.1319
   12CHTO   H58 5003   5.959  -2.290  -0.642  0.6667 -0.1727 -1.1947
   12CHTO    N6 5004   5.930  -2.158  -0.798 -0.1170  0.1019  0.2388
   12CHTO   H45 5005   6.026  -2.153  -0.848 -0.5854 -0.0579 -0.6853
   12CHTO   H46 5006   5.874  -2.072  -0.829 -1.6369 -0.4916  1.2938
   12CHTO   C33 5007   5.801  -2.162  -0.583  0.5370  0.3214  0.3272
   12CHTO   H61 5008   5.765  -2.059  -0.593 -0.0226  0.1883  0.8629
   12CHTO   O18 5009   5.819  -2.192  -0.442 -0.8834 -0.8015 -0.5205
   12CHTO   C28 5010   5.910  -2.109  -0.375  0.4380 -0.8838 -0.8534
   12CHTO   H56 5011   5.880  -2.005  -0.387 -3.0508 -1.4785  1.8514
   12CHTO   C35 5012   5.921  -2.153  -0.229 -1.1466 -0.2635 -0.0505
   12CHTO   O24 5013   5.810  -2.135  -0.145 -0.2877 -0.2870  0.4821
   12CHTO   H39 5014   5.827  -2.170  -0.060 -1.5808  0.3435  1.0141
   12CHTO    O9 5015   5.700  -2.249  -0.638 -0.1421  0.7259  0.3618
   12CHTO   C13 5016   5.715  -2.412  -0.600  0.1541 -0.3213  0.7751
   12CHTO   H26 5017   5.821  -2.431  -0.573 -0.1371 -0.8129  1.5770
   12CHTO   C11 5018   5.682  -2.484  -0.736  0.5534  0.0727  0.2341
   12CHTO   H24 5019   5.757  -2.467  -0.814  2.2837  0.7064  1.9900
   12CHTO    O8 5020   5.558  -2.442  -0.787 -0.8990  0.1266 -0.2302
   12CHTO    H3 5021   5.554  -2.349  -0.800 -3.0070  0.4342  2.1520
   12CHTO    C9 5022   5.696  -2.633  -0.699  0.6523 -0.4863 -0.0833
   12CHTO   H22 5023   5.797  -2.653  -0.661  0.3274  0.8216  1.5355
   12CHTO    N2 5024   5.707  -2.722  -0.818 -0.0346  0.9154  0.1578
   12CHTO   H10 5025   5.786  -2.796  -0.821 -2.2990 -1.5491 -0.5905
   12CHTO   H11 5026   5.696  -2.674  -0.914 -1.5034 -0.7643 -0.5613
   12CHTO    C7 5027   5.594  -2.679  -0.590 -0.8105  0.7735  0.4225
   12CHTO   H20 5028   5.639  -2.772  -0.548  2.5334  1.6892 -0.9716
   12CHTO    O4 5029   5.579  -2.590  -0.476 -0.3378 -1.0170  0.0196
   12CHTO   C14 5030   5.625  -2.454  -0.481 -0.3466  0.4424  0.4869
   12CHTO   H27 5031   5.683  -2.444  -0.387 -0.2111 -1.4155  0.6197
   12CHTO   C18 5032   5.499  -2.368  -0.470  0.5182 -0.1336 -0.5172
   12CHTO   O13 5033   5.435  -2.393  -0.346 -0.3121 -0.2802 -0.1023
   12CHTO    H7 5034   5.430  -2.317  -0.291 -3.1480 -1.2408  1.0373
   12CHTO    O2 5035   5.451  -2.705  -0.664 -0.4724 -0.0267 -0.2324
   12CHTO    C1 5036   5.368  -2.790  -0.592  0.2026  0.2272  0.1139
   12CHTO   H14 5037   5.391  -2.767  -0.486  1.0436 -0.1586  0.0201
   12CHTO    C2 5038   5.375  -2.942  -0.620  0.0537 -0.3779 -0.0916
   12CHTO   H15 5039   5.330  -2.950  -0.720  0.6612  0.0089 -0.3952
   12CHTO    O6 5040   5.509  -2.988  -0.616 -0.2383  0.0573 -0.2514
   12CHTO    H1 5041   5.510  -3.077  -0.647 -0.4393  0.3041 -0.9653
   12CHTO    C3 5042   5.291  -3.015  -0.498  0.3148 -1.0873  0.0375
   12CHTO   H16 5043   5.316  -2.972  -0.400 -0.3405 -1.9313  0.5761
   12CHTO    N1 5044   5.328  -3.162  -0.503 -0.5393  0.5248 -0.3151
   12CHTO    H8 5045   5.387  -3.192  -0.418 -2.6002 -1.8151  0.3552
   12CHTO    H9 5046   5.239  -3.224  -0.508  0.2570 -0.5906 -0.9863
   12CHTO    C4 5047   5.145  -2.970  -0.520  0.2454  0.2616  0.0900
   12CHTO   H17 5048   5.114  -3.011  -0.617 -3.5789  2.4280  0.2605
   12CHTO    O1 5049   5.127  -2.829  -0.524  0.2981  0.2618 -0.0242
   12CHTO    C5 5050   5.212  -2.750  -0.610 -0.4729 -0.3514 -1.2284
   12CHTO   H18 5051   5.177  -2.766  -0.712 -1.0051 -0.7407 -0.9887
   12CHTO   C16 5052   5.185  -2.603  -0.568  0.1536  0.1740 -0.5550
   12CHTO   O11 5053   5.205  -2.574  -0.430  0.6867  0.3109  0.3648
   12CHTO    H5 5054   5.155  -2.626  -0.370 -1.3345 -0.9068 -2.2548
   12CHTO    O3 5055   5.046  -3.019  -0.428  0.1802 -0.0520  0.6317
   12CHTO    C6 5056   4.903  -2.979  -0.448  0.7796  0.3784  0.5614
   12CHTO   H19 5057   4.886  -2.913  -0.534 -1.4030 -2.7582 -1.5300
   12CHTO    C8 5058   4.811  -3.102  -0.486  0.6503 -0.5997 -0.1871
   12CHTO   H21 5059   4.818  -3.182  -0.412 -2.7561  1.2330  2.2599
   12CHTO    O7 5060   4.851  -3.157  -0.616 -0.2430 -0.0392 -0.2414
   12CHTO    H2 5061   4.821  -3.089  -0.674  0.9009  0.4052 -0.3245
   12CHTO   C12 5062   4.660  -3.065  -0.493 -0.0008 -0.4595 -0.6114
   12CHTO   H25 5063   4.657  -2.984  -0.569 -0.0047 -0.1623 -0.2954
   12CHTO    N3 5064   4.573  -3.174  -0.547 -0.2890  0.0950 -0.6770
   12CHTO   H12 5065   4.624  -3.211  -0.634 -0.9455 -2.6057  0.0268
   12CHTO   H13 5066   4.564  -3.255  -0.475 -0.3640  1.2492  0.6423
   12CHTO   C15 5067   4.624  -3.004  -0.352  0.3281 -0.6710 -0.3401
   12CHTO   H28 5068   4.637  -3.073  -0.268 -0.6852 -0.1358  0.2675
   12CHTO   O10 5069   4.481  -2.950  -0.346  0.0192  0.3427  0.2397
   12CHTO    H4 5070   4.472  -2.870  -0.395  0.9148 -1.0581 -2.3236
   12CHTO    O5 5071   4.700  -2.888  -0.319  0.5281  0.1373  0.0663
   12CHTO   C10 5072   4.845  -2.905  -0.320 -0.0047  0.1082 -0.3112
   12CHTO   H23 5073   4.869  -2.974  -0.239 -0.0882  2.9296  2.1971
   12CHTO   C17 5074   4.910  -2.764  -0.306 -0.5953  0.2411  0.4440
   12CHTO   O12 5075   5.030  -2.764  -0.231 -0.0530  0.3862  0.0080
   12CHTO    H6 5076   5.091  -2.728  -0.293 -2.2081  3.5862 -0.3826
   13CHTO  H203 5077   7.686   3.177   1.410  1.5501  0.1733 -0.5575
   13CHTO   O82 5078   7.700   3.235   1.482 -0.0990  0.3542 -0.3497
   13CHTO  C123 5079   7.675   3.376   1.468  0.1878  0.1335  0.3883
   13CHTO  H227 5080   7.711   3.410   1.370 -0.5384  0.1686  0.1295
   13CHTO   O77 5081   7.531   3.385   1.487  0.3165 -0.8417 -0.0273
   13CHTO  C118 5082   7.484   3.519   1.457 -0.0638 -0.8175  0.4285
   13CHTO  H222 5083   7.519   3.564   1.363 -1.8006  0.6352  0.4625
   13CHTO  C125 5084   7.328   3.515   1.450 -0.2334  0.6332 -0.4544
   13CHTO   O84 5085   7.287   3.415   1.352  0.3858 -0.0512  0.3489
   13CHTO  H205 5086   7.211   3.446   1.307  0.3152  0.2246  0.6620
   13CHTO  C114 5087   7.537   3.621   1.562 -0.1947 -0.5225  0.0531
   13CHTO  H218 5088   7.495   3.597   1.660 -0.5933  0.7100  0.1996
   13CHTO  C116 5089   7.697   3.618   1.572 -0.7141 -0.5634 -0.2110
   13CHTO  H220 5090   7.739   3.653   1.476 -0.5804 -0.0226  0.0416
   13CHTO   O79 5091   7.741   3.707   1.675  0.3895 -0.2786  0.5950
   13CHTO  H201 5092   7.831   3.693   1.697  0.4221  2.8024  2.7600
   13CHTO  C120 5093   7.743   3.462   1.587  0.3736 -0.0669 -0.2033
   13CHTO  H224 5094   7.705   3.428   1.686  0.8383  1.7240  0.6124
   13CHTO   N21 5095   7.891   3.438   1.597 -0.3962 -0.8926  0.5067
   13CHTO  H211 5096   7.956   3.523   1.582 -0.3852 -1.1624 -1.1577
   13CHTO  H212 5097   7.927   3.351   1.544  1.4112 -0.3314  0.7586
   13CHTO   O75 5098   7.481   3.749   1.511  0.1272  0.2802 -0.3701
   13CHTO  C112 5099   7.380   3.816   1.623  0.6948 -0.4617  0.2664
   13CHTO  H216 5100   7.409   3.783   1.724  4.5678 -1.6025 -1.1065
   13CHTO   O73 5101   7.243   3.787   1.589  0.1488  0.6624  0.0146
   13CHTO  C113 5102   7.144   3.838   1.682  0.0948  0.3567 -0.3707
   13CHTO  H217 5103   7.167   3.801   1.784 -1.1705 -1.1010 -0.5897
   13CHTO  C124 5104   7.005   3.792   1.631  0.2334 -0.7371  0.0721
   13CHTO   O83 5105   6.977   3.648   1.632 -0.2748 -0.5684  0.4796
   13CHTO  H204 5106   7.038   3.596   1.583 -0.2549 -0.9719  0.9283
   13CHTO  C109 5107   7.153   3.998   1.680 -0.1793  0.5765 -0.2824
   13CHTO  H213 5108   7.118   4.024   1.579  0.2566 -0.3558 -0.6786
   13CHTO  C110 5109   7.297   4.050   1.703  0.5782  0.2183  0.0751
   13CHTO  H214 5110   7.323   4.029   1.807  0.3062 -1.2469 -0.1375
   13CHTO   O78 5111   7.297   4.187   1.682 -0.3270  0.8402  0.1752
   13CHTO  H200 5112   7.344   4.233   1.749 -1.9070  0.7598  1.3775
   13CHTO  C111 5113   7.401   3.977   1.614  0.6043  0.0864 -0.8779
   13CHTO  H215 5114   7.379   4.005   1.510 -1.4033 -2.0974 -1.0867
   13CHTO   N19 5115   7.540   4.017   1.632 -0.2957 -0.0966 -0.5709
   13CHTO  H207 5116   7.547   4.110   1.579 -0.7452  0.0740 -0.3350
   13CHTO  H208 5117   7.605   3.953   1.573 -1.7655 -1.2328 -0.9867
   13CHTO   O74 5118   7.070   4.062   1.771 -0.1289  0.1094 -0.3059
   13CHTO  C115 5119   6.967   4.165   1.696  0.0667  0.8531 -0.0687
   13CHTO  H219 5120   7.011   4.206   1.605 -1.2386  0.9307 -0.6745
   13CHTO   O76 5121   6.833   4.087   1.647  0.4413  0.4135 -0.1506
   13CHTO  C122 5122   6.749   4.061   1.761  0.0646  0.3732  0.4313
   13CHTO  H226 5123   6.808   4.003   1.833 -1.0653 -0.1071  0.9766
   13CHTO  C126 5124   6.631   3.970   1.721  0.1632 -0.6131 -1.2079
   13CHTO   O85 5125   6.556   4.028   1.615 -0.1028 -0.5209  0.3214
   13CHTO  H206 5126   6.478   3.976   1.613 -0.5046  0.0241  1.4297
   13CHTO  C121 5127   6.701   4.184   1.844  0.7948  0.2447 -0.2455
   13CHTO  H225 5128   6.594   4.206   1.827  0.7782  0.0988 -0.3305
   13CHTO   O81 5129   6.715   4.155   1.986 -0.0779  0.0817 -0.1970
   13CHTO  H202 5130   6.790   4.106   2.014 -0.7634 -0.5390  0.5927
   13CHTO  C119 5131   6.782   4.309   1.816  0.5864  0.0020 -0.2264
   13CHTO  H223 5132   6.742   4.343   1.720  0.8111 -1.1758 -0.7358
   13CHTO  C117 5133   6.938   4.279   1.809  0.3587  0.3087  0.0260
   13CHTO  H221 5134   6.984   4.251   1.904  0.7876  0.3044 -0.1830
   13CHTO   N20 5135   7.008   4.400   1.756 -0.5125 -0.4467  0.2601
   13CHTO  H209 5136   6.987   4.488   1.814 -0.9693  1.3238 -2.5091
   13CHTO  H210 5137   7.116   4.395   1.747 -0.6941 -0.8961 -1.9003
   13CHTO   O80 5138   6.729   4.428   1.914 -0.0509 -0.0308 -0.0916
   13CHTO  C103 5139   6.590   4.514   1.876  0.1289  0.2519  0.1077
   13CHTO  H190 5140   6.596   4.618   1.910  1.2791  0.5929 -1.0962
   13CHTO  C101 5141   6.550   4.516   1.722 -0.8550 -0.2099  0.0921
   13CHTO  H188 5142   6.542   4.413   1.689  1.4328 -0.7074  0.9921
   13CHTO   O68 5143   6.659   4.587   1.633  0.2739 -0.3065 -0.5787
   13CHTO  H168 5144   6.612   4.596   1.552 -2.8260 -0.9154  1.0718
   13CHTO   C99 5145   6.404   4.578   1.706  0.1895 -0.0110  0.0425
   13CHTO  H186 5146   6.395   4.681   1.747  0.8610  0.0022  0.1573
   13CHTO   N17 5147   6.355   4.593   1.567  0.2530 -0.0325  0.3372
   13CHTO  H174 5148   6.367   4.505   1.504  0.5516 -0.2601  0.7039
   13CHTO  H175 5149   6.412   4.670   1.518 -0.2407  0.8905  1.2002
   13CHTO   C97 5150   6.312   4.491   1.792 -0.3212 -0.5667  0.2201
   13CHTO  H184 5151   6.321   4.390   1.750  1.7218  0.4032 -1.7579
   13CHTO   O64 5152   6.343   4.492   1.932  0.2232  0.5992 -0.4695
   13CHTO  C104 5153   6.479   4.442   1.960  0.3948  0.4034 -0.4638
   13CHTO  H191 5154   6.485   4.336   1.937  0.7859 -0.2530  2.5068
   13CHTO  C108 5155   6.487   4.453   2.114  0.2214  0.0552 -0.2621
   13CHTO   O71 5156   6.398   4.368   2.188  0.0611  0.5033 -0.0575
   13CHTO  H171 5157   6.407   4.382   2.280  1.0986 -1.3666  0.1623
   13CHTO   O62 5158   6.178   4.541   1.802  0.8854 -0.4442  0.3499
   13CHTO   C91 5159   6.072   4.442   1.812  1.0609 -0.6233 -0.0524
   13CHTO  H178 5160   6.117   4.349   1.847  0.6956 -0.4016  1.0046
   13CHTO   C92 5161   5.995   4.420   1.672  0.2302 -0.1842 -0.2260
   13CHTO  H179 5162   5.961   4.521   1.646  1.1383 -0.1989 -1.5325
   13CHTO   O66 5163   6.091   4.384   1.577 -0.1026  0.7684  0.2242
   13CHTO  H166 5164   6.118   4.295   1.593 -1.3269  0.1837 -0.8951
   13CHTO   C93 5165   5.868   4.321   1.683  0.5381  0.1816 -0.4075
   13CHTO  H180 5166   5.916   4.224   1.701  0.0780 -0.0215 -0.2809
   13CHTO   N16 5167   5.788   4.290   1.557  0.2941 -0.5201 -0.0279
   13CHTO  H172 5168   5.841   4.211   1.507 -1.7416 -0.5834 -2.1747
   13CHTO  H173 5169   5.770   4.380   1.500  0.1906  0.6310  1.7594
   13CHTO   C94 5170   5.780   4.355   1.812 -0.2363 -0.0697 -0.6152
   13CHTO  H181 5171   5.727   4.450   1.805 -1.4382 -0.6983 -0.1310
   13CHTO   O61 5172   5.867   4.358   1.922  0.2465 -0.1504  0.0896
   13CHTO   C95 5173   5.963   4.470   1.918 -0.0481 -0.3791 -0.6270
   13CHTO  H182 5174   5.909   4.563   1.898 -0.7440 -0.4404  0.9458
   13CHTO  C106 5175   6.031   4.481   2.065 -0.0552 -0.0233  0.0266
   13CHTO   O69 5176   5.928   4.499   2.163  0.1121  0.8603  0.5117
   13CHTO  H169 5177   5.919   4.590   2.185 -1.6192  0.8777 -0.2186
   13CHTO   O63 5178   5.690   4.250   1.847 -0.5589 -0.2266  0.0811
   13CHTO   C96 5179   5.544   4.304   1.916 -0.5759 -0.1418  0.6042
   13CHTO  H183 5180   5.527   4.401   1.870 -0.4467 -1.2770 -1.8837
   13CHTO   C98 5181   5.546   4.316   2.070 -0.8589  0.0507 -0.2483
   13CHTO  H185 5182   5.621   4.388   2.107  1.1668 -2.2636  0.3183
   13CHTO   O67 5183   5.416   4.378   2.100  0.3690  0.1048  0.5711
   13CHTO  H167 5184   5.423   4.439   2.170 -1.6725 -0.4021  1.2538
   13CHTO  C102 5185   5.557   4.170   2.140 -0.8984 -0.0267  0.2049
   13CHTO  H189 5186   5.523   4.186   2.244 -0.3948 -0.3813  0.4234
   13CHTO   N18 5187   5.695   4.121   2.151 -0.0955  0.4577 -0.4297
   13CHTO  H176 5188   5.747   4.098   2.059 -0.6972  0.1361 -0.6995
   13CHTO  H177 5189   5.757   4.191   2.204  0.9333 -0.0215 -0.9997
   13CHTO  C105 5190   5.460   4.070   2.070 -0.5124 -0.1550  0.5178
   13CHTO  H192 5191   5.512   3.989   2.020 -1.9476  0.8961 -2.7983
   13CHTO   O65 5192   5.373   4.127   1.970  0.3136 -0.3933  0.1347
   13CHTO  C100 5193   5.445   4.191   1.859  0.0776  0.1248  0.1775
   13CHTO  H187 5194   5.509   4.112   1.817 -1.2250 -0.4556 -0.7605
   13CHTO  C107 5195   5.342   4.242   1.758 -0.0555 -0.1786 -0.3991
   13CHTO   O70 5196   5.399   4.288   1.640 -0.6373  0.1204  0.0177
   13CHTO  H170 5197   5.492   4.273   1.638 -0.7558 -0.4630 -1.1928
   13CHTO   O57 5198   5.377   3.997   2.200 -0.5448 -0.4467 -0.2143
   13CHTO   C85 5199   5.273   3.902   2.177  0.5410  0.5675  0.1453
   13CHTO  H157 5200   5.285   3.854   2.078 -1.2655  1.8358 -0.7206
   13CHTO   C83 5201   5.140   3.985   2.153  0.4948  0.4362  0.4768
   13CHTO  H155 5202   5.154   4.047   2.065 -3.2085 -0.0670 -0.5415
   13CHTO   O56 5203   5.125   4.078   2.252  0.0509  0.2469 -0.2554
   13CHTO  H135 5204   5.196   4.139   2.246  0.3341 -0.1719 -1.2030
   13CHTO   C81 5205   5.029   3.881   2.127 -0.1144  0.6806  0.5463
   13CHTO  H153 5206   5.058   3.822   2.039  2.0279  1.5481  0.6411
   13CHTO   N14 5207   4.898   3.940   2.099  0.4256  0.0093 -0.4933
   13CHTO  H141 5208   4.911   4.002   2.013  3.0965 -0.2932 -0.3420
   13CHTO  H142 5209   4.816   3.874   2.077  0.4900 -1.0862  2.2892
   13CHTO   C79 5210   5.012   3.770   2.245  0.7458 -0.0651 -0.3457
   13CHTO  H151 5211   4.944   3.694   2.207  2.0489 -0.9188 -1.0084
   13CHTO   O52 5212   5.141   3.702   2.264 -0.0688  0.6072 -0.4998
   13CHTO   C86 5213   5.254   3.799   2.295  0.2509 -0.4157  0.6444
   13CHTO  H158 5214   5.235   3.846   2.394 -2.3792  1.1426 -0.5424
   13CHTO   C90 5215   5.385   3.712   2.314 -0.0857  0.3417 -0.0072
   13CHTO   O60 5216   5.425   3.633   2.205 -0.4814 -0.7441  0.4869
   13CHTO  H138 5217   5.426   3.676   2.122  0.9987 -0.4943  0.6214
   13CHTO   O50 5218   4.969   3.828   2.370  0.4146 -0.8187  0.2410
   13CHTO   C73 5219   4.871   3.820   2.476 -0.1246 -0.1919 -0.5811
   13CHTO  H145 5220   4.821   3.722   2.484 -0.9523  0.2328 -0.5250
   13CHTO   C74 5221   4.761   3.932   2.450  0.2254  0.5351  0.4477
   13CHTO  H146 5222   4.713   3.910   2.354  1.4457 -0.7640  0.1146
   13CHTO   O54 5223   4.656   3.904   2.545  0.3699  0.3343 -0.2911
   13CHTO  H133 5224   4.670   3.950   2.625  1.4725  1.6171 -1.1993
   13CHTO   C75 5225   4.817   4.078   2.464  0.2438  0.1192 -0.0220
   13CHTO  H147 5226   4.876   4.096   2.373 -2.3267  0.1746 -1.7155
   13CHTO   N13 5227   4.716   4.185   2.465 -0.2551 -0.2236 -0.5586
   13CHTO  H139 5228   4.775   4.276   2.467 -0.6723  0.0546 -0.6942
   13CHTO  H140 5229   4.656   4.185   2.375 -0.1453  0.2514 -0.6348
   13CHTO   C76 5230   4.915   4.094   2.596 -0.4679  0.5703  0.2857
   13CHTO  H148 5231   4.853   4.097   2.686  1.4463 -2.4239  1.7962
   13CHTO   O49 5232   5.001   3.985   2.597 -0.7308 -0.3400  0.1953
   13CHTO   C77 5233   4.950   3.849   2.608  0.6335  0.0485 -0.2543
   13CHTO  H149 5234   4.880   3.839   2.691  0.1323 -0.7039 -0.7621
   13CHTO   C88 5235   5.061   3.748   2.636  0.5140  0.7684 -0.5351
   13CHTO   O58 5236   5.145   3.795   2.758 -0.2457  0.0535 -0.0290
   13CHTO  H136 5237   5.198   3.730   2.799  1.0695  0.8116 -0.4775
   13CHTO   O51 5238   5.000   4.219   2.582  0.2319 -0.2961 -0.4650
   13CHTO   C78 5239   5.017   4.289   2.721 -0.3974  0.1674  0.0834
   13CHTO  H150 5240   4.944   4.264   2.800  2.0012  0.4894  2.4535
   13CHTO   C80 5241   5.000   4.444   2.703  0.5151 -0.4534  0.4501
   13CHTO  H152 5242   5.061   4.470   2.614 -1.1505 -2.7976 -1.4419
   13CHTO   O55 5243   4.864   4.466   2.677 -0.5947 -0.8110 -0.5511
   13CHTO  H134 5244   4.809   4.416   2.735  0.3783  1.2198  2.2393
   13CHTO   C84 5245   5.041   4.531   2.833  0.0040  0.1646  0.6555
   13CHTO  H156 5246   4.965   4.511   2.909 -0.7448  0.9514  0.1254
   13CHTO   N15 5247   5.045   4.678   2.803  0.4318  0.0480 -0.1765
   13CHTO  H143 5248   4.952   4.722   2.774  0.1120 -0.6907 -0.2903
   13CHTO  H144 5249   5.100   4.736   2.874  2.1064 -0.5473 -0.9572
   13CHTO   C87 5250   5.176   4.476   2.875 -0.6456  0.4313  0.5703
   13CHTO  H159 5251   5.256   4.493   2.802  0.1768  0.2197  1.4142
   13CHTO   O53 5252   5.166   4.335   2.893  0.6301 -0.2807 -0.2414
   13CHTO   C82 5253   5.152   4.247   2.779 -0.1340  0.2137 -0.3838
   13CHTO  H154 5254   5.232   4.261   2.706  0.0033 -0.3207 -0.3378
   13CHTO   C89 5255   5.159   4.098   2.830 -0.2688 -0.5128  0.4333
   13CHTO   O59 5256   5.050   4.070   2.914  0.0898  0.6031 -0.6703
   13CHTO  H137 5257   5.013   3.986   2.894  1.2641  0.2899 -1.5875
   13CHTO   O45 5258   5.228   4.538   3.039  0.2196  0.6651 -0.2093
   13CHTO   C67 5259   5.361   4.507   3.071 -0.6359 -0.0580  0.3790
   13CHTO  H124 5260   5.397   4.441   2.992 -1.2549  0.5138 -0.3851
   13CHTO   C65 5261   5.439   4.650   3.066 -0.0365  0.3691  0.1756
   13CHTO  H122 5262   5.375   4.722   3.117 -1.2231 -0.1595 -0.5556
   13CHTO   O44 5263   5.454   4.671   2.924  0.0924 -0.0714 -0.1142
   13CHTO  H102 5264   5.407   4.748   2.898 -1.6147 -0.8299  0.6236
   13CHTO   C63 5265   5.573   4.661   3.152 -0.4075 -0.5565  0.4843
   13CHTO  H120 5266   5.546   4.690   3.254  1.1664  1.0789  0.4549
   13CHTO   N11 5267   5.669   4.772   3.120 -0.0127  0.1737  0.8206
   13CHTO  H108 5268   5.765   4.746   3.159  0.1666  1.9895  1.6098
   13CHTO  H109 5269   5.618   4.863   3.142 -0.6557  0.6765 -2.4458
   13CHTO   C61 5270   5.633   4.515   3.165  0.1651 -0.3325 -0.7497
   13CHTO  H118 5271   5.711   4.529   3.241 -1.2920  0.0214  0.7303
   13CHTO   O40 5272   5.535   4.423   3.228  0.3291  0.2492  0.0289
   13CHTO   C68 5273   5.392   4.437   3.209  0.4139  0.7952 -0.3048
   13CHTO  H125 5274   5.348   4.497   3.291 -4.0748 -1.3574 -0.9622
   13CHTO   C72 5275   5.327   4.293   3.219  0.3513 -0.3147 -0.2883
   13CHTO   O48 5276   5.387   4.204   3.312  0.4076 -0.2834 -0.5219
   13CHTO  H105 5277   5.481   4.204   3.308  0.3604  0.8995 -2.3988
   13CHTO   O38 5278   5.680   4.475   3.040 -0.1072 -0.4379 -0.2742
   13CHTO   C55 5279   5.780   4.374   3.026 -0.3453 -0.1910  0.2534
   13CHTO  H112 5280   5.784   4.338   2.922  0.4725  2.1383 -0.5652
   13CHTO   C56 5281   5.770   4.252   3.128 -0.3225  0.0969  0.0756
   13CHTO  H113 5282   5.757   4.282   3.233 -0.7781 -0.4056  0.1611
   13CHTO   O42 5283   5.645   4.191   3.099  0.3265  0.8871 -0.6505
   13CHTO  H100 5284   5.601   4.166   3.177 -0.1246  1.8098 -0.5973
   13CHTO   C57 5285   5.898   4.154   3.115  0.2646  0.6159  0.3776
   13CHTO  H114 5286   5.893   4.107   3.017  1.0420  1.0610  0.1214
   13CHTO   N10 5287   5.901   4.059   3.228  0.4189 -0.4166 -0.4589
   13CHTO  H106 5288   5.967   3.975   3.210 -0.9547 -0.9426 -3.3104
   13CHTO  H107 5289   5.801   4.022   3.250  0.1886  0.4140 -0.0772
   13CHTO   C58 5290   6.036   4.237   3.117 -0.2297  0.2246 -0.4857
   13CHTO  H115 5291   6.047   4.278   3.219  0.0431  0.3182 -0.5526
   13CHTO   O37 5292   6.026   4.341   3.016 -0.1310 -0.0156 -0.6869
   13CHTO   C59 5293   5.924   4.443   3.041 -0.2926 -0.2624  0.4938
   13CHTO  H116 5294   5.945   4.483   3.140 -0.8839  1.2746  0.0091
   13CHTO   C70 5295   5.939   4.563   2.947  0.1408 -0.1957 -0.1332
   13CHTO   O46 5296   5.933   4.538   2.809  0.6864 -0.4756 -0.4316
   13CHTO  H103 5297   6.006   4.490   2.776  0.2229 -2.7542  1.6542
   13CHTO   O39 5298   6.173   4.144   3.069  0.0627  0.6460 -0.8672
   13CHTO   C60 5299   6.297   4.168   3.136 -0.2335  0.4917  0.2875
   13CHTO  H117 5300   6.277   4.249   3.206 -2.8566 -1.2118  1.5622
   13CHTO   C62 5301   6.343   4.042   3.211  0.2904  0.7855 -0.5030
   13CHTO  H119 5302   6.266   4.021   3.288  0.4457 -0.7604 -0.7615
   13CHTO   O43 5303   6.355   3.936   3.116 -0.0564  0.3200  0.7451
   13CHTO  H101 5304   6.375   3.859   3.165 -0.1841  0.6662  1.3523
   13CHTO   C66 5305   6.486   4.066   3.278  0.4100 -0.1027 -0.4127
   13CHTO  H123 5306   6.474   4.147   3.349 -0.1703 -0.9361  0.4659
   13CHTO   N12 5307   6.527   3.953   3.364 -0.0722 -0.0116  0.2341
   13CHTO  H110 5308   6.448   3.930   3.434 -1.3402  0.4027 -1.0112
   13CHTO  H111 5309   6.621   3.970   3.413  0.6657 -0.9121 -0.8452
   13CHTO   C69 5310   6.585   4.106   3.167  0.5004 -0.0734  0.1411
   13CHTO  H126 5311   6.604   4.023   3.095  1.7928  0.1535  0.2034
   13CHTO   O41 5312   6.534   4.221   3.087  0.6034 -0.0111 -0.1956
   13CHTO   C64 5313   6.404   4.217   3.029  0.1631 -0.5756 -0.0717
   13CHTO  H121 5314   6.408   4.144   2.946  1.3463  1.0321 -1.4758
   13CHTO   C71 5315   6.362   4.356   2.965 -0.0445  0.3725 -0.2329
   13CHTO   O47 5316   6.415   4.467   3.041  0.1367  0.0398  0.3506
   13CHTO  H104 5317   6.368   4.483   3.121  0.4754 -0.0500  0.5676
   13CHTO   O34 5318   6.719   4.155   3.222  0.3684  0.1390 -0.2532
   13CHTO   C49 5319   6.858   4.202   3.172 -0.6879  0.5691  0.5318
   13CHTO   H91 5320   6.895   4.116   3.115 -2.1468 -1.6176  2.7806
   13CHTO   C47 5321   6.942   4.240   3.297  0.2709 -0.2130 -0.3300
   13CHTO   H89 5322   7.037   4.269   3.247  0.4264  2.6078  1.4570
   13CHTO   O33 5323   6.960   4.116   3.372  0.2533 -0.0424  0.1783
   13CHTO   H70 5324   6.967   4.037   3.323 -0.2100 -1.7443  2.7755
   13CHTO   C45 5325   6.884   4.368   3.378  0.1168  0.5650 -0.3394
   13CHTO   H87 5326   6.810   4.331   3.451  1.7940  1.7733  2.0176
   13CHTO    N8 5327   6.981   4.446   3.448  0.5008  0.2702 -0.0786
   13CHTO   H75 5328   7.079   4.459   3.402  0.1386 -0.5638 -1.1199
   13CHTO   H76 5329   6.949   4.513   3.526  1.2689  3.0325 -2.0604
   13CHTO   C43 5330   6.793   4.456   3.276 -0.2998 -0.1678 -0.0020
   13CHTO   H85 5331   6.698   4.405   3.286 -0.5794  0.8844  3.3928
   13CHTO   O29 5332   6.846   4.454   3.147 -0.1017  0.3212  0.6230
   13CHTO   C50 5333   6.862   4.332   3.081  0.3343 -0.4210  0.1614
   13CHTO   H92 5334   6.787   4.315   3.003  0.3569 -0.4071  0.1375
   13CHTO   C54 5335   6.990   4.344   2.997 -0.8755 -0.0822  0.0755
   13CHTO   O36 5336   6.994   4.439   2.892  0.1199  0.1335 -0.0632
   13CHTO   H72 5337   7.081   4.445   2.857  0.9334 -0.5085  1.7578
   13CHTO   O27 5338   6.766   4.589   3.320  0.2310 -0.2431 -0.0830
   13CHTO   C37 5339   6.673   4.694   3.340  0.7615  0.1137  0.1158
   13CHTO   H79 5340   6.571   4.676   3.302  2.1405 -0.6910 -3.4513
   13CHTO   C38 5341   6.653   4.693   3.493 -0.0719 -0.0522 -1.0546
   13CHTO   H80 5342   6.755   4.697   3.534 -0.4186 -1.7860 -0.0109
   13CHTO   O31 5343   6.585   4.571   3.534  0.2333 -0.0220  0.4844
   13CHTO   H68 5344   6.502   4.574   3.491  0.6081 -1.3131 -0.3368
   13CHTO   C39 5345   6.573   4.819   3.538  0.0824  0.4680  0.4084
   13CHTO   H81 5346   6.470   4.793   3.513  0.0443  1.5054 -0.5329
   13CHTO    N7 5347   6.565   4.840   3.692 -0.7499  0.4042  0.0463
   13CHTO   H73 5348   6.609   4.754   3.740 -1.1258  0.4124  0.4162
   13CHTO   H74 5349   6.620   4.931   3.711  1.4023 -0.4574 -1.8625
   13CHTO   C40 5350   6.618   4.948   3.455 -0.2672  0.3909 -0.1225
   13CHTO   H82 5351   6.720   4.964   3.487  0.7096 -2.0635 -1.8743
   13CHTO   O26 5352   6.611   4.914   3.317  0.4087  0.5893  0.5868
   13CHTO   C41 5353   6.725   4.830   3.288  0.5838  0.1474 -0.0075
   13CHTO   H83 5354   6.821   4.855   3.335 -0.3408 -1.1784  2.6735
   13CHTO   C52 5355   6.732   4.826   3.138 -0.3187 -0.0676  0.1260
   13CHTO   O35 5356   6.870   4.750   3.092  0.3814 -0.7161  0.0832
   13CHTO   H71 5357   6.872   4.721   3.003 -0.0697  1.8164 -0.7902
   13CHTO   O28 5358   6.545   5.072   3.482  0.0936 -0.3384  0.3196
   13CHTO   C42 5359   6.559   5.196   3.402 -0.3045 -0.5322  0.1665
   13CHTO   H84 5360   6.603   5.159   3.309  1.8547  0.4621  0.7676
   13CHTO   C44 5361   6.667   5.300   3.455  0.5682  0.0011 -0.0393
   13CHTO   H86 5362   6.636   5.323   3.557 -3.8716 -1.2505 -1.0115
   13CHTO   O32 5363   6.797   5.240   3.447  0.0726 -0.6818  0.4700
   13CHTO   H69 5364   6.822   5.225   3.358  2.7028 -0.4167  1.1228
   13CHTO   C48 5365   6.665   5.434   3.369  0.9404 -0.2695  0.7973
   13CHTO   H90 5366   6.689   5.419   3.264  0.1879  2.3103  0.2149
   13CHTO    N9 5367   6.771   5.538   3.419  0.0594 -0.0287 -0.3154
   13CHTO   H77 5368   6.733   5.639   3.419  1.4390  0.5108 -1.2709
   13CHTO   H78 5369   6.869   5.520   3.377 -0.6042 -0.2177 -1.8203
   13CHTO   C51 5370   6.517   5.494   3.369 -0.3507  0.9942 -0.1439
   13CHTO   H93 5371   6.492   5.496   3.475  2.9547  1.9256  0.6864
   13CHTO   O30 5372   6.437   5.395   3.295  0.9372  0.1693  0.1612
   13CHTO   C46 5373   6.427   5.269   3.363  0.8546  0.7450  0.0570
   13CHTO   H88 5374   6.359   5.277   3.447 -0.5073 -1.2811 -0.8258
   13CHTO   C53 5375   6.358   5.173   3.264 -0.1702  0.6019  0.0333
   13CHTO   O72 5376   6.313   5.047   3.318 -0.0669 -0.1438  0.2235
   13CHTO  H199 5377   6.260   5.058   3.394 -0.8201 -1.5806 -0.0823
   13CHTO   O22 5378   6.503   5.614   3.298 -0.3243 -0.8057 -0.2654
   13CHTO   C31 5379   6.377   5.693   3.276  0.2897 -0.2598  0.8601
   13CHTO   H59 5380   6.308   5.623   3.224  1.1588 -1.1075  0.8206
   13CHTO   C29 5381   6.302   5.741   3.404  0.1553 -0.1347 -0.5659
   13CHTO   H57 5382   6.371   5.815   3.448 -1.5095  0.3328  1.3247
   13CHTO   O21 5383   6.282   5.641   3.511  0.5523 -0.2737 -0.0675
   13CHTO   H37 5384   6.201   5.595   3.497 -0.1129  0.9131 -0.1573
   13CHTO   C27 5385   6.169   5.811   3.360 -0.4216  0.0275  0.4279
   13CHTO   H55 5386   6.103   5.735   3.318  0.3220 -0.2119 -0.3301
   13CHTO    N5 5387   6.100   5.880   3.474  0.0346  0.2640 -0.0975
   13CHTO   H43 5388   6.164   5.960   3.509  0.3182  0.4226 -0.9699
   13CHTO   H44 5389   6.015   5.935   3.436  0.4206  1.7094  1.1186
   13CHTO   C25 5390   6.201   5.924   3.247  0.2590  0.2603  0.1335
   13CHTO   H53 5391   6.229   6.019   3.294  2.1949  0.6653 -1.7726
   13CHTO   O17 5392   6.305   5.903   3.149 -0.3103 -0.2927 -1.2090
   13CHTO   C32 5393   6.412   5.806   3.167 -0.2995  0.1372  0.1045
   13CHTO   H60 5394   6.500   5.865   3.195  1.0371 -0.7934 -1.9767
   13CHTO   C36 5395   6.446   5.752   3.027  0.5790 -0.2832 -0.3198
   13CHTO   O25 5396   6.558   5.661   3.036  0.5219 -0.4418 -0.0162
   13CHTO   H40 5397   6.528   5.584   3.079  2.5973 -1.0748  0.3335
   13CHTO   O15 5398   6.043   5.961   3.156 -0.7855  0.5802  0.2991
   13CHTO   C19 5399   5.947   6.064   3.179 -0.2272  0.0288  0.0146
   13CHTO   H47 5400   5.964   6.081   3.286  0.7748 -0.5520 -0.0450
   13CHTO   C20 5401   5.971   6.186   3.084 -0.7701  0.4733 -0.2656
   13CHTO   H48 5402   5.956   6.159   2.979 -1.4933 -0.2074  0.0059
   13CHTO   O19 5403   6.108   6.219   3.095  0.7549 -0.5464  0.2644
   13CHTO   H35 5404   6.122   6.310   3.076 -0.8014 -0.4031 -0.2127
   13CHTO   C21 5405   5.886   6.313   3.127 -0.6174  0.9595 -0.0841
   13CHTO   H49 5406   5.909   6.339   3.230 -0.1353 -1.8460  0.5538
   13CHTO    N4 5407   5.896   6.427   3.038  0.4554 -0.4082  0.2572
   13CHTO   H41 5408   5.862   6.522   3.075 -0.0691 -0.0212 -1.1697
   13CHTO   H42 5409   5.845   6.410   2.944  1.0066  0.5266 -0.2192
   13CHTO   C22 5410   5.736   6.267   3.135  0.0972 -0.5626 -0.3630
   13CHTO   H50 5411   5.681   6.279   3.041 -1.4974 -1.8089  0.3821
   13CHTO   O14 5412   5.719   6.131   3.189  0.0275  0.2116  0.0618
   13CHTO   C23 5413   5.805   6.022   3.160  0.1421 -0.1526 -0.2815
   13CHTO   H51 5414   5.785   5.994   3.056  0.9822  0.4131 -0.5912
   13CHTO   C34 5415   5.753   5.911   3.248  0.1254  0.1895 -0.1727
   13CHTO   O23 5416   5.636   5.833   3.198  0.2803 -0.3515  0.5016
   13CHTO   H38 5417   5.569   5.842   3.263  0.5711  0.6800  0.6666
   13CHTO   O16 5418   5.657   6.335   3.236 -0.0712 -0.4716  0.2471
   13CHTO   C24 5419   5.498   6.307   3.245 -0.7784  0.5338  0.0968
   13CHTO   H52 5420   5.471   6.220   3.186 -1.2724  0.2952  0.6746
   13CHTO   C26 5421   5.427   6.434   3.200  0.2630  0.2123 -0.1222
   13CHTO   H54 5422   5.492   6.519   3.229  2.7329 -1.3158 -1.0693
   13CHTO   O20 5423   5.429   6.432   3.053 -0.6292  0.1501 -0.3037
   13CHTO   H36 5424   5.518   6.432   3.022 -0.5414  1.1895 -0.0843
   13CHTO   C30 5425   5.277   6.440   3.256 -0.4492  0.7437 -0.5146
   13CHTO   H58 5426   5.216   6.364   3.205 -1.4457  1.0126  0.2683
   13CHTO    N6 5427   5.212   6.573   3.228 -0.3082  0.2094  0.5255
   13CHTO   H45 5428   5.178   6.590   3.127  1.8208 -1.3803 -0.4944
   13CHTO   H46 5429   5.132   6.583   3.300  0.8784 -0.9589  2.0393
   13CHTO   C33 5430   5.279   6.388   3.406  0.7403 -0.7392 -0.4054
   13CHTO   H61 5431   5.339   6.455   3.469 -0.3372 -0.6765  0.5657
   13CHTO   O18 5432   5.333   6.256   3.417 -0.2883  0.0726  0.6474
   13CHTO   C28 5433   5.474   6.269   3.389 -0.3250  0.0432 -0.3275
   13CHTO   H56 5434   5.520   6.351   3.444  0.9209 -0.7344 -0.1780
   13CHTO   C35 5435   5.533   6.133   3.433  0.4703  0.1689  0.0589
   13CHTO   O24 5436   5.477   6.023   3.364 -0.4288  0.6735 -0.2381
   13CHTO   H39 5437   5.454   5.953   3.423  1.0795  0.8934  0.6504
   13CHTO    O9 5438   5.146   6.390   3.457 -0.1705  0.7750 -0.1953
   13CHTO   C13 5439   5.139   6.358   3.628  0.3350 -0.4915 -0.0178
   13CHTO   H26 5440   5.233   6.391   3.675  0.9784 -3.2937  0.7338
   13CHTO   C11 5441   5.123   6.201   3.649 -0.0973 -0.0541 -0.0005
   13CHTO   H24 5442   5.216   6.149   3.618  1.1931  1.6831  0.9068
   13CHTO    O8 5443   5.003   6.154   3.582 -0.5842 -0.3477 -0.3774
   13CHTO    H3 5444   5.025   6.087   3.520  0.0093  0.7326 -1.3445
   13CHTO    C9 5445   5.099   6.176   3.802 -0.2453 -0.6187 -0.2765
   13CHTO   H22 5446   5.193   6.204   3.851 -0.5518 -0.8169  0.4250
   13CHTO    N2 5447   5.109   6.028   3.847  1.1642  1.0187 -0.5451
   13CHTO   H10 5448   5.051   6.012   3.937  1.2011  1.5873 -0.4191
   13CHTO   H11 5449   5.059   5.977   3.765  3.7388  0.8713 -2.0663
   13CHTO    C7 5450   4.983   6.261   3.858 -0.2065  0.1530  0.4694
   13CHTO   H20 5451   5.032   6.315   3.942 -1.3743  0.7731  0.7656
   13CHTO    O4 5452   4.924   6.355   3.770 -0.4147 -1.2323  0.3453
   13CHTO   C14 5453   5.021   6.437   3.702 -0.0998  0.1096 -0.3127
   13CHTO   H27 5454   5.065   6.507   3.776  0.8712 -0.3178 -0.4767
   13CHTO   C18 5455   4.944   6.523   3.603 -0.5915  0.0247  0.1631
   13CHTO   O13 5456   4.849   6.449   3.518 -0.2445 -0.1271 -0.2719
   13CHTO    H7 5457   4.829   6.376   3.572 -2.0426  0.1241 -0.5545
   13CHTO    O2 5458   4.850   6.167   3.901 -0.9159 -0.4479 -0.0783
   13CHTO    C1 5459   4.756   6.227   3.991 -0.6851  0.2038 -0.6772
   13CHTO   H14 5460   4.773   6.336   4.000 -2.2148  0.3121  1.3057
   13CHTO    C2 5461   4.766   6.164   4.133  0.2409 -0.0226 -0.6168
   13CHTO   H15 5462   4.757   6.054   4.134 -1.7908  0.1104  1.0978
   13CHTO    O6 5463   4.896   6.193   4.186  0.5723  0.2315  0.0750
   13CHTO    H1 5464   4.890   6.280   4.220  2.4075 -0.0558  1.1683
   13CHTO    C3 5465   4.649   6.222   4.235  0.8438  0.0468  0.6328
   13CHTO   H16 5466   4.658   6.331   4.231 -0.2076  0.0804 -2.4526
   13CHTO    N1 5467   4.653   6.167   4.377 -0.0715 -0.4571  0.5866
   13CHTO    H8 5468   4.630   6.238   4.455  0.7488  0.5601 -0.0917
   13CHTO    H9 5469   4.753   6.132   4.399  0.4987  0.6935 -0.1337
   13CHTO    C4 5470   4.517   6.192   4.162  0.6375  0.3829  0.3217
   13CHTO   H17 5471   4.499   6.085   4.156 -1.9203  0.7872  0.1782
   13CHTO    O1 5472   4.514   6.250   4.030 -0.4188 -0.0738  0.3853
   13CHTO    C5 5473   4.610   6.211   3.931  0.2893  0.5406 -0.5302
   13CHTO   H18 5474   4.596   6.106   3.905  1.6476  1.1617 -3.9851
   13CHTO   C16 5475   4.581   6.300   3.800 -0.3210 -0.0047  0.4080
   13CHTO   O11 5476   4.582   6.440   3.817 -0.2467  0.4909 -0.1985
   13CHTO    H5 5477   4.509   6.474   3.865 -0.5668  0.7844 -0.8836
   13CHTO    O3 5478   4.406   6.250   4.233 -0.2234  0.2232  0.2056
   13CHTO    C6 5479   4.271   6.183   4.218  0.2318  0.0790  0.0978
   13CHTO   H19 5480   4.284   6.092   4.159 -0.8145  0.7647 -1.2052
   13CHTO    C8 5481   4.225   6.150   4.367  0.3054 -0.7088  0.2605
   13CHTO   H21 5482   4.239   6.239   4.429 -0.3718 -0.5245  0.1576
   13CHTO    O7 5483   4.312   6.051   4.422 -0.3018  0.1749 -0.6174
   13CHTO    H2 5484   4.368   6.077   4.493  1.2018 -0.1882 -1.6553
   13CHTO   C12 5485   4.076   6.102   4.363  0.3567  0.1527  0.6074
   13CHTO   H25 5486   4.076   5.999   4.324  2.4838  0.8227 -1.2489
   13CHTO    N3 5487   4.014   6.087   4.498  0.4280 -0.4261  0.4351
   13CHTO   H12 5488   4.090   6.094   4.573 -0.0397  1.1660  0.7948
   13CHTO   H13 5489   3.929   6.151   4.519 -1.9959 -3.0783 -1.0033
   13CHTO   C15 5490   3.987   6.186   4.264 -0.1885  0.0415  0.2706
   13CHTO   H28 5491   3.953   6.281   4.304  1.4023  0.7549 -0.0621
   13CHTO   O10 5492   3.856   6.081   4.233  0.5770 -0.2427 -0.1524
   13CHTO    H4 5493   3.781   6.135   4.220  1.9984  1.3825 -2.0190
   13CHTO    O5 5494   4.040   6.200   4.129 -0.0134 -0.1941  0.1908
   13CHTO   C10 5495   4.170   6.271   4.136 -0.4826  0.1546  0.7174
   13CHTO   H23 5496   4.175   6.362   4.195  0.6623  0.7625 -0.2776
   13CHTO   C17 5497   4.216   6.299   3.993  0.2038 -0.2746  0.5349
   13CHTO   O12 5498   4.122   6.366   3.909  0.4265  0.2571 -0.2690
   13CHTO    H6 5499   4.081   6.302   3.853 -2.2853  1.5035  0.1991
   14CHTO  H203 5500   5.616   4.220   2.726 -2.4263  0.0543 -2.2778
   14CHTO   O82 5501   5.548   4.179   2.775 -0.4837 -0.2881  0.2298
   14CHTO  C123 5502   5.588   4.044   2.804  0.6724 -0.3036 -0.0983
   14CHTO  H227 5503   5.696   4.037   2.824  0.5081 -0.3845  0.7670
   14CHTO   O77 5504   5.502   4.014   2.919 -0.0603 -0.0125 -0.6064
   14CHTO  C118 5505   5.520   3.882   2.967 -0.7847  0.1384  0.1845
   14CHTO  H222 5506   5.618   3.879   3.018  0.0939 -0.0694 -1.4673
   14CHTO  C125 5507   5.404   3.863   3.081 -0.0095 -0.3538  0.0280
   14CHTO   O84 5508   5.444   3.936   3.200  0.5240  0.1649  0.1498
   14CHTO  H205 5509   5.399   4.018   3.203  0.3874  0.1858 -1.6879
   14CHTO  C114 5510   5.506   3.774   2.858 -0.8990 -0.3715  0.8464
   14CHTO  H218 5511   5.400   3.761   2.836 -0.2680 -0.4447 -2.3730
   14CHTO  C116 5512   5.583   3.810   2.724 -0.0711  0.1997 -0.8167
   14CHTO  H220 5513   5.691   3.811   2.747 -0.1992 -2.1445  0.0190
   14CHTO   O79 5514   5.547   3.715   2.621 -0.3990 -0.2327 -0.7595
   14CHTO  H201 5515   5.580   3.742   2.538  2.0586  0.9081  0.5503
   14CHTO  C120 5516   5.553   3.958   2.678  0.6582  0.4121 -0.3423
   14CHTO  H224 5517   5.444   3.960   2.660  0.5840  2.0383  0.1910
   14CHTO   N21 5518   5.621   4.002   2.546  0.1574 -0.7580  0.1162
   14CHTO  H211 5519   5.549   3.973   2.471  0.9408  0.3119 -1.0728
   14CHTO  H212 5520   5.717   3.955   2.529 -0.1067 -1.0881 -0.4735
   14CHTO   O75 5521   5.553   3.657   2.926  0.1671 -0.0905  0.8258
   14CHTO  C112 5522   5.506   3.511   2.903  0.1994  0.1533 -0.7163
   14CHTO  H216 5523   5.569   3.451   2.972  1.3383  0.0343 -1.8504
   14CHTO   O73 5524   5.539   3.478   2.769  0.4335  0.3001  0.3230
   14CHTO  C113 5525   5.485   3.357   2.722  0.2991  0.1603  0.1815
   14CHTO  H217 5526   5.522   3.280   2.793  0.7607  1.0964  0.9753
   14CHTO  C124 5527   5.546   3.323   2.586  0.1677  0.0773 -0.2943
   14CHTO   O83 5528   5.543   3.431   2.494 -0.6442  0.0826  0.0516
   14CHTO  H204 5529   5.535   3.399   2.407 -1.6428 -0.4056  0.3105
   14CHTO  C109 5530   5.333   3.347   2.728 -0.1558  0.0761 -0.6676
   14CHTO  H213 5531   5.291   3.431   2.670 -0.7497  1.3898  1.5663
   14CHTO  C110 5532   5.298   3.366   2.881  0.0837 -0.5382 -0.0795
   14CHTO  H214 5533   5.332   3.273   2.927  1.7880  0.0781 -0.0652
   14CHTO   O78 5534   5.153   3.362   2.888  0.0270  0.0825  0.1988
   14CHTO  H200 5535   5.119   3.352   2.974 -3.1576  0.6449 -0.9107
   14CHTO  C111 5536   5.350   3.501   2.935 -0.7782  0.0640 -0.0224
   14CHTO  H215 5537   5.291   3.581   2.888 -0.1414  0.4335 -0.1874
   14CHTO   N19 5538   5.329   3.508   3.085  0.2382 -0.2764  0.3799
   14CHTO  H207 5539   5.372   3.594   3.133  0.9143 -0.6454  0.4430
   14CHTO  H208 5540   5.345   3.410   3.128 -0.8505 -0.2005  0.9859
   14CHTO   O74 5541   5.285   3.224   2.671  0.3954 -0.2655  0.2257
   14CHTO  C115 5542   5.216   3.252   2.514 -0.5328  0.2886 -0.4465
   14CHTO  H219 5543   5.233   3.354   2.480  0.1408  0.3147 -0.0336
   14CHTO   O76 5544   5.280   3.155   2.395 -0.7922  0.1017  0.1481
   14CHTO  C122 5545   5.224   3.174   2.261 -0.3700 -0.1852 -0.0578
   14CHTO  H226 5546   5.267   3.098   2.194  0.7516  0.2559  0.1548
   14CHTO  C126 5547   5.267   3.310   2.193  0.0906 -0.1388 -0.4568
   14CHTO   O85 5548   5.303   3.290   2.058  0.1437 -0.2274  0.2098
   14CHTO  H206 5549   5.395   3.272   2.054 -0.0903 -1.7174  1.1776
   14CHTO  C121 5550   5.063   3.167   2.276 -0.5971 -0.1124  0.7915
   14CHTO  H225 5551   5.016   3.195   2.179 -0.0525  0.9669  0.8297
   14CHTO   O81 5552   5.040   3.032   2.308  0.3473  0.3746  0.3432
   14CHTO  H202 5553   4.949   3.010   2.312  0.6384 -0.8602  0.6123
   14CHTO  C119 5554   5.012   3.275   2.371  0.3309  0.0298  0.1336
   14CHTO  H223 5555   5.056   3.373   2.354 -0.2502  0.7366  2.4712
   14CHTO  C117 5556   5.061   3.243   2.511 -0.4684 -0.0481 -0.4129
   14CHTO  H221 5557   5.033   3.146   2.551 -0.1313 -0.1975 -0.5377
   14CHTO   N20 5558   5.001   3.347   2.606 -0.3950  0.6149 -0.2836
   14CHTO  H209 5559   4.897   3.321   2.616  0.1853 -1.8456 -0.2616
   14CHTO  H210 5560   5.046   3.345   2.704  1.0623  1.5170 -0.9214
   14CHTO   O80 5561   4.849   3.304   2.352  0.0043 -0.8129 -0.5620
   14CHTO  C103 5562   4.807   3.443   2.274 -0.0534 -0.4132  0.2463
   14CHTO  H190 5563   4.871   3.522   2.313  0.1339 -1.4457  2.0683
   14CHTO  C101 5564   4.813   3.429   2.118 -0.6974 -0.7901  0.4533
   14CHTO  H188 5565   4.767   3.336   2.083 -0.6058  0.3737 -2.8633
   14CHTO   O68 5566   4.970   3.437   2.078 -0.3007 -0.3911  0.5517
   14CHTO  H168 5567   5.011   3.359   2.111 -3.0570 -1.5731  1.3314
   14CHTO   C99 5568   4.746   3.553   2.047  0.0948 -0.3758  1.0456
   14CHTO  H186 5569   4.809   3.644   2.050 -1.3591  0.8118 -2.0997
   14CHTO   N17 5570   4.724   3.529   1.897  0.2640 -0.5839  0.4031
   14CHTO  H174 5571   4.666   3.617   1.872  0.7398  0.1848  1.9995
   14CHTO  H175 5572   4.663   3.441   1.879 -0.6117  0.0502  0.2075
   14CHTO   C97 5573   4.612   3.599   2.124 -0.1509  0.7821  0.2668
   14CHTO  H184 5574   4.531   3.532   2.091  1.4180 -1.2305  0.4173
   14CHTO   O64 5575   4.622   3.603   2.267  0.0420  0.2335 -0.7950
   14CHTO  C104 5576   4.662   3.479   2.321 -0.0829 -0.4974  0.2443
   14CHTO  H191 5577   4.596   3.398   2.288 -1.1486  1.1311 -1.7243
   14CHTO  C108 5578   4.654   3.485   2.478  0.7526  0.2689  0.7487
   14CHTO   O71 5579   4.519   3.529   2.520  0.1696  0.0088  0.5600
   14CHTO  H171 5580   4.456   3.459   2.520  0.8333 -0.7377 -3.3268
   14CHTO   O62 5581   4.591   3.732   2.085  0.2614  0.1089  0.0804
   14CHTO   C91 5582   4.454   3.779   2.095 -0.9963  1.2929  0.0889
   14CHTO  H178 5583   4.406   3.708   2.162  1.2350 -0.1707  0.1966
   14CHTO   C92 5584   4.378   3.777   1.962 -0.0822  0.1909  0.5679
   14CHTO  H179 5585   4.393   3.681   1.911 -1.2453 -0.1376  0.8346
   14CHTO   O66 5586   4.234   3.783   1.982  0.2052 -0.0176  0.2490
   14CHTO  H166 5587   4.217   3.836   2.058 -1.0429 -0.5706  0.3708
   14CHTO   C93 5588   4.416   3.897   1.867  0.0930 -0.2391  0.5171
   14CHTO  H180 5589   4.327   3.919   1.806  0.6699  0.2892 -0.1461
   14CHTO   N16 5590   4.524   3.864   1.766 -0.2721 -0.0107 -0.5008
   14CHTO  H172 5591   4.616   3.914   1.794 -0.8085  2.2276 -2.4964
   14CHTO  H173 5592   4.494   3.898   1.668 -2.8637  2.8142  1.1857
   14CHTO   C94 5593   4.452   4.024   1.959  0.0776  0.7498 -0.0724
   14CHTO  H181 5594   4.558   4.022   1.986 -0.1217 -4.6263  0.7263
   14CHTO   O61 5595   4.381   4.023   2.081  0.2905 -0.4192  0.1215
   14CHTO   C95 5596   4.437   3.918   2.171 -0.0796  0.9474 -0.5687
   14CHTO  H182 5597   4.531   3.955   2.211 -0.2050  1.4035 -0.6958
   14CHTO  C106 5598   4.342   3.896   2.295 -0.4518  0.7363 -0.2197
   14CHTO   O69 5599   4.370   3.986   2.403 -0.5398 -0.3321 -0.6156
   14CHTO  H169 5600   4.326   4.067   2.387 -0.9892 -0.2758  0.8343
   14CHTO   O63 5601   4.425   4.157   1.884 -0.1681  0.5741  0.6645
   14CHTO   C96 5602   4.539   4.270   1.946 -0.0704 -0.1087 -0.2424
   14CHTO  H183 5603   4.505   4.360   1.896  0.1989 -0.1295 -0.4607
   14CHTO   C98 5604   4.693   4.242   1.909  0.2596  0.1675 -0.6654
   14CHTO  H185 5605   4.719   4.139   1.937 -2.7751 -0.4129  0.2632
   14CHTO   O67 5606   4.707   4.246   1.769 -0.2500  0.4646  0.4527
   14CHTO  H167 5607   4.704   4.162   1.728  0.2784 -0.4636  2.2511
   14CHTO  C102 5608   4.792   4.342   1.985  0.0677 -0.2268  0.1068
   14CHTO  H189 5609   4.789   4.436   1.926 -0.9351 -0.4175 -0.1457
   14CHTO   N18 5610   4.933   4.296   1.990 -0.2110  0.3202 -0.7113
   14CHTO  H176 5611   4.935   4.200   2.041 -2.3797  0.4921 -0.2647
   14CHTO  H177 5612   4.986   4.367   2.052 -0.0730  0.4289 -0.9530
   14CHTO  C105 5613   4.744   4.392   2.126 -0.1298 -0.0043  0.0582
   14CHTO  H192 5614   4.781   4.326   2.204  1.9969  2.1302  0.9166
   14CHTO   O65 5615   4.601   4.410   2.137  0.5579  0.9491 -0.5842
   14CHTO  C100 5616   4.515   4.301   2.106  0.3254  0.3962  0.3154
   14CHTO  H187 5617   4.535   4.213   2.169 -1.8575 -0.0152  0.4724
   14CHTO  C107 5618   4.374   4.359   2.133  0.1308  0.1277 -0.2148
   14CHTO   O70 5619   4.359   4.400   2.272  0.3490  0.3450  0.3830
   14CHTO  H170 5620   4.316   4.483   2.280  2.0006  1.2783 -0.1260
   14CHTO   O57 5621   4.814   4.552   2.147 -0.2244 -0.0845  0.2029
   14CHTO   C85 5622   4.846   4.589   2.283  0.0906  0.3525 -0.2966
   14CHTO  H157 5623   4.807   4.511   2.352  0.1442  1.3735  0.8990
   14CHTO   C83 5624   4.750   4.706   2.319  0.1241  0.3362 -0.5317
   14CHTO  H155 5625   4.651   4.661   2.319 -0.0614  0.6835  2.0632
   14CHTO   O56 5626   4.758   4.799   2.213 -0.7382 -0.2069 -0.4154
   14CHTO  H135 5627   4.696   4.866   2.230  0.9917  0.6432  2.9428
   14CHTO   C81 5628   4.779   4.757   2.464  1.1295  0.1620  0.1899
   14CHTO  H153 5629   4.763   4.679   2.539  0.0503  1.1421  0.9970
   14CHTO   N14 5630   4.686   4.871   2.506  0.6771 -0.3982  0.6511
   14CHTO  H141 5631   4.703   4.940   2.426  1.8439  0.5078  1.6634
   14CHTO  H142 5632   4.713   4.917   2.598  1.0113 -0.5113  0.6114
   14CHTO   C79 5633   4.925   4.812   2.471  0.0538 -0.1995  0.2984
   14CHTO  H151 5634   4.948   4.850   2.570 -3.0289  1.1712  0.5214
   14CHTO   O52 5635   5.010   4.699   2.443 -0.0200 -0.3161  0.1671
   14CHTO   C86 5636   4.995   4.625   2.317 -0.0257 -0.2220 -0.3339
   14CHTO  H158 5637   5.031   4.698   2.241  0.6851 -0.2166  0.0014
   14CHTO   C90 5638   5.088   4.502   2.317  0.1499 -0.9956  0.0833
   14CHTO   O60 5639   5.127   4.458   2.192  0.1487 -0.2306 -0.2851
   14CHTO  H138 5640   5.203   4.501   2.157  0.9163 -1.2977  0.0412
   14CHTO   O50 5641   4.960   4.911   2.371 -0.1066 -0.1881  0.6080
   14CHTO   C73 5642   5.058   5.014   2.348  0.1204  0.0234 -0.1592
   14CHTO  H145 5643   5.096   5.033   2.449 -0.1913  1.7385 -0.3451
   14CHTO   C74 5644   4.976   5.135   2.281 -0.9323 -0.0863  0.0139
   14CHTO  H146 5645   4.888   5.171   2.336 -1.4737 -0.9686 -0.2498
   14CHTO   O54 5646   5.076   5.242   2.286 -0.2140 -0.3752  0.1303
   14CHTO  H133 5647   5.152   5.220   2.237  0.5574  0.1195  1.0885
   14CHTO   C75 5648   4.939   5.098   2.128  0.1446  0.2472 -0.5025
   14CHTO  H147 5649   4.860   5.021   2.129 -1.1427  1.5438 -0.6774
   14CHTO   N13 5650   4.876   5.212   2.060  0.7172 -0.1335 -0.6230
   14CHTO  H139 5651   4.796   5.194   1.990 -0.3812 -1.3299  0.9146
   14CHTO  H140 5652   4.847   5.296   2.120 -1.6357 -1.4200  0.0941
   14CHTO   C76 5653   5.067   5.052   2.048  0.1850 -0.3744  0.3967
   14CHTO  H148 5654   5.141   5.132   2.053 -1.5035  1.1670  1.0881
   14CHTO   O49 5655   5.124   4.940   2.126 -0.0365 -0.5407  0.6865
   14CHTO   C77 5656   5.176   4.969   2.253  0.1427 -0.0693  1.5234
   14CHTO  H149 5657   5.253   5.046   2.258 -0.5197  0.7005  0.0828
   14CHTO   C88 5658   5.253   4.850   2.315 -0.8428 -0.1804 -0.0847
   14CHTO   O58 5659   5.360   4.801   2.224 -0.1871 -0.3162  0.5122
   14CHTO  H136 5660   5.398   4.723   2.259 -0.4028 -0.6562 -0.0169
   14CHTO   O51 5661   5.050   4.990   1.906  0.0191  0.6004  0.4914
   14CHTO   C78 5662   5.167   5.004   1.811  0.0013  0.4469 -0.3190
   14CHTO  H150 5663   5.259   5.033   1.866  2.5923 -2.4209 -2.9020
   14CHTO   C80 5664   5.134   5.093   1.696  0.1058  0.3478  0.2091
   14CHTO  H152 5665   5.039   5.055   1.653 -0.5371  3.2007 -1.0037
   14CHTO   O55 5666   5.108   5.229   1.743  0.0311 -0.1430  0.0030
   14CHTO  H134 5667   5.094   5.281   1.667  1.4552 -0.5259 -0.5467
   14CHTO   C84 5668   5.247   5.085   1.588  0.0644 -0.8439  0.2162
   14CHTO  H156 5669   5.337   5.133   1.628  0.7639  0.8072 -3.1074
   14CHTO   N15 5670   5.210   5.164   1.465 -0.6472 -0.0126  0.1485
   14CHTO  H143 5671   5.294   5.213   1.422 -1.7273  1.6450 -0.0962
   14CHTO  H144 5672   5.135   5.237   1.485 -1.4700 -0.0211 -2.7609
   14CHTO   C87 5673   5.265   4.936   1.544 -0.0493 -0.0422 -0.2852
   14CHTO  H159 5674   5.169   4.909   1.500  0.3821 -1.8188 -0.1699
   14CHTO   O53 5675   5.295   4.853   1.669  0.2621  0.1616 -0.2597
   14CHTO   C82 5676   5.195   4.861   1.766  0.1248  0.4845 -0.3998
   14CHTO  H154 5677   5.108   4.811   1.725  1.2260 -1.0904 -0.8599
   14CHTO   C89 5678   5.252   4.769   1.883 -0.0649 -0.1199  0.9034
   14CHTO   O59 5679   5.155   4.680   1.932  0.0987 -0.2482 -0.6583
   14CHTO  H137 5680   5.079   4.732   1.952 -0.9907 -2.0752  0.0274
   14CHTO   O45 5681   5.382   4.913   1.422 -0.4489 -0.2397  0.1020
   14CHTO   C67 5682   5.454   4.790   1.414 -0.0294 -0.3038 -0.2332
   14CHTO  H124 5683   5.405   4.701   1.452 -1.0053 -0.3721 -1.5938
   14CHTO   C65 5684   5.498   4.747   1.270 -0.3952 -0.1691  0.0794
   14CHTO  H122 5685   5.409   4.758   1.208 -1.4188  0.9808  1.7132
   14CHTO   O44 5686   5.543   4.609   1.277  0.3487 -0.5553  0.4539
   14CHTO  H102 5687   5.465   4.557   1.279  0.7545 -1.1295  2.0895
   14CHTO   C63 5688   5.606   4.850   1.221 -0.2868  0.0070  0.6961
   14CHTO  H120 5689   5.567   4.951   1.232 -1.9160 -0.2812 -2.0236
   14CHTO   N11 5690   5.633   4.844   1.072  0.2530 -0.3127  0.1691
   14CHTO  H108 5691   5.647   4.741   1.046 -0.5274 -0.3155 -0.2712
   14CHTO  H109 5692   5.694   4.921   1.031  0.9895 -1.5015 -1.0392
   14CHTO   C61 5693   5.733   4.838   1.312  0.3160  0.3983 -0.1569
   14CHTO  H118 5694   5.806   4.915   1.283  1.1374  0.0915  1.0726
   14CHTO   O40 5695   5.693   4.876   1.439 -0.8765 -0.3404  0.1542
   14CHTO   C68 5696   5.580   4.808   1.509 -0.5080  0.5380 -0.0855
   14CHTO  H125 5697   5.534   4.870   1.589  0.2602  1.4146 -0.3178
   14CHTO   C72 5698   5.630   4.679   1.580 -0.2423  0.5134  0.0545
   14CHTO   O48 5699   5.539   4.615   1.676  0.8502 -0.3238 -0.6843
   14CHTO  H105 5700   5.449   4.633   1.657  0.1551  1.3421  3.5208
   14CHTO   O38 5701   5.802   4.712   1.319  0.6743  0.7613 -0.3176
   14CHTO   C55 5702   5.916   4.662   1.243  0.3091  0.3393 -0.0252
   14CHTO  H112 5703   5.941   4.736   1.166  0.0834 -1.3249 -1.7614
   14CHTO   C56 5704   5.876   4.520   1.170 -0.3889 -0.2572  0.7547
   14CHTO  H113 5705   5.841   4.449   1.246 -0.4256 -0.0567  0.9251
   14CHTO   O42 5706   5.770   4.537   1.071 -0.1569 -0.2025  0.0338
   14CHTO  H100 5707   5.686   4.525   1.111 -0.9441 -2.4365 -2.2469
   14CHTO   C57 5708   6.013   4.464   1.099  0.8424 -0.0331  0.1955
   14CHTO  H114 5709   6.044   4.515   1.008  0.4734 -1.3949 -0.7115
   14CHTO   N10 5710   6.000   4.322   1.061  0.4178 -0.4341  0.1331
   14CHTO  H106 5711   6.079   4.302   0.991  1.5468  1.4084  0.8454
   14CHTO  H107 5712   5.907   4.306   1.007 -0.5161  3.3857  0.4720
   14CHTO   C58 5713   6.135   4.470   1.201  0.5735  0.1472  0.3308
   14CHTO  H115 5714   6.133   4.388   1.276 -1.1049  2.2352  2.6942
   14CHTO   O37 5715   6.155   4.591   1.277  0.2045  0.3824 -0.1378
   14CHTO   C59 5716   6.035   4.638   1.343 -0.2431  0.1120  0.3038
   14CHTO  H116 5717   6.012   4.569   1.424 -1.3838  0.2431  0.0925
   14CHTO   C70 5718   6.080   4.769   1.407 -0.0349 -0.1006 -0.1578
   14CHTO   O46 5719   6.009   4.796   1.534  0.1434 -0.4519 -0.6850
   14CHTO  H103 5720   6.071   4.793   1.605  2.1757  0.8177 -2.3480
   14CHTO   O39 5721   6.267   4.459   1.119  0.0511 -0.3660  1.0789
   14CHTO   C60 5722   6.381   4.398   1.186  0.1302  0.3143 -0.0173
   14CHTO  H117 5723   6.382   4.424   1.292  2.7054  0.3962 -0.0306
   14CHTO   C62 5724   6.366   4.247   1.193 -0.1750  0.5807 -0.1826
   14CHTO  H119 5725   6.282   4.227   1.262  0.6520  0.8502  0.9234
   14CHTO   O43 5726   6.339   4.197   1.057  0.2793 -0.3690 -0.2926
   14CHTO  H101 5727   6.264   4.246   1.030  0.2625 -0.1486  0.1564
   14CHTO   C66 5728   6.497   4.185   1.259 -0.1984  0.0514 -0.8085
   14CHTO  H123 5729   6.504   4.218   1.363  0.3217 -1.6344 -0.3035
   14CHTO   N12 5730   6.476   4.037   1.275  0.5452 -0.0069 -0.2136
   14CHTO  H110 5731   6.381   4.016   1.320  1.1946 -0.9158  0.7564
   14CHTO  H111 5732   6.483   3.991   1.177  1.5691  0.7781 -0.5205
   14CHTO   C69 5733   6.617   4.213   1.172 -0.2969  0.6944 -0.2263
   14CHTO  H126 5734   6.597   4.179   1.069 -1.5379  1.1003 -0.1204
   14CHTO   O41 5735   6.628   4.339   1.171  0.0646  0.5624  0.2812
   14CHTO   C64 5736   6.522   4.438   1.132 -0.4925 -0.1733  0.4882
   14CHTO  H121 5737   6.523   4.445   1.021  1.0694 -0.8688  0.4437
   14CHTO   C71 5738   6.551   4.576   1.192  0.7597  0.3617  0.3481
   14CHTO   O47 5739   6.584   4.579   1.334  0.2370 -0.1005  0.6039
   14CHTO  H104 5740   6.663   4.627   1.350  0.6396 -1.0589  1.5713
   14CHTO   O34 5741   6.752   4.156   1.228  0.3957  0.0319 -0.3042
   14CHTO   C49 5742   6.867   4.107   1.159  0.3436 -0.0508  0.3145
   14CHTO   H91 5743   6.840   4.006   1.128  1.5556  0.4584 -2.6221
   14CHTO   C47 5744   6.982   4.089   1.263 -0.3752  0.1139 -0.1127
   14CHTO   H89 5745   7.062   4.030   1.213 -1.3591 -0.1099 -1.4429
   14CHTO   O33 5746   6.950   4.017   1.380  0.7056 -0.1563  0.6327
   14CHTO   H70 5747   7.025   3.966   1.402 -0.3801 -1.5583  1.1367
   14CHTO   C45 5748   7.038   4.236   1.306  0.3906 -0.1428 -0.3117
   14CHTO   H87 5749   6.984   4.269   1.396  1.5282 -1.6552  0.9685
   14CHTO    N8 5750   7.181   4.229   1.343  0.7221  0.4079  0.3105
   14CHTO   H75 5751   7.225   4.319   1.383  1.9610  1.3016 -2.8691
   14CHTO   H76 5752   7.203   4.150   1.412  2.7526  0.8511  0.1781
   14CHTO   C43 5753   7.008   4.342   1.189  1.0605  0.8000  0.5948
   14CHTO   H85 5754   6.907   4.380   1.201  0.7976  0.6545 -1.0451
   14CHTO   O29 5755   7.025   4.279   1.058  0.0037 -0.1899  0.2817
   14CHTO   C50 5756   6.915   4.191   1.037 -0.3399 -0.2283 -0.0183
   14CHTO   H92 5757   6.829   4.253   1.008  0.1896  0.7574  0.5053
   14CHTO   C54 5758   6.958   4.104   0.919 -0.6347  0.5147 -0.1293
   14CHTO   O36 5759   6.936   4.163   0.791 -0.1474  0.1640 -0.0404
   14CHTO   H72 5760   7.007   4.225   0.786  0.0592  0.0414  1.1264
   14CHTO   O27 5761   7.069   4.465   1.202  0.1080  0.2714 -0.3780
   14CHTO   C37 5762   7.067   4.608   1.176  0.2959 -0.4289 -0.3371
   14CHTO   H79 5763   7.171   4.644   1.181  0.3441 -0.5915 -0.1736
   14CHTO   C38 5764   7.004   4.642   1.043  0.2016  0.1436  0.6091
   14CHTO   H80 5765   6.904   4.596   1.035 -0.5398  2.1254 -2.4233
   14CHTO   O31 5766   7.078   4.570   0.933 -0.0013  0.1500 -0.3072
   14CHTO   H68 5767   7.062   4.477   0.929 -0.6437  0.2707 -0.5143
   14CHTO   C39 5768   6.994   4.798   1.030  0.3307  0.3732 -0.3758
   14CHTO   H81 5769   7.095   4.838   1.023  0.8630 -1.4411 -3.6464
   14CHTO    N7 5770   6.911   4.819   0.902  0.1998 -0.7158 -0.2907
   14CHTO   H73 5771   6.882   4.920   0.876  0.3502 -0.9162 -1.2541
   14CHTO   H74 5772   6.973   4.787   0.820 -1.5448 -1.7580 -1.2184
   14CHTO   C40 5773   6.930   4.869   1.147 -0.3264 -0.0046 -0.2648
   14CHTO   H82 5774   6.822   4.851   1.156 -0.6131  0.4342 -2.4976
   14CHTO   O26 5775   7.002   4.828   1.261 -0.1707 -0.1386  0.0689
   14CHTO   C41 5776   6.986   4.684   1.288 -0.2196 -0.2272  0.5376
   14CHTO   H83 5777   6.878   4.663   1.279 -0.4181  1.5392 -1.6888
   14CHTO   C52 5778   7.034   4.638   1.431 -0.2496 -0.7772 -0.2986
   14CHTO   O35 5779   6.933   4.678   1.525 -0.3625 -0.2489  0.3004
   14CHTO   H71 5780   6.950   4.654   1.614 -0.1142 -2.2594 -0.2560
   14CHTO   O28 5781   6.940   5.013   1.145  0.2488 -0.3687  0.4382
   14CHTO   C42 5782   6.866   5.097   1.234  0.2637 -0.6786  0.0489
   14CHTO   H84 5783   6.885   5.194   1.189  0.0776  0.7163  2.8317
   14CHTO   C44 5784   6.911   5.104   1.381 -0.8273  0.2920  0.8544
   14CHTO   H86 5785   6.906   4.999   1.413  0.9017  0.2248  0.9459
   14CHTO   O32 5786   7.050   5.152   1.380 -0.0029  0.0055 -0.3199
   14CHTO   H69 5787   7.091   5.127   1.461 -0.4423 -1.2652 -0.4791
   14CHTO   C48 5788   6.822   5.183   1.486  0.3119  0.1985 -0.0485
   14CHTO   H90 5789   6.837   5.288   1.464  1.0241  0.5116  1.8108
   14CHTO    N9 5790   6.862   5.156   1.624  0.1387  0.3436  1.0317
   14CHTO   H77 5791   6.953   5.211   1.644  0.9927 -0.2997 -0.9327
   14CHTO   H78 5792   6.785   5.156   1.700  1.6369 -1.0072  2.5729
   14CHTO   C51 5793   6.668   5.145   1.455 -0.0695  0.6796  0.0187
   14CHTO   H93 5794   6.652   5.039   1.474 -0.2356  0.5186 -0.9696
   14CHTO   O30 5795   6.633   5.181   1.325 -0.3334 -0.4106 -0.2971
   14CHTO   C46 5796   6.709   5.072   1.222 -0.3751 -0.2006  0.5837
   14CHTO   H88 5797   6.689   4.973   1.264 -0.8477  0.7801  2.7598
   14CHTO   C53 5798   6.666   5.087   1.081 -0.0775  0.0083  1.0256
   14CHTO   O72 5799   6.535   5.041   1.050  0.1211  0.0887  0.0720
   14CHTO  H199 5800   6.505   5.096   0.981  0.7296  0.1438 -0.1521
   14CHTO   O22 5801   6.582   5.217   1.539 -0.4451 -0.1287 -0.0355
   14CHTO   C31 5802   6.479   5.137   1.611  0.3060  0.2890  0.8268
   14CHTO   H59 5803   6.521   5.035   1.620 -2.4825 -0.9775  0.2606
   14CHTO   C29 5804   6.447   5.185   1.748  0.7858  0.0379 -0.5628
   14CHTO   H57 5805   6.440   5.294   1.735  1.5803  0.1773  0.1446
   14CHTO   O21 5806   6.560   5.158   1.834 -0.3272  0.3854  0.6097
   14CHTO   H37 5807   6.582   5.216   1.905  1.5881 -1.9517  2.0257
   14CHTO   C27 5808   6.308   5.126   1.815 -0.0233 -0.0627  0.0992
   14CHTO   H55 5809   6.318   5.024   1.854 -1.0027  0.3009  1.3327
   14CHTO    N5 5810   6.267   5.206   1.929 -0.5740  0.2642 -0.0162
   14CHTO   H43 5811   6.348   5.239   1.992  0.3169 -0.7893 -0.5959
   14CHTO   H44 5812   6.196   5.162   1.999 -0.0771 -1.9071 -0.8397
   14CHTO   C25 5813   6.187   5.113   1.707 -0.5719 -0.5984 -0.2457
   14CHTO   H53 5814   6.155   5.214   1.677  1.2152  0.8620  2.4954
   14CHTO   O17 5815   6.237   5.049   1.588  0.0184  0.5029 -0.2692
   14CHTO   C32 5816   6.349   5.113   1.522  0.2459 -0.2075 -0.5006
   14CHTO   H60 5817   6.322   5.211   1.483  1.0243 -0.3424 -1.3795
   14CHTO   C36 5818   6.370   5.027   1.395 -0.4074 -0.1988 -0.2273
   14CHTO   O25 5819   6.423   4.901   1.436 -0.6117  0.2013 -0.1992
   14CHTO   H40 5820   6.516   4.910   1.441 -0.5758  0.4449 -1.1357
   14CHTO   O15 5821   6.060   5.031   1.754  0.2484 -0.0493  0.2862
   14CHTO   C19 5822   5.918   5.047   1.790 -0.3877 -0.7742  0.7503
   14CHTO   H47 5823   5.868   5.030   1.693  2.2530 -1.0133 -0.6136
   14CHTO   C20 5824   5.875   4.927   1.884 -0.0121 -0.1748  0.2759
   14CHTO   H48 5825   5.937   4.919   1.974  1.0718  0.0905 -0.4375
   14CHTO   O19 5826   5.894   4.813   1.804 -0.0888 -0.0452  0.0992
   14CHTO   H35 5827   5.869   4.734   1.849  1.4334 -0.9724 -0.6425
   14CHTO   C21 5828   5.727   4.931   1.928 -0.2670 -0.1717 -0.2007
   14CHTO   H49 5829   5.657   4.911   1.848 -0.1144 -0.7504 -0.1880
   14CHTO    N4 5830   5.691   4.822   2.025  0.5806 -0.2346  0.2549
   14CHTO   H41 5831   5.673   4.732   1.967 -1.6121  0.4489 -0.1558
   14CHTO   H42 5832   5.599   4.846   2.077  0.1980 -2.3336  0.6303
   14CHTO   C22 5833   5.693   5.074   1.983  0.1857  0.3274  0.3608
   14CHTO   H50 5834   5.736   5.071   2.083 -0.7592  0.2887  0.7738
   14CHTO   O14 5835   5.739   5.177   1.888  0.1571  0.4686  0.4167
   14CHTO   C23 5836   5.877   5.182   1.846 -0.7227  0.2358 -0.7947
   14CHTO   H51 5837   5.937   5.212   1.933 -1.7845 -1.4263  0.5665
   14CHTO   C34 5838   5.892   5.294   1.748  0.6775  0.3728  0.2975
   14CHTO   O23 5839   5.887   5.427   1.809  0.4167 -0.0038 -0.1966
   14CHTO   H38 5840   5.807   5.435   1.857 -0.2922 -2.1664 -0.9508
   14CHTO   O16 5841   5.549   5.098   1.976  0.2144 -0.1882 -0.3051
   14CHTO   C24 5842   5.518   5.243   2.042  0.1919  0.7558  0.2730
   14CHTO   H52 5843   5.606   5.307   2.046  0.9745 -0.3511  0.9875
   14CHTO   C26 5844   5.475   5.232   2.188  0.1784  0.5841  0.4660
   14CHTO   H54 5845   5.380   5.175   2.191  1.3480 -1.3813  0.8212
   14CHTO   O20 5846   5.578   5.165   2.257 -0.4130 -0.0680 -0.0473
   14CHTO   H36 5847   5.543   5.139   2.340 -2.9337  1.0407 -0.7207
   14CHTO   C30 5848   5.456   5.377   2.247 -0.4479  0.0123 -0.4026
   14CHTO   H58 5849   5.552   5.429   2.252 -0.7757  0.6140 -0.3452
   14CHTO    N6 5850   5.409   5.369   2.390  0.3759  0.4661 -0.1787
   14CHTO   H45 5851   5.475   5.306   2.447 -1.4140 -1.3090 -0.0132
   14CHTO   H46 5852   5.307   5.341   2.409  1.2611 -1.1103  2.3965
   14CHTO   C33 5853   5.353   5.458   2.159 -0.7679  0.1784  0.5855
   14CHTO   H61 5854   5.254   5.414   2.178  0.2909 -3.4381 -1.6229
   14CHTO   O18 5855   5.385   5.453   2.019 -0.1013 -0.3282  0.0120
   14CHTO   C28 5856   5.403   5.322   1.962  0.4402  0.5640 -0.1108
   14CHTO   H56 5857   5.308   5.268   1.967  1.5311 -1.5058 -0.9474
   14CHTO   C35 5858   5.424   5.340   1.814 -0.3102  0.1026  0.0732
   14CHTO   O24 5859   5.544   5.410   1.784 -0.0951  0.4549 -0.3426
   14CHTO   H39 5860   5.544   5.426   1.692 -1.8909 -2.8694 -0.9740
   14CHTO    O9 5861   5.350   5.594   2.207  0.6659 -0.2213  0.4864
   14CHTO   C13 5862   5.188   5.666   2.199 -0.3942 -0.7609  0.5069
   14CHTO   H26 5863   5.133   5.607   2.122  2.5222 -1.3708 -1.1996
   14CHTO   C11 5864   5.194   5.816   2.166 -0.3251  0.5124 -0.1516
   14CHTO   H24 5865   5.246   5.810   2.069  1.1114  0.2097  0.6149
   14CHTO    O8 5866   5.288   5.883   2.254  0.0792 -0.3669 -0.0644
   14CHTO    H3 5867   5.262   5.884   2.345 -0.9401 -0.5321 -0.3490
   14CHTO    C9 5868   5.044   5.865   2.164 -0.5392  1.0226 -1.0677
   14CHTO   H22 5869   4.992   5.813   2.082  0.3562  2.8343 -2.8409
   14CHTO    N2 5870   5.038   6.008   2.127 -0.0001  0.5856  0.3815
   14CHTO   H10 5871   5.008   6.062   2.216 -0.0483 -0.4227  0.9935
   14CHTO   H11 5872   4.962   6.014   2.050  0.1890 -0.0034  0.1441
   14CHTO    C7 5873   4.970   5.837   2.297  0.2240 -0.4082  0.0701
   14CHTO   H20 5874   4.860   5.844   2.284  0.4728  0.3956 -1.7526
   14CHTO    O4 5875   4.982   5.702   2.353 -0.6940  0.1710 -0.4440
   14CHTO   C14 5876   5.112   5.637   2.340 -0.6032  0.0866  0.1280
   14CHTO   H27 5877   5.083   5.530   2.336  0.7379 -0.3309  1.0820
   14CHTO   C18 5878   5.183   5.659   2.472 -0.2244  0.1027  0.0700
   14CHTO   O13 5879   5.122   5.582   2.574  0.0205 -0.0285 -0.0030
   14CHTO    H7 5880   5.087   5.634   2.644  2.0438  0.4530  0.6818
   14CHTO    O2 5881   5.011   5.957   2.413 -0.1196  0.2152  0.2668
   14CHTO    C1 5882   4.909   6.003   2.498  0.3555  0.3238  0.0901
   14CHTO   H14 5883   4.838   5.920   2.515  0.1964  0.5355  0.4497
   14CHTO    C2 5884   4.827   6.128   2.454  0.0760 -0.4178 -0.9594
   14CHTO   H15 5885   4.902   6.201   2.420  0.1443 -0.1081 -0.1467
   14CHTO    O6 5886   4.750   6.088   2.331  0.2072  0.2346 -0.2941
   14CHTO    H1 5887   4.694   6.161   2.312 -1.8417 -1.0877  0.4756
   14CHTO    C3 5888   4.725   6.184   2.570 -0.2278 -0.3981  0.0552
   14CHTO   H16 5889   4.646   6.108   2.579 -1.2312  0.5579 -0.4552
   14CHTO    N1 5890   4.676   6.322   2.539  0.1142 -0.1330 -0.0303
   14CHTO    H8 5891   4.689   6.395   2.617 -2.9065 -1.1935  1.5973
   14CHTO    H9 5892   4.585   6.321   2.481 -0.0638 -0.9251  0.2412
   14CHTO    C4 5893   4.794   6.188   2.714 -0.8028  0.0878  0.2813
   14CHTO   H17 5894   4.863   6.272   2.719 -1.8050  1.0039 -0.9752
   14CHTO    O1 5895   4.861   6.069   2.737 -1.0132 -0.4215  0.6987
   14CHTO    C5 5896   4.965   6.029   2.643  0.6640  0.0103  0.1046
   14CHTO   H18 5897   5.036   6.110   2.627 -0.0380  1.1004  2.1933
   14CHTO   C16 5898   5.047   5.907   2.701 -0.6709  0.1479  0.1123
   14CHTO   O11 5899   4.968   5.792   2.733  0.3386 -0.2538 -0.4413
   14CHTO    H5 5900   4.883   5.815   2.762  0.5359 -1.0417  0.7611
   14CHTO    O3 5901   4.695   6.202   2.811  0.3679  0.7264  0.4965
   14CHTO    C6 5902   4.724   6.203   2.956 -0.1706  0.0884 -0.9757
   14CHTO   H19 5903   4.824   6.169   2.983 -0.1727  2.2389  1.9193
   14CHTO    C8 5904   4.717   6.358   3.001  0.1161 -0.1761  0.4899
   14CHTO   H21 5905   4.635   6.413   2.954  0.3635  0.1858  0.4827
   14CHTO    O7 5906   4.837   6.413   2.951 -0.4271 -0.7236 -0.1054
   14CHTO    H2 5907   4.916   6.382   2.991 -0.6716 -2.5475 -1.0044
   14CHTO   C12 5908   4.704   6.385   3.161  0.3508  0.2306  0.1390
   14CHTO   H25 5909   4.799   6.354   3.209 -0.4927 -0.1505  1.5969
   14CHTO    N3 5910   4.677   6.530   3.190  0.1748 -0.3121 -0.2318
   14CHTO   H12 5911   4.601   6.549   3.264  0.1145  2.3788 -0.9332
   14CHTO   H13 5912   4.681   6.592   3.101  0.8267 -0.1779 -0.1148
   14CHTO   C15 5913   4.597   6.283   3.208  0.2551 -0.0911 -0.3801
   14CHTO   H28 5914   4.496   6.299   3.171 -0.1259 -1.3721  0.0959
   14CHTO   O10 5915   4.609   6.275   3.366 -0.3656 -0.6432  0.0326
   14CHTO    H4 5916   4.582   6.361   3.394 -0.1468  0.6875 -3.6291
   14CHTO    O5 5917   4.628   6.144   3.173  0.2508 -0.1338  0.4397
   14CHTO   C10 5918   4.623   6.116   3.033 -0.1639 -0.1374 -0.0759
   14CHTO   H23 5919   4.521   6.137   2.999  0.0679 -0.2424 -0.8437
   14CHTO   C17 5920   4.636   5.964   3.007  0.4912  0.4715  0.0767
   14CHTO   O12 5921   4.753   5.914   3.065 -0.0050 -0.1189  0.5686
   14CHTO    H6 5922   4.766   5.957   3.148 -0.2415 -0.0717  0.5822
   15CHTO  H203 5923   5.991   4.168   2.098 -0.9395 -0.5885 -1.0865
   15CHTO   O82 5924   6.029   4.090   2.133  0.1943  0.2955 -0.3097
   15CHTO  C123 5925   6.061   4.001   2.026  0.6322  0.0803 -0.5248
   15CHTO  H227 5926   6.099   3.907   2.069 -0.5230  0.8111  2.2493
   15CHTO   O77 5927   5.933   3.970   1.972 -0.5557 -0.1114 -0.1407
   15CHTO  C118 5928   5.924   3.877   1.867 -0.1996 -0.7350 -0.0631
   15CHTO  H222 5929   5.955   3.780   1.909 -0.1828 -0.5792  0.2903
   15CHTO  C125 5930   5.768   3.870   1.826  1.0027  0.0704  0.5222
   15CHTO   O84 5931   5.716   3.989   1.771 -0.1531  0.4341  0.5729
   15CHTO  H205 5932   5.715   3.985   1.677  3.6051  1.3226  0.4255
   15CHTO  C114 5933   6.009   3.921   1.746 -0.4148 -0.1181 -0.3582
   15CHTO  H218 5934   5.974   4.020   1.715 -0.1112 -0.0455 -0.4748
   15CHTO  C116 5935   6.163   3.953   1.789 -0.1764 -0.7144  0.2275
   15CHTO  H220 5936   6.217   3.860   1.817  0.3102  0.4685  3.3923
   15CHTO   O79 5937   6.226   4.004   1.670  0.5751  0.4770 -0.3865
   15CHTO  H201 5938   6.278   4.079   1.693  2.7847 -1.0590 -0.2311
   15CHTO  C120 5939   6.156   4.049   1.908 -0.0974  0.2519 -0.8926
   15CHTO  H224 5940   6.111   4.146   1.879 -1.3416  0.0047  0.1794
   15CHTO   N21 5941   6.292   4.074   1.965 -0.3952 -0.1882 -0.1137
   15CHTO  H211 5942   6.294   4.088   2.072 -0.5791  0.3243 -0.1744
   15CHTO  H212 5943   6.334   4.159   1.914 -0.6953  0.9191  1.4742
   15CHTO   O75 5944   5.991   3.816   1.649 -0.1712 -0.0838 -0.5010
   15CHTO  C112 5945   6.091   3.672   1.676  0.6430 -0.6969  0.3741
   15CHTO  H216 5946   6.129   3.670   1.779  1.3704 -4.6911  0.1056
   15CHTO   O73 5947   6.200   3.682   1.581  0.0047 -0.0950  0.0061
   15CHTO  C113 5948   6.284   3.567   1.579 -0.3135 -0.5419  0.2136
   15CHTO  H217 5949   6.308   3.545   1.686  0.4608 -0.7732 -0.0036
   15CHTO  C124 5950   6.417   3.586   1.493 -0.0365  0.1305  1.3282
   15CHTO   O83 5951   6.511   3.646   1.580 -0.0708  0.4054  0.3677
   15CHTO  H204 5952   6.546   3.584   1.642  1.9320  0.9356 -0.2078
   15CHTO  C109 5953   6.210   3.441   1.537 -0.5588 -0.3172  0.3099
   15CHTO  H213 5954   6.177   3.450   1.432  0.0412 -0.7667  0.0766
   15CHTO  C110 5955   6.084   3.418   1.616 -0.3352  0.3584  0.1547
   15CHTO  H214 5956   6.120   3.380   1.711  1.9522 -0.5753 -1.0367
   15CHTO   O78 5957   5.998   3.316   1.558  0.1677  0.0877 -0.7305
   15CHTO  H200 5958   5.916   3.305   1.601  0.3108  0.6669 -0.2990
   15CHTO  C111 5959   5.998   3.548   1.648  0.5014  0.1445 -0.2687
   15CHTO  H215 5960   5.941   3.573   1.557 -2.3584 -1.2169  1.0816
   15CHTO   N19 5961   5.895   3.537   1.759 -0.4847 -0.4967  0.1074
   15CHTO  H207 5962   5.924   3.461   1.830 -0.3751  0.5863  1.2431
   15CHTO  H208 5963   5.796   3.520   1.719 -1.7130  5.3723  0.0994
   15CHTO   O74 5964   6.301   3.327   1.544 -0.3608 -0.2476  0.8717
   15CHTO  C115 5965   6.271   3.209   1.439  0.2931  0.5925 -0.9476
   15CHTO  H219 5966   6.164   3.189   1.431  0.9538 -3.5007 -0.8049
   15CHTO   O76 5967   6.309   3.245   1.297 -0.2616  0.2485 -0.0338
   15CHTO  C122 5968   6.290   3.146   1.195  0.2511  0.3995  0.3850
   15CHTO  H226 5969   6.344   3.188   1.110  2.1407 -1.0693  0.8187
   15CHTO  C126 5970   6.137   3.137   1.139 -0.4433  0.1010 -0.0699
   15CHTO   O85 5971   6.037   3.171   1.238  0.0348  0.0846 -0.2367
   15CHTO  H206 5972   6.032   3.257   1.275 -1.7191 -0.2096  0.2450
   15CHTO  C121 5973   6.353   3.002   1.232  0.2454 -0.0055 -0.0028
   15CHTO  H225 5974   6.318   2.919   1.167  0.0521  2.0112 -2.5624
   15CHTO   O81 5975   6.495   3.009   1.219  0.2722  0.0497  0.2111
   15CHTO  H202 5976   6.536   2.926   1.205 -0.3356 -0.1104 -0.6254
   15CHTO  C119 5977   6.312   2.965   1.385 -0.2474  0.4675  0.1227
   15CHTO  H223 5978   6.203   2.957   1.378 -0.4281  3.2791 -0.9817
   15CHTO  C117 5979   6.343   3.080   1.487 -0.0024 -0.2440  0.1142
   15CHTO  H221 5980   6.449   3.100   1.505  0.0487 -1.2934  1.0141
   15CHTO   N20 5981   6.291   3.030   1.617  0.2134 -0.4831  0.0774
   15CHTO  H209 5982   6.209   3.094   1.646 -0.3169 -0.5687 -1.2119
   15CHTO  H210 5983   6.278   2.923   1.629 -0.3486 -0.5984 -1.4536
   15CHTO   O80 5984   6.364   2.797   1.420 -0.1568  0.1401 -0.5963
   15CHTO  C103 5985   6.273   2.685   1.417 -0.2722  0.5959  0.6079
   15CHTO  H190 5986   6.277   2.629   1.510 -0.5885 -3.7377 -1.8794
   15CHTO  C101 5987   6.119   2.692   1.371 -0.5781 -0.4939 -0.6209
   15CHTO  H188 5988   6.113   2.748   1.277 -0.4810  0.8518  0.1616
   15CHTO   O68 5989   6.036   2.775   1.461  0.3231 -0.4022 -0.0201
   15CHTO  H168 5990   6.092   2.829   1.513  1.0714  0.3594 -1.5836
   15CHTO   C99 5991   6.051   2.546   1.343 -0.9883  0.8580  0.0261
   15CHTO  H186 5992   6.049   2.484   1.436 -1.8398  0.2572 -0.3851
   15CHTO   N17 5993   5.907   2.557   1.298 -0.0678 -0.4780  0.4779
   15CHTO  H174 5994   5.911   2.557   1.190  1.4791  0.9579  0.5258
   15CHTO  H175 5995   5.860   2.648   1.330  1.2841  0.2552  0.3951
   15CHTO   C97 5996   6.149   2.464   1.254 -0.4093  0.7323 -0.1009
   15CHTO  H184 5997   6.149   2.511   1.154 -0.5909  1.1690  0.1061
   15CHTO   O64 5998   6.284   2.457   1.310  0.5835  0.3955 -0.0258
   15CHTO  C104 5999   6.344   2.591   1.310  0.1517  0.2428  0.2343
   15CHTO  H191 6000   6.339   2.636   1.211  1.5097 -0.2207 -0.0566
   15CHTO  C108 6001   6.493   2.559   1.337 -0.0462 -0.6561 -0.2865
   15CHTO   O71 6002   6.578   2.673   1.329  0.2001  0.2321  0.0129
   15CHTO  H171 6003   6.635   2.667   1.255 -1.3590  1.8195 -1.3629
   15CHTO   O62 6004   6.109   2.323   1.246 -0.3245 -0.2696  0.3580
   15CHTO   C91 6005   6.183   2.232   1.171 -0.0300  0.2349  0.3306
   15CHTO  H178 6006   6.267   2.281   1.123 -0.6456 -1.8399 -3.0465
   15CHTO   C92 6007   6.083   2.183   1.062 -0.0232  0.7453 -0.4546
   15CHTO  H179 6008   6.015   2.264   1.034  1.5517  3.1780  2.5279
   15CHTO   O66 6009   6.158   2.156   0.946 -0.0853 -0.4030  0.3075
   15CHTO  H166 6010   6.104   2.171   0.871 -0.8669  0.5855  1.0531
   15CHTO   C93 6011   5.998   2.059   1.109  0.7499 -1.3051  0.7223
   15CHTO  H180 6012   5.945   2.017   1.022  0.2210 -1.3494  1.0706
   15CHTO   N16 6013   5.889   2.095   1.204 -0.0289 -0.5532  0.3592
   15CHTO  H172 6014   5.922   2.177   1.267 -0.6708 -0.5616  0.7036
   15CHTO  H173 6015   5.859   2.006   1.256 -0.3226  0.4213  1.8928
   15CHTO   C94 6016   6.092   1.941   1.173  0.4611  0.0214  0.1305
   15CHTO  H181 6017   6.055   1.902   1.268  0.3544  1.9716  0.9126
   15CHTO   O61 6018   6.226   1.994   1.191  0.5926  0.5875  0.6236
   15CHTO   C95 6019   6.240   2.113   1.259  0.8889 -0.5130 -0.0335
   15CHTO  H182 6020   6.194   2.101   1.357  0.9346  0.4555  0.1157
   15CHTO  C106 6021   6.396   2.112   1.276  0.0991  0.1734  0.3759
   15CHTO   O69 6022   6.443   2.218   1.364  0.1985  0.2105 -0.0438
   15CHTO  H169 6023   6.522   2.248   1.323 -0.2672 -0.6785 -1.6327
   15CHTO   O63 6024   6.106   1.820   1.067  0.0273 -0.0963  0.5004
   15CHTO   C96 6025   6.115   1.678   1.149  0.1670 -0.2299  0.3128
   15CHTO  H183 6026   6.103   1.691   1.256  0.6844  2.4476  0.0827
   15CHTO   C98 6027   6.259   1.610   1.131  0.1808  0.2795 -0.4567
   15CHTO  H185 6028   6.282   1.588   1.026  0.8926  0.7055 -0.3916
   15CHTO   O67 6029   6.358   1.703   1.174  0.2591  0.5741 -0.6934
   15CHTO  H167 6030   6.346   1.734   1.262 -2.1199  1.6929 -1.3755
   15CHTO  C102 6031   6.253   1.473   1.221  0.1403 -0.1935  0.0851
   15CHTO  H189 6032   6.266   1.506   1.325  0.8652 -0.1604 -0.0159
   15CHTO   N18 6033   6.376   1.397   1.197 -0.2116  0.5183  0.2752
   15CHTO  H176 6034   6.364   1.321   1.121 -1.0549  2.4819 -1.5992
   15CHTO  H177 6035   6.460   1.458   1.167 -0.0752 -0.5297 -1.5734
   15CHTO  C105 6036   6.133   1.386   1.179  0.2263  0.1026 -0.2265
   15CHTO  H192 6037   6.140   1.357   1.074 -0.0265  0.6297 -0.3897
   15CHTO   O65 6038   6.007   1.458   1.205 -0.0091 -0.1014 -0.0884
   15CHTO  C100 6039   6.012   1.568   1.110 -0.2122  0.1252  0.7200
   15CHTO  H187 6040   6.040   1.537   1.008 -0.4909  1.8908  0.0811
   15CHTO  C107 6041   5.868   1.631   1.103  0.3743 -0.2901  0.1424
   15CHTO   O70 6042   5.829   1.708   1.221 -0.5310  0.1863 -0.3079
   15CHTO  H170 6043   5.882   1.784   1.235  1.1742 -0.8856 -0.7799
   15CHTO   O57 6044   6.128   1.244   1.278  0.2410 -1.0251  0.1504
   15CHTO   C85 6045   6.086   1.220   1.415 -0.0064 -0.6192  0.1231
   15CHTO  H157 6046   6.038   1.312   1.455  2.1864  0.7480 -0.3338
   15CHTO   C83 6047   6.205   1.183   1.517 -0.3166 -0.5655  0.2942
   15CHTO  H155 6048   6.268   1.269   1.538  2.3181 -3.2158  3.9305
   15CHTO   O56 6049   6.285   1.078   1.458  0.1017 -0.5653 -0.2559
   15CHTO  H135 6050   6.353   1.052   1.516  2.6024  1.0123 -2.3277
   15CHTO   C81 6051   6.137   1.139   1.645  0.1906  0.2220  0.0099
   15CHTO  H153 6052   6.068   1.218   1.676  2.2136  1.9848  0.1399
   15CHTO   N14 6053   6.223   1.107   1.759  0.2669 -0.4254  0.4008
   15CHTO  H141 6054   6.170   1.078   1.847  0.3082  0.3635  0.6856
   15CHTO  H142 6055   6.284   1.027   1.722 -1.0951 -0.8508 -0.9724
   15CHTO   C79 6056   6.042   1.011   1.625  0.4832  0.4166  0.0962
   15CHTO  H151 6057   5.994   0.997   1.721 -0.1054  1.3566 -0.0603
   15CHTO   O52 6058   5.927   1.059   1.542 -0.3866  0.4900  0.6151
   15CHTO   C86 6059   5.986   1.098   1.410  0.6300 -0.1583 -0.2688
   15CHTO  H158 6060   6.043   1.008   1.379  0.7378 -0.3008  0.3438
   15CHTO   C90 6061   5.862   1.111   1.311 -0.1570 -0.1277 -0.0192
   15CHTO   O60 6062   5.802   0.991   1.261 -0.4608 -0.1957 -0.4477
   15CHTO  H138 6063   5.746   0.959   1.329 -1.1881 -1.8907 -1.8271
   15CHTO   O50 6064   6.111   0.894   1.587 -0.2743 -0.4175  0.0033
   15CHTO   C73 6065   6.144   0.755   1.595  0.2419 -0.7039  0.6063
   15CHTO  H145 6066   6.048   0.714   1.632 -0.2034 -0.3967 -0.1943
   15CHTO   C74 6067   6.256   0.720   1.698  0.0454  0.4831  0.3124
   15CHTO  H146 6068   6.231   0.772   1.792 -0.8312  1.1444 -0.2770
   15CHTO   O54 6069   6.248   0.576   1.709 -0.5255 -0.2497  0.7626
   15CHTO  H133 6070   6.329   0.547   1.746 -0.2812 -0.3918  0.1310
   15CHTO   C75 6071   6.387   0.780   1.633 -0.3684  0.2809  0.1882
   15CHTO  H147 6072   6.375   0.889   1.625  1.8199  0.5563  0.3968
   15CHTO   N13 6073   6.507   0.748   1.716  0.2116 -0.0769 -0.0324
   15CHTO  H139 6074   6.592   0.698   1.672 -0.3051 -0.3844 -0.6940
   15CHTO  H140 6075   6.536   0.824   1.787 -1.0605 -0.4715  0.9198
   15CHTO   C76 6076   6.410   0.726   1.480  0.5040  0.4394  0.1166
   15CHTO  H148 6077   6.415   0.617   1.480 -0.2906  0.4008  0.3512
   15CHTO   O49 6078   6.294   0.757   1.394  0.4059 -0.1469 -0.3254
   15CHTO   C77 6079   6.174   0.705   1.453  0.4392 -0.4704  0.7748
   15CHTO  H149 6080   6.188   0.597   1.460 -1.1195 -0.7181  0.3017
   15CHTO   C88 6081   6.047   0.720   1.372  0.0065  0.1234  0.1235
   15CHTO   O58 6082   6.025   0.653   1.252  0.5874  0.0837  0.0844
   15CHTO  H136 6083   6.026   0.561   1.266 -0.0351 -0.1410 -1.2444
   15CHTO   O51 6084   6.538   0.807   1.411 -0.7035  0.1066  0.5227
   15CHTO   C78 6085   6.560   0.806   1.243 -0.0161  0.1824 -0.1218
   15CHTO  H150 6086   6.472   0.848   1.190 -0.2424 -0.3090 -0.1429
   15CHTO   C80 6087   6.581   0.661   1.195  0.2813 -0.9878 -0.2176
   15CHTO  H152 6088   6.653   0.609   1.262  2.2269 -0.4386 -1.8060
   15CHTO   O55 6089   6.448   0.607   1.204 -0.0686 -0.0834 -0.1602
   15CHTO  H134 6090   6.462   0.515   1.214 -2.0810 -0.3420  0.5933
   15CHTO   C84 6091   6.623   0.657   1.044  0.6925 -0.9148  0.5182
   15CHTO  H156 6092   6.542   0.691   0.978  0.9274 -0.1140  0.6293
   15CHTO   N15 6093   6.632   0.510   0.996  0.0791  0.0633 -0.1322
   15CHTO  H143 6094   6.664   0.498   0.895  2.1863  0.5149  0.4535
   15CHTO  H144 6095   6.540   0.459   1.011  1.2993 -2.8679 -2.1960
   15CHTO   C87 6096   6.748   0.745   1.020  0.2920 -1.2982  0.4341
   15CHTO  H159 6097   6.835   0.713   1.076 -0.6867 -0.2892  2.6002
   15CHTO   O53 6098   6.712   0.892   1.065  0.1417  0.1029  0.0960
   15CHTO   C82 6099   6.673   0.903   1.205  0.5648 -0.4280  0.2208
   15CHTO  H154 6100   6.761   0.885   1.266 -0.7830  0.1990  2.3888
   15CHTO   C89 6101   6.624   1.050   1.230 -0.8583  0.1865  0.6035
   15CHTO   O59 6102   6.743   1.140   1.226  0.0959 -0.0314  0.8939
   15CHTO  H137 6103   6.721   1.209   1.285 -0.8693  0.0482  0.4455
   15CHTO   O45 6104   6.778   0.743   0.860  0.2140  0.3336  0.3726
   15CHTO   C67 6105   6.871   0.845   0.820  0.2388  1.0953 -0.5000
   15CHTO  H124 6106   6.869   0.920   0.899  2.4215 -1.0547  1.6943
   15CHTO   C65 6107   7.016   0.788   0.799  0.2284 -0.5865 -0.3252
   15CHTO  H122 6108   7.020   0.680   0.786  2.0720 -0.5648 -0.0629
   15CHTO   O44 6109   7.083   0.823   0.925 -0.5808  0.0561 -0.2378
   15CHTO  H102 6110   7.072   0.916   0.931 -0.7061 -0.0753  1.7824
   15CHTO   C63 6111   7.085   0.845   0.662  0.3231  0.8129 -0.6696
   15CHTO  H120 6112   7.044   0.795   0.574  1.4250 -0.1100 -0.6573
   15CHTO   N11 6113   7.229   0.814   0.639  0.2356 -0.3460 -0.5216
   15CHTO  H108 6114   7.292   0.877   0.697 -0.4647  0.4575 -0.6163
   15CHTO  H109 6115   7.247   0.711   0.660  0.2756  0.0983  1.7286
   15CHTO   C61 6116   7.052   1.003   0.653 -0.2175  0.2473  0.5083
   15CHTO  H118 6117   7.079   1.035   0.551  0.2930 -1.0726  0.2289
   15CHTO   O40 6118   6.912   1.029   0.665 -0.3529 -0.1766 -0.1133
   15CHTO   C68 6119   6.826   0.919   0.688  1.0932 -0.4775 -0.2539
   15CHTO  H125 6120   6.827   0.856   0.597  0.1563  0.8546 -1.1917
   15CHTO   C72 6121   6.688   0.978   0.703  0.0908  0.0442  0.2385
   15CHTO   O48 6122   6.588   0.880   0.710 -0.6978 -1.0845  0.1217
   15CHTO  H105 6123   6.550   0.864   0.626 -0.2631  3.2372 -1.0258
   15CHTO   O38 6124   7.127   1.085   0.742 -0.4609  0.8335 -0.0126
   15CHTO   C55 6125   7.128   1.228   0.707  0.1456 -0.2198  0.6177
   15CHTO  H112 6126   7.064   1.251   0.620 -0.4203  2.1428  1.6101
   15CHTO   C56 6127   7.275   1.281   0.682  0.4210 -0.3482 -0.4731
   15CHTO  H113 6128   7.335   1.265   0.773  1.5692  1.1647 -0.9316
   15CHTO   O42 6129   7.342   1.201   0.588 -0.4859 -0.0952 -0.4637
   15CHTO  H100 6130   7.313   1.112   0.590 -0.0889 -0.2735 -1.8555
   15CHTO   C57 6131   7.279   1.434   0.642 -0.1204 -0.2726 -0.0513
   15CHTO  H114 6132   7.237   1.445   0.542  0.6443  0.0486 -0.3358
   15CHTO   N10 6133   7.416   1.492   0.614  0.1672 -0.0509  0.0356
   15CHTO  H106 6134   7.431   1.486   0.507 -1.6099 -1.1532 -0.1649
   15CHTO  H107 6135   7.502   1.446   0.662  0.8648 -0.9929 -2.0570
   15CHTO   C58 6136   7.190   1.519   0.741  0.5182  0.4664  0.4158
   15CHTO  H115 6137   7.244   1.530   0.837  2.2381 -0.2111 -0.4502
   15CHTO   O37 6138   7.059   1.452   0.761 -0.3244  0.2234 -0.4243
   15CHTO   C59 6139   7.070   1.320   0.817  0.1596  0.3862  0.4752
   15CHTO  H116 6140   7.134   1.328   0.905  0.7176 -0.4026  0.1514
   15CHTO   C70 6141   6.932   1.270   0.862  0.5298 -0.6392  0.1108
   15CHTO   O46 6142   6.940   1.169   0.961  0.3038 -0.1503 -0.6285
   15CHTO  H103 6143   6.936   1.089   0.913  1.8288 -0.3635 -0.4458
   15CHTO   O39 6144   7.151   1.669   0.676 -0.1788  0.2407  0.4191
   15CHTO   C60 6145   7.066   1.749   0.760  0.3327 -0.2344 -0.0664
   15CHTO  H117 6146   6.971   1.699   0.779 -0.6600  1.2233 -1.1517
   15CHTO   C62 6147   7.119   1.794   0.899 -0.2330 -0.2121  0.2368
   15CHTO  H119 6148   7.159   1.701   0.944 -1.9552 -1.8508 -1.5059
   15CHTO   O43 6149   7.232   1.876   0.904 -0.9842  0.1453  0.9638
   15CHTO  H101 6150   7.278   1.883   0.822  0.9557 -0.1011  2.0015
   15CHTO   C66 6151   6.995   1.844   0.986 -0.1203  0.0854  0.7638
   15CHTO  H123 6152   6.914   1.772   0.972  1.8664 -1.8760 -0.9686
   15CHTO   N12 6153   7.019   1.853   1.130 -0.0661 -0.2746  0.1445
   15CHTO  H110 6154   7.038   1.951   1.172  2.1889 -1.2149  1.4030
   15CHTO  H111 6155   6.941   1.804   1.186 -0.9614 -0.8228 -1.5569
   15CHTO   C69 6156   6.955   1.980   0.924  0.3348  0.0330 -0.2137
   15CHTO  H126 6157   7.030   2.056   0.953  0.7663 -1.0433  1.5382
   15CHTO   O41 6158   6.939   1.973   0.768 -0.4240 -0.4413 -0.3144
   15CHTO   C64 6159   7.028   1.877   0.685  0.5938 -0.3728  0.2484
   15CHTO  H121 6160   7.121   1.929   0.654  2.2054 -3.0718  0.3458
   15CHTO   C71 6161   6.941   1.843   0.563 -0.3707  0.7113 -0.0937
   15CHTO   O47 6162   6.904   1.958   0.482 -0.2129 -0.3221  0.3374
   15CHTO  H104 6163   6.830   2.005   0.513  0.1295  1.8648 -2.0163
   15CHTO   O34 6164   6.836   2.025   0.977 -0.5617  0.7849 -0.4252
   15CHTO   C49 6165   6.682   2.041   0.989 -0.2839 -0.2049 -0.0708
   15CHTO   H91 6166   6.663   2.081   1.089 -2.1427  1.6952 -1.1441
   15CHTO   C47 6167   6.616   1.900   0.982 -0.5777 -0.4631  0.1494
   15CHTO   H89 6168   6.507   1.907   1.006 -0.9992 -1.0036 -1.5147
   15CHTO   O33 6169   6.678   1.822   1.090 -0.5446 -0.3882 -0.6645
   15CHTO   H70 6170   6.638   1.824   1.175  1.7852  0.5595  0.4438
   15CHTO   C45 6171   6.641   1.834   0.846  0.3119 -0.0177 -0.3519
   15CHTO   H87 6172   6.749   1.839   0.828  0.6478  2.2346  2.0426
   15CHTO    N8 6173   6.598   1.694   0.833 -0.5892 -0.7666  0.2030
   15CHTO   H75 6174   6.659   1.639   0.904  1.1159 -2.9761 -2.8147
   15CHTO   H76 6175   6.622   1.665   0.731 -1.4807 -0.0975 -0.2040
   15CHTO   C43 6176   6.576   1.935   0.735  0.3464 -0.3316 -0.1429
   15CHTO   H85 6177   6.608   1.897   0.638 -0.6470 -0.2403 -0.5050
   15CHTO   O29 6178   6.612   2.072   0.754  0.0259  0.3278 -0.2369
   15CHTO   C50 6179   6.621   2.131   0.886 -0.0867 -0.3134  1.1341
   15CHTO   H92 6180   6.679   2.222   0.867 -1.7367 -0.0970 -3.2868
   15CHTO   C54 6181   6.482   2.176   0.931  0.5819  0.4029  0.4210
   15CHTO   O36 6182   6.425   2.296   0.879  0.0002  0.1952 -0.4019
   15CHTO   H72 6183   6.337   2.304   0.910 -1.1666 -2.6654 -2.7804
   15CHTO   O27 6184   6.431   1.922   0.735  0.0489  0.4145  0.6424
   15CHTO   C37 6185   6.323   1.888   0.645 -0.5942  0.0157 -0.6822
   15CHTO   H79 6186   6.359   1.803   0.585 -0.9682  0.2758 -1.2895
   15CHTO   C38 6187   6.194   1.836   0.720 -0.0875 -0.3607 -0.0623
   15CHTO   H80 6188   6.156   1.923   0.776  0.3258 -0.1318 -0.1361
   15CHTO   O31 6189   6.236   1.725   0.801  0.3544  0.8789  0.4807
   15CHTO   H68 6190   6.293   1.668   0.754  1.1839  0.4772  1.9710
   15CHTO   C39 6191   6.079   1.807   0.619 -0.5482  0.0455  0.8171
   15CHTO   H81 6192   6.097   1.715   0.563  0.9395  0.3344  0.8065
   15CHTO    N7 6193   5.949   1.782   0.695  0.0737 -0.1892  0.0406
   15CHTO   H73 6194   5.930   1.857   0.770 -0.7863 -2.4212  2.1102
   15CHTO   H74 6195   5.948   1.686   0.744  2.6863 -0.6760 -0.7504
   15CHTO   C40 6196   6.064   1.938   0.527 -0.6748  0.3968  0.0744
   15CHTO   H82 6197   6.031   2.027   0.581 -0.7908 -0.2207  1.0440
   15CHTO   O26 6198   6.189   1.964   0.457  0.2922 -0.0902 -0.2504
   15CHTO   C41 6199   6.296   2.009   0.547  0.4577 -0.9248 -0.1918
   15CHTO   H83 6200   6.269   2.105   0.593  1.6357 -0.0651 -1.2401
   15CHTO   C52 6201   6.427   2.037   0.462  0.1055 -0.7218  0.1514
   15CHTO   O35 6202   6.403   2.148   0.378 -0.0361 -0.6199 -0.2204
   15CHTO   H71 6203   6.433   2.230   0.413  1.2769 -1.3613  0.4081
   15CHTO   O28 6204   5.966   1.920   0.419 -0.1433  0.2027  0.0522
   15CHTO   C42 6205   5.912   2.018   0.321 -0.2271  0.3975  0.2607
   15CHTO   H84 6206   5.868   1.958   0.240  1.2931  2.1137 -1.8891
   15CHTO   C44 6207   6.020   2.104   0.251 -0.8784 -0.6610 -0.1559
   15CHTO   H86 6208   6.071   2.167   0.324  0.0103  1.5219 -2.5802
   15CHTO   O32 6209   6.113   2.011   0.189  0.1454 -0.3399  0.0418
   15CHTO   H69 6210   6.182   1.980   0.246 -0.1410  1.0163  1.1475
   15CHTO   C48 6211   5.959   2.200   0.143  1.2857 -0.4277 -0.4017
   15CHTO   H90 6212   5.936   2.130   0.062  1.5736 -0.4958 -0.4239
   15CHTO    N9 6213   6.061   2.293   0.081 -0.5810 -0.4308 -0.3586
   15CHTO   H77 6214   6.030   2.342  -0.010 -1.3272  0.9049  0.5989
   15CHTO   H78 6215   6.148   2.232   0.064  1.7117  2.0052  2.0573
   15CHTO   C51 6216   5.822   2.268   0.190 -0.4172 -0.4108 -0.3628
   15CHTO   H93 6217   5.848   2.352   0.254 -0.1265 -0.9337  0.2163
   15CHTO   O30 6218   5.729   2.177   0.251  0.1025  0.4360 -0.5869
   15CHTO   C46 6219   5.794   2.103   0.375 -0.4792  0.0744  1.0277
   15CHTO   H88 6220   5.824   2.177   0.449 -0.4427  2.3608 -1.2490
   15CHTO   C53 6221   5.682   2.013   0.430 -0.2675 -0.9596 -0.1137
   15CHTO   O72 6222   5.576   2.090   0.480 -0.0051 -0.1129 -0.0319
   15CHTO  H199 6223   5.610   2.136   0.554  0.0995 -0.8348  0.3677
   15CHTO   O22 6224   5.747   2.303   0.065  0.2123  0.1233 -0.3762
   15CHTO   C31 6225   5.677   2.434   0.054  0.2905 -0.5955 -0.0442
   15CHTO   H59 6226   5.616   2.428  -0.039  0.4233  0.1286 -0.1775
   15CHTO   C29 6227   5.577   2.457   0.169 -0.2243  0.4406 -0.0666
   15CHTO   H57 6228   5.635   2.440   0.260 -0.3421  1.7032  0.2581
   15CHTO   O21 6229   5.474   2.351   0.165 -0.0401 -0.1653  0.2077
   15CHTO   H37 6230   5.404   2.368   0.105 -0.2256  1.8954  0.9757
   15CHTO   C27 6231   5.518   2.610   0.169  0.1192  0.2566 -0.4194
   15CHTO   H55 6232   5.465   2.628   0.074  0.4201  1.1974 -0.4150
   15CHTO    N5 6233   5.416   2.628   0.277 -0.2512 -0.2931  0.7795
   15CHTO   H43 6234   5.437   2.596   0.378  1.6427  2.5906  1.3757
   15CHTO   H44 6235   5.320   2.604   0.234  0.4809 -1.0160 -0.4595
   15CHTO   C25 6236   5.638   2.710   0.171  0.4314 -0.0503  0.0707
   15CHTO   H53 6237   5.695   2.689   0.264  1.0670 -0.5239 -0.4228
   15CHTO   O17 6238   5.708   2.683   0.047 -0.4269 -0.0838  0.5642
   15CHTO   C32 6239   5.775   2.557   0.037 -0.2716  0.2234  0.4808
   15CHTO   H60 6240   5.863   2.539   0.098  0.5582 -1.1790 -1.0810
   15CHTO   C36 6241   5.834   2.568  -0.114  0.3391  0.7802  0.0984
   15CHTO   O25 6242   5.953   2.649  -0.130  0.2319 -0.4889 -0.1003
   15CHTO   H40 6243   6.015   2.585  -0.161  0.0412 -0.5652 -0.3288
   15CHTO   O15 6244   5.602   2.867   0.173 -0.1220  0.5158  0.2592
   15CHTO   C19 6245   5.673   2.963   0.263 -0.3203  0.5805  0.6245
   15CHTO   H47 6246   5.632   3.060   0.233  0.6418  0.3030 -1.6708
   15CHTO   C20 6247   5.658   2.940   0.420 -0.3763  0.6628 -0.4171
   15CHTO   H48 6248   5.702   2.843   0.450  0.5679  0.9907 -0.7120
   15CHTO   O19 6249   5.519   2.935   0.449 -0.2171 -0.3932 -0.4739
   15CHTO   H35 6250   5.514   2.916   0.541  0.6161  1.7050  0.0304
   15CHTO   C21 6251   5.733   3.054   0.501 -0.7707  0.0765  0.2300
   15CHTO   H49 6252   5.683   3.147   0.476  0.8161  1.0735  0.7338
   15CHTO    N4 6253   5.730   3.029   0.646 -0.3638  0.4874  0.1523
   15CHTO   H41 6254   5.701   2.927   0.667  2.1386 -0.3895 -0.4969
   15CHTO   H42 6255   5.662   3.097   0.696 -0.7845  0.7668 -0.7912
   15CHTO   C22 6256   5.878   3.063   0.450 -0.0415 -0.0757 -0.1357
   15CHTO   H50 6257   5.930   2.968   0.460  0.4416  0.2617  0.5783
   15CHTO   O14 6258   5.884   3.091   0.309 -0.5358 -0.4508  0.0153
   15CHTO   C23 6259   5.827   2.982   0.231  0.5574  0.3178  0.4793
   15CHTO   H51 6260   5.887   2.892   0.254  1.5704  0.5018 -1.3250
   15CHTO   C34 6261   5.852   3.027   0.080 -0.0849 -0.2085 -0.9783
   15CHTO   O23 6262   5.981   3.062   0.046 -0.0913 -0.2610  0.0661
   15CHTO   H38 6263   5.987   3.117  -0.029 -1.3283  0.6731  0.6410
   15CHTO   O16 6264   5.960   3.166   0.507  0.4133  0.1173  0.1659
   15CHTO   C24 6265   6.057   3.146   0.632 -0.6071  0.4698 -0.6972
   15CHTO   H52 6266   6.018   3.073   0.703  2.8736  0.5201  1.3644
   15CHTO   C26 6267   6.078   3.281   0.696  0.6167  0.6333 -0.2341
   15CHTO   H54 6268   6.072   3.356   0.614 -0.1637 -0.4386 -1.1626
   15CHTO   O20 6269   5.960   3.313   0.777 -0.1195  0.3545  0.3301
   15CHTO   H36 6270   5.933   3.397   0.748 -0.8482  0.0568  0.1418
   15CHTO   C30 6271   6.208   3.311   0.783 -0.0092 -0.1980 -0.4983
   15CHTO   H58 6272   6.211   3.271   0.886 -1.1425  1.2047  0.0921
   15CHTO    N6 6273   6.229   3.458   0.802 -0.7199 -0.0125  0.1707
   15CHTO   H45 6274   6.240   3.520   0.714  1.6831  1.5044  1.4745
   15CHTO   H46 6275   6.169   3.507   0.878 -0.3232  0.2347  0.3256
   15CHTO   C33 6276   6.328   3.238   0.721 -0.1572  0.4255  0.2341
   15CHTO   H61 6277   6.354   3.280   0.622 -0.9448  0.4473  0.0323
   15CHTO   O18 6278   6.286   3.099   0.701 -0.1384 -0.9812 -0.2187
   15CHTO   C28 6279   6.191   3.088   0.595  0.0643 -0.0365 -0.2847
   15CHTO   H56 6280   6.231   3.132   0.503  2.9378 -0.1246  0.8810
   15CHTO   C35 6281   6.191   2.939   0.555  0.1627  0.5929  0.4556
   15CHTO   O24 6282   6.313   2.893   0.509 -0.1385  0.4372 -0.2037
   15CHTO   H39 6283   6.311   2.808   0.468  1.0601  2.6073 -5.1276
   15CHTO    O9 6284   6.440   3.251   0.808 -0.3829 -0.2840 -0.0747
   15CHTO   C13 6285   6.586   3.231   0.744  0.0285 -0.1676 -0.4165
   15CHTO   H26 6286   6.581   3.292   0.651  1.4911 -0.2070 -0.5418
   15CHTO   C11 6287   6.605   3.076   0.712  0.1320  0.0415  0.8898
   15CHTO   H24 6288   6.537   3.046   0.631 -0.3385  0.9498  0.9404
   15CHTO    O8 6289   6.562   2.998   0.823 -0.1823 -0.0188  0.1448
   15CHTO    H3 6290   6.552   2.910   0.792  0.3499  0.2998 -0.9644
   15CHTO    C9 6291   6.749   3.053   0.664  0.3601 -0.4088 -0.3858
   15CHTO   H22 6292   6.771   3.137   0.597 -1.0691 -0.4443 -0.9228
   15CHTO    N2 6293   6.762   2.926   0.596 -0.2436 -0.3495  0.3105
   15CHTO   H10 6294   6.686   2.912   0.520 -0.0064  0.3112 -0.0456
   15CHTO   H11 6295   6.863   2.902   0.567 -0.7669 -0.0271 -1.8453
   15CHTO    C7 6296   6.848   3.075   0.784  0.1543 -0.0165  0.0961
   15CHTO   H20 6297   6.944   3.088   0.729 -0.7910  3.0177 -0.9194
   15CHTO    O4 6298   6.810   3.190   0.865 -0.1213  0.2537 -0.5200
   15CHTO   C14 6299   6.705   3.285   0.842 -0.1917 -0.2316 -0.2528
   15CHTO   H27 6300   6.752   3.367   0.784 -0.5520  0.1155 -0.0552
   15CHTO   C18 6301   6.658   3.347   0.978  0.1691 -0.6709 -0.6693
   15CHTO   O13 6302   6.622   3.247   1.065  0.1906 -0.0182  0.5247
   15CHTO    H7 6303   6.699   3.194   1.071  1.3856  1.7238  0.8995
   15CHTO    O2 6304   6.865   2.956   0.879  0.4446 -1.0087 -0.6014
   15CHTO    C1 6305   6.993   2.949   0.938 -0.2048  0.0460  0.5762
   15CHTO   H14 6306   7.038   3.050   0.932  0.8723 -0.5418 -1.7423
   15CHTO    C2 6307   7.092   2.851   0.870  0.7203 -0.4753  0.8605
   15CHTO   H15 6308   7.031   2.760   0.857 -0.3622  0.2394  0.8634
   15CHTO    O6 6309   7.118   2.894   0.735  0.5308  0.2872 -0.6416
   15CHTO    H1 6310   7.114   2.988   0.732 -4.1658  0.1434 -1.9801
   15CHTO    C3 6311   7.229   2.841   0.964 -0.5928  0.0736  0.2430
   15CHTO   H16 6312   7.284   2.935   0.952 -0.0381 -0.0943  1.4199
   15CHTO    N1 6313   7.319   2.727   0.910 -0.0957 -0.5377 -1.3513
   15CHTO    H8 6314   7.410   2.779   0.886  0.2819 -1.0946 -1.1457
   15CHTO    H9 6315   7.275   2.697   0.815  0.4471 -3.3802 -0.7625
   15CHTO    C4 6316   7.198   2.826   1.112  1.0129 -0.3403 -0.3876
   15CHTO   H17 6317   7.167   2.723   1.130  0.7866 -0.2117 -0.0430
   15CHTO    O1 6318   7.100   2.920   1.159 -0.4418  0.1028 -0.3226
   15CHTO    C5 6319   6.980   2.913   1.088  0.3289 -0.5008  0.1302
   15CHTO   H18 6320   6.945   2.811   1.100  0.1876 -0.2023  2.6137
   15CHTO   C16 6321   6.878   2.994   1.174  0.0770 -0.1234  0.3002
   15CHTO   O11 6322   6.904   3.136   1.198  0.2044 -0.2135  0.2613
   15CHTO    H5 6323   6.872   3.168   1.281  0.4300 -1.0711  0.6892
   15CHTO    O3 6324   7.316   2.854   1.186 -0.4304  0.0702  0.0271
   15CHTO    C6 6325   7.332   2.798   1.319  0.6690 -0.2079 -0.5618
   15CHTO   H19 6326   7.232   2.776   1.356  0.3255  0.5123 -1.0464
   15CHTO    C8 6327   7.427   2.672   1.316 -0.0640 -0.3407 -0.3101
   15CHTO   H21 6328   7.529   2.705   1.301 -0.6309  0.5992 -2.3208
   15CHTO    O7 6329   7.387   2.581   1.212  1.0866 -0.2429  0.0208
   15CHTO    H2 6330   7.431   2.592   1.129 -0.6683  0.5929 -0.8211
   15CHTO   C12 6331   7.436   2.612   1.457  0.0677  0.2332 -0.7047
   15CHTO   H25 6332   7.335   2.576   1.488  0.7975 -1.6015 -0.3606
   15CHTO    N3 6333   7.532   2.493   1.461 -0.2799 -0.1819  0.2402
   15CHTO   H12 6334   7.526   2.436   1.553  2.9498 -0.5141  0.3092
   15CHTO   H13 6335   7.633   2.520   1.433  0.3434  0.1648  2.6670
   15CHTO   C15 6336   7.485   2.720   1.553 -0.3219  0.7090 -0.7843
   15CHTO   H28 6337   7.593   2.735   1.543 -0.3456  0.4801 -1.3909
   15CHTO   O10 6338   7.449   2.694   1.709 -0.1973 -0.3188  0.8183
   15CHTO    H4 6339   7.495   2.618   1.738  2.4781  0.8588 -0.1833
   15CHTO    O5 6340   7.428   2.851   1.548 -0.5626 -0.3500 -0.0799
   15CHTO   C10 6341   7.398   2.908   1.418  0.3106  0.2210 -0.0133
   15CHTO   H23 6342   7.494   2.944   1.381  0.6851  1.1751  1.8183
   15CHTO   C17 6343   7.313   3.026   1.448  0.7115  0.5831 -0.3711
   15CHTO   O12 6344   7.312   3.110   1.338 -0.4867 -0.1482  0.4704
   15CHTO    H6 6345   7.233   3.161   1.333 -1.6990 -1.7660  2.1259
   16CHTO  H203 6346   5.432   2.261   0.705  1.0126 -1.6823 -1.1144
   16CHTO   O82 6347   5.457   2.342   0.666 -0.0316 -0.7794  0.0557
   16CHTO  C123 6348   5.570   2.396   0.743 -0.6642  0.5150  0.2227
   16CHTO  H227 6349   5.553   2.382   0.851 -0.6146  1.1529  0.3164
   16CHTO   O77 6350   5.684   2.305   0.712  0.1087  0.2914 -0.1760
   16CHTO  C118 6351   5.813   2.335   0.758 -0.0880 -0.2136  0.3928
   16CHTO  H222 6352   5.813   2.317   0.867  2.6657  1.2340  0.6698
   16CHTO  C125 6353   5.910   2.240   0.682 -0.1804  0.2991  0.4937
   16CHTO   O84 6354   5.924   2.116   0.756  0.3356 -0.1694  0.6903
   16CHTO  H205 6355   6.007   2.120   0.799  1.2645  1.3652 -1.1359
   16CHTO  C114 6356   5.850   2.479   0.737 -0.1608  0.3000 -0.4058
   16CHTO  H218 6357   5.885   2.499   0.636 -1.6549  1.0491 -0.7762
   16CHTO  C116 6358   5.742   2.580   0.772  0.6054  0.1296 -0.1840
   16CHTO  H220 6359   5.732   2.577   0.882  0.1104  1.1140 -0.1924
   16CHTO   O79 6360   5.791   2.713   0.748 -0.2853 -0.0189  0.2366
   16CHTO  H201 6361   5.754   2.773   0.810  1.9201  0.3338  1.2589
   16CHTO  C120 6362   5.608   2.539   0.709  0.5255 -0.2722  0.2067
   16CHTO  H224 6363   5.625   2.550   0.600  1.2582  0.8886  0.4328
   16CHTO   N21 6364   5.500   2.640   0.746 -0.5588  0.2608 -0.2148
   16CHTO  H211 6365   5.409   2.589   0.775  1.3334 -4.2815 -1.7814
   16CHTO  H212 6366   5.530   2.706   0.826  0.5539  0.9336 -1.1873
   16CHTO   O75 6367   5.965   2.492   0.822  0.1612  0.6086  0.3263
   16CHTO  C112 6368   6.076   2.596   0.777 -0.3845 -0.4244 -0.9303
   16CHTO  H216 6369   6.032   2.681   0.723 -1.3572 -1.0373 -1.1196
   16CHTO   O73 6370   6.176   2.528   0.699  0.3060 -0.0740 -0.2691
   16CHTO  C113 6371   6.296   2.593   0.664  0.3643  0.1973 -0.0263
   16CHTO  H217 6372   6.272   2.687   0.611 -1.0441 -0.2812 -0.2596
   16CHTO  C124 6373   6.374   2.503   0.571 -0.2004 -0.1915 -0.8755
   16CHTO   O83 6374   6.310   2.501   0.438  0.1826  0.2824  0.3804
   16CHTO  H204 6375   6.319   2.586   0.399  2.1667  0.9639  2.1906
   16CHTO  C109 6376   6.370   2.623   0.794 -0.9303 -0.6920  0.3281
   16CHTO  H213 6377   6.390   2.527   0.841  0.3888 -0.2740  0.6221
   16CHTO  C110 6378   6.285   2.724   0.863 -0.1779 -0.0429  0.0215
   16CHTO  H214 6379   6.277   2.812   0.800  1.7971 -0.1958 -0.4571
   16CHTO   O78 6380   6.357   2.767   0.975  0.6651 -0.1609  0.2287
   16CHTO  H200 6381   6.424   2.830   0.954 -0.0274  0.2532 -0.7995
   16CHTO  C111 6382   6.150   2.659   0.901  0.3174 -0.2401  0.6524
   16CHTO  H215 6383   6.165   2.568   0.961  0.0154 -0.0514  1.0192
   16CHTO   N19 6384   6.052   2.739   0.975 -0.7114 -0.0860 -0.1982
   16CHTO  H207 6385   6.098   2.760   1.071  1.2336 -0.3948 -1.0309
   16CHTO  H208 6386   5.955   2.693   0.976 -1.4627  1.4572 -0.2514
   16CHTO   O74 6387   6.503   2.685   0.757  0.8352  0.2480 -0.7312
   16CHTO  C115 6388   6.621   2.579   0.763 -0.1329 -0.8954 -0.9756
   16CHTO  H219 6389   6.586   2.478   0.782 -1.0945 -0.2375  0.9322
   16CHTO   O76 6390   6.703   2.585   0.633  0.2394  0.4427 -0.1880
   16CHTO  C122 6391   6.813   2.496   0.614 -0.0869 -0.5903 -0.0399
   16CHTO  H226 6392   6.876   2.530   0.532 -2.7787  2.7046 -0.8622
   16CHTO  C126 6393   6.734   2.372   0.563  0.6256  0.2654  0.1952
   16CHTO   O85 6394   6.812   2.266   0.503  0.6155 -0.4707  0.2191
   16CHTO  H206 6395   6.776   2.181   0.519  0.4124 -0.5616 -0.6877
   16CHTO  C121 6396   6.902   2.474   0.744  0.0972 -0.1486  0.0932
   16CHTO  H225 6397   6.954   2.376   0.747  0.3093 -0.0501 -0.4249
   16CHTO   O81 6398   7.012   2.564   0.731 -0.6400 -0.2418 -0.5283
   16CHTO  H202 6399   7.056   2.547   0.650  0.0117  0.4487 -0.3301
   16CHTO  C119 6400   6.829   2.487   0.886  0.6221 -0.0361  0.0714
   16CHTO  H223 6401   6.769   2.397   0.898  0.0489  0.3743  0.3273
   16CHTO  C117 6402   6.724   2.602   0.879  0.6693 -0.2312 -0.1957
   16CHTO  H221 6403   6.750   2.705   0.854 -0.1161 -0.1119 -0.5650
   16CHTO   N20 6404   6.655   2.611   1.014  0.1270  0.2722  0.0050
   16CHTO  H209 6405   6.579   2.688   1.022  0.1720  0.2138  1.0287
   16CHTO  H210 6406   6.725   2.598   1.094  0.1677 -1.5816 -0.3175
   16CHTO   O80 6407   6.928   2.487   1.032 -0.3536 -0.9254 -0.1995
   16CHTO  C103 6408   6.985   2.358   1.085 -0.2742  0.7734 -0.0970
   16CHTO  H190 6409   6.928   2.270   1.055 -1.3427  1.6383 -0.6739
   16CHTO  C101 6410   7.139   2.333   1.056 -0.2000  0.0180 -0.4706
   16CHTO  H188 6411   7.194   2.424   1.080  1.0969 -0.6527 -0.8694
   16CHTO   O68 6412   7.148   2.298   0.891  0.4510  0.4386 -0.0208
   16CHTO  H168 6413   7.115   2.373   0.848 -2.1463 -0.8737 -0.3896
   16CHTO   C99 6414   7.203   2.215   1.148 -0.1682 -0.1758 -0.5852
   16CHTO  H186 6415   7.177   2.113   1.112  1.5823 -1.6217  2.0864
   16CHTO   N17 6416   7.349   2.214   1.147 -0.5534 -0.1862 -0.3894
   16CHTO  H174 6417   7.390   2.168   1.058 -0.9918  1.7613 -1.6260
   16CHTO  H175 6418   7.375   2.155   1.234 -0.1525  1.0190  0.3102
   16CHTO   C97 6419   7.152   2.221   1.294 -0.2589  0.5618  0.1612
   16CHTO  H184 6420   7.216   2.296   1.343 -0.2006  0.0252  0.9345
   16CHTO   O64 6421   7.014   2.250   1.302  0.0639  0.2852  0.7806
   16CHTO  C104 6422   6.965   2.370   1.240  0.5620 -0.5666 -0.7221
   16CHTO  H191 6423   7.018   2.457   1.280  1.4413 -2.4408  2.3696
   16CHTO  C108 6424   6.814   2.391   1.271  0.1154 -0.5925 -0.1948
   16CHTO   O71 6425   6.792   2.373   1.408  0.2810 -0.0223 -0.3636
   16CHTO  H171 6426   6.699   2.369   1.417  0.3305  0.5162  0.4358
   16CHTO   O62 6427   7.167   2.107   1.379 -0.1695  0.1956  0.3579
   16CHTO   C91 6428   7.215   2.132   1.515 -0.4677  0.6047 -0.1866
   16CHTO  H178 6429   7.319   2.164   1.503  0.0191 -1.2971 -1.2864
   16CHTO   C92 6430   7.201   1.990   1.587 -0.1390  0.1863 -0.0378
   16CHTO  H179 6431   7.256   1.917   1.525  0.1224  1.8242 -1.7604
   16CHTO   O66 6432   7.278   2.007   1.709 -0.0750 -0.0835 -0.1988
   16CHTO  H166 6433   7.366   2.037   1.696 -1.2286  2.6365 -2.1995
   16CHTO   C93 6434   7.051   1.947   1.616  0.2137 -0.4219 -0.3369
   16CHTO  H180 6435   7.047   1.872   1.696  1.5031 -1.4636 -1.2345
   16CHTO   N16 6436   6.985   1.883   1.499  0.4658 -0.4747 -0.1762
   16CHTO  H172 6437   7.035   1.789   1.480 -0.1545 -0.7126 -0.6125
   16CHTO  H173 6438   6.880   1.863   1.510 -0.0611  1.9116 -0.5385
   16CHTO   C94 6439   6.976   2.075   1.667  0.1838 -0.8109  0.1932
   16CHTO  H181 6440   6.909   2.116   1.592  2.2129 -1.0964 -1.8418
   16CHTO   O61 6441   7.061   2.183   1.715 -0.4798  0.8604 -0.4657
   16CHTO   C95 6442   7.134   2.245   1.607 -0.1477  0.1209  0.2002
   16CHTO  H182 6443   7.060   2.299   1.547 -2.5666 -0.3587  2.6461
   16CHTO  C106 6444   7.221   2.364   1.662 -0.3025  0.7013 -0.0820
   16CHTO   O69 6445   7.345   2.328   1.739  0.9401 -0.4398 -0.0613
   16CHTO  H169 6446   7.384   2.254   1.699  0.0884 -2.1170  2.1094
   16CHTO   O63 6447   6.893   2.049   1.798 -0.0410 -0.1210  0.0271
   16CHTO   C96 6448   6.758   1.951   1.766 -0.7879 -0.5363  0.2254
   16CHTO  H183 6449   6.797   1.853   1.740 -0.4695  0.2273 -2.2630
   16CHTO   C98 6450   6.666   1.997   1.643  0.2984 -0.3947  0.6719
   16CHTO  H185 6451   6.732   2.039   1.566 -0.6095 -0.5839 -0.2158
   16CHTO   O67 6452   6.605   1.884   1.586 -0.1420 -0.0767 -0.3550
   16CHTO  H167 6453   6.587   1.901   1.496  0.6776  0.4070 -0.4356
   16CHTO  C102 6454   6.554   2.098   1.676  0.0189 -0.1566  0.1934
   16CHTO  H189 6455   6.496   2.113   1.584 -2.1253  1.2796  1.7471
   16CHTO   N18 6456   6.594   2.233   1.714 -0.0997  0.0942  0.0961
   16CHTO  H176 6457   6.698   2.226   1.742 -0.2222 -0.8193  0.3258
   16CHTO  H177 6458   6.591   2.301   1.630 -0.8866 -0.6096 -0.4503
   16CHTO  C105 6459   6.458   2.036   1.791 -0.3248  0.2104 -0.0041
   16CHTO  H192 6460   6.432   2.117   1.859 -0.8790  0.0976 -0.0831
   16CHTO   O65 6461   6.522   1.938   1.877 -0.0184  0.5065  0.5015
   16CHTO  C100 6462   6.667   1.956   1.902  0.6031  0.2046 -0.1376
   16CHTO  H187 6463   6.680   2.048   1.961  3.2589  0.4316 -1.0197
   16CHTO  C107 6464   6.718   1.849   1.995  0.4386  0.1892 -0.3525
   16CHTO   O70 6465   6.679   1.871   2.131 -0.0712 -0.5177 -0.2579
   16CHTO  H170 6466   6.586   1.867   2.136 -0.1842  0.9764 -0.7947
   16CHTO   O57 6467   6.333   1.968   1.720 -0.4092  0.5656  0.3034
   16CHTO   C85 6468   6.247   2.049   1.640  0.0899 -0.2209  0.2375
   16CHTO  H157 6469   6.302   2.086   1.551 -1.4627 -1.3052 -1.2359
   16CHTO   C83 6470   6.194   2.174   1.723 -0.4330 -0.5058  0.9637
   16CHTO  H155 6471   6.279   2.229   1.764  0.6998  0.4029 -2.3877
   16CHTO   O56 6472   6.127   2.128   1.840  0.6133 -0.2456 -0.5184
   16CHTO  H135 6473   6.079   2.195   1.885  3.6672  2.2743 -0.8239
   16CHTO   C81 6474   6.114   2.269   1.637  0.2884 -0.1345 -0.2084
   16CHTO  H153 6475   6.174   2.287   1.548 -1.6659  0.4019 -1.4657
   16CHTO   N14 6476   6.081   2.397   1.701  0.3382 -0.0444  0.7186
   16CHTO  H141 6477   6.167   2.459   1.710 -1.7036  2.6904  2.1693
   16CHTO  H142 6478   6.054   2.367   1.800  0.4696  0.8443  1.0324
   16CHTO   C79 6479   5.991   2.191   1.579  0.5055  0.1225  0.3170
   16CHTO  H151 6480   5.943   2.252   1.503 -1.1315 -1.1975  0.2622
   16CHTO   O52 6481   6.021   2.061   1.513  0.1566 -0.0112 -0.3345
   16CHTO   C86 6482   6.112   1.982   1.595  0.6313 -0.1174  0.4133
   16CHTO  H158 6483   6.043   1.961   1.680 -0.1489 -0.2164 -0.2351
   16CHTO   C90 6484   6.139   1.843   1.527  0.1841 -0.5107  0.0934
   16CHTO   O60 6485   6.021   1.768   1.513  0.0954 -0.5801  0.1058
   16CHTO  H138 6486   5.994   1.738   1.598 -0.2575  0.0625  0.2232
   16CHTO   O50 6487   5.882   2.184   1.672  0.1675  0.2310 -0.3592
   16CHTO   C73 6488   5.751   2.150   1.729 -0.8997  0.5385 -0.0241
   16CHTO  H145 6489   5.742   2.041   1.733  1.8650  0.2314 -0.8193
   16CHTO   C74 6490   5.651   2.199   1.623  0.5858  0.0233 -0.8327
   16CHTO  H146 6491   5.675   2.158   1.524 -3.1821 -1.7832 -1.0966
   16CHTO   O54 6492   5.525   2.141   1.666  0.7564  0.5046  0.2501
   16CHTO  H133 6493   5.455   2.182   1.619  0.3896  0.4698  0.7525
   16CHTO   C75 6494   5.651   2.363   1.621  0.4603  0.0218  0.3355
   16CHTO  H147 6495   5.748   2.394   1.579 -0.0759  1.7794  0.3573
   16CHTO   N13 6496   5.551   2.418   1.528 -0.5114  0.4559 -0.3361
   16CHTO  H139 6497   5.582   2.405   1.425  1.5857  2.3803  0.0120
   16CHTO  H140 6498   5.530   2.522   1.543  0.4266  0.7624 -1.0910
   16CHTO   C76 6499   5.636   2.428   1.766  0.5156  0.0896 -0.1311
   16CHTO  H148 6500   5.533   2.402   1.789  0.1976 -1.6391 -3.2567
   16CHTO   O49 6501   5.725   2.360   1.854 -0.0144  0.2414  0.5613
   16CHTO   C77 6502   5.713   2.217   1.868  0.0365  0.5465 -0.5036
   16CHTO  H149 6503   5.618   2.181   1.906  1.1341  0.2504  2.0846
   16CHTO   C88 6504   5.817   2.185   1.974 -0.9063  0.0283  0.3457
   16CHTO   O58 6505   5.797   2.246   2.106  0.2679  0.3062  0.5239
   16CHTO  H136 6506   5.807   2.339   2.103 -0.9305  0.4145 -0.6779
   16CHTO   O51 6507   5.683   2.572   1.763 -0.2908 -0.2100  0.3069
   16CHTO   C78 6508   5.672   2.643   1.892  0.4190  0.2067  0.2547
   16CHTO  H150 6509   5.655   2.567   1.971 -0.6911 -0.5248 -0.6679
   16CHTO   C80 6510   5.539   2.730   1.877 -0.8529  0.1794  0.1927
   16CHTO  H152 6511   5.549   2.778   1.777  2.9060 -0.6492  0.1233
   16CHTO   O55 6512   5.419   2.652   1.855 -0.4999 -0.1799 -1.2589
   16CHTO  H134 6513   5.365   2.637   1.930 -0.2371  2.7157 -0.4385
   16CHTO   C84 6514   5.519   2.839   1.991  0.5736  0.0109  0.0310
   16CHTO  H156 6515   5.498   2.776   2.078 -1.2587  0.0574 -0.3716
   16CHTO   N15 6516   5.403   2.926   1.977 -0.0355 -0.3414 -0.1154
   16CHTO  H143 6517   5.320   2.861   1.993  0.4180 -0.9108 -0.0674
   16CHTO  H144 6518   5.400   2.948   1.872  2.0784  0.8898  0.0419
   16CHTO   C87 6519   5.651   2.915   2.020  0.5758 -0.0163  0.1114
   16CHTO  H159 6520   5.664   2.976   1.931  0.6957  0.7191  0.6360
   16CHTO   O53 6521   5.761   2.814   2.037  0.1715 -0.0524 -0.0901
   16CHTO   C82 6522   5.790   2.739   1.924 -0.8690  0.1908 -0.1571
   16CHTO  H154 6523   5.809   2.796   1.833 -1.9623  2.7225  1.1648
   16CHTO   C89 6524   5.921   2.664   1.970 -0.5136  0.6077  0.6777
   16CHTO   O59 6525   6.033   2.744   2.006  0.1151  0.2927  0.8409
   16CHTO  H137 6526   5.993   2.820   2.044 -0.2681  2.0440 -2.8595
   16CHTO   O45 6527   5.653   3.010   2.166 -0.3556  0.2721  0.0267
   16CHTO   C67 6528   5.753   3.117   2.158  0.0446 -0.7475 -0.8941
   16CHTO  H124 6529   5.830   3.095   2.084 -0.1819  1.4137 -1.8330
   16CHTO   C65 6530   5.685   3.248   2.111 -0.1717 -0.2137 -0.0431
   16CHTO  H122 6531   5.585   3.241   2.154 -0.5900 -2.7971 -1.3228
   16CHTO   O44 6532   5.679   3.239   1.968 -0.6146 -0.3528 -0.0148
   16CHTO  H102 6533   5.591   3.216   1.948 -0.8816 -1.8943  2.6183
   16CHTO   C63 6534   5.751   3.379   2.185  0.3881  0.0301 -0.5575
   16CHTO  H120 6535   5.707   3.387   2.284  1.1215  2.8701 -0.4230
   16CHTO   N11 6536   5.705   3.511   2.128  0.1360  0.7789  0.4085
   16CHTO  H108 6537   5.770   3.541   2.048 -1.4953  0.3974 -1.1014
   16CHTO  H109 6538   5.607   3.492   2.090  1.0926  0.0665 -1.7559
   16CHTO   C61 6539   5.914   3.361   2.207 -0.7849  0.4526  0.2059
   16CHTO  H118 6540   5.955   3.448   2.261  2.0115 -1.8690  1.9118
   16CHTO   O40 6541   5.933   3.242   2.291  0.2938  0.4774  0.1914
   16CHTO   C68 6542   5.825   3.145   2.301  0.0314 -0.2701 -0.1332
   16CHTO  H125 6543   5.754   3.188   2.374 -0.7221  0.8841 -1.5178
   16CHTO   C72 6544   5.884   3.015   2.361 -0.0258 -0.4244 -0.2007
   16CHTO   O48 6545   5.978   2.967   2.272 -0.6114  0.1330  0.0049
   16CHTO  H105 6546   6.027   2.918   2.336 -2.4729  0.2583  1.5839
   16CHTO   O38 6547   5.992   3.340   2.089  0.1552  0.4745 -0.2572
   16CHTO   C55 6548   6.133   3.356   2.086 -0.5138  0.5022  0.3055
   16CHTO  H112 6549   6.183   3.337   2.182  0.4508 -1.1574 -0.5026
   16CHTO   C56 6550   6.174   3.497   2.023  0.8254  0.2768  0.0954
   16CHTO  H113 6551   6.155   3.501   1.914  0.9817 -1.5641 -0.0141
   16CHTO   O42 6552   6.104   3.613   2.078  0.1058  0.1228 -0.0134
   16CHTO  H100 6553   6.044   3.590   2.146  0.7902  0.2011  0.6108
   16CHTO   C57 6554   6.328   3.508   2.035  0.2513  0.2029  0.6813
   16CHTO  H114 6555   6.354   3.491   2.140  0.3299 -1.9157  0.3376
   16CHTO   N10 6556   6.379   3.633   1.980  0.2126  0.0506  0.2154
   16CHTO  H106 6557   6.374   3.711   2.054  1.7174  0.4088 -0.0370
   16CHTO  H107 6558   6.479   3.633   1.939  0.8545 -0.5578  1.7366
   16CHTO   C58 6559   6.389   3.392   1.954 -0.6825 -0.8105  0.2648
   16CHTO  H115 6560   6.356   3.399   1.848  0.0823  0.5574  0.1118
   16CHTO   O37 6561   6.336   3.267   1.985  0.5351 -0.2156  0.6032
   16CHTO   C59 6562   6.193   3.248   1.989 -0.7134  0.4264 -0.2219
   16CHTO  H116 6563   6.147   3.256   1.891  0.4626 -0.9008 -0.9068
   16CHTO   C70 6564   6.177   3.109   2.049  0.3401  0.5314 -0.4554
   16CHTO   O46 6565   6.244   2.992   1.983  0.5458 -0.3960 -0.4066
   16CHTO  H103 6566   6.222   2.990   1.892  0.3017  0.5527 -0.3749
   16CHTO   O39 6567   6.561   3.367   1.974  0.2254  0.1120  0.5031
   16CHTO   C60 6568   6.621   3.283   1.873  0.5801  0.0662 -0.3565
   16CHTO  H117 6569   6.545   3.220   1.827  0.1610  1.2097 -1.2287
   16CHTO   C62 6570   6.692   3.371   1.765 -0.1085  0.6475 -0.0822
   16CHTO  H119 6571   6.615   3.430   1.711  1.2201  0.7205 -1.9652
   16CHTO   O43 6572   6.790   3.464   1.832 -0.1184 -0.0834  0.0617
   16CHTO  H101 6573   6.795   3.543   1.782  1.1324  0.3535  0.8346
   16CHTO   C66 6574   6.762   3.274   1.664  0.4509  0.1958 -0.9786
   16CHTO  H123 6575   6.683   3.207   1.629  0.4118 -0.7972  0.9763
   16CHTO   N12 6576   6.830   3.344   1.554 -0.1659  0.0345 -0.2761
   16CHTO  H110 6577   6.758   3.401   1.497  0.9955 -0.2702 -2.0826
   16CHTO  H111 6578   6.895   3.420   1.596 -0.9137  0.3905  0.2501
   16CHTO   C69 6579   6.862   3.180   1.743 -0.0053 -0.5137 -0.5135
   16CHTO  H126 6580   6.938   3.238   1.798 -0.3878 -0.9742  0.5189
   16CHTO   O41 6581   6.775   3.098   1.850 -0.5667 -0.3269 -0.9504
   16CHTO   C64 6582   6.716   3.185   1.947  0.4509 -0.0536  0.6316
   16CHTO  H121 6583   6.795   3.247   1.994  1.5357 -0.7749 -0.2263
   16CHTO   C71 6584   6.641   3.100   2.050 -0.2176  0.3613 -0.5231
   16CHTO   O47 6585   6.722   3.025   2.134 -0.2489  0.3781  0.0226
   16CHTO  H104 6586   6.665   2.962   2.174 -0.0843  1.1077  1.4481
   16CHTO   O34 6587   6.936   3.067   1.643  0.4314  0.0760  0.4735
   16CHTO   C49 6588   7.065   2.977   1.700  0.4186  0.5946 -0.4479
   16CHTO   H91 6589   7.160   3.020   1.667  1.1745  0.7188  1.7965
   16CHTO   C47 6590   7.043   2.839   1.640 -0.9818  0.1358 -0.2975
   16CHTO   H89 6591   7.132   2.791   1.684 -0.8426  0.1307 -0.5810
   16CHTO   O33 6592   7.055   2.850   1.494  0.3277 -0.9242  0.3270
   16CHTO   H70 6593   7.109   2.781   1.461  1.3741 -0.0076  0.0788
   16CHTO   C45 6594   6.906   2.769   1.686  0.2456 -0.0071  0.4592
   16CHTO   H87 6595   6.825   2.838   1.657  2.0550  1.7646 -0.4965
   16CHTO    N8 6596   6.885   2.635   1.621 -0.3394  0.3246 -0.1656
   16CHTO   H75 6597   6.951   2.564   1.668 -1.2250 -1.6177 -1.7820
   16CHTO   H76 6598   6.916   2.653   1.519 -1.0765  0.4324 -0.3787
   16CHTO   C43 6599   6.906   2.768   1.846 -0.1919 -0.1343  0.1700
   16CHTO   H85 6600   6.803   2.749   1.874 -0.6548  1.0020 -0.7229
   16CHTO   O29 6601   6.957   2.889   1.911 -0.3913  0.8420 -0.1634
   16CHTO   C50 6602   7.060   2.970   1.857 -0.4726  0.1189 -0.0963
   16CHTO   H92 6603   7.035   3.072   1.890  0.1158 -0.3009  1.7076
   16CHTO   C54 6604   7.194   2.935   1.925 -0.1617  0.4896  0.0679
   16CHTO   O36 6605   7.300   3.011   1.865 -0.1714  0.3265  0.2807
   16CHTO   H72 6606   7.374   2.996   1.920 -0.8542  0.0687  1.1293
   16CHTO   O27 6607   6.985   2.666   1.896  0.1190  0.1478  0.7339
   16CHTO   C37 6608   6.990   2.581   2.012  0.1236 -0.6887  0.8190
   16CHTO   H79 6609   7.001   2.643   2.102 -0.5525  1.4481 -0.5499
   16CHTO   C38 6610   6.869   2.486   2.029 -0.0405 -0.1699 -0.4019
   16CHTO   H80 6611   6.863   2.430   1.934  0.0606  1.5669 -1.4571
   16CHTO   O31 6612   6.748   2.561   2.046 -0.4276 -0.1845  0.1860
   16CHTO   H68 6613   6.698   2.579   1.968 -0.2330  1.2894  0.3987
   16CHTO   C39 6614   6.894   2.382   2.146 -0.6040  0.1401  0.0974
   16CHTO   H81 6615   6.901   2.437   2.240 -1.8377 -2.8392  1.9921
   16CHTO    N7 6616   6.779   2.278   2.158  0.0845 -0.4244 -0.1435
   16CHTO   H73 6617   6.715   2.295   2.244 -3.1917  0.3592 -2.6701
   16CHTO   H74 6618   6.826   2.181   2.167  1.0601  0.0245 -0.2847
   16CHTO   C40 6619   7.036   2.320   2.130  0.3757  0.2175 -0.1929
   16CHTO   H82 6620   7.032   2.253   2.045  1.2465 -0.0470 -0.0329
   16CHTO   O26 6621   7.133   2.421   2.115 -0.3708 -0.2407 -0.0056
   16CHTO   C41 6622   7.118   2.495   1.993 -0.2415 -0.1126 -0.0484
   16CHTO   H83 6623   7.108   2.424   1.910 -0.1020 -0.6774  0.4132
   16CHTO   C52 6624   7.246   2.570   1.977  0.1549  0.2035  0.4693
   16CHTO   O35 6625   7.365   2.508   2.019  0.0856  0.0242 -0.0191
   16CHTO   H71 6626   7.418   2.584   2.035  1.2196 -0.8757  0.5687
   16CHTO   O28 6627   7.103   2.252   2.242  0.2659  0.0812  0.4882
   16CHTO   C42 6628   7.155   2.109   2.232  0.0724 -0.6099  0.0845
   16CHTO   H84 6629   7.244   2.105   2.294  1.4948  0.2923 -1.8311
   16CHTO   C44 6630   7.194   2.055   2.088 -0.5144  0.5952 -0.1739
   16CHTO   H86 6631   7.104   2.050   2.027  0.1155 -2.8634 -0.9309
   16CHTO   O32 6632   7.288   2.149   2.041 -0.1952 -0.3812 -0.4274
   16CHTO   H69 6633   7.353   2.114   1.984  1.4235  1.2716  0.3374
   16CHTO   C48 6634   7.258   1.911   2.106  0.2592  0.0651  0.2881
   16CHTO   H90 6635   7.349   1.925   2.165  1.0150 -0.1225 -0.8182
   16CHTO    N9 6636   7.312   1.850   1.976 -0.1835 -0.0896 -0.8320
   16CHTO   H77 6637   7.392   1.914   1.943 -0.5686 -0.3646 -2.3298
   16CHTO   H78 6638   7.346   1.749   1.993 -0.2747  0.3215  2.0187
   16CHTO   C51 6639   7.156   1.823   2.182  0.6128  0.3315 -0.3040
   16CHTO   H93 6640   7.072   1.802   2.116  1.3550 -0.7049 -0.9482
   16CHTO   O30 6641   7.124   1.895   2.303 -0.0980 -0.0053 -0.3381
   16CHTO   C46 6642   7.052   2.009   2.291  0.1661  0.7715  0.0586
   16CHTO   H88 6643   6.974   1.998   2.216  1.5677  2.4810 -1.6972
   16CHTO   C53 6644   6.988   2.042   2.431  0.0228  0.3077 -0.0559
   16CHTO   O72 6645   6.910   1.930   2.489 -0.2350 -0.5872  0.7261
   16CHTO  H199 6646   6.822   1.939   2.459 -0.6910  2.6955  2.8732
   16CHTO   O22 6647   7.215   1.701   2.234 -0.5646  0.2370 -0.1908
   16CHTO   C31 6648   7.140   1.591   2.295 -0.0330 -0.4539  0.3266
   16CHTO   H59 6649   7.217   1.523   2.338 -2.2818 -1.6698  2.5409
   16CHTO   C29 6650   7.041   1.630   2.409 -0.1825  0.4965 -0.2025
   16CHTO   H57 6651   6.983   1.719   2.380  0.7616  0.7155 -1.4405
   16CHTO   O21 6652   7.123   1.682   2.515 -0.1391 -0.6283  0.6447
   16CHTO   H37 6653   7.179   1.755   2.499  0.6734 -1.4073 -0.1058
   16CHTO   C27 6654   6.938   1.517   2.458 -0.5429 -0.4825  0.0781
   16CHTO   H55 6655   6.996   1.444   2.516  0.1267  0.0682  0.1190
   16CHTO    N5 6656   6.833   1.562   2.551 -0.6009 -0.2174 -0.2391
   16CHTO   H43 6657   6.844   1.510   2.645  0.4539 -0.0118 -0.2505
   16CHTO   H44 6658   6.734   1.546   2.510 -0.7756  0.7351 -0.2017
   16CHTO   C25 6659   6.877   1.450   2.333  0.0544 -0.6365  0.6852
   16CHTO   H53 6660   6.811   1.525   2.288  2.9857  1.5609 -0.0641
   16CHTO   O17 6661   6.982   1.415   2.231 -0.2076 -0.2028 -0.2621
   16CHTO   C32 6662   7.068   1.516   2.175 -0.1885 -0.0460 -0.1078
   16CHTO   H60 6663   7.003   1.585   2.120  0.3928  0.1490 -0.5541
   16CHTO   C36 6664   7.164   1.442   2.083 -0.1345 -0.6693  0.3676
   16CHTO   O25 6665   7.107   1.421   1.956  0.7023 -0.3457 -0.5135
   16CHTO   H40 6666   7.035   1.361   1.963  1.0718 -0.6339  1.2648
   16CHTO   O15 6667   6.806   1.307   2.382 -0.5424  0.4053  0.5286
   16CHTO   C19 6668   6.672   1.290   2.425  0.1439  0.0053 -0.2453
   16CHTO   H47 6669   6.677   1.357   2.512  1.1580 -2.4902  1.6871
   16CHTO   C20 6670   6.561   1.334   2.326  0.3740  0.3989 -0.8523
   16CHTO   H48 6671   6.572   1.286   2.227  0.0920  0.4844 -0.9249
   16CHTO   O19 6672   6.568   1.476   2.294 -0.3442  0.0977 -0.6734
   16CHTO   H35 6673   6.506   1.501   2.228 -1.3315  0.0214  0.2105
   16CHTO   C21 6674   6.415   1.302   2.386  0.6793  0.4656 -0.2198
   16CHTO   H49 6675   6.407   1.370   2.471  0.0960 -3.8208  3.3390
   16CHTO    N4 6676   6.308   1.321   2.285 -0.0591  0.0152  0.0279
   16CHTO   H41 6677   6.271   1.422   2.299 -0.0795 -0.1581  1.3100
   16CHTO   H42 6678   6.364   1.318   2.193 -0.7248  1.1168 -0.4271
   16CHTO   C22 6679   6.412   1.160   2.445 -0.3632 -0.2357 -0.5182
   16CHTO   H50 6680   6.417   1.084   2.367 -0.6376  0.6291 -1.3976
   16CHTO   O14 6681   6.522   1.144   2.538 -0.4331 -0.4336  0.3132
   16CHTO   C23 6682   6.651   1.146   2.480  0.4733 -0.9238  0.5656
   16CHTO   H51 6683   6.652   1.070   2.401 -0.9948 -0.6979  0.3190
   16CHTO   C34 6684   6.754   1.104   2.585 -0.4190  0.4760  0.1606
   16CHTO   O23 6685   6.888   1.102   2.532 -0.5459 -0.4199 -0.0521
   16CHTO   H38 6686   6.908   1.041   2.465 -0.3096 -1.8235  1.2635
   16CHTO   O16 6687   6.296   1.137   2.533  0.0717 -0.4399 -0.0836
   16CHTO   C24 6688   6.183   1.019   2.496  0.0034 -0.0896 -0.0343
   16CHTO   H52 6689   6.200   0.973   2.398 -0.1345  0.2532 -0.2169
   16CHTO   C26 6690   6.042   1.073   2.492  1.0306 -0.8004 -0.2826
   16CHTO   H54 6691   6.037   1.152   2.569  1.8945 -0.0460 -0.9933
   16CHTO   O20 6692   6.019   1.147   2.371  0.1274 -0.5950 -0.2675
   16CHTO   H36 6693   6.087   1.206   2.346 -0.6344 -0.3243 -1.7624
   16CHTO   C30 6694   5.923   0.974   2.514 -0.5292 -0.6539  0.2234
   16CHTO   H58 6695   5.896   0.920   2.422  1.3734  0.2891 -0.9033
   16CHTO    N6 6696   5.801   1.046   2.553 -0.1266 -0.0675  0.4705
   16CHTO   H45 6697   5.729   0.967   2.566  2.6336 -2.5320  1.4489
   16CHTO   H46 6698   5.773   1.119   2.479  2.2760  1.7156  1.2456
   16CHTO   C33 6699   5.955   0.861   2.613  0.4891  0.5035 -0.8287
   16CHTO   H61 6700   5.962   0.898   2.717  0.9114 -0.3975 -0.5263
   16CHTO   O18 6701   6.085   0.813   2.586 -0.1933 -0.4731  0.7033
   16CHTO   C28 6702   6.186   0.911   2.606 -0.2955  0.2596 -0.4565
   16CHTO   H56 6703   6.168   0.959   2.702 -0.8626 -0.3206 -0.2695
   16CHTO   C35 6704   6.324   0.842   2.594 -0.2080 -0.8223  0.3371
   16CHTO   O24 6705   6.337   0.751   2.483  0.1841 -0.6470 -0.5507
   16CHTO   H39 6706   6.325   0.662   2.509 -0.8293  0.2043  2.0327
   16CHTO    O9 6707   5.859   0.759   2.615  0.0507  0.0066  0.3352
   16CHTO   C13 6708   5.712   0.764   2.701 -0.7861 -0.3205  0.4602
   16CHTO   H26 6709   5.642   0.812   2.628 -0.5857  0.3384  0.6986
   16CHTO   C11 6710   5.711   0.839   2.842 -0.2379 -0.4447  0.2714
   16CHTO   H24 6711   5.705   0.949   2.835  0.5169 -0.4536 -0.6410
   16CHTO    O8 6712   5.833   0.819   2.921 -1.0726 -0.7120 -0.4362
   16CHTO    H3 6713   5.820   0.872   2.998 -0.8889  0.8931 -1.4893
   16CHTO    C9 6714   5.580   0.797   2.911 -0.3314 -0.6383  0.2254
   16CHTO   H22 6715   5.501   0.805   2.835  0.0938 -0.0661 -0.1667
   16CHTO    N2 6716   5.539   0.890   3.025 -0.1776 -0.0569  0.1967
   16CHTO   H10 6717   5.539   0.993   2.993 -2.4739  0.1498  0.7443
   16CHTO   H11 6718   5.451   0.852   3.074 -0.9087  0.9510 -0.3111
   16CHTO    C7 6719   5.579   0.644   2.939  0.0942  0.3191 -0.4555
   16CHTO   H20 6720   5.475   0.606   2.938 -0.1700  1.0219 -0.0375
   16CHTO    O4 6721   5.647   0.566   2.837 -0.1648  0.6107  0.1591
   16CHTO   C14 6722   5.642   0.617   2.707 -0.0437  0.2840 -0.1885
   16CHTO   H27 6723   5.535   0.626   2.680  0.1726 -1.2526 -1.6027
   16CHTO   C18 6724   5.705   0.515   2.610 -0.1755 -0.5006 -0.1512
   16CHTO   O13 6725   5.620   0.405   2.592  0.1268  0.4213 -0.0565
   16CHTO    H7 6726   5.568   0.412   2.514 -1.1812  0.1038  0.7769
   16CHTO    O2 6727   5.642   0.604   3.085 -0.3959 -0.3485 -0.2952
   16CHTO    C1 6728   5.563   0.515   3.164 -0.8653  0.2108  0.1418
   16CHTO   H14 6729   5.473   0.478   3.109 -0.9481 -0.8349  0.9615
   16CHTO    C2 6730   5.518   0.573   3.305 -0.1603  0.3308  0.4892
   16CHTO   H15 6731   5.608   0.615   3.351 -0.8935 -1.5686  3.8482
   16CHTO    O6 6732   5.420   0.680   3.285 -0.0140  0.1095  0.2643
   16CHTO    H1 6733   5.383   0.701   3.369  1.8243 -2.0958  1.7046
   16CHTO    C3 6734   5.454   0.462   3.406  0.1948 -0.5715 -0.4193
   16CHTO   H16 6735   5.365   0.417   3.359 -2.2319  2.8870  0.6421
   16CHTO    N1 6736   5.416   0.518   3.534 -0.1178 -0.0833  0.3125
   16CHTO    H8 6737   5.320   0.476   3.561 -0.2494  0.2466  0.3656
   16CHTO    H9 6738   5.489   0.493   3.609 -0.9721  0.1837  1.2419
   16CHTO    C4 6739   5.566   0.345   3.410  0.4807 -0.3292 -0.5138
   16CHTO   H17 6740   5.663   0.382   3.441  1.7595 -3.8333 -0.0559
   16CHTO    O1 6741   5.589   0.293   3.279 -0.1258  0.7420  0.0932
   16CHTO    C5 6742   5.652   0.387   3.185 -0.1672  0.0765 -0.1532
   16CHTO   H18 6743   5.747   0.423   3.224 -0.4379 -0.7989  1.3385
   16CHTO   C16 6744   5.680   0.301   3.068 -0.1033 -0.1554  0.7264
   16CHTO   O11 6745   5.801   0.225   3.079 -0.1542 -0.6541 -0.2234
   16CHTO    H5 6746   5.820   0.189   2.994  0.9022 -0.5348 -0.0365
   16CHTO    O3 6747   5.521   0.243   3.504 -0.5644  0.7979  0.0460
   16CHTO    C6 6748   5.630   0.159   3.560 -0.5853  0.6013 -0.0957
   16CHTO   H19 6749   5.727   0.195   3.528 -0.2572 -1.1342 -1.1357
   16CHTO    C8 6750   5.609   0.173   3.717 -0.6602  0.6477 -0.9938
   16CHTO   H21 6751   5.508   0.143   3.744 -0.5109  0.4731 -0.6225
   16CHTO    O7 6752   5.627   0.316   3.742  0.1595  0.3258 -0.1904
   16CHTO    H2 6753   5.669   0.364   3.673 -0.8937 -1.8253 -2.4051
   16CHTO   C12 6754   5.718   0.092   3.797 -0.5490  0.0519 -0.0154
   16CHTO   H25 6755   5.812   0.137   3.760  0.9925 -0.8781  2.6567
   16CHTO    N3 6756   5.704   0.113   3.940  0.7503  0.5806  0.9163
   16CHTO   H12 6757   5.601   0.107   3.969  0.3488 -0.0628 -0.5724
   16CHTO   H13 6758   5.766   0.043   3.995 -0.0015 -0.1638  0.8269
   16CHTO   C15 6759   5.722  -0.058   3.744  0.2785 -0.2628 -0.3593
   16CHTO   H28 6760   5.634  -0.110   3.783  0.8519  0.8688  2.5993
   16CHTO   O10 6761   5.847  -0.118   3.782  0.4691  0.1014  0.2350
   16CHTO    H4 6762   5.859  -0.197   3.733  0.5421  1.1774 -1.5262
   16CHTO    O5 6763   5.723  -0.061   3.598  0.8292  0.1199 -0.1623
   16CHTO   C10 6764   5.623   0.005   3.519  0.4123 -1.0070  0.0883
   16CHTO   H23 6765   5.524  -0.029   3.552 -0.1752  0.7921  0.2431
   16CHTO   C17 6766   5.640  -0.021   3.370 -0.0997 -0.1977  0.3615
   16CHTO   O12 6767   5.597  -0.157   3.347  0.1039 -1.1463  0.1717
   16CHTO    H6 6768   5.620  -0.187   3.262 -0.9221  0.8831 -0.8662
   17CHTO  H203 6769   5.829   3.349   3.859 -0.5859  0.8860  0.5513
   17CHTO   O82 6770   5.847   3.437   3.831  0.7139  0.3150 -0.3918
   17CHTO  C123 6771   5.845   3.524   3.943 -0.7594 -0.3802  0.9113
   17CHTO  H227 6772   5.886   3.475   4.033  1.2457  0.0777  0.2771
   17CHTO   O77 6773   5.928   3.640   3.904 -0.2244 -0.1430 -0.0397
   17CHTO  C118 6774   5.933   3.748   4.000  0.2149  0.2329  0.8447
   17CHTO  H222 6775   5.977   3.699   4.089 -1.3407 -0.6925  1.1283
   17CHTO  C125 6776   6.034   3.855   3.958  0.1424 -0.4515  0.3826
   17CHTO   O84 6777   6.167   3.817   3.971 -0.2834 -0.0549 -0.4986
   17CHTO  H205 6778   6.182   3.731   3.937 -0.5761 -0.2556 -0.1124
   17CHTO  C114 6779   5.791   3.809   4.018  0.3884  0.1419 -0.1846
   17CHTO  H218 6780   5.753   3.839   3.920  0.5296 -1.4007 -0.7268
   17CHTO  C116 6781   5.691   3.706   4.054 -0.4432 -0.1518 -0.3635
   17CHTO  H220 6782   5.696   3.683   4.163 -0.6130 -1.5597 -0.6417
   17CHTO   O79 6783   5.553   3.760   4.051  0.3714  0.0477 -0.5665
   17CHTO  H201 6784   5.527   3.802   4.131 -0.6048 -0.2683 -0.7193
   17CHTO  C120 6785   5.692   3.575   3.962  0.4653  0.3794  0.0171
   17CHTO  H224 6786   5.648   3.611   3.866  0.4018  1.3427  0.4056
   17CHTO   N21 6787   5.601   3.461   4.009 -0.2820  0.1319 -0.9202
   17CHTO  H211 6788   5.554   3.404   3.930  2.1395 -1.5605 -1.1934
   17CHTO  H212 6789   5.532   3.481   4.090 -1.4616 -1.6516 -1.4512
   17CHTO   O75 6790   5.806   3.918   4.109  0.0373  0.4159  0.2646
   17CHTO  C112 6791   5.794   4.073   4.043 -0.3495 -0.0366  0.2665
   17CHTO  H216 6792   5.766   4.064   3.937  0.6770  1.2247 -0.1202
   17CHTO   O73 6793   5.924   4.136   4.058  0.1682  0.3186  0.5046
   17CHTO  C113 6794   5.928   4.265   3.996  0.0792  0.9190 -0.3358
   17CHTO  H217 6795   5.936   4.246   3.887 -0.2285 -3.1971  0.2617
   17CHTO  C124 6796   6.063   4.323   4.029 -0.4473 -0.2681 -0.4361
   17CHTO   O83 6797   6.169   4.233   3.998  0.1240  0.3820 -0.3095
   17CHTO  H204 6798   6.132   4.152   4.028  0.6268  0.4896  0.6401
   17CHTO  C109 6799   5.814   4.365   4.040  0.2495  1.0160  0.2790
   17CHTO  H213 6800   5.843   4.402   4.139  2.8854  1.7739 -0.7275
   17CHTO  C110 6801   5.675   4.301   4.031  0.1652  0.6185  0.2114
   17CHTO  H214 6802   5.648   4.286   3.926  0.2357 -1.1255  0.4178
   17CHTO   O78 6803   5.577   4.393   4.089 -0.2466 -0.0175  0.3737
   17CHTO  H200 6804   5.589   4.395   4.182 -1.1494  1.1139  0.4778
   17CHTO  C111 6805   5.679   4.165   4.108 -0.7242 -0.7118 -0.1830
   17CHTO  H215 6806   5.710   4.187   4.211 -0.8547 -2.3736  0.2313
   17CHTO   N19 6807   5.553   4.088   4.110  0.0844  0.1870 -0.0615
   17CHTO  H207 6808   5.471   4.158   4.118 -1.4237 -1.8499  3.0433
   17CHTO  H208 6809   5.546   4.033   4.202  0.1829 -0.6603 -0.5604
   17CHTO   O74 6810   5.821   4.483   3.947  0.4135 -0.4390  0.4256
   17CHTO  C115 6811   5.865   4.619   4.005  0.0129 -0.4193  0.8096
   17CHTO  H219 6812   5.828   4.635   4.106  1.7692 -0.2280  1.4455
   17CHTO   O76 6813   6.025   4.622   4.011 -0.6429 -0.2022 -0.2295
   17CHTO  C122 6814   6.092   4.653   3.891 -0.1750  0.3799  0.3845
   17CHTO  H226 6815   6.052   4.575   3.826  1.9801 -3.2276  3.2020
   17CHTO  C126 6816   6.247   4.629   3.893  0.0570 -0.1697  0.2544
   17CHTO   O85 6817   6.301   4.618   3.763 -0.3901 -0.1169 -0.6790
   17CHTO  H206 6818   6.386   4.582   3.775 -0.0521  1.1563  0.9860
   17CHTO  C121 6819   6.050   4.796   3.840 -0.5914  0.7210 -0.2992
   17CHTO  H225 6820   6.128   4.866   3.875 -0.0864 -0.0067  0.0463
   17CHTO   O81 6821   6.053   4.792   3.694  0.6811 -0.5151  0.1988
   17CHTO  H202 6822   6.007   4.865   3.657 -1.9134 -1.7204  0.8982
   17CHTO  C119 6823   5.914   4.851   3.899 -0.0172 -0.4251  0.3284
   17CHTO  H223 6824   5.929   4.888   4.000 -1.2148 -0.0771  0.3850
   17CHTO  C117 6825   5.811   4.729   3.909 -0.5831 -0.8557  0.4596
   17CHTO  H221 6826   5.792   4.681   3.813 -1.2414  1.4621 -0.6104
   17CHTO   N20 6827   5.674   4.777   3.944 -0.3715 -0.1411  0.1815
   17CHTO  H209 6828   5.614   4.688   3.939 -1.1352  0.4257 -1.0092
   17CHTO  H210 6829   5.641   4.851   3.872  1.5251  2.1832  1.6226
   17CHTO   O80 6830   5.872   4.986   3.822  0.1479 -0.0335 -0.1504
   17CHTO  C103 6831   5.969   5.109   3.842  0.1549 -0.1949  0.6773
   17CHTO  H190 6832   6.051   5.081   3.909 -1.7459 -1.3022  2.5817
   17CHTO  C101 6833   6.031   5.165   3.714 -0.1583 -0.2740  0.1945
   17CHTO  H188 6834   5.966   5.210   3.639 -1.2065 -1.0133  0.6345
   17CHTO   O68 6835   6.114   5.051   3.634 -0.1143 -0.1043 -0.3577
   17CHTO  H168 6836   6.055   5.012   3.573  1.1042 -1.1570 -0.9050
   17CHTO   C99 6837   6.131   5.277   3.761 -0.6315  0.1406  0.0221
   17CHTO  H186 6838   6.206   5.237   3.833 -0.4181  2.0670  0.9090
   17CHTO   N17 6839   6.209   5.338   3.653 -0.3977 -0.3723 -0.4647
   17CHTO  H174 6840   6.149   5.318   3.566  1.1525  0.1175 -1.6664
   17CHTO  H175 6841   6.232   5.443   3.667 -0.2304 -0.6319  1.4071
   17CHTO   C97 6842   6.055   5.383   3.844 -0.7869 -0.1578  0.8034
   17CHTO  H184 6843   5.994   5.441   3.773 -0.3017 -0.0306  0.4909
   17CHTO   O64 6844   5.981   5.334   3.953 -0.1926  0.3063 -0.3856
   17CHTO  C104 6845   5.896   5.227   3.914  0.1899  0.2968 -0.1432
   17CHTO  H191 6846   5.819   5.267   3.848 -0.0067 -0.9845 -0.7064
   17CHTO  C108 6847   5.827   5.191   4.045 -0.1168 -0.3187 -0.4743
   17CHTO   O71 6848   5.729   5.286   4.077  0.0125 -0.7962  0.1401
   17CHTO  H171 6849   5.703   5.270   4.166  0.6225 -0.3313  0.4094
   17CHTO   O62 6850   6.141   5.464   3.921 -0.3863  0.3356 -0.2304
   17CHTO   C91 6851   6.109   5.598   3.935 -0.7320  0.6737 -0.3880
   17CHTO  H178 6852   6.024   5.622   3.871 -0.7727  1.3752 -0.0772
   17CHTO   C92 6853   6.230   5.667   3.866  0.1624 -0.1739 -0.3096
   17CHTO  H179 6854   6.250   5.617   3.770  0.1474  1.9848 -1.4614
   17CHTO   O66 6855   6.199   5.805   3.833  0.0643  1.4978 -0.4753
   17CHTO  H166 6856   6.152   5.854   3.897 -0.6116  0.4510 -0.1652
   17CHTO   C93 6857   6.350   5.669   3.956 -1.1000 -1.0219 -0.3986
   17CHTO  H180 6858   6.413   5.752   3.921 -3.0201  1.2932  1.5382
   17CHTO   N16 6859   6.431   5.547   3.946 -0.2109  0.1589 -0.1617
   17CHTO  H172 6860   6.501   5.544   4.028  0.2041  1.6903 -0.4483
   17CHTO  H173 6861   6.490   5.541   3.856  1.6966 -2.5253  1.2022
   17CHTO   C94 6862   6.313   5.704   4.099 -0.0203  0.1852 -0.0084
   17CHTO  H181 6863   6.326   5.622   4.171 -0.2588  0.7784  0.7171
   17CHTO   O61 6864   6.179   5.748   4.124 -0.1204  0.4636 -0.2442
   17CHTO   C95 6865   6.085   5.647   4.084  0.3620 -0.8317  0.1696
   17CHTO  H182 6866   6.083   5.566   4.157 -0.1395 -0.0631  1.0343
   17CHTO  C106 6867   5.947   5.706   4.085  0.2848 -0.3789  0.3315
   17CHTO   O69 6868   5.842   5.613   4.067 -0.7978 -0.2542  0.5037
   17CHTO  H169 6869   5.778   5.638   4.003  0.8426  1.1963 -0.6423
   17CHTO   O63 6870   6.410   5.812   4.157  0.0158  0.1133 -0.0443
   17CHTO   C96 6871   6.361   5.905   4.265 -0.0260 -0.1750 -0.4688
   17CHTO  H183 6872   6.279   5.854   4.318 -1.0586  2.4329  0.5235
   17CHTO   C98 6873   6.325   6.039   4.212 -0.0491  0.7073  0.1875
   17CHTO  H185 6874   6.414   6.080   4.162  0.6235 -0.5972  0.2948
   17CHTO   O67 6875   6.221   6.019   4.109  0.3485  0.1435 -0.7538
   17CHTO  H167 6876   6.256   5.966   4.040  0.9858  0.7938 -0.9470
   17CHTO  C102 6877   6.265   6.137   4.328 -0.4640  0.4382  0.4446
   17CHTO  H189 6878   6.173   6.085   4.361  0.1113 -0.3124  0.8731
   17CHTO   N18 6879   6.223   6.277   4.298  0.7199 -0.0641  0.0504
   17CHTO  H176 6880   6.208   6.337   4.386 -0.6213  0.1134 -0.2952
   17CHTO  H177 6881   6.286   6.326   4.225 -0.2446 -0.8078 -1.3068
   17CHTO  C105 6882   6.352   6.138   4.449 -0.2480  0.7627 -0.0973
   17CHTO  H192 6883   6.433   6.210   4.438 -1.9396  3.1035  2.2799
   17CHTO   O65 6884   6.415   6.007   4.475  0.1976  0.1064 -0.6077
   17CHTO  C100 6885   6.475   5.934   4.375 -0.2344 -0.2238  0.4847
   17CHTO  H187 6886   6.558   5.997   4.340 -0.2823 -0.2596  0.3077
   17CHTO  C107 6887   6.537   5.811   4.440  0.1151 -0.1360  0.1925
   17CHTO   O70 6888   6.645   5.858   4.518  0.4282 -0.3523 -0.1846
   17CHTO  H170 6889   6.681   5.784   4.564  1.0266  0.2395  0.3008
   17CHTO   O57 6890   6.225   6.162   4.589 -0.0021  0.1866  0.3294
   17CHTO   C85 6891   6.281   6.249   4.692  0.5186 -0.7242 -0.3917
   17CHTO  H157 6892   6.354   6.316   4.642  2.7519 -2.6986  0.1268
   17CHTO   C83 6893   6.375   6.160   4.783  0.4862  0.0951  0.3010
   17CHTO  H155 6894   6.438   6.096   4.720 -1.3430  0.0413 -1.5377
   17CHTO   O56 6895   6.293   6.064   4.852  0.0615 -0.3356 -0.3994
   17CHTO  H135 6896   6.331   6.020   4.925  1.0547  0.8404 -0.1922
   17CHTO   C81 6897   6.455   6.256   4.878 -0.3015  0.0378  0.1892
   17CHTO  H153 6898   6.506   6.329   4.815 -1.1729 -0.2637 -0.8909
   17CHTO   N14 6899   6.568   6.199   4.950  0.2827  0.0017 -0.0507
   17CHTO  H141 6900   6.623   6.278   4.997 -0.3491  0.5681 -0.2727
   17CHTO  H142 6901   6.556   6.114   5.015 -1.5969  1.8754  2.1445
   17CHTO   C79 6902   6.348   6.334   4.971  0.2399  0.0804  0.3223
   17CHTO  H151 6903   6.404   6.405   5.032  0.6645 -1.6109  1.9491
   17CHTO   O52 6904   6.247   6.404   4.896  0.5035  0.1138 -0.4245
   17CHTO   C86 6905   6.180   6.329   4.784 -0.1176  0.4910 -0.0710
   17CHTO  H158 6906   6.107   6.261   4.833  0.5749 -0.7080 -0.6731
   17CHTO   C90 6907   6.098   6.435   4.703  0.2548  0.3207  0.1636
   17CHTO   O60 6908   6.002   6.500   4.789  0.6664  0.5671  0.2708
   17CHTO  H138 6909   5.939   6.534   4.729  2.8587 -1.5567 -3.4035
   17CHTO   O50 6910   6.279   6.244   5.058  0.3721  0.7246 -0.5592
   17CHTO   C73 6911   6.217   6.288   5.182  0.1325  0.2069  0.2416
   17CHTO  H145 6912   6.215   6.398   5.186  0.1809  0.2718 -1.5091
   17CHTO   C74 6913   6.315   6.242   5.296 -0.7568  0.5832 -0.1606
   17CHTO  H146 6914   6.419   6.277   5.282  0.1282 -2.1793 -0.6915
   17CHTO   O54 6915   6.265   6.307   5.416  0.4008  0.1860 -0.2286
   17CHTO  H133 6916   6.294   6.268   5.496 -0.2361  3.1526  1.5261
   17CHTO   C75 6917   6.306   6.083   5.300 -0.2010 -0.4608 -0.3216
   17CHTO  H147 6918   6.335   6.040   5.203  0.6673  1.2103 -0.8293
   17CHTO   N13 6919   6.405   6.029   5.401 -0.8703  0.9485 -0.1779
   17CHTO  H139 6920   6.482   6.097   5.434 -1.5426  1.5525  0.1564
   17CHTO  H140 6921   6.437   5.940   5.347 -0.2006  1.3701 -0.4892
   17CHTO   C76 6922   6.151   6.041   5.333  0.0468  0.1408  0.3588
   17CHTO  H148 6923   6.117   6.098   5.419  2.3889  1.7207  0.3002
   17CHTO   O49 6924   6.071   6.081   5.219 -0.0358 -0.7227 -0.1786
   17CHTO   C77 6925   6.074   6.226   5.203 -0.0362 -0.5290  0.6091
   17CHTO  H149 6926   6.020   6.276   5.284 -0.7514 -0.5853  0.1792
   17CHTO   C88 6927   5.995   6.255   5.075  0.0939 -0.1136  0.6923
   17CHTO   O58 6928   5.994   6.405   5.046 -0.5224  0.0202  0.1408
   17CHTO  H136 6929   6.078   6.446   5.046 -0.1372 -0.7714  0.0201
   17CHTO   O51 6930   6.144   5.878   5.340  0.2193  0.0005  0.3176
   17CHTO   C78 6931   5.987   5.825   5.317 -0.1692 -0.2329 -0.3895
   17CHTO  H150 6932   5.921   5.913   5.305 -1.6300 -0.8561  2.7756
   17CHTO   C80 6933   5.939   5.734   5.432 -0.0882 -0.0090 -0.2079
   17CHTO  H152 6934   6.010   5.650   5.444  0.5762  0.7214  1.1141
   17CHTO   O55 6935   5.943   5.804   5.554  0.0379 -0.3614 -0.0516
   17CHTO  H134 6936   5.952   5.739   5.622  2.2646 -0.1813 -0.1431
   17CHTO   C84 6937   5.795   5.679   5.405  0.6771 -0.1441 -0.0370
   17CHTO  H156 6938   5.731   5.767   5.402  3.6676  2.0951  0.2931
   17CHTO   N15 6939   5.731   5.581   5.505  0.2900  0.0822 -1.1695
   17CHTO  H143 6940   5.629   5.571   5.473  0.0757  0.0469 -0.4816
   17CHTO  H144 6941   5.774   5.484   5.514  1.6015  0.6428 -1.1870
   17CHTO   C87 6942   5.794   5.616   5.260 -0.5865 -0.1807 -0.5990
   17CHTO  H159 6943   5.875   5.543   5.267  1.5544  2.1474 -0.3703
   17CHTO   O53 6944   5.853   5.708   5.159  0.1518  0.1175  0.0243
   17CHTO   C82 6945   5.986   5.742   5.190  0.2051 -0.1776 -0.5267
   17CHTO  H154 6946   6.050   5.654   5.195  0.7829  0.2539 -0.2328
   17CHTO   C89 6947   6.024   5.814   5.054  0.2880 -0.1325  0.4649
   17CHTO   O59 6948   6.162   5.849   5.033  0.2499 -0.3500 -0.3937
   17CHTO  H137 6949   6.166   5.897   4.953  1.0356 -1.8988 -1.2877
   17CHTO   O45 6950   5.658   5.576   5.206  0.4060 -0.0200  0.6231
   17CHTO   C67 6951   5.660   5.444   5.154 -0.4287  0.2801  0.1366
   17CHTO  H124 6952   5.741   5.379   5.184  0.0339  0.9691  0.4084
   17CHTO   C65 6953   5.528   5.383   5.211  0.8914  0.8618 -0.2111
   17CHTO  H122 6954   5.524   5.409   5.317  2.3983  1.4950 -0.2966
   17CHTO   O44 6955   5.540   5.246   5.206  0.4152  0.4039  0.0792
   17CHTO  H102 6956   5.557   5.201   5.126 -0.5503 -1.3331  0.8142
   17CHTO   C63 6957   5.399   5.442   5.146  0.4882  0.1628 -0.1007
   17CHTO  H120 6958   5.393   5.550   5.161 -0.0702  0.2982 -1.2432
   17CHTO   N11 6959   5.269   5.408   5.218  0.8095 -0.3711  0.2288
   17CHTO  H108 6960   5.195   5.482   5.198  0.4444 -0.3524  1.6626
   17CHTO  H109 6961   5.247   5.307   5.191 -2.6639  0.4558 -0.2976
   17CHTO   C61 6962   5.405   5.423   4.990 -0.1119  0.0866  0.1094
   17CHTO  H118 6963   5.329   5.496   4.957 -0.6293 -0.8637 -0.8632
   17CHTO   O40 6964   5.531   5.467   4.929  0.5807 -0.3555 -0.0362
   17CHTO   C68 6965   5.663   5.449   4.995 -0.7342 -1.1049 -0.1886
   17CHTO  H125 6966   5.726   5.536   4.967  1.9610 -2.5140  1.3561
   17CHTO   C72 6967   5.727   5.329   4.923  0.2161  0.4640  0.6818
   17CHTO   O48 6968   5.862   5.311   4.965 -0.9034  0.2831 -0.1231
   17CHTO  H105 6969   5.907   5.273   4.891 -2.7161 -1.0370 -0.5770
   17CHTO   O38 6970   5.372   5.289   4.948  0.3668  0.0330  0.6503
   17CHTO   C55 6971   5.292   5.266   4.828  0.1268 -0.4480 -0.2144
   17CHTO  H112 6972   5.318   5.164   4.797  1.1743  0.0580 -1.0447
   17CHTO   C56 6973   5.318   5.370   4.707 -0.1910  0.0287  0.6570
   17CHTO  H113 6974   5.295   5.468   4.751 -1.9078  0.3940 -0.9870
   17CHTO   O42 6975   5.459   5.364   4.665  0.4338  0.2316  0.6382
   17CHTO  H100 6976   5.494   5.447   4.640 -1.1119  0.7904  0.2913
   17CHTO   C57 6977   5.213   5.339   4.583 -0.9513 -0.5391  0.7160
   17CHTO  H114 6978   5.245   5.242   4.544  0.9735  0.5617 -0.4936
   17CHTO   N10 6979   5.228   5.449   4.481  0.1950 -0.6377  0.3298
   17CHTO  H106 6980   5.248   5.546   4.524 -0.5009 -0.6200  0.6204
   17CHTO  H107 6981   5.305   5.423   4.410  1.1746 -0.9008  1.4800
   17CHTO   C58 6982   5.070   5.325   4.640 -0.3536 -0.7399  0.1533
   17CHTO  H115 6983   5.033   5.426   4.669 -0.6229 -0.7752 -0.0631
   17CHTO   O37 6984   5.061   5.226   4.743 -0.5336  0.1038 -0.1109
   17CHTO   C59 6985   5.142   5.264   4.853  0.7819 -0.1514  0.7201
   17CHTO  H116 6986   5.097   5.357   4.887 -0.2916 -0.7903  1.0937
   17CHTO   C70 6987   5.113   5.159   4.962  0.3638  0.0286 -0.3134
   17CHTO   O46 6988   5.000   5.201   5.040 -0.4492 -0.5229  0.0267
   17CHTO  H103 6989   4.930   5.219   4.981  1.3911 -1.0099 -2.3907
   17CHTO   O39 6990   4.958   5.269   4.515 -1.0168  0.1695 -0.7997
   17CHTO   C60 6991   4.837   5.348   4.517  0.1993 -0.4022  0.6543
   17CHTO  H117 6992   4.821   5.393   4.615  0.6647 -0.2264  0.6499
   17CHTO   C62 6993   4.836   5.463   4.406  0.1765  0.3949  0.4959
   17CHTO  H119 6994   4.928   5.522   4.426 -0.6473  1.4139  1.3367
   17CHTO   O43 6995   4.859   5.405   4.276  0.1612 -0.5818 -0.1225
   17CHTO  H101 6996   4.866   5.469   4.208  0.9256 -0.7366 -0.1948
   17CHTO   C66 6997   4.697   5.548   4.412  0.1842  0.2468  0.9695
   17CHTO  H123 6998   4.679   5.594   4.509  1.7152  0.9209  0.9374
   17CHTO   N12 6999   4.710   5.657   4.312 -0.5954  0.1564  0.3254
   17CHTO  H110 7000   4.620   5.715   4.302  0.7063  2.1588 -0.2841
   17CHTO  H111 7001   4.745   5.631   4.214 -2.1647  0.6467 -0.3716
   17CHTO   C69 7002   4.578   5.453   4.382 -0.2144 -0.8417  0.3625
   17CHTO  H126 7003   4.578   5.423   4.276 -0.7083  1.6570 -0.3723
   17CHTO   O41 7004   4.587   5.320   4.480  0.6645 -0.3308  0.8073
   17CHTO   C64 7005   4.724   5.251   4.500  0.0528 -0.4223  0.0954
   17CHTO  H121 7006   4.750   5.183   4.416 -0.9729 -1.6539  0.7472
   17CHTO   C71 7007   4.702   5.151   4.612 -0.4173  0.4132 -0.6566
   17CHTO   O47 7008   4.656   5.196   4.742  0.6364  0.3499 -0.9322
   17CHTO  H104 7009   4.568   5.229   4.745  0.4787 -0.1111 -0.4937
   17CHTO   O34 7010   4.457   5.525   4.394 -0.0481  0.2636  0.3424
   17CHTO   C49 7011   4.339   5.597   4.478  0.3607  0.2910  1.0670
   17CHTO   H91 7012   4.356   5.704   4.473  1.5935  0.0908  0.5777
   17CHTO   C47 7013   4.335   5.547   4.623  0.4811  0.1211  0.0498
   17CHTO   H89 7014   4.263   5.609   4.680 -0.1764 -2.0320  1.6449
   17CHTO   O33 7015   4.454   5.558   4.692  0.2552 -0.3734 -0.5007
   17CHTO   H70 7016   4.511   5.619   4.650  0.0951 -0.1635 -0.4100
   17CHTO   C45 7017   4.286   5.391   4.636  0.1674  1.0002  0.0677
   17CHTO   H87 7018   4.366   5.315   4.639  0.3331  1.1288 -0.9829
   17CHTO    N8 7019   4.205   5.378   4.761 -0.0226 -0.3941  0.9188
   17CHTO   H75 7020   4.167   5.277   4.752  1.0391 -0.6317 -1.1498
   17CHTO   H76 7021   4.275   5.379   4.844 -0.0910  2.0930  0.9711
   17CHTO   C43 7022   4.200   5.351   4.500 -0.2662  0.3435 -0.0612
   17CHTO   H85 7023   4.279   5.330   4.429  0.4092  2.7666 -0.0639
   17CHTO   O29 7024   4.122   5.463   4.465  0.0874  0.2176 -0.1790
   17CHTO   C50 7025   4.195   5.576   4.419  0.3925 -0.0878 -0.2597
   17CHTO   H92 7026   4.204   5.567   4.309 -0.6550  1.2714 -0.4774
   17CHTO   C54 7027   4.105   5.699   4.438  0.7198  0.3690 -0.6650
   17CHTO   O36 7028   3.991   5.711   4.351 -0.4132 -0.2295  0.0700
   17CHTO   H72 7029   3.936   5.779   4.387 -0.0058  0.6937 -1.0118
   17CHTO   O27 7030   4.112   5.238   4.517  0.1837  0.2814  0.6090
   17CHTO   C37 7031   4.110   5.102   4.465 -0.1123  0.1547 -0.1163
   17CHTO   H79 7032   4.038   5.044   4.524  0.9042 -1.5286 -0.4843
   17CHTO   C38 7033   4.057   5.110   4.315 -0.5723 -0.0721  0.2941
   17CHTO   H80 7034   4.116   5.189   4.265 -0.9940  0.3888  0.5156
   17CHTO   O31 7035   3.922   5.152   4.316 -0.1613 -0.2333  0.2220
   17CHTO   H68 7036   3.858   5.083   4.317 -2.1350  1.4817 -1.6885
   17CHTO   C39 7037   4.082   4.967   4.240  0.4724  0.2741 -0.3515
   17CHTO   H81 7038   4.020   4.903   4.302  0.9334  1.3306  1.2258
   17CHTO    N7 7039   4.034   4.964   4.100 -0.2685  0.0360 -0.1447
   17CHTO   H73 7040   3.930   4.990   4.096  0.2960  2.1778 -1.8128
   17CHTO   H74 7041   4.090   5.024   4.029  1.5393 -1.6452 -0.2208
   17CHTO   C40 7042   4.228   4.915   4.258 -0.2458  0.3199 -0.3946
   17CHTO   H82 7043   4.293   4.985   4.205 -1.2520 -0.0001 -2.1128
   17CHTO   O26 7044   4.248   4.912   4.400 -0.0280 -0.4034 -0.3823
   17CHTO   C41 7045   4.251   5.039   4.474 -0.3348  0.0569 -0.4769
   17CHTO   H83 7046   4.332   5.107   4.442 -0.0250 -0.0825  0.0061
   17CHTO   C52 7047   4.279   5.003   4.615 -0.1578 -0.2028  0.1022
   17CHTO   O35 7048   4.377   4.924   4.638 -0.2670 -0.4099  0.1902
   17CHTO   H71 7049   4.436   4.963   4.699  0.8585 -0.6556 -0.7132
   17CHTO   O28 7050   4.252   4.778   4.222  0.5069  0.1522  0.2393
   17CHTO   C42 7051   4.388   4.728   4.212  0.2651  0.1999 -0.1775
   17CHTO   H84 7052   4.368   4.623   4.187 -0.2481  0.1056  0.6157
   17CHTO   C44 7053   4.479   4.723   4.342 -0.1291 -0.1134  0.4646
   17CHTO   H86 7054   4.492   4.825   4.380  1.8285 -0.0259 -0.3615
   17CHTO   O32 7055   4.421   4.629   4.432 -0.0603  0.1243  0.5587
   17CHTO   H69 7056   4.455   4.542   4.435 -0.1668 -0.1192 -3.0717
   17CHTO   C48 7057   4.629   4.686   4.320  0.2724  0.0570  0.3222
   17CHTO   H90 7058   4.648   4.578   4.318  0.5258  0.1153 -0.3972
   17CHTO    N9 7059   4.714   4.714   4.443  0.0771 -0.1412  0.4836
   17CHTO   H77 7060   4.711   4.821   4.452  2.1916  0.2424 -2.6613
   17CHTO   H78 7061   4.676   4.658   4.527 -1.3316  0.2003  0.0987
   17CHTO   C51 7062   4.680   4.754   4.192 -0.3488  1.3577  0.0720
   17CHTO   H93 7063   4.688   4.861   4.210 -1.1720  1.2434  1.1120
   17CHTO   O30 7064   4.594   4.723   4.085 -0.3337  0.7654 -0.0072
   17CHTO   C46 7065   4.467   4.795   4.098  0.7116 -0.3192 -0.6868
   17CHTO   H88 7066   4.495   4.897   4.125 -0.5259 -0.1215 -0.1384
   17CHTO   C53 7067   4.394   4.783   3.964 -0.6837  0.4431  0.3753
   17CHTO   O72 7068   4.366   4.642   3.939  0.0293  0.2456 -0.0742
   17CHTO  H199 7069   4.326   4.623   3.856  0.4853  1.3873 -0.5602
   17CHTO   O22 7070   4.815   4.719   4.152 -0.0343 -0.1372 -0.4119
   17CHTO   C31 7071   4.892   4.824   4.074  0.4635 -0.1974 -0.3608
   17CHTO   H59 7072   4.975   4.766   4.027  0.6118 -1.0817  0.9618
   17CHTO   C29 7073   4.814   4.902   3.964  0.2882  0.4331  0.3838
   17CHTO   H57 7074   4.732   4.952   4.018 -1.6840 -1.9390 -0.3383
   17CHTO   O21 7075   4.751   4.805   3.876 -0.1020 -0.1442 -0.3749
   17CHTO   H37 7076   4.724   4.852   3.800  1.3924  1.6572  0.1587
   17CHTO   C27 7077   4.908   5.009   3.894  0.5831  0.1125  0.3346
   17CHTO   H55 7078   4.995   4.951   3.859  0.5105 -0.4732  1.1109
   17CHTO    N5 7079   4.834   5.071   3.777  0.0736  0.3966 -0.2798
   17CHTO   H43 7080   4.790   5.168   3.794 -0.2282  0.5085 -1.6741
   17CHTO   H44 7081   4.760   5.004   3.736 -0.7739  1.2666 -0.1749
   17CHTO   C25 7082   4.965   5.101   4.000 -0.0685  0.4418 -0.1772
   17CHTO   H53 7083   4.900   5.176   4.048 -0.1871  1.2584 -1.5934
   17CHTO   O17 7084   5.033   5.027   4.106  0.6924  1.1110 -0.7815
   17CHTO   C32 7085   4.960   4.923   4.171 -0.2218 -0.1061 -0.3039
   17CHTO   H60 7086   4.880   4.975   4.223 -3.2251 -3.8574 -0.9401
   17CHTO   C36 7087   5.058   4.849   4.267 -0.2424 -0.0489 -0.0479
   17CHTO   O25 7088   5.133   4.939   4.350  1.0513  0.3065 -0.2955
   17CHTO   H40 7089   5.206   4.968   4.299  0.5388 -0.2444 -1.3616
   17CHTO   O15 7090   5.061   5.200   3.947 -0.2589  0.5917 -0.4438
   17CHTO   C19 7091   5.113   5.331   3.979  0.2012 -0.8920  0.7997
   17CHTO   H47 7092   5.197   5.351   3.910  1.1183  1.2377  2.4894
   17CHTO   C20 7093   5.003   5.441   3.965 -1.0321 -0.1624 -0.0525
   17CHTO   H48 7094   4.919   5.415   4.031  0.6143 -0.8627  1.8231
   17CHTO   O19 7095   4.958   5.427   3.832  0.0756 -0.4847  0.8785
   17CHTO   H35 7096   4.918   5.344   3.815  0.2697 -0.3563 -0.2190
   17CHTO   C21 7097   5.072   5.579   3.996 -0.1997 -0.1678  0.7313
   17CHTO   H49 7098   5.137   5.604   3.912 -1.0999  2.2438  0.7335
   17CHTO    N4 7099   4.978   5.694   4.005 -0.3176 -0.2037  0.4633
   17CHTO   H41 7100   4.898   5.676   4.076 -0.7065 -0.8825 -0.1455
   17CHTO   H42 7101   4.937   5.713   3.907 -0.4128 -0.5687  0.4316
   17CHTO   C22 7102   5.167   5.582   4.122  0.2617  0.7841 -0.5933
   17CHTO   H50 7103   5.108   5.595   4.213 -0.0889 -0.0240 -0.6964
   17CHTO   O14 7104   5.247   5.466   4.141 -0.0559 -0.1099 -0.4893
   17CHTO   C23 7105   5.175   5.344   4.123 -0.3053  0.1887 -0.2030
   17CHTO   H51 7106   5.101   5.348   4.204  0.4048  1.0118  0.4289
   17CHTO   C34 7107   5.284   5.238   4.156  0.2433 -0.1888 -0.3559
   17CHTO   O23 7108   5.390   5.234   4.057  0.0858 -0.3549  0.0929
   17CHTO   H38 7109   5.359   5.188   3.981  1.1842  1.2974 -1.4037
   17CHTO   O16 7110   5.262   5.689   4.107  0.0019 -0.8293 -0.6041
   17CHTO   C24 7111   5.319   5.754   4.206  0.1891 -0.1711  0.1464
   17CHTO   H52 7112   5.273   5.734   4.303 -1.7557  1.6840 -0.3421
   17CHTO   C26 7113   5.305   5.907   4.190 -0.2704 -0.0884  0.1862
   17CHTO   H54 7114   5.357   5.944   4.100 -1.4404 -0.5125 -0.6876
   17CHTO   O20 7115   5.160   5.936   4.196  0.2901 -0.7296  0.1111
   17CHTO   H36 7116   5.146   6.024   4.167  0.0220 -1.6979 -2.8094
   17CHTO   C30 7117   5.384   5.969   4.305  0.5020 -0.2657  0.2548
   17CHTO   H58 7118   5.335   5.943   4.400 -0.5410 -1.0140 -0.4784
   17CHTO    N6 7119   5.374   6.115   4.325 -0.5768  0.4054  0.5492
   17CHTO   H45 7120   5.370   6.167   4.231 -0.5046 -2.1436 -0.8911
   17CHTO   H46 7121   5.452   6.158   4.386 -0.3769  0.9540 -0.0937
   17CHTO   C33 7122   5.540   5.936   4.295 -0.2277  0.5966  0.5072
   17CHTO   H61 7123   5.573   5.958   4.192  0.8159  0.0236  0.7173
   17CHTO   O18 7124   5.542   5.793   4.310  0.1724 -0.0524 -0.5058
   17CHTO   C28 7125   5.470   5.714   4.215  0.0535  0.5150 -0.6296
   17CHTO   H56 7126   5.514   5.727   4.116 -2.4483 -0.2874 -1.8681
   17CHTO   C35 7127   5.502   5.568   4.243  0.2428 -0.4016 -0.3548
   17CHTO   O24 7128   5.642   5.548   4.239 -0.0056  0.1167 -0.1461
   17CHTO   H39 7129   5.676   5.540   4.152 -0.7632 -0.3992 -0.3954
   17CHTO    O9 7130   5.636   6.003   4.379 -0.2985 -0.3302 -0.1038
   17CHTO   C13 7131   5.796   5.962   4.345 -0.0498  0.5277  0.3560
   17CHTO   H26 7132   5.796   5.936   4.238  0.2714 -0.6851  0.6396
   17CHTO   C11 7133   5.853   5.846   4.436  0.6270  0.3641  0.1309
   17CHTO   H24 7134   5.913   5.782   4.369  0.6859  0.5192  0.0350
   17CHTO    O8 7135   5.754   5.763   4.499  0.5056 -0.3566  0.3075
   17CHTO    H3 7136   5.780   5.692   4.555 -0.9583  1.3160  3.2205
   17CHTO    C9 7137   5.955   5.901   4.540 -0.4347  0.1196 -0.0267
   17CHTO   H22 7138   6.044   5.923   4.479 -1.7595  0.8530 -1.7317
   17CHTO    N2 7139   6.014   5.803   4.636  0.5128  0.0229 -0.0500
   17CHTO   H10 7140   6.060   5.712   4.601  3.5866  1.6293 -0.3520
   17CHTO   H11 7141   6.050   5.846   4.729 -3.4719 -0.0362  1.6021
   17CHTO    C7 7142   5.886   6.025   4.600  0.1394 -0.1610  0.5049
   17CHTO   H20 7143   5.958   6.056   4.679  0.3327 -0.2682  0.3726
   17CHTO    O4 7144   5.868   6.133   4.502 -0.6260  0.5427  0.0488
   17CHTO   C14 7145   5.872   6.094   4.359 -0.1555  0.1407  0.2948
   17CHTO   H27 7146   5.977   6.071   4.335 -0.1995  1.0805 -0.8479
   17CHTO   C18 7147   5.830   6.206   4.272 -0.0920 -0.8072  0.5409
   17CHTO   O13 7148   5.880   6.337   4.310  0.0473  0.0189  0.0274
   17CHTO    H7 7149   5.968   6.330   4.279 -0.4728  0.3127 -1.5989
   17CHTO    O2 7150   5.740   6.002   4.665 -0.1573 -0.0054  0.4518
   17CHTO    C1 7151   5.723   6.047   4.799  0.2067  0.3124  0.2279
   17CHTO   H14 7152   5.821   6.075   4.843  0.1803  0.9117 -0.0899
   17CHTO    C2 7153   5.658   5.926   4.879 -0.4465  0.3384  0.1636
   17CHTO   H15 7154   5.574   5.891   4.817  0.2714 -1.7433  0.3159
   17CHTO    O6 7155   5.743   5.814   4.891  0.2675 -0.3604  0.8332
   17CHTO    H1 7156   5.707   5.759   4.958 -2.2914  0.8893  0.5505
   17CHTO    C3 7157   5.620   5.987   5.027 -0.0672 -0.7834  0.1565
   17CHTO   H16 7158   5.714   6.024   5.073 -1.4468  3.4728 -0.1956
   17CHTO    N1 7159   5.562   5.882   5.124 -0.0307 -0.3172 -0.1736
   17CHTO    H8 7160   5.652   5.829   5.153 -0.2878 -1.0622 -0.7196
   17CHTO    H9 7161   5.503   5.807   5.073 -0.8964  1.4036 -1.7799
   17CHTO    C4 7162   5.532   6.119   5.016 -0.5627 -0.3701 -0.5712
   17CHTO   H17 7163   5.437   6.088   4.973  0.5213 -3.7544 -0.6761
   17CHTO    O1 7164   5.598   6.209   4.925  0.0145 -0.1323  0.0248
   17CHTO    C5 7165   5.621   6.167   4.793  0.6123 -0.4185 -0.1134
   17CHTO   H18 7166   5.538   6.128   4.735  1.5091  2.0967 -3.2076
   17CHTO   C16 7167   5.674   6.296   4.723  0.1989 -0.3729 -1.0996
   17CHTO   O11 7168   5.646   6.281   4.589  0.5508  0.4017 -0.0361
   17CHTO    H5 7169   5.728   6.268   4.546  0.6969  0.7727  0.1281
   17CHTO    O3 7170   5.505   6.177   5.149 -0.0095 -0.3568  0.1342
   17CHTO    C6 7171   5.429   6.298   5.145  0.1289  0.5902 -0.0041
   17CHTO   H19 7172   5.438   6.342   5.046 -0.3455 -0.1860 -0.3971
   17CHTO    C8 7173   5.278   6.272   5.170 -0.2557 -0.0472  0.3576
   17CHTO   H21 7174   5.267   6.215   5.262  1.4897 -2.4531 -0.8700
   17CHTO    O7 7175   5.224   6.189   5.059  0.5794  0.4016 -0.1300
   17CHTO    H2 7176   5.136   6.165   5.083 -0.4326  2.7531 -1.2866
   17CHTO   C12 7177   5.201   6.404   5.181 -0.5992 -0.5814  0.0644
   17CHTO   H25 7178   5.186   6.448   5.080 -0.0421 -1.1480 -0.2740
   17CHTO    N3 7179   5.062   6.378   5.235 -0.0165 -0.4480  0.2419
   17CHTO   H12 7180   5.079   6.372   5.342 -3.5212  0.1275  0.8731
   17CHTO   H13 7181   5.008   6.467   5.207 -0.8621 -0.4874  1.6765
   17CHTO   C15 7182   5.282   6.512   5.260  0.2839 -0.2429 -0.1422
   17CHTO   H28 7183   5.279   6.505   5.369 -0.4480 -0.9928 -0.2065
   17CHTO   O10 7184   5.236   6.656   5.222 -0.0138 -0.0062  0.2518
   17CHTO    H4 7185   5.143   6.670   5.229  0.7553  5.2725  2.4214
   17CHTO    O5 7186   5.419   6.526   5.220  0.1175  0.7140  0.0591
   17CHTO   C10 7187   5.485   6.405   5.247  0.0552 -0.5871 -0.6546
   17CHTO   H23 7188   5.459   6.364   5.345 -2.7983 -2.6782 -2.2046
   17CHTO   C17 7189   5.635   6.427   5.247 -0.5755 -1.0286 -0.7186
   17CHTO   O12 7190   5.676   6.496   5.367 -0.1450  0.2380  0.2851
   17CHTO    H6 7191   5.678   6.441   5.443 -1.0329  0.2581  0.3315
   18CHTO  H203 7192   6.979   6.716   1.318  2.2057 -0.1348  0.1284
   18CHTO   O82 7193   6.970   6.747   1.230 -0.3583  0.3241  0.4936
   18CHTO  C123 7194   6.909   6.641   1.152 -0.3256  0.1038 -0.5522
   18CHTO  H227 7195   6.805   6.629   1.186  0.0478  2.3331  1.4836
   18CHTO   O77 7196   6.903   6.688   1.014  0.0683 -0.4471  0.2883
   18CHTO  C118 7197   6.852   6.596   0.913  0.3385 -0.0593 -0.1881
   18CHTO  H222 7198   6.750   6.566   0.941 -1.0036  1.8691 -2.7502
   18CHTO  C125 7199   6.849   6.659   0.767  0.2018  0.1760 -0.2614
   18CHTO   O84 7200   6.975   6.688   0.708 -0.0589 -0.4030  0.0918
   18CHTO  H205 7201   7.023   6.607   0.705 -0.1092 -0.3971 -1.4962
   18CHTO  C114 7202   6.931   6.463   0.915  0.3088  0.2381  0.1331
   18CHTO  H218 7203   7.034   6.488   0.892  0.2647 -1.8099 -2.4751
   18CHTO  C116 7204   6.936   6.400   1.052  0.1979  0.6795 -0.2594
   18CHTO  H220 7205   6.836   6.364   1.085  0.2690 -0.6176 -1.4291
   18CHTO   O79 7206   7.016   6.279   1.049 -0.3863  0.5027  0.5218
   18CHTO  H201 7207   7.007   6.229   1.128  0.4756 -0.1379  0.2277
   18CHTO  C120 7208   6.994   6.503   1.164  0.2772  0.1155 -0.1678
   18CHTO  H224 7209   7.099   6.527   1.138  0.2987 -2.0948 -2.2881
   18CHTO   N21 7210   6.992   6.444   1.299 -0.1594  1.2202 -0.0571
   18CHTO  H211 7211   7.056   6.483   1.377  1.1977  2.0014 -1.5386
   18CHTO  H212 7212   6.889   6.442   1.334  0.6477 -1.4491  2.3170
   18CHTO   O75 7213   6.877   6.381   0.804  0.5579 -0.0365 -0.3451
   18CHTO  C112 7214   6.999   6.307   0.735  0.4408  0.6016 -0.3435
   18CHTO  H216 7215   7.078   6.274   0.805  0.3926  1.0978 -0.0580
   18CHTO   O73 7216   7.050   6.399   0.641 -0.0702  0.2171  0.0064
   18CHTO  C113 7217   7.148   6.347   0.547 -0.7947  0.2891 -0.6266
   18CHTO  H217 7218   7.243   6.322   0.598  0.7517  1.7125 -2.6869
   18CHTO  C124 7219   7.189   6.466   0.463 -0.3168 -0.4129  0.0435
   18CHTO   O83 7220   7.077   6.530   0.395  0.0333  0.7354  1.1135
   18CHTO  H204 7221   7.016   6.470   0.358 -1.5154  2.2936  1.0754
   18CHTO  C109 7222   7.091   6.228   0.467  0.3278 -0.4164 -0.2418
   18CHTO  H213 7223   7.004   6.266   0.412 -0.0236  2.5011  2.1553
   18CHTO  C110 7224   7.056   6.119   0.559 -0.2674 -0.5082  0.6146
   18CHTO  H214 7225   7.144   6.093   0.618 -0.3432 -0.8378  0.5840
   18CHTO   O78 7226   6.999   6.008   0.491 -0.3764 -0.5967  0.7104
   18CHTO  H200 7227   7.058   5.975   0.426 -0.3058  0.1504  0.3927
   18CHTO  C111 7228   6.949   6.166   0.666  0.8528 -0.3048  0.0757
   18CHTO  H215 7229   6.854   6.194   0.616  1.9710  1.4679 -1.1197
   18CHTO   N19 7230   6.918   6.066   0.767  0.1824  0.2377  0.0902
   18CHTO  H207 7231   6.980   6.074   0.856 -1.1460  0.6097  0.9920
   18CHTO  H208 7232   6.820   6.071   0.812  1.1296 -0.8160  2.3661
   18CHTO   O74 7233   7.194   6.189   0.377  0.0149 -0.3720  0.1177
   18CHTO  C115 7234   7.151   6.138   0.234  0.3785  0.3907  0.1424
   18CHTO  H219 7235   7.080   6.055   0.240  0.2697  0.4346 -0.5623
   18CHTO   O76 7236   7.065   6.251   0.159  0.5685 -0.0306  0.4562
   18CHTO  C122 7237   7.150   6.350   0.099 -0.4609  0.2980 -0.2264
   18CHTO  H226 7238   7.206   6.399   0.179  0.7680 -1.0480 -0.2410
   18CHTO  C126 7239   7.057   6.464   0.035 -0.6405  0.6147 -0.3493
   18CHTO   O85 7240   7.140   6.570  -0.018  0.0425 -0.8541  0.1351
   18CHTO  H206 7241   7.184   6.621   0.047 -0.6099  0.0253 -0.1094
   18CHTO  C121 7242   7.237   6.283  -0.011 -0.0650 -0.1126 -0.1120
   18CHTO  H225 7243   7.200   6.309  -0.112 -1.2467  1.1321  0.6229
   18CHTO   O81 7244   7.364   6.344  -0.006  0.3954 -0.3803  0.5219
   18CHTO  H202 7245   7.427   6.309  -0.066 -0.3107  1.8219 -1.5733
   18CHTO  C119 7246   7.249   6.129   0.003  0.1359 -0.0275  0.4722
   18CHTO  H223 7247   7.158   6.075  -0.026  0.1234 -0.5137  1.3940
   18CHTO  C117 7248   7.275   6.090   0.153 -0.5166 -0.3773  0.0803
   18CHTO  H221 7249   7.358   6.136   0.206 -1.0336  0.3141  0.3011
   18CHTO   N20 7250   7.297   5.943   0.168 -0.0672  0.1753 -0.0576
   18CHTO  H209 7251   7.274   5.893   0.075 -0.9360  0.8390 -0.1957
   18CHTO  H210 7252   7.394   5.925   0.212  0.2286 -1.1245 -1.2137
   18CHTO   O80 7253   7.359   6.061  -0.105  0.0494  0.2775 -0.2144
   18CHTO  C103 7254   7.310   6.007  -0.254  0.5526  0.3010 -0.1231
   18CHTO  H190 7255   7.391   5.943  -0.291 -0.1902  0.0608 -1.4010
   18CHTO  C101 7256   7.173   5.938  -0.266  0.2480  0.6641  0.3568
   18CHTO  H188 7257   7.096   6.010  -0.238 -1.0848 -0.9317  0.8898
   18CHTO   O68 7258   7.172   5.803  -0.171 -0.2162 -0.0109  0.0228
   18CHTO  H168 7259   7.084   5.790  -0.140 -0.7635  2.0664 -0.6243
   18CHTO   C99 7260   7.145   5.901  -0.418  0.3847  0.0939  0.0342
   18CHTO  H186 7261   7.229   5.846  -0.467  2.2893  3.0520 -0.1878
   18CHTO   N17 7262   7.015   5.820  -0.430  0.0893  0.4423 -0.2906
   18CHTO  H174 7263   6.990   5.810  -0.535 -0.1564 -0.8027 -0.1188
   18CHTO  H175 7264   7.038   5.722  -0.392 -0.8691 -0.1914 -1.3345
   18CHTO   C97 7265   7.136   6.036  -0.496  0.2759  0.5243  0.9841
   18CHTO  H184 7266   7.051   6.095  -0.462 -0.4203 -0.9380  1.8201
   18CHTO   O64 7267   7.262   6.104  -0.486  0.2507  0.0874 -0.1904
   18CHTO  C104 7268   7.304   6.127  -0.350  0.0572 -0.4345  0.3669
   18CHTO  H191 7269   7.230   6.199  -0.313  1.1705  0.7054  0.3830
   18CHTO  C108 7270   7.440   6.197  -0.349 -0.5601 -0.7982  0.6040
   18CHTO   O71 7271   7.438   6.334  -0.396  0.4271 -0.0800 -0.0761
   18CHTO  H171 7272   7.508   6.379  -0.353 -0.2054 -1.0710  2.0440
   18CHTO   O62 7273   7.122   6.023  -0.642  0.2003  0.0013 -0.0728
   18CHTO   C91 7274   6.998   6.066  -0.697  0.0738  0.3961 -0.0222
   18CHTO  H178 7275   6.921   6.039  -0.625  1.7241 -1.3768  1.1597
   18CHTO   C92 7276   6.980   5.994  -0.838  0.2157  0.1640 -0.2199
   18CHTO  H179 7277   7.065   6.014  -0.904  1.3363  1.1318  1.4803
   18CHTO   O66 7278   6.988   5.853  -0.815 -0.3294  1.2415 -0.2612
   18CHTO  H166 7279   6.922   5.829  -0.752  1.3155 -2.6802  0.0391
   18CHTO   C93 7280   6.847   6.043  -0.909  0.5879 -0.5453 -0.7540
   18CHTO  H180 7281   6.763   6.015  -0.844  1.5151 -2.7615 -0.4503
   18CHTO   N16 7282   6.811   5.987  -1.044 -1.1613 -0.0461  0.4907
   18CHTO  H172 7283   6.714   5.939  -1.048 -2.2190  2.0147  0.8268
   18CHTO  H173 7284   6.887   5.922  -1.086 -1.9521 -0.6285 -0.0500
   18CHTO   C94 7285   6.853   6.200  -0.922 -0.4108  0.4761 -0.1483
   18CHTO  H181 7286   6.939   6.229  -0.983 -0.4953  1.0649  0.0121
   18CHTO   O61 7287   6.863   6.254  -0.792 -0.0258 -0.5100  0.0474
   18CHTO   C95 7288   6.984   6.219  -0.732 -0.1721  0.1547 -0.2532
   18CHTO  H182 7289   7.065   6.255  -0.795  1.1236 -0.6298  0.9436
   18CHTO  C106 7290   6.993   6.315  -0.602  0.2509 -0.8428  0.4442
   18CHTO   O69 7291   6.890   6.314  -0.497 -0.0626 -0.4138  0.1272
   18CHTO  H169 7292   6.823   6.374  -0.524 -0.7950 -1.0896  0.4294
   18CHTO   O63 7293   6.714   6.261  -0.979 -0.2233  0.4289 -0.2364
   18CHTO   C96 7294   6.702   6.404  -1.020  0.6112 -1.3203 -0.3442
   18CHTO  H183 7295   6.630   6.408  -1.102  1.4588  2.0436 -0.9906
   18CHTO   C98 7296   6.822   6.471  -1.073 -0.6445 -0.2611  0.3527
   18CHTO  H185 7297   6.901   6.458  -0.998 -0.6375  0.9017  0.5659
   18CHTO   O67 7298   6.864   6.396  -1.186 -0.0261  0.0531 -0.0488
   18CHTO  H167 7299   6.956   6.386  -1.198 -0.3480 -2.3352 -1.0082
   18CHTO  C102 7300   6.805   6.622  -1.109 -0.4633  0.6755 -0.3850
   18CHTO  H189 7301   6.741   6.625  -1.198 -0.0203  1.3934 -0.6822
   18CHTO   N18 7302   6.924   6.698  -1.141  0.8639  0.2898 -0.3079
   18CHTO  H176 7303   6.893   6.798  -1.169  0.8353  0.4568  0.3087
   18CHTO  H177 7304   6.984   6.652  -1.218  1.0267  0.4065 -0.2541
   18CHTO  C105 7305   6.716   6.692  -1.001  0.1378 -0.0878  0.7029
   18CHTO  H192 7306   6.776   6.717  -0.913 -0.2538  0.0290  0.9373
   18CHTO   O65 7307   6.607   6.621  -0.951  0.1673  0.1359  0.4088
   18CHTO  C100 7308   6.647   6.487  -0.900 -0.2386  0.2483  0.3857
   18CHTO  H187 7309   6.728   6.493  -0.825  0.3028 -0.6837 -0.1058
   18CHTO  C107 7310   6.519   6.423  -0.829  0.0717 -1.0074 -0.4015
   18CHTO   O70 7311   6.404   6.417  -0.909  0.0727  0.1841 -0.4712
   18CHTO  H170 7312   6.330   6.395  -0.856  1.5666  0.7563  1.9400
   18CHTO   O57 7313   6.656   6.837  -1.062  0.6792  0.5139  0.2063
   18CHTO   C85 7314   6.695   6.957  -0.987 -0.3598  0.3577 -0.6133
   18CHTO  H157 7315   6.806   6.953  -0.981 -0.4799 -1.3260  0.8972
   18CHTO   C83 7316   6.639   6.954  -0.836 -0.8699 -0.3621  0.2358
   18CHTO  H155 7317   6.686   6.871  -0.783 -0.5382 -1.9144 -2.3959
   18CHTO   O56 7318   6.501   6.911  -0.836 -0.0518  0.3363 -0.5221
   18CHTO  H135 7319   6.483   6.858  -0.761 -0.9445 -0.0475 -1.0088
   18CHTO   C81 7320   6.663   7.086  -0.765 -0.4066  0.0284 -0.4994
   18CHTO  H153 7321   6.770   7.104  -0.758 -0.6580  0.7528  1.7839
   18CHTO   N14 7322   6.628   7.087  -0.621  0.6134 -0.8345 -0.3768
   18CHTO  H141 7323   6.631   6.990  -0.574  0.4925 -1.1702 -1.0528
   18CHTO  H142 7324   6.540   7.138  -0.587  1.0951 -0.1212 -0.2008
   18CHTO   C79 7325   6.607   7.208  -0.836 -0.0539 -0.7119 -0.7853
   18CHTO  H151 7326   6.657   7.294  -0.790  0.6459 -0.9928 -1.0224
   18CHTO   O52 7327   6.657   7.215  -0.972  0.2905  0.0762 -0.0566
   18CHTO   C86 7328   6.646   7.095  -1.051  0.3743  0.4128 -0.1157
   18CHTO  H158 7329   6.536   7.095  -1.069  0.3239 -0.6446  0.1248
   18CHTO   C90 7330   6.707   7.113  -1.188 -1.0429 -0.0818  0.1432
   18CHTO   O60 7331   6.839   7.164  -1.179  0.2591 -0.3541  0.3974
   18CHTO  H138 7332   6.837   7.249  -1.140  0.8305 -0.3197  0.3632
   18CHTO   O50 7333   6.466   7.216  -0.848 -0.3582 -0.5609  0.1761
   18CHTO   C73 7334   6.348   7.278  -0.896 -0.4830  0.5332 -0.3127
   18CHTO  H145 7335   6.341   7.248  -1.001  1.8432 -0.5383 -0.1929
   18CHTO   C74 7336   6.355   7.432  -0.886  0.7609  0.0561 -0.5444
   18CHTO  H146 7337   6.440   7.465  -0.947 -0.8988  3.9042 -0.8616
   18CHTO   O54 7338   6.237   7.497  -0.938 -0.1387  0.2971  0.5342
   18CHTO  H133 7339   6.216   7.467  -1.025 -0.3159  0.1813  0.6178
   18CHTO   C75 7340   6.375   7.463  -0.726 -0.1592 -0.2737  0.3439
   18CHTO  H147 7341   6.465   7.410  -0.692 -0.3180  0.5733  2.1207
   18CHTO   N13 7342   6.388   7.605  -0.691 -0.5743 -0.3904  0.2821
   18CHTO  H139 7343   6.293   7.656  -0.681 -0.0297  0.3825  1.6473
   18CHTO  H140 7344   6.433   7.665  -0.769 -1.1815 -1.2028 -0.7075
   18CHTO   C76 7345   6.252   7.399  -0.650  0.4858 -0.8340 -0.3366
   18CHTO  H148 7346   6.159   7.444  -0.685 -1.0132 -4.1744 -0.9057
   18CHTO   O49 7347   6.232   7.257  -0.678 -0.5629 -0.3096  0.3220
   18CHTO   C77 7348   6.213   7.235  -0.819 -0.0585 -0.1916  0.2587
   18CHTO  H149 7349   6.133   7.297  -0.860  1.7979  2.4663  0.5189
   18CHTO   C88 7350   6.173   7.089  -0.834 -0.0995 -0.7724  0.4389
   18CHTO   O58 7351   6.129   7.059  -0.965  0.0896  0.5681  0.0964
   18CHTO  H136 7352   6.202   7.046  -1.022  1.9457  1.2955  2.2156
   18CHTO   O51 7353   6.283   7.406  -0.479  0.0276  0.3804  0.9285
   18CHTO   C78 7354   6.159   7.330  -0.386  1.1009 -0.5057 -0.3680
   18CHTO  H150 7355   6.100   7.258  -0.446  0.9265 -2.0198  1.5490
   18CHTO   C80 7356   6.066   7.431  -0.314 -0.0639 -0.0887  0.8319
   18CHTO  H152 7357   6.136   7.514  -0.288  2.6236 -2.2778  0.8218
   18CHTO   O55 7358   5.991   7.504  -0.412 -0.3144  0.3471 -0.7480
   18CHTO  H134 7359   5.940   7.446  -0.466 -0.3146 -0.2797 -0.0943
   18CHTO   C84 7360   5.972   7.363  -0.200  0.0528 -0.1212 -0.0392
   18CHTO  H156 7361   5.905   7.297  -0.255 -0.4143 -1.9478  2.6307
   18CHTO   N15 7362   5.891   7.459  -0.114 -0.0652 -0.8118  0.4675
   18CHTO  H143 7363   5.967   7.530  -0.089 -2.0137  2.3419 -2.0230
   18CHTO  H144 7364   5.850   7.415  -0.025 -1.6778 -0.8667 -0.2854
   18CHTO   C87 7365   6.063   7.282  -0.110 -0.0788  0.1257 -0.5555
   18CHTO  H159 7366   6.127   7.352  -0.057  0.0218 -0.5324  0.2092
   18CHTO   O53 7367   6.133   7.176  -0.205 -0.0811 -0.0456  0.1355
   18CHTO   C82 7368   6.234   7.241  -0.284 -0.6478 -0.8210  0.1101
   18CHTO  H154 7369   6.303   7.301  -0.225 -0.5050  0.2582 -1.1268
   18CHTO   C89 7370   6.319   7.132  -0.354  0.2525  0.0580  0.3050
   18CHTO   O59 7371   6.234   7.035  -0.424  0.2846  0.0525 -0.4614
   18CHTO  H137 7372   6.270   7.015  -0.508 -1.9212 -1.4771 -1.0903
   18CHTO   O45 7373   5.984   7.193   0.018 -0.2463 -0.1185 -0.0958
   18CHTO   C67 7374   6.029   7.222   0.153  0.3964  0.2104  0.6021
   18CHTO  H124 7375   6.122   7.280   0.157  0.1936  0.5830 -0.0449
   18CHTO   C65 7376   5.917   7.300   0.231  0.7878  0.5277 -0.1854
   18CHTO  H122 7377   5.825   7.270   0.180 -0.2937  3.8336 -0.3443
   18CHTO   O44 7378   5.941   7.441   0.214  0.1973 -0.2912 -0.1372
   18CHTO  H102 7379   5.992   7.475   0.286 -1.7334  1.6370  0.3700
   18CHTO   C63 7380   5.905   7.256   0.380 -0.6298  0.1173 -0.6271
   18CHTO  H120 7381   5.840   7.168   0.378 -1.2514  0.5849 -1.3827
   18CHTO   N11 7382   5.825   7.347   0.473 -0.0448  0.0598  0.2391
   18CHTO  H108 7383   5.821   7.327   0.578 -0.5746 -0.8099  0.0554
   18CHTO  H109 7384   5.728   7.383   0.442  0.7920  1.1802 -1.1467
   18CHTO   C61 7385   6.040   7.211   0.440 -0.3113 -0.2272  0.4505
   18CHTO  H118 7386   6.016   7.170   0.539  1.3798 -0.0847  0.9331
   18CHTO   O40 7387   6.101   7.114   0.363  0.1166 -0.1844 -0.1055
   18CHTO   C68 7388   6.064   7.091   0.217 -0.5566 -0.6431  0.3664
   18CHTO  H125 7389   5.976   7.023   0.216 -1.2503  0.2449 -0.8648
   18CHTO   C72 7390   6.194   7.018   0.152 -0.0075 -0.8522 -0.5429
   18CHTO   O48 7391   6.168   6.942   0.035  0.0321  0.2739 -0.5443
   18CHTO  H105 7392   6.078   6.942   0.012 -0.1535 -0.3555  0.1545
   18CHTO   O38 7393   6.140   7.310   0.447 -0.2478  0.4183 -0.5949
   18CHTO   C55 7394   6.277   7.283   0.499 -0.2418 -0.0172  0.1420
   18CHTO  H112 7395   6.308   7.183   0.465 -2.0816 -0.0959 -1.3795
   18CHTO   C56 7396   6.284   7.297   0.657 -0.4686  0.8123 -0.2049
   18CHTO  H113 7397   6.255   7.401   0.675 -4.2906 -0.2522  0.4519
   18CHTO   O42 7398   6.189   7.219   0.723 -0.0514  0.1048  0.4771
   18CHTO  H100 7399   6.104   7.253   0.705  0.9352  1.9536 -0.9718
   18CHTO   C57 7400   6.428   7.271   0.717 -0.3880  0.0871 -0.3761
   18CHTO  H114 7401   6.452   7.164   0.721 -0.5227  0.0722  0.0097
   18CHTO   N10 7402   6.441   7.322   0.856 -0.2985 -0.3495  0.4625
   18CHTO  H106 7403   6.389   7.415   0.872 -0.4949 -0.6157  1.3949
   18CHTO  H107 7404   6.395   7.251   0.923 -2.8683  1.2528  0.4472
   18CHTO   C58 7405   6.534   7.340   0.630  0.1719 -0.0762  0.3994
   18CHTO  H115 7406   6.536   7.446   0.663  0.3814  0.0204  0.0730
   18CHTO   O37 7407   6.511   7.337   0.488 -0.1528  0.4230 -0.8735
   18CHTO   C59 7408   6.381   7.385   0.440 -0.9105  0.1695  0.7868
   18CHTO  H116 7409   6.366   7.490   0.466 -2.4147  0.4661 -1.1631
   18CHTO   C70 7410   6.389   7.370   0.288  1.2151  0.0834  0.8264
   18CHTO   O46 7411   6.324   7.469   0.206  0.0216  0.5188 -0.7352
   18CHTO  H103 7412   6.372   7.509   0.136 -0.2065  0.6657 -0.8099
   18CHTO   O39 7413   6.685   7.253   0.658  0.6598 -0.5510 -0.4030
   18CHTO   C60 7414   6.706   7.128   0.591 -0.1221 -0.5241 -0.3591
   18CHTO  H117 7415   6.611   7.079   0.569  1.2753 -3.3174 -0.4258
   18CHTO   C62 7416   6.762   7.133   0.447  0.1440 -0.1506  0.7904
   18CHTO  H119 7417   6.697   7.198   0.385 -0.3103 -1.8678 -0.5780
   18CHTO   O43 7418   6.898   7.191   0.450 -0.7739  0.1111 -0.3693
   18CHTO  H101 7419   6.905   7.273   0.406  3.4102  0.3408  0.5417
   18CHTO   C66 7420   6.751   6.989   0.378  0.0754  0.0714 -0.7742
   18CHTO  H123 7421   6.645   6.968   0.363 -0.1361  0.9692 -0.5700
   18CHTO   N12 7422   6.788   6.995   0.237  0.3847  0.4717  0.8392
   18CHTO  H110 7423   6.720   7.056   0.180 -0.5036 -3.1224 -2.1561
   18CHTO  H111 7424   6.811   6.904   0.184  0.0249  0.3285  0.9309
   18CHTO   C69 7425   6.823   6.882   0.458  0.2735 -0.6150 -0.6140
   18CHTO  H126 7426   6.931   6.908   0.455  0.3712 -0.5584  2.2988
   18CHTO   O41 7427   6.781   6.887   0.597  0.5701 -0.1266  0.1669
   18CHTO   C64 7428   6.795   7.026   0.668  0.0294 -0.2345 -0.6221
   18CHTO  H121 7429   6.903   7.052   0.666  0.1417 -0.6179  0.2668
   18CHTO   C71 7430   6.755   7.019   0.821 -0.1075 -0.3548 -0.9145
   18CHTO   O47 7431   6.882   6.984   0.888  0.5646 -0.0216 -0.1673
   18CHTO  H104 7432   6.881   7.026   0.972 -1.6606 -0.4079  0.0214
   18CHTO   O34 7433   6.800   6.738   0.406 -0.0304 -0.1796 -1.0668
   18CHTO   C49 7434   6.712   6.594   0.359  0.1728  0.0915 -0.1427
   18CHTO   H91 7435   6.777   6.535   0.294 -0.0548  0.2236 -0.4949
   18CHTO   C47 7436   6.588   6.630   0.278  0.0566 -0.4900  0.0941
   18CHTO   H89 7437   6.552   6.530   0.246 -1.5513 -0.6080  2.1378
   18CHTO   O33 7438   6.606   6.706   0.158 -0.1597  0.4947 -0.0231
   18CHTO   H70 7439   6.555   6.784   0.150  0.3029  0.9904  1.6378
   18CHTO   C45 7440   6.479   6.700   0.370  1.1109 -0.1174  0.4329
   18CHTO   H87 7441   6.474   6.807   0.348 -0.4466 -0.7714 -2.7563
   18CHTO    N8 7442   6.349   6.642   0.320 -0.2487 -0.7852  0.6411
   18CHTO   H75 7443   6.267   6.712   0.327 -0.2648 -0.8013  0.6177
   18CHTO   H76 7444   6.327   6.542   0.353 -2.1056  0.1833  2.4660
   18CHTO   C43 7445   6.498   6.671   0.533  0.5804  0.3872  0.8031
   18CHTO   H85 7446   6.559   6.756   0.560  2.8177 -0.2315 -2.0785
   18CHTO   O29 7447   6.563   6.548   0.563  0.0174  0.2866 -0.0521
   18CHTO   C50 7448   6.674   6.505   0.480  0.1202 -0.2073  0.6840
   18CHTO   H92 7449   6.758   6.492   0.550  1.9428  0.6208 -1.2845
   18CHTO   C54 7450   6.648   6.357   0.420  0.4498  0.4597 -0.4361
   18CHTO   O36 7451   6.642   6.261   0.525  0.0123  0.1760  0.0532
   18CHTO   H72 7452   6.631   6.172   0.498 -0.2383 -0.1762  1.2667
   18CHTO   O27 7453   6.382   6.689   0.610 -0.7193 -0.6133  0.0711
   18CHTO   C37 7454   6.336   6.738   0.734  0.3410  0.5184  1.0789
   18CHTO   H79 7455   6.253   6.678   0.773 -0.7452  3.1498  2.9678
   18CHTO   C38 7456   6.455   6.728   0.835 -0.4858  0.0377  0.2406
   18CHTO   H80 7457   6.537   6.790   0.798 -2.8766  3.4785  0.5464
   18CHTO   O31 7458   6.496   6.587   0.860 -0.3629 -0.7473 -0.3708
   18CHTO   H68 7459   6.424   6.537   0.895 -1.2859 -0.7899 -2.2783
   18CHTO   C39 7460   6.419   6.800   0.971 -0.6687 -0.2710 -0.1058
   18CHTO   H81 7461   6.342   6.741   1.020  2.6494 -1.9668  3.3859
   18CHTO    N7 7462   6.535   6.806   1.071  0.1329  0.7384 -0.2128
   18CHTO   H73 7463   6.627   6.792   1.018  0.2296  2.2875 -0.4625
   18CHTO   H74 7464   6.541   6.911   1.097 -0.6094  0.3394  1.6638
   18CHTO   C40 7465   6.361   6.943   0.944 -0.0225 -0.1566 -0.4021
   18CHTO   H82 7466   6.445   7.001   0.907 -0.1337  1.0669  1.2437
   18CHTO   O26 7467   6.254   6.942   0.849  0.1554 -0.3718 -0.1595
   18CHTO   C41 7468   6.295   6.884   0.718  0.7778 -0.2986 -0.9638
   18CHTO   H83 7469   6.381   6.943   0.684  1.1168  2.2050  3.7300
   18CHTO   C52 7470   6.180   6.909   0.622 -0.0109  0.5941  0.1170
   18CHTO   O35 7471   6.037   6.835   0.655 -0.3824 -0.0142  0.0535
   18CHTO   H71 7472   6.010   6.786   0.581  0.8756  0.1008 -0.4973
   18CHTO   O28 7473   6.303   7.009   1.059  0.2918  0.2778  0.3456
   18CHTO   C42 7474   6.170   6.991   1.113 -0.0889  0.3297  0.3815
   18CHTO   H84 7475   6.178   7.021   1.217 -1.9390 -1.1127  0.9687
   18CHTO   C44 7476   6.115   6.839   1.125  0.6919  0.1530 -0.4015
   18CHTO   H86 7477   6.129   6.783   1.033 -0.9479  2.6861 -2.2373
   18CHTO   O32 7478   6.204   6.773   1.213  0.5778  0.2049 -0.2916
   18CHTO   H69 7479   6.166   6.690   1.236 -1.5566  0.9347 -1.1003
   18CHTO   C48 7480   5.963   6.833   1.162  0.1819 -0.4285 -0.4812
   18CHTO   H90 7481   5.947   6.884   1.257  1.4272 -0.5747 -0.1884
   18CHTO    N9 7482   5.911   6.688   1.182  0.4246  1.1909  0.0568
   18CHTO   H77 7483   5.949   6.612   1.116 -0.1842 -0.0017  1.0476
   18CHTO   H78 7484   5.803   6.678   1.183  0.4871  0.1754 -1.7246
   18CHTO   C51 7485   5.890   6.909   1.046 -0.4241  0.1262 -1.5469
   18CHTO   H93 7486   5.930   6.878   0.950  0.5648 -0.6237 -0.9005
   18CHTO   O30 7487   5.923   7.044   1.078 -0.4037 -0.4712  0.2703
   18CHTO   C46 7488   6.058   7.087   1.049  0.1214  0.6319  0.2654
   18CHTO   H88 7489   6.057   7.097   0.940 -1.2414  1.3935  0.3307
   18CHTO   C53 7490   6.064   7.237   1.093 -0.3330 -0.9442 -0.0658
   18CHTO   O72 7491   5.986   7.326   1.004  0.2845 -0.2426 -0.0136
   18CHTO  H199 7492   5.915   7.279   0.964  2.7061 -1.2366 -3.2810
   18CHTO   O22 7493   5.743   6.902   1.054 -0.3728  0.1404  0.7144
   18CHTO   C31 7494   5.658   6.926   0.925 -0.7002 -0.4931  0.1774
   18CHTO   H59 7495   5.551   6.914   0.952 -0.9685  1.3947  0.0268
   18CHTO   C29 7496   5.671   7.072   0.857  1.0146 -0.6028 -0.0890
   18CHTO   H57 7497   5.773   7.093   0.821  0.8303  1.0636  0.3203
   18CHTO   O21 7498   5.647   7.166   0.965  0.3274  0.0566 -0.4958
   18CHTO   H37 7499   5.663   7.258   0.956 -0.1046  0.4351  1.9556
   18CHTO   C27 7500   5.577   7.083   0.732 -0.7873  0.1025 -0.1334
   18CHTO   H55 7501   5.475   7.049   0.758 -1.5527 -0.4226 -3.5539
   18CHTO    N5 7502   5.573   7.212   0.666 -0.6207  0.1861  0.3451
   18CHTO   H43 7503   5.484   7.222   0.606  1.0283  1.2058 -1.9917
   18CHTO   H44 7504   5.667   7.227   0.615  0.1507 -1.5622  1.2087
   18CHTO   C25 7505   5.629   6.962   0.642  0.0709 -0.4839  0.8126
   18CHTO   H53 7506   5.737   6.970   0.624 -0.6079  2.2779 -2.5927
   18CHTO   O17 7507   5.599   6.830   0.704  0.6374  0.1929 -0.6059
   18CHTO   C32 7508   5.690   6.817   0.814  0.5429 -0.8673  0.4380
   18CHTO   H60 7509   5.790   6.832   0.774 -0.4209  2.1384 -0.9955
   18CHTO   C36 7510   5.683   6.671   0.870 -0.3402 -0.2423  0.1425
   18CHTO   O25 7511   5.546   6.628   0.899  0.0866  0.1981 -0.2393
   18CHTO   H40 7512   5.560   6.556   0.958 -0.1833  0.8235  0.5915
   18CHTO   O15 7513   5.569   6.955   0.494  0.3847  0.1577 -0.0943
   18CHTO   C19 7514   5.577   6.915   0.353 -0.3831 -0.6567  1.0421
   18CHTO   H47 7515   5.521   6.820   0.361  0.9615 -1.5412  0.0570
   18CHTO   C20 7516   5.507   7.019   0.261  0.7910 -0.3811  0.2710
   18CHTO   H48 7517   5.555   7.117   0.276  0.5401  0.0688 -1.7152
   18CHTO   O19 7518   5.370   7.035   0.297 -0.0502 -0.2023  0.0922
   18CHTO   H35 7519   5.332   6.952   0.278 -1.6743 -0.0694  2.5153
   18CHTO   C21 7520   5.531   6.977   0.110  0.2954 -0.2830  0.3639
   18CHTO   H49 7521   5.476   6.884   0.096 -0.9726  0.5741 -0.4690
   18CHTO    N4 7522   5.473   7.072   0.013 -0.1600  0.2144 -0.6965
   18CHTO   H41 7523   5.505   7.174   0.029  1.0050 -0.2978  0.3553
   18CHTO   H42 7524   5.367   7.067  -0.004 -0.3962 -0.1638  0.8503
   18CHTO   C22 7525   5.677   6.944   0.073  0.6233 -0.8927  0.8867
   18CHTO   H50 7526   5.732   7.038   0.071  0.1456 -0.6160  0.5335
   18CHTO   O14 7527   5.734   6.851   0.162 -0.0310  0.8105 -0.0333
   18CHTO   C23 7528   5.728   6.885   0.306  0.2210  0.6757  0.7861
   18CHTO   H51 7529   5.795   6.970   0.323 -0.1656  0.7888  1.7750
   18CHTO   C34 7530   5.792   6.770   0.386 -0.3818 -0.6706  0.6070
   18CHTO   O23 7531   5.931   6.755   0.345 -0.5780  0.6911 -0.2044
   18CHTO   H38 7532   5.975   6.702   0.409  1.2970  1.5750 -0.7325
   18CHTO   O16 7533   5.681   6.878  -0.054 -0.2186  0.3459 -0.5102
   18CHTO   C24 7534   5.824   6.887  -0.124  0.0142 -0.3697 -0.7403
   18CHTO   H52 7535   5.894   6.946  -0.066  1.4890 -2.0603 -0.7319
   18CHTO   C26 7536   5.802   6.950  -0.264  0.4753 -0.1665  0.5284
   18CHTO   H54 7537   5.711   6.903  -0.306  0.5431  0.3408 -0.2110
   18CHTO   O20 7538   5.758   7.089  -0.227  0.4753 -0.6312 -0.5183
   18CHTO   H36 7539   5.699   7.124  -0.291  0.4878  1.6629  0.6877
   18CHTO   C30 7540   5.917   6.940  -0.368 -0.4536 -0.0119  0.9803
   18CHTO   H58 7541   5.991   7.017  -0.340 -0.5969  0.9722 -1.2245
   18CHTO    N6 7542   5.878   6.985  -0.504  0.0819  0.2694 -0.2702
   18CHTO   H45 7543   5.960   6.966  -0.571  0.3357  0.4695 -0.0189
   18CHTO   H46 7544   5.789   6.936  -0.541 -0.6104  3.1295 -2.6424
   18CHTO   C33 7545   5.979   6.795  -0.369 -0.1956 -0.0548  0.1870
   18CHTO   H61 7546   5.902   6.727  -0.408  0.5162 -0.3974 -0.6400
   18CHTO   O18 7547   6.010   6.763  -0.237  1.0402 -0.0013 -0.4170
   18CHTO   C28 7548   5.897   6.750  -0.149 -0.1147  0.4498 -0.1277
   18CHTO   H56 7549   5.827   6.680  -0.193 -0.2146  1.0120 -0.8603
   18CHTO   C35 7550   5.941   6.685  -0.015 -0.0877 -0.4913  0.2728
   18CHTO   O24 7551   5.977   6.546  -0.010  0.0296  0.4958  0.0392
   18CHTO   H39 7552   5.968   6.514  -0.098 -1.5113  1.6263 -0.2286
   18CHTO    O9 7553   6.086   6.779  -0.458 -0.1457 -0.6204 -0.3500
   18CHTO   C13 7554   6.106   6.640  -0.552  0.7458  0.3132  0.3130
   18CHTO   H26 7555   6.084   6.660  -0.658  4.2444 -0.9160 -0.7194
   18CHTO   C11 7556   6.024   6.515  -0.495  0.4908 -0.2904  0.6435
   18CHTO   H24 7557   5.918   6.540  -0.513  0.4047 -0.3155  1.1224
   18CHTO    O8 7558   6.046   6.498  -0.355  0.5846  0.2962 -0.0856
   18CHTO    H3 7559   5.987   6.555  -0.309  0.8184  0.7810 -0.3824
   18CHTO    C9 7560   6.066   6.389  -0.573 -0.7850  0.2341  0.3256
   18CHTO   H22 7561   6.063   6.414  -0.680  0.2676 -1.6555 -0.1685
   18CHTO    N2 7562   5.974   6.278  -0.547 -0.8562  0.0103 -0.3213
   18CHTO   H10 7563   5.877   6.304  -0.587 -0.2992 -0.5567 -2.0683
   18CHTO   H11 7564   5.965   6.256  -0.442 -0.0324  0.4798 -0.1463
   18CHTO    C7 7565   6.217   6.360  -0.542  0.9689  0.1807 -0.2288
   18CHTO   H20 7566   6.252   6.319  -0.639 -0.5775  2.1136 -1.6488
   18CHTO    O4 7567   6.301   6.471  -0.526  0.1255 -0.4427  0.1279
   18CHTO   C14 7568   6.262   6.602  -0.562  0.4299 -0.1998 -0.5910
   18CHTO   H27 7569   6.292   6.626  -0.666 -2.2462  1.1550 -1.0962
   18CHTO   C18 7570   6.341   6.696  -0.474 -0.0390  0.3576 -0.2488
   18CHTO   O13 7571   6.368   6.813  -0.556 -0.5076  0.1958  0.8524
   18CHTO    H7 7572   6.288   6.863  -0.552  1.0689  2.7072  2.0867
   18CHTO    O2 7573   6.232   6.259  -0.405  0.2392  0.6182  0.3243
   18CHTO    C1 7574   6.367   6.219  -0.378 -0.0655  1.0286  0.1851
   18CHTO   H14 7575   6.434   6.295  -0.423  0.7598 -0.1800 -0.6564
   18CHTO    C2 7576   6.404   6.080  -0.448 -0.0578  0.4873  0.6139
   18CHTO   H15 7577   6.324   6.013  -0.412 -0.4646  1.0276  0.7287
   18CHTO    O6 7578   6.388   6.092  -0.595 -0.0646 -0.3831 -0.1812
   18CHTO    H1 7579   6.348   6.016  -0.631  1.2660 -0.3480 -1.7772
   18CHTO    C3 7580   6.554   6.035  -0.413 -0.2288 -0.5000 -1.0047
   18CHTO   H16 7581   6.622   6.113  -0.450  1.0126 -1.0783  0.0483
   18CHTO    N1 7582   6.590   5.898  -0.466 -0.4268 -0.2978 -0.2061
   18CHTO    H8 7583   6.692   5.898  -0.503 -0.7033  0.1102 -0.9707
   18CHTO    H9 7584   6.580   5.816  -0.397  0.9936  1.3422  2.0045
   18CHTO    C4 7585   6.569   6.034  -0.250  0.9403 -0.0888 -0.4019
   18CHTO   H17 7586   6.514   5.950  -0.209  1.6684  0.0693  0.9168
   18CHTO    O1 7587   6.525   6.158  -0.185 -0.9167  0.4664  0.4455
   18CHTO    C5 7588   6.394   6.202  -0.222 -0.4420  0.3050 -0.8645
   18CHTO   H18 7589   6.322   6.125  -0.195  0.1421  0.2633  0.6605
   18CHTO   C16 7590   6.359   6.335  -0.146 -0.0163 -0.7372 -0.2716
   18CHTO   O11 7591   6.442   6.442  -0.198 -0.2370  0.0700 -0.0046
   18CHTO    H5 7592   6.520   6.453  -0.146 -1.8071  1.8505  2.0597
   18CHTO    O3 7593   6.708   6.014  -0.208  0.0700 -0.3124 -0.1382
   18CHTO    C6 7594   6.720   5.957  -0.080 -0.2598 -0.2155  0.3488
   18CHTO   H19 7595   6.629   5.927  -0.029  1.1925 -2.1292  1.9064
   18CHTO    C8 7596   6.796   5.822  -0.107  0.6753 -0.5166  0.1920
   18CHTO   H21 7597   6.881   5.839  -0.173  0.9940  2.5546  1.3491
   18CHTO    O7 7598   6.712   5.721  -0.163  0.7008 -0.3266 -0.0324
   18CHTO    H2 7599   6.649   5.767  -0.215 -1.1721 -1.5100  1.1410
   18CHTO   C12 7600   6.855   5.764   0.036 -0.0828  0.4174 -0.2312
   18CHTO   H25 7601   6.775   5.715   0.097 -0.3257  2.8837  1.4740
   18CHTO    N3 7602   6.957   5.658   0.006  0.3191 -0.1475  0.6512
   18CHTO   H12 7603   6.964   5.644  -0.101 -1.4831 -0.3978  0.5573
   18CHTO   H13 7604   6.922   5.567   0.052 -0.3953 -1.1175 -1.7207
   18CHTO   C15 7605   6.916   5.886   0.120 -0.3528 -0.0975 -0.3378
   18CHTO   H28 7606   7.008   5.922   0.073  0.4998 -0.5197  1.0040
   18CHTO   O10 7607   6.928   5.838   0.285 -0.0648 -0.0740 -0.5009
   18CHTO    H4 7608   7.005   5.786   0.293  0.1286  0.0667 -1.3822
   18CHTO    O5 7609   6.836   6.003   0.136 -0.7683 -0.4103 -0.7180
   18CHTO   C10 7610   6.801   6.062   0.014  0.6013  0.0524 -0.2745
   18CHTO   H23 7611   6.890   6.090  -0.041  2.2251 -1.3210  1.5585
   18CHTO   C17 7612   6.718   6.185   0.059 -0.1895 -0.1158 -0.4981
   18CHTO   O12 7613   6.800   6.288   0.109 -0.1063  0.5287  0.1699
   18CHTO    H6 7614   6.820   6.340   0.033 -1.3612 -2.3238 -2.1784
   19CHTO  H203 7615   7.020   7.805   1.068  0.9178  1.0472  0.9162
   19CHTO   O82 7616   6.984   7.806   1.154 -0.0293  0.1231  0.5349
   19CHTO  C123 7617   6.854   7.741   1.166  0.0931  0.2348  0.5723
   19CHTO  H227 7618   6.782   7.808   1.118 -1.3586 -2.4888 -1.1429
   19CHTO   O77 7619   6.878   7.619   1.089 -0.8763  0.0780  0.5544
   19CHTO  C118 7620   6.766   7.531   1.069 -0.1173  0.3900 -1.0406
   19CHTO  H222 7621   6.696   7.584   1.003  0.6907  1.7467 -0.8125
   19CHTO  C125 7622   6.815   7.404   1.002  0.7302  0.1386  0.0285
   19CHTO   O84 7623   6.940   7.350   1.049 -0.0568  0.2699 -0.2349
   19CHTO  H205 7624   6.967   7.283   0.989  0.1324 -1.8029  2.0522
   19CHTO  C114 7625   6.706   7.492   1.210 -0.1138 -0.3135 -0.3479
   19CHTO  H218 7626   6.789   7.442   1.261  0.2561  0.9392  0.2860
   19CHTO  C116 7627   6.686   7.614   1.311  0.1203  0.4925  0.1536
   19CHTO  H220 7628   6.599   7.674   1.279  0.2663  2.3344  3.0759
   19CHTO   O79 7629   6.664   7.573   1.449 -0.4726  0.1164  0.2049
   19CHTO  H201 7630   6.696   7.486   1.465  0.3666  0.2365 -0.7387
   19CHTO  C120 7631   6.806   7.715   1.311  0.4137 -0.9901  0.1697
   19CHTO  H224 7632   6.890   7.673   1.370  0.2176  1.5978  2.4248
   19CHTO   N21 7633   6.764   7.840   1.384 -0.0747  0.5697 -0.1006
   19CHTO  H211 7634   6.813   7.925   1.340 -0.6910  0.6613 -0.6123
   19CHTO  H212 7635   6.778   7.852   1.491  0.4946  0.1353 -0.1253
   19CHTO   O75 7636   6.592   7.408   1.190  0.4302  0.7013 -0.0525
   19CHTO  C112 7637   6.584   7.291   1.316 -0.0621  0.2095  0.3603
   19CHTO  H216 7638   6.635   7.338   1.401 -0.2143 -0.5227  0.8590
   19CHTO   O73 7639   6.645   7.165   1.273 -0.3129 -0.1582  1.1893
   19CHTO  C113 7640   6.645   7.085   1.388  0.1914  0.3947  0.3864
   19CHTO  H217 7641   6.682   7.133   1.481  1.0863 -0.3061  0.4035
   19CHTO  C124 7642   6.744   6.970   1.356  0.0692  0.4440 -0.8232
   19CHTO   O83 7643   6.865   7.025   1.298 -0.4594  0.0508  0.1331
   19CHTO  H204 7644   6.839   7.079   1.226  0.4032 -1.8050 -1.6491
   19CHTO  C109 7645   6.500   7.030   1.416  0.1308  0.4238 -0.3039
   19CHTO  H213 7646   6.466   6.981   1.324 -0.4274  0.6171 -0.1991
   19CHTO  C110 7647   6.413   7.160   1.450  0.4452 -0.3203 -0.4291
   19CHTO  H214 7648   6.431   7.198   1.551 -0.4759  0.2969 -0.4837
   19CHTO   O78 7649   6.273   7.116   1.440 -0.0396 -0.2360  0.0758
   19CHTO  H200 7650   6.257   7.048   1.502 -0.1998 -1.3339 -1.1720
   19CHTO  C111 7651   6.426   7.272   1.343  0.0565  0.0848 -0.1069
   19CHTO  H215 7652   6.375   7.242   1.250 -0.2916  2.7913 -0.8266
   19CHTO   N19 7653   6.366   7.403   1.382  0.0251  0.1818  0.2011
   19CHTO  H207 7654   6.265   7.414   1.344  0.8765  1.7338 -1.7346
   19CHTO  H208 7655   6.419   7.487   1.341 -1.8383  1.6143  0.6490
   19CHTO   O74 7656   6.494   6.933   1.534  0.0779  0.6299  0.0072
   19CHTO  C115 7657   6.395   6.818   1.496  0.3946  0.2528 -0.2740
   19CHTO  H219 7658   6.310   6.857   1.439 -0.9112 -0.6170  1.0239
   19CHTO   O76 7659   6.477   6.688   1.391  0.2703  0.1783 -0.0065
   19CHTO  C122 7660   6.546   6.588   1.469  0.3649 -0.2667  0.9139
   19CHTO  H226 7661   6.632   6.633   1.519  1.3645  0.3667 -1.3030
   19CHTO  C126 7662   6.610   6.486   1.375  0.0513  0.0307 -0.9563
   19CHTO   O85 7663   6.679   6.381   1.447  0.1298  0.3695 -0.4725
   19CHTO  H206 7664   6.705   6.314   1.388  1.4302  1.4201 -1.1305
   19CHTO  C121 7665   6.452   6.528   1.589 -0.0724  0.4537 -1.1276
   19CHTO  H225 7666   6.431   6.422   1.565  0.1925  0.3021 -0.6816
   19CHTO   O81 7667   6.524   6.527   1.713 -0.1712 -0.0548  0.5473
   19CHTO  H202 7668   6.481   6.467   1.770  1.4246  0.0069  1.8631
   19CHTO  C119 7669   6.320   6.601   1.599  0.2080  0.1501 -0.0639
   19CHTO  H223 7670   6.267   6.583   1.505  0.7452 -1.9749  0.0135
   19CHTO  C117 7671   6.341   6.753   1.630  0.3678  0.4200  0.6404
   19CHTO  H221 7672   6.421   6.785   1.698  0.3668  2.0474 -0.1136
   19CHTO   N20 7673   6.222   6.825   1.674 -0.1813  0.6462 -0.0027
   19CHTO  H209 7674   6.161   6.767   1.741 -2.5119  1.7193 -1.1323
   19CHTO  H210 7675   6.261   6.910   1.727 -3.2781  1.9172  0.3051
   19CHTO   O80 7676   6.208   6.523   1.712  0.3505 -0.2762 -0.5413
   19CHTO  C103 7677   6.166   6.363   1.695  0.5393 -0.4749  0.6617
   19CHTO  H190 7678   6.226   6.310   1.621  0.1174  1.9127 -1.4952
   19CHTO  C101 7679   6.149   6.292   1.832  0.5676 -0.2908  0.7059
   19CHTO  H188 7680   6.076   6.345   1.891 -1.2803 -1.0776 -0.8243
   19CHTO   O68 7681   6.305   6.297   1.906 -0.2923 -0.1285  0.7290
   19CHTO  H168 7682   6.334   6.385   1.921  1.1267 -0.3216 -0.7107
   19CHTO   C99 7683   6.103   6.142   1.803 -0.2102 -0.1589  0.8240
   19CHTO  H186 7684   6.174   6.094   1.732 -0.2733  1.3811 -0.2942
   19CHTO   N17 7685   6.102   6.066   1.935 -0.1723  0.1699 -0.3050
   19CHTO  H174 7686   6.201   6.059   1.978  0.5665  0.7516 -1.8560
   19CHTO  H175 7687   6.049   5.972   1.936  0.0251  0.0609 -0.1871
   19CHTO   C97 7688   5.959   6.143   1.741 -0.1524 -0.4522  0.3141
   19CHTO  H184 7689   5.897   6.183   1.823 -1.0418 -0.4616 -0.3446
   19CHTO   O64 7690   5.963   6.232   1.630  0.2006 -0.0570 -0.1816
   19CHTO  C104 7691   6.017   6.361   1.643 -0.1740 -0.2776 -0.2312
   19CHTO  H191 7692   5.961   6.424   1.713 -0.5546 -0.1882 -0.6222
   19CHTO  C108 7693   6.000   6.434   1.514  0.4572  0.0601  0.0456
   19CHTO   O71 7694   5.980   6.574   1.503  0.4471 -0.6429  1.0450
   19CHTO  H171 7695   6.003   6.601   1.416 -1.1640  2.0162  1.3821
   19CHTO   O62 7696   5.909   6.014   1.701  0.5215  0.0167 -0.2266
   19CHTO   C91 7697   5.764   6.007   1.717  0.3156  0.4515 -0.0627
   19CHTO  H178 7698   5.727   6.105   1.747 -0.7861  0.9082 -2.7310
   19CHTO   C92 7699   5.723   5.892   1.818 -0.4582  0.8155 -0.1185
   19CHTO  H179 7700   5.775   5.805   1.775  0.8989  0.9093  1.3299
   19CHTO   O66 7701   5.785   5.921   1.945  0.7189 -0.9119 -0.0808
   19CHTO  H166 7702   5.820   5.843   1.984  1.1185 -1.2894 -1.1877
   19CHTO   C93 7703   5.566   5.878   1.821  0.7975 -0.0431 -0.0434
   19CHTO  H180 7704   5.524   5.968   1.869  1.8867  0.2251  0.4224
   19CHTO   N16 7705   5.514   5.762   1.900  0.2114 -0.2422  0.5099
   19CHTO  H172 7706   5.410   5.755   1.873 -0.3592  2.6958  1.8407
   19CHTO  H173 7707   5.517   5.774   2.007 -0.4018  0.4524  0.4480
   19CHTO   C94 7708   5.515   5.864   1.669  0.4578 -0.0120 -0.4676
   19CHTO  H181 7709   5.556   5.777   1.616  1.7585  0.5551 -0.4030
   19CHTO   O61 7710   5.558   5.980   1.601 -0.4812  0.2334  0.2681
   19CHTO   C95 7711   5.701   5.977   1.581  0.2808  0.3628 -0.4083
   19CHTO  H182 7712   5.733   5.879   1.544  2.5952 -0.1805  2.7780
   19CHTO  C106 7713   5.749   6.078   1.471 -0.2622  0.7179 -0.0563
   19CHTO   O69 7714   5.683   6.055   1.349  0.1188 -0.5736  0.2399
   19CHTO  H169 7715   5.741   6.045   1.275  0.3974  1.0790  0.2163
   19CHTO   O63 7716   5.349   5.865   1.656  0.4856  0.4190  0.7612
   19CHTO   C96 7717   5.289   5.768   1.559  0.6451  0.5118 -0.1748
   19CHTO  H183 7718   5.356   5.682   1.566  1.5266  1.0828 -1.2675
   19CHTO   C98 7719   5.318   5.820   1.411  0.0312 -0.1872 -0.2033
   19CHTO  H185 7720   5.405   5.884   1.394  1.3607 -1.5279  1.4826
   19CHTO   O67 7721   5.345   5.700   1.338  0.2649  0.2665  0.5492
   19CHTO  H167 7722   5.266   5.653   1.323  0.0941  1.6102 -3.3749
   19CHTO  C102 7723   5.192   5.894   1.348 -0.6131 -0.6265  0.4472
   19CHTO  H189 7724   5.227   5.918   1.246  2.6370  0.8782  1.8323
   19CHTO   N18 7725   5.162   6.031   1.406 -0.1222 -0.2738  0.4193
   19CHTO  H176 7726   5.078   6.027   1.475  0.1867  0.4267  0.8418
   19CHTO  H177 7727   5.245   6.074   1.461  1.9294 -1.7097 -1.4776
   19CHTO  C105 7728   5.067   5.803   1.360 -0.4311  0.6130 -0.0188
   19CHTO  H192 7729   4.980   5.864   1.383 -1.2724 -0.1641 -1.1324
   19CHTO   O65 7730   5.083   5.697   1.452 -0.7622 -0.1980  0.4908
   19CHTO  C100 7731   5.133   5.728   1.581  0.3524  0.1204  0.0802
   19CHTO  H187 7732   5.083   5.821   1.613  1.8242  2.0707 -3.0148
   19CHTO  C107 7733   5.110   5.613   1.675  0.7078 -1.2325  0.0207
   19CHTO   O70 7734   5.146   5.661   1.811 -0.1990 -0.1885  0.0309
   19CHTO  H170 7735   5.231   5.629   1.835  1.0515  3.0703  0.1430
   19CHTO   O57 7736   5.048   5.755   1.190 -0.0820 -0.3390 -0.2403
   19CHTO   C85 7737   4.917   5.752   1.131 -0.1520  0.4421 -0.0140
   19CHTO  H157 7738   4.842   5.739   1.212 -1.2603  2.0573 -0.7680
   19CHTO   C83 7739   4.924   5.623   1.037  0.8644 -0.0831 -0.8002
   19CHTO  H155 7740   4.928   5.543   1.111  1.6648 -0.2127 -0.9750
   19CHTO   O56 7741   5.038   5.613   0.955 -0.2265  0.6782  0.9529
   19CHTO  H135 7742   5.049   5.694   0.909  1.3976  0.4392  0.8940
   19CHTO   C81 7743   4.788   5.625   0.962 -0.5853  0.9706 -0.0829
   19CHTO  H153 7744   4.709   5.631   1.038 -0.8352  1.7930 -0.3994
   19CHTO   N14 7745   4.751   5.495   0.903 -0.0212  0.0199  0.0376
   19CHTO  H141 7746   4.804   5.478   0.812  0.2488 -0.5210  0.2966
   19CHTO  H142 7747   4.646   5.494   0.883  0.4316  0.9347 -2.5305
   19CHTO   C79 7748   4.773   5.742   0.862  0.1213 -0.4869 -0.0642
   19CHTO  H151 7749   4.674   5.735   0.817  0.5791  0.3579 -1.2400
   19CHTO   O52 7750   4.767   5.863   0.939  0.3713 -0.6135 -0.3780
   19CHTO   C86 7751   4.877   5.875   1.041 -0.3380  0.8226 -0.1337
   19CHTO  H158 7752   4.963   5.898   0.974 -0.0793 -1.6576 -0.6887
   19CHTO   C90 7753   4.851   6.001   1.122 -0.4704  0.0842 -0.0323
   19CHTO   O60 7754   4.823   6.123   1.045 -0.0273  0.1776 -0.4293
   19CHTO  H138 7755   4.737   6.148   1.072  1.1422  2.0804  1.7332
   19CHTO   O50 7756   4.875   5.752   0.763  0.3583 -0.4355 -0.3896
   19CHTO   C73 7757   4.898   5.784   0.624  0.1077 -0.0331 -0.2629
   19CHTO  H145 7758   4.853   5.708   0.559 -0.2854 -1.0954  1.2280
   19CHTO   C74 7759   5.056   5.784   0.600  0.9379  0.3863  0.5678
   19CHTO  H146 7760   5.089   5.682   0.626  1.3643  0.8632  1.9717
   19CHTO   O54 7761   5.081   5.796   0.462  0.1115 -0.2329 -0.6939
   19CHTO  H133 7762   5.013   5.756   0.411 -1.2494  0.6888  0.3772
   19CHTO   C75 7763   5.123   5.894   0.688 -0.1466 -0.2115  0.3286
   19CHTO  H147 7764   5.100   5.870   0.793 -0.8518 -0.7993  0.0357
   19CHTO   N13 7765   5.268   5.895   0.668  0.1070  0.1515  0.0582
   19CHTO  H139 7766   5.310   5.968   0.735  1.1075 -2.4397  2.3188
   19CHTO  H140 7767   5.294   5.918   0.565  2.0359 -1.6881  0.0876
   19CHTO   C76 7768   5.054   6.032   0.650  0.5240  0.1510 -0.4995
   19CHTO  H148 7769   5.080   6.054   0.546 -1.6537  0.7858 -0.9375
   19CHTO   O49 7770   4.909   6.024   0.670  0.0066  0.4264  0.6157
   19CHTO   C77 7771   4.836   5.924   0.595 -0.3287 -0.1008 -0.1625
   19CHTO  H149 7772   4.852   5.954   0.491  2.7216  0.2192  0.3465
   19CHTO   C88 7773   4.688   5.943   0.630 -0.4086 -0.0068  1.1444
   19CHTO   O58 7774   4.616   5.863   0.573 -0.2177  0.1782 -0.1138
   19CHTO  H136 7775   4.528   5.882   0.601 -0.0816  0.7655 -0.0804
   19CHTO   O51 7776   5.102   6.136   0.753 -0.1958  0.4663 -0.3594
   19CHTO   C78 7777   5.101   6.290   0.688 -0.0580 -0.1343  0.7989
   19CHTO  H150 7778   5.056   6.291   0.587 -1.5063 -1.3235  1.3968
   19CHTO   C80 7779   5.240   6.346   0.682  0.3026  0.0423 -0.3984
   19CHTO  H152 7780   5.284   6.333   0.783 -0.5007  1.3016  0.1231
   19CHTO   O55 7781   5.315   6.259   0.593  0.8829  0.8838 -0.0831
   19CHTO  H134 7782   5.317   6.169   0.621  1.1496  0.5006 -1.3091
   19CHTO   C84 7783   5.242   6.494   0.631 -0.1304  0.0490  0.1205
   19CHTO  H156 7784   5.188   6.494   0.537 -0.1037  0.2981  0.1052
   19CHTO   N15 7785   5.384   6.545   0.611  0.2786  0.0493  0.6179
   19CHTO  H143 7786   5.419   6.592   0.700  2.2510  1.0427 -0.6519
   19CHTO  H144 7787   5.443   6.459   0.589  0.4862 -0.3368  2.6006
   19CHTO   C87 7788   5.154   6.585   0.720  0.0964  0.0625 -0.5718
   19CHTO  H159 7789   5.199   6.574   0.818 -1.1117 -2.4100 -0.2649
   19CHTO   O53 7790   5.015   6.514   0.723 -0.3018  0.1469 -0.3269
   19CHTO   C82 7791   5.015   6.382   0.777  0.2304 -0.0468  0.0731
   19CHTO  H154 7792   5.043   6.375   0.882  0.1536  0.2373  0.1136
   19CHTO   C89 7793   4.869   6.343   0.771 -0.1398 -0.7753 -0.1675
   19CHTO   O59 7794   4.825   6.313   0.640  0.4747  0.2556  0.0610
   19CHTO  H137 7795   4.779   6.231   0.643  0.5852  0.1356 -1.2340
   19CHTO   O45 7796   5.155   6.742   0.663  0.7435  0.3287  0.0129
   19CHTO   C67 7797   5.097   6.826   0.755  0.8579 -0.1526 -0.3227
   19CHTO  H124 7798   5.035   6.777   0.830  1.4181  1.2106  1.0426
   19CHTO   C65 7799   5.205   6.915   0.827 -0.1516  0.0177  0.7773
   19CHTO  H122 7800   5.293   6.921   0.763 -1.1618  3.3263 -0.4141
   19CHTO   O44 7801   5.234   6.840   0.938 -0.5056 -0.1796  0.0386
   19CHTO  H102 7802   5.322   6.809   0.929 -0.8734 -1.0060 -0.7746
   19CHTO   C63 7803   5.158   7.067   0.862  0.1913 -0.7736 -0.1532
   19CHTO  H120 7804   5.162   7.131   0.775 -0.2668  0.6417  0.8438
   19CHTO   N11 7805   5.247   7.146   0.956  0.6856  0.4973  0.2153
   19CHTO  H108 7806   5.348   7.141   0.920 -0.2885  1.9978 -2.9075
   19CHTO  H109 7807   5.222   7.250   0.963 -0.7053  0.4888 -3.3879
   19CHTO   C61 7808   5.005   7.067   0.883 -0.4569 -0.4667 -0.6336
   19CHTO  H118 7809   4.977   7.172   0.897 -0.6818 -0.7962  1.4790
   19CHTO   O40 7810   4.939   7.020   0.763  0.5147 -0.0211  0.2716
   19CHTO   C68 7811   5.002   6.922   0.675 -0.2746 -0.6928 -0.0605
   19CHTO  H125 7812   5.064   6.981   0.604 -0.1809  1.3551  1.6621
   19CHTO   C72 7813   4.892   6.848   0.586 -0.0072 -0.4274  0.5179
   19CHTO   O48 7814   4.800   6.777   0.658  0.1244 -0.6870  0.2082
   19CHTO  H105 7815   4.732   6.836   0.685 -2.0404 -1.5983 -2.9085
   19CHTO   O38 7816   4.967   6.997   1.006 -0.0882 -0.4624  0.0284
   19CHTO   C55 7817   4.831   6.962   1.035  0.6033 -0.6687 -0.1292
   19CHTO  H112 7818   4.782   6.951   0.937  0.0490  0.4491  0.0161
   19CHTO   C56 7819   4.770   7.089   1.117 -0.2043 -0.4810  0.7054
   19CHTO  H113 7820   4.831   7.099   1.208 -0.5372  3.6896  0.5508
   19CHTO   O42 7821   4.780   7.215   1.050 -0.2937  0.0924  0.2420
   19CHTO  H100 7822   4.716   7.222   0.981  0.5451 -0.8012 -0.6326
   19CHTO   C57 7823   4.616   7.050   1.157  0.0555  0.1645 -0.4076
   19CHTO  H114 7824   4.571   7.047   1.058  1.7660  1.7102 -1.2555
   19CHTO   N10 7825   4.547   7.144   1.248  0.1521  0.4023  0.6263
   19CHTO  H106 7826   4.441   7.126   1.245 -0.1704  1.0274  5.5154
   19CHTO  H107 7827   4.569   7.249   1.233  1.2565 -0.0957 -1.5595
   19CHTO   C58 7828   4.611   6.909   1.221 -0.0126 -0.2752  0.0638
   19CHTO  H115 7829   4.653   6.912   1.323  0.0097  0.8259  0.0375
   19CHTO   O37 7830   4.677   6.815   1.140 -0.6504  0.5281  0.7390
   19CHTO   C59 7831   4.819   6.841   1.131 -0.1807  0.0463  0.1480
   19CHTO  H116 7832   4.869   6.865   1.225  1.1080 -1.0239 -0.2443
   19CHTO   C70 7833   4.895   6.721   1.087 -0.4426 -0.0968  0.2509
   19CHTO   O46 7834   4.847   6.648   0.975 -0.0526 -0.2308  0.1824
   19CHTO  H103 7835   4.755   6.638   0.988 -0.7502  4.5693 -0.1534
   19CHTO   O39 7836   4.443   6.853   1.244 -0.5932 -1.2157  0.0825
   19CHTO   C60 7837   4.392   6.793   1.126  0.2695  0.8333 -0.6257
   19CHTO  H117 7838   4.455   6.808   1.038  1.1641 -0.9257 -0.3086
   19CHTO   C62 7839   4.372   6.640   1.149 -0.2634  0.4846  0.2120
   19CHTO  H119 7840   4.472   6.600   1.179  0.0275  0.6943 -0.4740
   19CHTO   O43 7841   4.288   6.623   1.265 -0.1079  0.2389  0.0148
   19CHTO  H101 7842   4.263   6.533   1.270 -1.3559  0.5418 -0.6296
   19CHTO   C66 7843   4.321   6.567   1.021 -0.4860 -0.4373 -0.8440
   19CHTO  H123 7844   4.390   6.588   0.939  1.3109  1.2288  1.0321
   19CHTO   N12 7845   4.319   6.418   1.035 -0.6315  0.3475  0.4570
   19CHTO  H110 7846   4.406   6.380   1.086 -0.4917  0.1576  0.0728
   19CHTO  H111 7847   4.319   6.386   0.932  0.8372  0.6730  0.3360
   19CHTO   C69 7848   4.181   6.625   0.990 -0.5857 -1.1087 -0.3013
   19CHTO  H126 7849   4.108   6.602   1.070 -1.6432  0.5305 -0.7714
   19CHTO   O41 7850   4.183   6.777   0.982  0.6949 -0.0703 -0.2234
   19CHTO   C64 7851   4.259   6.855   1.098  0.4031  0.0377 -0.4883
   19CHTO  H121 7852   4.203   6.848   1.194 -0.8284  1.6466 -1.0558
   19CHTO   C71 7853   4.265   7.004   1.056  0.4600 -0.4272  0.1282
   19CHTO   O47 7854   4.146   7.045   0.990 -0.0637 -0.3040  0.5727
   19CHTO  H104 7855   4.147   7.011   0.903 -2.1247  0.2393  0.2941
   19CHTO   O34 7856   4.135   6.573   0.865  0.3255 -0.4283  0.2787
   19CHTO   C49 7857   4.020   6.620   0.768  0.0154  0.0856 -0.0452
   19CHTO   H91 7858   3.927   6.637   0.824 -0.2282  0.2551 -0.5035
   19CHTO   C47 7859   3.997   6.502   0.668  0.1195 -0.3305 -0.2669
   19CHTO   H89 7860   3.893   6.514   0.631  0.5427  0.0833 -1.3495
   19CHTO   O33 7861   4.003   6.369   0.724  0.0790 -0.0878  0.2815
   19CHTO   H70 7862   4.018   6.302   0.660  2.5559  1.4031 -0.7696
   19CHTO   C45 7863   4.108   6.505   0.541 -0.4037  0.1157  0.0909
   19CHTO   H87 7864   4.164   6.411   0.552 -1.3842 -0.4912 -0.0872
   19CHTO    N8 7865   4.047   6.498   0.407  0.6513 -0.0505 -0.3220
   19CHTO   H75 7866   4.123   6.505   0.331  2.7327 -0.9466  1.6046
   19CHTO   H76 7867   4.010   6.396   0.402 -2.4216  0.9284  0.8990
   19CHTO   C43 7868   4.203   6.625   0.552 -0.1643  0.1701 -0.7324
   19CHTO   H85 7869   4.263   6.600   0.639  4.2424 -2.9438 -4.3745
   19CHTO   O29 7870   4.132   6.744   0.571  0.1148  0.4350  0.0014
   19CHTO   C50 7871   4.060   6.754   0.692 -0.0732 -0.2220 -0.5192
   19CHTO   H92 7872   4.128   6.804   0.764 -2.1676  0.9289  0.7134
   19CHTO   C54 7873   3.940   6.849   0.677 -0.2374  0.0091 -0.7139
   19CHTO   O36 7874   3.981   6.980   0.637  0.6399  0.1845  0.3603
   19CHTO   H72 7875   3.959   7.048   0.698 -1.5350  1.2020 -1.4704
   19CHTO   O27 7876   4.308   6.630   0.448 -0.0850  0.3068 -0.5804
   19CHTO   C37 7877   4.414   6.598   0.354 -0.7871  0.3212 -0.8732
   19CHTO   H79 7878   4.406   6.490   0.333  0.0056 -0.1615  1.2259
   19CHTO   C38 7879   4.412   6.658   0.208 -0.6179  0.0120 -0.5866
   19CHTO   H80 7880   4.399   6.767   0.219 -0.6752 -0.1544  1.1363
   19CHTO   O31 7881   4.296   6.611   0.139  0.2599  0.4124 -0.7517
   19CHTO   H68 7882   4.222   6.655   0.176  2.0771 -0.6395  4.6789
   19CHTO   C39 7883   4.547   6.629   0.136  1.0664  0.0438 -0.6468
   19CHTO   H81 7884   4.542   6.523   0.110  1.0168 -0.2774  0.6323
   19CHTO    N7 7885   4.554   6.697   0.003 -0.4519 -0.0823  0.0753
   19CHTO   H73 7886   4.622   6.781   0.003  0.4483 -0.7925 -0.9421
   19CHTO   H74 7887   4.556   6.632  -0.083 -0.8994  1.0038 -0.7618
   19CHTO   C40 7888   4.669   6.650   0.234  0.3323 -0.5910  0.7788
   19CHTO   H82 7889   4.698   6.755   0.246 -1.8572  0.1422 -0.0622
   19CHTO   O26 7890   4.652   6.581   0.362 -0.3685  0.1425  0.5537
   19CHTO   C41 7891   4.542   6.627   0.436  0.4072 -0.2961  0.2496
   19CHTO   H83 7892   4.542   6.735   0.460  1.5806 -0.1401 -0.4312
   19CHTO   C52 7893   4.549   6.567   0.580 -0.1863 -0.2949 -0.7504
   19CHTO   O35 7894   4.551   6.426   0.588  0.4333 -0.4977  0.1632
   19CHTO   H71 7895   4.595   6.376   0.522  0.6766  0.3552 -0.3306
   19CHTO   O28 7896   4.790   6.594   0.184  0.0128  0.4450 -0.0501
   19CHTO   C42 7897   4.921   6.640   0.163 -0.0576  0.0365 -0.3236
   19CHTO   H84 7898   4.936   6.700   0.252 -2.4100  2.0822 -1.2581
   19CHTO   C44 7899   4.945   6.737   0.039 -0.1177  0.0785  0.1357
   19CHTO   H86 7900   4.908   6.683  -0.048 -1.0967  1.1612 -0.1369
   19CHTO   O32 7901   4.872   6.861   0.056  0.0438 -0.2679 -0.1547
   19CHTO   H69 7902   4.884   6.905   0.138  2.4771  1.6980 -1.4909
   19CHTO   C48 7903   5.099   6.775   0.014  0.4228 -0.1843 -0.2049
   19CHTO   H90 7904   5.133   6.839   0.096  0.8543  2.7489 -2.5622
   19CHTO    N9 7905   5.128   6.858  -0.107  0.0137  0.0999  0.0609
   19CHTO   H77 7906   5.101   6.800  -0.194 -2.2865 -0.4950  1.1220
   19CHTO   H78 7907   5.074   6.951  -0.103  0.7282  0.4667  2.1096
   19CHTO   C51 7908   5.183   6.642   0.001  0.1820  0.1614  0.2744
   19CHTO   H93 7909   5.148   6.576  -0.078 -2.8310  1.2026  0.6753
   19CHTO   O30 7910   5.168   6.579   0.128 -0.1081 -0.9409 -0.4720
   19CHTO   C46 7911   5.028   6.527   0.161 -0.4085 -0.4516  0.7753
   19CHTO   H88 7912   4.980   6.453   0.098 -1.3936  1.6404 -0.9775
   19CHTO   C53 7913   5.025   6.454   0.296  0.5621 -0.8555 -0.1997
   19CHTO   O72 7914   5.126   6.351   0.309  0.0270 -0.6175 -0.0874
   19CHTO  H199 7915   5.202   6.382   0.354 -1.0521 -0.7928  1.8759
   19CHTO   O22 7916   5.331   6.656  -0.003  0.3934 -0.1869  0.6507
   19CHTO   C31 7917   5.417   6.542  -0.043 -0.2135 -0.2189 -0.1350
   19CHTO   H59 7918   5.349   6.454  -0.047 -2.4132  1.3243  1.7651
   19CHTO   C29 7919   5.480   6.558  -0.181 -0.6473  0.1496  1.1133
   19CHTO   H57 7920   5.543   6.648  -0.190 -0.5959  0.0592  0.5387
   19CHTO   O21 7921   5.379   6.588  -0.279  0.0803  0.0614 -0.3407
   19CHTO   H37 7922   5.421   6.616  -0.358  1.5145 -1.2230 -0.0459
   19CHTO   C27 7923   5.569   6.435  -0.234 -0.3774 -0.1907 -0.5866
   19CHTO   H55 7924   5.500   6.351  -0.254 -1.0887  0.2967 -0.2222
   19CHTO    N5 7925   5.647   6.465  -0.359  0.2854 -0.0014  0.5895
   19CHTO   H43 7926   5.753   6.455  -0.346  0.3243 -0.6926 -0.1972
   19CHTO   H44 7927   5.613   6.557  -0.405  1.4148  0.2145  0.1741
   19CHTO   C25 7928   5.659   6.396  -0.110 -0.1368 -0.1872  0.4303
   19CHTO   H53 7929   5.738   6.471  -0.096 -0.1681  0.0371 -0.5837
   19CHTO   O17 7930   5.585   6.378   0.016 -0.5468 -0.0838  0.7335
   19CHTO   C32 7931   5.528   6.504   0.056 -0.6672 -0.0232  0.2984
   19CHTO   H60 7932   5.606   6.580   0.056 -0.8485  0.1672 -0.9246
   19CHTO   C36 7933   5.469   6.483   0.200 -0.3816 -0.6453 -0.4326
   19CHTO   O25 7934   5.578   6.480   0.298  0.7571 -0.3041  0.1480
   19CHTO   H40 7935   5.556   6.435   0.378 -0.7134  0.0236 -0.0551
   19CHTO   O15 7936   5.725   6.265  -0.144 -0.2486  0.1761  0.0222
   19CHTO   C19 7937   5.708   6.124  -0.134  0.4420 -0.4465 -0.8254
   19CHTO   H47 7938   5.719   6.093  -0.029  0.6573 -1.3833 -1.1197
   19CHTO   C20 7939   5.571   6.071  -0.183  0.5084  0.2011 -0.1221
   19CHTO   H48 7940   5.547   6.108  -0.284 -2.5845 -1.8623 -0.2225
   19CHTO   O19 7941   5.481   6.137  -0.092  0.2491 -0.4159  0.4324
   19CHTO   H35 7942   5.446   6.083  -0.024  0.4365  0.0264  0.8775
   19CHTO   C21 7943   5.558   5.908  -0.176 -0.1526  0.0754 -0.7890
   19CHTO   H49 7944   5.562   5.875  -0.072 -1.4558 -3.0164 -1.6714
   19CHTO    N4 7945   5.435   5.843  -0.229  0.1727 -0.6916 -0.2639
   19CHTO   H41 7946   5.365   5.913  -0.272 -1.3837 -1.0557  1.6269
   19CHTO   H42 7947   5.452   5.766  -0.303  1.5541 -1.1042  0.4645
   19CHTO   C22 7948   5.683   5.854  -0.255  0.1697  0.7998  0.4851
   19CHTO   H50 7949   5.668   5.866  -0.362  0.0520 -0.8644  0.3139
   19CHTO   O14 7950   5.810   5.911  -0.208  0.3838 -0.3524  0.1437
   19CHTO   C23 7951   5.820   6.055  -0.208 -0.4824  0.0114  0.9049
   19CHTO   H51 7952   5.821   6.093  -0.312 -2.0003 -0.1039  0.8451
   19CHTO   C34 7953   5.955   6.102  -0.150 -0.7252 -0.0054  0.1583
   19CHTO   O23 7954   6.061   6.055  -0.228 -0.0850 -0.9706 -0.3172
   19CHTO   H38 7955   6.141   6.066  -0.180  0.6081 -0.1489 -1.6229
   19CHTO   O16 7956   5.707   5.718  -0.215 -0.0556 -0.4093 -0.4084
   19CHTO   C24 7957   5.738   5.588  -0.306 -0.0521  0.0636 -0.1782
   19CHTO   H52 7958   5.801   5.516  -0.253  1.0268  1.0376 -0.1132
   19CHTO   C26 7959   5.818   5.611  -0.436  0.3501  0.0573 -0.4417
   19CHTO   H54 7960   5.758   5.686  -0.491  1.1706  0.7887 -0.3436
   19CHTO   O20 7961   5.951   5.662  -0.401 -0.0413  0.0758 -0.5807
   19CHTO   H36 7962   6.011   5.664  -0.473  1.4123 -0.6631  0.5922
   19CHTO   C30 7963   5.836   5.483  -0.521 -0.3937 -0.4278  0.3593
   19CHTO   H58 7964   5.917   5.425  -0.475 -0.3684  0.0828  0.9736
   19CHTO    N6 7965   5.875   5.520  -0.662  0.4804  0.1284 -0.7659
   19CHTO   H45 7966   5.871   5.424  -0.712  0.4799 -1.0593  1.4402
   19CHTO   H46 7967   5.807   5.591  -0.707  0.6122  0.6154 -0.1995
   19CHTO   C33 7968   5.704   5.400  -0.517 -0.3436 -0.1129 -0.2503
   19CHTO   H61 7969   5.628   5.449  -0.580 -0.7815 -2.7338 -1.8445
   19CHTO   O18 7970   5.656   5.391  -0.383  0.0729 -0.2745 -0.5612
   19CHTO   C28 7971   5.605   5.517  -0.330 -0.5258  0.7987 -0.2098
   19CHTO   H56 7972   5.545   5.568  -0.405  0.4544  1.8280 -0.3038
   19CHTO   C35 7973   5.540   5.489  -0.196 -0.6549  0.1846  0.3415
   19CHTO   O24 7974   5.400   5.484  -0.199  0.4243  0.5802 -0.0176
   19CHTO   H39 7975   5.361   5.526  -0.125  0.3469  0.9424 -0.2601
   19CHTO    O9 7976   5.725   5.270  -0.571 -0.0803  0.0447  0.0641
   19CHTO   C13 7977   5.590   5.180  -0.607  0.2644  0.3391 -0.0783
   19CHTO   H26 7978   5.554   5.212  -0.707 -0.5859  1.9849  0.7370
   19CHTO   C11 7979   5.472   5.189  -0.497  0.1818 -0.0734  0.0198
   19CHTO   H24 7980   5.442   5.294  -0.486  0.8491  0.3213 -1.6702
   19CHTO    O8 7981   5.532   5.147  -0.370 -0.0719 -0.0926 -0.2336
   19CHTO    H3 7982   5.554   5.056  -0.376  0.3377  0.0963 -1.7251
   19CHTO    C9 7983   5.350   5.111  -0.545  0.2988 -1.1082  0.2275
   19CHTO   H22 7984   5.325   5.156  -0.642 -0.1520 -2.8619 -0.4985
   19CHTO    N2 7985   5.231   5.128  -0.458 -0.5057 -0.2539 -0.1368
   19CHTO   H10 7986   5.186   5.226  -0.468 -2.4415 -1.0414  0.5675
   19CHTO   H11 7987   5.270   5.117  -0.358 -0.9981 -0.2359  0.0607
   19CHTO    C7 7988   5.396   4.959  -0.567  0.0317 -0.0384  0.4556
   19CHTO   H20 7989   5.318   4.910  -0.630  0.5724 -0.1774 -0.1020
   19CHTO    O4 7990   5.511   4.938  -0.655 -0.6565 -0.6975  0.3384
   19CHTO   C14 7991   5.630   5.031  -0.644  0.5422  0.2802  0.0957
   19CHTO   H27 7992   5.681   5.032  -0.742 -1.4305 -1.2594 -0.9837
   19CHTO   C18 7993   5.732   4.960  -0.546 -0.3490 -0.5264 -1.0446
   19CHTO   O13 7994   5.794   4.842  -0.601  0.2181 -0.2171 -0.0516
   19CHTO    H7 7995   5.835   4.851  -0.685 -2.3093 -0.0204 -1.2914
   19CHTO    O2 7996   5.417   4.881  -0.430  0.1458 -0.3319 -0.4319
   19CHTO    C1 7997   5.330   4.768  -0.396  0.6029 -0.4221  0.8870
   19CHTO   H14 7998   5.399   4.692  -0.354  0.9231 -0.6928 -0.1223
   19CHTO    C2 7999   5.244   4.700  -0.509  0.0038 -0.2982  0.3649
   19CHTO   H15 8000   5.177   4.777  -0.549  2.4476  1.6944  0.0160
   19CHTO    O6 8001   5.331   4.669  -0.617 -0.1241 -0.1125 -0.7010
   19CHTO    H1 8002   5.370   4.585  -0.608 -1.3543 -0.5815  0.2846
   19CHTO    C3 8003   5.157   4.574  -0.447  0.0744 -0.4917  0.6773
   19CHTO   H16 8004   5.234   4.506  -0.410 -0.1802 -1.6801 -0.9371
   19CHTO    N1 8005   5.071   4.506  -0.554 -0.1971  0.0248 -0.2463
   19CHTO    H8 8006   5.081   4.550  -0.652  2.0181  1.0396  0.3997
   19CHTO    H9 8007   5.102   4.402  -0.559  3.0942  1.0384 -2.7552
   19CHTO    C4 8008   5.067   4.612  -0.324  0.1575  0.1697  0.4209
   19CHTO   H17 8009   4.978   4.661  -0.364  0.7946  2.0256  1.2129
   19CHTO    O1 8010   5.149   4.688  -0.236  0.1400  0.4275 -0.6948
   19CHTO    C5 8011   5.219   4.804  -0.289 -0.0229  0.0814  0.2252
   19CHTO   H18 8012   5.144   4.870  -0.333 -1.2958 -0.6306  1.2931
   19CHTO   C16 8013   5.285   4.872  -0.166 -0.0492 -0.0548 -0.0329
   19CHTO   O11 8014   5.353   4.784  -0.080  0.3618  0.1896 -0.0472
   19CHTO    H5 8015   5.290   4.722  -0.048 -1.3329  1.7286 -0.2921
   19CHTO    O3 8016   5.035   4.496  -0.252  0.4375 -0.5540  0.0969
   19CHTO    C6 8017   4.917   4.475  -0.164  0.3301  0.3297  0.2165
   19CHTO   H19 8018   4.887   4.571  -0.120  1.6137  0.3874  1.0211
   19CHTO    C8 8019   4.801   4.415  -0.242  0.0666 -0.0848 -0.3241
   19CHTO   H21 8020   4.828   4.318  -0.285  1.3964  0.6092 -1.0860
   19CHTO    O7 8021   4.774   4.497  -0.356 -0.4548  0.0925  0.2199
   19CHTO    H2 8022   4.849   4.543  -0.390 -0.7711  1.4730  1.3415
   19CHTO   C12 8023   4.675   4.413  -0.150 -0.4316  0.5325 -0.0303
   19CHTO   H25 8024   4.649   4.517  -0.120 -2.6035  0.0148 -0.0668
   19CHTO    N3 8025   4.551   4.361  -0.220  0.5247  0.0643  0.1773
   19CHTO   H12 8026   4.560   4.310  -0.314 -1.0853 -0.7289  0.4517
   19CHTO   H13 8027   4.483   4.439  -0.249 -0.2489  0.0091  1.7746
   19CHTO   C15 8028   4.704   4.332  -0.019 -0.4351  0.3945 -0.5707
   19CHTO   H28 8029   4.709   4.226  -0.044 -0.7892  0.6250 -1.6078
   19CHTO   O10 8030   4.594   4.372   0.107  0.0872  0.0862  0.1155
   19CHTO    H4 8031   4.540   4.296   0.119  2.6875 -1.8794 -0.0186
   19CHTO    O5 8032   4.831   4.375   0.034 -0.2831 -0.0184  0.3343
   19CHTO   C10 8033   4.947   4.383  -0.049  0.5684  0.2117 -0.1617
   19CHTO   H23 8034   4.967   4.286  -0.093  0.3320 -0.9646  2.2268
   19CHTO   C17 8035   5.064   4.411   0.035 -0.3656 -0.2313 -0.1087
   19CHTO   O12 8036   5.049   4.537   0.107  0.3341  0.9447 -0.4078
   19CHTO    H6 8037   5.135   4.575   0.101  0.7659 -0.2746 -2.6552
   20CHTO  H203 8038   5.090   9.519   0.901 -2.4104  0.1561 -1.8184
   20CHTO   O82 8039   5.045   9.580   0.956 -0.2088  0.2757 -0.0515
   20CHTO  C123 8040   5.022   9.709   0.890  0.1917  0.5067  0.0160
   20CHTO  H227 8041   4.927   9.703   0.833 -1.3686 -0.8547  2.6863
   20CHTO   O77 8042   4.980   9.797   0.999  0.2252  0.6486 -0.0311
   20CHTO  C118 8043   4.943   9.930   0.961  1.3487  0.2636  0.0858
   20CHTO  H222 8044   4.853   9.928   0.899  2.2244 -0.4544 -1.1879
   20CHTO  C125 8045   4.907   9.992   1.108  0.3600 -0.1371  0.2730
   20CHTO   O84 8046   4.851  10.124   1.127 -0.3922 -0.0932  0.3836
   20CHTO  H205 8047   4.837  10.131   1.219  2.8834  0.0387  0.9485
   20CHTO  C114 8048   5.058  10.006   0.887 -0.4591 -0.0704 -0.4785
   20CHTO  H218 8049   5.141  10.021   0.956 -1.3268  1.4475  0.2448
   20CHTO  C116 8050   5.107   9.917   0.769 -0.6406  0.0162  0.3272
   20CHTO  H220 8051   5.024   9.904   0.696  0.5225 -0.4611 -0.9461
   20CHTO   O79 8052   5.210   9.977   0.687  0.0781  0.4644 -0.2366
   20CHTO  H201 8053   5.189   9.958   0.597  0.9261 -0.9404 -0.1566
   20CHTO  C120 8054   5.146   9.773   0.809  0.4228 -0.1707  0.2516
   20CHTO  H224 8055   5.230   9.771   0.882  1.9254  1.4909 -1.3937
   20CHTO   N21 8056   5.191   9.677   0.705  0.2070  0.2450  0.0430
   20CHTO  H211 8057   5.103   9.623   0.674  1.5640 -1.7936 -0.4125
   20CHTO  H212 8058   5.265   9.603   0.733 -0.8772 -1.4711 -1.4501
   20CHTO   O75 8059   5.004  10.142   0.870 -0.0658  0.0385  0.5394
   20CHTO  C112 8060   5.113  10.259   0.826  1.1437 -0.4034 -0.3051
   20CHTO  H216 8061   5.119  10.270   0.717  2.0844  1.8327 -0.0685
   20CHTO   O73 8062   5.238  10.233   0.881  0.2272  0.3045 -0.4677
   20CHTO  C113 8063   5.336  10.320   0.830  0.2955  0.5381 -0.7561
   20CHTO  H217 8064   5.342  10.313   0.719 -1.1534  0.3977 -0.8330
   20CHTO  C124 8065   5.474  10.283   0.886  0.0546  0.0250 -0.0435
   20CHTO   O83 8066   5.540  10.168   0.823  0.0241  0.3822  0.5321
   20CHTO  H204 8067   5.505  10.093   0.868 -1.9357  0.9232 -0.0463
   20CHTO  C109 8068   5.308  10.464   0.870 -0.0868 -0.5063  0.2991
   20CHTO  H213 8069   5.329  10.471   0.978  1.5781  2.0632 -0.1306
   20CHTO  C110 8070   5.159  10.517   0.842 -0.1292  0.4040  0.0641
   20CHTO  H214 8071   5.147  10.537   0.736 -4.0098 -1.4241  0.0893
   20CHTO   O78 8072   5.128  10.630   0.927  0.4070  0.4351 -0.0430
   20CHTO  H200 8073   5.035  10.636   0.925  0.2914 -1.0585 -0.0312
   20CHTO  C111 8074   5.057  10.398   0.871 -0.1039  0.1764 -0.2467
   20CHTO  H215 8075   5.033  10.400   0.978 -1.3355  0.6324 -0.5231
   20CHTO   N19 8076   4.931  10.429   0.801  0.0989  0.7996  0.1084
   20CHTO  H207 8077   4.847  10.437   0.869 -1.2284  0.7100 -1.4940
   20CHTO  H208 8078   4.901  10.344   0.741 -1.5075  0.3994  1.4325
   20CHTO   O74 8079   5.396  10.555   0.801  0.0751 -0.2541 -0.4270
   20CHTO  C115 8080   5.435  10.674   0.855  0.3426 -0.6904 -0.1171
   20CHTO  H219 8081   5.373  10.706   0.939  0.0820  1.0711 -0.9596
   20CHTO   O76 8082   5.573  10.669   0.909  0.3671 -0.5554  0.1752
   20CHTO  C122 8083   5.636  10.789   0.953  0.0350 -0.3653 -0.6638
   20CHTO  H226 8084   5.738  10.760   0.980 -0.2333 -0.1819  0.5894
   20CHTO  C126 8085   5.575  10.863   1.083 -0.6465 -0.0348  0.0725
   20CHTO   O85 8086   5.588  10.773   1.194  0.4904 -0.8870 -0.1364
   20CHTO  H206 8087   5.678  10.749   1.207  1.0933  1.1952 -0.2780
   20CHTO  C121 8088   5.643  10.895   0.837  0.2592  0.1309  0.4449
   20CHTO  H225 8089   5.691  10.992   0.863 -0.3465  1.8832 -4.4461
   20CHTO   O81 8090   5.727  10.842   0.726 -0.5056 -0.7994  0.0845
   20CHTO  H202 8091   5.818  10.850   0.744 -0.3421 -0.5214 -0.8398
   20CHTO  C119 8092   5.496  10.924   0.793  0.1606  0.2534 -0.0857
   20CHTO  H223 8093   5.449  10.975   0.877 -1.7933  1.2340 -1.7138
   20CHTO  C117 8094   5.412  10.792   0.754  0.1205 -0.2472 -0.0545
   20CHTO  H221 8095   5.451  10.741   0.667  2.2644 -1.4517  1.5563
   20CHTO   N20 8096   5.269  10.824   0.726  0.5577 -0.6430 -0.2332
   20CHTO  H209 8097   5.247  10.801   0.623  1.6368  0.8234 -0.7929
   20CHTO  H210 8098   5.202  10.771   0.793  1.1017 -0.2504  0.6329
   20CHTO   O80 8099   5.482  11.042   0.672 -0.4037  0.0570  0.5673
   20CHTO  C103 8100   5.510  11.185   0.707 -0.1789  0.6470 -0.1790
   20CHTO  H190 8101   5.446  11.232   0.782  1.5909  0.4470  1.4915
   20CHTO  C101 8102   5.665  11.227   0.755 -0.5791 -0.5213  0.3279
   20CHTO  H188 8103   5.740  11.172   0.698 -0.9283  1.4193 -2.1074
   20CHTO   O68 8104   5.673  11.220   0.922 -0.2106  0.1396 -0.3874
   20CHTO  H168 8105   5.758  11.218   0.961 -0.1502 -0.4746 -0.5462
   20CHTO   C99 8106   5.711  11.379   0.716 -0.2723  0.0506  0.4683
   20CHTO  H186 8107   5.648  11.453   0.769 -1.7946 -1.0586  0.2255
   20CHTO   N17 8108   5.851  11.423   0.742  0.0076 -0.6264  0.1958
   20CHTO  H174 8109   5.876  11.525   0.718 -2.5615  0.0847  0.3682
   20CHTO  H175 8110   5.879  11.402   0.844  0.9246 -1.5851 -0.2463
   20CHTO   C97 8111   5.666  11.393   0.571 -0.2866 -0.2132  0.1476
   20CHTO  H184 8112   5.713  11.320   0.502 -1.8865 -2.6315  1.5539
   20CHTO   O64 8113   5.524  11.385   0.568  0.2856 -0.0578 -0.1786
   20CHTO  C104 8114   5.471  11.251   0.570  0.2611  0.1670  0.2578
   20CHTO  H191 8115   5.514  11.195   0.486  2.2160 -0.9042  1.9064
   20CHTO  C108 8116   5.323  11.257   0.547 -0.0994  0.5499 -0.2438
   20CHTO   O71 8117   5.298  11.315   0.420  0.3149  0.3147 -0.0912
   20CHTO  H171 8118   5.205  11.314   0.411 -0.0534 -0.8026  2.9833
   20CHTO   O62 8119   5.685  11.523   0.511 -0.0569 -0.5860  0.9135
   20CHTO   C91 8120   5.716  11.529   0.374 -0.3861  0.1179  1.2414
   20CHTO  H178 8121   5.703  11.429   0.332  0.6499  0.6592 -0.4096
   20CHTO   C92 8122   5.865  11.562   0.350 -0.2242 -1.1505  0.0430
   20CHTO  H179 8123   5.884  11.651   0.412  0.1443 -2.3965  1.7240
   20CHTO   O66 8124   5.948  11.454   0.404 -0.3406 -0.3112 -0.3633
   20CHTO  H166 8125   5.981  11.469   0.490 -0.3520 -0.3366 -0.3544
   20CHTO   C93 8126   5.913  11.599   0.203 -0.6522  0.5304 -0.6493
   20CHTO  H180 8127   5.925  11.507   0.144  0.4689  0.7593 -0.7754
   20CHTO   N16 8128   6.040  11.665   0.194  0.5972  1.0277  0.2131
   20CHTO  H172 8129   6.050  11.712   0.097 -1.4037  0.2670 -0.3833
   20CHTO  H173 8130   6.115  11.589   0.207 -0.3524  0.1154  0.3938
   20CHTO   C94 8131   5.799  11.686   0.133 -1.2261 -0.5469 -0.4968
   20CHTO  H181 8132   5.798  11.788   0.170  2.2203 -0.4169 -0.5909
   20CHTO   O61 8133   5.671  11.623   0.147  0.0378 -0.0229 -0.7989
   20CHTO   C95 8134   5.628  11.628   0.286  0.5669 -0.5482 -0.1843
   20CHTO  H182 8135   5.639  11.729   0.325  2.1137 -0.7843  0.0371
   20CHTO  C106 8136   5.472  11.595   0.301  0.0450  0.5552  0.5749
   20CHTO   O69 8137   5.390  11.702   0.266 -0.0009  0.0480  0.9980
   20CHTO  H169 8138   5.364  11.695   0.176 -0.4115  0.3292  1.0955
   20CHTO   O63 8139   5.842  11.700  -0.036  0.0555 -0.6103 -0.4542
   20CHTO   C96 8140   5.801  11.582  -0.121 -0.1131  0.0791  0.1945
   20CHTO  H183 8141   5.805  11.484  -0.073 -1.6794 -1.0169 -1.8382
   20CHTO   C98 8142   5.903  11.567  -0.235  0.2056 -0.2312  0.1551
   20CHTO  H185 8143   6.005  11.577  -0.194  0.9910 -0.4722 -1.7071
   20CHTO   O67 8144   5.901  11.434  -0.284 -0.3988 -0.0557  0.2759
   20CHTO  H167 8145   5.901  11.373  -0.212 -1.0048  0.1035  0.4186
   20CHTO  C102 8146   5.891  11.679  -0.349  0.1555 -0.5247  0.4900
   20CHTO  H189 8147   5.937  11.635  -0.439  1.9490  0.1180  1.0566
   20CHTO   N18 8148   5.969  11.804  -0.320  0.3982 -0.0989 -0.4362
   20CHTO  H176 8149   6.052  11.822  -0.387  0.2390  1.3552 -0.2602
   20CHTO  H177 8150   5.906  11.892  -0.313  0.9932  0.4887 -2.2199
   20CHTO  C105 8151   5.741  11.707  -0.384 -0.4561  0.4200 -0.4980
   20CHTO  H192 8152   5.718  11.810  -0.357  0.8505  0.7284 -0.5041
   20CHTO   O65 8153   5.642  11.618  -0.333  0.3445  0.6941 -0.3884
   20CHTO  C100 8154   5.652  11.608  -0.185 -0.7077  0.4594  0.3752
   20CHTO  H187 8155   5.606  11.697  -0.140  1.5409  1.8692 -0.0480
   20CHTO  C107 8156   5.559  11.493  -0.142  0.0909  0.2814  0.8273
   20CHTO   O70 8157   5.614  11.369  -0.199  0.3344 -0.7274 -0.2670
   20CHTO  H170 8158   5.623  11.313  -0.124  0.7714  0.4841  0.6017
   20CHTO   O57 8159   5.756  11.700  -0.543  0.0923  0.0742  0.9648
   20CHTO   C85 8160   5.665  11.785  -0.606 -0.2329  0.1840 -0.4688
   20CHTO  H157 8161   5.650  11.868  -0.534 -0.6961 -1.5532  1.4890
   20CHTO   C83 8162   5.528  11.703  -0.614  0.3505 -0.1253  0.4511
   20CHTO  H155 8163   5.496  11.680  -0.512  0.9008 -0.6365  0.5113
   20CHTO   O56 8164   5.557  11.575  -0.668  0.6592 -0.1233 -0.0464
   20CHTO  H135 8165   5.649  11.566  -0.677  0.5395  0.6565 -2.5291
   20CHTO   C81 8166   5.419  11.782  -0.691 -0.5068  0.2614 -0.6712
   20CHTO  H153 8167   5.409  11.874  -0.634 -1.8528  0.2798 -0.9029
   20CHTO   N14 8168   5.282  11.718  -0.683 -0.0319 -0.2315 -0.4574
   20CHTO  H141 8169   5.247  11.727  -0.582 -0.3479 -1.8694 -0.4161
   20CHTO  H142 8170   5.210  11.766  -0.746  1.3806  1.9818 -0.4428
   20CHTO   C79 8171   5.473  11.821  -0.833 -0.0591 -0.3567  0.1552
   20CHTO  H151 8172   5.392  11.874  -0.882  1.4887  1.7337 -0.2048
   20CHTO   O52 8173   5.590  11.908  -0.823  0.6622  0.1843  0.5101
   20CHTO   C86 8174   5.698  11.840  -0.749 -0.5573 -0.2061 -0.3349
   20CHTO  H158 8175   5.728  11.756  -0.816 -1.4150 -0.8735  0.1088
   20CHTO   C90 8176   5.819  11.930  -0.745 -0.1809 -0.0132 -0.0567
   20CHTO   O60 8177   5.951  11.880  -0.700  0.0875 -0.0628 -0.0821
   20CHTO  H138 8178   6.006  11.947  -0.665 -0.1572 -1.3277  2.9055
   20CHTO   O50 8179   5.496  11.706  -0.915  0.4362  0.1885  0.0149
   20CHTO   C73 8180   5.539  11.662  -1.048 -0.5814 -0.4650  0.2139
   20CHTO  H145 8181   5.647  11.646  -1.041 -0.1841  1.2880 -1.4449
   20CHTO   C74 8182   5.494  11.752  -1.173  0.5958 -0.1822 -0.3387
   20CHTO  H146 8183   5.539  11.852  -1.165 -2.3730  1.3441 -2.0061
   20CHTO   O54 8184   5.560  11.704  -1.292  0.1180  0.2043 -0.4371
   20CHTO  H133 8185   5.529  11.619  -1.318  1.7399  0.4763 -3.5448
   20CHTO   C75 8186   5.342  11.764  -1.176 -0.1495 -0.5861 -0.0252
   20CHTO  H147 8187   5.312  11.805  -1.078 -0.8003 -2.7039  0.6902
   20CHTO   N13 8188   5.288  11.854  -1.281  0.3589 -0.1914  0.4085
   20CHTO  H139 8189   5.326  11.823  -1.377  0.8428 -2.9808  1.4736
   20CHTO  H140 8190   5.321  11.955  -1.261  1.2969 -0.3423 -0.3293
   20CHTO   C76 8191   5.277  11.617  -1.189 -0.4001 -0.4831  0.4396
   20CHTO  H148 8192   5.311  11.582  -1.287 -1.1887  2.1611 -0.8282
   20CHTO   O49 8193   5.324  11.535  -1.085 -0.7258  0.1778  0.4307
   20CHTO   C77 8194   5.471  11.525  -1.077 -0.2840  0.6643 -0.7123
   20CHTO  H149 8195   5.512  11.480  -1.167  0.2794  0.4939 -0.3692
   20CHTO   C88 8196   5.494  11.418  -0.965  0.1310 -0.0019 -0.2199
   20CHTO   O58 8197   5.445  11.292  -1.014  0.0036  0.0295  0.0040
   20CHTO  H136 8198   5.459  11.231  -0.945 -2.1053  0.9191  1.2781
   20CHTO   O51 8199   5.112  11.628  -1.175  0.2432 -0.3676  0.2385
   20CHTO   C78 8200   5.034  11.502  -1.232  0.5657 -0.2666 -0.2363
   20CHTO  H150 8201   5.105  11.426  -1.270 -0.9839 -1.1660 -1.3640
   20CHTO   C80 8202   4.941  11.556  -1.351 -0.2333 -0.2664 -0.1170
   20CHTO  H152 8203   4.905  11.656  -1.320  2.4217  0.8478 -0.5263
   20CHTO   O55 8204   5.018  11.567  -1.466  0.1667 -0.0315 -0.4313
   20CHTO  H134 8205   4.964  11.614  -1.528  0.6874 -0.8732 -1.5325
   20CHTO   C84 8206   4.820  11.457  -1.374 -0.7102  0.1247 -0.2229
   20CHTO  H156 8207   4.856  11.378  -1.440 -0.3117  1.2363 -1.3635
   20CHTO   N15 8208   4.716  11.522  -1.464 -0.3862  0.2076  0.4308
   20CHTO  H143 8209   4.708  11.465  -1.555 -2.0508 -2.1928  2.0237
   20CHTO  H144 8210   4.618  11.552  -1.432 -0.3758  1.0173 -0.2621
   20CHTO   C87 8211   4.746  11.423  -1.244 -0.7058 -0.3407  0.0653
   20CHTO  H159 8212   4.716  11.516  -1.195 -1.3958 -1.4000  1.6888
   20CHTO   O53 8213   4.856  11.354  -1.160  0.9922  0.7460  0.3341
   20CHTO   C82 8214   4.952  11.449  -1.114 -0.6981  0.5100 -0.1003
   20CHTO  H154 8215   4.904  11.539  -1.076  0.2590  1.4106 -0.9913
   20CHTO   C89 8216   5.053  11.403  -1.001  0.4228  0.6647  0.1602
   20CHTO   O59 8217   5.122  11.285  -1.051  0.1617  0.3008 -0.3545
   20CHTO  H137 8218   5.195  11.321  -1.098 -0.3461 -0.4239 -1.7206
   20CHTO   O45 8219   4.610  11.343  -1.255  0.1721 -0.2034 -0.1993
   20CHTO   C67 8220   4.551  11.329  -1.116  0.4481 -0.8952 -0.1057
   20CHTO  H124 8221   4.604  11.382  -1.037  1.5049 -1.4199 -0.4489
   20CHTO   C65 8222   4.402  11.392  -1.129  0.4626 -0.0217  0.1718
   20CHTO  H122 8223   4.372  11.376  -1.233  1.2448 -1.7846  0.1935
   20CHTO   O44 8224   4.404  11.531  -1.101 -0.2592 -1.3873  0.1161
   20CHTO  H102 8225   4.454  11.579  -1.164 -0.3213 -0.9845  0.3759
   20CHTO   C63 8226   4.290  11.308  -1.046  0.3857  0.0820 -0.5995
   20CHTO  H120 8227   4.259  11.225  -1.109 -0.6147  1.5218 -2.0340
   20CHTO   N11 8228   4.157  11.375  -1.024  0.2789 -0.7677  0.0058
   20CHTO  H108 8229   4.102  11.381  -1.116  1.9938 -0.6984 -1.0245
   20CHTO  H109 8230   4.100  11.358  -0.935  1.7515 -2.3092  0.6772
   20CHTO   C61 8231   4.358  11.264  -0.910  0.9092  0.0143 -0.0466
   20CHTO  H118 8232   4.286  11.194  -0.866  1.1028 -1.1033 -1.4830
   20CHTO   O40 8233   4.483  11.195  -0.932 -0.3527 -0.1686  0.6649
   20CHTO   C68 8234   4.543  11.182  -1.067  0.4234 -0.0797  0.0612
   20CHTO  H125 8235   4.468  11.122  -1.123  1.8622  0.2816 -2.3516
   20CHTO   C72 8236   4.675  11.098  -1.059 -0.0384 -0.3852 -0.1161
   20CHTO   O48 8237   4.770  11.129  -0.953 -0.2504 -0.4284  0.0501
   20CHTO  H105 8238   4.736  11.108  -0.868  0.4476  0.0969  0.4669
   20CHTO   O38 8239   4.372  11.374  -0.818  0.0649 -0.0255  0.7241
   20CHTO   C55 8240   4.388  11.345  -0.677  0.6374 -0.5197  0.1889
   20CHTO  H112 8241   4.408  11.239  -0.654 -0.1180 -0.6022  0.4820
   20CHTO   C56 8242   4.253  11.393  -0.610 -0.1531  0.4199 -0.8447
   20CHTO  H113 8243   4.247  11.501  -0.629  0.7693  0.5656 -0.3570
   20CHTO   O42 8244   4.138  11.325  -0.668 -0.1191 -0.0974 -0.0366
   20CHTO  H100 8245   4.055  11.366  -0.654 -0.1807 -0.7616  1.5522
   20CHTO   C57 8246   4.252  11.384  -0.455  0.3444 -0.0465 -0.4784
   20CHTO  H114 8247   4.258  11.278  -0.428 -0.0500 -0.4488 -1.8703
   20CHTO   N10 8248   4.135  11.439  -0.385  0.1953 -0.2563 -0.4226
   20CHTO  H106 8249   4.080  11.363  -0.331  0.7897  1.8324  3.3651
   20CHTO  H107 8250   4.073  11.487  -0.459  1.2327  0.4330 -0.8526
   20CHTO   C58 8251   4.379  11.456  -0.404  0.7691  0.2448 -0.9894
   20CHTO  H115 8252   4.366  11.566  -0.411  0.4099  0.4006  1.5042
   20CHTO   O37 8253   4.499  11.418  -0.468  0.1422 -0.4900  0.1285
   20CHTO   C59 8254   4.503  11.425  -0.611  0.1488 -0.1409  0.3740
   20CHTO  H116 8255   4.502  11.529  -0.642  0.5420 -0.3975 -0.4934
   20CHTO   C70 8256   4.636  11.367  -0.656  0.1843  0.2084 -0.1470
   20CHTO   O46 8257   4.672  11.386  -0.792 -0.0351 -0.4615  0.5509
   20CHTO  H103 8258   4.760  11.362  -0.815 -1.3814 -2.0493 -3.2703
   20CHTO   O39 8259   4.411  11.416  -0.241 -0.2488  0.2579 -0.0704
   20CHTO   C60 8260   4.522  11.489  -0.176 -0.1501  0.9628 -0.2827
   20CHTO  H117 8261   4.606  11.467  -0.242  1.9182  0.4971  2.4024
   20CHTO   C62 8262   4.502  11.644  -0.168  0.1514  0.2143 -0.6793
   20CHTO  H119 8263   4.494  11.687  -0.270 -1.9998 -0.7983 -0.9695
   20CHTO   O43 8264   4.386  11.667  -0.080  0.1615 -0.5214  0.3819
   20CHTO  H101 8265   4.366  11.759  -0.080  4.4706  0.5240  1.6821
   20CHTO   C66 8266   4.637  11.705  -0.099 -0.2315  0.4737 -0.2648
   20CHTO  H123 8267   4.727  11.674  -0.152 -0.1786  0.3279 -0.0886
   20CHTO   N12 8268   4.635  11.854  -0.098 -0.1703 -0.2667 -0.4456
   20CHTO  H110 8269   4.730  11.891  -0.062 -0.2968  0.0820 -0.4733
   20CHTO  H111 8270   4.623  11.891  -0.198  1.6250 -1.1078 -0.9891
   20CHTO   C69 8271   4.663  11.647   0.046 -0.2002 -0.3798  0.3895
   20CHTO  H126 8272   4.579  11.689   0.106  0.6896 -0.8379  1.9934
   20CHTO   O41 8273   4.666  11.487   0.044 -0.3218 -0.6814  0.3173
   20CHTO   C64 8274   4.548  11.415  -0.040 -0.2008  0.8385  0.4552
   20CHTO  H121 8275   4.455  11.421   0.019 -0.9590 -1.9420 -0.3825
   20CHTO   C71 8276   4.590  11.262  -0.047  0.0496 -0.4095 -0.1085
   20CHTO   O47 8277   4.722  11.263  -0.098 -0.2419 -0.1361  0.1620
   20CHTO  H104 8278   4.727  11.298  -0.184  0.2630  0.8526  0.5790
   20CHTO   O34 8279   4.790  11.693   0.112  1.3782 -0.6649  0.5949
   20CHTO   C49 8280   4.932  11.726   0.169 -0.6381 -0.3238  0.4691
   20CHTO   H91 8281   4.922  11.809   0.239 -1.9351 -3.3356  4.0054
   20CHTO   C47 8282   5.031  11.771   0.058  0.0865  0.0700  0.0415
   20CHTO   H89 8283   5.113  11.820   0.115  0.9020 -1.1938 -0.0283
   20CHTO   O33 8284   4.970  11.864  -0.035  0.4991 -0.1270  0.0865
   20CHTO   H70 8285   5.031  11.893  -0.100 -0.4403  1.6071 -0.0361
   20CHTO   C45 8286   5.082  11.651  -0.034  0.4367  0.0586  0.0374
   20CHTO   H87 8287   5.019  11.647  -0.124  0.6092 -2.3073 -0.0083
   20CHTO    N8 8288   5.216  11.677  -0.087 -0.3033 -0.3240  0.1864
   20CHTO   H75 8289   5.217  11.720  -0.186 -1.2280  2.2564  1.2553
   20CHTO   H76 8290   5.261  11.737  -0.010  0.0386 -2.5747  1.7875
   20CHTO   C43 8291   5.061  11.514   0.046  0.8398 -0.4814  0.2981
   20CHTO   H85 8292   4.955  11.488   0.036  0.4756  0.1211  2.3056
   20CHTO   O29 8293   5.097  11.531   0.175  0.8960 -0.3646 -0.3761
   20CHTO   C50 8294   5.005  11.611   0.247 -0.1720  0.3185  0.3375
   20CHTO   H92 8295   4.918  11.552   0.279  0.5230 -1.2768 -0.6768
   20CHTO   C54 8296   5.061  11.664   0.379  0.0749  0.1412 -0.5913
   20CHTO   O36 8297   5.066  11.570   0.489 -0.1673  0.0477 -0.2021
   20CHTO   H72 8298   5.112  11.494   0.458 -1.1485 -0.0875 -1.3653
   20CHTO   O27 8299   5.128  11.406  -0.016  0.4897 -0.2008 -0.1806
   20CHTO   C37 8300   5.120  11.314  -0.125 -0.6295  0.3966 -0.3992
   20CHTO   H79 8301   5.042  11.241  -0.098 -0.8891  1.7894  2.8184
   20CHTO   C38 8302   5.065  11.378  -0.259  0.1101 -0.6204  0.2628
   20CHTO   H80 8303   5.127  11.463  -0.292 -3.6580  1.9320 -0.5770
   20CHTO   O31 8304   4.933  11.445  -0.237 -0.5610  0.0011 -0.1469
   20CHTO   H68 8305   4.930  11.536  -0.260  0.9175  0.4847  1.5122
   20CHTO   C39 8306   5.068  11.267  -0.376 -0.8703  0.4111  0.2050
   20CHTO   H81 8307   4.989  11.198  -0.345 -0.2107 -0.9912 -1.1646
   20CHTO    N7 8308   5.020  11.324  -0.509 -0.3216  0.1376 -0.0563
   20CHTO   H73 8309   4.941  11.262  -0.550  1.1740 -1.0544 -1.1801
   20CHTO   H74 8310   4.978  11.423  -0.508  3.3123  1.7365  0.2843
   20CHTO   C40 8311   5.204  11.181  -0.375  0.5828 -0.1267  0.1217
   20CHTO   H82 8312   5.274  11.262  -0.397 -1.4512  1.1592 -1.7197
   20CHTO   O26 8313   5.226  11.129  -0.246  0.1102 -0.2746  0.1894
   20CHTO   C41 8314   5.251  11.237  -0.142 -0.0852  0.2978 -0.1402
   20CHTO   H83 8315   5.333  11.305  -0.168  0.6588  0.0317  1.4649
   20CHTO   C52 8316   5.277  11.161  -0.016  0.1176  0.3392  0.6672
   20CHTO   O35 8317   5.427  11.098  -0.008  0.0539  0.3065  0.0463
   20CHTO   H71 8318   5.468  11.133   0.069  0.1864  0.6126 -0.1650
   20CHTO   O28 8319   5.194  11.071  -0.460 -0.1404  0.6004  0.2772
   20CHTO   C42 8320   5.319  11.021  -0.496 -0.3382  0.0384  0.5595
   20CHTO   H84 8321   5.284  10.938  -0.557 -1.2193  1.3357 -0.7540
   20CHTO   C44 8322   5.415  10.964  -0.396 -0.2418  0.2738  0.0669
   20CHTO   H86 8323   5.451  11.046  -0.333  1.4937 -0.8886  0.6122
   20CHTO   O32 8324   5.338  10.858  -0.331 -0.2501  0.8231 -0.1232
   20CHTO   H69 8325   5.389  10.832  -0.256  1.3702 -0.1683 -1.5423
   20CHTO   C48 8326   5.552  10.899  -0.456  0.0137  1.2897 -0.9328
   20CHTO   H90 8327   5.514  10.827  -0.528 -3.0268  0.2537  1.6193
   20CHTO    N9 8328   5.638  10.837  -0.354 -0.1608  0.4837  0.0569
   20CHTO   H77 8329   5.694  10.753  -0.392  0.8615  1.9205 -1.6975
   20CHTO   H78 8330   5.595  10.815  -0.257  0.3922  0.7526  0.3673
   20CHTO   C51 8331   5.631  11.004  -0.540 -0.7052  0.4660 -0.2849
   20CHTO   H93 8332   5.666  11.085  -0.476  1.8821 -1.0934  0.3443
   20CHTO   O30 8333   5.541  11.048  -0.644 -0.6051  0.2212  0.3351
   20CHTO   C46 8334   5.402  11.116  -0.589  0.1921  0.0872 -0.1450
   20CHTO   H88 8335   5.421  11.209  -0.536  2.4859 -0.2288 -0.3775
   20CHTO   C53 8336   5.314  11.149  -0.707 -0.9170  0.2913  0.4885
   20CHTO   O72 8337   5.273  11.286  -0.708  0.1457  0.2755 -0.2393
   20CHTO  H199 8338   5.194  11.291  -0.657  0.3542 -0.9204  0.2312
   20CHTO   O22 8339   5.744  10.948  -0.607  0.4169  0.2894  0.6835
   20CHTO   C31 8340   5.863  11.025  -0.644 -0.0092 -0.0968 -1.3718
   20CHTO   H59 8341   5.917  10.966  -0.721  1.5814 -1.1455  0.4865
   20CHTO   C29 8342   5.823  11.156  -0.712 -0.2503  0.1564 -0.3006
   20CHTO   H57 8343   5.750  11.208  -0.648  1.2385 -0.1717  1.6788
   20CHTO   O21 8344   5.752  11.126  -0.834 -0.4118 -0.0857 -0.2268
   20CHTO   H37 8345   5.762  11.194  -0.898  1.7222 -1.0321 -0.9526
   20CHTO   C27 8346   5.950  11.255  -0.725 -0.1525  0.1718 -0.1698
   20CHTO   H55 8347   6.021  11.216  -0.800 -0.3931 -0.8446  0.1206
   20CHTO    N5 8348   5.904  11.392  -0.768 -0.1038 -0.0512 -0.3642
   20CHTO   H43 8349   5.989  11.449  -0.805  0.5642  0.5424  1.9753
   20CHTO   H44 8350   5.856  11.447  -0.688 -0.3273  0.1858 -0.6591
   20CHTO   C25 8351   6.023  11.260  -0.579  0.0616 -0.3814 -0.2608
   20CHTO   H53 8352   5.959  11.291  -0.496 -0.1314  3.0136 -1.5620
   20CHTO   O17 8353   6.071  11.126  -0.544 -0.2431  0.3515  0.0015
   20CHTO   C32 8354   5.956  11.043  -0.520 -0.0789 -0.0018 -0.6909
   20CHTO   H60 8355   5.903  11.084  -0.434  0.8760  0.8923 -0.5219
   20CHTO   C36 8356   6.008  10.901  -0.480  0.1660  0.0161 -0.4312
   20CHTO   O25 8357   6.068  10.875  -0.355 -0.2037 -0.1881 -0.2797
   20CHTO   H40 8358   6.114  10.795  -0.370  1.6126  0.9060 -0.6936
   20CHTO   O15 8359   6.139  11.340  -0.566  0.2522 -0.2432 -0.0006
   20CHTO   C19 8360   6.279  11.377  -0.588  0.4619  0.2792 -0.4425
   20CHTO   H47 8361   6.288  11.420  -0.688 -1.7712 -0.9475 -1.2147
   20CHTO   C20 8362   6.318  11.485  -0.493 -0.4009 -0.1592  0.0651
   20CHTO   H48 8363   6.296  11.460  -0.388  0.7417  0.3981  0.4438
   20CHTO   O19 8364   6.240  11.608  -0.512 -0.1433 -0.3515 -0.7166
   20CHTO   H35 8365   6.250  11.669  -0.441  0.9904 -4.4217  2.9105
   20CHTO   C21 8366   6.474  11.524  -0.503  0.2874 -0.5821 -0.5134
   20CHTO   H49 8367   6.496  11.561  -0.603  0.3416  1.1970  0.1316
   20CHTO    N4 8368   6.515  11.630  -0.410 -0.3445 -0.4855  0.2988
   20CHTO   H41 8369   6.611  11.595  -0.375 -1.0335 -0.5982  2.1470
   20CHTO   H42 8370   6.529  11.725  -0.458 -0.5008 -0.0310  1.1499
   20CHTO   C22 8371   6.554  11.394  -0.496 -0.5446  0.0673 -0.1371
   20CHTO   H50 8372   6.534  11.355  -0.396  0.3883  0.9447  0.4089
   20CHTO   O14 8373   6.513  11.299  -0.594  0.3351 -0.5667 -0.1843
   20CHTO   C23 8374   6.377  11.250  -0.579  0.1818  0.7153  0.6138
   20CHTO   H51 8375   6.368  11.198  -0.483 -1.3219  1.6568  0.9994
   20CHTO   C34 8376   6.342  11.157  -0.700 -0.6850  0.6251  0.2023
   20CHTO   O23 8377   6.415  11.033  -0.692 -0.1072 -0.2183 -0.1028
   20CHTO   H38 8378   6.421  10.979  -0.615 -0.5024 -0.0567  0.0439
   20CHTO   O16 8379   6.696  11.417  -0.518  0.3237 -0.0169 -0.1608
   20CHTO   C24 8380   6.792  11.286  -0.467  0.1228  0.3320 -0.5420
   20CHTO   H52 8381   6.733  11.204  -0.425  0.1885 -0.9402 -2.7981
   20CHTO   C26 8382   6.898  11.336  -0.367 -0.1138 -0.2360 -0.5227
   20CHTO   H54 8383   6.947  11.428  -0.407  0.4661 -0.3682 -0.1270
   20CHTO   O20 8384   6.821  11.367  -0.251  0.1585 -0.4925 -0.0588
   20CHTO   H36 8385   6.859  11.440  -0.207 -1.3672 -1.5972  3.2439
   20CHTO   C30 8386   7.006  11.231  -0.337  0.3162  0.1116  0.5986
   20CHTO   H58 8387   6.992  11.193  -0.235 -1.8442  0.9343  0.6364
   20CHTO    N6 8388   7.136  11.294  -0.333  0.0885 -0.4505 -0.1203
   20CHTO   H45 8389   7.167  11.350  -0.420  2.4417  1.3095  1.7769
   20CHTO   H46 8390   7.145  11.352  -0.243  2.0275 -0.0491 -0.5368
   20CHTO   C33 8391   7.003  11.110  -0.439 -0.1205 -0.4105 -0.1404
   20CHTO   H61 8392   7.105  11.069  -0.445  0.5340  1.1642 -0.1450
   20CHTO   O18 8393   6.969  11.147  -0.574 -0.1985 -0.0283 -0.7184
   20CHTO   C28 8394   6.859  11.225  -0.596 -0.4511 -0.1493  0.4668
   20CHTO   H56 8395   6.887  11.311  -0.657 -0.5232  0.6471  1.5340
   20CHTO   C35 8396   6.757  11.136  -0.673 -0.3839 -0.1318 -0.3778
   20CHTO   O24 8397   6.792  11.102  -0.805  0.8482  0.3689  0.4274
   20CHTO   H39 8398   6.714  11.093  -0.856  0.9965  0.5305  0.1735
   20CHTO    O9 8399   6.917  11.000  -0.393  0.3449 -0.3508 -0.1125
   20CHTO   C13 8400   6.990  10.862  -0.398 -0.2549  0.6810  0.1391
   20CHTO   H26 8401   7.097  10.862  -0.428  0.1001  3.0110  1.3235
   20CHTO   C11 8402   6.898  10.768  -0.498  0.4936 -1.0147 -0.0996
   20CHTO   H24 8403   6.922  10.783  -0.604  1.5063 -1.4104  0.0625
   20CHTO    O8 8404   6.752  10.791  -0.484 -0.5373  0.3025 -0.0171
   20CHTO    H3 8405   6.725  10.748  -0.405  1.3398 -1.2383 -0.1676
   20CHTO    C9 8406   6.932  10.619  -0.473 -0.5078  0.1207 -0.4775
   20CHTO   H22 8407   7.041  10.610  -0.485 -0.6207 -1.6227 -0.4123
   20CHTO    N2 8408   6.871  10.515  -0.555 -0.1236 -0.3372  0.2072
   20CHTO   H10 8409   6.941  10.442  -0.591 -0.8578 -0.7470 -0.4005
   20CHTO   H11 8410   6.826  10.559  -0.642 -1.1743 -3.1347 -0.7074
   20CHTO    C7 8411   6.896  10.581  -0.321 -0.5288 -0.2395  0.4355
   20CHTO   H20 8412   6.987  10.525  -0.290  0.3801  0.3296 -1.1440
   20CHTO    O4 8413   6.893  10.701  -0.241  0.3451  0.4117 -0.0682
   20CHTO   C14 8414   6.994  10.797  -0.252  0.0590  0.0035  0.3938
   20CHTO   H27 8415   7.088  10.738  -0.249 -0.0947 -0.3747 -1.4525
   20CHTO   C18 8416   7.002  10.901  -0.140  0.4900  0.6633 -0.1954
   20CHTO   O13 8417   7.110  10.999  -0.143 -0.1276  0.4316  0.0713
   20CHTO    H7 8418   7.161  10.991  -0.222  0.2804 -0.1884  0.3908
   20CHTO    O2 8419   6.742  10.486  -0.290 -0.4722 -0.0019 -0.1554
   20CHTO    C1 8420   6.683  10.492  -0.157  0.5598  0.2202 -0.0796
   20CHTO   H14 8421   6.760  10.521  -0.083  1.1903 -2.0329  0.1931
   20CHTO    C2 8422   6.625  10.348  -0.110 -0.0405 -0.0636  0.4180
   20CHTO   H15 8423   6.569  10.310  -0.197 -1.6052 -0.6596  1.6733
   20CHTO    O6 8424   6.731  10.262  -0.078 -0.1677  0.2444 -0.4143
   20CHTO    H1 8425   6.700  10.192  -0.023  0.1613 -0.6156 -1.3086
   20CHTO    C3 8426   6.520  10.363   0.013 -0.1845 -0.5648 -0.3495
   20CHTO   H16 8427   6.579  10.403   0.097  1.6508  2.6914 -3.0005
   20CHTO    N1 8428   6.450  10.228   0.046  0.0048  0.3002 -0.3896
   20CHTO    H8 8429   6.391  10.182  -0.032 -1.6811  3.8501 -1.3520
   20CHTO    H9 8430   6.392  10.235   0.137 -0.2309  0.4016 -0.5453
   20CHTO    C4 8431   6.420  10.477  -0.025  0.3888  0.2097  0.4883
   20CHTO   H17 8432   6.355  10.441  -0.104 -0.5091  0.3703  1.1466
   20CHTO    O1 8433   6.501  10.590  -0.039 -0.7518  0.0116  0.3304
   20CHTO    C5 8434   6.562  10.594  -0.168  0.2157 -0.4601  0.4152
   20CHTO   H18 8435   6.500  10.567  -0.254  0.5148 -1.4335  0.4983
   20CHTO   C16 8436   6.592  10.744  -0.185  0.2590 -0.9098  0.3397
   20CHTO   O11 8437   6.681  10.798  -0.084  0.5148  0.2591  0.4949
   20CHTO    H5 8438   6.651  10.798   0.005  0.1987  0.2075  0.3888
   20CHTO    O3 8439   6.331  10.518   0.079  0.3535  0.3222 -0.1922
   20CHTO    C6 8440   6.208  10.570   0.029  0.3756  0.0575 -0.1529
   20CHTO   H19 8441   6.207  10.600  -0.076  0.1517  2.5510  0.5140
   20CHTO    C8 8442   6.095  10.461   0.056 -0.5927  0.2756  0.5519
   20CHTO   H21 8443   6.105  10.438   0.162  2.1294 -0.6125  0.1454
   20CHTO    O7 8444   6.121  10.347  -0.025  0.0396  0.4744 -0.1201
   20CHTO    H2 8445   6.083  10.365  -0.110  0.9385  0.7432 -0.4663
   20CHTO   C12 8446   5.942  10.514   0.028  0.5870  0.1435 -0.1753
   20CHTO   H25 8447   5.940  10.529  -0.081 -0.5081 -0.3237 -0.2309
   20CHTO    N3 8448   5.844  10.414   0.075  0.0138  0.3059 -1.2723
   20CHTO   H12 8449   5.814  10.432   0.177 -2.5121  0.8021 -2.0723
   20CHTO   H13 8450   5.757  10.403   0.012 -1.3259  1.5351  0.3313
   20CHTO   C15 8451   5.937  10.655   0.099  0.5094 -0.1040 -0.3061
   20CHTO   H28 8452   5.928  10.640   0.207 -0.1966  1.0106 -0.2005
   20CHTO   O10 8453   5.820  10.737   0.042  0.1717  0.2082 -0.0452
   20CHTO    H4 8454   5.750  10.739   0.105  0.5646 -0.9795  0.4472
   20CHTO    O5 8455   6.045  10.748   0.062 -0.4229 -0.1038  0.0258
   20CHTO   C10 8456   6.177  10.701   0.106 -0.1484 -0.2490  0.9602
   20CHTO   H23 8457   6.181  10.686   0.214 -0.9696 -1.0201  0.8832
   20CHTO   C17 8458   6.279  10.807   0.065  0.4909 -0.2404 -0.0617
   20CHTO   O12 8459   6.271  10.922   0.156 -0.3784 -0.1385  0.1571
   20CHTO    H6 8460   6.327  10.990   0.122  2.6137 -2.5477  0.1345
   21GLOH   H03 8461   7.946   4.133   3.009  0.1689 -0.8889 -3.2893
   21GLOH    O1 8462   7.852   4.159   3.002  0.1684  0.1875  0.0458
   21GLOH    C1 8463   7.773   4.092   3.105 -0.1430 -0.5268 -0.6769
   21GLOH   H02 8464   7.673   4.135   3.110  0.0629 -0.1192  0.0790
   21GLOH   H08 8465   7.812   4.118   3.204 -0.4769 -1.3233 -0.3325
   21GLOH    C2 8466   7.771   3.939   3.089 -0.3031 -0.8864 -0.4944
   21GLOH   H04 8467   7.726   3.916   2.991 -0.2022 -0.3164 -0.6781
   21GLOH    O2 8468   7.908   3.893   3.094 -0.1275 -0.1501  0.2830
   21GLOH   H05 8469   7.958   3.943   3.027 -2.3553 -0.9761 -2.0691
   21GLOH    C3 8470   7.684   3.869   3.200 -0.0717 -0.1529  0.8898
   21GLOH   H06 8471   7.725   3.768   3.203 -0.3870 -0.3306 -0.2431
   21GLOH   H07 8472   7.581   3.866   3.165  0.5391  0.5517 -1.0676
   21GLOH    O3 8473   7.699   3.928   3.331 -0.2747 -0.1536 -0.2966
   21GLOH   H01 8474   7.674   3.865   3.401  0.0411  0.0592  0.0063
   22GLOH   H03 8475   0.453   6.002   3.343  1.7490  0.6436 -1.2740
   22GLOH    O1 8476   0.488   5.912   3.338  0.2867 -0.0157 -0.0762
   22GLOH    C1 8477   0.513   5.879   3.198  0.2203  0.0216 -0.2355
   22GLOH   H02 8478   0.522   5.965   3.132  0.0601  0.2551  0.0485
   22GLOH   H08 8479   0.426   5.822   3.165  0.4312  0.6277 -1.8873
   22GLOH    C2 8480   0.642   5.797   3.184 -0.2722  0.4310  0.4356
   22GLOH   H04 8481   0.634   5.716   3.257  1.7372 -0.5120 -0.3634
   22GLOH    O2 8482   0.631   5.745   3.052 -0.3886 -0.1618 -0.0879
   22GLOH   H05 8483   0.599   5.653   3.058  2.1497 -0.9528  2.5096
   22GLOH    C3 8484   0.762   5.883   3.213  0.0668 -0.1051  0.0651
   22GLOH   H06 8485   0.753   5.920   3.316 -0.8552 -0.2616  0.0463
   22GLOH   H07 8486   0.749   5.965   3.142  0.8500  2.3505  2.6620
   22GLOH    O3 8487   0.887   5.817   3.185 -0.3283  0.1193  0.0756
   22GLOH   H01 8488   0.894   5.733   3.236 -1.1192 -0.8113 -1.3361
   23GLOH   H03 8489   9.165   6.762   0.404 -0.0233 -2.3953  1.9836
   23GLOH    O1 8490   9.176   6.818   0.483  0.0511  0.1426  0.2124
   23GLOH    C1 8491   9.053   6.879   0.516  0.4003  0.5012 -0.1112
   23GLOH   H02 8492   8.973   6.809   0.538  0.7350  0.5227  1.2345
   23GLOH   H08 8493   9.026   6.928   0.422 -2.3354  0.3857  0.5811
   23GLOH    C2 8494   9.059   6.994   0.622 -0.4202 -0.2515  1.1127
   23GLOH   H04 8495   9.140   7.064   0.595 -0.4874 -0.6584 -0.1710
   23GLOH    O2 8496   8.934   7.064   0.624 -0.0673 -0.1725  0.2623
   23GLOH   H05 8497   8.937   7.128   0.697 -0.7995  1.4431 -1.1017
   23GLOH    C3 8498   9.080   6.940   0.761 -0.1104 -0.6984 -0.3956
   23GLOH   H06 8499   9.115   7.017   0.830 -2.0751 -0.4910  0.3976
   23GLOH   H07 8500   9.167   6.876   0.749  1.2363  0.7517  1.2826
   23GLOH    O3 8501   8.974   6.860   0.811 -0.7657 -0.6422 -0.3144
   23GLOH   H01 8502   8.898   6.908   0.772  0.0936  0.2847 -0.8878
   24GLOH   H03 8503   0.034   1.267   0.454  0.3739 -0.3474 -0.0783
   24GLOH    O1 8504   0.120   1.282   0.499 -0.0965 -0.5832  0.9189
   24GLOH    C1 8505   0.143   1.421   0.536  0.3618 -0.6676  0.3316
   24GLOH   H02 8506   0.058   1.465   0.589  0.1289 -0.8366  0.0970
   24GLOH   H08 8507   0.148   1.482   0.446  1.8644  1.0148  1.4967
   24GLOH    C2 8508   0.266   1.443   0.624  0.4021  0.4263 -0.5637
   24GLOH   H04 8509   0.363   1.449   0.572  1.1923 -1.7613  0.5915
   24GLOH    O2 8510   0.255   1.574   0.688 -0.2637  0.2286  0.0791
   24GLOH   H05 8511   0.205   1.569   0.771 -0.2908  0.8749  0.1036
   24GLOH    C3 8512   0.289   1.340   0.738  0.3080  0.1231 -0.5340
   24GLOH   H06 8513   0.219   1.357   0.820  1.9879 -2.9451  1.6396
   24GLOH   H07 8514   0.392   1.342   0.774  0.4247  0.2653 -0.8726
   24GLOH    O3 8515   0.268   1.202   0.693 -0.5952 -0.4316  0.7183
   24GLOH   H01 8516   0.200   1.200   0.623 -0.6847  2.6568  0.6458
   25GLOH   H03 8517   7.562   1.378   1.200  0.2037 -0.9164 -0.7909
   25GLOH    O1 8518   7.509   1.321   1.258 -0.2283  0.5622  0.3155
   25GLOH    C1 8519   7.595   1.269   1.354  0.2938  0.2820  0.6425
   25GLOH   H02 8520   7.697   1.289   1.322  0.3057  1.0934  1.1731
   25GLOH   H08 8521   7.582   1.161   1.359  0.2261  0.3103  1.0569
   25GLOH    C2 8522   7.568   1.327   1.493  0.5182  0.6416  0.7811
   25GLOH   H04 8523   7.465   1.302   1.524  0.6056 -2.5990 -1.3911
   25GLOH    O2 8524   7.659   1.268   1.585  0.1043 -0.0234  0.3731
   25GLOH   H05 8525   7.713   1.195   1.550 -0.4300  0.1467 -0.8096
   25GLOH    C3 8526   7.580   1.480   1.490  0.1733  0.4449  0.4221
   25GLOH   H06 8527   7.513   1.514   1.411 -1.0786 -1.0518  0.8158
   25GLOH   H07 8528   7.681   1.505   1.459 -0.1482  1.1029 -0.1169
   25GLOH    O3 8529   7.536   1.536   1.611  0.5704 -0.0734 -0.1572
   25GLOH   H01 8530   7.541   1.634   1.613 -2.7353  0.1381  1.9291
   26GLOH   H03 8531   9.716   6.445   1.645  0.9400 -1.0989  1.2358
   26GLOH    O1 8532   9.762   6.515   1.695 -0.0902  0.3761  0.1506
   26GLOH    C1 8533   9.897   6.485   1.670  0.4277  0.0547 -0.0107
   26GLOH   H02 8534   9.911   6.450   1.568 -2.6903  1.5115 -0.9760
   26GLOH   H08 8535   9.937   6.412   1.741 -0.4104 -0.8477 -0.4514
   26GLOH    C2 8536   9.992   6.604   1.685 -0.0304 -1.1143 -1.2588
   26GLOH   H04 8537   9.958   6.696   1.634 -1.5858 -0.8007  0.2888
   26GLOH    O2 8538  10.004   6.650   1.823  0.1444 -0.4469 -0.2039
   26GLOH   H05 8539   9.953   6.732   1.834  2.7074  1.0996  0.6644
   26GLOH    C3 8540  10.133   6.577   1.618  0.2516  0.2846  0.4172
   26GLOH   H06 8541  10.167   6.476   1.643 -4.6042 -1.5309  0.2185
   26GLOH   H07 8542  10.209   6.648   1.650  0.1043  0.0477  1.3148
   26GLOH    O3 8543  10.118   6.580   1.477  0.2842  1.1137 -0.3609
   26GLOH   H01 8544  10.079   6.665   1.449 -0.8843  0.5257 -0.5519
   27GLOH   H03 8545   8.799   4.835   2.893  1.5693 -0.5532 -0.3836
   27GLOH    O1 8546   8.805   4.870   2.802 -0.6969  0.0540 -0.3396
   27GLOH    C1 8547   8.917   4.811   2.727 -0.0275 -0.6369 -0.3491
   27GLOH   H02 8548   9.012   4.851   2.762  0.5231 -3.6751  1.8647
   27GLOH   H08 8549   8.916   4.839   2.622  1.1502  1.3460  0.1402
   27GLOH    C2 8550   8.921   4.658   2.742  0.5548  0.6097  0.1426
   27GLOH   H04 8551   8.824   4.611   2.720 -0.1186  1.3158  1.5676
   27GLOH    O2 8552   9.025   4.616   2.654 -0.5104  0.3317  0.1481
   27GLOH   H05 8553   8.974   4.544   2.613  0.4731 -0.6605  0.6481
   27GLOH    C3 8554   8.952   4.600   2.882  0.1876 -1.3936  0.5525
   27GLOH   H06 8555   9.051   4.635   2.912  0.2903 -2.1526  1.1283
   27GLOH   H07 8556   8.965   4.493   2.872 -0.2359 -1.4739  0.8611
   27GLOH    O3 8557   8.854   4.624   2.985 -0.2407 -0.0138  0.3480
   27GLOH   H01 8558   8.890   4.602   3.073  1.2366  1.7309  0.2066
   28GLOH   H03 8559   9.097   4.982   3.352 -0.8659 -0.3409 -4.8013
   28GLOH    O1 8560   9.068   5.075   3.345 -0.3954  0.2319 -0.2507
   28GLOH    C1 8561   9.141   5.161   3.435 -0.0563 -0.3926 -0.0300
   28GLOH   H02 8562   9.102   5.158   3.536  0.5019  3.1227  0.3382
   28GLOH   H08 8563   9.126   5.265   3.406 -0.7948 -0.6065 -0.4166
   28GLOH    C2 8564   9.298   5.136   3.423  0.4320 -0.1389 -0.0809
   28GLOH   H04 8565   9.320   5.028   3.417 -3.1038 -0.8924 -0.2676
   28GLOH    O2 8566   9.358   5.200   3.307  0.5951 -0.3768 -0.1642
   28GLOH   H05 8567   9.364   5.135   3.234 -2.6284 -0.3517 -0.5550
   28GLOH    C3 8568   9.364   5.189   3.552 -0.3473 -0.0526  0.3304
   28GLOH   H06 8569   9.370   5.298   3.555  0.1521 -0.0683 -0.2301
   28GLOH   H07 8570   9.467   5.159   3.537 -0.3478  0.6122 -1.0612
   28GLOH    O3 8571   9.313   5.133   3.672 -0.2684  0.0183  0.3292
   28GLOH   H01 8572   9.370   5.054   3.679  0.1806  0.5978  3.7449
   29GLOH   H03 8573   4.089   4.347   2.859  1.3317 -0.1494 -1.6140
   29GLOH    O1 8574   4.142   4.282   2.908 -0.1287 -0.3662 -0.2751
   29GLOH    C1 8575   4.122   4.312   3.047  0.0227  0.4724  0.1863
   29GLOH   H02 8576   4.022   4.277   3.074 -0.2028  0.4821 -0.6039
   29GLOH   H08 8577   4.132   4.420   3.060  0.7187  0.7208 -2.1936
   29GLOH    C2 8578   4.228   4.247   3.136  0.4510 -0.7623 -0.4650
   29GLOH   H04 8579   4.322   4.299   3.111  0.0184 -0.4888 -1.5248
   29GLOH    O2 8580   4.190   4.272   3.270  0.0755  0.3754 -0.3550
   29GLOH   H05 8581   4.134   4.200   3.303  0.4692  0.2514  0.0623
   29GLOH    C3 8582   4.246   4.096   3.109 -0.0584 -0.4427  0.1815
   29GLOH   H06 8583   4.158   4.052   3.156  0.4578 -0.9260  0.7026
   29GLOH   H07 8584   4.333   4.053   3.158  0.9779  1.7584  0.3234
   29GLOH    O3 8585   4.255   4.068   2.965  0.5682  0.1855 -0.3310
   29GLOH   H01 8586   4.207   4.143   2.926  0.2789 -0.5827 -1.4988
   30GLOH   H03 8587   1.100   4.511   3.447  1.2415  0.3639 -0.0119
   30GLOH    O1 8588   1.074   4.603   3.463  0.7997  0.3245 -0.5110
   30GLOH    C1 8589   1.145   4.646   3.583 -0.3678  0.4341  0.0378
   30GLOH   H02 8590   1.206   4.565   3.623  1.0098  1.1894 -0.4975
   30GLOH   H08 8591   1.080   4.685   3.661  1.2079  1.5443  0.8268
   30GLOH    C2 8592   1.245   4.760   3.559 -0.2096  0.1468  0.1469
   30GLOH   H04 8593   1.300   4.773   3.653 -1.3002 -4.0161  1.4690
   30GLOH    O2 8594   1.339   4.719   3.455  0.0314 -0.1747 -0.3892
   30GLOH   H05 8595   1.293   4.716   3.370  1.2945 -0.3340 -1.0744
   30GLOH    C3 8596   1.169   4.892   3.520 -0.4729 -0.0559 -0.3352
   30GLOH   H06 8597   1.097   4.856   3.446 -0.8031 -0.8059  0.3487
   30GLOH   H07 8598   1.237   4.958   3.467 -1.3995  0.5188 -0.8354
   30GLOH    O3 8599   1.099   4.957   3.623  0.1870 -0.4337 -0.3917
   30GLOH   H01 8600   1.064   4.886   3.680  0.6640 -1.9625 -1.9947
   31GLOH   H03 8601   4.372   4.629   1.518  0.8247 -0.3733  0.1358
   31GLOH    O1 8602   4.321   4.560   1.563  0.3370 -0.0323  0.1055
   31GLOH    C1 8603   4.303   4.449   1.475  0.9460  0.4253  0.2725
   31GLOH   H02 8604   4.262   4.482   1.379 -2.1225 -1.7985  0.7449
   31GLOH   H08 8605   4.220   4.387   1.510  1.0815  1.1273  1.8681
   31GLOH    C2 8606   4.434   4.363   1.462  0.8233  0.2087  0.1810
   31GLOH   H04 8607   4.432   4.301   1.371  1.7797  1.4774 -0.7163
   31GLOH    O2 8608   4.552   4.441   1.438  0.7593 -0.2248  0.5516
   31GLOH   H05 8609   4.621   4.388   1.394  0.0892 -0.9794  0.4092
   31GLOH    C3 8610   4.442   4.265   1.580  0.2357 -0.0050  0.0468
   31GLOH   H06 8611   4.430   4.321   1.673  0.4463 -0.6204  0.4478
   31GLOH   H07 8612   4.535   4.209   1.576 -0.6584 -1.5157  0.0357
   31GLOH    O3 8613   4.341   4.162   1.565 -0.1380  0.4713  0.1795
   31GLOH   H01 8614   4.353   4.110   1.484 -1.0552 -0.8861  0.8983
   32GLOH   H03 8615   1.514   2.595   2.583  0.9287 -0.0850 -0.3922
   32GLOH    O1 8616   1.514   2.609   2.680  0.1816 -0.6197 -0.3078
   32GLOH    C1 8617   1.600   2.718   2.707  0.8332 -0.5171  0.5285
   32GLOH   H02 8618   1.555   2.817   2.696  0.6027 -0.7785 -0.8781
   32GLOH   H08 8619   1.687   2.725   2.642  1.2173 -4.0295  0.5817
   32GLOH    C2 8620   1.646   2.719   2.854 -0.4626 -0.7622 -0.1569
   32GLOH   H04 8621   1.703   2.626   2.869 -0.4718 -1.2779 -3.1261
   32GLOH    O2 8622   1.737   2.829   2.886  0.1287  0.3631  0.0881
   32GLOH   H05 8623   1.758   2.819   2.980  1.2361  1.5293 -0.0182
   32GLOH    C3 8624   1.524   2.718   2.953  0.4799  0.3909 -0.2923
   32GLOH   H06 8625   1.563   2.693   3.052 -2.2595 -0.3113  0.6604
   32GLOH   H07 8626   1.467   2.630   2.921  1.9451 -0.2693 -1.1692
   32GLOH    O3 8627   1.449   2.834   2.959  0.5092 -0.1996 -0.6744
   32GLOH   H01 8628   1.383   2.835   2.887  0.9325  0.5853 -1.0582
   33GLOH   H03 8629   3.058   0.690   2.384 -0.7222 -2.3780 -1.5314
   33GLOH    O1 8630   3.002   0.640   2.446 -0.1756 -0.7830  0.2830
   33GLOH    C1 8631   3.089   0.550   2.514 -0.4099 -0.1082  0.0967
   33GLOH   H02 8632   3.133   0.619   2.586 -0.4265 -0.1940  0.1913
   33GLOH   H08 8633   3.164   0.514   2.444 -0.1024 -0.6820  0.7064
   33GLOH    C2 8634   3.008   0.433   2.584 -0.7197 -0.6636 -0.5563
   33GLOH   H04 8635   2.940   0.389   2.509  0.5207 -0.5668 -1.7619
   33GLOH    O2 8636   3.093   0.329   2.645 -0.6002 -0.1864 -0.7366
   33GLOH   H05 8637   3.169   0.324   2.585 -0.2736 -0.6767 -0.2974
   33GLOH    C3 8638   2.914   0.494   2.687  0.0073  0.1360 -0.4987
   33GLOH   H06 8639   2.846   0.412   2.710 -0.3566 -0.0671 -2.1754
   33GLOH   H07 8640   2.857   0.569   2.631 -1.4130 -1.6953 -1.5429
   33GLOH    O3 8641   2.984   0.556   2.791  0.0742 -0.3361  0.0649
   33GLOH   H01 8642   2.927   0.570   2.869 -0.2988 -0.6845 -0.1428
   34GLOH   H03 8643   6.551   8.981   1.351 -1.4254 -1.3171  1.3912
   34GLOH    O1 8644   6.586   9.034   1.425  0.1796  0.2431 -0.4122
   34GLOH    C1 8645   6.726   9.067   1.404  0.6825  0.2981  0.8493
   34GLOH   H02 8646   6.762   9.161   1.445 -1.1915  0.7197  1.5666
   34GLOH   H08 8647   6.748   9.076   1.298 -1.1166  3.1884  0.6571
   34GLOH    C2 8648   6.811   8.951   1.460  0.0261 -0.2721 -0.0741
   34GLOH   H04 8649   6.761   8.861   1.421  0.9167 -0.4927 -0.7373
   34GLOH    O2 8650   6.949   8.954   1.407  0.2933  0.0932 -0.6016
   34GLOH   H05 8651   6.984   9.042   1.430  1.2573 -0.6419  0.8154
   34GLOH    C3 8652   6.807   8.939   1.611  0.0219  0.5893 -0.7677
   34GLOH   H06 8653   6.714   8.882   1.620  1.1364 -1.3180 -0.9820
   34GLOH   H07 8654   6.804   9.033   1.666 -0.4399  0.8045 -1.1518
   34GLOH    O3 8655   6.901   8.847   1.669 -0.1411  0.1772 -0.2396
   34GLOH   H01 8656   6.885   8.764   1.620 -0.2542  0.2581 -0.3404
   35GLOH   H03 8657   4.836   1.292   2.357 -0.7308  0.7633  1.0005
   35GLOH    O1 8658   4.906   1.359   2.352  0.5435 -0.6073 -0.1037
   35GLOH    C1 8659   5.006   1.312   2.258 -0.2644 -0.1804  0.5333
   35GLOH   H02 8660   4.954   1.253   2.182 -2.5281  2.0151  0.2989
   35GLOH   H08 8661   5.082   1.248   2.303 -1.5771 -2.9769 -1.0556
   35GLOH    C2 8662   5.079   1.432   2.198 -0.4305 -0.2168  0.3795
   35GLOH   H04 8663   5.138   1.483   2.276 -1.0923 -0.4457  1.0328
   35GLOH    O2 8664   5.163   1.386   2.090  0.5744  0.5535  0.6227
   35GLOH   H05 8665   5.246   1.342   2.116  0.1401 -1.5710 -1.4336
   35GLOH    C3 8666   4.987   1.546   2.142 -0.3129 -0.1007 -0.5959
   35GLOH   H06 8667   4.934   1.514   2.053  0.4509  0.3912 -1.2273
   35GLOH   H07 8668   5.047   1.630   2.107  2.0507 -1.9734 -1.1572
   35GLOH    O3 8669   4.894   1.591   2.243  0.5752 -0.0189  0.2251
   35GLOH   H01 8670   4.878   1.512   2.297 -0.1222 -0.6046 -0.8071
   36GLOH   H03 8671   4.921   9.115   2.690 -0.4672  0.0141 -0.7262
   36GLOH    O1 8672   4.880   9.197   2.655 -0.1820  0.5409  0.1610
   36GLOH    C1 8673   4.990   9.267   2.591 -0.2306 -0.2688  0.3315
   36GLOH   H02 8674   4.959   9.326   2.505 -0.9878  0.2134  0.9299
   36GLOH   H08 8675   5.059   9.198   2.543  0.4499 -0.8715  2.1181
   36GLOH    C2 8676   5.051   9.371   2.686 -0.0644  0.0599  0.7364
   36GLOH   H04 8677   5.067   9.338   2.789 -1.4752 -1.9624  0.3136
   36GLOH    O2 8678   5.181   9.411   2.638 -0.2046 -0.7132 -0.5586
   36GLOH   H05 8679   5.233   9.348   2.584 -1.2688 -0.5243 -1.8423
   36GLOH    C3 8680   4.949   9.485   2.712 -0.1951  0.2796  1.0260
   36GLOH   H06 8681   4.863   9.438   2.760  0.5803 -1.1034  1.0924
   36GLOH   H07 8682   4.923   9.526   2.614 -0.9127 -1.1897  0.5787
   36GLOH    O3 8683   5.008   9.585   2.798 -0.6570  0.0267 -0.6503
   36GLOH   H01 8684   5.103   9.569   2.785 -0.4036  1.4814 -0.6595
   37GLOH   H03 8685   2.781   2.502   0.159 -0.7205 -0.3856  0.0736
   37GLOH    O1 8686   2.867   2.510   0.115 -0.5475 -0.0611  0.4711
   37GLOH    C1 8687   2.981   2.488   0.204 -0.1226 -0.0474 -0.1618
   37GLOH   H02 8688   2.980   2.553   0.292  0.9970  0.6122 -0.6170
   37GLOH   H08 8689   3.073   2.512   0.150  0.6230 -3.6250 -0.5545
   37GLOH    C2 8690   2.990   2.345   0.248 -0.1601  0.1814 -0.1112
   37GLOH   H04 8691   3.069   2.346   0.324  0.8563  0.4608 -1.1614
   37GLOH    O2 8692   2.860   2.298   0.302 -0.1955 -0.3271  0.4444
   37GLOH   H05 8693   2.804   2.377   0.312 -0.7274 -0.6696  0.1713
   37GLOH    C3 8694   3.041   2.255   0.133 -0.0970 -0.0524  0.5602
   37GLOH   H06 8695   2.987   2.279   0.042 -0.9615  0.2914  1.1598
   37GLOH   H07 8696   3.034   2.149   0.159 -0.4310 -0.4260 -1.0375
   37GLOH    O3 8697   3.180   2.280   0.114  0.1857  0.2982  0.1086
   37GLOH   H01 8698   3.208   2.344   0.046  0.9544  0.0279  0.1738
   38GLOH   H03 8699   1.091   4.447   0.962  0.7573 -0.1391  0.5703
   38GLOH    O1 8700   1.120   4.503   1.036  0.4894  0.3129  0.3320
   38GLOH    C1 8701   1.032   4.469   1.146 -0.1026 -0.1907 -0.1639
   38GLOH   H02 8702   1.067   4.515   1.239 -0.4087 -1.0164  0.3737
   38GLOH   H08 8703   1.034   4.360   1.153  2.8163 -0.2952 -1.8163
   38GLOH    C2 8704   0.884   4.503   1.126 -0.3809 -0.4638  0.3521
   38GLOH   H04 8705   0.854   4.441   1.040 -0.3142  1.0079 -0.7399
   38GLOH    O2 8706   0.814   4.447   1.240 -0.7085  0.1863  0.2071
   38GLOH   H05 8707   0.722   4.477   1.234 -0.2434  1.4170 -1.0457
   38GLOH    C3 8708   0.854   4.652   1.095 -0.7688 -1.0603  0.1035
   38GLOH   H06 8709   0.934   4.692   1.031  0.4461 -1.2715  1.4569
   38GLOH   H07 8710   0.843   4.711   1.186 -3.1003 -1.1844 -0.0798
   38GLOH    O3 8711   0.724   4.657   1.032  0.1147 -0.0478 -0.0640
   38GLOH   H01 8712   0.662   4.680   1.104  1.3262  1.1653  0.6214
   39GLOH   H03 8713   8.231   4.771   1.151 -0.5496 -0.7627  1.6609
   39GLOH    O1 8714   8.188   4.858   1.160  0.3944  0.0168 -0.8430
   39GLOH    C1 8715   8.272   4.966   1.193 -0.4054  0.2327 -0.3885
   39GLOH   H02 8716   8.363   4.942   1.138  0.4794 -0.5175  1.3810
   39GLOH   H08 8717   8.293   4.963   1.299 -1.7668 -2.0988 -0.1476
   39GLOH    C2 8718   8.216   5.102   1.149 -0.0115  0.1121  0.0360
   39GLOH   H04 8719   8.106   5.092   1.144 -0.0444  0.0539  0.7942
   39GLOH    O2 8720   8.274   5.199   1.240  0.5730  0.0489 -0.0645
   39GLOH   H05 8721   8.266   5.172   1.333  3.0051 -2.3417 -0.4747
   39GLOH    C3 8722   8.262   5.131   1.003 -0.5249  0.2823 -1.2430
   39GLOH   H06 8723   8.249   5.037   0.949 -4.0401 -0.4423  0.6893
   39GLOH   H07 8724   8.370   5.146   1.005 -0.5360  0.1437  0.8971
   39GLOH    O3 8725   8.197   5.248   0.946  0.7825 -0.2991 -0.6035
   39GLOH   H01 8726   8.126   5.215   0.887 -0.4538 -0.7179  1.0621
   40GLOH   H03 8727   3.228   6.696   3.809  1.2174 -0.7534  3.3908
   40GLOH    O1 8728   3.268   6.780   3.837  0.6872  0.8178 -0.2412
   40GLOH    C1 8729   3.229   6.790   3.976 -0.1645  0.5175  0.7881
   40GLOH   H02 8730   3.285   6.711   4.025 -0.7768 -0.1036  0.4780
   40GLOH   H08 8731   3.125   6.757   3.983 -0.1288  0.3118  0.3458
   40GLOH    C2 8732   3.245   6.925   4.049 -0.6114  0.1926 -0.8824
   40GLOH   H04 8733   3.173   6.992   4.001  1.7341  3.9269  0.5541
   40GLOH    O2 8734   3.213   6.929   4.190 -0.7835  0.2243  0.2233
   40GLOH   H05 8735   3.119   6.953   4.194 -1.3569 -1.2269 -2.9123
   40GLOH    C3 8736   3.385   6.987   4.011  0.2925 -0.4062 -0.5377
   40GLOH   H06 8737   3.468   6.928   4.049 -0.4752 -2.0693 -1.4081
   40GLOH   H07 8738   3.395   7.086   4.056  0.1929 -0.5631 -0.1680
   40GLOH    O3 8739   3.393   7.004   3.866  0.1724 -0.5319  0.3246
   40GLOH   H01 8740   3.351   6.920   3.840  0.1629 -0.2947 -0.4303
   41GLOH   H03 8741   0.547   5.692   3.654  0.4663 -0.3280 -0.8288
   41GLOH    O1 8742   0.569   5.710   3.747 -0.4856  0.1037 -0.6859
   41GLOH    C1 8743   0.673   5.809   3.752  0.4715 -0.4233  0.5586
   41GLOH   H02 8744   0.671   5.858   3.850 -0.0451  2.8473 -1.0060
   41GLOH   H08 8745   0.656   5.884   3.674 -0.1513 -2.6658 -1.5182
   41GLOH    C2 8746   0.814   5.747   3.733  0.5436 -0.8616  0.7664
   41GLOH   H04 8747   0.836   5.677   3.815  2.2199  0.0052  1.0897
   41GLOH    O2 8748   0.817   5.676   3.609 -0.4937  0.3982  0.1602
   41GLOH   H05 8749   0.760   5.598   3.616 -0.0456 -0.0063 -0.5417
   41GLOH    C3 8750   0.925   5.854   3.738  0.5656  0.0772  0.4242
   41GLOH   H06 8751   0.895   5.934   3.672  0.8807 -0.8818 -0.9020
   41GLOH   H07 8752   1.023   5.820   3.703 -0.1214 -0.3082 -1.1704
   41GLOH    O3 8753   0.938   5.910   3.871 -1.0269  0.1043 -0.7345
   41GLOH   H01 8754   0.927   5.836   3.934  1.1762  0.1669 -0.2357
   42GLOH   H03 8755   4.906   3.125   3.941 -0.1586  0.0935  0.6608
   42GLOH    O1 8756   4.928   3.151   4.032  0.3478  0.3680  0.4664
   42GLOH    C1 8757   4.874   3.286   4.059  0.2088 -0.5563  0.6901
   42GLOH   H02 8758   4.948   3.364   4.041 -0.5398 -0.2494 -1.1097
   42GLOH   H08 8759   4.866   3.282   4.168 -2.3693  1.1666  0.6162
   42GLOH    C2 8760   4.748   3.317   3.980  0.4944  0.6542 -0.6793
   42GLOH   H04 8761   4.662   3.254   4.009  1.4299  1.3071  3.9015
   42GLOH    O2 8762   4.699   3.455   3.979  0.3442  0.2145 -0.4205
   42GLOH   H05 8763   4.649   3.470   4.061 -0.7088  2.8369 -1.5190
   42GLOH    C3 8764   4.769   3.272   3.832  0.1756 -0.4676 -0.1794
   42GLOH   H06 8765   4.857   3.329   3.804 -0.8275  1.0519 -0.2585
   42GLOH   H07 8766   4.684   3.308   3.774  0.3255 -0.4453 -0.3803
   42GLOH    O3 8767   4.793   3.136   3.802  0.3562 -0.1927 -0.1973
   42GLOH   H01 8768   4.795   3.134   3.705 -1.2233 -1.8174 -0.2375
   43GLOH   H03 8769   9.817   1.889   3.062  0.4972  0.3960  0.0945
   43GLOH    O1 8770   9.833   1.941   3.143  0.2021  0.2171  0.2722
   43GLOH    C1 8771   9.880   1.853   3.251 -0.3036  0.1408  0.0209
   43GLOH   H02 8772   9.795   1.824   3.313  2.0304 -2.7775  1.9781
   43GLOH   H08 8773   9.936   1.915   3.321 -1.4272  1.6255 -0.3755
   43GLOH    C2 8774   9.965   1.727   3.215 -0.3484 -0.8907 -0.3011
   43GLOH   H04 8775  10.030   1.757   3.131  0.7098  0.3645  0.9323
   43GLOH    O2 8776  10.056   1.695   3.323 -0.0398  1.0516  0.0124
   43GLOH   H05 8777  10.148   1.722   3.309  0.2032  1.2164  1.8351
   43GLOH    C3 8778   9.881   1.604   3.187  0.7060  0.1393 -0.4975
   43GLOH   H06 8779   9.818   1.570   3.269  1.3577 -0.2654 -0.1601
   43GLOH   H07 8780   9.946   1.519   3.168  0.2332 -0.2960 -0.1483
   43GLOH    O3 8781   9.800   1.635   3.075  0.3287  0.0337 -0.0246
   43GLOH   H01 8782   9.707   1.618   3.098 -0.1197  0.1731 -1.7094
   44GLOH   H03 8783   5.230   9.296   0.997 -0.9925  0.1306  0.6741
   44GLOH    O1 8784   5.292   9.281   1.071  0.4951  0.0113 -0.5581
   44GLOH    C1 8785   5.232   9.281   1.200  0.1282  0.6869 -0.0607
   44GLOH   H02 8786   5.309   9.321   1.267 -0.3937  2.3976 -0.4728
   44GLOH   H08 8787   5.219   9.180   1.240  1.0000  0.1645 -1.0627
   44GLOH    C2 8788   5.099   9.354   1.216 -0.0316  0.0159  0.2493
   44GLOH   H04 8789   5.111   9.459   1.186  1.5335 -1.3224 -4.1155
   44GLOH    O2 8790   4.993   9.289   1.140  0.0475 -0.1722 -0.5314
   44GLOH   H05 8791   4.907   9.311   1.180  0.9488  0.3406  1.2134
   44GLOH    C3 8792   5.068   9.355   1.364  0.1489  0.6294 -0.3097
   44GLOH   H06 8793   5.072   9.255   1.409 -1.2316  0.1423 -1.2420
   44GLOH   H07 8794   4.971   9.398   1.388  0.3099  0.2560  1.0416
   44GLOH    O3 8795   5.164   9.424   1.447 -0.0947  0.0180  0.3300
   44GLOH   H01 8796   5.220   9.367   1.502  1.0761  1.6909  0.9226
   45GLOH   H03 8797   7.653   9.085   1.358  2.6663  0.3670  1.5709
   45GLOH    O1 8798   7.698   9.106   1.274  0.0357  0.7845  0.2274
   45GLOH    C1 8799   7.825   9.164   1.325  0.8653  0.3243 -0.2659
   45GLOH   H02 8800   7.802   9.216   1.418 -0.3225 -0.3075 -0.1950
   45GLOH   H08 8801   7.868   9.235   1.255  1.7758 -0.2559 -0.2982
   45GLOH    C2 8802   7.932   9.054   1.348  0.2969 -0.1646 -0.6251
   45GLOH   H04 8803   7.895   8.982   1.423 -0.2545  0.1739 -0.5647
   45GLOH    O2 8804   7.955   8.979   1.229 -0.3094 -0.0747  0.4478
   45GLOH   H05 8805   7.872   8.936   1.202 -0.4035 -0.3969  1.2345
   45GLOH    C3 8806   8.058   9.128   1.393 -0.1903 -0.0037 -0.2887
   45GLOH   H06 8807   8.027   9.194   1.474 -0.1888 -1.0247  0.5529
   45GLOH   H07 8808   8.101   9.184   1.310  1.1990 -1.8095 -0.8241
   45GLOH    O3 8809   8.147   9.021   1.438 -0.4040 -0.8797 -0.1453
   45GLOH   H01 8810   8.237   9.056   1.444 -0.1633 -1.5771  0.3870
   46GLOH   H03 8811   3.424   6.487   1.122  0.0390 -0.2821  0.1690
   46GLOH    O1 8812   3.413   6.525   1.033  0.3349 -0.8491 -0.1132
   46GLOH    C1 8813   3.523   6.618   0.994  0.3521 -0.1380  0.0661
   46GLOH   H02 8814   3.490   6.678   0.909  0.1758 -1.1450 -0.5995
   46GLOH   H08 8815   3.617   6.567   0.972  0.0716  0.1809 -1.9500
   46GLOH    C2 8816   3.562   6.716   1.105 -0.0610  0.7959  0.1661
   46GLOH   H04 8817   3.615   6.659   1.182  0.1543  0.7885  0.0145
   46GLOH    O2 8818   3.655   6.801   1.045  0.3863  0.7167  0.1382
   46GLOH   H05 8819   3.696   6.865   1.106  1.5039 -0.5078  0.6961
   46GLOH    C3 8820   3.441   6.791   1.167  0.8026  0.3546  0.2098
   46GLOH   H06 8821   3.478   6.880   1.219 -0.2424 -0.0902  1.7038
   46GLOH   H07 8822   3.408   6.722   1.243  1.0954  0.4329  0.4099
   46GLOH    O3 8823   3.337   6.832   1.077  0.0980  0.2893 -1.0998
   46GLOH   H01 8824   3.275   6.759   1.062  0.0940 -0.0229  0.3798
   47GLOH   H03 8825   1.168   5.492   3.671 -0.9133 -1.0680  0.6682
   47GLOH    O1 8826   1.189   5.480   3.765 -0.0984 -0.1341  0.6136
   47GLOH    C1 8827   1.145   5.601   3.832  0.5540  0.0430 -0.0705
   47GLOH   H02 8828   1.042   5.627   3.809 -0.0332 -0.2386  2.1029
   47GLOH   H08 8829   1.202   5.685   3.793  1.9122 -1.0325 -0.4689
   47GLOH    C2 8830   1.160   5.597   3.985 -0.0279  0.7071  0.2595
   47GLOH   H04 8831   1.115   5.504   4.022 -0.3981  0.4504 -0.8021
   47GLOH    O2 8832   1.303   5.587   4.016  0.2614 -0.3128  0.0539
   47GLOH   H05 8833   1.344   5.519   3.960  2.1276 -0.0671  1.0977
   47GLOH    C3 8834   1.093   5.718   4.048 -0.3260 -1.1661  0.6261
   47GLOH   H06 8835   1.141   5.806   4.007 -0.7539 -1.5850 -0.7967
   47GLOH   H07 8836   1.120   5.721   4.154 -1.2750  0.2734  0.8433
   47GLOH    O3 8837   0.946   5.715   4.034  0.1155 -0.3256  0.3804
   47GLOH   H01 8838   0.914   5.643   4.092 -0.1329  0.1875  0.8871
   48GLOH   H03 8839   7.503   7.900   1.481  0.0501  0.2757  0.5736
   48GLOH    O1 8840   7.528   7.993   1.467  0.6592  0.0741  0.2818
   48GLOH    C1 8841   7.533   8.016   1.323 -0.1524 -0.5554 -0.0823
   48GLOH   H02 8842   7.541   7.920   1.272  0.8610 -0.0311 -0.9412
   48GLOH   H08 8843   7.622   8.076   1.300 -0.6250  1.1002  2.1757
   48GLOH    C2 8844   7.410   8.085   1.263 -0.4349 -0.4917 -0.1111
   48GLOH   H04 8845   7.394   8.174   1.325  0.5197 -0.9518  0.8075
   48GLOH    O2 8846   7.433   8.123   1.127 -0.4042  0.0174 -0.1739
   48GLOH   H05 8847   7.507   8.186   1.123  1.2894 -2.0102 -2.0698
   48GLOH    C3 8848   7.288   7.995   1.279 -0.6923  0.0292 -0.4098
   48GLOH   H06 8849   7.323   7.894   1.256 -0.7614  0.3755 -2.1019
   48GLOH   H07 8850   7.207   8.023   1.212 -0.8809  3.6445  1.2194
   48GLOH    O3 8851   7.232   7.990   1.412 -0.2603 -0.0369 -0.1765
   48GLOH   H01 8852   7.210   8.083   1.426 -2.1518 -0.5829  0.5344
   49GLOH   H03 8853   6.124   8.393   3.117 -0.7513 -2.1452  2.8061
   49GLOH    O1 8854   6.213   8.353   3.125  0.4128 -0.1856  0.3325
   49GLOH    C1 8855   6.317   8.445   3.088  0.5671 -0.2320 -0.5044
   49GLOH   H02 8856   6.355   8.501   3.173  1.2644 -1.7579  0.2106
   49GLOH   H08 8857   6.288   8.514   3.010  2.4224  2.3971  1.0658
   49GLOH    C2 8858   6.436   8.364   3.031  0.5854  0.5043  0.0148
   49GLOH   H04 8859   6.397   8.316   2.939 -0.4990 -0.6294  1.0420
   49GLOH    O2 8860   6.550   8.446   3.006  0.4263  0.0028  0.0157
   49GLOH   H05 8861   6.576   8.425   2.915  0.5420  5.8065 -1.4602
   49GLOH    C3 8862   6.481   8.247   3.119  0.0478  0.5602  0.2173
   49GLOH   H06 8863   6.516   8.285   3.215 -2.5225  1.4092  0.8495
   49GLOH   H07 8864   6.567   8.208   3.064 -0.4409 -0.0543 -0.1178
   49GLOH    O3 8865   6.376   8.141   3.141 -0.2815  0.5725  0.0966
   49GLOH   H01 8866   6.298   8.199   3.145  0.8330  2.3364 -2.3895
   50GLOH   H03 8867   9.239   5.232   3.761 -1.0815 -0.8786  0.4551
   50GLOH    O1 8868   9.231   5.295   3.834  0.4993 -0.2697  0.1041
   50GLOH    C1 8869   9.265   5.429   3.792 -0.0927 -0.2764 -0.4824
   50GLOH   H02 8870   9.359   5.436   3.739  0.2507 -0.4490  0.1015
   50GLOH   H08 8871   9.287   5.485   3.882 -1.9013 -2.1293  1.1789
   50GLOH    C2 8872   9.150   5.504   3.713  0.2808  0.4145 -0.1190
   50GLOH   H04 8873   9.198   5.596   3.676 -2.1580  0.9009 -2.2110
   50GLOH    O2 8874   9.117   5.432   3.593 -0.5424 -0.5438 -0.9119
   50GLOH   H05 8875   9.178   5.462   3.524  1.0528 -3.1094 -0.6805
   50GLOH    C3 8876   9.024   5.540   3.789 -0.2481 -0.0575  0.2790
   50GLOH   H06 8877   8.979   5.453   3.837  0.9511 -2.1022 -2.1633
   50GLOH   H07 8878   8.953   5.595   3.728  2.4727  3.4567  0.1280
   50GLOH    O3 8879   9.063   5.618   3.900 -0.6968 -0.2079 -0.2526
   50GLOH   H01 8880   8.982   5.639   3.950 -1.0566 -1.7159 -0.1813
   51GLOH   H03 8881   1.954   5.522   3.199  0.1879  0.2030 -4.9033
   51GLOH    O1 8882   2.038   5.570   3.215 -0.7489  0.4895 -0.1142
   51GLOH    C1 8883   2.011   5.711   3.209  0.3006 -0.3754  0.3751
   51GLOH   H02 8884   1.963   5.733   3.304  0.4154  1.9316 -0.0618
   51GLOH   H08 8885   1.930   5.729   3.138 -1.4990 -0.8963  2.2580
   51GLOH    C2 8886   2.128   5.804   3.194 -0.6494 -0.0234 -0.3689
   51GLOH   H04 8887   2.097   5.900   3.150  1.7698  0.2701 -1.5678
   51GLOH    O2 8888   2.190   5.819   3.328  0.1461  0.2066  0.1713
   51GLOH   H05 8889   2.213   5.731   3.363 -0.8007 -0.0816  0.0951
   51GLOH    C3 8890   2.233   5.752   3.086  0.5165  0.1567  0.6438
   51GLOH   H06 8891   2.248   5.651   3.125 -3.8273 -0.2703  1.5166
   51GLOH   H07 8892   2.327   5.804   3.105 -0.4295  1.4542  2.0277
   51GLOH    O3 8893   2.196   5.759   2.949 -0.2424  0.6606 -0.5563
   51GLOH   H01 8894   2.139   5.680   2.938  1.5639 -0.8813  0.8517
   52GLOH   H03 8895   5.559   9.905   2.644 -0.1855 -2.8508 -0.7079
   52GLOH    O1 8896   5.538   9.878   2.735  0.2094 -0.0746  0.2554
   52GLOH    C1 8897   5.632   9.929   2.834 -0.1538  0.2496  0.6118
   52GLOH   H02 8898   5.647  10.034   2.808  0.8696  0.4809  2.0547
   52GLOH   H08 8899   5.719   9.864   2.841  0.2450  0.7549  0.3270
   52GLOH    C2 8900   5.567   9.943   2.972  0.5164 -0.2060  0.8010
   52GLOH   H04 8901   5.647   9.971   3.043  0.4914 -0.1512  0.8074
   52GLOH    O2 8902   5.468  10.045   2.990 -0.1888  0.0227  0.0925
   52GLOH   H05 8903   5.404  10.039   2.917 -1.4426 -1.2958  1.2751
   52GLOH    C3 8904   5.514   9.810   3.027 -0.1704  0.3235 -0.0377
   52GLOH   H06 8905   5.430   9.779   2.966 -0.2852 -1.1758  0.8734
   52GLOH   H07 8906   5.482   9.841   3.126 -2.4424  3.2644 -1.6169
   52GLOH    O3 8907   5.621   9.708   3.038  0.1509  0.1537  0.2195
   52GLOH   H01 8908   5.585   9.636   3.093  1.3799 -0.1264  0.6726
   53GLOH   H03 8909   7.536   1.183   2.247 -2.0527  0.4584 -0.5535
   53GLOH    O1 8910   7.496   1.122   2.311 -0.4173  0.1404  0.1738
   53GLOH    C1 8911   7.550   0.992   2.280  0.8991  0.4668 -0.0354
   53GLOH   H02 8912   7.659   0.991   2.292  0.9918  1.1114 -0.7969
   53GLOH   H08 8913   7.531   0.967   2.176  2.7067  1.0123 -0.5247
   53GLOH    C2 8914   7.492   0.876   2.363 -0.6826  0.5113  0.3457
   53GLOH   H04 8915   7.383   0.879   2.343 -1.5584  2.7808  4.6892
   53GLOH    O2 8916   7.544   0.749   2.321  0.6339 -0.4597  0.0114
   53GLOH   H05 8917   7.496   0.723   2.241 -0.3967  1.4199 -0.0212
   53GLOH    C3 8918   7.528   0.891   2.514 -0.0860  0.5347 -0.0136
   53GLOH   H06 8919   7.455   0.825   2.561  0.2933  1.3695  1.7791
   53GLOH   H07 8920   7.503   0.992   2.546 -2.5257  0.4817 -1.6362
   53GLOH    O3 8921   7.656   0.846   2.564  0.0459 -0.0897 -0.1788
   53GLOH   H01 8922   7.645   0.823   2.658  1.8975 -0.7033 -0.0971
   54GLOH   H03 8923   3.203   6.441   0.353 -1.9598 -1.0530 -0.6621
   54GLOH    O1 8924   3.195   6.520   0.296  0.1825 -0.1301  0.2658
   54GLOH    C1 8925   3.279   6.631   0.344  0.3934 -0.8114 -0.2147
   54GLOH   H02 8926   3.343   6.669   0.265  0.1821  0.8915  0.4111
   54GLOH   H08 8927   3.349   6.590   0.417  0.7454 -2.6970 -1.6003
   54GLOH    C2 8928   3.200   6.748   0.412  0.1261  0.3291  0.1702
   54GLOH   H04 8929   3.120   6.791   0.350  1.5266  1.0277 -1.1958
   54GLOH    O2 8930   3.142   6.714   0.541 -0.3840  0.2722 -0.5722
   54GLOH   H05 8931   3.087   6.635   0.529 -0.7905  0.4409  0.1175
   54GLOH    C3 8932   3.308   6.851   0.445 -0.1150 -0.2725  0.6777
   54GLOH   H06 8933   3.386   6.812   0.510 -0.0772 -0.0089  0.7936
   54GLOH   H07 8934   3.260   6.930   0.503 -0.5673  1.2531 -1.7144
   54GLOH    O3 8935   3.367   6.919   0.332 -0.1479  0.3179 -0.6389
   54GLOH   H01 8936   3.302   6.934   0.261 -0.8101 -1.7463 -0.4960
   55GLOH   H03 8937   4.074   1.703   3.458  0.8314 -1.1708 -1.8822
   55GLOH    O1 8938   4.122   1.786   3.443 -0.1245 -0.1276  0.5595
   55GLOH    C1 8939   4.201   1.824   3.555 -0.0901  0.5432  0.0100
   55GLOH   H02 8940   4.288   1.873   3.511 -0.8945  0.0526 -2.1971
   55GLOH   H08 8941   4.235   1.733   3.605  2.5964  1.0664 -0.7657
   55GLOH    C2 8942   4.139   1.926   3.654  0.1255 -0.6791  0.5475
   55GLOH   H04 8943   4.206   1.947   3.738  1.1251  1.2140 -0.6718
   55GLOH    O2 8944   4.130   2.057   3.597 -0.0449  0.5846 -0.2397
   55GLOH   H05 8945   4.072   2.050   3.519  2.1873  0.8158 -1.9735
   55GLOH    C3 8946   3.995   1.880   3.694  0.4693  0.1334  0.3975
   55GLOH   H06 8947   3.945   1.821   3.617  1.9463  0.1014 -0.5612
   55GLOH   H07 8948   3.938   1.973   3.699 -0.1736  0.0088 -3.3703
   55GLOH    O3 8949   3.998   1.814   3.818  0.5816 -0.2970 -0.7298
   55GLOH   H01 8950   3.960   1.724   3.816 -1.2959  0.4555 -0.3620
   56GLOH   H03 8951   9.536   6.370   2.369 -0.3743  0.9992 -0.1562
   56GLOH    O1 8952   9.491   6.367   2.455 -0.1545 -0.3869 -0.0842
   56GLOH    C1 8953   9.590   6.331   2.552 -0.7536  0.6720  0.1805
   56GLOH   H02 8954   9.539   6.345   2.648 -4.1773 -0.9762 -1.3179
   56GLOH   H08 8955   9.682   6.390   2.546  0.5532 -1.1094  1.9555
   56GLOH    C2 8956   9.640   6.185   2.551 -1.0828 -0.2540 -0.7734
   56GLOH   H04 8957   9.687   6.171   2.452 -0.2448  0.0846 -0.4305
   56GLOH    O2 8958   9.743   6.160   2.647 -0.6039  0.2992 -0.3201
   56GLOH   H05 8959   9.715   6.188   2.735  1.3734 -1.0226  0.7849
   56GLOH    C3 8960   9.532   6.073   2.572  0.2659  0.1080 -0.1841
   56GLOH   H06 8961   9.504   6.075   2.678  4.0150  1.7632  0.8601
   56GLOH   H07 8962   9.586   5.981   2.550 -1.2979 -1.0729  0.7655
   56GLOH    O3 8963   9.418   6.074   2.477 -0.1358  0.4121 -0.3031
   56GLOH   H01 8964   9.448   6.076   2.384 -0.6223 -2.0960 -0.5589
   57GLOH   H03 8965   0.949   9.806   3.746  1.9032  2.6699 -0.6563
   57GLOH    O1 8966   1.037   9.773   3.773  1.1237  0.5592 -0.5901
   57GLOH    C1 8967   1.091   9.857   3.885  0.2639  0.1640  0.4562
   57GLOH   H02 8968   1.064   9.962   3.869 -0.3797  0.0555  0.8300
   57GLOH   H08 8969   1.198   9.864   3.903  0.4111 -2.8843  1.0216
   57GLOH    C2 8970   1.036   9.816   4.021  0.1809  0.4073 -0.2654
   57GLOH   H04 8971   1.110   9.862   4.088 -0.6866 -0.8874  1.6468
   57GLOH    O2 8972   0.903   9.869   4.035 -0.1648 -0.5701 -0.6855
   57GLOH   H05 8973   0.852   9.850   3.954  1.2720 -0.7207 -1.5820
   57GLOH    C3 8974   1.045   9.665   4.050  0.2041  0.4616  0.1563
   57GLOH   H06 8975   0.975   9.613   3.984 -1.9017  0.2072  2.5254
   57GLOH   H07 8976   1.008   9.656   4.152 -1.9746  0.6480 -0.5902
   57GLOH    O3 8977   1.181   9.614   4.041  0.2500  0.4448 -0.0623
   57GLOH   H01 8978   1.176   9.521   4.070 -1.0998  0.1874 -1.0707
   58GLOH   H03 8979   8.472   9.495   2.181 -1.7665 -0.8114  1.8355
   58GLOH    O1 8980   8.433   9.455   2.101  0.3184  0.5098  0.0674
   58GLOH    C1 8981   8.324   9.390   2.155  0.4311  0.2759  0.8439
   58GLOH   H02 8982   8.346   9.328   2.242  0.0544  0.1307  0.8375
   58GLOH   H08 8983   8.282   9.317   2.085 -2.1130  2.1733  0.3275
   58GLOH    C2 8984   8.210   9.494   2.186 -0.9167 -0.4012  0.8097
   58GLOH   H04 8985   8.176   9.532   2.089 -1.2395 -2.5472  0.0607
   58GLOH    O2 8986   8.104   9.432   2.254  0.1294 -0.9850 -0.0967
   58GLOH   H05 8987   8.032   9.494   2.273 -1.7059 -3.6270  1.8551
   58GLOH    C3 8988   8.265   9.621   2.255 -0.2794 -0.2845  0.2009
   58GLOH   H06 8989   8.342   9.664   2.191 -1.5822 -0.3428 -1.4437
   58GLOH   H07 8990   8.314   9.590   2.347  1.5779 -1.6385 -1.1705
   58GLOH    O3 8991   8.172   9.717   2.273 -0.2913  0.1200  0.5750
   58GLOH   H01 8992   8.208   9.801   2.238 -1.9297  1.2515  1.5302
   59GLOH   H03 8993   3.999   0.773   1.834 -1.4690 -0.2301  0.5879
   59GLOH    O1 8994   3.966   0.793   1.744  0.4253 -0.6195 -0.2149
   59GLOH    C1 8995   3.826   0.776   1.740 -0.1562 -0.4307 -0.1864
   59GLOH   H02 8996   3.778   0.844   1.810 -1.2202 -2.1696  0.8339
   59GLOH   H08 8997   3.791   0.675   1.764 -0.2882 -0.1131  0.9615
   59GLOH    C2 8998   3.783   0.804   1.595  0.7924  0.0666 -0.0776
   59GLOH   H04 8999   3.835   0.746   1.518 -1.0345 -0.5067 -0.9071
   59GLOH    O2 9000   3.644   0.764   1.583  0.4409 -0.3741 -0.3951
   59GLOH   H05 9001   3.625   0.751   1.489 -0.8126  1.6991 -0.4686
   59GLOH    C3 9002   3.796   0.953   1.569  0.6102  0.1785  0.6322
   59GLOH   H06 9003   3.895   0.991   1.592  0.8987 -0.5426  0.5797
   59GLOH   H07 9004   3.722   1.008   1.628  0.0204 -0.2177  0.2689
   59GLOH    O3 9005   3.770   0.977   1.428 -0.1635  0.1934 -0.9210
   59GLOH   H01 9006   3.801   1.066   1.402  0.7138  0.2904  0.4231
   60GLOH   H03 9007   0.380   7.075   0.659  2.2020  1.8502  0.0727
   60GLOH    O1 9008   0.327   7.150   0.692  0.2281  0.6985 -0.4269
   60GLOH    C1 9009   0.247   7.214   0.587 -0.2542  0.6132 -0.3387
   60GLOH   H02 9010   0.147   7.171   0.577  0.4978 -1.3788  0.4572
   60GLOH   H08 9011   0.309   7.197   0.499 -0.9201  0.9754 -0.8808
   60GLOH    C2 9012   0.244   7.371   0.602 -0.0527 -0.1201  0.9643
   60GLOH   H04 9013   0.348   7.406   0.596  0.8460 -2.7675  0.6767
   60GLOH    O2 9014   0.157   7.434   0.499 -1.0657 -0.1561  0.3765
   60GLOH   H05 9015   0.196   7.418   0.412  0.2565  2.6221  0.4190
   60GLOH    C3 9016   0.192   7.402   0.745  0.1323 -0.7655 -1.0685
   60GLOH   H06 9017   0.268   7.374   0.818  2.3239 -0.1516 -3.0614
   60GLOH   H07 9018   0.096   7.353   0.761 -1.2966  2.7690  1.8678
   60GLOH    O3 9019   0.171   7.541   0.772  0.0703  0.5356 -0.4520
   60GLOH   H01 9020   0.107   7.548   0.845 -0.8668 -1.0960 -1.0921
   61GLOH   H03 9021   3.046   3.621   0.436 -0.4263  1.3757  0.5371
   61GLOH    O1 9022   3.090   3.704   0.410  0.3264  0.7458 -0.2313
   61GLOH    C1 9023   3.015   3.816   0.468 -0.4569  0.0968  0.0320
   61GLOH   H02 9024   3.076   3.872   0.538  1.4068 -1.6491 -0.1540
   61GLOH   H08 9025   2.923   3.793   0.521 -1.5364  0.4006 -1.6410
   61GLOH    C2 9026   2.980   3.924   0.356  0.1692 -0.4070 -0.1294
   61GLOH   H04 9027   2.919   4.005   0.399  1.2499  0.7430 -0.7418
   61GLOH    O2 9028   3.108   3.971   0.304  0.2489  0.3887 -0.1405
   61GLOH   H05 9029   3.138   4.046   0.358 -0.8375 -0.5535  1.8196
   61GLOH    C3 9030   2.890   3.851   0.261  0.3794 -0.1561 -0.0916
   61GLOH   H06 9031   2.855   3.918   0.183  1.6043 -0.3484 -0.8163
   61GLOH   H07 9032   2.800   3.816   0.313  0.9111  0.4302  1.2527
   61GLOH    O3 9033   2.957   3.736   0.202  0.4122  0.4733 -0.0898
   61GLOH   H01 9034   3.030   3.715   0.263  0.8581  2.4635  0.0713
   62GLOH   H03 9035   4.744   1.983   0.429  0.4969 -1.3207 -1.1373
   62GLOH    O1 9036   4.737   2.054   0.362 -0.0351 -0.3481 -0.0519
   62GLOH    C1 9037   4.620   2.030   0.284 -0.1840 -0.5888 -0.9796
   62GLOH   H02 9038   4.635   1.947   0.215  0.9000 -1.6501  0.4957
   62GLOH   H08 9039   4.594   2.121   0.230  0.2750  1.0805  1.5676
   62GLOH    C2 9040   4.503   1.995   0.375  0.1814  1.0479  0.0782
   62GLOH   H04 9041   4.511   2.058   0.465  1.8916  2.4213 -0.9971
   62GLOH    O2 9042   4.382   2.015   0.307  0.5417 -0.8510 -0.9008
   62GLOH   H05 9043   4.369   2.112   0.306 -0.5781 -0.9441  1.2726
   62GLOH    C3 9044   4.506   1.853   0.429  0.0320 -0.3339 -0.5971
   62GLOH   H06 9045   4.532   1.778   0.355  2.4595 -1.8498  1.7039
   62GLOH   H07 9046   4.409   1.826   0.471 -0.2644 -0.5933 -1.4313
   62GLOH    O3 9047   4.597   1.837   0.545 -0.0736 -0.0420  0.0046
   62GLOH   H01 9048   4.592   1.909   0.611  1.7657  0.9218 -0.8637
   63GLOH   H03 9049   8.125   5.110   3.184 -0.9782 -2.4274  2.7032
   63GLOH    O1 9050   8.044   5.164   3.175  0.6945 -0.2466 -0.1968
   63GLOH    C1 9051   8.071   5.304   3.146 -0.4270 -0.3384  0.2986
   63GLOH   H02 9052   8.140   5.298   3.061 -0.7530 -1.3174  0.0959
   63GLOH   H08 9053   8.117   5.352   3.232  1.0305 -2.2725  0.6248
   63GLOH    C2 9054   7.957   5.391   3.092  0.3134 -0.4146 -0.5253
   63GLOH   H04 9055   7.890   5.324   3.037 -1.9372  0.6083  0.8790
   63GLOH    O2 9056   7.882   5.452   3.202  0.0100  0.6832 -0.2193
   63GLOH   H05 9057   7.838   5.531   3.166 -2.3893 -0.2362  0.6229
   63GLOH    C3 9058   8.015   5.506   3.002 -0.2678  0.3042 -0.5632
   63GLOH   H06 9059   7.933   5.566   2.961  0.7098 -0.5744 -3.9896
   63GLOH   H07 9060   8.060   5.463   2.913  0.3398  1.4190 -0.8062
   63GLOH    O3 9061   8.121   5.588   3.060  0.5533  0.7049 -0.3981
   63GLOH   H01 9062   8.128   5.595   3.157 -0.4626  2.0473 -0.4209
   64GLOH   H03 9063   0.179   0.558   2.074 -1.2105  0.7183  0.3174
   64GLOH    O1 9064   0.153   0.541   2.166 -0.3520 -0.0359  0.4290
   64GLOH    C1 9065   0.006   0.551   2.178  0.1453 -0.1876  0.7913
   64GLOH   H02 9066  -0.019   0.583   2.279  0.7981  0.3809  0.7829
   64GLOH   H08 9067  -0.037   0.452   2.170 -0.9736  0.2599  1.1500
   64GLOH    C2 9068  -0.070   0.648   2.083  0.0413 -0.6222 -0.4874
   64GLOH   H04 9069  -0.171   0.655   2.127 -0.9184 -5.9369 -1.4140
   64GLOH    O2 9070  -0.004   0.776   2.081 -0.6928 -0.4141  0.1008
   64GLOH   H05 9071   0.086   0.774   2.117 -0.1190  0.8616 -1.2555
   64GLOH    C3 9072  -0.082   0.590   1.940 -0.4376 -0.1362  0.4754
   64GLOH   H06 9073   0.019   0.575   1.903 -0.1026 -0.8266  1.6613
   64GLOH   H07 9074  -0.122   0.665   1.872  0.9850 -1.7529 -2.2264
   64GLOH    O3 9075  -0.160   0.472   1.929  0.0291  0.1256  0.3191
   64GLOH   H01 9076  -0.151   0.436   1.839  0.7737  1.3245 -0.0971
   65GLOH   H03 9077   3.182   5.281   0.759  0.2387  0.1395 -0.1716
   65GLOH    O1 9078   3.132   5.356   0.722 -0.3772  0.1024  0.5740
   65GLOH    C1 9079   2.988   5.342   0.735  0.1442 -0.6493  0.4154
   65GLOH   H02 9080   2.946   5.443   0.728  1.6218 -0.0411  0.0756
   65GLOH   H08 9081   2.962   5.318   0.838 -2.0101 -1.0418 -0.2139
   65GLOH    C2 9082   2.919   5.255   0.627  0.4225 -1.1876 -0.5614
   65GLOH   H04 9083   2.966   5.156   0.616 -0.8804 -2.0248  1.2387
   65GLOH    O2 9084   2.783   5.223   0.674 -0.5758 -0.0421 -0.0604
   65GLOH   H05 9085   2.770   5.126   0.675  1.5914 -0.3529 -0.9544
   65GLOH    C3 9086   2.915   5.338   0.499 -0.7650  0.6014 -0.5342
   65GLOH   H06 9087   2.879   5.437   0.525 -3.0589 -0.0043 -1.2494
   65GLOH   H07 9088   2.843   5.293   0.429 -2.0427  0.3677  0.8993
   65GLOH    O3 9089   3.049   5.353   0.436 -0.0366 -0.5814 -0.1144
   65GLOH   H01 9090   3.094   5.431   0.473 -0.3671  0.1676 -1.2762
   66GLOH   H03 9091   5.792   9.840   1.449  0.9630 -2.4022  1.1267
   66GLOH    O1 9092   5.798   9.890   1.533 -0.0820  0.4652 -0.4460
   66GLOH    C1 9093   5.779   9.799   1.643  0.2026  0.4351 -0.2674
   66GLOH   H02 9094   5.874   9.760   1.679  0.4937 -0.4190 -1.8960
   66GLOH   H08 9095   5.717   9.713   1.615 -1.2288  1.5019 -0.4654
   66GLOH    C2 9096   5.711   9.878   1.758 -0.0643  0.2312  0.4031
   66GLOH   H04 9097   5.616   9.909   1.713  0.2532 -0.6307 -0.8794
   66GLOH    O2 9098   5.672   9.795   1.869 -0.2397  0.2863 -0.1813
   66GLOH   H05 9099   5.602   9.844   1.916 -2.2769 -0.9894 -1.8051
   66GLOH    C3 9100   5.783  10.001   1.802 -0.7468 -0.3404 -0.2082
   66GLOH   H06 9101   5.885   9.981   1.835 -0.1065 -0.6352 -2.3105
   66GLOH   H07 9102   5.730  10.048   1.884  1.5231  1.4436  0.2890
   66GLOH    O3 9103   5.793  10.092   1.695 -0.0558 -0.4034 -0.2828
   66GLOH   H01 9104   5.810  10.040   1.614  1.3107 -0.1682 -0.1484
   67GLOH   H03 9105   4.051   6.445   2.564  0.1722  2.7915 -1.6920
   67GLOH    O1 9106   3.998   6.484   2.636 -0.0954 -0.7428  0.1564
   67GLOH    C1 9107   3.943   6.379   2.716 -0.2614  0.3298  0.3752
   67GLOH   H02 9108   4.016   6.317   2.767  0.9352  2.8441  1.8463
   67GLOH   H08 9109   3.881   6.320   2.649  2.0488  0.0784 -1.5578
   67GLOH    C2 9110   3.854   6.438   2.827 -0.0511 -0.0184  0.1319
   67GLOH   H04 9111   3.772   6.496   2.781 -0.5955 -0.9311 -0.0547
   67GLOH    O2 9112   3.800   6.340   2.912  0.7323  0.3190 -0.2728
   67GLOH   H05 9113   3.723   6.378   2.959 -0.0172 -0.3014 -0.9945
   67GLOH    C3 9114   3.937   6.538   2.910 -0.5602  0.2637 -0.2116
   67GLOH   H06 9115   4.005   6.483   2.974  0.2315 -1.3198 -2.3440
   67GLOH   H07 9116   3.870   6.590   2.978 -0.2268  0.9875 -0.4314
   67GLOH    O3 9117   4.011   6.640   2.836 -0.1873 -0.1541  0.4079
   67GLOH   H01 9118   4.011   6.612   2.743 -2.7120  1.1920 -0.0396
   68GLOH   H03 9119   8.312   0.677   0.782  1.0154  0.5910 -0.4842
   68GLOH    O1 9120   8.335   0.595   0.828 -0.2102  0.2931 -0.3794
   68GLOH    C1 9121   8.357   0.490   0.733  0.4734  0.4587  1.0255
   68GLOH   H02 9122   8.463   0.464   0.731 -0.3138 -2.9378  0.9273
   68GLOH   H08 9123   8.327   0.528   0.635  1.8697 -2.3273 -0.5308
   68GLOH    C2 9124   8.280   0.356   0.748 -0.3110  0.0347  0.1347
   68GLOH   H04 9125   8.311   0.305   0.656  0.4899 -1.1624  1.0603
   68GLOH    O2 9126   8.315   0.265   0.856 -0.9179  0.0568  0.2739
   68GLOH   H05 9127   8.265   0.186   0.830 -2.9280  2.1162 -2.4362
   68GLOH    C3 9128   8.131   0.390   0.759  0.3696 -0.5200 -0.3281
   68GLOH   H06 9129   8.116   0.464   0.838 -1.0159  0.1531 -1.1949
   68GLOH   H07 9130   8.085   0.300   0.799  1.5714 -0.5970  0.8956
   68GLOH    O3 9131   8.083   0.428   0.630 -0.1649  0.0582  0.4292
   68GLOH   H01 9132   8.090   0.349   0.574 -0.1089 -0.2160  0.8207
   69GLOH   H03 9133   3.099   3.581   1.319 -2.2718 -0.4777  0.1758
   69GLOH    O1 9134   3.065   3.671   1.302 -0.2757  0.1949 -0.5008
   69GLOH    C1 9135   3.104   3.724   1.178 -0.5038 -0.2513 -0.1501
   69GLOH   H02 9136   3.075   3.661   1.093  0.8322 -0.4581 -0.4680
   69GLOH   H08 9137   3.212   3.726   1.166 -0.4318  1.4063  0.7498
   69GLOH    C2 9138   3.041   3.860   1.149 -0.9115 -0.2198  0.1563
   69GLOH   H04 9139   3.028   3.912   1.244  2.5811 -1.2496  1.2500
   69GLOH    O2 9140   3.120   3.923   1.047 -0.3994  0.1685  0.1513
   69GLOH   H05 9141   3.198   3.971   1.080 -0.0521 -0.7114  0.6313
   69GLOH    C3 9142   2.900   3.832   1.095  0.0682 -0.9290  0.8168
   69GLOH   H06 9143   2.907   3.767   1.008  1.1279  0.5296 -0.1898
   69GLOH   H07 9144   2.859   3.929   1.068 -0.8690 -1.6274 -0.3278
   69GLOH    O3 9145   2.813   3.770   1.190  0.2586 -0.2690 -0.1861
   69GLOH   H01 9146   2.771   3.839   1.244 -0.9826  0.0916 -1.5680
   70GLOH   H03 9147   4.330   3.231   2.170  2.9415 -3.2651  2.1708
   70GLOH    O1 9148   4.269   3.234   2.246 -0.5774  0.0507 -0.5508
   70GLOH    C1 9149   4.169   3.332   2.210  0.3093 -0.2570 -0.0243
   70GLOH   H02 9150   4.081   3.327   2.273  1.2062 -0.3600  1.2430
   70GLOH   H08 9151   4.125   3.302   2.115 -0.7616 -1.9696  0.9927
   70GLOH    C2 9152   4.218   3.481   2.222  0.1894 -0.0284  0.4785
   70GLOH   H04 9153   4.287   3.477   2.308 -0.3508 -2.4936  0.8282
   70GLOH    O2 9154   4.285   3.509   2.095  0.7898 -0.1676  0.0941
   70GLOH   H05 9155   4.358   3.447   2.079 -0.5024 -1.9758  1.0496
   70GLOH    C3 9156   4.103   3.586   2.236 -0.3158  0.1271 -0.1865
   70GLOH   H06 9157   4.046   3.593   2.144  2.6639 -0.1166 -2.1137
   70GLOH   H07 9158   4.151   3.684   2.246  0.6964 -0.3440 -0.3496
   70GLOH    O3 9159   4.026   3.576   2.359  0.0560  0.5700  0.1525
   70GLOH   H01 9160   3.931   3.583   2.336  0.0507  0.2534  0.0763
   71GLOH   H03 9161   3.722   5.009   2.512 -0.4771  0.2961 -0.8961
   71GLOH    O1 9162   3.653   5.055   2.562  0.1532  0.3221 -0.0388
   71GLOH    C1 9163   3.525   5.017   2.508  0.2369  0.5308  0.0910
   71GLOH   H02 9164   3.518   5.027   2.400  0.1455  0.0311  0.0450
   71GLOH   H08 9165   3.455   5.090   2.548  0.7336  1.1225 -0.1312
   71GLOH    C2 9166   3.478   4.874   2.535 -0.1579 -0.0030 -0.6164
   71GLOH   H04 9167   3.564   4.807   2.525  0.9378  0.9047  2.4091
   71GLOH    O2 9168   3.430   4.862   2.670  0.6643 -0.4018  0.0128
   71GLOH   H05 9169   3.508   4.840   2.723  0.2854 -0.6071  0.4946
   71GLOH    C3 9170   3.360   4.834   2.437 -0.4560  0.7794  0.1330
   71GLOH   H06 9171   3.397   4.854   2.336  0.4995  1.6587  0.6561
   71GLOH   H07 9172   3.285   4.911   2.455 -0.9627  0.3815 -0.2333
   71GLOH    O3 9173   3.301   4.703   2.452 -0.1386 -0.0382  0.1400
   71GLOH   H01 9174   3.373   4.639   2.437 -0.9424 -1.0352  0.4384
   72GLOH   H03 9175   9.037   5.096   2.510 -1.4010  0.0664 -0.5430
   72GLOH    O1 9176   9.052   5.023   2.448  0.0214 -0.7251  0.7042
   72GLOH    C1 9177   8.951   5.004   2.347  0.2889  0.0153 -0.3570
   72GLOH   H02 9178   8.966   5.069   2.261 -0.1445 -2.3836 -2.3095
   72GLOH   H08 9179   8.854   5.032   2.389  0.9821  3.0519 -0.6725
   72GLOH    C2 9180   8.948   4.861   2.298 -0.3462 -0.2628 -0.1319
   72GLOH   H04 9181   8.943   4.797   2.387  4.6795  0.9014  1.1246
   72GLOH    O2 9182   8.831   4.838   2.223  0.0601 -0.2209 -0.4838
   72GLOH   H05 9183   8.868   4.821   2.134  1.3289  0.1567 -0.0386
   72GLOH    C3 9184   9.080   4.831   2.225  0.3482 -0.0747 -0.1205
   72GLOH   H06 9185   9.158   4.878   2.286  0.7527 -0.0924 -0.6251
   72GLOH   H07 9186   9.091   4.890   2.134 -1.2528 -1.4450 -1.2110
   72GLOH    O3 9187   9.109   4.694   2.199 -0.0117 -0.0848 -0.3666
   72GLOH   H01 9188   9.161   4.695   2.117 -1.5549  2.7156 -1.3583
   73GLOH   H03 9189   1.041   6.766   1.904  0.3131  0.1585 -2.0700
   73GLOH    O1 9190   1.061   6.858   1.930  0.0040 -0.3396 -0.0235
   73GLOH    C1 9191   1.105   6.931   1.808 -0.2727  0.0531  0.3603
   73GLOH   H02 9192   1.050   7.025   1.809  1.0964  0.9035 -1.5749
   73GLOH   H08 9193   1.076   6.886   1.713 -2.1018 -0.7519  1.2733
   73GLOH    C2 9194   1.258   6.948   1.814 -0.1640 -0.0048  0.5953
   73GLOH   H04 9195   1.305   6.849   1.820 -1.3286 -0.6340 -0.4644
   73GLOH    O2 9196   1.304   7.023   1.696 -0.1018  0.5736  0.0704
   73GLOH   H05 9197   1.401   7.025   1.698 -0.0912 -0.6281  2.4556
   73GLOH    C3 9198   1.304   7.017   1.939 -0.3392  0.5478 -0.9680
   73GLOH   H06 9199   1.304   7.124   1.919  0.5288  0.5383 -1.0327
   73GLOH   H07 9200   1.408   6.990   1.954 -0.5148  1.2546  1.6802
   73GLOH    O3 9201   1.231   6.979   2.058  0.1376 -0.0067  0.0596
   73GLOH   H01 9202   1.147   6.940   2.027 -0.7819 -0.3789  2.8808
   74GLOH   H03 9203   9.233   3.566   2.248 -0.4557 -2.1425  0.0240
   74GLOH    O1 9204   9.269   3.598   2.332 -0.1530 -0.2627 -0.8007
   74GLOH    C1 9205   9.387   3.677   2.319 -0.0725  0.3937  0.3641
   74GLOH   H02 9206   9.369   3.756   2.246  2.2372  1.7270  1.1731
   74GLOH   H08 9207   9.476   3.621   2.291  0.9904  1.5962  1.2136
   74GLOH    C2 9208   9.416   3.740   2.456 -0.5916 -0.2886 -0.3216
   74GLOH   H04 9209   9.398   3.670   2.538  0.8293 -1.3756 -0.9198
   74GLOH    O2 9210   9.555   3.783   2.453 -0.5390  0.4373  0.0447
   74GLOH   H05 9211   9.592   3.789   2.542 -0.7629 -1.2295  0.2663
   74GLOH    C3 9212   9.319   3.860   2.467 -0.6925 -1.4370  0.1682
   74GLOH   H06 9213   9.334   3.926   2.382 -2.4764  1.6489  2.1487
   74GLOH   H07 9214   9.341   3.915   2.558 -1.1222 -2.6132  0.9930
   74GLOH    O3 9215   9.184   3.818   2.481  0.3173  0.1261 -0.3422
   74GLOH   H01 9216   9.171   3.733   2.436  1.9082 -0.3872  0.1296
   75GLOH   H03 9217   0.582   0.659   2.511 -3.3370  0.1991 -0.6575
   75GLOH    O1 9218   0.607   0.693   2.423  0.1494 -0.7206 -0.1080
   75GLOH    C1 9219   0.548   0.825   2.430 -0.1987 -0.2020 -0.3463
   75GLOH   H02 9220   0.512   0.847   2.530  0.7395 -0.4185  0.0396
   75GLOH   H08 9221   0.464   0.838   2.361 -0.6071  0.2244  0.2252
   75GLOH    C2 9222   0.653   0.932   2.390 -0.3041  1.0551  0.5678
   75GLOH   H04 9223   0.631   0.946   2.283  0.0055  2.1487  0.6520
   75GLOH    O2 9224   0.633   1.056   2.457 -0.9312 -0.5964  0.6824
   75GLOH   H05 9225   0.713   1.111   2.459  0.7264 -2.8569 -0.0519
   75GLOH    C3 9226   0.795   0.875   2.410  0.4452 -0.4038 -0.5140
   75GLOH   H06 9227   0.790   0.826   2.507 -0.4327  0.8125  0.0741
   75GLOH   H07 9228   0.862   0.961   2.421  1.7974 -1.5200  0.2303
   75GLOH    O3 9229   0.842   0.793   2.301 -0.0512  0.6306 -1.1881
   75GLOH   H01 9230   0.930   0.761   2.327 -1.3489 -1.5375  0.7288
   76GLOH   H03 9231   1.501   9.437   0.463 -1.2469  0.4400  2.3020
   76GLOH    O1 9232   1.480   9.529   0.438 -0.1582 -0.0843 -0.7761
   76GLOH    C1 9233   1.500   9.610   0.560  0.2446 -0.0380  0.9900
   76GLOH   H02 9234   1.459   9.710   0.547 -3.2770 -1.8869 -3.4226
   76GLOH   H08 9235   1.607   9.619   0.581  0.1457  0.3651  1.3400
   76GLOH    C2 9236   1.449   9.557   0.692 -0.4121 -0.6509  0.3429
   76GLOH   H04 9237   1.339   9.551   0.687 -0.3485 -0.6786 -1.3782
   76GLOH    O2 9238   1.516   9.432   0.715 -0.4565 -0.1779  0.1604
   76GLOH   H05 9239   1.452   9.360   0.701 -1.2219  0.5754 -0.2448
   76GLOH    C3 9240   1.477   9.652   0.806 -0.3376  0.5994 -0.1411
   76GLOH   H06 9241   1.579   9.688   0.803  0.1768 -0.8333 -0.3072
   76GLOH   H07 9242   1.460   9.605   0.903 -2.3006 -1.0903 -1.2448
   76GLOH    O3 9243   1.407   9.771   0.788  0.1646 -0.9071 -0.5914
   76GLOH   H01 9244   1.439   9.825   0.714 -0.3216  0.3186  0.0753
   77GLOH   H03 9245   8.584   6.942   1.457 -1.1375 -0.9948 -0.2885
   77GLOH    O1 9246   8.506   6.999   1.440 -0.4259  0.1194  0.1168
   77GLOH    C1 9247   8.539   7.108   1.353 -0.1847 -0.3830  0.1714
   77GLOH   H02 9248   8.646   7.102   1.332  0.0700  2.6544  0.4893
   77GLOH   H08 9249   8.518   7.203   1.401 -1.0922 -0.4359 -0.1081
   77GLOH    C2 9250   8.472   7.111   1.213 -0.4403 -0.6103 -0.0889
   77GLOH   H04 9251   8.364   7.131   1.213 -0.8541 -2.5942 -2.1170
   77GLOH    O2 9252   8.529   7.224   1.148 -0.6412  0.0120 -0.7136
   77GLOH   H05 9253   8.457   7.288   1.134  0.0936  0.8385 -0.7341
   77GLOH    C3 9254   8.503   6.978   1.144  0.1898 -0.0230 -0.4510
   77GLOH   H06 9255   8.470   6.896   1.208  2.8343 -0.4183  0.4632
   77GLOH   H07 9256   8.611   6.966   1.134  0.5500  0.1668  2.6327
   77GLOH    O3 9257   8.447   6.971   1.016 -0.3784 -0.1120  0.2694
   77GLOH   H01 9258   8.434   6.876   0.999  0.9930  0.1688 -2.6995
   78GLOH   H03 9259   6.533   7.594   2.764 -0.0319 -2.4720 -1.3966
   78GLOH    O1 9260   6.561   7.545   2.844  0.0285  0.0524  0.1810
   78GLOH    C1 9261   6.636   7.631   2.928 -0.8462 -0.3481  0.6696
   78GLOH   H02 9262   6.638   7.586   3.027  0.1388  1.0186  1.2943
   78GLOH   H08 9263   6.587   7.728   2.934 -1.5635 -0.2940 -4.0447
   78GLOH    C2 9264   6.787   7.657   2.891  0.3275 -0.0899  0.4579
   78GLOH   H04 9265   6.783   7.714   2.798 -2.3188 -1.2491 -0.1831
   78GLOH    O2 9266   6.846   7.744   2.986  0.1671 -0.0420 -0.1088
   78GLOH   H05 9267   6.940   7.724   2.975 -0.1217 -0.7008 -1.5007
   78GLOH    C3 9268   6.866   7.526   2.868 -0.4981  0.1038 -0.7634
   78GLOH   H06 9269   6.885   7.474   2.962  0.4847  0.2655 -0.8716
   78GLOH   H07 9270   6.959   7.552   2.819 -0.8928  0.8452 -1.1221
   78GLOH    O3 9271   6.792   7.437   2.781  0.1435  0.1477  0.3218
   78GLOH   H01 9272   6.697   7.454   2.795 -0.0740 -1.7444  1.2627
   79GLOH   H03 9273   5.161   1.430   1.566  3.9518 -0.3048  0.4153
   79GLOH    O1 9274   5.171   1.477   1.482  1.0666  0.6636  0.5695
   79GLOH    C1 9275   5.114   1.613   1.485  0.1811  0.4475  0.7514
   79GLOH   H02 9276   5.187   1.687   1.453 -1.9749  2.8792  1.2780
   79GLOH   H08 9277   5.082   1.651   1.582  0.9114  0.1913  1.0973
   79GLOH    C2 9278   5.000   1.632   1.386 -0.6783  0.0952  0.4671
   79GLOH   H04 9279   4.931   1.548   1.401 -0.3745  0.0565  1.6682
   79GLOH    O2 9280   4.928   1.750   1.408  0.6174 -0.1326 -0.1704
   79GLOH   H05 9281   4.982   1.821   1.371  0.6985 -0.6577 -1.0781
   79GLOH    C3 9282   5.045   1.634   1.234  0.3075 -0.1012 -0.6884
   79GLOH   H06 9283   5.111   1.549   1.220 -1.4621 -2.2178  3.1762
   79GLOH   H07 9284   5.103   1.723   1.211 -0.5472  0.7030  0.2247
   79GLOH    O3 9285   4.927   1.616   1.149  0.7350  0.4159  0.6948
   79GLOH   H01 9286   4.865   1.690   1.161 -1.3098 -1.0193 -0.6611
   80GLOH   H03 9287   2.645   9.619   3.773 -2.0821  0.1231 -0.3500
   80GLOH    O1 9288   2.648   9.608   3.870  0.0804  0.8344 -0.3195
   80GLOH    C1 9289   2.627   9.469   3.906 -0.1711  0.3048 -0.2204
   80GLOH   H02 9290   2.573   9.414   3.830 -3.1919 -0.2649  2.2431
   80GLOH   H08 9291   2.566   9.471   3.996 -0.8891  0.7126 -0.7195
   80GLOH    C2 9292   2.758   9.405   3.948 -0.4889 -0.0774 -0.1236
   80GLOH   H04 9293   2.831   9.433   3.870  1.3212 -0.0499  1.5485
   80GLOH    O2 9294   2.805   9.470   4.068  0.0128  0.3175  0.9033
   80GLOH   H05 9295   2.840   9.558   4.046 -1.8437  0.9918  0.5479
   80GLOH    C3 9296   2.752   9.254   3.971  0.2377  0.4157 -0.1648
   80GLOH   H06 9297   2.701   9.229   4.064 -0.7502 -0.5515 -0.9468
   80GLOH   H07 9298   2.854   9.216   3.963  0.1838  0.7965 -3.8772
   80GLOH    O3 9299   2.687   9.187   3.861 -0.0668  0.1468 -0.1970
   80GLOH   H01 9300   2.696   9.091   3.876  0.4861  0.4443  1.4470
   81GLOH   H03 9301   4.333   0.917   4.006 -2.1468 -0.0956  1.2458
   81GLOH    O1 9302   4.341   1.013   3.995 -0.0864 -0.3521  0.2774
   81GLOH    C1 9303   4.361   1.037   3.853  0.2366 -0.2002  0.1693
   81GLOH   H02 9304   4.462   1.021   3.816  0.3393 -0.6139  0.6187
   81GLOH   H08 9305   4.331   1.140   3.836 -0.5453 -0.6529 -1.3649
   81GLOH    C2 9306   4.267   0.945   3.774  0.0154 -0.5735 -0.0612
   81GLOH   H04 9307   4.308   0.939   3.672  3.4808 -1.5131  1.2881
   81GLOH    O2 9308   4.284   0.812   3.812 -0.1572  0.3850  0.0280
   81GLOH   H05 9309   4.223   0.787   3.883 -0.8112  2.7575  0.3603
   81GLOH    C3 9310   4.125   0.987   3.776  0.1925 -0.6621 -1.1788
   81GLOH   H06 9311   4.106   1.016   3.880  0.5694 -0.7693 -1.0794
   81GLOH   H07 9312   4.059   0.908   3.741 -0.5499  0.0557 -1.3897
   81GLOH    O3 9313   4.105   1.097   3.691  0.2499  0.2747 -0.3515
   81GLOH   H01 9314   4.094   1.068   3.599 -0.1244 -0.1414 -0.1774
   82GLOH   H03 9315   0.075   9.762   2.395 -0.6061  1.0596  1.6537
   82GLOH    O1 9316   0.100   9.691   2.457  0.0007 -0.2075 -0.0062
   82GLOH    C1 9317   0.036   9.573   2.404  0.6034 -0.1440  0.4962
   82GLOH   H02 9318  -0.070   9.581   2.425  0.6814  2.4802  0.0554
   82GLOH   H08 9319   0.079   9.478   2.437  0.0498  0.3505  2.7375
   82GLOH    C2 9320   0.047   9.566   2.248  0.3004 -0.3204 -0.6270
   82GLOH   H04 9321  -0.021   9.484   2.221  0.0405 -0.5458  0.6914
   82GLOH    O2 9322  -0.000   9.684   2.176 -0.2567  0.2533 -0.1356
   82GLOH   H05 9323  -0.086   9.705   2.216  0.0214 -0.3697  0.8017
   82GLOH    C3 9324   0.192   9.543   2.196  0.1955  0.4574 -0.1232
   82GLOH   H06 9325   0.251   9.635   2.201 -0.8548  1.1621 -0.4880
   82GLOH   H07 9326   0.190   9.528   2.088  1.5486 -0.0931 -0.0692
   82GLOH    O3 9327   0.247   9.432   2.262  0.1577 -0.0749  0.1958
   82GLOH   H01 9328   0.342   9.453   2.265  0.0424  0.3263  1.3302
   83GLOH   H03 9329   9.580   3.695   3.015  0.3381  0.1984  0.7774
   83GLOH    O1 9330   9.610   3.638   2.942 -0.0953  0.6392  0.2478
   83GLOH    C1 9331   9.522   3.531   2.931 -0.1657 -0.3812 -0.3170
   83GLOH   H02 9332   9.513   3.476   3.026 -0.6110 -1.7146 -1.1181
   83GLOH   H08 9333   9.569   3.468   2.855  2.0936 -1.0431  1.5402
   83GLOH    C2 9334   9.377   3.573   2.890 -0.5368  0.2260 -0.2707
   83GLOH   H04 9335   9.332   3.635   2.969  1.7354 -0.4067  1.5811
   83GLOH    O2 9336   9.375   3.662   2.776 -0.1573  0.6398 -0.1580
   83GLOH   H05 9337   9.460   3.706   2.759 -0.1437  0.2802 -1.0757
   83GLOH    C3 9338   9.288   3.446   2.872 -0.0078  0.2907  0.0134
   83GLOH   H06 9339   9.198   3.477   2.819  0.5913  0.5392 -0.8692
   83GLOH   H07 9340   9.261   3.404   2.969 -0.6501 -2.7832 -1.4653
   83GLOH    O3 9341   9.360   3.347   2.796  0.0111 -0.2644 -0.5049
   83GLOH   H01 9342   9.368   3.376   2.703  0.5201 -0.9808 -0.6893
   84GLOH   H03 9343   7.920   0.809   2.310  0.1107 -0.0216 -0.5836
   84GLOH    O1 9344   7.930   0.767   2.222 -1.0271 -0.7094 -0.4055
   84GLOH    C1 9345   8.068   0.755   2.179  0.2696  0.1522 -0.6355
   84GLOH   H02 9346   8.102   0.655   2.206  2.4580  0.4184 -2.2499
   84GLOH   H08 9347   8.140   0.820   2.229 -1.9256  0.5770  2.1213
   84GLOH    C2 9348   8.076   0.765   2.023 -0.3507  0.4427 -0.6953
   84GLOH   H04 9349   8.036   0.864   1.997 -0.7936  1.3986  3.3047
   84GLOH    O2 9350   8.214   0.757   1.986 -0.1604 -0.8189 -0.3687
   84GLOH   H05 9351   8.250   0.842   1.954  0.8948 -1.9000 -2.1314
   84GLOH    C3 9352   7.994   0.658   1.948 -0.7073 -0.4493 -0.0309
   84GLOH   H06 9353   8.047   0.564   1.961  0.3395 -0.2662 -2.6733
   84GLOH   H07 9354   8.011   0.692   1.846  2.0919  3.7740  1.7125
   84GLOH    O3 9355   7.860   0.663   2.003  0.4788 -0.5448 -1.0366
   84GLOH   H01 9356   7.877   0.672   2.099  1.7265  1.1992 -1.3852
   85GLOH   H03 9357   3.998   8.925   3.682 -2.0276  0.6166 -0.8193
   85GLOH    O1 9358   3.999   9.022   3.668 -0.1739  0.7721  0.2283
   85GLOH    C1 9359   3.949   9.055   3.536  0.2912  0.1787  0.1075
   85GLOH   H02 9360   3.867   8.990   3.505 -0.6635  1.8104 -0.8072
   85GLOH   H08 9361   4.026   9.042   3.460  1.3785 -1.0933  1.3944
   85GLOH    C2 9362   3.904   9.204   3.524  0.5552  0.3728  0.2645
   85GLOH   H04 9363   3.997   9.261   3.511  0.7814  0.2936  1.4640
   85GLOH    O2 9364   3.840   9.226   3.399 -0.1986 -0.0196  0.0771
   85GLOH   H05 9365   3.898   9.237   3.322  0.4588  2.1292  0.8348
   85GLOH    C3 9366   3.814   9.247   3.644 -0.2783 -0.6660 -0.1952
   85GLOH   H06 9367   3.727   9.182   3.643  0.7040 -1.9932 -2.0110
   85GLOH   H07 9368   3.766   9.342   3.622 -0.6685 -1.0430 -1.0020
   85GLOH    O3 9369   3.891   9.246   3.761 -0.0189  0.0153 -0.1138
   85GLOH   H01 9370   3.943   9.163   3.751 -2.7089 -1.4715 -2.3713
   86GLOH   H03 9371   9.671   6.778   1.316  0.7510 -0.2954  0.7406
   86GLOH    O1 9372   9.706   6.710   1.255 -0.2488  0.3058 -0.5372
   86GLOH    C1 9373   9.787   6.605   1.317  0.0783  0.7964 -0.0039
   86GLOH   H02 9374   9.759   6.580   1.420  1.2512 -1.1795 -0.1517
   86GLOH   H08 9375   9.891   6.638   1.318  0.4561 -0.3724  1.0101
   86GLOH    C2 9376   9.789   6.471   1.237 -0.0464  0.4280 -0.6038
   86GLOH   H04 9377   9.869   6.403   1.270 -1.3530 -0.9187 -0.1393
   86GLOH    O2 9378   9.668   6.395   1.248  0.4561  0.2493 -0.0985
   86GLOH   H05 9379   9.623   6.412   1.163  1.9564 -0.6827 -1.1056
   86GLOH    C3 9380   9.816   6.494   1.088  0.6099 -0.2388 -0.1155
   86GLOH   H06 9381   9.746   6.568   1.049  0.8677  0.7178  1.1988
   86GLOH   H07 9382   9.804   6.405   1.027 -0.9542 -0.2984  0.2551
   86GLOH    O3 9383   9.949   6.540   1.078  0.1428  0.7554  0.4516
   86GLOH   H01 9384  10.017   6.470   1.071 -0.6652  0.0833 -0.9236
   87GLOH   H03 9385   8.021   1.568   2.655 -0.4878 -1.6310  0.7951
   87GLOH    O1 9386   8.117   1.571   2.639 -0.7278  0.2968 -0.4388
   87GLOH    C1 9387   8.173   1.471   2.726 -0.6375  0.8460 -0.4557
   87GLOH   H02 9388   8.143   1.374   2.687 -1.2052  0.8755 -0.0883
   87GLOH   H08 9389   8.142   1.481   2.830  0.4076  1.0403 -0.1566
   87GLOH    C2 9390   8.327   1.473   2.741 -0.1308 -0.2224 -0.3941
   87GLOH   H04 9391   8.348   1.570   2.786  2.4597 -0.3918 -1.1586
   87GLOH    O2 9392   8.379   1.368   2.829 -0.4562 -0.1625  0.9547
   87GLOH   H05 9393   8.403   1.408   2.914 -0.3979  0.4681  0.6441
   87GLOH    C3 9394   8.383   1.465   2.595  0.0208  0.4901  0.1512
   87GLOH   H06 9395   8.374   1.367   2.548 -0.4782  0.0022  1.2584
   87GLOH   H07 9396   8.490   1.482   2.609 -0.2810  2.1585  0.5353
   87GLOH    O3 9397   8.336   1.570   2.506  0.4699  0.1343  0.2764
   87GLOH   H01 9398   8.243   1.584   2.533  0.5156 -1.5087  1.3611
   88GLOH   H03 9399   4.663   4.541   0.873  1.0670 -2.1349  1.5413
   88GLOH    O1 9400   4.747   4.587   0.891  0.3593 -0.3254  0.3906
   88GLOH    C1 9401   4.737   4.634   1.024 -0.6002  0.2605  0.1248
   88GLOH   H02 9402   4.634   4.651   1.055 -0.1037  0.3263  1.7705
   88GLOH   H08 9403   4.792   4.728   1.024  1.3909 -0.8616 -1.7794
   88GLOH    C2 9404   4.814   4.544   1.119  0.1902  0.5566 -0.2223
   88GLOH   H04 9405   4.823   4.603   1.212  0.7178 -0.9717  0.7243
   88GLOH    O2 9406   4.740   4.423   1.141 -0.2235  0.4264 -0.1834
   88GLOH   H05 9407   4.731   4.375   1.057  1.6529 -1.5900  0.7203
   88GLOH    C3 9408   4.955   4.511   1.074  0.4117 -0.2315  0.3681
   88GLOH   H06 9409   4.996   4.611   1.059  0.1740 -0.0506  0.9444
   88GLOH   H07 9410   4.945   4.467   0.975 -0.4937  0.0757  0.3237
   88GLOH    O3 9411   5.035   4.434   1.156  0.2145 -0.5626  0.0474
   88GLOH   H01 9412   5.023   4.460   1.249 -1.0921 -1.8235  0.2474
   89GLOH   H03 9413   9.913   7.462   0.177 -0.4943  1.8738 -0.4938
   89GLOH    O1 9414   9.920   7.442   0.081 -0.4519  0.1175 -0.1550
   89GLOH    C1 9415   9.933   7.298   0.078 -0.0781  0.2896 -0.0997
   89GLOH   H02 9416   9.875   7.246   0.155  0.1989  1.7806  1.1248
   89GLOH   H08 9417  10.037   7.267   0.089 -0.0040  0.7970  0.6136
   89GLOH    C2 9418   9.908   7.249  -0.064 -0.3243  0.2061  0.1003
   89GLOH   H04 9419   9.823   7.313  -0.091 -0.4947  0.7453  1.8663
   89GLOH    O2 9420  10.012   7.282  -0.152  0.1809 -0.1625 -0.2860
   89GLOH   H05 9421   9.995   7.356  -0.213 -1.2370 -1.4494 -1.5055
   89GLOH    C3 9422   9.881   7.099  -0.072 -0.4901  0.4403  0.4500
   89GLOH   H06 9423   9.973   7.046  -0.048  0.1797 -0.4419 -3.8317
   89GLOH   H07 9424   9.852   7.069  -0.172 -1.8124 -1.0087  1.2302
   89GLOH    O3 9425   9.774   7.059   0.017  0.0789 -0.3543  0.0686
   89GLOH   H01 9426   9.704   7.126   0.023 -1.2756 -1.9045  2.3983
   90GLOH   H03 9427   3.742   3.097   0.012 -0.4735  0.6649  2.1563
   90GLOH    O1 9428   3.830   3.137   0.002 -0.3009 -0.1153  0.2978
   90GLOH    C1 9429   3.820   3.234  -0.100  0.0046  0.5091 -0.3047
   90GLOH   H02 9430   3.859   3.195  -0.193 -1.0147  0.2128 -0.6067
   90GLOH   H08 9431   3.882   3.322  -0.080  0.9861  0.2907 -2.3067
   90GLOH    C2 9432   3.682   3.300  -0.108  0.2285 -0.1867 -0.0844
   90GLOH   H04 9433   3.661   3.357  -0.015  3.3428  0.4128  0.2813
   90GLOH    O2 9434   3.675   3.383  -0.223  0.0120  0.2510 -0.3398
   90GLOH   H05 9435   3.691   3.331  -0.303  0.5924 -0.9322  0.5357
   90GLOH    C3 9436   3.576   3.186  -0.119  0.1801  0.1563  0.4718
   90GLOH   H06 9437   3.585   3.130  -0.212  1.8060 -0.1878  0.8300
   90GLOH   H07 9438   3.480   3.237  -0.127  0.5166  0.6781 -0.3564
   90GLOH    O3 9439   3.579   3.112  -0.003 -0.0140 -0.5595 -0.3680
   90GLOH   H01 9440   3.497   3.059   0.007  0.8579 -2.1146 -1.2937
   91GLOH   H03 9441   6.139   9.942   1.878 -1.4604 -0.3719  1.5938
   91GLOH    O1 9442   6.101   9.855   1.856 -0.2127 -0.5160 -0.1118
   91GLOH    C1 9443   6.193   9.743   1.889  0.0944  0.4266  0.3865
   91GLOH   H02 9444   6.139   9.651   1.909 -1.3542  1.5372  1.7382
   91GLOH   H08 9445   6.247   9.759   1.983  2.4866  0.2839 -0.9327
   91GLOH    C2 9446   6.303   9.732   1.781  0.2747 -0.2360  0.4865
   91GLOH   H04 9447   6.353   9.829   1.770 -0.3264  0.2691  2.0334
   91GLOH    O2 9448   6.403   9.639   1.826  1.1331  0.3370  0.3387
   91GLOH   H05 9449   6.420   9.559   1.773  1.0167  1.4862 -1.4979
   91GLOH    C3 9450   6.223   9.694   1.653  0.4792  0.1643  0.0964
   91GLOH   H06 9451   6.161   9.779   1.625  0.3858 -0.5114 -1.8248
   91GLOH   H07 9452   6.152   9.615   1.678 -0.8231  2.1371  2.9149
   91GLOH    O3 9453   6.308   9.662   1.541  0.4265  0.0147  0.0925
   91GLOH   H01 9454   6.379   9.603   1.575  0.0672 -0.1437  0.5799
   92GLOH   H03 9455   4.564   1.298   2.065  0.0074 -1.8172 -2.3558
   92GLOH    O1 9456   4.610   1.367   2.015  0.0280 -0.0110  0.0616
   92GLOH    C1 9457   4.510   1.470   1.982 -0.4341  0.6742 -0.3297
   92GLOH   H02 9458   4.486   1.531   2.070  1.0644  1.5121 -0.4858
   92GLOH   H08 9459   4.420   1.418   1.950 -0.1986 -1.2272  1.9169
   92GLOH    C2 9460   4.551   1.570   1.873  0.1575  0.1409  0.2152
   92GLOH   H04 9461   4.572   1.513   1.781 -1.5776 -0.6982  0.3264
   92GLOH    O2 9462   4.453   1.675   1.855 -0.0816 -0.1307  0.1542
   92GLOH   H05 9463   4.459   1.692   1.759 -1.6310 -0.3415  0.0033
   92GLOH    C3 9464   4.689   1.625   1.912  0.2368  0.7085 -0.4769
   92GLOH   H06 9465   4.755   1.538   1.905 -1.8068 -0.9268  0.0771
   92GLOH   H07 9466   4.682   1.661   2.015  0.1114 -0.1827 -0.1627
   92GLOH    O3 9467   4.742   1.722   1.819  0.1514  0.1257 -0.3245
   92GLOH   H01 9468   4.704   1.804   1.857 -0.3563  0.3798 -1.3628
   93GLOH   H03 9469   3.369   9.045   1.935 -1.1436 -0.6200 -0.0717
   93GLOH    O1 9470   3.427   8.989   1.990 -0.3428  0.0235 -0.2506
   93GLOH    C1 9471   3.562   9.022   1.954 -0.0762  0.3278  0.8384
   93GLOH   H02 9472   3.570   9.130   1.945  0.7747  0.2565  0.6949
   93GLOH   H08 9473   3.590   8.989   1.855  0.6625  0.8486  0.8759
   93GLOH    C2 9474   3.663   8.971   2.055  0.4485  0.0757  0.4509
   93GLOH   H04 9475   3.765   8.975   2.014 -0.1248  1.4652 -0.8732
   93GLOH    O2 9476   3.675   9.045   2.174 -0.1799  0.6533  0.0354
   93GLOH   H05 9477   3.609   9.020   2.241 -0.7218  0.8912 -0.4007
   93GLOH    C3 9478   3.643   8.821   2.081 -0.3724 -0.0456  0.3424
   93GLOH   H06 9479   3.541   8.794   2.109  0.0477 -0.0890  1.8958
   93GLOH   H07 9480   3.708   8.805   2.168 -0.7580  2.0384  1.0468
   93GLOH    O3 9481   3.681   8.742   1.967 -0.3470  0.8911 -0.2568
   93GLOH   H01 9482   3.710   8.654   1.995  0.1989  0.9924 -0.4867
   94GLOH   H03 9483   8.045   4.211   2.729 -0.3384  0.4770 -0.9144
   94GLOH    O1 9484   8.105   4.285   2.705  0.2563  0.1770 -0.3875
   94GLOH    C1 9485   8.185   4.317   2.820  0.1948 -0.5931 -0.1474
   94GLOH   H02 9486   8.123   4.349   2.904 -1.8847 -1.4887 -1.3058
   94GLOH   H08 9487   8.239   4.410   2.800 -2.2810  0.7800 -0.7175
   94GLOH    C2 9488   8.265   4.200   2.878  0.5449  0.2725 -0.1979
   94GLOH   H04 9489   8.336   4.167   2.800  1.2067 -0.1741  0.5894
   94GLOH    O2 9490   8.344   4.237   2.989  0.2111 -0.2909 -0.2446
   94GLOH   H05 9491   8.416   4.296   2.960  1.9901 -2.2688  0.0762
   94GLOH    C3 9492   8.185   4.069   2.913  0.8263 -0.5985 -0.1517
   94GLOH   H06 9493   8.258   3.994   2.944 -0.7212 -0.9843  2.7891
   94GLOH   H07 9494   8.125   4.034   2.829 -0.3551 -0.0795  0.4548
   94GLOH    O3 9495   8.087   4.098   3.022 -0.4554 -0.5271  0.0995
   94GLOH   H01 9496   8.122   4.168   3.081 -3.4953 -0.5508  2.0531
   95GLOH   H03 9497   2.951   1.512   3.627  0.2341 -1.5800  0.5941
   95GLOH    O1 9498   2.990   1.483   3.543  0.7310  0.4892  0.0696
   95GLOH    C1 9499   2.882   1.468   3.440  0.0874 -0.8081  0.1539
   95GLOH   H02 9500   2.914   1.430   3.343  1.6119  1.8626 -0.4421
   95GLOH   H08 9501   2.832   1.563   3.422 -1.0066 -1.4715 -0.3998
   95GLOH    C2 9502   2.768   1.374   3.488 -0.0552  0.3002 -0.6578
   95GLOH   H04 9503   2.701   1.439   3.547  0.2231 -0.3841  0.4311
   95GLOH    O2 9504   2.690   1.320   3.381 -0.2010  0.2188  0.0851
   95GLOH   H05 9505   2.743   1.271   3.316 -3.3087 -1.9192 -0.9175
   95GLOH    C3 9506   2.822   1.258   3.573  0.4434 -0.6759  0.2651
   95GLOH   H06 9507   2.739   1.200   3.613 -0.3615  0.7143  0.6598
   95GLOH   H07 9508   2.865   1.306   3.662 -0.0651 -0.5438  0.4400
   95GLOH    O3 9509   2.916   1.168   3.517  0.8405 -0.3131 -0.2959
   95GLOH   H01 9510   2.865   1.111   3.456 -1.2597 -0.9312  1.9722
   96GLOH   H03 9511   0.840   5.451   0.181  0.4019  2.5265  2.0376
   96GLOH    O1 9512   0.838   5.514   0.106  0.3071 -0.1453 -0.2703
   96GLOH    C1 9513   0.827   5.447  -0.021  0.8228 -0.0733  0.0568
   96GLOH   H02 9514   0.874   5.349  -0.015  0.7192 -0.0806  0.8714
   96GLOH   H08 9515   0.874   5.503  -0.102  1.4865 -0.8533 -0.0992
   96GLOH    C2 9516   0.674   5.444  -0.060  0.1111  0.3112  0.2634
   96GLOH   H04 9517   0.671   5.432  -0.170  2.9846  0.6916  0.0891
   96GLOH    O2 9518   0.621   5.327   0.002  0.5272 -0.0721 -0.2242
   96GLOH   H05 9519   0.680   5.252  -0.021  1.2103 -0.1310  1.6588
   96GLOH    C3 9520   0.611   5.568  -0.007 -0.3993  0.1119 -0.0143
   96GLOH   H06 9521   0.674   5.656  -0.013  0.0472 -0.1571  0.6361
   96GLOH   H07 9522   0.574   5.552   0.095  0.5635  0.1851  0.3460
   96GLOH    O3 9523   0.499   5.600  -0.092 -0.2229 -0.1300  0.5043
   96GLOH   H01 9524   0.531   5.646  -0.173  2.1181 -0.3869  1.2461
   97GLOH   H03 9525   2.280   4.219   1.329 -1.0418  0.4787 -1.1971
   97GLOH    O1 9526   2.316   4.310   1.328  0.5200 -0.0937  0.5019
   97GLOH    C1 9527   2.248   4.392   1.420 -0.5313  0.0477  0.0797
   97GLOH   H02 9528   2.300   4.487   1.429 -2.7783  1.3894 -0.8127
   97GLOH   H08 9529   2.252   4.349   1.520  0.6975 -1.6728 -0.6817
   97GLOH    C2 9530   2.102   4.418   1.370 -0.1946 -0.2002  0.2075
   97GLOH   H04 9531   2.057   4.320   1.351  0.0406  0.4702 -4.3269
   97GLOH    O2 9532   2.032   4.491   1.466 -0.3418 -0.4087 -0.0821
   97GLOH   H05 9533   1.942   4.514   1.438 -0.4624 -1.7534 -0.8670
   97GLOH    C3 9534   2.107   4.503   1.241 -0.0681  0.5518  0.6104
   97GLOH   H06 9535   2.177   4.462   1.167  1.0948  1.1534  1.3552
   97GLOH   H07 9536   2.155   4.598   1.265 -0.4360  0.6978  0.7563
   97GLOH    O3 9537   1.973   4.507   1.192 -0.4601  0.2600  0.0752
   97GLOH   H01 9538   1.938   4.416   1.195  3.6907 -1.4592  0.9141
   98GLOH   H03 9539   5.210   7.098   3.066  0.2048  0.4888  2.4132
   98GLOH    O1 9540   5.213   7.001   3.076  0.1822  0.1501 -0.4957
   98GLOH    C1 9541   5.188   6.924   2.955  0.5324  0.0060  0.4339
   98GLOH   H02 9542   5.194   6.987   2.867 -2.2049 -0.3522 -0.0529
   98GLOH   H08 9543   5.086   6.887   2.955  0.5401 -0.1362 -2.8738
   98GLOH    C2 9544   5.283   6.804   2.942 -0.3059 -0.0036 -0.1168
   98GLOH   H04 9545   5.239   6.721   2.999 -2.0503 -0.2981 -1.8632
   98GLOH    O2 9546   5.285   6.756   2.809 -0.1213 -0.0440 -0.0039
   98GLOH   H05 9547   5.343   6.679   2.799 -2.3184 -1.8956  1.1229
   98GLOH    C3 9548   5.418   6.829   3.001 -0.8841  0.0654 -0.2259
   98GLOH   H06 9549   5.464   6.913   2.949  0.5613 -0.2643  0.4923
   98GLOH   H07 9550   5.484   6.743   2.986 -0.5550  0.3902 -0.6313
   98GLOH    O3 9551   5.409   6.863   3.140 -0.0250 -0.0942  0.1560
   98GLOH   H01 9552   5.333   6.924   3.144  0.8911  0.9520  2.2429
   99GLOH   H03 9553   6.737   9.076   2.889 -0.8129  1.0693  2.4714
   99GLOH    O1 9554   6.673   9.003   2.885  0.0233  0.4291 -0.1568
   99GLOH    C1 9555   6.728   8.878   2.935  1.1542 -0.7519 -0.4092
   99GLOH   H02 9556   6.795   8.891   3.020  0.3454 -1.7270  0.3883
   99GLOH   H08 9557   6.783   8.838   2.850 -1.0362 -1.8881 -1.3408
   99GLOH    C2 9558   6.618   8.775   2.976  0.4323  0.5128  0.0312
   99GLOH   H04 9559   6.556   8.772   2.885  0.0645 -0.8116  0.3320
   99GLOH    O2 9560   6.694   8.653   3.006 -0.1695  0.1131 -0.2343
   99GLOH   H05 9561   6.633   8.577   3.008 -0.6260  0.4897  0.1807
   99GLOH    C3 9562   6.539   8.831   3.095  0.2655 -0.2816  0.5039
   99GLOH   H06 9563   6.613   8.858   3.170  1.0582  0.3428 -0.4935
   99GLOH   H07 9564   6.457   8.763   3.121 -1.2301  0.4433 -2.1318
   99GLOH    O3 9565   6.478   8.953   3.074  0.3438  0.6300 -0.1706
   99GLOH   H01 9566   6.541   9.001   3.018 -0.3688 -0.6172 -2.0899
  100GLOH   H03 9567   4.102   8.463   2.031  1.1019 -0.4044 -0.2504
  100GLOH    O1 9568   4.151   8.491   2.111 -0.2889 -0.0426  0.4896
  100GLOH    C1 9569   4.065   8.532   2.215  0.0826 -0.3673  0.2589
  100GLOH   H02 9570   3.964   8.494   2.203 -0.4351  1.9353 -3.5579
  100GLOH   H08 9571   4.048   8.639   2.212 -2.3983 -0.7853 -1.7897
  100GLOH    C2 9572   4.119   8.494   2.352  0.4154  0.1723 -0.6431
  100GLOH   H04 9573   4.218   8.541   2.361  0.7118 -0.2694 -1.5733
  100GLOH    O2 9574   4.034   8.538   2.461 -0.4600 -0.2548 -0.5157
  100GLOH   H05 9575   4.080   8.525   2.546 -2.2743  1.5945  0.7821
  100GLOH    C3 9576   4.138   8.340   2.359 -0.8051 -1.0621 -0.2529
  100GLOH   H06 9577   4.152   8.305   2.461  1.4892  2.7369  0.8158
  100GLOH   H07 9578   4.223   8.308   2.299 -0.2801 -0.1845  0.0155
  100GLOH    O3 9579   4.020   8.271   2.318  0.5006 -0.0455  0.2339
  100GLOH   H01 9580   4.028   8.176   2.336  1.9559 -0.1789 -1.0134
  101GLOH   H03 9581   3.783   4.231   0.092 -1.2225  1.3741  1.6579
  101GLOH    O1 9582   3.713   4.166   0.073  0.0767  0.2711  0.5407
  101GLOH    C1 9583   3.708   4.130  -0.069  0.6262 -0.0842  0.6271
  101GLOH   H02 9584   3.803   4.113  -0.119 -0.2584 -0.0282 -1.1308
  101GLOH   H08 9585   3.655   4.213  -0.117  1.8383  0.8283  0.8283
  101GLOH    C2 9586   3.636   3.997  -0.096 -0.5531 -0.0557  0.3586
  101GLOH   H04 9587   3.538   4.014  -0.049  0.7746  3.5724  2.0207
  101GLOH    O2 9588   3.629   3.976  -0.238  0.6895  0.1979 -0.5513
  101GLOH   H05 9589   3.554   3.920  -0.263  1.3516  0.0200 -2.1748
  101GLOH    C3 9590   3.716   3.891  -0.021  0.4646 -0.1987 -0.5119
  101GLOH   H06 9591   3.822   3.900  -0.043  1.1412 -2.4724  1.5429
  101GLOH   H07 9592   3.680   3.795  -0.059 -0.6127  1.4764 -4.0020
  101GLOH    O3 9593   3.692   3.910   0.122 -0.0074  0.0594  0.2938
  101GLOH   H01 9594   3.703   4.006   0.131 -1.3643  0.1865  0.7434
  102GLOH   H03 9595   4.564   0.059   1.379 -2.1707 -0.7682  3.6291
  102GLOH    O1 9596   4.633  -0.009   1.386 -0.6152  0.2789 -0.1698
  102GLOH    C1 9597   4.586  -0.102   1.488 -0.0072  0.4169  0.8379
  102GLOH   H02 9598   4.582  -0.058   1.587 -1.4021  0.9935  0.5499
  102GLOH   H08 9599   4.657  -0.183   1.504 -1.8378 -1.4358 -0.1747
  102GLOH    C2 9600   4.442  -0.158   1.453 -0.6879 -0.4540 -0.0653
  102GLOH   H04 9601   4.411  -0.224   1.535  1.2231 -0.1666  0.9152
  102GLOH    O2 9602   4.340  -0.053   1.452  0.6650  0.5992  0.1027
  102GLOH   H05 9603   4.377   0.035   1.437 -0.8611  1.4242  1.0316
  102GLOH    C3 9604   4.443  -0.237   1.324 -0.4769  0.5994 -0.5130
  102GLOH   H06 9605   4.477  -0.175   1.240  0.3121  0.0029 -0.6394
  102GLOH   H07 9606   4.341  -0.267   1.302 -0.0894 -0.8457 -0.3860
  102GLOH    O3 9607   4.523  -0.357   1.337 -0.7372 -0.6222 -0.4918
  102GLOH   H01 9608   4.612  -0.343   1.300 -0.0927 -0.9893  0.8965
  103GLOH   H03 9609   7.924   5.374   3.346 -3.3146  1.9569  3.1366
  103GLOH    O1 9610   7.966   5.319   3.415  0.5395  0.4983 -0.1766
  103GLOH    C1 9611   7.925   5.367   3.545  0.4565  0.7208  0.1015
  103GLOH   H02 9612   7.826   5.327   3.568  0.2033  1.8349  0.9861
  103GLOH   H08 9613   7.915   5.475   3.544 -2.2172  0.5140  0.0624
  103GLOH    C2 9614   8.008   5.322   3.665 -0.1272  0.1909 -0.0936
  103GLOH   H04 9615   8.106   5.371   3.666  1.0462 -2.0885  0.8505
  103GLOH    O2 9616   7.940   5.356   3.785 -0.1178 -0.1335 -0.1941
  103GLOH   H05 9617   8.008   5.367   3.853 -1.4374 -0.7082  1.2265
  103GLOH    C3 9618   8.038   5.168   3.666  0.0146  0.2428  0.5892
  103GLOH   H06 9619   7.948   5.122   3.707 -0.8020 -1.6499 -3.1175
  103GLOH   H07 9620   8.127   5.140   3.722  0.5795 -0.1755 -0.5032
  103GLOH    O3 9621   8.042   5.115   3.533 -0.1662 -0.1844 -0.1941
  103GLOH   H01 9622   8.000   5.182   3.475 -2.6816 -3.3155 -2.1705
  104GLOH   H03 9623   9.348   7.594   3.165  0.2085 -1.7243  2.4232
  104GLOH    O1 9624   9.339   7.672   3.222 -0.5057 -0.2164  0.3078
  104GLOH    C1 9625   9.204   7.686   3.270  0.4190  0.6160  0.3702
  104GLOH   H02 9626   9.192   7.764   3.346  1.4475 -0.1008  1.2653
  104GLOH   H08 9627   9.180   7.590   3.316  1.2389  1.1076  1.8732
  104GLOH    C2 9628   9.100   7.702   3.156 -0.8242 -0.4552 -0.3955
  104GLOH   H04 9629   9.003   7.724   3.204 -0.3894 -0.9635  0.7322
  104GLOH    O2 9630   9.135   7.813   3.068 -0.3991  0.2899 -0.3271
  104GLOH   H05 9631   9.063   7.824   3.003  1.2479  0.4343 -2.1527
  104GLOH    C3 9632   9.087   7.569   3.075 -0.2532 -0.0950 -0.0615
  104GLOH   H06 9633   9.183   7.535   3.038 -0.7432 -1.8143  0.2169
  104GLOH   H07 9634   9.027   7.581   2.984 -0.0018  0.5829 -0.1437
  104GLOH    O3 9635   9.010   7.476   3.149 -0.2918 -0.0963 -0.2981
  104GLOH   H01 9636   8.918   7.506   3.134 -0.7454 -1.7523 -0.9456
  105GLOH   H03 9637   0.348   1.630   3.225 -0.8447  0.7580 -0.6571
  105GLOH    O1 9638   0.307   1.706   3.269 -0.4165  0.6587 -0.0837
  105GLOH    C1 9639   0.381   1.828   3.242 -0.1973  0.5851 -0.0827
  105GLOH   H02 9640   0.418   1.820   3.140  1.1547 -1.0483  0.5191
  105GLOH   H08 9641   0.468   1.827   3.308 -0.3976  2.1700  0.2327
  105GLOH    C2 9642   0.309   1.958   3.279  0.1865 -0.0596  0.5856
  105GLOH   H04 9643   0.203   1.933   3.260  0.5172  0.9458 -2.8738
  105GLOH    O2 9644   0.320   1.989   3.417  0.3342 -0.1247 -0.4053
  105GLOH   H05 9645   0.246   1.950   3.466 -0.0244  1.6799  0.5199
  105GLOH    C3 9646   0.352   2.082   3.191  0.3019  0.5129 -0.2459
  105GLOH   H06 9647   0.461   2.083   3.194  0.3234  1.9202 -1.0039
  105GLOH   H07 9648   0.320   2.176   3.237  0.1888 -0.5700  1.9149
  105GLOH    O3 9649   0.304   2.065   3.053  0.0624  0.2433 -0.4179
  105GLOH   H01 9650   0.207   2.074   3.062  0.1122 -0.3095  0.7125
  106GLOH   H03 9651   2.598   7.287   3.952  1.1813  0.7781 -0.7173
  106GLOH    O1 9652   2.547   7.369   3.940  0.2191  0.3870  0.6200
  106GLOH    C1 9653   2.534   7.432   4.068  0.3244 -0.1196  0.6568
  106GLOH   H02 9654   2.513   7.537   4.050  2.0926  0.3156  1.0872
  106GLOH   H08 9655   2.624   7.421   4.127  0.7889  0.8044  0.1218
  106GLOH    C2 9656   2.416   7.378   4.142  0.9307  0.6368 -0.5705
  106GLOH   H04 9657   2.424   7.269   4.152 -1.0680  0.4062 -1.1156
  106GLOH    O2 9658   2.442   7.425   4.276 -0.2773 -0.4316  0.4141
  106GLOH   H05 9659   2.449   7.522   4.271 -0.0170 -0.5104 -1.0055
  106GLOH    C3 9660   2.281   7.422   4.068 -0.8530  0.2127  0.6448
  106GLOH   H06 9661   2.194   7.390   4.125 -0.4467 -1.5313  0.3108
  106GLOH   H07 9662   2.282   7.371   3.971  0.3256 -2.4492  2.0227
  106GLOH    O3 9663   2.261   7.564   4.061 -0.5451 -0.2887 -0.0970
  106GLOH   H01 9664   2.315   7.584   3.983 -2.6688 -0.5317 -1.6842
  107GLOH   H03 9665   0.641   4.845   3.728  0.7150 -0.1823  0.5291
  107GLOH    O1 9666   0.643   4.933   3.770 -0.2076 -0.1191  0.4510
  107GLOH    C1 9667   0.635   5.047   3.686  1.5305  0.8215  0.1394
  107GLOH   H02 9668   0.635   5.018   3.581 -0.0671 -0.3522  0.4550
  107GLOH   H08 9669   0.723   5.112   3.689  2.7001 -0.7876  1.2036
  107GLOH    C2 9670   0.502   5.126   3.701  0.2271  0.4989 -0.2663
  107GLOH   H04 9671   0.492   5.174   3.800  2.1321 -0.1812  0.2904
  107GLOH    O2 9672   0.493   5.231   3.600 -0.0061  0.0467 -0.1763
  107GLOH   H05 9673   0.403   5.266   3.612  0.9044  2.5089 -0.2249
  107GLOH    C3 9674   0.377   5.035   3.695 -0.3769  0.5945 -0.6914
  107GLOH   H06 9675   0.289   5.095   3.718 -1.2698 -1.6435  1.8475
  107GLOH   H07 9676   0.373   4.969   3.781 -0.5628 -0.3532 -1.4176
  107GLOH    O3 9677   0.373   4.952   3.573 -0.3338  0.0526  0.1436
  107GLOH   H01 9678   0.280   4.950   3.546  0.0068  0.8455 -1.1669
  108GLOH   H03 9679   6.301   0.168   2.482 -1.6274  2.2508  2.1689
  108GLOH    O1 9680   6.390   0.206   2.496 -0.3921  0.3341 -0.2009
  108GLOH    C1 9681   6.393   0.283   2.612  0.3504  0.5085 -1.3175
  108GLOH   H02 9682   6.479   0.256   2.674 -2.2907 -1.7900  1.4696
  108GLOH   H08 9683   6.301   0.263   2.667  1.1312  1.2696  0.3049
  108GLOH    C2 9684   6.397   0.432   2.575  0.4440  1.2526  1.1882
  108GLOH   H04 9685   6.302   0.451   2.522  2.1972  1.7898 -1.8770
  108GLOH    O2 9686   6.405   0.511   2.693 -0.6436  0.3719 -0.2999
  108GLOH   H05 9687   6.490   0.502   2.740 -0.5351 -0.6415 -0.6690
  108GLOH    C3 9688   6.506   0.473   2.478 -0.4453 -0.3361 -0.5947
  108GLOH   H06 9689   6.499   0.579   2.452  0.9256 -0.4568 -1.5058
  108GLOH   H07 9690   6.489   0.411   2.391  1.7574 -0.3364 -1.0717
  108GLOH    O3 9691   6.640   0.462   2.531  0.6212  0.4963 -0.2015
  108GLOH   H01 9692   6.675   0.371   2.519 -0.1248  0.0413  1.0143
  109GLOH   H03 9693   3.348   3.995   0.678  0.1345  0.0359  0.6547
  109GLOH    O1 9694   3.358   3.906   0.642  0.0708  0.3054 -0.0347
  109GLOH    C1 9695   3.276   3.811   0.709  0.2287  0.1779  0.8307
  109GLOH   H02 9696   3.238   3.742   0.633 -1.7057 -0.1583  2.0603
  109GLOH   H08 9697   3.191   3.867   0.748  1.7463  4.4094 -1.6150
  109GLOH    C2 9698   3.339   3.727   0.820  0.4465 -0.1718  0.5011
  109GLOH   H04 9699   3.353   3.794   0.907  1.7530 -1.3344  1.2124
  109GLOH    O2 9700   3.244   3.619   0.855 -0.2391 -0.0314  0.3006
  109GLOH   H05 9701   3.245   3.559   0.778 -0.6446  0.6714 -0.2588
  109GLOH    C3 9702   3.472   3.659   0.782 -0.2658  0.2244  0.1285
  109GLOH   H06 9703   3.447   3.572   0.720 -0.6177  0.2475  0.2341
  109GLOH   H07 9704   3.521   3.626   0.873  0.6275  0.4667 -0.2612
  109GLOH    O3 9705   3.572   3.742   0.718  0.2410 -0.2360  0.3694
  109GLOH   H01 9706   3.536   3.828   0.691 -0.9100 -0.3590  1.4631
  110GLOH   H03 9707   4.108   9.988   2.194 -0.2427  1.0920 -0.2987
  110GLOH    O1 9708   4.087   9.984   2.099 -0.1070  0.5795 -0.3103
  110GLOH    C1 9709   4.077   9.844   2.055 -0.7187 -0.5385 -0.5306
  110GLOH   H02 9710   4.067   9.779   2.141  3.4644 -0.8411 -0.1569
  110GLOH   H08 9711   4.169   9.830   1.998 -0.3267  1.4608 -0.4424
  110GLOH    C2 9712   3.960   9.803   1.962  0.2002  0.1005 -0.1958
  110GLOH   H04 9713   3.985   9.703   1.925 -0.4553  0.9007 -2.9303
  110GLOH    O2 9714   3.831   9.812   2.024  0.4225  0.0090 -0.1724
  110GLOH   H05 9715   3.773   9.866   1.967 -1.6222 -1.7224  0.1806
  110GLOH    C3 9716   3.969   9.892   1.841  0.5246 -0.5544 -0.4707
  110GLOH   H06 9717   3.960   9.994   1.878 -1.0662 -1.6420  2.2977
  110GLOH   H07 9718   3.885   9.872   1.775  0.3164  2.2067 -1.1013
  110GLOH    O3 9719   4.088   9.873   1.769 -0.6985 -0.2246 -0.2481
  110GLOH   H01 9720   4.078   9.799   1.706 -1.0105  1.4973 -2.2916
  111GLOH   H03 9721   4.449   1.018   2.457  2.0806 -1.3931 -0.7633
  111GLOH    O1 9722   4.478   1.039   2.548 -0.0572 -0.3370 -0.2963
  111GLOH    C1 9723   4.464   0.924   2.631 -0.3105 -0.0368  0.0876
  111GLOH   H02 9724   4.530   0.931   2.718 -1.3897  0.3316  0.8774
  111GLOH   H08 9725   4.504   0.836   2.580  1.0992  0.8680 -0.3975
  111GLOH    C2 9726   4.316   0.895   2.664 -0.7406 -0.0593  0.4103
  111GLOH   H04 9727   4.275   0.870   2.565  1.5446 -1.6753 -0.1722
  111GLOH    O2 9728   4.306   0.778   2.746  0.4801  0.3928 -0.9327
  111GLOH   H05 9729   4.365   0.797   2.821 -0.5664 -1.8254  0.4813
  111GLOH    C3 9730   4.255   1.019   2.729 -0.5225  0.5027 -0.0221
  111GLOH   H06 9731   4.273   1.111   2.673  0.4717 -0.8062 -1.9112
  111GLOH   H07 9732   4.305   1.028   2.826 -1.2144 -0.2916  0.4117
  111GLOH    O3 9733   4.111   1.009   2.756  0.3146  0.3568  0.4108
  111GLOH   H01 9734   4.098   0.988   2.850  4.7007 -0.8379  0.8750
  112GLOH   H03 9735   0.170   2.667   3.254 -0.2411 -0.7319 -0.7832
  112GLOH    O1 9736   0.073   2.673   3.265 -0.1578  0.0452 -0.4715
  112GLOH    C1 9737   0.019   2.541   3.243  0.2233 -0.3596  0.3156
  112GLOH   H02 9738   0.034   2.504   3.141  0.1305 -0.1509  0.2257
  112GLOH   H08 9739  -0.088   2.541   3.266  0.3747  0.7945  1.0083
  112GLOH    C2 9740   0.082   2.440   3.336  0.0932 -0.1453  1.2740
  112GLOH   H04 9741   0.054   2.461   3.440  0.0995 -0.0838  1.2632
  112GLOH    O2 9742   0.031   2.304   3.302 -0.2985  0.6691  0.4200
  112GLOH   H05 9743  -0.043   2.280   3.360 -0.8517 -2.3869 -1.4144
  112GLOH    C3 9744   0.240   2.433   3.319 -0.8069 -0.2888  0.3820
  112GLOH   H06 9745   0.249   2.443   3.210 -0.7897 -0.9275  0.3224
  112GLOH   H07 9746   0.286   2.337   3.341  0.4770  0.2191 -0.0406
  112GLOH    O3 9747   0.315   2.545   3.374  0.3390  0.2492 -0.3482
  112GLOH   H01 9748   0.409   2.527   3.356 -0.3724 -2.1977 -1.8124
  113GLOH   H03 9749   8.118   0.563   3.361 -0.4850 -0.8137  0.3183
  113GLOH    O1 9750   8.202   0.525   3.328 -0.0199  0.0908  0.4537
  113GLOH    C1 9751   8.193   0.382   3.321 -0.5470  0.4130 -0.0755
  113GLOH   H02 9752   8.256   0.347   3.239 -0.7624  0.9943 -0.4940
  113GLOH   H08 9753   8.093   0.345   3.301 -0.3945 -2.3246  3.7853
  113GLOH    C2 9754   8.240   0.322   3.452 -0.4618 -0.7001  0.4739
  113GLOH   H04 9755   8.170   0.352   3.531  0.7412  0.5220  1.0994
  113GLOH    O2 9756   8.233   0.178   3.452 -0.4859  0.5057  0.5061
  113GLOH   H05 9757   8.267   0.158   3.540 -1.9734 -0.5889  0.8597
  113GLOH    C3 9758   8.388   0.373   3.482 -0.4292  0.5409  0.3996
  113GLOH   H06 9759   8.422   0.351   3.584  1.9769 -2.3661 -0.9416
  113GLOH   H07 9760   8.375   0.481   3.483 -0.9803  0.5168 -1.4858
  113GLOH    O3 9761   8.493   0.325   3.388 -0.4327 -0.3460  0.2808
  113GLOH   H01 9762   8.515   0.233   3.412  1.0826  0.0773  0.5705
  114GLOH   H03 9763   8.062   0.886   1.677 -0.0841  1.7097 -0.2243
  114GLOH    O1 9764   8.156   0.875   1.653 -0.3348 -0.3825 -0.3682
  114GLOH    C1 9765   8.167   0.739   1.597  0.0519  0.1198  0.0082
  114GLOH   H02 9766   8.087   0.720   1.526  1.8035 -0.1592 -1.9067
  114GLOH   H08 9767   8.159   0.673   1.683 -1.7721  1.0668  0.6005
  114GLOH    C2 9768   8.300   0.727   1.519  0.3208  0.7253  0.7870
  114GLOH   H04 9769   8.377   0.764   1.588  0.4227  0.4008  0.8454
  114GLOH    O2 9770   8.334   0.593   1.490 -0.1731 -0.0199  0.2555
  114GLOH   H05 9771   8.263   0.549   1.439  0.1375 -0.0616 -0.1458
  114GLOH    C3 9772   8.287   0.815   1.397  0.3657  0.5818 -0.0785
  114GLOH   H06 9773   8.232   0.901   1.435  0.5379 -0.0962  1.7685
  114GLOH   H07 9774   8.215   0.770   1.329 -0.5199  1.9418 -0.0669
  114GLOH    O3 9775   8.414   0.840   1.338 -0.0319  0.5766  0.2064
  114GLOH   H01 9776   8.390   0.844   1.243  0.1233  2.1836  0.2140
  115GLOH   H03 9777   6.515   8.404   1.493  0.8395 -2.8005  0.5054
  115GLOH    O1 9778   6.559   8.388   1.407  0.3604 -0.0584 -0.3107
  115GLOH    C1 9779   6.494   8.465   1.303 -0.9478  0.3057 -0.4179
  115GLOH   H02 9780   6.408   8.411   1.264 -0.7456 -0.2316 -0.1237
  115GLOH   H08 9781   6.565   8.488   1.223 -0.7774  2.2895  0.2746
  115GLOH    C2 9782   6.431   8.600   1.353 -1.0743  0.0038  0.4697
  115GLOH   H04 9783   6.397   8.639   1.257  0.9622  2.4172  0.6776
  115GLOH    O2 9784   6.318   8.587   1.438  0.3980  0.5367 -0.3120
  115GLOH   H05 9785   6.327   8.501   1.481 -0.5867 -0.1746 -1.4844
  115GLOH    C3 9786   6.545   8.700   1.395  0.3373 -0.2094 -0.1968
  115GLOH   H06 9787   6.499   8.799   1.388 -0.0330 -0.2811  1.0967
  115GLOH   H07 9788   6.617   8.694   1.313  1.1593  1.6533  0.3382
  115GLOH    O3 9789   6.597   8.672   1.524  0.3340  0.6300  0.0827
  115GLOH   H01 9790   6.693   8.653   1.516 -0.1150 -1.2343 -1.1449
  116GLOH   H03 9791   1.616   0.338   0.394  0.9167  1.5853 -0.5629
  116GLOH    O1 9792   1.696   0.286   0.375 -0.0591 -0.3607  0.4963
  116GLOH    C1 9793   1.798   0.362   0.445  0.2470 -0.1528 -0.2240
  116GLOH   H02 9794   1.808   0.462   0.402  0.2888  0.8089  1.9690
  116GLOH   H08 9795   1.896   0.314   0.440  0.2575 -0.0217 -1.3299
  116GLOH    C2 9796   1.772   0.380   0.598  0.3951 -0.2457 -0.6315
  116GLOH   H04 9797   1.668   0.413   0.603  0.2367 -1.0100  1.2289
  116GLOH    O2 9798   1.786   0.254   0.669  0.1192 -0.7706  0.2182
  116GLOH   H05 9799   1.771   0.261   0.765 -2.2630  0.3688 -0.2011
  116GLOH    C3 9800   1.857   0.497   0.664 -0.5055 -0.3664 -0.1873
  116GLOH   H06 9801   1.958   0.457   0.663 -0.0945  0.6290  0.5642
  116GLOH   H07 9802   1.832   0.505   0.770 -1.7039 -1.1751 -0.3913
  116GLOH    O3 9803   1.838   0.619   0.600 -0.1304 -0.2054  0.3448
  116GLOH   H01 9804   1.909   0.680   0.628  0.2028  0.6387 -2.2068
  117GLOH   H03 9805   8.165   2.703   1.812  2.7104 -0.2131 -0.2004
  117GLOH    O1 9806   8.177   2.796   1.782  0.0092  0.3325  0.3448
  117GLOH    C1 9807   8.090   2.876   1.866  0.1292  0.3310  0.2191
  117GLOH   H02 9808   8.078   2.825   1.961 -1.9456  1.3207  0.4964
  117GLOH   H08 9809   7.989   2.876   1.827  0.0843  2.4486  0.3106
  117GLOH    C2 9810   8.135   3.020   1.891 -0.8889 -0.6731  0.1574
  117GLOH   H04 9811   8.056   3.075   1.944  0.9992  1.2369  1.0884
  117GLOH    O2 9812   8.255   3.018   1.979 -0.3028  0.8410  0.2522
  117GLOH   H05 9813   8.310   2.939   1.970  0.6980  1.2476  2.6016
  117GLOH    C3 9814   8.174   3.084   1.754 -0.1086  0.4015 -0.3013
  117GLOH   H06 9815   8.267   3.046   1.712 -0.0962  0.8072 -0.6467
  117GLOH   H07 9816   8.190   3.190   1.776  2.4097  0.2252 -1.1092
  117GLOH    O3 9817   8.068   3.075   1.655 -0.8200  0.1881 -0.3676
  117GLOH   H01 9818   8.119   3.093   1.574 -1.1552  2.2071 -0.1395
  118GLOH   H03 9819   2.440   8.172   2.834  1.7686 -0.0508 -0.5945
  118GLOH    O1 9820   2.462   8.088   2.878  0.1701 -0.1529  0.0445
  118GLOH    C1 9821   2.494   8.111   3.015 -0.5806  0.7436 -0.3010
  118GLOH   H02 9822   2.599   8.117   3.043 -0.7876  1.3584  0.3376
  118GLOH   H08 9823   2.459   8.027   3.075  2.1502  0.4599  0.9811
  118GLOH    C2 9824   2.412   8.222   3.068  0.0507 -1.5800 -0.1814
  118GLOH   H04 9825   2.310   8.193   3.037 -0.8728  0.6134  0.6283
  118GLOH    O2 9826   2.395   8.241   3.213  0.1642 -0.0103 -0.3019
  118GLOH   H05 9827   2.334   8.170   3.241  0.3127 -0.1252 -0.2676
  118GLOH    C3 9828   2.462   8.348   2.988  0.5057  0.8246  0.5092
  118GLOH   H06 9829   2.561   8.363   3.030  0.4116 -1.8002  1.7643
  118GLOH   H07 9830   2.405   8.433   3.026 -2.3058 -0.8524  0.1721
  118GLOH    O3 9831   2.442   8.345   2.849 -0.4382 -0.5723  0.4106
  118GLOH   H01 9832   2.518   8.394   2.814 -1.8637  1.7788  0.5383
  119GLOH   H03 9833   7.571   0.617   2.400 -0.4583 -0.5456 -0.7735
  119GLOH    O1 9834   7.616   0.538   2.437  0.6209  0.5502  0.2926
  119GLOH    C1 9835   7.756   0.541   2.397  0.4273  0.3119 -0.2732
  119GLOH   H02 9836   7.784   0.646   2.400 -0.8770  0.6141  2.0103
  119GLOH   H08 9837   7.773   0.510   2.293 -0.7648 -1.8634  0.1477
  119GLOH    C2 9838   7.858   0.461   2.489  0.2964 -0.1227  0.6257
  119GLOH   H04 9839   7.822   0.359   2.507 -1.0480  0.3257  0.5227
  119GLOH    O2 9840   7.986   0.445   2.421 -0.5482  0.3434 -0.3239
  119GLOH   H05 9841   8.066   0.466   2.472 -0.3995 -1.6040  0.3025
  119GLOH    C3 9842   7.866   0.533   2.623  0.3039  0.1536 -0.3213
  119GLOH   H06 9843   7.876   0.638   2.594  0.5163 -0.2132 -1.5557
  119GLOH   H07 9844   7.954   0.500   2.679  0.0330 -0.6729 -0.3831
  119GLOH    O3 9845   7.749   0.517   2.708 -0.4120 -0.3554  0.7587
  119GLOH   H01 9846   7.673   0.525   2.647  1.3540  1.8140 -1.2750
  120GLOH   H03 9847   8.448   7.497   3.756 -2.0584 -3.2923  0.8610
  120GLOH    O1 9848   8.525   7.445   3.725  0.1460 -0.0290  0.6205
  120GLOH    C1 9849   8.641   7.488   3.793 -0.0038  0.0080 -0.2372
  120GLOH   H02 9850   8.723   7.443   3.736  1.7655  2.0437  0.6274
  120GLOH   H08 9851   8.652   7.444   3.892  0.1459 -0.0846 -0.2943
  120GLOH    C2 9852   8.648   7.645   3.787 -0.7931 -0.6922 -0.1589
  120GLOH   H04 9853   8.617   7.693   3.693 -2.8357 -0.8627  0.3971
  120GLOH    O2 9854   8.546   7.686   3.880 -0.7606 -0.4766  0.8883
  120GLOH   H05 9855   8.465   7.699   3.828  0.6560  2.4873 -0.7041
  120GLOH    C3 9856   8.780   7.700   3.842 -0.0432 -0.9015  0.3624
  120GLOH   H06 9857   8.779   7.697   3.951  1.2026 -0.6721  0.3841
  120GLOH   H07 9858   8.778   7.808   3.828 -2.7347 -0.6780  2.0491
  120GLOH    O3 9859   8.897   7.625   3.791  0.3062 -0.2864  0.7056
  120GLOH   H01 9860   8.886   7.610   3.695  1.0325  1.5290  0.3134
  121ACOH    H4 9861   6.612   6.414   2.215 -1.7096 -0.8575 -1.9847
  121ACOH    O2 9862   6.687   6.368   2.175  0.1732  0.1948  0.2588
  121ACOH    C2 9863   6.803   6.424   2.218  0.4693 -0.3579  0.4399
  121ACOH    O1 9864   6.817   6.510   2.300 -0.6730  0.3942  0.6065
  121ACOH    C1 9865   6.918   6.356   2.154 -1.0799 -0.2162 -0.0531
  121ACOH    H1 9866   6.892   6.322   2.054 -0.2685 -0.7588 -0.0879
  121ACOH    H2 9867   6.933   6.271   2.221  0.4720  0.7248  0.8255
  121ACOH    H3 9868   7.002   6.425   2.154 -0.9987 -0.3149 -0.2262
  122ACOH    H4 9869   7.851   4.826   0.105 -0.7248 -0.2456 -0.7222
  122ACOH    O2 9870   7.767   4.827   0.153 -0.0828  0.0203  0.4164
  122ACOH    C2 9871   7.801   4.831   0.283 -0.2663  0.3642 -0.1822
  122ACOH    O1 9872   7.904   4.807   0.343  0.0135  0.0046 -0.1439
  122ACOH    C1 9873   7.677   4.848   0.365  0.2176  0.5573 -0.5107
  122ACOH    H1 9874   7.650   4.954   0.362 -2.8146 -0.0960  1.6943
  122ACOH    H2 9875   7.689   4.816   0.468 -3.2470 -0.6767 -0.4245
  122ACOH    H3 9876   7.597   4.784   0.328 -0.3541 -0.1684  1.9313
  123ACOH    H4 9877   3.943   4.345   2.643  0.9633  2.2231  2.7687
  123ACOH    O2 9878   3.848   4.362   2.645  0.5265  0.2942  0.4750
  123ACOH    C2 9879   3.817   4.427   2.759  0.1545 -0.1857 -0.3579
  123ACOH    O1 9880   3.901   4.476   2.835  0.1478  0.6702  0.2036
  123ACOH    C1 9881   3.669   4.458   2.774 -0.6282 -0.1024 -0.4268
  123ACOH    H1 9882   3.651   4.559   2.738  1.7231  0.7522  0.6778
  123ACOH    H2 9883   3.639   4.458   2.879 -2.1782  2.7426 -0.8344
  123ACOH    H3 9884   3.615   4.382   2.717  0.9000 -1.2513 -0.3717
  124ACOH    H4 9885   6.931   7.137   1.888  0.9229 -2.7340 -1.1169
  124ACOH    O2 9886   6.956   7.174   1.802 -0.5007  0.1513 -0.3336
  124ACOH    C2 9887   6.893   7.288   1.782  0.0059 -1.1251  0.6944
  124ACOH    O1 9888   6.821   7.344   1.865  0.0920  0.7760 -0.3078
  124ACOH    C1 9889   6.938   7.352   1.655 -0.2950 -0.1761 -0.4903
  124ACOH    H1 9890   6.921   7.459   1.669 -0.2971 -0.1546 -0.6544
  124ACOH    H2 9891   6.888   7.312   1.566 -2.0461  0.6404  0.0966
  124ACOH    H3 9892   7.044   7.328   1.644 -0.3476  0.5750 -3.1335
  125ACOH    H4 9893   9.345   9.478   1.884 -0.0754 -0.3688 -0.4867
  125ACOH    O2 9894   9.348   9.521   1.797 -0.1839  0.1190 -0.2507
  125ACOH    C2 9895   9.380   9.650   1.820  0.5619 -0.2210 -0.4856
  125ACOH    O1 9896   9.357   9.711   1.922  0.4548 -0.4538 -0.4161
  125ACOH    C1 9897   9.401   9.726   1.698 -0.4982 -0.4422  0.4551
  125ACOH    H1 9898   9.507   9.749   1.685 -0.7821  1.1680  0.8821
  125ACOH    H2 9899   9.347   9.821   1.701  1.3640  0.5947  2.1936
  125ACOH    H3 9900   9.364   9.677   1.608 -1.3272  1.0833 -0.0646
  126ACOH    H4 9901   4.590   0.869   3.608  1.6046 -0.3649 -1.8212
  126ACOH    O2 9902   4.519   0.875   3.542 -0.1662  0.0034  0.0599
  126ACOH    C2 9903   4.588   0.879   3.426 -0.4570 -0.4569  0.0225
  126ACOH    O1 9904   4.704   0.868   3.415 -0.2489  0.0236 -0.4336
  126ACOH    C1 9905   4.507   0.898   3.306 -0.2442 -0.0672  0.1418
  126ACOH    H1 9906   4.419   0.956   3.332 -1.4311 -0.8227 -2.0326
  126ACOH    H2 9907   4.479   0.801   3.264 -1.0331  0.2455 -0.0807
  126ACOH    H3 9908   4.553   0.959   3.228 -2.0125  1.7758  0.4870
  127ACOH    H4 9909   4.629   6.919   3.050  0.2906 -1.6362  2.5732
  127ACOH    O2 9910   4.722   6.944   3.051 -0.1043  0.0569  0.5553
  127ACOH    C2 9911   4.728   7.041   3.132 -0.2367 -0.5514 -0.6221
  127ACOH    O1 9912   4.634   7.118   3.157  0.0618  0.0121  0.0637
  127ACOH    C1 9913   4.859   7.078   3.170  0.0937 -0.2381 -0.0717
  127ACOH    H1 9914   4.855   7.168   3.231 -0.6654 -1.4443  1.6989
  127ACOH    H2 9915   4.925   7.094   3.085  0.2524  1.7617  0.4011
  127ACOH    H3 9916   4.908   7.000   3.228  0.2747  1.3580  1.9500
  128ACOH    H4 9917   3.639   3.915   2.748  0.3191 -3.1654  0.8013
  128ACOH    O2 9918   3.698   3.891   2.675 -0.1373 -0.1752 -0.6236
  128ACOH    C2 9919   3.714   4.003   2.599 -0.7956  0.1722 -0.8093
  128ACOH    O1 9920   3.616   4.072   2.577  0.2651 -0.0421 -0.0485
  128ACOH    C1 9921   3.834   4.002   2.514  0.2173  0.5582  0.1202
  128ACOH    H1 9922   3.815   4.031   2.411  1.1169 -1.7786 -0.7514
  128ACOH    H2 9923   3.874   3.900   2.513 -0.2548  0.3593  1.0770
  128ACOH    H3 9924   3.909   4.070   2.554 -0.5499  0.7458  1.2476
  129ACOH    H4 9925   8.043   3.507   3.093 -1.6629  0.3439  0.8297
  129ACOH    O2 9926   8.012   3.421   3.060  0.1622 -0.2702  0.6460
  129ACOH    C2 9927   8.086   3.362   2.968 -0.0451 -0.0017  0.3972
  129ACOH    O1 9928   8.058   3.255   2.924 -0.0181 -0.5184  0.1480
  129ACOH    C1 9929   8.204   3.442   2.925 -0.1576  0.0302  0.4067
  129ACOH    H1 9930   8.241   3.406   2.830  1.3316 -1.5780  1.5832
  129ACOH    H2 9931   8.287   3.438   2.995 -0.2190  1.5861  0.6040
  129ACOH    H3 9932   8.167   3.543   2.907 -0.3037  0.1518  1.3342
  130ACOH    H4 9933   2.473   0.183   2.424  0.8732  0.1336 -0.4573
  130ACOH    O2 9934   2.453   0.267   2.469  0.0263 -0.1695 -0.2548
  130ACOH    C2 9935   2.568   0.322   2.505  0.1900 -0.0826 -0.0710
  130ACOH    O1 9936   2.570   0.414   2.586 -0.0547 -0.1059 -0.2759
  130ACOH    C1 9937   2.686   0.269   2.431 -0.2265 -0.1311 -0.0069
  130ACOH    H1 9938   2.758   0.345   2.402  0.3882 -0.8730 -0.4317
  130ACOH    H2 9939   2.645   0.236   2.336 -0.2280  0.9458 -0.3903
  130ACOH    H3 9940   2.738   0.187   2.481  0.5891  0.8391  0.7606
  131ACOH    H4 9941   4.655   3.567   3.873 -0.5499 -0.5078  1.0935
  131ACOH    O2 9942   4.602   3.620   3.811  0.2181  0.2918  1.1137
  131ACOH    C2 9943   4.488   3.557   3.775 -0.2366  0.8134 -0.0531
  131ACOH    O1 9944   4.455   3.449   3.824 -0.2489 -0.3430 -0.0989
  131ACOH    C1 9945   4.415   3.631   3.673 -0.5129  0.5795  0.2142
  131ACOH    H1 9946   4.466   3.632   3.577  1.2313 -0.4532  1.1177
  131ACOH    H2 9947   4.404   3.731   3.714  3.7781  0.8282  0.9687
  131ACOH    H3 9948   4.319   3.580   3.664  0.2233 -1.1099  1.7034
  132ACOH    H4 9949   4.449   4.060   3.861 -1.1847 -1.0629 -3.1279
  132ACOH    O2 9950   4.534   4.014   3.861 -0.7066 -0.4495  1.0243
  132ACOH    C2 9951   4.557   3.986   3.729  0.1055 -0.9677 -0.2722
  132ACOH    O1 9952   4.470   3.989   3.641 -0.6547  0.7730  0.2575
  132ACOH    C1 9953   4.696   3.949   3.706  0.4480  0.1604 -0.4198
  132ACOH    H1 9954   4.746   3.941   3.802 -1.8292  0.0847  0.7919
  132ACOH    H2 9955   4.743   4.014   3.632  0.2780 -0.9855 -1.5485
  132ACOH    H3 9956   4.697   3.847   3.668 -2.2149  0.8336 -2.4287
  133ACOH    H4 9957   7.739   6.369   3.359  0.1114  0.3512  1.5432
  133ACOH    O2 9958   7.646   6.394   3.374  0.1257  1.1216  0.4469
  133ACOH    C2 9959   7.572   6.329   3.284  0.4165 -0.4118  0.0849
  133ACOH    O1 9960   7.612   6.297   3.169  0.1213  0.5769 -0.8512
  133ACOH    C1 9961   7.423   6.358   3.309  0.0944 -0.7535  0.0313
  133ACOH    H1 9962   7.358   6.336   3.224  1.1475 -1.4122 -0.6150
  133ACOH    H2 9963   7.411   6.464   3.332  3.4517 -0.3609  0.1666
  133ACOH    H3 9964   7.386   6.308   3.398 -1.3704  0.3157  0.0492
  134ACOH    H4 9965   5.280   1.019   2.260  0.3781  0.7849 -1.8710
  134ACOH    O2 9966   5.373   1.012   2.285 -0.1729 -0.4003 -0.0069
  134ACOH    C2 9967   5.438   1.099   2.203 -0.1948  0.0539  0.6102
  134ACOH    O1 9968   5.380   1.171   2.125  0.3451 -0.2306 -0.3724
  134ACOH    C1 9969   5.587   1.103   2.224  0.4526  0.3845 -0.0217
  134ACOH    H1 9970   5.630   1.128   2.127 -0.6041 -2.4672 -1.2903
  134ACOH    H2 9971   5.623   1.002   2.244 -2.6557 -0.3711  2.1939
  134ACOH    H3 9972   5.604   1.166   2.310 -0.3556  0.0457  0.3950
  135ACOH    H4 9973   4.171   4.161   1.135 -0.4737  0.7266  3.2895
  135ACOH    O2 9974   4.109   4.234   1.118 -0.4448  0.0616  0.0115
  135ACOH    C2 9975   4.149   4.306   1.010  0.6314 -0.0439  0.4831
  135ACOH    O1 9976   4.262   4.314   0.972  0.0144 -0.5303 -0.0278
  135ACOH    C1 9977   4.048   4.414   0.981  0.3801  0.0205 -0.0382
  135ACOH    H1 9978   4.032   4.481   1.066  2.0429  0.9863 -0.4666
  135ACOH    H2 9979   3.955   4.364   0.954  0.5129  0.3898 -1.1966
  135ACOH    H3 9980   4.078   4.478   0.898  0.3192  1.4156  0.9769
  136ACOH    H4 9981   3.147   7.237   0.701 -0.6410  0.0992  0.2007
  136ACOH    O2 9982   3.218   7.297   0.731 -0.4123 -0.1229  0.1003
  136ACOH    C2 9983   3.289   7.337   0.627 -0.1046 -0.7212 -0.0506
  136ACOH    O1 9984   3.276   7.296   0.515 -0.5104  0.4252  0.7439
  136ACOH    C1 9985   3.382   7.449   0.674 -0.2436 -0.0013  0.2056
  136ACOH    H1 9986   3.470   7.407   0.723 -1.1660 -0.7002  1.2826
  136ACOH    H2 9987   3.326   7.512   0.744  2.3525  3.3854 -0.6077
  136ACOH    H3 9988   3.418   7.506   0.588 -0.9722  0.4767  0.2090
  137ACOH    H4 9989   4.622   7.533   0.890  1.1491 -1.0539  1.0565
  137ACOH    O2 9990   4.560   7.459   0.877 -0.5453  0.4906  0.0589
  137ACOH    C2 9991   4.534   7.451   0.742  0.2371  0.4149  0.0872
  137ACOH    O1 9992   4.544   7.544   0.662  0.1413  0.1591 -0.5722
  137ACOH    C1 9993   4.454   7.331   0.711 -0.7269 -0.0526 -0.5233
  137ACOH    H1 9994   4.349   7.354   0.695 -0.7072 -0.7461 -1.6187
  137ACOH    H2 9995   4.449   7.253   0.787 -1.4884 -0.1494 -0.6705
  137ACOH    H3 9996   4.490   7.289   0.617  0.8031  1.5520 -0.6928
  138ACOH    H4 9997   6.367   9.951   3.029 -0.7043 -0.7028 -0.2967
  138ACOH    O2 9998   6.325  10.028   3.071  0.5253 -0.1963  0.0311
  138ACOH    C2 9999   6.357  10.142   3.011  0.5624 -0.0660 -0.4098
  138ACOH    O110000   6.407  10.157   2.899 -0.8154 -0.3112 -0.1937
  138ACOH    C110001   6.306  10.250   3.098  0.5189  0.5895  0.1321
  138ACOH    H110002   6.198  10.242   3.095  0.4971  1.2781 -1.3741
  138ACOH    H210003   6.338  10.348   3.061 -1.2168  1.9664  2.1715
  138ACOH    H310004   6.345  10.238   3.199  2.8797  0.0751 -0.7915
  139ACOH    H410005   5.205   4.474   1.159  0.4055  3.8212  0.5121
  139ACOH    O210006   5.296   4.484   1.128  0.7815 -0.0129  0.1203
  139ACOH    C210007   5.335   4.382   1.045  0.1488 -1.4126  0.2043
  139ACOH    O110008   5.262   4.292   1.010  0.0942 -0.0559  0.2830
  139ACOH    C110009   5.472   4.417   0.998  0.3592  0.0056  0.4933
  139ACOH    H110010   5.514   4.328   0.949 -1.4897 -1.0122  0.7011
  139ACOH    H210011   5.536   4.439   1.083  2.2017 -0.9635 -0.5796
  139ACOH    H310012   5.467   4.505   0.934  0.6073 -1.4520 -1.5996
  140ACOH    H410013   7.791   0.538   1.995  1.8828 -0.9138 -4.1134
  140ACOH    O210014   7.763   0.446   2.009  0.0438  0.1374  0.0534
  140ACOH    C210015   7.693   0.420   1.898  0.1443  0.2385  0.6868
  140ACOH    O110016   7.648   0.501   1.816 -0.0419 -0.3616  0.2350
  140ACOH    C110017   7.680   0.267   1.868 -0.2767  0.1845  0.0397
  140ACOH    H110018   7.624   0.251   1.775 -2.0306  1.7977  0.7696
  140ACOH    H210019   7.631   0.223   1.955  1.3255  0.1380  0.9355
  140ACOH    H310020   7.783   0.233   1.864  0.1240  1.2826  0.7915
  141ACOH    H410021   8.424   3.008   4.027 -2.5852  1.6097 -0.2803
  141ACOH    O210022   8.482   3.080   3.997 -0.0105 -0.4060 -0.2998
  141ACOH    C210023   8.438   3.130   3.879 -0.5088  0.2782 -0.8985
  141ACOH    O110024   8.337   3.092   3.822  0.4682 -0.0700 -0.2673
  141ACOH    C110025   8.541   3.206   3.809  0.7328  0.0572  0.7640
  141ACOH    H110026   8.589   3.148   3.730  1.9432  2.6458 -0.4793
  141ACOH    H210027   8.610   3.244   3.884 -1.2319 -0.7542  3.0045
  141ACOH    H310028   8.492   3.293   3.766  0.0844 -0.2613  0.8644
  142ACOH    H410029   7.911   5.126   3.229  1.0890 -0.3720  1.8358
  142ACOH    O210030   7.828   5.084   3.256  0.1828  0.1320 -0.0657
  142ACOH    C210031   7.785   5.015   3.146  0.6291 -0.0799  0.2312
  142ACOH    O110032   7.855   4.964   3.061 -0.4447 -0.2025 -0.0964
  142ACOH    C110033   7.651   4.957   3.163  0.3580 -0.2452 -0.2098
  142ACOH    H110034   7.605   4.985   3.258  2.2709  0.1365  0.6339
  142ACOH    H210035   7.656   4.848   3.168 -0.0136 -0.2181  0.7835
  142ACOH    H310036   7.586   4.984   3.080 -2.8229 -0.4150  2.1318
  143ACOH    H410037   9.986   8.331   0.412 -0.6125  0.6654  1.5497
  143ACOH    O210038   9.962   8.425   0.418 -0.3149  0.8207  0.4321
  143ACOH    C210039  10.002   8.490   0.308 -0.2442  0.3779  0.0805
  143ACOH    O110040  10.073   8.447   0.218  0.0309 -0.7813 -0.0499
  143ACOH    C110041   9.989   8.636   0.318  0.4086 -0.0659  0.0172
  143ACOH    H110042   9.972   8.658   0.423 -0.9664  1.2476 -0.4661
  143ACOH    H210043   9.899   8.664   0.263  1.1151  1.7659 -0.2337
  143ACOH    H310044  10.070   8.696   0.277  2.1848 -0.5704  2.6444
  144ACOH    H410045   4.480   7.018   0.317 -0.3670  1.5986  0.0981
  144ACOH    O210046   4.513   7.028   0.226  0.2996 -0.3815  0.0984
  144ACOH    C210047   4.453   7.131   0.168  0.1413  0.4137  0.3505
  144ACOH    O110048   4.403   7.227   0.226 -0.1384  0.1491 -0.0992
  144ACOH    C110049   4.469   7.135   0.023 -0.0773  0.5929  0.5131
  144ACOH    H110050   4.514   7.232  -0.001 -1.3235  0.4499 -2.6290
  144ACOH    H210051   4.376   7.118  -0.030  0.1870  2.7878 -0.7334
  144ACOH    H310052   4.543   7.063  -0.013 -0.7086  0.1590  0.0625
  145ACOH    H410053   6.592   9.372   0.911  0.2036 -0.3136  0.5128
  145ACOH    O210054   6.596   9.433   0.987  0.2002  0.0621  0.2141
  145ACOH    C210055   6.697   9.516   0.956 -0.7954  0.9962  0.5883
  145ACOH    O110056   6.748   9.521   0.849 -0.7880  0.0411 -0.1961
  145ACOH    C110057   6.743   9.609   1.063  0.3050  0.1626  0.5577
  145ACOH    H110058   6.658   9.658   1.110 -1.6045 -2.3399 -0.1340
  145ACOH    H210059   6.815   9.675   1.015 -0.8273  0.6225 -0.5475
  145ACOH    H310060   6.783   9.543   1.140  0.0925 -1.2449 -0.5054
  146ACOH    H410061   5.371   6.180   2.607  0.6177  2.5250 -1.3777
  146ACOH    O210062   5.349   6.139   2.522  0.3247  0.1895 -0.2048
  146ACOH    C210063   5.356   6.240   2.432  0.1101 -0.8342  0.2293
  146ACOH    O110064   5.394   6.351   2.446 -0.1450 -0.0619 -0.3210
  146ACOH    C110065   5.312   6.206   2.292  0.3771  0.1120  0.3734
  146ACOH    H110066   5.205   6.189   2.299  0.5117 -0.2354  1.7062
  146ACOH    H210067   5.365   6.116   2.261 -1.1035 -1.3188  1.8947
  146ACOH    H310068   5.332   6.285   2.220 -1.4925 -0.2103 -0.5140
  147ACOH    H410069   5.943   9.430   1.016 -0.5273  2.6789  0.2981
  147ACOH    O210070   6.015   9.463   0.960 -0.0871  0.0182 -0.8067
  147ACOH    C210071   6.105   9.362   0.941  0.3966 -0.2786  0.9235
  147ACOH    O110072   6.091   9.247   0.966 -0.4484 -0.7880 -0.6794
  147ACOH    C110073   6.222   9.410   0.865  0.9136 -0.1824 -0.2163
  147ACOH    H110074   6.190   9.455   0.771 -0.4886  0.0002  0.3430
  147ACOH    H210075   6.284   9.326   0.831  0.7287 -0.8384  1.0353
  147ACOH    H310076   6.287   9.481   0.917  3.4836 -2.3961 -0.2887
  148ACOH    H410077   5.249   0.657   2.692  1.2952  0.5364  0.7341
  148ACOH    O210078   5.283   0.722   2.628  0.4329  0.0350 -0.2573
  148ACOH    C210079   5.303   0.650   2.516  0.1116  0.8156 -0.0287
  148ACOH    O110080   5.258   0.539   2.494  0.3835 -0.3873  0.2585
  148ACOH    C110081   5.392   0.718   2.419  0.3366 -0.2855 -0.4881
  148ACOH    H110082   5.471   0.651   2.384  0.7571  1.2972 -2.6533
  148ACOH    H210083   5.441   0.802   2.467  2.1124 -1.4683 -0.1656
  148ACOH    H310084   5.348   0.746   2.323  1.6981 -1.6584 -1.5439
  149ACOH    H410085   7.402   1.228   1.194  0.8269  0.3027 -1.6424
  149ACOH    O210086   7.329   1.182   1.149 -0.1778  0.1940  0.0827
  149ACOH    C210087   7.397   1.077   1.088  0.3264 -0.2609  0.0499
  149ACOH    O110088   7.515   1.043   1.096  0.3759  0.5554  0.3210
  149ACOH    C110089   7.305   0.993   1.007  0.7640  0.2751  0.0664
  149ACOH    H110090   7.319   0.890   1.038  1.0236  0.3180  0.0887
  149ACOH    H210091   7.324   0.997   0.900 -1.0690 -0.8233 -0.3375
  149ACOH    H310092   7.201   1.022   1.024 -0.1136 -2.2833 -0.6514
  150ACOH    H410093   7.763   4.248   0.524 -0.6159  0.7229 -0.4607
  150ACOH    O210094   7.763   4.251   0.621  0.0565 -0.3818 -0.4101
  150ACOH    C210095   7.697   4.140   0.665  0.4927  0.3512 -0.2096
  150ACOH    O110096   7.620   4.068   0.605 -0.8318 -0.4199 -0.1620
  150ACOH    C110097   7.690   4.145   0.813  0.0851  0.0207  0.6458
  150ACOH    H110098   7.654   4.245   0.838 -3.0350 -0.8401 -0.2348
  150ACOH    H210099   7.793   4.136   0.847  0.5985  0.9542 -0.6121
  150ACOH    H310100   7.624   4.067   0.852  0.6632  0.0499  1.6932
  151ACOH    H410101   4.519   6.652   1.765 -0.5795  0.6480 -0.2462
  151ACOH    O210102   4.546   6.576   1.711  0.1869  0.0375  0.9696
  151ACOH    C210103   4.469   6.580   1.597  0.6283 -0.4747 -0.0082
  151ACOH    O110104   4.388   6.654   1.555 -0.2484 -0.2216  0.3922
  151ACOH    C110105   4.508   6.471   1.507 -0.4444  0.2976  0.2543
  151ACOH    H110106   4.439   6.453   1.425 -1.8181  2.1045  0.9643
  151ACOH    H210107   4.523   6.373   1.553 -0.8311  0.1570  0.0841
  151ACOH    H310108   4.606   6.496   1.468  0.1140 -0.1309  1.3597
  152ACOH    H410109   4.339   6.557   2.693  0.2248 -0.5604 -0.3286
  152ACOH    O210110   4.294   6.496   2.753 -1.2893  0.1841 -0.6745
  152ACOH    C210111   4.349   6.536   2.875 -0.3753  0.8936  0.6264
  152ACOH    O110112   4.410   6.639   2.894 -0.4075 -0.5548 -0.5013
  152ACOH    C110113   4.339   6.426   2.967 -0.1577  0.7365 -0.0719
  152ACOH    H110114   4.384   6.453   3.063  3.3259  0.1936 -1.4939
  152ACOH    H210115   4.396   6.343   2.927  1.3380  1.4278  0.5801
  152ACOH    H310116   4.240   6.383   2.979 -1.5297  4.0620  1.2779
  153ACOH    H410117   0.888   2.475   1.264 -0.1796 -2.2352  0.7426
  153ACOH    O210118   0.792   2.469   1.281 -0.4909 -0.0554 -0.1325
  153ACOH    C210119   0.778   2.563   1.378 -0.5423 -0.1139 -0.0148
  153ACOH    O110120   0.839   2.669   1.389 -0.2019  0.1961  0.1885
  153ACOH    C110121   0.665   2.535   1.469 -0.0922  0.2250  0.1732
  153ACOH    H110122   0.624   2.436   1.449 -0.2068  0.1636  0.7203
  153ACOH    H210123   0.588   2.610   1.458  0.1720  0.4933  0.1395
  153ACOH    H310124   0.693   2.534   1.574  0.7899 -0.0588 -0.0549
  154ACOH    H410125   8.041   6.081   2.017 -1.6160 -0.0967  0.5195
  154ACOH    O210126   8.013   6.163   1.974 -0.1698 -0.0543 -0.3701
  154ACOH    C210127   8.027   6.256   2.068  0.9579  0.0602 -0.1838
  154ACOH    O110128   8.045   6.237   2.186 -0.4489 -0.2230 -0.1487
  154ACOH    C110129   8.018   6.382   2.002 -0.4950 -0.0663  0.2230
  154ACOH    H110130   8.017   6.463   2.075 -0.0680  0.8570 -0.7829
  154ACOH    H210131   7.923   6.386   1.949 -1.3993 -0.6183  1.7753
  154ACOH    H310132   8.101   6.402   1.935 -0.1719  1.4145  1.0270
  155ACOH    H410133   2.673   8.772   3.517  1.5951 -0.3306  0.8801
  155ACOH    O210134   2.662   8.862   3.552 -0.0655 -0.3121  0.3595
  155ACOH    C210135   2.565   8.919   3.475  0.4602 -0.6248  0.2826
  155ACOH    O110136   2.511   8.871   3.375  0.2165  0.0371 -0.1075
  155ACOH    C110137   2.556   9.064   3.505 -0.5730 -0.2771  0.0728
  155ACOH    H110138   2.450   9.092   3.507  0.2563  3.1515 -0.6290
  155ACOH    H210139   2.600   9.111   3.418  1.1190 -3.3460 -0.7995
  155ACOH    H310140   2.617   9.092   3.591 -0.5277 -0.1900  0.0128
  156ACOH    H410141   8.169   1.498   0.019  0.3545 -1.9898  1.6297
  156ACOH    O210142   8.098   1.537   0.074  0.3387  0.4777 -0.0611
  156ACOH    C210143   7.980   1.514   0.014  1.1255  0.3848  0.3860
  156ACOH    O110144   7.953   1.476  -0.099  0.0015  0.1015  0.1279
  156ACOH    C110145   7.868   1.552   0.103  0.6566 -0.4563  0.3074
  156ACOH    H110146   7.805   1.630   0.060 -2.4540 -2.0921  1.6842
  156ACOH    H210147   7.903   1.602   0.193  2.4740  0.2568 -0.7824
  156ACOH    H310148   7.800   1.471   0.129 -0.8043  0.1301 -1.5743
  157ACOH    H410149   2.360   1.876   1.027  1.1835 -1.8322 -2.0088
  157ACOH    O210150   2.333   1.936   0.956  0.5376  0.2965 -0.0312
  157ACOH    C210151   2.416   1.907   0.853 -0.3443 -0.3146  0.1337
  157ACOH    O110152   2.494   1.814   0.841  0.6561 -0.0803  0.7712
  157ACOH    C110153   2.402   2.009   0.746  0.3653  0.3688 -0.6272
  157ACOH    H110154   2.299   2.001   0.710 -0.3661 -0.3102  1.5370
  157ACOH    H210155   2.465   1.980   0.661  1.8055 -1.6809  1.0941
  157ACOH    H310156   2.416   2.110   0.784 -0.5950 -0.3746  1.7900
  158ACOH    H410157   1.214   0.384   0.971 -0.6585 -1.1429  0.3460
  158ACOH    O210158   1.125   0.399   1.007 -0.7088 -0.1729 -0.1776
  158ACOH    C210159   1.040   0.315   0.933  0.1836 -0.2223 -0.0884
  158ACOH    O110160   1.075   0.254   0.834 -0.1571  0.4856 -0.3738
  158ACOH    C110161   0.896   0.322   0.958 -0.1113 -0.3032  0.1412
  158ACOH    H110162   0.853   0.224   0.977  0.4772 -1.1602 -2.7352
  158ACOH    H210163   0.849   0.358   0.866 -3.4811 -0.2270  1.8117
  158ACOH    H310164   0.870   0.388   1.041 -1.0532 -1.2531  0.6012
  159ACOH    H410165   8.204   0.606   0.328 -0.8142  0.5290 -0.7531
  159ACOH    O210166   8.284   0.617   0.274 -0.4600  0.6529 -0.2019
  159ACOH    C210167   8.358   0.501   0.293  0.1621 -0.3138 -0.6896
  159ACOH    O110168   8.366   0.428   0.390 -0.2658  0.8739 -0.7620
  159ACOH    C110169   8.469   0.506   0.194 -0.1333 -0.1480 -0.1004
  159ACOH    H110170   8.432   0.539   0.097  0.3305  0.4139 -0.0877
  159ACOH    H210171   8.522   0.411   0.186 -0.1673 -0.0298 -1.9844
  159ACOH    H310172   8.535   0.583   0.233 -1.4787  2.0444 -2.0770
  160ACOH    H410173   7.858   5.823   1.578 -2.5944 -0.0374  1.4443
  160ACOH    O210174   7.819   5.772   1.505  1.0308 -0.0698 -0.6291
  160ACOH    C210175   7.882   5.798   1.389 -0.2089 -0.1692  0.0955
  160ACOH    O110176   7.956   5.892   1.376  0.0695  0.2050  0.0163
  160ACOH    C110177   7.861   5.695   1.286  0.1835  0.5988  0.2311
  160ACOH    H110178   7.960   5.656   1.264  0.6272  0.9757  1.5183
  160ACOH    H210179   7.827   5.740   1.193  2.7586  0.4699 -0.8015
  160ACOH    H310180   7.797   5.614   1.322  0.7310  0.5102  1.0204
  161ACOH    H410181   7.483   8.352   0.654 -1.3949  0.7166  0.6532
  161ACOH    O210182   7.465   8.258   0.666  0.2418  0.2943 -0.0316
  161ACOH    C210183   7.536   8.182   0.581 -0.8430  0.4995  0.6705
  161ACOH    O110184   7.621   8.229   0.509 -0.1932  0.0354  0.0576
  161ACOH    C110185   7.512   8.034   0.580  0.3397  0.2522 -0.4215
  161ACOH    H110186   7.450   8.012   0.493 -1.2237  0.1181  0.7142
  161ACOH    H210187   7.468   7.994   0.671 -0.9487 -1.5966 -1.8135
  161ACOH    H310188   7.602   7.974   0.566 -0.1114  0.0154 -2.5357
  162ACOH    H410189   8.260   6.289   1.106  1.9605  0.1627  0.3092
  162ACOH    O210190   8.269   6.336   1.022 -0.6588 -0.0786 -0.1578
  162ACOH    C210191   8.271   6.252   0.916  0.0601  0.2074  0.2762
  162ACOH    O110192   8.246   6.135   0.929  0.1953 -0.0730  0.3827
  162ACOH    C110193   8.299   6.311   0.786  0.2468 -0.2834  0.6696
  162ACOH    H110194   8.387   6.373   0.797 -0.0684  0.6099 -1.4956
  162ACOH    H210195   8.211   6.366   0.750  0.0292 -0.3513  1.0925
  162ACOH    H310196   8.318   6.235   0.710 -1.0946  0.3094 -0.2941
  163ACOH    H410197   3.731   2.390   0.477  1.3209  1.9282  0.3633
  163ACOH    O210198   3.652   2.445   0.481 -0.0729  0.0413 -0.3330
  163ACOH    C210199   3.697   2.567   0.455 -0.8615  0.4354  0.1962
  163ACOH    O110200   3.808   2.601   0.494 -0.5134  0.0714  0.4760
  163ACOH    C110201   3.584   2.656   0.431  0.2161  0.1510  0.2468
  163ACOH    H110202   3.546   2.641   0.330 -1.5982  2.2739  0.5750
  163ACOH    H210203   3.617   2.760   0.430 -0.2054  0.2816 -0.1536
  163ACOH    H310204   3.504   2.640   0.504 -0.0666 -0.0037 -0.0988
  164ACOH    H410205   8.995   5.258   1.611 -0.3779  0.9600 -0.0838
  164ACOH    O210206   9.062   5.236   1.545 -0.1183 -0.5849  0.6736
  164ACOH    C210207   9.179   5.262   1.608  0.4787 -0.1461  0.0056
  164ACOH    O110208   9.207   5.345   1.696  0.0169 -0.1689  0.0607
  164ACOH    C110209   9.290   5.175   1.558 -0.3767  0.8180 -0.1267
  164ACOH    H110210   9.381   5.180   1.617 -0.8029  2.8625  0.4052
  164ACOH    H210211   9.314   5.219   1.461 -1.0190 -0.4152 -0.8537
  164ACOH    H310212   9.253   5.073   1.551 -0.0860  0.8364 -2.1718
  165ACOH    H410213   6.745   9.389   0.706  0.0954  0.1002 -1.1909
  165ACOH    O210214   6.761   9.297   0.679  0.0265 -0.1445 -0.3955
  165ACOH    C210215   6.660   9.226   0.730  0.2665  0.2311  0.1967
  165ACOH    O110216   6.561   9.263   0.785 -0.6423  1.1365 -0.6313
  165ACOH    C110217   6.688   9.078   0.706  0.4269  0.4481  0.1440
  165ACOH    H110218   6.673   9.048   0.602 -1.4161 -0.2866  0.5986
  165ACOH    H210219   6.624   9.017   0.770  1.8276 -1.6639 -0.3956
  165ACOH    H310220   6.790   9.058   0.738  0.9085 -1.3044 -2.3413
  166ACOH    H410221   8.709   3.836   3.608 -1.5132  0.5158  0.1940
  166ACOH    O210222   8.665   3.759   3.648  0.4242 -0.4943  0.4544
  166ACOH    C210223   8.535   3.766   3.603  0.8594 -0.5918 -0.9079
  166ACOH    O110224   8.483   3.878   3.602  0.4844  0.1723 -0.7699
  166ACOH    C110225   8.465   3.647   3.639 -0.2845 -0.0583 -0.2237
  166ACOH    H110226   8.424   3.649   3.740 -1.8210 -0.3108 -0.8334
  166ACOH    H210227   8.530   3.560   3.633 -0.5242 -0.2733  0.2200
  166ACOH    H310228   8.381   3.626   3.573  0.7444  0.2390 -1.6673
  167ACOH    H410229   8.100   4.805   1.275  0.3593 -0.7192 -0.5160
  167ACOH    O210230   8.052   4.777   1.354  0.2954  0.6391 -0.0559
  167ACOH    C210231   7.982   4.671   1.307 -0.2185 -0.5054  0.6037
  167ACOH    O110232   7.956   4.660   1.187 -0.0558 -0.5060  0.2118
  167ACOH    C110233   7.906   4.595   1.414  0.3106 -0.0689  0.7122
  167ACOH    H110234   7.856   4.671   1.473 -0.7252 -0.5413  0.4527
  167ACOH    H210235   7.975   4.537   1.475 -1.1498 -4.6495 -1.7299
  167ACOH    H310236   7.830   4.535   1.364  0.5686 -1.9088  2.4552
  168ACOH    H410237   6.723   0.561   2.614 -0.7678  1.2380  0.8714
  168ACOH    O210238   6.783   0.615   2.668  0.0339  0.4259  0.7959
  168ACOH    C210239   6.775   0.566   2.792 -0.2337  0.3088  0.3487
  168ACOH    O110240   6.686   0.493   2.833  0.1877  0.0387 -0.4018
  168ACOH    C110241   6.879   0.629   2.873  0.0140  0.2257 -0.6219
  168ACOH    H110242   6.972   0.572   2.866 -1.0095 -1.6208  0.4707
  168ACOH    H210243   6.843   0.641   2.975  1.1453  1.0620 -0.3067
  168ACOH    H310244   6.898   0.729   2.835  1.3995  0.2568  0.1178
  169ACOH    H410245   4.019   4.819   2.096  2.6379  2.3060 -3.0674
  169ACOH    O210246   4.093   4.796   2.155 -0.1821 -0.4414 -0.3853
  169ACOH    C210247   4.202   4.745   2.087  0.3138  0.0385 -0.6142
  169ACOH    O110248   4.201   4.722   1.968 -0.1618 -0.2351  0.6269
  169ACOH    C110249   4.320   4.719   2.167 -0.5198 -0.2726 -0.4406
  169ACOH    H110250   4.287   4.681   2.263  3.1956  0.2298  1.1104
  169ACOH    H210251   4.368   4.814   2.191 -3.7722  1.8333 -1.8865
  169ACOH    H310252   4.396   4.659   2.117  2.4499  0.2955  3.2416
  170ACOH    H410253   4.341   7.648   3.677  0.1933 -1.8717  3.1357
  170ACOH    O210254   4.436   7.633   3.665  0.1589  0.1959 -0.1862
  170ACOH    C210255   4.455   7.497   3.669  0.1034  0.2581 -0.5925
  170ACOH    O110256   4.364   7.419   3.699 -0.1904 -0.4390 -0.6188
  170ACOH    C110257   4.594   7.438   3.659 -0.2611 -0.3030 -0.9607
  170ACOH    H110258   4.658   7.526   3.658  0.3787 -0.7576 -2.9185
  170ACOH    H210259   4.604   7.372   3.573  0.1040 -1.2794 -0.1797
  170ACOH    H310260   4.614   7.380   3.749  0.7392  1.2379 -0.1840
  171ACOH    H410261   7.501   9.597   0.107  0.2412  0.5969  1.8073
  171ACOH    O210262   7.450   9.678   0.091  0.0390  0.2532  0.7014
  171ACOH    C210263   7.314   9.673   0.104 -0.2501  0.1593 -0.0887
  171ACOH    O110264   7.260   9.612   0.190  0.4242  0.5343 -0.1380
  171ACOH    C110265   7.237   9.776   0.033 -1.0148  1.1931 -0.2311
  171ACOH    H110266   7.163   9.727  -0.030 -0.1482 -3.7754  2.3749
  171ACOH    H210267   7.300   9.846  -0.022 -0.5604 -0.5716 -2.0041
  171ACOH    H310268   7.183   9.836   0.106  1.6423  0.5935  2.3086
  172ACOH    H410269   9.918   1.329   3.403 -0.2226 -0.2747 -1.0081
  172ACOH    O210270   9.828   1.363   3.385 -0.4935 -0.0146  0.7670
  172ACOH    C210271   9.745   1.273   3.449 -0.4647  0.0373  0.0458
  172ACOH    O110272   9.770   1.165   3.493 -0.4199  0.3453 -0.4690
  172ACOH    C110273   9.616   1.313   3.407  0.2333  0.6351 -0.0732
  172ACOH    H110274   9.606   1.419   3.431 -0.0324  0.6643 -0.3172
  172ACOH    H210275   9.536   1.251   3.448  1.1351 -1.5779 -1.5799
  172ACOH    H310276   9.614   1.304   3.299 -2.9261 -2.6182  0.1548
  173ACOH    H410277   7.886   2.569   1.786 -0.0595 -0.2809 -1.0972
  173ACOH    O210278   7.869   2.658   1.820  0.2159 -0.6061 -0.0933
  173ACOH    C210279   7.765   2.654   1.903 -0.3639  0.2061  0.2667
  173ACOH    O110280   7.718   2.553   1.946  0.1137  0.1171  0.7320
  173ACOH    C110281   7.740   2.785   1.965  1.0027 -0.0503 -0.5330
  173ACOH    H110282   7.671   2.850   1.910 -1.0958 -2.5393 -0.9226
  173ACOH    H210283   7.837   2.835   1.969  0.3703  1.1970 -0.5264
  173ACOH    H310284   7.711   2.779   2.070  2.2161  3.2976  0.0758
  174ACOH    H410285   4.421   4.409   0.625 -2.1581  1.9389 -1.2310
  174ACOH    O210286   4.440   4.467   0.700  0.2999 -0.0058 -0.2596
  174ACOH    C210287   4.323   4.530   0.714 -0.2681 -0.1820  0.3860
  174ACOH    O110288   4.219   4.533   0.649  0.5041 -0.5542  0.2452
  174ACOH    C110289   4.330   4.624   0.822 -0.3704 -0.1419  0.0654
  174ACOH    H110290   4.395   4.703   0.786 -0.8816 -0.2189 -1.0582
  174ACOH    H210291   4.363   4.566   0.908  1.7610  0.5595 -0.2656
  174ACOH    H310292   4.234   4.673   0.840  0.1316  1.0432 -0.5192
  175ACOH    H410293   5.084   3.656   0.451 -1.0259 -0.7483 -0.3508
  175ACOH    O210294   5.151   3.624   0.388 -0.3695 -0.1260  0.0226
  175ACOH    C210295   5.095   3.543   0.291  0.9882 -1.1222 -0.0912
  175ACOH    O110296   4.978   3.520   0.273  0.4878 -0.1255  0.0821
  175ACOH    C110297   5.200   3.528   0.183 -0.6828 -0.6890 -0.2938
  175ACOH    H110298   5.277   3.604   0.191 -2.0181  0.6137  0.3077
  175ACOH    H210299   5.154   3.542   0.085  0.6831  0.7917 -0.7424
  175ACOH    H310300   5.248   3.431   0.194 -0.9951 -0.6177  2.0623
  176ACOH    H410301   4.850   4.925   1.176 -0.7267 -4.4755 -0.4347
  176ACOH    O210302   4.938   4.918   1.136  0.1697  0.0446  0.4879
  176ACOH    C210303   5.013   4.877   1.238  0.2843 -0.5489 -0.3892
  176ACOH    O110304   4.974   4.852   1.352  0.6807 -0.0150 -0.3788
  176ACOH    C110305   5.151   4.860   1.192  0.5173 -0.4272  0.3381
  176ACOH    H110306   5.220   4.917   1.254  1.0302 -1.4800  0.7513
  176ACOH    H210307   5.167   4.889   1.088  2.0110 -1.0564  0.3847
  176ACOH    H310308   5.184   4.757   1.206 -0.8392 -0.5881  2.5584
  177ACOH    H410309   7.609   7.017   1.821 -0.2471 -0.3051  3.0926
  177ACOH    O210310   7.611   6.920   1.818  0.5128 -0.2377  0.2514
  177ACOH    C210311   7.713   6.885   1.733  0.3293 -0.7918 -0.1439
  177ACOH    O110312   7.778   6.963   1.664 -0.1543 -0.2575 -0.2020
  177ACOH    C110313   7.739   6.742   1.722 -0.4228  0.1803  0.5000
  177ACOH    H110314   7.759   6.693   1.817  0.1004 -0.7444 -0.0794
  177ACOH    H210315   7.828   6.729   1.661 -0.2722 -1.5881  1.0817
  177ACOH    H310316   7.665   6.683   1.670  0.9093  2.0237 -3.7235
  178ACOH    H410317   6.872   8.658   3.028  0.4880 -0.2436  1.5798
  178ACOH    O210318   6.968   8.665   3.011  0.1670  0.5939 -0.0205
  178ACOH    C210319   6.999   8.554   2.935  0.2735  0.0034 -0.4468
  178ACOH    O110320   6.931   8.457   2.908 -0.1144  0.9084 -0.1486
  178ACOH    C110321   7.147   8.552   2.915 -0.8103 -0.6878  0.3755
  178ACOH    H110322   7.191   8.647   2.948 -1.1489 -0.9142  1.5054
  178ACOH    H210323   7.176   8.517   2.816 -0.7288  0.3053  0.0400
  178ACOH    H310324   7.197   8.485   2.986  0.1096  3.0704  3.4621
  179ACOH    H410325   7.570   0.681   2.788 -0.6837  0.3265 -0.8872
  179ACOH    O210326   7.623   0.760   2.805 -0.4071  0.0292 -0.3562
  179ACOH    C210327   7.629   0.792   2.935 -0.1355 -0.1683  0.3578
  179ACOH    O110328   7.611   0.709   3.021 -0.0574 -0.3350  0.3000
  179ACOH    C110329   7.736   0.898   2.953  0.8249  0.3057 -0.3108
  179ACOH    H110330   7.702   0.992   2.908  1.1501  0.7673  0.4118
  179ACOH    H210331   7.825   0.860   2.903 -0.5244 -1.0793 -1.7116
  179ACOH    H310332   7.752   0.909   3.060  1.1187  1.9596 -0.5108
  180ACOH    H410333   7.546   8.850   1.702 -0.5444  0.1577  0.3948
  180ACOH    O210334   7.635   8.817   1.726 -0.2629 -0.0123 -0.8270
  180ACOH    C210335   7.622   8.785   1.858 -0.1641 -0.1766  0.4192
  180ACOH    O110336   7.515   8.757   1.909 -0.6486 -0.2620 -0.3834
  180ACOH    C110337   7.754   8.766   1.925 -0.3165  0.1601  0.5850
  180ACOH    H110338   7.822   8.718   1.855 -2.2787 -1.8667 -0.0094
  180ACOH    H210339   7.743   8.693   2.005  0.4257 -2.6787 -1.8269
  180ACOH    H310340   7.790   8.861   1.965  0.4546  0.1750 -0.1377
  181ACOH    H410341   7.117   9.357   3.985  0.8116  0.2026 -2.6380
  181ACOH    O210342   7.026   9.375   3.958 -0.0051  0.2370 -0.0123
  181ACOH    C210343   7.032   9.488   3.889  0.1101 -0.3918 -0.0077
  181ACOH    O110344   7.130   9.537   3.837  0.5518 -0.2297 -0.3906
  181ACOH    C110345   6.907   9.572   3.916  0.3435  0.9833  0.4488
  181ACOH    H110346   6.887   9.646   3.839 -2.0464  1.6889  1.7066
  181ACOH    H210347   6.916   9.609   4.018  2.1639  1.8082  0.0179
  181ACOH    H310348   6.822   9.504   3.917 -0.4782  1.9934 -0.4249
  182ACOH    H410349   7.736   7.563   1.620 -1.5548 -4.4119  2.1609
  182ACOH    O210350   7.795   7.508   1.565  0.0810 -0.5656 -0.1654
  182ACOH    C210351   7.713   7.434   1.486  0.6426  0.1367  0.0825
  182ACOH    O110352   7.594   7.421   1.506  0.1773  0.3467  0.5645
  182ACOH    C110353   7.792   7.377   1.382  0.0984  0.4082  0.0322
  182ACOH    H110354   7.841   7.449   1.316  1.2716  1.1355  1.6652
  182ACOH    H210355   7.734   7.314   1.315 -0.5925  2.3278 -1.1865
  182ACOH    H310356   7.869   7.315   1.430  1.0454 -0.7305 -2.8564
  183ACOH    H410357   5.938   6.381   2.104 -1.4376  0.8372  1.3298
  183ACOH    O210358   5.881   6.326   2.048  0.1710 -0.1956  0.6847
  183ACOH    C210359   5.766   6.393   2.058 -0.8007 -0.3069  0.0066
  183ACOH    O110360   5.749   6.499   2.120 -0.3430  0.1049  0.1451
  183ACOH    C110361   5.660   6.331   1.979 -0.5886  0.3254 -0.0217
  183ACOH    H110362   5.570   6.389   1.959 -1.6976 -0.8156  1.5843
  183ACOH    H210363   5.625   6.242   2.031 -0.7790  0.8066  0.6893
  183ACOH    H310364   5.697   6.288   1.887  0.3544  0.5776  0.2291
  184ACOH    H410365   5.567   9.816   1.285 -0.5301 -0.5841  1.2620
  184ACOH    O210366   5.495   9.880   1.274  0.2397  0.1123  0.1621
  184ACOH    C210367   5.434   9.842   1.157 -0.4800 -0.0295 -1.0905
  184ACOH    O110368   5.441   9.728   1.115  0.5879  0.1110  0.1448
  184ACOH    C110369   5.339   9.935   1.088  0.2104  0.2517 -0.1140
  184ACOH    H110370   5.339   9.920   0.980 -1.0115 -1.0200  0.0435
  184ACOH    H210371   5.363  10.038   1.113  1.1651 -0.7279  3.2412
  184ACOH    H310372   5.247   9.896   1.133 -1.1529  1.9237 -1.3623
  185ACOH    H410373   4.714   7.434   0.376  0.3323 -0.8605 -2.6948
  185ACOH    O210374   4.801   7.391   0.387  0.0161 -0.8830  0.0704
  185ACOH    C210375   4.893   7.478   0.346 -0.4609 -0.0483 -1.0039
  185ACOH    O110376   4.870   7.592   0.299  0.1894 -0.8052  0.5498
  185ACOH    C110377   5.028   7.418   0.358 -0.2239 -0.0249  0.0445
  185ACOH    H110378   5.076   7.461   0.445 -0.2785 -0.7726  0.4484
  185ACOH    H210379   5.083   7.451   0.270  0.2380  2.2950  1.1631
  185ACOH    H310380   5.025   7.309   0.358  2.0379 -0.1187 -1.4286
  186ACOH    H410381   4.890   4.311   1.461  1.8154 -1.6819 -1.0291
  186ACOH    O210382   4.939   4.333   1.542 -0.2100 -0.1874 -0.1670
  186ACOH    C210383   5.017   4.442   1.513 -0.2645 -0.1500  0.1244
  186ACOH    O110384   5.046   4.487   1.406  0.0182  0.3749 -0.1210
  186ACOH    C110385   5.100   4.464   1.633 -0.2566 -0.5298  0.0916
  186ACOH    H110386   5.123   4.373   1.688 -1.7143 -1.3445 -0.6050
  186ACOH    H210387   5.056   4.536   1.701  0.2679  1.1110 -1.2524
  186ACOH    H310388   5.196   4.507   1.604 -1.0513 -0.1944 -2.1488
  187ACOH    H410389   3.847   4.666   3.493 -0.0466 -0.4059 -0.1145
  187ACOH    O210390   3.783   4.715   3.439  0.1500 -0.2306 -0.1891
  187ACOH    C210391   3.719   4.806   3.512 -0.0424 -0.3200 -0.5857
  187ACOH    O110392   3.730   4.815   3.634 -0.4049 -0.1725 -0.3555
  187ACOH    C110393   3.640   4.900   3.435 -0.0916  0.1251  0.8299
  187ACOH    H110394   3.630   4.990   3.496  1.0512  1.3824 -0.7889
  187ACOH    H210395   3.544   4.853   3.414 -0.7385  0.7307  2.3202
  187ACOH    H310396   3.688   4.936   3.344 -0.9352 -0.3326  0.2003
  188ACOH    H410397   8.802   3.831   1.586  0.5147  1.3539  0.3008
  188ACOH    O210398   8.836   3.773   1.656 -0.0383 -0.0012 -0.5273
  188ACOH    C210399   8.733   3.722   1.717 -0.5172 -0.1327 -0.1563
  188ACOH    O110400   8.621   3.768   1.731  0.0614  0.6799  0.4524
  188ACOH    C110401   8.771   3.618   1.808 -0.7430  0.1634  0.0927
  188ACOH    H110402   8.707   3.598   1.894  2.4080  0.2953  2.5743
  188ACOH    H210403   8.868   3.644   1.851  0.0835 -0.9030 -1.1152
  188ACOH    H310404   8.783   3.525   1.753 -0.1046  1.2116 -1.5633
  189ACOH    H410405   4.736   0.020   0.664  0.4789 -0.7334 -1.3247
  189ACOH    O210406   4.817   0.068   0.641  0.1146  0.1030 -0.8682
  189ACOH    C210407   4.808   0.109   0.515  0.1790  0.1302 -0.1632
  189ACOH    O110408   4.725   0.071   0.435 -0.1750 -0.5534 -0.0944
  189ACOH    C110409   4.915   0.198   0.484 -0.5308 -0.8532  0.6529
  189ACOH    H110410   4.975   0.212   0.574  0.3156 -0.2784  0.0181
  189ACOH    H210411   4.894   0.293   0.434 -2.1467 -1.3358  0.4112
  189ACOH    H310412   4.977   0.141   0.415  1.4884  1.3868  0.5455
  190ACOH    H410413   8.124   3.801   2.698  0.1148 -0.4131  0.2701
  190ACOH    O210414   8.193   3.750   2.743  0.0071 -0.1961  0.6831
  190ACOH    C210415   8.312   3.794   2.699 -0.1765 -0.3701  0.1395
  190ACOH    O110416   8.333   3.868   2.607  0.4035 -0.5917  0.2600
  190ACOH    C110417   8.417   3.720   2.780  0.4120 -0.1319  0.2061
  190ACOH    H110418   8.448   3.801   2.847  1.7053 -1.3732  1.1303
  190ACOH    H210419   8.499   3.696   2.713  2.0159  2.9983  0.9423
  190ACOH    H310420   8.381   3.633   2.834 -1.9499  1.1186  0.7502
  191ACOH    H410421   8.396   5.669   0.408  0.6270 -1.7159 -2.2506
  191ACOH    O210422   8.381   5.589   0.461 -0.1466 -0.2339 -0.1869
  191ACOH    C210423   8.493   5.584   0.536  0.0377 -0.6666  0.2607
  191ACOH    O110424   8.606   5.616   0.500 -0.1919 -0.3977  0.5027
  191ACOH    C110425   8.477   5.484   0.652 -0.0369 -0.1701 -0.8284
  191ACOH    H110426   8.370   5.467   0.662  0.0037 -0.0727 -0.2554
  191ACOH    H210427   8.506   5.548   0.735 -0.1575 -1.4928  0.2544
  191ACOH    H310428   8.536   5.394   0.633  1.7666  0.8277 -0.0863
  192ACOH    H410429   8.134   3.414   0.849  3.0230  2.2176 -0.8908
  192ACOH    O210430   8.086   3.432   0.767  0.1567 -0.3656  0.1568
  192ACOH    C210431   8.182   3.496   0.695 -0.1663  0.1860  0.2523
  192ACOH    O110432   8.302   3.504   0.721  0.0829  0.0884  0.0550
  192ACOH    C110433   8.120   3.543   0.570 -0.3827  0.6566  0.2279
  192ACOH    H110434   8.018   3.579   0.584 -0.1259  0.7412  2.0163
  192ACOH    H210435   8.118   3.454   0.507 -1.3920  1.3423 -0.7280
  192ACOH    H310436   8.186   3.608   0.512 -0.1090  0.9003  0.8045
  193ACOH    H410437   7.531   9.811   1.532  0.6065 -0.8422 -0.0082
  193ACOH    O210438   7.501   9.825   1.440 -0.5335  0.2137  0.5075
  193ACOH    C210439   7.572   9.931   1.397 -0.6472  0.1085 -0.4033
  193ACOH    O110440   7.663   9.978   1.467  0.0776  0.6210  0.0550
  193ACOH    C110441   7.542   9.965   1.261  0.2239  0.0334 -0.7218
  193ACOH    H110442   7.435   9.957   1.242  0.3585  1.0069 -1.9880
  193ACOH    H210443   7.590   9.884   1.206 -1.3189 -0.3892 -1.4754
  193ACOH    H310444   7.588  10.059   1.230  1.0271 -0.1329 -0.0550
  194ACOH    H410445   5.754   9.784   3.041 -1.3884  3.9467 -1.2718
  194ACOH    O210446   5.843   9.816   3.061 -0.2705  0.0849  0.3968
  194ACOH    C210447   5.927   9.710   3.048 -0.1250 -0.5703 -0.4728
  194ACOH    O110448   5.909   9.602   2.997  0.2418 -0.3603  0.4548
  194ACOH    C110449   6.063   9.751   3.090  0.1875 -1.0877 -0.2653
  194ACOH    H110450   6.133   9.668   3.092  0.6583 -0.7640 -2.0802
  194ACOH    H210451   6.058   9.796   3.189 -2.7144  1.6065 -1.5246
  194ACOH    H310452   6.103   9.821   3.016 -0.2246  1.3162  1.7075
  195ACOH    H410453   8.081   5.255   1.725  0.9495  0.4216 -0.2182
  195ACOH    O210454   8.081   5.287   1.633  0.2569 -0.6388 -0.6026
  195ACOH    C210455   8.060   5.419   1.658  0.2220 -0.1105  0.8068
  195ACOH    O110456   8.071   5.476   1.761 -0.3130 -0.1739  0.0277
  195ACOH    C110457   8.052   5.489   1.526  0.1590 -0.6277 -0.2551
  195ACOH    H110458   7.966   5.555   1.530  1.7199  1.3523  0.9820
  195ACOH    H210459   8.040   5.417   1.444  1.5009 -1.1882  0.0192
  195ACOH    H310460   8.140   5.550   1.505 -2.2765  2.6595 -1.2380
  196ACOH    H410461   2.645   0.610   2.201 -0.4719  0.1624  0.9093
  196ACOH    O210462   2.573   0.571   2.149 -0.0988  0.7014 -0.0292
  196ACOH    C210463   2.599   0.446   2.112  0.9616  0.1703  0.0853
  196ACOH    O110464   2.701   0.387   2.137 -0.5344  0.4038  0.1367
  196ACOH    C110465   2.493   0.408   2.014 -0.6546  0.5022 -0.5392
  196ACOH    H110466   2.422   0.338   2.058 -0.9325 -0.1223 -1.9365
  196ACOH    H210467   2.539   0.351   1.932 -0.2034  2.3479 -1.5985
  196ACOH    H310468   2.451   0.498   1.971 -1.6202  0.0142 -0.6213
  197ACOH    H410469   6.173   6.911   2.259  2.7009 -0.4642 -0.2160
  197ACOH    O210470   6.155   6.873   2.172 -0.5042  0.1798  0.1067
  197ACOH    C210471   6.032   6.830   2.165  0.2670  0.0180 -0.1591
  197ACOH    O110472   5.958   6.801   2.254 -0.0483 -0.0287  0.0233
  197ACOH    C110473   5.992   6.814   2.023  0.4994 -0.0395  0.3854
  197ACOH    H110474   6.017   6.714   1.987 -0.3662 -0.2741  0.4335
  197ACOH    H210475   6.037   6.889   1.959 -2.1528  0.2802 -1.1778
  197ACOH    H310476   5.885   6.833   2.021  0.4966  0.0864  1.4550
  198ACOH    H410477   6.011   5.761   2.220 -0.4275  2.1978  0.0543
  198ACOH    O210478   5.919   5.730   2.222  0.2360  0.1613  0.0143
  198ACOH    C210479   5.913   5.598   2.194  0.0159  0.0490  0.1825
  198ACOH    O110480   6.003   5.524   2.161 -0.0506 -0.0647  0.6836
  198ACOH    C110481   5.770   5.550   2.199 -0.0677 -0.2557 -0.2574
  198ACOH    H110482   5.724   5.549   2.101 -0.8102  0.9906  0.0653
  198ACOH    H210483   5.716   5.623   2.258 -0.5499 -0.3814 -0.5434
  198ACOH    H310484   5.761   5.453   2.249 -0.1869  0.3002  0.8249
  199ACOH    H410485   7.850   4.323   2.463  1.3072 -1.8176 -1.1716
  199ACOH    O210486   7.770   4.268   2.457 -0.2738  0.2441  0.2594
  199ACOH    C210487   7.756   4.245   2.324 -0.1846  0.6228  0.6778
  199ACOH    O110488   7.807   4.309   2.235  0.2365  0.4412 -0.0532
  199ACOH    C110489   7.626   4.174   2.305 -0.1356 -0.8141  0.1738
  199ACOH    H110490   7.606   4.091   2.373 -1.5416 -0.3668  0.3173
  199ACOH    H210491   7.619   4.139   2.202 -1.4904 -0.0571  0.0032
  199ACOH    H310492   7.548   4.247   2.325 -0.2940 -0.9039 -0.1124
  200ACOH    H410493   3.790   4.160   2.997  0.1294 -0.3296  1.6843
  200ACOH    O210494   3.819   4.083   2.946 -0.0246  0.3308  0.5771
  200ACOH    C210495   3.840   3.973   3.022  0.4230 -0.0095  0.6422
  200ACOH    O110496   3.804   3.974   3.135 -0.0772 -0.1158 -0.5339
  200ACOH    C110497   3.886   3.854   2.955  0.1794  0.0599  0.0817
  200ACOH    H110498   3.913   3.776   3.026  0.5963 -1.2231 -1.4443
  200ACOH    H210499   3.975   3.869   2.892  0.3810 -1.1274  0.0734
  200ACOH    H310500   3.802   3.815   2.897 -0.5964  1.8101 -0.0062
  201ACOH    H410501   7.752   1.446   3.295 -0.7209 -1.3185 -1.9241
  201ACOH    O210502   7.678   1.508   3.283  0.1759  0.1129 -0.1883
  201ACOH    C210503   7.650   1.541   3.412 -0.1900 -1.1076  0.7404
  201ACOH    O110504   7.694   1.487   3.509  0.6350 -0.3112  0.6179
  201ACOH    C110505   7.553   1.647   3.422 -0.0389  0.3072  0.3998
  201ACOH    H110506   7.601   1.730   3.474 -0.6180  1.0591 -0.2622
  201ACOH    H210507   7.459   1.622   3.472 -0.0316  0.0415  0.2799
  201ACOH    H310508   7.526   1.673   3.320  0.9010  2.7802  0.7541
  202ACOH    H410509   6.663   9.674   3.262 -0.1855 -0.5952  3.6437
  202ACOH    O210510   6.567   9.666   3.257 -0.1604  0.5154 -0.6500
  202ACOH    C210511   6.524   9.536   3.233  0.6935 -0.9807 -0.3150
  202ACOH    O110512   6.589   9.456   3.172 -0.0253  0.2778 -0.6304
  202ACOH    C110513   6.375   9.529   3.246  0.7352  0.0742 -0.4265
  202ACOH    H110514   6.341   9.438   3.295  0.1033 -0.3341 -1.6203
  202ACOH    H210515   6.330   9.527   3.147 -0.7673  2.2352  0.1662
  202ACOH    H310516   6.330   9.617   3.292  1.8503 -0.8798  2.6169
  203ACOH    H410517   8.183   6.051   0.782 -3.4522 -0.7761  1.0623
  203ACOH    O210518   8.139   6.044   0.696  0.1538 -0.4627 -0.8669
  203ACOH    C210519   8.201   5.937   0.634  0.3430  0.2403  0.4181
  203ACOH    O110520   8.288   5.864   0.680  0.1942  0.7239  0.2141
  203ACOH    C110521   8.152   5.927   0.497  0.2102 -0.6579  0.1612
  203ACOH    H110522   8.050   5.891   0.510 -0.2288  1.5817  3.3840
  203ACOH    H210523   8.213   5.866   0.430  3.8863  3.3885 -0.3347
  203ACOH    H310524   8.141   6.028   0.459  2.7084 -0.0800  0.9220
  204ACOH    H410525   4.238   3.788   1.521  0.5451  1.4650 -1.5668
  204ACOH    O210526   4.320   3.764   1.474  0.6354  0.4498 -0.8964
  204ACOH    C210527   4.335   3.635   1.517 -0.2297 -1.1132 -0.4576
  204ACOH    O110528   4.290   3.586   1.619 -0.0254  0.0878  0.4107
  204ACOH    C110529   4.453   3.582   1.446 -1.2259  0.3363  0.2109
  204ACOH    H110530   4.514   3.510   1.501 -1.5401 -1.2855 -1.5354
  204ACOH    H210531   4.512   3.661   1.399 -2.4145  1.4464  0.5676
  204ACOH    H310532   4.408   3.518   1.370 -0.0979  0.4823 -0.6002
  205ACOH    H410533   8.992   9.940   0.577  0.2051 -1.5058 -0.0009
  205ACOH    O210534   9.078   9.931   0.533  0.3797  0.0110  0.0283
  205ACOH    C210535   9.112   9.805   0.518  0.9391 -0.8114  0.9307
  205ACOH    O110536   9.073   9.714   0.590  0.1602 -0.0054 -0.4159
  205ACOH    C110537   9.221   9.778   0.427  0.2370  0.0667  0.3027
  205ACOH    H110538   9.299   9.845   0.465  0.3023  1.5457 -2.3227
  205ACOH    H210539   9.189   9.796   0.325 -1.6839 -0.5435  0.7750
  205ACOH    H310540   9.260   9.677   0.436  0.3692  0.0720 -0.2153
  206ACOH    H410541   4.442   2.409   0.187 -0.4439  3.0083  1.5610
  206ACOH    O210542   4.442   2.461   0.105  0.0653  0.6519 -0.0020
  206ACOH    C210543   4.524   2.564   0.119 -0.1274  0.6371 -0.1895
  206ACOH    O110544   4.583   2.595   0.221 -0.6314  0.3185  0.3299
  206ACOH    C110545   4.539   2.646   0.001 -0.1331 -0.1882  1.0080
  206ACOH    H110546   4.442   2.680  -0.035 -1.3623 -1.5332  2.9053
  206ACOH    H210547   4.574   2.577  -0.076 -2.7599  1.4620 -1.7687
  206ACOH    H310548   4.606   2.730   0.017  0.6695 -0.8832  1.2914
  207ACOH    H410549   7.931   3.120   1.725 -0.0348  0.4803  0.5501
  207ACOH    O210550   7.855   3.135   1.782 -0.0938 -0.3444  0.6990
  207ACOH    C210551   7.759   3.057   1.735 -1.2437  0.6040 -0.0779
  207ACOH    O110552   7.771   2.949   1.675  1.1674  0.0104 -0.2483
  207ACOH    C110553   7.630   3.110   1.790 -0.1629  0.8934 -0.2445
  207ACOH    H110554   7.552   3.034   1.779 -0.0295  1.1601 -3.7345
  207ACOH    H210555   7.598   3.198   1.734 -2.9477  0.2715  0.3151
  207ACOH    H310556   7.642   3.134   1.895  1.1137  0.7294 -0.3460
  208ACOH    H410557   5.023   1.954   0.482 -0.9474  0.0401 -0.5600
  208ACOH    O210558   5.058   2.025   0.425 -0.1915 -0.5837 -0.8671
  208ACOH    C210559   5.198   2.029   0.443  0.3637  0.3222  0.8946
  208ACOH    O110560   5.255   1.983   0.539  1.0946 -0.1372 -0.4040
  208ACOH    C110561   5.268   2.125   0.351  0.3180 -0.2139 -0.7002
  208ACOH    H110562   5.324   2.200   0.407  2.1753 -2.0550  0.0119
  208ACOH    H210563   5.186   2.161   0.289 -0.3876 -0.2303  0.2236
  208ACOH    H310564   5.334   2.076   0.279 -2.2394 -1.7030 -2.0809
  209ACOH    H410565   0.758   4.160   2.796  0.5559  1.2301 -1.4294
  209ACOH    O210566   0.808   4.204   2.866 -0.4472 -0.0441  0.1516
  209ACOH    C210567   0.742   4.177   2.979 -0.7708  0.3477 -0.5120
  209ACOH    O110568   0.623   4.150   2.987 -0.4640  0.5169 -0.0763
  209ACOH    C110569   0.827   4.198   3.097 -0.4154  0.1784  0.2460
  209ACOH    H110570   0.804   4.299   3.131 -1.9013  0.1036 -0.4776
  209ACOH    H210571   0.932   4.195   3.067  0.6911 -0.8299  4.0564
  209ACOH    H310572   0.796   4.128   3.174  0.5187 -1.5211 -0.8826
  210ACOH    H410573   6.257   0.463   2.742 -1.6487  0.3600 -0.6459
  210ACOH    O210574   6.183   0.431   2.797 -0.5078 -0.2422  0.5634
  210ACOH    C210575   6.080   0.392   2.724 -0.0455 -1.0997  0.6054
  210ACOH    O110576   6.076   0.367   2.608 -0.2878  0.1925  0.6089
  210ACOH    C110577   5.965   0.371   2.818  0.9551  0.9134  0.3933
  210ACOH    H110578   5.894   0.293   2.789  1.7172 -0.4039  1.9602
  210ACOH    H210579   5.912   0.465   2.799  0.8379  0.7238 -0.2408
  210ACOH    H310580   5.988   0.361   2.924 -3.1915  1.5185  1.4306
  211ACOH    H410581   7.652   4.206   3.786  0.7793  0.1787 -1.4271
  211ACOH    O210582   7.561   4.208   3.752  0.0859 -0.2691  0.3500
  211ACOH    C210583   7.486   4.229   3.858 -0.2993 -0.9542 -0.2394
  211ACOH    O110584   7.515   4.221   3.980 -0.0283 -0.6425  0.7998
  211ACOH    C110585   7.351   4.244   3.816  0.3000 -0.8640 -0.3557
  211ACOH    H110586   7.303   4.309   3.888 -1.3350  1.5201 -3.4819
  211ACOH    H210587   7.309   4.143   3.812 -1.7911 -0.0628  0.5699
  211ACOH    H310588   7.345   4.291   3.718  0.4115  1.2012  0.6021
  212ACOH    H410589   4.038   6.875   3.395 -0.9942  0.4257 -1.0695
  212ACOH    O210590   4.054   6.812   3.323  0.9545 -0.2551 -0.0704
  212ACOH    C210591   4.157   6.843   3.247 -0.8569 -0.4160 -0.5218
  212ACOH    O110592   4.233   6.936   3.265 -0.9148 -0.0213  0.1568
  212ACOH    C110593   4.178   6.748   3.139  0.7232 -0.3258 -0.4677
  212ACOH    H110594   4.085   6.693   3.121 -0.2413  1.5688 -1.3831
  212ACOH    H210595   4.257   6.675   3.159 -0.2595 -1.2684  0.0211
  212ACOH    H310596   4.204   6.805   3.050 -0.8630  1.1379 -0.0280
  213ACOH    H410597   3.927   5.166   3.146  0.0425 -2.5010  0.4805
  213ACOH    O210598   4.019   5.172   3.177  0.3283  0.1526 -0.8162
  213ACOH    C210599   4.086   5.066   3.128 -0.2286  0.9153  0.4990
  213ACOH    O110600   4.035   4.974   3.066  0.8963  0.3862 -0.0104
  213ACOH    C110601   4.226   5.067   3.172  0.2663  0.3544  0.4984
  213ACOH    H110602   4.268   5.163   3.143 -0.1510  0.6153  0.7512
  213ACOH    H210603   4.281   4.985   3.126 -2.3571 -1.3758  0.2764
  213ACOH    H310604   4.227   5.061   3.281 -0.3452 -0.6972  0.4555
  214ACOH    H410605   5.108   1.259   0.820  1.5630 -0.6666 -3.2937
  214ACOH    O210606   5.135   1.168   0.844  0.1567 -0.2590  0.1401
  214ACOH    C210607   5.207   1.168   0.958 -0.2298 -0.3593 -0.4348
  214ACOH    O110608   5.296   1.246   0.988 -0.3226 -0.4391 -0.0966
  214ACOH    C110609   5.153   1.056   1.042  0.7709 -0.4059 -0.0901
  214ACOH    H110610   5.122   1.094   1.140 -1.6436 -3.6536  0.4727
  214ACOH    H210611   5.230   0.979   1.038  4.3870  3.0240 -0.2664
  214ACOH    H310612   5.065   1.005   1.003 -0.7506  2.1045 -0.0797
  215ACOH    H410613   7.515   5.893   2.586  1.2630 -1.3235 -0.9851
  215ACOH    O210614   7.495   5.804   2.619 -0.0664 -0.5455  0.3769
  215ACOH    C210615   7.583   5.718   2.570  0.4990 -0.9804 -0.0176
  215ACOH    O110616   7.686   5.747   2.509 -0.6132 -0.0779  0.0310
  215ACOH    C110617   7.557   5.579   2.615 -0.0651 -0.4267  0.1144
  215ACOH    H110618   7.620   5.572   2.703  0.1759 -1.0891 -0.1032
  215ACOH    H210619   7.595   5.511   2.538 -0.0604  0.3478 -0.5742
  215ACOH    H310620   7.457   5.552   2.649 -0.2421 -0.7761 -0.6554
  216ACOH    H410621   2.355   9.178   0.836 -0.7946 -3.7165  0.6379
  216ACOH    O210622   2.324   9.202   0.925  0.1588  0.1464 -0.0035
  216ACOH    C210623   2.303   9.089   0.987 -0.4227  0.5925 -0.5191
  216ACOH    O110624   2.302   8.977   0.942 -0.0534  0.6468  0.2763
  216ACOH    C110625   2.257   9.114   1.125  1.2499 -0.0401 -0.3466
  216ACOH    H110626   2.157   9.072   1.135  0.1861  1.9420 -2.3364
  216ACOH    H210627   2.258   9.220   1.148 -0.8262 -0.1764  0.4856
  216ACOH    H310628   2.326   9.064   1.193 -0.9654 -1.4557  0.9421
  217ACOH    H410629   5.210   0.865   1.466  0.1434 -0.4806 -0.7359
  217ACOH    O210630   5.300   0.898   1.484  0.0070 -0.6180  0.1917
  217ACOH    C210631   5.295   1.034   1.503  0.5180 -0.4121 -0.4119
  217ACOH    O110632   5.190   1.099   1.503 -0.0229  0.0588  0.5262
  217ACOH    C110633   5.425   1.089   1.537 -0.2691  0.1043  0.3048
  217ACOH    H110634   5.502   1.012   1.528  0.5639  0.4939  3.3148
  217ACOH    H210635   5.418   1.126   1.640  2.4168  1.7758 -0.0645
  217ACOH    H310636   5.443   1.173   1.470  1.1969  0.4038  1.0490
  218ACOH    H410637   7.089   3.966   0.014  0.4632  0.1944 -1.8641
  218ACOH    O210638   7.099   4.059   0.041  0.5801 -0.3568  0.0698
  218ACOH    C210639   7.005   4.090   0.132 -0.5981 -0.3724  0.1347
  218ACOH    O110640   6.918   4.012   0.173  0.0082 -0.3954  0.1347
  218ACOH    C110641   7.010   4.232   0.166 -0.0158  0.0440  0.8709
  218ACOH    H110642   6.926   4.279   0.114 -0.1983 -1.0077  0.2136
  218ACOH    H210643   7.112   4.269   0.151  0.1316  0.4175  2.6704
  218ACOH    H310644   6.990   4.227   0.273  0.7874 -1.2387  0.9728
  219ACOH    H410645   9.464   9.289   3.317 -1.2008 -0.8565  1.0065
  219ACOH    O210646   9.468   9.351   3.391 -0.1422  0.1569  0.1165
  219ACOH    C210647   9.386   9.444   3.353 -1.4685 -0.2812  0.3286
  219ACOH    O110648   9.308   9.453   3.259  0.0139  0.0585  0.2335
  219ACOH    C110649   9.372   9.544   3.464  0.4263 -0.0270  0.1479
  219ACOH    H110650   9.384   9.494   3.560  2.3803 -0.5944 -0.3619
  219ACOH    H210651   9.272   9.585   3.453 -0.3508 -2.0930 -0.8314
  219ACOH    H310652   9.453   9.617   3.460  0.5769 -0.1633  0.5821
  220ACOH    H410653   6.033   6.519   2.748  1.5364  0.9348  0.3480
  220ACOH    O210654   6.088   6.440   2.737  0.0550 -0.1062  0.1427
  220ACOH    C210655   6.005   6.336   2.719 -1.6172  0.2369  0.3748
  220ACOH    O110656   5.890   6.330   2.724  0.1883 -0.8738 -0.1387
  220ACOH    C110657   6.081   6.204   2.721  0.4856  0.3914 -0.1362
  220ACOH    H110658   6.154   6.206   2.802  2.0276  2.2906 -1.5311
  220ACOH    H210659   6.137   6.200   2.628  0.9559  2.8778 -0.0053
  220ACOH    H310660   6.018   6.117   2.739  1.7684 -0.7162 -0.9014
  221ACOH    H410661   5.037   7.821   1.912 -0.6969 -0.3655 -1.0823
  221ACOH    O210662   5.021   7.898   1.968  0.0943 -0.5150 -0.6520
  221ACOH    C210663   4.891   7.920   1.968 -0.1173 -0.3702 -0.7022
  221ACOH    O110664   4.810   7.867   1.896 -0.5518 -0.1040  0.1065
  221ACOH    C110665   4.861   8.043   2.036  0.2733  0.0694 -0.3457
  221ACOH    H110666   4.808   8.102   1.962  3.3137  2.5140 -0.6898
  221ACOH    H210667   4.945   8.101   2.075  0.5945  0.5574 -1.7280
  221ACOH    H310668   4.786   8.019   2.111  0.1099  1.1096 -0.1727
  222ACOH    H410669   8.067   2.842   2.257  1.6169 -1.8595 -2.4784
  222ACOH    O210670   7.980   2.799   2.249  0.0198  0.5421  0.7770
  222ACOH    C210671   8.019   2.674   2.222  0.2821 -0.4580 -0.1043
  222ACOH    O110672   8.107   2.647   2.140  0.4552 -0.2656 -0.3670
  222ACOH    C110673   7.915   2.569   2.249  0.2963  0.0252 -1.0575
  222ACOH    H110674   7.820   2.622   2.252  1.5891  2.4203 -0.6338
  222ACOH    H210675   7.932   2.526   2.348  2.2915  0.9450 -0.9622
  222ACOH    H310676   7.907   2.490   2.174 -0.9852  0.7682 -1.7213
  223ACOH    H410677   6.675   8.288   1.368 -1.2509 -1.6659  2.2206
  223ACOH    O210678   6.730   8.208   1.365 -0.1461 -0.8582 -0.2907
  223ACOH    C210679   6.805   8.223   1.261 -0.5339  0.4229  0.7303
  223ACOH    O110680   6.803   8.316   1.180 -0.3513 -0.2189 -0.0651
  223ACOH    C110681   6.927   8.136   1.277 -0.3068  0.1549  0.5230
  223ACOH    H110682   6.933   8.057   1.352 -0.6807  0.5964  1.0155
  223ACOH    H210683   7.007   8.210   1.282 -2.1655  2.0106  4.1016
  223ACOH    H310684   6.947   8.084   1.183  0.8521 -0.1788  0.9386
  224ACOH    H410685   8.687   4.127   3.337  1.5848 -1.8338  0.2401
  224ACOH    O210686   8.762   4.187   3.323  0.1135 -0.0174 -0.0434
  224ACOH    C210687   8.720   4.278   3.234  0.7738  0.4113  0.3919
  224ACOH    O110688   8.602   4.319   3.235  0.3210 -0.5006 -0.3506
  224ACOH    C110689   8.829   4.362   3.189  0.1831 -0.4528 -0.3382
  224ACOH    H110690   8.860   4.316   3.095  1.7375  0.3307 -0.2311
  224ACOH    H210691   8.918   4.366   3.252  0.6478  1.1192 -1.0587
  224ACOH    H310692   8.792   4.462   3.166  0.9927 -0.4867 -1.8034
  225ACOH    H410693   5.819   6.362   2.374 -1.8780 -0.1207  0.6629
  225ACOH    O210694   5.790   6.273   2.344  0.0841 -0.4892 -0.1980
  225ACOH    C210695   5.892   6.187   2.353  0.0025 -0.5381 -0.0153
  225ACOH    O110696   6.010   6.214   2.377  0.7711  0.4654 -0.3812
  225ACOH    C110697   5.845   6.057   2.316  0.5681 -0.3121  0.3549
  225ACOH    H110698   5.757   6.032   2.374  0.8859 -2.8742 -0.1983
  225ACOH    H210699   5.922   5.983   2.339  1.3384  0.9967  2.0589
  225ACOH    H310700   5.837   6.072   2.208 -0.0098  0.8559  0.5607
  226ACOH    H410701   7.381   0.909   2.865 -0.0679  1.3376 -1.5496
  226ACOH    O210702   7.336   0.831   2.828  0.4714  0.1524  0.2482
  226ACOH    C210703   7.221   0.862   2.761  0.1831 -0.3093 -0.2540
  226ACOH    O110704   7.181   0.977   2.745  0.0320 -0.3930  0.2135
  226ACOH    C110705   7.157   0.748   2.690  0.7861 -1.2085  0.8397
  226ACOH    H110706   7.202   0.738   2.591 -0.7843  0.2758 -0.0540
  226ACOH    H210707   7.055   0.784   2.678  1.6776  0.7939 -1.1087
  226ACOH    H310708   7.165   0.650   2.737  0.7776 -1.5571  0.1238
  227ACOH    H410709   6.372   7.004   2.904  2.2912  0.6565  1.3836
  227ACOH    O210710   6.353   6.922   2.953  0.4972  0.0427 -0.2885
  227ACOH    C210711   6.333   6.819   2.871  0.7709  0.1404  0.2212
  227ACOH    O110712   6.357   6.819   2.751 -0.3923 -1.0437 -0.6827
  227ACOH    C110713   6.319   6.694   2.949  0.6501  0.0658  0.2488
  227ACOH    H110714   6.363   6.713   3.046  0.4173  2.9128 -0.1763
  227ACOH    H210715   6.376   6.613   2.904  2.8105  0.3515  2.3982
  227ACOH    H310716   6.213   6.667   2.960  0.5310  0.6004  0.4135
  228ACOH    H410717   3.743   0.810   3.516 -0.0029  1.8228  1.4878
  228ACOH    O210718   3.727   0.752   3.592  0.3419  0.1555  0.2990
  228ACOH    C210719   3.643   0.651   3.566  0.1776 -0.0193  0.3453
  228ACOH    O110720   3.565   0.651   3.472  0.3940 -0.1228 -0.0471
  228ACOH    C110721   3.606   0.565   3.681 -0.6044  0.8498  0.2365
  228ACOH    H110722   3.696   0.553   3.741 -0.0610  0.2056 -0.7056
  228ACOH    H210723   3.570   0.468   3.648  2.1460  0.0287 -0.4913
  228ACOH    H310724   3.528   0.619   3.736 -0.5001  1.7054 -0.4399
  229ACOH    H410725   9.659   6.575   1.801  0.6051  0.9314  0.1488
  229ACOH    O210726   9.634   6.605   1.890  0.3693  0.6195  0.1899
  229ACOH    C210727   9.568   6.720   1.865  0.5736 -0.3571  0.2064
  229ACOH    O110728   9.589   6.784   1.765  0.1419 -0.4619 -0.5552
  229ACOH    C110729   9.509   6.781   1.984 -0.0581 -0.0700  0.1294
  229ACOH    H110730   9.483   6.699   2.052 -2.8655  1.0573  0.4767
  229ACOH    H210731   9.414   6.825   1.953 -0.7182 -3.5797 -3.2150
  229ACOH    H310732   9.580   6.852   2.026 -0.4549 -1.6198  3.5596
  230ACOH    H410733   1.402   5.380   0.372  2.1652 -0.3389  0.1536
  230ACOH    O210734   1.410   5.288   0.343 -0.4126 -0.6420  0.3007
  230ACOH    C210735   1.509   5.224   0.408 -0.1092  0.3028 -0.3292
  230ACOH    O110736   1.592   5.267   0.484 -0.1391  0.5768  0.1815
  230ACOH    C110737   1.512   5.084   0.364 -0.0257  1.3053  1.0252
  230ACOH    H110738   1.539   5.083   0.258  1.0323 -2.0412  1.2461
  230ACOH    H210739   1.416   5.034   0.374  1.8060 -2.3204  1.2173
  230ACOH    H310740   1.591   5.024   0.408 -0.7609  0.7924  1.6496
  231ACOH    H410741   5.806   0.226   1.751 -2.0561  0.3143 -0.9709
  231ACOH    O210742   5.813   0.320   1.772  0.1010 -0.1190  0.4887
  231ACOH    C210743   5.924   0.350   1.842  0.0647  0.5877  0.1099
  231ACOH    O110744   5.979   0.269   1.913 -0.2485  0.0026 -0.4283
  231ACOH    C110745   5.950   0.496   1.856  0.4403 -0.4839 -0.6316
  231ACOH    H110746   5.909   0.553   1.773  0.1563  0.8535  0.4144
  231ACOH    H210747   6.055   0.526   1.863  0.1785  0.1816  0.5400
  231ACOH    H310748   5.901   0.537   1.944 -1.9280 -1.7138 -1.3317
  232ACOH    H410749   7.304   6.456   2.776 -0.4664 -0.4401  0.3768
  232ACOH    O210750   7.278   6.379   2.829 -0.3017 -0.4363  0.4633
  232ACOH    C210751   7.345   6.269   2.788 -0.2044 -0.3676 -0.1434
  232ACOH    O110752   7.455   6.272   2.740  0.4096  0.0630  0.2913
  232ACOH    C110753   7.297   6.148   2.864  0.2982 -0.0610  0.3672
  232ACOH    H110754   7.301   6.062   2.797  1.7217  0.5563 -0.3763
  232ACOH    H210755   7.197   6.167   2.904  0.6870  0.3853  1.1304
  232ACOH    H310756   7.353   6.127   2.955 -0.3792 -3.4922  0.0501
  233ACOH    H410757   8.517   3.822   2.164  0.0910  0.1193 -0.7823
  233ACOH    O210758   8.428   3.848   2.136  0.0389  0.6902 -0.0999
  233ACOH    C210759   8.431   3.976   2.110 -0.1616 -0.2741 -0.3708
  233ACOH    O110760   8.531   4.046   2.107 -0.2874 -0.2976  0.7417
  233ACOH    C110761   8.301   4.015   2.048  0.2182  0.0125  0.2198
  233ACOH    H110762   8.287   4.123   2.045  0.3942  0.0457  0.5481
  233ACOH    H210763   8.217   3.971   2.101  0.4965 -0.3999  0.3217
  233ACOH    H310764   8.286   3.995   1.942 -1.3411 -1.2803  0.6649
  234ACOH    H410765   3.875   7.090   0.122  0.0915 -0.2035 -0.1206
  234ACOH    O210766   3.921   7.021   0.173  0.1429 -0.0302  0.0706
  234ACOH    C210767   4.051   7.033   0.164  0.0172  0.0254  0.7698
  234ACOH    O110768   4.108   7.096   0.078 -0.4792 -0.3402  0.0282
  234ACOH    C110769   4.131   6.947   0.258 -0.6338  0.0587 -0.1040
  234ACOH    H110770   4.190   6.879   0.197 -1.2861  1.9190 -2.8885
  234ACOH    H210771   4.051   6.900   0.316 -1.0546  0.5958 -0.2440
  234ACOH    H310772   4.204   7.000   0.319  0.2442  0.3901 -1.4163
  235ACOH    H410773   5.361   0.107   3.115 -2.7634  0.5781 -1.3845
  235ACOH    O210774   5.340   0.188   3.165 -0.5417  0.3151  0.0582
  235ACOH    C210775   5.236   0.145   3.241  0.4906  0.2448 -0.3579
  235ACOH    O110776   5.229   0.036   3.294  0.3579  0.1613 -0.1888
  235ACOH    C110777   5.167   0.264   3.294  0.6524 -0.8989  0.1447
  235ACOH    H110778   5.059   0.258   3.287  0.7374 -1.8951 -0.5820
  235ACOH    H210779   5.202   0.348   3.235 -0.5723  0.1231  0.8568
  235ACOH    H310780   5.196   0.281   3.398 -1.1684  2.2951  0.1850
  236ACOH    H410781   3.691   6.261   3.936  0.1566 -0.7953 -0.6264
  236ACOH    O210782   3.784   6.242   3.914  0.5440  0.5782 -0.2713
  236ACOH    C210783   3.802   6.242   3.782 -0.4072  0.0521 -0.1511
  236ACOH    O110784   3.732   6.296   3.697  0.3461  0.1727 -0.3821
  236ACOH    C110785   3.929   6.191   3.738  0.1246 -0.2386 -0.1486
  236ACOH    H110786   3.975   6.269   3.677  0.9097 -2.0474 -1.9230
  236ACOH    H210787   3.908   6.106   3.673 -1.0751  0.6092 -0.8906
  236ACOH    H310788   3.989   6.173   3.827 -2.2968  1.1837  1.8261
  237ACOH    H410789   4.876   3.227   2.959 -2.1146  0.9004  1.5063
  237ACOH    O210790   4.873   3.310   2.908 -0.6497 -0.1422 -0.3153
  237ACOH    C210791   4.876   3.411   2.997 -0.2953 -0.5584  0.9724
  237ACOH    O110792   4.903   3.395   3.113  0.4001  0.0715  0.3460
  237ACOH    C110793   4.890   3.539   2.924 -0.1888  0.1668  0.6817
  237ACOH    H110794   4.996   3.563   2.919  0.1125 -1.0419  0.9312
  237ACOH    H210795   4.827   3.608   2.979 -2.4102 -1.2380 -0.0557
  237ACOH    H310796   4.860   3.531   2.819  2.3606 -0.9020 -0.0218
  238ACOH    H410797   4.296   3.721   3.158  2.3738  0.6361  0.4860
  238ACOH    O210798   4.276   3.736   3.252  0.0348  0.1966  0.0973
  238ACOH    C210799   4.163   3.677   3.290 -0.5265 -0.3770 -0.6060
  238ACOH    O110800   4.090   3.615   3.218 -0.0571  0.6261 -0.6648
  238ACOH    C110801   4.157   3.682   3.439  0.5042 -0.0025  0.7619
  238ACOH    H110802   4.233   3.743   3.487  1.6188 -0.4672 -0.3950
  238ACOH    H210803   4.162   3.578   3.473 -3.1205 -0.0153  1.4283
  238ACOH    H310804   4.059   3.718   3.472  0.5382  1.1106 -0.3509
  239ACOH    H410805   5.180   8.094   0.004  1.3643  0.6247 -3.8948
  239ACOH    O210806   5.258   8.130   0.049 -0.2860  0.1858 -0.5121
  239ACOH    C210807   5.361   8.056   0.003 -0.3867 -0.1238  0.1178
  239ACOH    O110808   5.356   7.972  -0.083 -0.5761 -0.1630  0.4247
  239ACOH    C110809   5.487   8.086   0.072  0.1021  0.4088  0.3347
  239ACOH    H110810   5.482   8.044   0.172  1.4982  1.4641  0.8734
  239ACOH    H210811   5.490   8.195   0.068  0.2693  0.3812 -0.5588
  239ACOH    H310812   5.571   8.041   0.019  0.8830  0.2801  1.6581
  240ACOH    H410813   4.068   6.079   2.514  1.1102 -1.6323  1.8795
  240ACOH    O210814   4.142   6.131   2.549  0.3900  0.3427  0.5425
  240ACOH    C210815   4.202   6.063   2.643 -0.0035  0.2208 -0.1781
  240ACOH    O110816   4.150   5.973   2.701 -0.0916 -0.2140 -0.6813
  240ACOH    C110817   4.321   6.136   2.698 -0.5372 -0.2267  0.0757
  240ACOH    H110818   4.312   6.244   2.705 -0.7760 -0.2753  0.5289
  240ACOH    H210819   4.403   6.119   2.628 -0.3732  1.4248 -0.1452
  240ACOH    H310820   4.347   6.096   2.796 -1.4230 -0.5813  0.1682
  241ACOH    H410821   4.953   1.698   2.348 -0.1825  0.6832 -0.6767
  241ACOH    O210822   4.957   1.773   2.409  0.6671  0.2100 -0.1306
  241ACOH    C210823   5.021   1.877   2.358  0.4532 -0.7208 -0.3278
  241ACOH    O110824   5.026   1.896   2.240 -0.3024  0.2390 -0.0256
  241ACOH    C110825   5.042   1.972   2.467  0.9724  1.0721 -0.4416
  241ACOH    H110826   4.958   1.960   2.536  0.9834  0.6218 -0.5035
  241ACOH    H210827   5.060   2.077   2.443 -0.1938  1.6337  1.0196
  241ACOH    H310828   5.136   1.940   2.512  1.2989  0.4777 -1.5330
  242ACOH    H410829   3.005   5.109   0.129  0.2964 -0.1406 -0.7519
  242ACOH    O210830   3.057   5.031   0.151 -0.2201 -0.4099 -0.4814
  242ACOH    C210831   2.972   4.925   0.163 -0.3423  0.1518  0.0722
  242ACOH    O110832   2.853   4.925   0.178 -0.2274 -0.4003 -0.3009
  242ACOH    C110833   3.055   4.802   0.184 -0.4952 -0.0675 -0.4098
  242ACOH    H110834   3.037   4.741   0.096 -0.5352 -0.0963 -0.3820
  242ACOH    H210835   3.031   4.748   0.276  1.2244 -1.5194 -0.7670
  242ACOH    H310836   3.161   4.827   0.182  0.6621 -4.3763  0.7977
  243ACOH    H410837   4.003   4.229   0.708 -3.2947 -1.4316  0.5296
  243ACOH    O210838   4.032   4.156   0.764 -0.0151 -0.5257  0.0807
  243ACOH    C210839   4.139   4.099   0.709  0.3703 -0.3357  0.6550
  243ACOH    O110840   4.194   4.135   0.609 -0.5716 -0.2200 -0.1733
  243ACOH    C110841   4.188   3.986   0.787 -0.4147 -0.7467  0.2300
  243ACOH    H110842   4.179   3.899   0.722  0.0044 -0.1593 -0.6327
  243ACOH    H210843   4.135   3.962   0.879  1.8176 -1.9546  1.2362
  243ACOH    H310844   4.295   3.988   0.808 -0.3981  1.0033  0.0651
  244ACOH    H410845   7.882   9.514   1.518  1.0178 -0.6971 -1.9801
  244ACOH    O210846   7.829   9.560   1.451  0.0581  0.0954 -0.6719
  244ACOH    C210847   7.894   9.571   1.334 -0.1154  0.1920 -0.0138
  244ACOH    O110848   7.961   9.481   1.286 -0.2844 -0.5182 -0.3656
  244ACOH    C110849   7.846   9.685   1.248  0.0025 -0.2365  0.2724
  244ACOH    H110850   7.898   9.691   1.152  2.2137 -1.4475  1.3487
  244ACOH    H210851   7.871   9.777   1.300  0.1358 -0.1684  0.0892
  244ACOH    H310852   7.738   9.677   1.239 -0.1314  1.2749  0.5079
  245ACOH    H410853   3.821   5.580   1.571  0.9522  0.4069  0.0951
  245ACOH    O210854   3.809   5.655   1.509 -0.3288  0.3409  0.2514
  245ACOH    C210855   3.901   5.754   1.544 -0.3193 -0.0815 -0.0942
  245ACOH    O110856   3.954   5.771   1.652 -0.1118 -0.4442  0.3883
  245ACOH    C110857   3.905   5.858   1.439 -0.3810  0.3968 -0.5840
  245ACOH    H110858   4.003   5.902   1.425 -0.7548  1.0812 -1.1156
  245ACOH    H210859   3.832   5.933   1.470 -0.2837 -0.2829  1.3534
  245ACOH    H310860   3.869   5.817   1.344 -0.9531 -0.0881 -0.1609
  246ACOH    H410861   7.556   2.060   1.546  3.0109 -0.9867  0.2762
  246ACOH    O210862   7.529   2.026   1.459 -0.1488  0.2211  0.6844
  246ACOH    C210863   7.515   1.888   1.451  0.0516 -0.2899 -0.4546
  246ACOH    O110864   7.533   1.813   1.543  0.4110 -0.1198 -0.5736
  246ACOH    C110865   7.490   1.844   1.315 -0.4271  0.2921 -0.4132
  246ACOH    H110866   7.427   1.917   1.265 -1.5923  1.5315  2.7257
  246ACOH    H210867   7.442   1.746   1.309  1.2962 -0.5609 -0.6417
  246ACOH    H310868   7.583   1.832   1.259  0.1102  0.8352  0.3455
  247ACOH    H410869   1.140   2.614   3.201  1.5558  0.5275 -2.8450
  247ACOH    O210870   1.180   2.525   3.207 -0.1820 -0.1526  0.2141
  247ACOH    C210871   1.215   2.487   3.085 -0.0436 -0.2146  0.3901
  247ACOH    O110872   1.224   2.554   2.981  0.3984  0.1206 -0.3480
  247ACOH    C110873   1.274   2.350   3.097  0.6644 -0.2674 -0.0652
  247ACOH    H110874   1.235   2.291   3.014 -1.0995 -0.9616  1.2343
  247ACOH    H210875   1.242   2.302   3.190 -0.2205 -1.9022 -1.1721
  247ACOH    H310876   1.383   2.348   3.095  0.7400  2.3530  0.3376
  248ACOH    H410877   4.740   4.568   1.654 -0.0867 -0.1459 -0.0930
  248ACOH    O210878   4.674   4.558   1.725  0.2122  0.2185  0.2396
  248ACOH    C210879   4.715   4.646   1.813 -0.6571  0.2834 -0.5665
  248ACOH    O110880   4.826   4.692   1.830 -0.5557  0.2017 -0.0142
  248ACOH    C110881   4.605   4.670   1.910  0.0651  0.0067  0.5255
  248ACOH    H110882   4.636   4.725   1.999  0.9510  1.5578 -0.7092
  248ACOH    H210883   4.567   4.580   1.956 -0.0770  0.3936  1.1682
  248ACOH    H310884   4.519   4.713   1.859  0.0176 -1.1880 -0.4152
  249ACOH    H410885   0.050   3.568   0.393  3.4190  0.0333 -0.2563
  249ACOH    O210886   0.034   3.491   0.337 -0.3477  0.3785  0.2132
  249ACOH    C210887  -0.029   3.402   0.407  0.8497 -0.0424  0.2160
  249ACOH    O110888  -0.086   3.421   0.515 -0.4703  0.5633 -0.4054
  249ACOH    C110889  -0.038   3.278   0.330  0.2867  0.4637 -0.2067
  249ACOH    H110890   0.061   3.246   0.299  0.3822  1.3457 -0.8415
  249ACOH    H210891  -0.112   3.273   0.251 -0.9990 -0.8865  1.0413
  249ACOH    H310892  -0.061   3.200   0.403  0.9431  0.4192 -0.0440
  250ACOH    H410893   5.012   2.600   2.064  0.6632  0.3443 -0.4971
  250ACOH    O210894   5.072   2.667   2.101  0.4879  0.0923  0.2442
  250ACOH    C210895   5.065   2.638   2.231 -0.1623  0.5287  0.0179
  250ACOH    O110896   5.013   2.544   2.285  0.3888 -0.0969  0.3705
  250ACOH    C110897   5.158   2.731   2.297  0.2082 -0.2999  0.2003
  250ACOH    H110898   5.157   2.830   2.254  0.6307  0.1554  1.2063
  250ACOH    H210899   5.262   2.697   2.295  0.0510 -0.7821  0.0521
  250ACOH    H310900   5.125   2.732   2.401  0.2486  1.1101  0.2072
  251ACOH    H410901   8.312   0.477   2.223  0.4816 -0.7051  0.0627
  251ACOH    O210902   8.268   0.409   2.277 -0.2065  0.0538  0.4641
  251ACOH    C210903   8.353   0.379   2.372 -0.1681 -0.7537 -0.0741
  251ACOH    O110904   8.456   0.439   2.384  0.1767 -0.1847 -0.2144
  251ACOH    C110905   8.309   0.269   2.467  0.0391  0.0019  0.3943
  251ACOH    H110906   8.355   0.282   2.565  0.0298  0.0866  0.3882
  251ACOH    H210907   8.339   0.172   2.428 -1.7769 -0.0014 -1.0433
  251ACOH    H310908   8.201   0.264   2.471  0.0435 -0.3314  0.1341
  252ACOH    H410909   9.781   7.001   1.397 -0.6098  0.8076 -0.2664
  252ACOH    O210910   9.865   7.024   1.440 -0.4889 -0.1614  0.0214
  252ACOH    C210911   9.839   7.103   1.549  0.0496  0.0673 -0.7699
  252ACOH    O110912   9.735   7.111   1.611 -0.3394  0.3333  0.5153
  252ACOH    C110913   9.963   7.164   1.606 -0.5230  0.0067 -0.1001
  252ACOH    H110914  10.035   7.184   1.527 -1.3876 -1.6329 -1.3187
  252ACOH    H210915  10.007   7.077   1.656  0.9755  0.9145  0.1703
  252ACOH    H310916   9.960   7.247   1.676 -0.2209 -0.4555  0.4708
  253ACOH    H410917   3.172   0.033   1.938  0.5426  0.1769 -0.2118
  253ACOH    O210918   3.161   0.121   1.899 -0.1292  0.3962  0.4771
  253ACOH    C210919   3.241   0.203   1.962  0.0228  0.1876  0.5033
  253ACOH    O110920   3.329   0.172   2.043  0.4818  0.2069 -0.7769
  253ACOH    C110921   3.234   0.340   1.923  0.4602  0.7270  0.0454
  253ACOH    H110922   3.331   0.369   1.882  0.6105 -0.8397 -0.7267
  253ACOH    H210923   3.209   0.405   2.008 -0.0536  1.4028 -0.6197
  253ACOH    H310924   3.166   0.356   1.840  0.3324  3.3512  0.5826
  254ACOH    H410925   6.895   3.501   0.248  0.3487  1.1133  1.7900
  254ACOH    O210926   6.818   3.559   0.237 -0.4713 -0.3152 -0.2118
  254ACOH    C210927   6.819   3.617   0.119  1.0494 -0.6190  0.2609
  254ACOH    O110928   6.889   3.601   0.021 -0.9817  0.2259 -0.2111
  254ACOH    C110929   6.716   3.721   0.108  0.3387  0.7001 -0.0126
  254ACOH    H110930   6.656   3.735   0.198 -1.1285 -1.2833 -0.6686
  254ACOH    H210931   6.648   3.683   0.032  2.6698 -0.0942 -1.7479
  254ACOH    H310932   6.761   3.816   0.079  2.4196 -0.2514 -0.0238
  255ACOH    H410933   5.191   2.983   0.515 -0.5896  1.1604  0.8967
  255ACOH    O210934   5.268   3.032   0.549  0.0842  0.7984 -0.0596
  255ACOH    C210935   5.227   3.102   0.652  0.1235  0.3576  0.5384
  255ACOH    O110936   5.115   3.149   0.670 -0.2054  0.3719 -0.2141
  255ACOH    C110937   5.340   3.161   0.725 -0.0620  0.0404  0.6519
  255ACOH    H110938   5.434   3.107   0.710 -1.1131 -1.7600  0.3075
  255ACOH    H210939   5.328   3.168   0.833 -0.3171  0.4657  0.5957
  255ACOH    H310940   5.363   3.263   0.696  1.6277 -0.4144  0.2914
  256ACOH    H410941   7.963   4.679   3.221  2.0600 -0.9453  3.0278
  256ACOH    O210942   7.888   4.709   3.276  0.0141  0.4739 -0.4276
  256ACOH    C210943   7.935   4.706   3.403  0.1803  0.5101  0.3011
  256ACOH    O110944   8.049   4.672   3.433 -0.0257 -0.8385 -0.1525
  256ACOH    C110945   7.848   4.763   3.501 -0.1633 -0.6265 -0.1915
  256ACOH    H110946   7.882   4.740   3.602 -2.1135  0.7241  0.7918
  256ACOH    H210947   7.753   4.712   3.487  0.5447 -2.3963  1.3167
  256ACOH    H310948   7.840   4.870   3.484  1.5349 -0.3465  0.6442
  257ACOH    H410949   7.237   0.264   2.394 -0.2494  0.1838 -0.4615
  257ACOH    O210950   7.207   0.333   2.455 -0.4775  0.0180 -0.3831
  257ACOH    C210951   7.073   0.330   2.475  0.7895 -0.0952  0.0622
  257ACOH    O110952   6.995   0.258   2.419 -0.0823  0.2011 -0.3225
  257ACOH    C110953   7.020   0.426   2.577  0.5904  0.3422 -0.1566
  257ACOH    H110954   6.935   0.390   2.635  0.3288 -1.4779 -1.6268
  257ACOH    H210955   6.992   0.517   2.525  0.2021  0.5443  0.4032
  257ACOH    H310956   7.099   0.444   2.651  0.9410 -0.6582 -0.2765
  258ACOH    H410957   3.772   9.170   2.136  1.4446 -0.4489 -2.5697
  258ACOH    O210958   3.812   9.258   2.138 -0.6254  0.5087 -0.5208
  258ACOH    C210959   3.716   9.355   2.114  0.1384 -0.3323 -0.2065
  258ACOH    O110960   3.595   9.340   2.096  0.8749  0.0864 -0.2476
  258ACOH    C110961   3.785   9.486   2.099  0.0500 -0.6450 -0.1138
  258ACOH    H110962   3.788   9.498   1.991  2.2577 -1.0032 -0.1075
  258ACOH    H210963   3.886   9.484   2.140  0.2913 -1.5803 -0.7438
  258ACOH    H310964   3.721   9.557   2.151 -1.9446 -1.5848 -1.2398
  259ACOH    H410965   7.804   4.294   3.075  0.8075 -0.0842  0.1854
  259ACOH    O210966   7.775   4.380   3.109 -0.6450 -0.5768  0.2217
  259ACOH    C210967   7.772   4.465   3.006 -0.5155 -0.6220  0.2602
  259ACOH    O110968   7.833   4.444   2.904 -0.1590  0.2392  0.2076
  259ACOH    C110969   7.709   4.595   3.029 -0.0125  0.5847 -0.1386
  259ACOH    H110970   7.657   4.584   3.124 -0.7121 -0.6572 -0.6470
  259ACOH    H210971   7.646   4.627   2.946  0.8168 -1.0482 -1.4420
  259ACOH    H310972   7.783   4.675   3.039 -2.2227  2.5360  0.9394
  260ACOH    H410973   5.083   7.327   1.247  0.8427  0.2831  3.0699
  260ACOH    O210974   5.119   7.237   1.243 -0.0344  0.0190 -0.1791
  260ACOH    C210975   5.075   7.171   1.353  0.1741 -0.6170 -0.0870
  260ACOH    O110976   5.012   7.212   1.449  0.3934 -0.2190  0.4063
  260ACOH    C110977   5.108   7.024   1.354 -0.5915  0.1692  0.8390
  260ACOH    H110978   5.170   6.987   1.273 -3.0273  0.1035 -1.0703
  260ACOH    H210979   5.011   6.974   1.348 -1.2070  1.6264 -2.5903
  260ACOH    H310980   5.157   7.010   1.451  0.9494  1.0231  0.1929
  261ACOH    H410981   2.817   9.020   2.314  1.8141 -0.1386  0.4487
  261ACOH    O210982   2.827   8.930   2.277 -0.6013 -0.1852 -0.1890
  261ACOH    C210983   2.932   8.868   2.329  0.3249  0.4032  0.7198
  261ACOH    O110984   3.000   8.897   2.426  0.1141 -0.1630 -0.1319
  261ACOH    C110985   2.971   8.765   2.235 -0.3366 -0.7258  0.9409
  261ACOH    H110986   2.895   8.757   2.157  0.2719 -2.3621  0.5005
  261ACOH    H210987   2.997   8.675   2.290  0.7257 -2.3408 -2.0515
  261ACOH    H310988   3.066   8.790   2.187 -1.1084 -2.2159 -1.4606
  262ACOH    H410989   4.865   3.770   0.503  2.1678  1.7256 -2.2237
  262ACOH    O210990   4.950   3.733   0.534  0.2521 -0.8188  0.2655
  262ACOH    C210991   4.986   3.813   0.639  0.0796  0.7262  0.4808
  262ACOH    O110992   4.978   3.934   0.633  0.2185  0.1221 -0.2214
  262ACOH    C110993   5.092   3.746   0.719 -1.0918  0.8537 -0.6162
  262ACOH    H110994   5.099   3.638   0.704 -1.6696  0.6797  0.2935
  262ACOH    H210995   5.057   3.778   0.817 -3.9940 -2.7912 -0.3697
  262ACOH    H310996   5.187   3.792   0.690 -0.0693 -0.7764  0.0585
  263ACOH    H410997   5.542   7.963   3.347 -2.1208 -0.1187 -0.7628
  263ACOH    O210998   5.509   7.934   3.434  0.3383 -0.2634  0.1375
  263ACOH    C210999   5.541   8.037   3.506  0.2029  0.1748  0.2522
  263ACOH    O111000   5.581   8.149   3.476  0.2094 -0.2899 -0.4670
  263ACOH    C111001   5.518   8.003   3.651 -0.4739 -0.2197  0.1060
  263ACOH    H111002   5.474   7.904   3.667  0.1912 -0.7566 -1.3071
  263ACOH    H211003   5.445   8.063   3.705 -0.3635 -0.5305  0.6084
  263ACOH    H311004   5.609   8.004   3.711  0.9500 -4.3754 -1.7790
  264ACOH    H411005   7.159   7.672   1.517 -1.6305 -0.2723  2.8912
  264ACOH    O211006   7.127   7.586   1.486  0.5163 -0.0875 -0.1430
  264ACOH    C211007   7.177   7.556   1.367  0.1888  0.2162  0.0427
  264ACOH    O111008   7.263   7.612   1.298 -0.0332  0.8094 -0.1809
  264ACOH    C111009   7.147   7.419   1.322 -0.2371 -0.0524 -0.3702
  264ACOH    H111010   7.149   7.357   1.412 -1.5947  0.1865 -0.1696
  264ACOH    H211011   7.223   7.378   1.255  1.8914  0.4342  1.6666
  264ACOH    H311012   7.044   7.416   1.287  0.2009 -1.2271 -1.5936
  265ACOH    H411013   1.569   4.844   2.035  0.2193 -0.0219 -0.1656
  265ACOH    O211014   1.599   4.817   1.947  0.2299 -0.0403 -0.1561
  265ACOH    C211015   1.613   4.926   1.871 -0.1871 -0.3939 -0.0337
  265ACOH    O111016   1.596   5.045   1.903  0.3673 -0.3297 -0.3242
  265ACOH    C111017   1.677   4.894   1.743 -0.9092  0.0446 -0.4050
  265ACOH    H111018   1.694   4.787   1.732  2.0115  0.4916 -0.5442
  265ACOH    H211019   1.777   4.938   1.742 -1.0494  0.5618  2.9103
  265ACOH    H311020   1.613   4.930   1.662 -1.7957 -0.0561  0.2416
  266ACOH    H411021   4.788   2.640   3.125  1.2089 -0.8006  0.5372
  266ACOH    O211022   4.765   2.558   3.172 -0.9622 -0.4174  0.1641
  266ACOH    C211023   4.647   2.507   3.128 -0.3126  0.5038  0.4290
  266ACOH    O111024   4.597   2.521   3.018  0.7950 -0.2967 -0.0668
  266ACOH    C111025   4.617   2.387   3.216  1.2153  0.0507  0.3964
  266ACOH    H111026   4.567   2.423   3.306 -1.1721 -2.3159  0.0682
  266ACOH    H211027   4.704   2.334   3.255  0.6060 -1.7193 -0.6260
  266ACOH    H311028   4.553   2.314   3.167  0.5052  1.5031 -0.8959
  267ACOH    H411029   4.762   7.500   4.001  0.6511  0.6979  2.5521
  267ACOH    O211030   4.745   7.412   4.039 -0.4075 -0.3700 -0.2512
  267ACOH    C211031   4.868   7.356   4.056 -0.6667  0.2995 -0.4520
  267ACOH    O111032   4.978   7.413   4.062 -0.8423  0.6251 -0.1090
  267ACOH    C111033   4.859   7.221   4.112 -0.1295 -0.1655 -0.1095
  267ACOH    H111034   4.754   7.195   4.129 -0.4562  1.1599 -0.0609
  267ACOH    H211035   4.915   7.219   4.205 -0.5417 -0.8653  0.1272
  267ACOH    H311036   4.914   7.154   4.046  2.6875  0.8395  1.1405
  268ACOH    H411037   5.427   1.975   0.685 -1.6979 -0.1748  1.4956
  268ACOH    O211038   5.486   2.024   0.744 -0.2922 -0.0939  0.0414
  268ACOH    C211039   5.551   1.923   0.806 -0.3947  0.8496 -0.9237
  268ACOH    O111040   5.572   1.812   0.763  0.5226  0.0553  0.7823
  268ACOH    C111041   5.632   1.967   0.922  0.6369  0.3138  0.1569
  268ACOH    H111042   5.735   1.946   0.891  0.7369  0.1117  0.6281
  268ACOH    H211043   5.614   1.906   1.010  0.4865  0.9166  0.5427
  268ACOH    H311044   5.627   2.075   0.938  1.7985  0.4276 -0.1652
  269ACOH    H411045   1.687   1.431   3.513 -1.5245  1.6420 -0.3323
  269ACOH    O211046   1.734   1.442   3.429 -0.2094 -0.1429  0.1482
  269ACOH    C211047   1.814   1.337   3.401 -0.1480  0.1408  0.4169
  269ACOH    O111048   1.828   1.245   3.476 -0.1648  0.2250  0.5844
  269ACOH    C111049   1.882   1.352   3.265 -0.7292  0.1908  0.1050
  269ACOH    H111050   1.867   1.455   3.232  1.1157 -0.0581 -1.6358
  269ACOH    H211051   1.833   1.282   3.197 -2.0730 -0.0840  1.3261
  269ACOH    H311052   1.990   1.336   3.267 -0.4780  1.8471  0.9105
  270ACOH    H411053   4.929   7.677   0.594 -4.1942  0.7648  0.7354
  270ACOH    O211054   4.950   7.610   0.662 -0.2456  0.4865 -0.6874
  270ACOH    C211055   5.083   7.586   0.684 -0.1616  0.3296 -0.0610
  270ACOH    O111056   5.170   7.655   0.635 -0.2526 -0.8221  0.2418
  270ACOH    C111057   5.109   7.460   0.760  0.2488 -0.0809  0.3820
  270ACOH    H111058   5.164   7.381   0.709  0.3713  0.2611 -0.0156
  270ACOH    H211059   5.012   7.417   0.786 -0.4882  0.8022 -0.8423
  270ACOH    H311060   5.158   7.482   0.855 -2.1723 -1.8861  2.1361
  271ACOH    H411061   5.309   1.428   1.415 -0.4939  0.4442  0.0191
  271ACOH    O211062   5.383   1.391   1.363 -0.2481 -0.1831  0.8027
  271ACOH    C211063   5.414   1.496   1.279 -0.1326 -0.1660 -0.0657
  271ACOH    O111064   5.366   1.609   1.273 -0.3263 -0.2322  0.1604
  271ACOH    C111065   5.531   1.453   1.197  1.1843  0.4788 -0.2096
  271ACOH    H111066   5.622   1.501   1.233 -0.4544  0.4938  4.0893
  271ACOH    H211067   5.503   1.484   1.096  0.6599 -1.7021 -0.7508
  271ACOH    H311068   5.549   1.346   1.205  2.5859  0.9116  3.0578
  272ACOH    H411069   4.146   5.438   1.882  2.5168  0.4784 -2.6864
  272ACOH    O211070   4.139   5.342   1.865 -0.0850  0.1180  0.0776
  272ACOH    C211071   4.237   5.285   1.938  0.4995 -0.1517  0.2575
  272ACOH    O111072   4.244   5.168   1.972  0.2409 -0.0635  0.0154
  272ACOH    C111073   4.332   5.384   1.994  0.2528 -0.2476 -0.4341
  272ACOH    H111074   4.289   5.483   1.983  2.3674  0.7967  0.4779
  272ACOH    H211075   4.427   5.380   1.942  0.8091 -1.2312  0.6306
  272ACOH    H311076   4.343   5.364   2.101  0.2087 -1.3574 -0.6250
  273ACOH    H411077   6.008   9.773   2.627 -0.8152 -1.6858  0.2441
  273ACOH    O211078   6.062   9.805   2.701 -0.5202 -0.9371 -0.2794
  273ACOH    C211079   6.025   9.935   2.721  0.0264  0.3427 -0.5731
  273ACOH    O111080   5.923   9.991   2.690 -0.4741 -0.3533 -0.6327
  273ACOH    C111081   6.126  10.018   2.797  0.2009  0.0242 -0.1508
  273ACOH    H111082   6.154   9.960   2.885  0.8142  0.9223  0.2609
  273ACOH    H211083   6.082  10.113   2.827 -1.7199  0.3468 -3.7163
  273ACOH    H311084   6.217  10.038   2.740  0.5070 -1.5322 -0.2367
  274ACOH    H411085   4.261   7.131   0.604 -0.9012 -0.3584  0.5606
  274ACOH    O211086   4.299   7.073   0.672 -0.4211 -0.4737  0.1961
  274ACOH    C211087   4.375   6.980   0.608 -0.0428 -0.1040  0.1790
  274ACOH    O111088   4.425   7.003   0.499  0.7066 -0.5876  0.5674
  274ACOH    C111089   4.440   6.885   0.697 -0.1335 -0.3937  0.6332
  274ACOH    H111090   4.439   6.922   0.799 -1.3808  1.5033 -0.0386
  274ACOH    H211091   4.541   6.870   0.660 -0.3147  0.6830 -0.3424
  274ACOH    H311092   4.390   6.788   0.696 -1.1497  0.1250 -0.2608
  275ACOH    H411093   7.255   3.888   0.482  1.3089  0.4910 -2.6815
  275ACOH    O211094   7.168   3.901   0.441 -0.2260 -0.1171  0.2912
  275ACOH    C211095   7.117   3.778   0.434  0.1308 -0.1879 -0.4904
  275ACOH    O111096   7.182   3.682   0.408 -0.4813  0.0916  0.0866
  275ACOH    C111097   6.973   3.782   0.448 -0.1475  0.4873 -0.1976
  275ACOH    H111098   6.935   3.681   0.459  1.4478  0.0880  1.9476
  275ACOH    H211099   6.935   3.832   0.359  1.8272  0.5248 -1.0541
  275ACOH    H311100   6.948   3.843   0.535 -0.4025 -0.0977  0.1392
  276ACOH    H411101   2.233   4.956   2.483  2.0393 -0.5980 -0.2102
  276ACOH    O211102   2.211   4.922   2.395 -0.0948 -0.1393  0.1151
  276ACOH    C211103   2.251   5.023   2.313  0.4176 -0.5700 -0.3315
  276ACOH    O111104   2.321   5.119   2.330 -0.8522 -0.0387 -0.1581
  276ACOH    C111105   2.204   4.992   2.175 -0.4272 -0.4187  0.3115
  276ACOH    H111106   2.095   4.981   2.175 -0.4981  0.2113  1.4811
  276ACOH    H211107   2.249   4.897   2.146 -0.3101  0.2721 -1.8167
  276ACOH    H311108   2.236   5.066   2.102 -0.4294  1.6762  2.3822
  277ACOH    H411109   6.875   0.162   3.388  1.0010  1.2797  1.6957
  277ACOH    O211110   6.799   0.117   3.428  0.5702  0.1573 -0.2716
  277ACOH    C211111   6.693   0.133   3.344  0.4135 -0.2715 -0.3030
  277ACOH    O111112   6.666   0.213   3.252 -0.2507  0.1689  0.3046
  277ACOH    C111113   6.589   0.034   3.387  0.3032  0.0833 -0.8276
  277ACOH    H111114   6.555  -0.016   3.296  1.9744 -2.5146 -0.0908
  277ACOH    H211115   6.500   0.082   3.428  1.2201 -1.2257  2.8510
  277ACOH    H311116   6.634  -0.044   3.448  1.9000  1.2858 -0.4352
  278ACOH    H411117   7.291   1.413   2.862  0.4978  0.7113 -1.5199
  278ACOH    O211118   7.266   1.507   2.857  0.2614  0.7200 -0.3347
  278ACOH    C211119   7.342   1.585   2.939  0.2048 -0.4154 -0.6426
  278ACOH    O111120   7.450   1.547   2.982  0.2618 -0.1094  0.4027
  278ACOH    C111121   7.283   1.725   2.956  0.2836  0.0649 -0.3175
  278ACOH    H111122   7.352   1.788   2.900 -0.3748 -0.1763 -1.4064
  278ACOH    H211123   7.289   1.742   3.064 -0.1676  2.0272 -0.5819
  278ACOH    H311124   7.182   1.736   2.918 -0.0306 -1.8322 -0.1002
  279ACOH    H411125   4.317   3.982   2.863 -1.5269 -0.1833  1.1710
  279ACOH    O211126   4.347   3.898   2.824 -0.1426  0.8571 -0.0278
  279ACOH    C211127   4.287   3.901   2.704 -0.5720  0.2635  0.0886
  279ACOH    O111128   4.185   3.957   2.675 -0.3582  0.0840  0.0213
  279ACOH    C111129   4.333   3.788   2.621  0.0288  1.0062 -0.6787
  279ACOH    H111130   4.426   3.811   2.570 -0.5982  1.6989 -1.5422
  279ACOH    H211131   4.260   3.756   2.546  1.9653 -1.8724 -1.3786
  279ACOH    H311132   4.348   3.703   2.687  1.0230  0.2685 -1.8409
  280ACOH    H411133   4.763   8.921   0.000 -0.5163  0.6907 -2.8265
  280ACOH    O211134   4.830   8.854  -0.026  0.1031 -0.1003  0.5067
  280ACOH    C211135   4.941   8.902   0.025  0.5200  0.3323  0.1438
  280ACOH    O111136   4.962   9.000   0.095  0.2405  0.6643 -0.5327
  280ACOH    C111137   5.061   8.831  -0.023 -0.4147  0.3438 -0.0906
  280ACOH    H111138   5.153   8.877   0.013  0.5625 -2.3276  0.9375
  280ACOH    H211139   5.060   8.840  -0.132  1.0837  0.9553 -0.0652
  280ACOH    H311140   5.059   8.722  -0.014  1.3148  0.1011 -2.0672
  281ACOH    H411141   7.199   2.043   0.289  1.9005 -1.3547 -0.2613
  281ACOH    O211142   7.133   2.009   0.226  1.0201 -0.2154  0.0405
  281ACOH    C211143   7.039   2.109   0.222  0.2588 -0.1581 -0.1120
  281ACOH    O111144   7.056   2.223   0.258 -0.8329 -0.5532  0.0087
  281ACOH    C111145   6.918   2.062   0.144  0.4755  0.5006  0.0834
  281ACOH    H111146   6.923   2.103   0.043 -3.9019  1.8075  0.3049
  281ACOH    H211147   6.823   2.085   0.191  0.8842  0.8057  0.7756
  281ACOH    H311148   6.923   1.954   0.129 -0.0454  0.2297  1.7857
  282ACOH    H411149   7.751   9.817   0.918  2.2825 -2.1482 -1.0082
  282ACOH    O211150   7.691   9.751   0.956  0.2158  0.0334 -0.3168
  282ACOH    C211151   7.561   9.798   0.949  0.7149 -0.3695 -0.4546
  282ACOH    O111152   7.531   9.910   0.910  0.2645  0.3944 -0.3041
  282ACOH    C111153   7.462   9.700   0.997  0.5933  0.1491  0.5152
  282ACOH    H111154   7.499   9.665   1.093  1.2002 -0.5301  0.0471
  282ACOH    H211155   7.468   9.617   0.926  1.4917  0.9659 -0.3846
  282ACOH    H311156   7.365   9.749   0.997  0.3671 -0.1939 -2.5629
  283ACOH    H411157   4.897   2.815   2.627 -0.1152 -0.7034 -0.1630
  283ACOH    O211158   4.989   2.818   2.594  0.0280 -0.2858  0.2607
  283ACOH    C211159   5.062   2.834   2.700  0.2149 -0.2361 -0.5258
  283ACOH    O111160   5.024   2.850   2.819  0.4310  0.0605  0.1534
  283ACOH    C111161   5.203   2.856   2.654 -0.3281 -0.6391 -0.0055
  283ACOH    H111162   5.196   2.904   2.556  0.5869 -3.2349 -1.3930
  283ACOH    H211163   5.254   2.761   2.641 -1.8239 -1.6031  1.0360
  283ACOH    H311164   5.254   2.927   2.720 -0.3373  0.9509 -1.6710
  284ACOH    H411165   9.027   0.452   0.683  0.6958  0.1807  0.4743
  284ACOH    O211166   8.966   0.417   0.750  0.2419  0.5052  0.2382
  284ACOH    C211167   8.977   0.488   0.867 -0.4665 -0.7404 -0.4508
  284ACOH    O111168   9.035   0.593   0.887 -0.1287  0.8072 -0.0876
  284ACOH    C111169   8.895   0.417   0.967  0.4551  0.0698  0.2321
  284ACOH    H111170   8.801   0.471   0.979  1.2315  1.1759  1.4556
  284ACOH    H211171   8.953   0.413   1.059  3.2189 -2.3664 -1.5411
  284ACOH    H311172   8.868   0.313   0.948 -2.0209  0.6494  0.3810
  285ACOH    H411173   3.930   5.737   2.816 -1.5616  0.1520  0.7395
  285ACOH    O211174   3.948   5.677   2.890  0.1663  0.2569  0.4259
  285ACOH    C211175   3.877   5.566   2.873 -0.7084  0.3175  0.0478
  285ACOH    O111176   3.785   5.537   2.794 -0.6109 -0.8430 -0.4598
  285ACOH    C111177   3.917   5.472   2.985  0.6563 -0.1393 -0.4091
  285ACOH    H111178   3.977   5.385   2.956  2.8852  1.9592 -2.2982
  285ACOH    H211179   3.827   5.440   3.038  0.4191 -0.1951 -0.8378
  285ACOH    H311180   3.969   5.529   3.061 -1.8317  1.1483  0.3943
  286ACOH    H411181   7.532   8.210   3.486 -0.4207  1.2365 -0.4530
  286ACOH    O211182   7.466   8.179   3.550  0.3833 -0.0966 -0.2411
  286ACOH    C211183   7.424   8.290   3.612  0.5903  0.9616 -0.1382
  286ACOH    O111184   7.475   8.401   3.605  0.0619 -0.0547  0.0836
  286ACOH    C111185   7.313   8.273   3.707 -0.1027  0.3491 -0.3155
  286ACOH    H111186   7.228   8.340   3.693 -1.3833 -1.0440  0.5791
  286ACOH    H211187   7.354   8.301   3.804 -0.4008  2.5403 -0.8056
  286ACOH    H311188   7.277   8.170   3.705  1.4653 -0.2492  1.0967
  287ACOH    H411189   5.021   0.131   3.562 -0.6033  0.2640 -0.5765
  287ACOH    O211190   5.073   0.205   3.598 -0.3054 -0.2719  0.1063
  287ACOH    C211191   4.991   0.266   3.686  0.5109 -0.3078 -0.5302
  287ACOH    O111192   4.896   0.213   3.742  0.5907  0.2500  0.4867
  287ACOH    C111193   5.030   0.402   3.708 -0.0401 -0.1723 -0.1373
  287ACOH    H111194   4.953   0.452   3.767  1.5880  3.0074 -0.5731
  287ACOH    H211195   5.029   0.455   3.612 -0.7808  1.2891  0.6680
  287ACOH    H311196   5.127   0.407   3.758 -0.9408 -0.8833  1.7199
  288ACOH    H411197   8.365   6.189   0.217 -0.6454  0.1244  0.3153
  288ACOH    O211198   8.296   6.123   0.200 -0.1836 -0.2313 -0.2277
  288ACOH    C211199   8.237   6.156   0.082 -0.3470 -0.3034 -0.9664
  288ACOH    O111200   8.267   6.242   0.004  0.0872  0.2211  0.3622
  288ACOH    C111201   8.130   6.052   0.053 -0.5374 -0.0162 -0.3777
  288ACOH    H111202   8.156   5.960   0.104 -1.3049  0.5877  1.1473
  288ACOH    H211203   8.123   6.041  -0.055  3.4748  0.6313 -0.8166
  288ACOH    H311204   8.028   6.070   0.086 -0.8336 -0.0162 -1.2970
  289ACOH    H411205   5.295   6.945   1.828  0.2937  1.2407  0.3329
  289ACOH    O211206   5.320   6.982   1.741 -0.2298  0.4282 -0.1684
  289ACOH    C211207   5.403   7.083   1.750 -0.9093 -0.4960  0.0837
  289ACOH    O111208   5.469   7.116   1.849 -0.6134 -0.1511 -0.1735
  289ACOH    C111209   5.389   7.163   1.620 -0.4940 -0.0866 -0.1439
  289ACOH    H111210   5.408   7.099   1.534  1.5444 -0.5942  0.6600
  289ACOH    H211211   5.440   7.259   1.613  2.3832 -1.4126  2.0153
  289ACOH    H311212   5.281   7.181   1.623 -0.3966  0.4392  4.0276
  290ACOH    H411213   7.796   1.034   0.074  2.2537  2.0572 -0.5020
  290ACOH    O211214   7.738   1.108   0.050 -0.1370  0.6219  0.6644
  290ACOH    C211215   7.716   1.193   0.155  0.4759 -0.0574  0.0701
  290ACOH    O111216   7.782   1.187   0.258 -0.2592 -0.6054 -0.3515
  290ACOH    C111217   7.602   1.287   0.138  0.8759 -0.4205  0.4733
  290ACOH    H111218   7.628   1.375   0.078 -2.9043  1.0834  0.8941
  290ACOH    H211219   7.568   1.331   0.232 -0.9599  2.2009 -1.3231
  290ACOH    H311220   7.521   1.233   0.090 -0.6042  1.5432  0.6764
  291ACOH    H411221   9.227   1.362   2.394  0.4833 -0.1622  1.3054
  291ACOH    O211222   9.153   1.405   2.439 -0.1607  0.2997 -0.1517
  291ACOH    C211223   9.063   1.302   2.452 -0.4174  0.1085  0.3571
  291ACOH    O111224   9.066   1.194   2.395  0.1218 -0.0504 -0.0705
  291ACOH    C111225   8.955   1.328   2.544  0.3361  0.1927  0.4634
  291ACOH    H111226   8.866   1.329   2.482 -0.1920  0.5638  1.2148
  291ACOH    H211227   8.966   1.423   2.597  0.8454  0.7209 -0.5819
  291ACOH    H311228   8.951   1.252   2.622  0.8501  1.4580  1.7458
  292ACOH    H411229   4.388   3.244   1.202  2.0187 -1.2409  0.6214
  292ACOH    O211230   4.438   3.327   1.209 -0.3116  0.2388  0.3547
  292ACOH    C211231   4.516   3.352   1.104  0.6344 -0.2073 -0.1031
  292ACOH    O111232   4.514   3.296   0.996  0.4442 -0.3979  0.6874
  292ACOH    C111233   4.598   3.476   1.134  0.1949  0.2724  0.0359
  292ACOH    H111234   4.704   3.457   1.116 -0.2615 -3.3693  0.8002
  292ACOH    H211235   4.579   3.510   1.236 -2.4089 -1.0460  0.0433
  292ACOH    H311236   4.564   3.558   1.070 -0.1756  0.0695 -0.0289
  293ACOH    H411237   7.960   4.037   0.951 -1.1425  2.8036 -3.4345
  293ACOH    O211238   7.944   3.963   0.890 -0.3012 -0.7976  0.4965
  293ACOH    C211239   8.056   3.892   0.923 -0.4740  0.3729 -0.7122
  293ACOH    O111240   8.105   3.883   1.033  0.0387  0.3929 -0.4065
  293ACOH    C111241   8.112   3.808   0.815  0.1856 -0.4724  0.8438
  293ACOH    H111242   8.058   3.829   0.723  1.2789  2.5288  0.8214
  293ACOH    H211243   8.111   3.707   0.857 -0.7126 -0.7856  0.0717
  293ACOH    H311244   8.211   3.848   0.794 -0.6939  0.3676 -1.9027
  294ACOH    H411245   8.408   6.521   0.462 -1.1986  1.8958  0.5762
  294ACOH    O211246   8.347   6.541   0.389 -0.2861  0.4998 -0.5852
  294ACOH    C211247   8.285   6.424   0.362 -0.5517  0.2448 -0.3100
  294ACOH    O111248   8.298   6.319   0.421  0.3953  0.2071  0.4449
  294ACOH    C111249   8.181   6.455   0.262  0.2179 -0.3322  0.6305
  294ACOH    H111250   8.235   6.481   0.171  1.1541  3.7754  2.2495
  294ACOH    H211251   8.134   6.549   0.291  1.9289  1.0123 -0.8677
  294ACOH    H311252   8.102   6.381   0.247 -0.4568  0.6042 -0.5139
  295ACOH    H411253   5.793   8.694   1.154  1.1630 -0.2725  1.2254
  295ACOH    O211254   5.784   8.598   1.140 -0.5674  0.0553 -0.0540
  295ACOH    C211255   5.768   8.526   1.256  1.3842  0.0847  0.8410
  295ACOH    O111256   5.771   8.569   1.371 -0.4100 -0.1624 -0.2612
  295ACOH    C111257   5.749   8.380   1.229  0.0978 -0.0864  0.1962
  295ACOH    H111258   5.654   8.350   1.274 -0.2854  0.1132 -0.4680
  295ACOH    H211259   5.831   8.326   1.275 -0.7332 -1.7716 -0.2735
  295ACOH    H311260   5.757   8.355   1.123 -3.0133  1.1495 -0.4160
  296ACOH    H411261   5.488   6.785   3.240  2.2638  0.7921 -1.2706
  296ACOH    O211262   5.552   6.754   3.306  0.1091  0.1571  0.5735
  296ACOH    C211263   5.670   6.760   3.244  1.8053  0.0687  0.1716
  296ACOH    O111264   5.707   6.852   3.177 -0.5135 -0.1270 -0.4759
  296ACOH    C111265   5.763   6.677   3.321 -0.4959 -0.0583 -0.5536
  296ACOH    H111266   5.754   6.712   3.424 -0.2025 -1.4707 -0.0242
  296ACOH    H211267   5.861   6.674   3.273 -0.4211  1.0270 -0.4722
  296ACOH    H311268   5.733   6.572   3.320  0.9161 -0.6255  3.8865
  297ACOH    H411269   2.682   7.500   3.531  2.4778  0.0104 -0.7515
  297ACOH    O211270   2.713   7.496   3.624  0.4418 -0.2763 -0.0698
  297ACOH    C211271   2.748   7.617   3.661  0.3197  0.6604 -0.2611
  297ACOH    O111272   2.795   7.715   3.602 -0.0836  0.7225  1.0021
  297ACOH    C111273   2.750   7.621   3.812  0.9650  0.6958 -0.5687
  297ACOH    H111274   2.857   7.624   3.834  1.0457 -0.6662 -0.7605
  297ACOH    H211275   2.687   7.537   3.844  0.3742  1.1871 -0.4213
  297ACOH    H311276   2.703   7.712   3.850  1.9700  0.0820  2.2653
  298ACOH    H411277   6.322   5.696   2.108 -1.1422  0.9301 -2.0690
  298ACOH    O211278   6.364   5.784   2.107  0.6727  0.1121 -0.4087
  298ACOH    C211279   6.275   5.864   2.173  0.5302  0.4725  0.1199
  298ACOH    O111280   6.163   5.830   2.203  0.2485 -0.5795 -0.0862
  298ACOH    C111281   6.339   5.992   2.213  0.4253  0.0524  0.5013
  298ACOH    H111282   6.425   5.966   2.275  1.8965  0.4169 -1.3431
  298ACOH    H211283   6.277   6.061   2.270  2.4260  1.1208  1.4503
  298ACOH    H311284   6.380   6.035   2.122  1.0227  0.6343  1.0357
  299ACOH    H411285   5.326   1.425   0.898  1.6747 -0.3324  0.2909
  299ACOH    O211286   5.339   1.504   0.843 -0.3085 -0.0935  0.1367
  299ACOH    C211287   5.222   1.536   0.791  0.2389 -0.9320 -0.4765
  299ACOH    O111288   5.120   1.469   0.786  0.2142 -0.5648 -1.1141
  299ACOH    C111289   5.236   1.674   0.739  0.1056  0.7358  0.4037
  299ACOH    H111290   5.312   1.669   0.660 -0.1625 -0.5401  0.2096
  299ACOH    H211291   5.267   1.739   0.820  2.6113 -0.3354  0.3529
  299ACOH    H311292   5.141   1.707   0.695 -1.5237 -2.7683  1.1392
  300ACOH    H411293   5.178   6.750   1.947  0.0801  0.2582  1.9038
  300ACOH    O211294   5.129   6.666   1.947 -0.3793  0.4906 -0.6037
  300ACOH    C211295   5.005   6.702   1.966  0.1402  0.1427 -0.0348
  300ACOH    O111296   4.961   6.800   1.902 -0.2531  0.4523  0.5697
  300ACOH    C111297   4.935   6.589   2.019 -0.2307  0.5879 -0.0418
  300ACOH    H111298   4.872   6.528   1.955  3.0200  0.2445 -3.1075
  300ACOH    H211299   4.861   6.623   2.092 -0.5352 -0.8589  0.3298
  300ACOH    H311300   5.004   6.527   2.076  1.3160  0.2795 -2.1773
  301ACOH    H411301   8.385   7.098   0.966 -0.7743  0.3575  0.8291
  301ACOH    O211302   8.354   7.183   0.930 -0.2905  0.2448  0.1351
  301ACOH    C211303   8.444   7.255   0.863 -0.1983 -0.0281 -0.4864
  301ACOH    O111304   8.552   7.219   0.813 -0.1442  0.4182  0.3211
  301ACOH    C111305   8.380   7.394   0.852  0.7202  0.5540  0.1930
  301ACOH    H111306   8.414   7.452   0.766  0.5645  0.1020 -0.1777
  301ACOH    H211307   8.408   7.450   0.941  1.5758  1.6073 -0.7275
  301ACOH    H311308   8.272   7.392   0.843  0.8538  0.9513 -1.7666
  302ACOH    H411309   0.605   7.209   3.737  2.6089  3.1719  3.9723
  302ACOH    O211310   0.515   7.228   3.767  0.3660 -0.5805  0.2826
  302ACOH    C211311   0.490   7.348   3.710  1.1189  0.8495 -0.1799
  302ACOH    O111312   0.550   7.386   3.611 -0.4182  0.4154 -0.1536
  302ACOH    C111313   0.352   7.398   3.750 -1.0634 -0.8154  0.7312
  302ACOH    H111314   0.322   7.326   3.826 -2.9116 -0.0237  0.7783
  302ACOH    H211315   0.283   7.393   3.666  0.2055 -0.7392 -0.3179
  302ACOH    H311316   0.368   7.497   3.792  0.9645 -0.3748 -1.0086
  303ACOH    H411317   7.246   9.915   3.815 -1.9468 -0.4131  0.5582
  303ACOH    O211318   7.228  10.002   3.855 -0.6720  0.3327 -0.4040
  303ACOH    C211319   7.094  10.012   3.868  0.3294 -0.1224 -0.4067
  303ACOH    O111320   7.002   9.947   3.819 -0.0403  0.6947 -0.3651
  303ACOH    C111321   7.064  10.146   3.925 -0.2765 -0.7035  0.1441
  303ACOH    H111322   7.094  10.161   4.029  1.4223  0.2104 -0.4612
  303ACOH    H211323   6.961  10.177   3.905 -0.1770  1.2384  2.3668
  303ACOH    H311324   7.124  10.224   3.878 -1.3121  0.8024  1.2443
  304ACOH    H411325   6.914   9.660   3.562  1.4627 -0.0326 -1.8204
  304ACOH    O211326   6.937   9.565   3.566  0.0682 -0.3004  0.5787
  304ACOH    C211327   6.818   9.507   3.584 -0.7684 -0.1801  0.3803
  304ACOH    O111328   6.713   9.555   3.627 -0.0110  0.4761  0.0324
  304ACOH    C111329   6.834   9.356   3.576  0.2035  0.2985  0.1623
  304ACOH    H111330   6.911   9.325   3.646  0.7222 -0.3608 -0.6890
  304ACOH    H211331   6.868   9.332   3.475  2.3732  0.4514  0.8298
  304ACOH    H311332   6.747   9.299   3.606  0.8350 -0.6212  0.2562
  305ACOH    H411333   5.736   9.159   3.207  0.5701 -1.7375  0.8188
  305ACOH    O211334   5.805   9.227   3.214 -0.5886 -0.4048 -0.5596
  305ACOH    C211335   5.750   9.324   3.293  0.0132  0.3000 -0.2577
  305ACOH    O111336   5.631   9.339   3.321 -0.1730  0.0242  0.0682
  305ACOH    C111337   5.829   9.448   3.326  0.4672 -0.0136  0.6096
  305ACOH    H111338   5.882   9.476   3.234  0.3893 -1.8157 -0.0003
  305ACOH    H211339   5.899   9.424   3.406  1.5423  0.0102 -0.2967
  305ACOH    H311340   5.767   9.532   3.358 -0.2779 -0.4163  0.2318
  306ACOH    H411341   4.358   3.414   3.158 -0.2965 -1.5777  0.5465
  306ACOH    O211342   4.356   3.429   3.254  0.0537  0.0856  0.2962
  306ACOH    C211343   4.482   3.396   3.299  0.0995 -0.3002 -0.3792
  306ACOH    O111344   4.581   3.387   3.232 -0.6468  0.0532 -0.6140
  306ACOH    C111345   4.487   3.411   3.444 -0.6899  0.2144 -0.1333
  306ACOH    H111346   4.388   3.445   3.475 -0.0481  0.9872  1.1343
  306ACOH    H211347   4.566   3.484   3.461  0.9981 -1.4019 -0.8985
  306ACOH    H311348   4.525   3.322   3.495  0.4727  1.6856  1.6665
  307ACOH    H411349   5.413   8.140   1.454  0.7124  0.0031 -1.1062
  307ACOH    O211350   5.347   8.108   1.391 -0.5767  0.7021 -0.1353
  307ACOH    C211351   5.352   8.180   1.281  0.2456  1.1839  0.4916
  307ACOH    O111352   5.393   8.290   1.268 -0.1388  0.3312  0.1454
  307ACOH    C111353   5.254   8.121   1.184 -0.1513 -0.0649 -0.3241
  307ACOH    H111354   5.187   8.196   1.143 -0.1455  0.2461  0.2276
  307ACOH    H211355   5.189   8.051   1.236  0.8028 -1.7775 -1.3892
  307ACOH    H311356   5.308   8.063   1.109  0.3038 -1.2914  0.9299
  308ACOH    H411357   2.671   5.190   2.169  1.2321 -0.6271 -1.5057
  308ACOH    O211358   2.635   5.275   2.139  0.1293 -0.4897  0.1253
  308ACOH    C211359   2.541   5.246   2.047  0.3331 -0.7092  0.3163
  308ACOH    O111360   2.509   5.132   2.018 -0.5529 -0.4410  0.0503
  308ACOH    C111361   2.485   5.361   1.974 -0.2234 -0.0191 -0.8853
  308ACOH    H111362   2.409   5.412   2.033  1.2650  0.0133  1.0759
  308ACOH    H211363   2.439   5.349   1.876 -2.1912  2.0357 -0.2596
  308ACOH    H311364   2.562   5.439   1.965 -0.5020  0.2031 -1.3425
  309ACOH    H411365   4.859   4.677   0.823 -2.2488  0.2549 -2.0257
  309ACOH    O211366   4.921   4.719   0.761 -0.3739  0.1148 -0.3240
  309ACOH    C211367   4.859   4.828   0.722 -0.2828 -0.2529 -0.6877
  309ACOH    O111368   4.758   4.879   0.778  0.1951  0.5765 -0.4903
  309ACOH    C111369   4.942   4.908   0.627 -0.0012  0.2615 -0.1511
  309ACOH    H111370   4.888   4.926   0.535 -0.6951  1.7800  0.5265
  309ACOH    H211371   5.034   4.858   0.598 -0.0709  0.5312 -0.8471
  309ACOH    H311372   4.986   5.000   0.667  2.7446 -1.6724  1.4562
  310ACOH    H411373   4.686   1.664   0.535 -0.8665 -0.4066  2.3408
  310ACOH    O211374   4.734   1.580   0.530  0.0980  0.2450 -0.1058
  310ACOH    C211375   4.675   1.495   0.443  0.1563 -0.3838 -0.2668
  310ACOH    O111376   4.566   1.512   0.387 -0.4550  0.1531  0.2589
  310ACOH    C111377   4.755   1.368   0.432  0.3603 -0.1948 -1.2799
  310ACOH    H111378   4.859   1.396   0.450  0.1607  0.1586 -0.6285
  310ACOH    H211379   4.736   1.339   0.329  1.4546  0.7979 -1.7743
  310ACOH    H311380   4.713   1.296   0.502 -0.2886  0.1195 -1.3381
  311ACOH    H411381   5.116   2.835   0.286 -0.0889 -2.2071  0.3030
  311ACOH    O211382   5.129   2.827   0.190 -0.3424 -0.0926  0.0744
  311ACOH    C211383   5.001   2.818   0.140  0.0051 -0.3564 -0.0947
  311ACOH    O111384   4.900   2.796   0.204  0.1631  0.6349  0.1161
  311ACOH    C111385   5.001   2.821  -0.006 -0.7389 -0.3049  0.6275
  311ACOH    H111386   5.088   2.762  -0.030 -0.5136  0.4066 -0.3498
  311ACOH    H211387   5.025   2.921  -0.041  0.8533 -0.9596 -0.1523
  311ACOH    H311388   4.906   2.786  -0.046 -0.0407  1.4940 -2.7681
  312ACOH    H411389   5.475   6.494   2.729  0.4568 -0.1406  2.7885
  312ACOH    O211390   5.383   6.522   2.740  0.2706  0.6264 -0.2501
  312ACOH    C211391   5.314   6.405   2.765 -0.2059 -0.6050 -0.2657
  312ACOH    O111392   5.361   6.296   2.755 -0.2745  0.0153  0.0392
  312ACOH    C111393   5.165   6.429   2.792 -0.6957  0.5608 -0.5230
  312ACOH    H111394   5.129   6.362   2.870 -2.8107  3.5955  1.2452
  312ACOH    H211395   5.112   6.420   2.697 -2.3504  1.5670  0.2641
  312ACOH    H311396   5.168   6.532   2.830  0.3424  0.3148  0.0701
  313ACOH    H411397   5.026   3.135   0.100 -0.0019 -0.5134 -0.7421
  313ACOH    O211398   5.084   3.117   0.175  0.0080 -0.3250 -0.7059
  313ACOH    C211399   5.213   3.140   0.128  0.1678  0.2803  0.1470
  313ACOH    O111400   5.246   3.201   0.027  0.1516  0.2297 -0.2483
  313ACOH    C111401   5.308   3.113   0.240  0.4108 -0.3320 -0.1339
  313ACOH    H111402   5.276   3.166   0.330 -0.6901 -2.6861  0.9184
  313ACOH    H211403   5.411   3.143   0.225  0.7929 -0.2739  2.3168
  313ACOH    H311404   5.306   3.007   0.267 -0.5586 -0.4857 -0.7871
  314ACOH    H411405   4.669   5.196   1.411  0.8791 -0.4048  1.4701
  314ACOH    O211406   4.747   5.255   1.402 -0.2898  0.8703 -0.6275
  314ACOH    C211407   4.706   5.381   1.429 -0.1473 -0.2298 -0.5871
  314ACOH    O111408   4.589   5.414   1.450 -0.0288 -0.0692 -0.6503
  314ACOH    C111409   4.816   5.477   1.431  0.7051 -0.4527 -0.9312
  314ACOH    H111410   4.910   5.432   1.398  0.1948 -0.9104 -1.7505
  314ACOH    H211411   4.829   5.528   1.527 -0.0173 -1.2804 -0.3924
  314ACOH    H311412   4.781   5.558   1.368 -2.1007 -0.4872  0.5013
  315SOL     OW11413   8.553   5.217   1.191 -0.7983  0.1835  0.0363
  315SOL    HW111414   8.453   5.222   1.198 -0.9635 -0.5137 -1.5624
  315SOL    HW211415   8.594   5.250   1.276 -2.3594  1.8856  0.1670
  316SOL     OW11416   3.705   1.962   2.488  0.2774 -0.1515 -0.2603
  316SOL    HW111417   3.625   1.938   2.432  1.4260 -2.3905 -0.9890
  316SOL    HW211418   3.678   1.967   2.584 -0.5654 -1.7422 -0.4050
  317SOL     OW11419   5.381   9.006   1.096  0.2329  0.2937  0.3657
  317SOL    HW111420   5.382   9.105   1.083 -1.0004  0.3312  0.4934
  317SOL    HW211421   5.287   8.972   1.089  0.7487 -1.0000 -0.6573
  318SOL     OW11422   0.692   4.660   1.578  0.3277 -0.0586 -0.3598
  318SOL    HW111423   0.611   4.634   1.527 -0.2036  2.7684 -1.0542
  318SOL    HW211424   0.676   4.644   1.676 -0.6128 -0.6371 -0.6030
  319SOL     OW11425   9.776   4.364   2.602  0.3961  0.3342  0.3750
  319SOL    HW111426   9.834   4.290   2.568  0.1982  0.2586  0.2009
  319SOL    HW211427   9.816   4.452   2.578  0.5863  0.2824  0.5033
  320SOL     OW11428   4.397   8.506   2.554  0.3369  0.0972  0.3503
  320SOL    HW111429   4.426   8.583   2.498  1.0775 -1.6624 -1.7628
  320SOL    HW211430   4.475   8.446   2.572 -0.8796 -1.9497 -0.9483
  321SOL     OW11431   5.052   8.043   3.985  0.1673 -0.0761 -0.5692
  321SOL    HW111432   4.998   8.120   4.018 -0.7509 -0.6398 -0.7269
  321SOL    HW211433   4.995   7.961   3.985  0.5568 -0.3699 -2.2048
  322SOL     OW11434   0.577   3.873   2.314 -0.1972  0.8918 -0.0386
  322SOL    HW111435   0.623   3.867   2.402  0.1103  0.6733 -0.2104
  322SOL    HW211436   0.609   3.799   2.254 -0.7263  0.7763 -0.1849
  323SOL     OW11437   0.458   6.013   1.290 -0.0168 -0.5364 -0.7089
  323SOL    HW111438   0.505   5.940   1.341 -1.0583  0.3637  1.6214
  323SOL    HW211439   0.375   5.976   1.249 -0.1816 -0.8281 -0.1195
  324SOL     OW11440   2.817   4.415   1.457  0.0203  0.0907  0.0858
  324SOL    HW111441   2.736   4.368   1.424 -0.6937  1.8561 -0.7371
  324SOL    HW211442   2.873   4.352   1.511 -1.7864 -1.1971  0.4839
  325SOL     OW11443   0.582   8.004   0.472  0.3219  0.3795 -0.5012
  325SOL    HW111444   0.627   7.915   0.472  0.6238  0.5332 -0.1583
  325SOL    HW211445   0.595   8.047   0.382  1.1748  0.5825 -0.2857
  326SOL     OW11446   9.886   5.702   2.429  0.4343 -0.3346 -0.1636
  326SOL    HW111447   9.809   5.669   2.374  1.4472 -0.1491 -1.7041
  326SOL    HW211448   9.961   5.729   2.369  2.4771 -2.4006  1.3964
  327SOL     OW11449   4.028   6.339   2.418  0.5349  0.2214 -0.0287
  327SOL    HW111450   4.076   6.266   2.466 -0.3559 -0.9618 -0.9236
  327SOL    HW211451   4.057   6.340   2.322 -0.8391 -0.1625 -0.4471
  328SOL     OW11452   1.926   8.780   2.526  0.7173  0.4378 -0.2137
  328SOL    HW111453   2.003   8.716   2.524  1.1275  0.9062  0.4678
  328SOL    HW211454   1.960   8.873   2.530  0.1256  0.6168  1.0341
  329SOL     OW11455   5.026   0.173   2.997 -0.0163  0.7229 -0.2741
  329SOL    HW111456   4.933   0.174   2.960  0.3190  0.3450 -1.1415
  329SOL    HW211457   5.062   0.080   2.994 -0.2543  0.5489  1.7140
  330SOL     OW11458   8.024   0.926   0.615 -0.1440 -0.5838  0.0240
  330SOL    HW111459   7.964   1.003   0.594 -0.6338 -0.6292  1.2710
  330SOL    HW211460   7.971   0.841   0.613  0.3890 -0.9008 -1.3219
  331SOL     OW11461   4.093   0.983   3.474  0.1328  0.7358 -0.1735
  331SOL    HW111462   4.111   0.884   3.477 -0.5696  0.6251  0.9175
  331SOL    HW211463   4.122   1.020   3.386 -0.3738 -0.6006 -0.9143
  332SOL     OW11464   1.602   5.287   0.084  0.0421 -0.3597 -0.0642
  332SOL    HW111465   1.506   5.305   0.104  0.4265  3.1014 -0.9874
  332SOL    HW211466   1.659   5.345   0.143  1.5344 -1.1873 -0.6657
  333SOL     OW11467   0.913   6.994   2.743  0.1168 -0.0688  0.6443
  333SOL    HW111468   0.862   7.079   2.754  0.9047  0.8572 -2.5728
  333SOL    HW211469   0.917   6.969   2.647  2.6371 -2.0637  1.2076
  334SOL     OW11470   4.842   7.355   2.922 -0.2576 -0.0842 -0.3562
  334SOL    HW111471   4.915   7.287   2.914 -0.3672 -0.3660  0.8916
  334SOL    HW211472   4.757   7.317   2.885 -0.2853 -0.5876  0.2065
  335SOL     OW11473   0.660   8.225   2.517 -0.3506 -0.3770 -0.5015
  335SOL    HW111474   0.567   8.261   2.523 -0.6884 -0.9342 -2.2702
  335SOL    HW211475   0.673   8.154   2.586 -0.6518  0.9526  0.9499
  336SOL     OW11476   8.783   4.947   0.361 -0.3981 -0.3233  0.2029
  336SOL    HW111477   8.708   5.012   0.374 -0.3017 -0.2103  0.1973
  336SOL    HW211478   8.768   4.866   0.418 -1.6223 -1.2678 -1.4322
  337SOL     OW11479   9.917   2.405   0.001 -0.1419  0.3081  0.3962
  337SOL    HW111480  10.008   2.405   0.041 -0.2179 -1.2969  0.6017
  337SOL    HW211481   9.855   2.456   0.060  0.3571  0.3509  0.8882
  338SOL     OW11482   2.296   0.372   3.393  0.0344 -0.1626 -0.3415
  338SOL    HW111483   2.370   0.428   3.430  0.2771 -1.1665  0.7026
  338SOL    HW211484   2.288   0.389   3.294  1.0103  0.6790 -0.2803
  339SOL     OW11485   3.045   8.767   0.837  0.4355  0.1675  0.2579
  339SOL    HW111486   3.135   8.753   0.877 -0.2927 -0.0783  1.8564
  339SOL    HW211487   3.007   8.678   0.809  0.1062  0.1141  0.8762
  340SOL     OW11488   1.749   6.795   2.204  0.9117  0.0298 -0.5346
  340SOL    HW111489   1.776   6.891   2.193  1.8793 -0.0203  1.1551
  340SOL    HW211490   1.751   6.749   2.116  1.5839  1.2725 -1.1782
  341SOL     OW11491   0.045   0.647   0.187  0.0530  0.1889  0.0658
  341SOL    HW111492   0.046   0.747   0.190  0.0162  0.2342 -1.2466
  341SOL    HW211493   0.001   0.612   0.270 -1.4660  1.3169 -0.2412
  342SOL     OW11494   2.780   8.438   1.294  0.4828 -0.3003 -0.3621
  342SOL    HW111495   2.740   8.372   1.230 -1.0534 -1.0919  1.3724
  342SOL    HW211496   2.812   8.390   1.376 -1.9251  1.2464  1.5384
  343SOL     OW11497   7.213   7.652   2.211 -1.0394  0.5050 -0.9274
  343SOL    HW111498   7.207   7.639   2.310 -1.0329  1.4238 -0.8092
  343SOL    HW211499   7.267   7.577   2.171 -1.2803 -0.0183 -0.2774
  344SOL     OW11500   1.372   4.968   4.000 -0.0482  0.4833 -0.1190
  344SOL    HW111501   1.344   5.051   4.048 -1.1031 -0.5477  1.0986
  344SOL    HW211502   1.469   4.951   4.016 -0.1669  0.6911  0.8487
  345SOL     OW11503   0.441   8.559   1.332 -0.1307 -0.4634 -0.0759
  345SOL    HW111504   0.349   8.581   1.364  0.1980 -0.9610  1.2523
  345SOL    HW211505   0.498   8.641   1.334  0.3963 -0.8555  2.4322
  346SOL     OW11506   5.817   9.055   1.534  0.3482 -0.5523  0.0734
  346SOL    HW111507   5.838   8.957   1.537  0.7779 -0.4957 -1.0809
  346SOL    HW211508   5.899   9.106   1.510 -0.4378 -0.1015 -1.7279
  347SOL     OW11509   3.588   5.353   3.422  0.2197 -0.5778  0.3538
  347SOL    HW111510   3.603   5.399   3.335 -0.7620  0.0343  0.5010
  347SOL    HW211511   3.525   5.276   3.408  1.2026 -1.3640  0.2591
  348SOL     OW11512   3.903   7.051   1.734 -0.0462  0.1149  0.0095
  348SOL    HW111513   3.976   7.051   1.666  0.1922  0.8515  0.2676
  348SOL    HW211514   3.909   7.133   1.791 -0.8092 -0.0326  0.3168
  349SOL     OW11515   2.659   5.006   3.071 -0.3370  0.3242 -1.0458
  349SOL    HW111516   2.568   5.023   3.031  0.4964  1.3940 -2.5250
  349SOL    HW211517   2.650   4.998   3.170 -1.5613  4.0659 -0.7988
  350SOL     OW11518   8.464   8.453   2.081  0.0699 -0.2521  0.2448
  350SOL    HW111519   8.495   8.391   2.153  1.8291 -0.1179 -0.3710
  350SOL    HW211520   8.457   8.546   2.117  2.7367  0.1504 -0.1801
  351SOL     OW11521   0.826   0.885   3.605  0.4008 -0.0243  0.8824
  351SOL    HW111522   0.815   0.788   3.583  1.0848 -0.0303  0.5617
  351SOL    HW211523   0.761   0.939   3.552  0.6041 -0.2317  0.4182
  352SOL     OW11524   8.277   8.175   3.505 -0.1427  0.4155 -0.2502
  352SOL    HW111525   8.262   8.100   3.569 -1.1318  0.6651 -0.1751
  352SOL    HW211526   8.372   8.205   3.510 -0.0639  0.0380  0.6610
  353SOL     OW11527   4.417   0.577   3.804  0.1575 -0.1078 -0.4405
  353SOL    HW111528   4.404   0.548   3.899 -1.6457 -1.4362 -1.0514
  353SOL    HW211529   4.365   0.661   3.788 -2.9406 -2.0647 -1.2469
  354SOL     OW11530   8.267   8.484   2.901  0.2293 -0.3304 -0.2818
  354SOL    HW111531   8.256   8.580   2.875  0.7209 -0.2292 -0.1217
  354SOL    HW211532   8.341   8.476   2.968 -0.7395 -0.6276  0.7877
  355SOL     OW11533   3.528   6.594   1.541 -0.5222 -0.2787 -0.2304
  355SOL    HW111534   3.626   6.601   1.558 -1.0979  0.3090  3.0856
  355SOL    HW211535   3.484   6.680   1.565 -2.2617 -1.5974  1.4283
  356SOL     OW11536   8.328   2.012   3.699 -0.0082 -0.4778  0.2744
  356SOL    HW111537   8.297   2.061   3.780 -1.2018  0.5262 -0.7737
  356SOL    HW211538   8.417   2.047   3.670 -1.2548  1.7352 -0.9916
  357SOL     OW11539   9.131   5.334   0.536 -0.3956 -0.0044 -0.1923
  357SOL    HW111540   9.085   5.253   0.499 -0.9469 -0.0984  0.6967
  357SOL    HW211541   9.173   5.311   0.624 -1.2906  0.9120  0.4787
  358SOL     OW11542   8.689   0.835   2.991 -0.1384  0.3454 -0.2577
  358SOL    HW111543   8.638   0.826   3.077  1.7565  1.1368  1.0058
  358SOL    HW211544   8.648   0.907   2.935 -0.9449  0.3486  0.3303
  359SOL     OW11545   3.773   1.578   1.658 -0.5775 -0.8253 -0.5878
  359SOL    HW111546   3.716   1.655   1.630  2.9388  2.4359  0.8215
  359SOL    HW211547   3.847   1.565   1.593  0.4980 -1.1954  0.6821
  360SOL     OW11548   2.104   1.786   3.113  0.2767  0.1976 -0.2533
  360SOL    HW111549   2.109   1.786   3.213 -1.0506  1.5350 -0.1819
  360SOL    HW211550   2.079   1.694   3.081 -3.1032  0.6652  0.8519
  361SOL     OW11551   9.488   4.883   1.126  0.0355 -0.4574 -0.0405
  361SOL    HW111552   9.459   4.978   1.119  0.8916 -0.2739 -1.1920
  361SOL    HW211553   9.578   4.878   1.170 -0.2518 -0.7731  0.5117
  362SOL     OW11554   0.843   0.034   3.439  0.0255  0.4171  0.0086
  362SOL    HW111555   0.849  -0.033   3.365  0.6082 -1.1479  1.4267
  362SOL    HW211556   0.767   0.010   3.499  0.2774  0.9928  0.5582
  363SOL     OW11557   2.952   6.826   1.107  0.2520 -0.0785  0.0915
  363SOL    HW111558   2.919   6.900   1.048  0.6412  0.8534  1.0531
  363SOL    HW211559   2.944   6.853   1.203  3.3772 -0.0206  0.3694
  364SOL     OW11560   4.758   8.488   3.164  0.6226 -0.3991 -0.2373
  364SOL    HW111561   4.707   8.571   3.186  0.6517 -0.7250  1.1108
  364SOL    HW211562   4.774   8.484   3.065 -0.1569  0.7385 -0.4233
  365SOL     OW11563   7.729   5.006   2.413 -0.2475  0.1782  0.7711
  365SOL    HW111564   7.631   5.025   2.414 -0.6110 -1.4421 -0.9128
  365SOL    HW211565   7.749   4.929   2.473 -0.1936 -0.3285  0.1018
  366SOL     OW11566   6.929   8.777   0.919  0.3335  0.2868 -0.1703
  366SOL    HW111567   7.014   8.732   0.894  0.2175 -0.0412  0.0270
  366SOL    HW211568   6.873   8.716   0.975 -0.4053  0.1854 -1.0029
  367SOL     OW11569   9.483   3.731   0.289  0.6768 -0.7746  0.0900
  367SOL    HW111570   9.572   3.766   0.259 -0.2593  0.6612 -1.1174
  367SOL    HW211571   9.424   3.718   0.209 -0.2587 -1.5522  0.8934
  368SOL     OW11572   0.742   8.365   0.971 -0.3938  0.3521  0.1123
  368SOL    HW111573   0.814   8.343   1.037 -1.3761 -1.7209  0.5633
  368SOL    HW211574   0.665   8.408   1.020 -0.4173  0.3889  0.0419
  369SOL     OW11575   8.213   1.712   1.950 -0.0898 -0.1003 -0.7274
  369SOL    HW111576   8.144   1.763   2.001  0.0837  0.6644 -1.2504
  369SOL    HW211577   8.300   1.761   1.954 -0.1234  0.0571 -1.9191
  370SOL     OW11578   2.309   6.862   0.498  0.1990 -0.2673  0.3190
  370SOL    HW111579   2.387   6.808   0.465  1.2947  2.1820 -1.2130
  370SOL    HW211580   2.226   6.831   0.452  1.0069  0.0913 -1.4158
  371SOL     OW11581   0.015   5.633   3.827 -0.1905 -0.0419  0.5048
  371SOL    HW111582  -0.004   5.538   3.854  0.8801 -0.0936  1.0981
  371SOL    HW211583   0.018   5.691   3.908 -1.8225  0.6846  0.0552
  372SOL     OW11584   9.864   2.297   0.484  0.2158  0.7392 -0.7677
  372SOL    HW111585   9.843   2.392   0.461 -0.1871  0.4080 -1.7757
  372SOL    HW211586   9.925   2.259   0.416  0.0467  0.1478 -0.5894
  373SOL     OW11587   2.733   5.407   1.341  0.0143 -0.0979 -0.3102
  373SOL    HW111588   2.756   5.355   1.258 -0.4845 -0.7680 -0.0414
  373SOL    HW211589   2.654   5.364   1.385  1.4344 -0.8814  1.5338
  374SOL     OW11590   1.538   9.245   0.454  0.4474 -0.3629 -0.2475
  374SOL    HW111591   1.510   9.166   0.508 -1.0558  0.8548  0.7925
  374SOL    HW211592   1.491   9.244   0.366 -1.0525  0.3643  0.5226
  375SOL     OW11593   0.623   3.117   0.898 -0.2217  0.2226 -0.3278
  375SOL    HW111594   0.595   3.023   0.919  0.7764  0.4072  2.0673
  375SOL    HW211595   0.705   3.116   0.841  1.2063 -0.4343  1.6641
  376SOL     OW11596   0.538   5.523   2.957  0.8982  0.2726 -0.6786
  376SOL    HW111597   0.494   5.435   2.976 -0.7180  1.2553  0.2448
  376SOL    HW211598   0.500   5.560   2.872  0.8168  0.5568 -0.5185
  377SOL     OW11599   3.575   1.239   1.463 -0.3696  0.1035  0.0466
  377SOL    HW111600   3.514   1.171   1.503 -0.3426  0.1050  0.0894
  377SOL    HW211601   3.636   1.275   1.534  1.4521 -1.7743 -0.4927
  378SOL     OW11602   2.351   7.766   3.658 -0.4430  0.1792 -0.0191
  378SOL    HW111603   2.357   7.678   3.706  0.1304  0.9728  1.3910
  378SOL    HW211604   2.260   7.776   3.618 -0.0934 -1.6276 -1.3251
  379SOL     OW11605   3.309   8.014   1.696 -0.1666 -0.0292  0.3397
  379SOL    HW111606   3.221   8.039   1.655  0.6689  1.5625 -0.5287
  379SOL    HW211607   3.382   8.068   1.654  1.3795 -2.1507  0.2517
  380SOL     OW11608   3.833   5.233   1.375  0.2712 -0.4647  0.0169
  380SOL    HW111609   3.785   5.320   1.388  0.0626 -0.3208 -1.5562
  380SOL    HW211610   3.919   5.234   1.424  1.5205  1.6791 -2.1194
  381SOL     OW11611   9.273   8.494   3.248 -0.1241 -0.1692 -0.2038
  381SOL    HW111612   9.284   8.403   3.287 -0.0531 -0.4134 -0.7968
  381SOL    HW211613   9.234   8.487   3.157  0.7829  0.3428 -0.6374
  382SOL     OW11614   2.758   0.321   3.030  0.2737  0.0510  0.0438
  382SOL    HW111615   2.825   0.301   3.101  2.4831 -0.2885 -2.0744
  382SOL    HW211616   2.764   0.417   3.003 -1.5199  0.5387  1.2081
  383SOL     OW11617   8.684   5.968   3.966 -0.0515  0.0363  0.3472
  383SOL    HW111618   8.763   5.970   4.027 -0.9179  1.9685  1.4409
  383SOL    HW211619   8.712   5.998   3.874  0.3521  1.3002  0.8791
  384SOL     OW11620   2.590   9.985   1.298 -0.2557  0.6058  0.3730
  384SOL    HW111621   2.675   9.988   1.246 -0.6314  0.8251 -0.2329
  384SOL    HW211622   2.522  10.045   1.254 -0.8812  0.0430  0.5705
  385SOL     OW11623   1.515   0.530   0.836  0.0188 -0.0494 -0.2070
  385SOL    HW111624   1.472   0.495   0.753  1.2047 -0.3873 -0.6873
  385SOL    HW211625   1.578   0.604   0.813 -0.4802  0.6016  0.5113
  386SOL     OW11626   2.557   8.131   0.020 -0.1380 -0.2360 -0.1056
  386SOL    HW111627   2.508   8.047  -0.002 -0.5807  0.2372 -0.9512
  386SOL    HW211628   2.634   8.142  -0.044  0.3845 -0.3930  0.4932
  387SOL     OW11629   7.669   1.416   2.377 -0.2945 -0.1788  0.1944
  387SOL    HW111630   7.610   1.450   2.451 -0.3068  0.4153 -0.0843
  387SOL    HW211631   7.723   1.340   2.410 -0.8206 -0.3728  0.6157
  388SOL     OW11632   2.976   5.789   1.887  0.3634 -0.0806  0.8746
  388SOL    HW111633   3.023   5.714   1.933 -0.6612 -1.5860 -0.4537
  388SOL    HW211634   2.915   5.752   1.817 -0.6507  1.9707  0.6253
  389SOL     OW11635   3.460   7.748   2.537 -0.1509 -0.2177  0.1089
  389SOL    HW111636   3.467   7.770   2.440  0.3445  0.6233  0.3345
  389SOL    HW211637   3.370   7.708   2.556 -0.7352  0.7999 -0.4632
  390SOL     OW11638   8.021   9.309   0.341  0.2012 -0.0160 -0.2970
  390SOL    HW111639   8.025   9.250   0.421  0.8907 -0.0571 -0.3581
  390SOL    HW211640   8.013   9.404   0.369  1.0263  0.0205 -0.1618
  391SOL     OW11641   3.846   2.796   3.787  0.1218  0.6639  0.7451
  391SOL    HW111642   3.924   2.744   3.752  0.3667  0.9700  0.8464
  391SOL    HW211643   3.876   2.886   3.817  0.1050  0.0053  2.7890
  392SOL     OW11644   9.631   5.824   1.732 -0.3319 -0.1556 -0.1002
  392SOL    HW111645   9.598   5.810   1.639 -1.6981  2.2476 -0.0009
  392SOL    HW211646   9.662   5.918   1.743  0.3928 -0.5777  1.7303
  393SOL     OW11647   0.348   5.415   2.191 -0.4301 -0.4034 -0.3018
  393SOL    HW111648   0.393   5.407   2.280  0.7236 -0.7056 -0.9032
  393SOL    HW211649   0.318   5.509   2.177  0.4696 -0.0778 -0.0920
  394SOL     OW11650   2.163   2.855   2.257 -0.2059  0.2116 -0.4274
  394SOL    HW111651   2.179   2.757   2.251  1.0259  0.3637  0.2217
  394SOL    HW211652   2.190   2.898   2.171 -0.1501  0.0672 -0.4821
  395SOL     OW11653   7.805   4.134   3.809  0.1968 -0.2172  0.6473
  395SOL    HW111654   7.786   4.036   3.794  0.1581 -0.3451  1.5358
  395SOL    HW211655   7.857   4.169   3.731 -3.1660  0.0191 -1.6079
  396SOL     OW11656   6.455   7.800   1.664 -0.6081  0.3461  0.0965
  396SOL    HW111657   6.424   7.754   1.747 -0.0949 -0.9748 -0.4443
  396SOL    HW211658   6.384   7.794   1.594  0.3258 -1.5908 -0.7215
  397SOL     OW11659   8.996   6.570   2.950 -0.0211 -0.4205  0.4942
  397SOL    HW111660   9.094   6.555   2.950 -0.0844 -0.8295  0.9390
  397SOL    HW211661   8.960   6.563   3.043 -0.3991  0.1947  0.4030
  398SOL     OW11662   3.845   1.174   3.566 -0.2045 -0.5409 -0.4054
  398SOL    HW111663   3.928   1.198   3.615 -0.5734  1.2676 -0.6236
  398SOL    HW211664   3.864   1.098   3.504  1.3167 -0.0719 -0.5361
  399SOL     OW11665   1.943   8.896   0.430  0.6393 -0.0878  0.9144
  399SOL    HW111666   2.039   8.924   0.434  0.4046  1.1054 -0.8523
  399SOL    HW211667   1.922   8.865   0.337 -1.5981  3.2510  0.2150
  400SOL     OW11668   8.678   3.548   2.381 -0.4618 -0.1804  0.5011
  400SOL    HW111669   8.603   3.484   2.399 -1.4725  0.4987 -1.1601
  400SOL    HW211670   8.748   3.539   2.452 -0.1969 -3.7117 -0.1368
  401SOL     OW11671   3.533   2.619   1.312 -0.7376 -0.5951 -0.5790
  401SOL    HW111672   3.628   2.607   1.340 -0.8338 -0.1800 -0.0550
  401SOL    HW211673   3.529   2.643   1.215 -0.1876  1.3250 -0.1444
  402SOL     OW11674   0.806   1.303   3.836 -0.2678  0.2142  0.0337
  402SOL    HW111675   0.864   1.225   3.815 -1.7309 -0.5390 -1.3860
  402SOL    HW211676   0.820   1.374   3.767 -0.9303  0.0703 -0.2554
  403SOL     OW11677   2.161   3.495   1.796  0.4377  0.5361  0.0815
  403SOL    HW111678   2.178   3.432   1.872 -0.5139  0.5628  0.3200
  403SOL    HW211679   2.136   3.585   1.831 -0.2577  0.4796 -0.2611
  404SOL     OW11680   8.373   2.390   0.150  0.4277 -0.0010 -0.4513
  404SOL    HW111681   8.443   2.322   0.131 -1.0539 -2.2133  1.5160
  404SOL    HW211682   8.284   2.344   0.158 -1.1568  2.6301 -2.2867
  405SOL     OW11683   8.330   0.197   2.117 -0.5573  0.6051  0.0185
  405SOL    HW111684   8.427   0.224   2.122 -0.3240 -0.3167  0.5515
  405SOL    HW211685   8.274   0.272   2.153  0.0626  0.5644  1.1007
  406SOL     OW11686   9.958   4.168   0.055 -0.4780 -0.1992 -0.2923
  406SOL    HW111687   9.985   4.163  -0.041 -0.2920  3.7164 -0.5265
  406SOL    HW211688   9.859   4.177   0.062 -0.4798 -0.3426 -0.1078
  407SOL     OW11689   1.158   5.225   0.865 -0.0262  0.2805  0.1195
  407SOL    HW111690   1.241   5.231   0.921 -0.8039  2.8709  1.0746
  407SOL    HW211691   1.176   5.267   0.776 -0.1444  0.3703  0.1374
  408SOL     OW11692   2.374   8.066   0.887  0.3718 -0.4976  0.6552
  408SOL    HW111693   2.394   7.982   0.837  0.4916 -0.7811  1.1738
  408SOL    HW211694   2.286   8.103   0.858  2.4760  1.8798 -3.1835
  409SOL     OW11695   3.187   9.818   1.015 -0.6617 -0.1087  0.0289
  409SOL    HW111696   3.240   9.774   0.943  0.1446 -0.5433  0.8718
  409SOL    HW211697   3.135   9.895   0.977  0.9522  0.6276 -0.7224
  410SOL     OW11698   1.968   3.710   1.508 -0.4209 -0.3305  0.0078
  410SOL    HW111699   1.946   3.613   1.496 -0.7424 -0.1980 -0.4602
  410SOL    HW211700   1.894   3.755   1.558 -0.8279 -0.0680 -0.8264
  411SOL     OW11701   9.617   4.998   1.626 -0.0034 -0.0490  0.6923
  411SOL    HW111702   9.651   5.026   1.536  2.7645 -0.1382  1.6466
  411SOL    HW211703   9.627   5.074   1.690 -0.9052 -0.3463  1.1897
  412SOL     OW11704   2.183   8.581   1.008 -0.1560 -0.1563 -0.0456
  412SOL    HW111705   2.151   8.666   1.048 -0.7067 -0.3232 -0.1185
  412SOL    HW211706   2.213   8.598   0.914 -0.5257 -0.0917 -0.1537
  413SOL     OW11707   0.706   4.193   1.935  0.3238  1.0336  0.0704
  413SOL    HW111708   0.610   4.173   1.913  0.6238 -2.0277  1.2267
  413SOL    HW211709   0.754   4.107   1.954  2.7883  2.6947  1.6322
  414SOL     OW11710   3.847   7.777   2.844 -0.0850  0.0539  0.0250
  414SOL    HW111711   3.879   7.842   2.775 -0.2292  1.0207  0.8706
  414SOL    HW211712   3.822   7.691   2.799 -0.1880  0.6797 -1.1284
  415SOL     OW11713   8.431   5.517   1.445  0.7113 -0.7202  0.1148
  415SOL    HW111714   8.351   5.493   1.390  1.8543 -2.4583 -0.8043
  415SOL    HW211715   8.453   5.614   1.431 -0.1699 -0.6750 -0.9858
  416SOL     OW11716   9.418   2.442   1.768 -0.2115 -0.0132 -0.4699
  416SOL    HW111717   9.373   2.356   1.746 -0.7412  0.0517  0.3339
  416SOL    HW211718   9.382   2.515   1.709 -0.1847 -0.2245 -0.7476
  417SOL     OW11719   7.445   8.324   3.081  0.1269 -0.1335  0.1352
  417SOL    HW111720   7.517   8.263   3.046  0.1473  0.1122 -0.2512
  417SOL    HW211721   7.362   8.271   3.098  1.3396 -1.0273  3.5761
  418SOL     OW11722   8.941   0.928   0.315 -0.1062  0.2272  0.0440
  418SOL    HW111723   9.034   0.934   0.278 -0.2079  1.3100 -0.0530
  418SOL    HW211724   8.882   0.885   0.247  0.1255  0.4087 -0.2767
  419SOL     OW11725   2.291   0.782   2.825 -0.0522  0.2290  0.3637
  419SOL    HW111726   2.290   0.882   2.815  1.9094  0.1132 -1.5670
  419SOL    HW211727   2.199   0.746   2.814 -0.3318  1.5981 -2.2493
  420SOL     OW11728   2.038   2.807   0.266  0.6538 -0.4783 -0.2893
  420SOL    HW111729   2.004   2.899   0.283  0.1197 -0.8114  0.4894
  420SOL    HW211730   2.054   2.794   0.168  0.1452  0.2410 -0.4666
  421SOL     OW11731   9.489   4.842   1.841 -0.0726  0.0395  0.6245
  421SOL    HW111732   9.509   4.901   1.763  0.3741  0.2022  0.8640
  421SOL    HW211733   9.553   4.860   1.915 -0.8307  0.2626  1.2377
  422SOL     OW11734   1.128   6.915   0.590  0.6796 -0.2997  0.3740
  422SOL    HW111735   1.063   6.981   0.552  0.7586 -0.5449 -0.1973
  422SOL    HW211736   1.194   6.963   0.648  0.8049  0.1418 -0.1267
  423SOL     OW11737   9.870   3.843   3.012 -0.3259  0.3307  0.0615
  423SOL    HW111738   9.871   3.743   3.016  0.2462  0.3151 -0.4159
  423SOL    HW211739   9.943   3.880   3.069  0.3240  0.4331 -0.8191
  424SOL     OW11740   0.451   9.196   0.255  0.3754  0.2340  0.2779
  424SOL    HW111741   0.439   9.136   0.334 -2.2612 -0.1166 -0.3536
  424SOL    HW211742   0.427   9.147   0.172 -0.5973  1.7642 -0.3688
  425SOL     OW11743   8.447   9.280   0.024  0.2283  0.0185  0.1743
  425SOL    HW111744   8.456   9.189  -0.018 -0.6225  0.4408 -0.9619
  425SOL    HW211745   8.351   9.295   0.048  0.1044  1.2470 -1.0830
  426SOL     OW11746   6.921   7.698   1.839  0.1478 -0.8271 -0.1254
  426SOL    HW111747   6.837   7.665   1.797  0.2505 -1.2528 -0.0037
  426SOL    HW211748   6.940   7.791   1.808 -0.4308 -0.6880 -0.0544
  427SOL     OW11749   0.099   8.929   1.859  0.0132 -0.2873 -0.9419
  427SOL    HW111750   0.083   9.005   1.922 -1.0300 -0.1460 -1.3513
  427SOL    HW211751   0.191   8.935   1.821  1.3060 -1.4050  1.9266
  428SOL     OW11752   1.618   7.708   3.160 -0.5326 -0.5864 -0.1800
  428SOL    HW111753   1.635   7.617   3.120  1.7277 -1.1373  1.8546
  428SOL    HW211754   1.656   7.778   3.099 -2.0386 -1.0070 -1.6352
  429SOL     OW11755   2.237   1.311   3.778  0.6272 -0.1071 -0.0363
  429SOL    HW111756   2.310   1.248   3.806 -1.2415 -1.8537  1.0348
  429SOL    HW211757   2.192   1.275   3.696 -1.8293 -1.3617  1.7792
  430SOL     OW11758   6.917   0.110   2.137  0.3290 -0.3394 -0.1073
  430SOL    HW111759   6.979   0.054   2.083 -0.0285 -1.2070  0.3667
  430SOL    HW211760   6.969   0.157   2.209  0.7349  0.4842 -0.9358
  431SOL     OW11761   3.453   2.620   3.072 -0.2087  0.1257 -0.3810
  431SOL    HW111762   3.477   2.534   3.027  1.7030 -0.8139  2.2981
  431SOL    HW211763   3.521   2.690   3.048  0.1078 -0.0268  0.0793
  432SOL     OW11764   9.821   3.134   2.570  0.5123  0.0583  0.1672
  432SOL    HW111765   9.758   3.061   2.545 -0.0437  0.8829 -0.8529
  432SOL    HW211766   9.898   3.135   2.506  1.0671 -0.3132  0.8208
  433SOL     OW11767   8.558   6.657   0.272 -0.1362 -0.0362  0.1602
  433SOL    HW111768   8.597   6.703   0.352 -1.4150 -0.1425  0.8532
  433SOL    HW211769   8.471   6.615   0.296 -0.7385  0.2664 -1.3990
  434SOL     OW11770   0.381   0.832   1.791  0.0700 -0.0869 -0.0223
  434SOL    HW111771   0.318   0.759   1.765 -2.1279  1.1596  1.7151
  434SOL    HW211772   0.427   0.866   1.709 -0.7737 -1.6811 -1.1859
  435SOL     OW11773   7.832   8.393   3.940 -0.1505 -0.3586 -0.6040
  435SOL    HW111774   7.800   8.441   3.858  0.0867 -0.7843 -0.9492
  435SOL    HW211775   7.766   8.407   4.014 -0.1036  0.4576 -0.7108
  436SOL     OW11776   4.335   3.281   4.021 -0.5345  0.1996  0.4498
  436SOL    HW111777   4.412   3.324   3.974  0.6810  0.0393  2.2665
  436SOL    HW211778   4.270   3.352   4.049 -0.4849  0.4470 -0.0465
  437SOL     OW11779   5.087   0.840   2.444  0.2832  0.1222 -0.3577
  437SOL    HW111780   5.013   0.773   2.453  1.1903 -0.8683 -0.1914
  437SOL    HW211781   5.147   0.834   2.524  1.5781 -0.3373 -1.3562
  438SOL     OW11782   1.217   2.227   2.073 -0.4954 -0.2695 -0.0022
  438SOL    HW111783   1.162   2.148   2.044 -0.0028 -0.8406  0.6032
  438SOL    HW211784   1.314   2.208   2.055 -0.6124  1.4252 -2.7101
  439SOL     OW11785   3.584   0.763   0.685 -0.4755 -0.7230  0.3453
  439SOL    HW111786   3.643   0.807   0.752  0.9467  1.1691 -2.0896
  439SOL    HW211787   3.504   0.820   0.667 -0.1168 -0.5222 -0.6417
  440SOL     OW11788   4.617   0.427   2.726  0.1616  0.4409  0.2652
  440SOL    HW111789   4.526   0.465   2.737  0.1112  0.0853  1.1927
  440SOL    HW211790   4.669   0.440   2.811  1.1459  1.0892 -0.4268
  441SOL     OW11791   1.582   2.569   2.422 -0.3114  0.2056  0.2412
  441SOL    HW111792   1.671   2.547   2.382  0.5076  0.8529  1.6710
  441SOL    HW211793   1.521   2.604   2.351  0.2352 -1.2083 -0.9418
  442SOL     OW11794   4.043   8.864   2.161  0.0734 -0.4043 -0.0378
  442SOL    HW111795   4.006   8.851   2.069 -1.9015 -1.2336  0.8219
  442SOL    HW211796   4.124   8.807   2.173  1.1667  0.7877 -1.7147
  443SOL     OW11797   3.767   2.583   1.465  0.2113 -0.2991  0.1479
  443SOL    HW111798   3.807   2.663   1.509  1.2956 -0.6326 -0.2083
  443SOL    HW211799   3.726   2.524   1.533  1.7118 -0.7192  0.7190
  444SOL     OW11800   4.077   4.165   2.375  0.4239  0.2276 -0.1055
  444SOL    HW111801   4.046   4.192   2.284  2.0134  0.4162 -0.6133
  444SOL    HW211802   4.054   4.069   2.390 -0.4364  0.3727 -0.4349
  445SOL     OW11803   7.952   9.016   2.795  0.3343  0.5463 -0.3695
  445SOL    HW111804   8.006   9.094   2.764 -0.1945  0.9600 -0.2599
  445SOL    HW211805   7.863   9.018   2.751  0.5536 -0.3616 -0.8590
  446SOL     OW11806   3.425   7.142   3.589  0.4953 -0.6285  0.1770
  446SOL    HW111807   3.364   7.212   3.552 -0.5592 -1.2770  0.6953
  446SOL    HW211808   3.373   7.062   3.616  1.4737 -0.9188  1.2840
  447SOL     OW11809   2.758   4.716   2.140 -0.0692  0.2397  0.3750
  447SOL    HW111810   2.765   4.774   2.221 -4.2849  0.8045  0.4497
  447SOL    HW211811   2.766   4.620   2.168 -0.1228  0.4824  1.2429
  448SOL     OW11812   3.536   7.366   2.697 -0.3232  0.1917  0.4834
  448SOL    HW111813   3.593   7.312   2.759  1.5392  1.9556  0.3782
  448SOL    HW211814   3.521   7.316   2.612  1.8653  0.0675  0.1578
  449SOL     OW11815   1.413   7.661   1.450 -0.4865  0.7682 -0.5971
  449SOL    HW111816   1.487   7.648   1.384  0.5617  2.6981  0.1300
  449SOL    HW211817   1.372   7.573   1.472  2.8926 -0.6605  0.4096
  450SOL     OW11818   8.372   3.777   1.095 -0.5447  0.1142  0.1021
  450SOL    HW111819   8.284   3.795   1.051 -0.8052 -1.3619 -0.0281
  450SOL    HW211820   8.367   3.689   1.142  0.0830  1.1786  2.1759
  451SOL     OW11821   8.669   5.733   3.300 -0.3563 -0.8335 -0.3113
  451SOL    HW111822   8.758   5.778   3.290 -0.5001 -0.8097 -1.7113
  451SOL    HW211823   8.656   5.705   3.394  0.9537 -0.4485 -0.0009
  452SOL     OW11824   0.454   4.085   0.829 -0.0327  0.2054  0.1204
  452SOL    HW111825   0.494   3.995   0.811 -3.1263 -0.9166 -1.5669
  452SOL    HW211826   0.463   4.142   0.748  0.4385  0.8645  0.6287
  453SOL     OW11827   8.371   0.800   1.080 -0.8222 -0.5310  0.6269
  453SOL    HW111828   8.367   0.874   1.013  1.0871 -0.9904 -0.0234
  453SOL    HW211829   8.316   0.723   1.048 -1.1893 -0.1511  0.3447
  454SOL     OW11830   9.923   0.964   3.913 -0.2048  0.4480 -0.0504
  454SOL    HW111831   9.880   0.898   3.975 -1.0839  0.8384 -0.2352
  454SOL    HW211832   9.853   1.020   3.871  0.4870  0.9920 -0.4873
  455SOL     OW11833   6.332   9.320   1.268  0.4177 -0.2415  0.2452
  455SOL    HW111834   6.355   9.267   1.350 -0.9659  2.6962  2.6271
  455SOL    HW211835   6.415   9.344   1.219  1.4636 -0.0941  2.0580
  456SOL     OW11836   9.474   0.361   1.117  0.2515  0.4509  0.1922
  456SOL    HW111837   9.499   0.293   1.186 -0.5693  0.7262  0.7691
  456SOL    HW211838   9.537   0.439   1.122  0.5568  0.2021  0.2240
  457SOL     OW11839   3.452   0.626   2.433  0.3100  0.1545 -0.7279
  457SOL    HW111840   3.479   0.536   2.400 -1.0740 -0.5996  0.1423
  457SOL    HW211841   3.508   0.651   2.512 -0.6410 -0.8618  0.2997
  458SOL     OW11842   3.056   7.668   3.947 -0.2465 -0.0345 -0.0883
  458SOL    HW111843   3.070   7.703   3.854 -0.7793  1.3120  0.3176
  458SOL    HW211844   3.139   7.684   4.001 -0.6253  1.0080  0.2067
  459SOL     OW11845   8.631   1.484   2.133  0.6358  0.4310 -0.1397
  459SOL    HW111846   8.655   1.417   2.203  0.8141 -1.0175 -1.5588
  459SOL    HW211847   8.566   1.550   2.171 -0.6920 -1.4010  0.8679
  460SOL     OW11848   4.746   1.998   1.876 -0.2486 -0.3399  0.1140
  460SOL    HW111849   4.710   2.024   1.786 -0.4365 -1.9824 -0.3180
  460SOL    HW211850   4.800   2.073   1.914 -1.3623  0.9110 -0.7251
  461SOL     OW11851   1.404   5.097   1.470  0.3284  0.1846 -0.0759
  461SOL    HW111852   1.444   5.166   1.530 -2.0316  0.8721  0.7963
  461SOL    HW211853   1.387   5.137   1.380 -1.5933  1.0010  0.6035
  462SOL     OW11854   2.592   1.813   0.084 -0.1217 -0.1745 -0.1104
  462SOL    HW111855   2.671   1.811   0.146 -0.7961 -0.0973  0.7656
  462SOL    HW211856   2.608   1.750   0.008  0.6365 -0.4195  0.2480
  463SOL     OW11857   3.486   2.087   0.409  0.1185 -0.0293  0.6616
  463SOL    HW111858   3.560   2.136   0.364 -0.0568 -0.2837  0.0905
  463SOL    HW211859   3.524   2.026   0.479  0.6322 -1.6457 -0.9823
  464SOL     OW11860   9.907   1.243   0.345 -0.3275 -0.4227  0.1996
  464SOL    HW111861   9.821   1.294   0.345 -0.8868 -1.3628  1.4826
  464SOL    HW211862   9.889   1.147   0.326  0.3599 -0.7744  1.3230
  465SOL     OW11863   3.211   1.972   1.077 -0.4061  0.0554  0.8329
  465SOL    HW111864   3.125   1.990   1.124 -1.0783  0.7755 -0.6327
  465SOL    HW211865   3.210   2.017   0.987  2.2774  1.7216  1.5767
  466SOL     OW11866   4.697   4.003   1.304  0.2273 -0.3727 -0.3096
  466SOL    HW111867   4.654   3.960   1.224  0.6354  0.0120 -0.7411
  466SOL    HW211868   4.795   4.013   1.287  0.5883 -1.7587  0.8977
  467SOL     OW11869   0.505   8.941   3.341  0.1495  0.6702  0.2981
  467SOL    HW111870   0.426   8.892   3.306  0.0352 -0.6768  2.3795
  467SOL    HW211871   0.514   9.028   3.292 -0.9885 -0.3667 -1.8296
  468SOL     OW11872   0.657   0.443   1.795 -0.0204  0.7951 -0.1949
  468SOL    HW111873   0.616   0.352   1.806  1.6461 -0.1137 -1.1067
  468SOL    HW211874   0.623   0.504   1.866 -0.8807 -0.6624  0.6791
  469SOL     OW11875   8.308   1.005   1.936  0.1866 -0.3636  0.6746
  469SOL    HW111876   8.223   1.037   1.894 -0.0586 -1.4308  0.3319
  469SOL    HW211877   8.386   1.032   1.879 -0.1136 -1.4227 -0.2511
  470SOL     OW11878   2.875   7.190   1.926  0.7285  0.3656 -0.4143
  470SOL    HW111879   2.958   7.180   1.872 -0.9121  1.2148 -3.2032
  470SOL    HW211880   2.853   7.287   1.935  0.1020  0.1556  0.3661
  471SOL     OW11881   2.940   0.850   2.930  0.2208 -1.1741 -0.6027
  471SOL    HW111882   2.881   0.925   2.961 -0.1104 -1.9754  0.7409
  471SOL    HW211883   2.930   0.839   2.831 -0.2368  0.1096 -0.7115
  472SOL     OW11884   1.977   9.870   3.017 -0.2920  0.0595  0.2081
  472SOL    HW111885   1.906   9.875   3.088  1.2141 -0.6644  1.8010
  472SOL    HW211886   2.008   9.776   3.007  0.3211  0.3426 -0.6055
  473SOL     OW11887   1.467   9.521   3.788 -0.1977  0.4352 -0.6194
  473SOL    HW111888   1.564   9.541   3.804 -0.3036  1.3453 -1.0758
  473SOL    HW211889   1.428   9.479   3.870  1.4077 -3.1707 -1.6157
  474SOL     OW11890   2.092   7.867   0.799  0.2784  0.2687 -0.3274
  474SOL    HW111891   2.183   7.847   0.764  0.5215  1.4983 -0.4122
  474SOL    HW211892   2.099   7.905   0.892 -0.1139  0.9231 -0.5662
  475SOL     OW11893   3.143   0.379   3.804 -0.4730  0.2654  0.0521
  475SOL    HW111894   3.167   0.388   3.901 -0.4475  1.9568 -0.0932
  475SOL    HW211895   3.129   0.470   3.765 -0.5504 -0.4110 -1.5254
  476SOL     OW11896   0.779   8.238   4.020  0.1399  0.1915  0.2492
  476SOL    HW111897   0.807   8.257   3.926 -0.4393  0.4482  0.1248
  476SOL    HW211898   0.721   8.312   4.053  0.3087  0.0793  0.7934
  477SOL     OW11899   1.970   6.079   2.677 -0.2084 -0.3505 -0.4582
  477SOL    HW111900   2.021   6.134   2.610 -0.6437  1.8531  0.9508
  477SOL    HW211901   1.885   6.047   2.636  0.8937 -1.5719 -1.8878
  478SOL     OW11902   9.169   6.434   2.068 -0.7038  0.3439  0.7370
  478SOL    HW111903   9.194   6.402   1.976 -3.0668  1.5629 -0.3854
  478SOL    HW211904   9.144   6.356   2.125 -0.2261 -0.3419  0.0179
  479SOL     OW11905   7.559   8.877   0.774 -0.7509  0.6140  0.0874
  479SOL    HW111906   7.529   8.875   0.870 -0.0329  0.2236  0.3040
  479SOL    HW211907   7.652   8.842   0.768 -0.2959  1.9575 -0.5791
  480SOL     OW11908   8.977   1.489   3.432  0.1762  0.0482  0.1233
  480SOL    HW111909   8.890   1.505   3.385  1.0041 -0.2379 -1.5323
  480SOL    HW211910   9.034   1.571   3.426  0.7214 -0.3587 -0.3120
  481SOL     OW11911   1.204   5.361   0.632  0.3775 -0.0767 -0.3073
  481SOL    HW111912   1.175   5.282   0.578 -0.9299 -0.0305  0.3081
  481SOL    HW211913   1.206   5.442   0.575  1.5931 -0.5282 -0.9135
  482SOL     OW11914   9.649   5.060   3.929  0.4934  0.5338 -0.0112
  482SOL    HW111915   9.603   5.024   3.848  0.4812  1.1893 -0.3006
  482SOL    HW211916   9.731   5.006   3.948  1.8210  1.8331 -1.8857
  483SOL     OW11917   3.555   5.962   2.375  0.1739  0.4394 -0.5723
  483SOL    HW111918   3.459   5.932   2.368 -0.0283  0.7198  0.7825
  483SOL    HW211919   3.613   5.884   2.395 -0.0980  0.6153  0.9879
  484SOL     OW11920   7.496   2.978   4.025 -0.7685 -0.2210 -0.0338
  484SOL    HW111921   7.427   3.014   4.087 -0.2730 -0.1353  0.4695
  484SOL    HW211922   7.585   3.018   4.046 -0.5401 -0.4155 -0.6047
  485SOL     OW11923   4.039   0.128   1.679  0.0817  0.6663 -0.6606
  485SOL    HW111924   4.066   0.199   1.744 -0.2211  1.5404 -1.4789
  485SOL    HW211925   4.042   0.039   1.725 -0.9039  1.3482  0.7742
  486SOL     OW11926   8.488   4.062   0.135 -0.9571 -0.2826 -0.0232
  486SOL    HW111927   8.530   4.000   0.201  1.0038 -0.6708 -1.5678
  486SOL    HW211928   8.464   4.148   0.180  2.6892  0.4376  0.7357
  487SOL     OW11929   7.834   9.115   3.506 -0.3580 -0.3337  0.3803
  487SOL    HW111930   7.902   9.044   3.487 -0.4445 -0.4280  0.4255
  487SOL    HW211931   7.743   9.074   3.508 -0.3600 -0.3023  0.8955
  488SOL     OW11932   3.950   6.801   1.882  0.3804 -0.4402 -0.3242
  488SOL    HW111933   3.878   6.737   1.909  1.3611 -0.9319  1.2232
  488SOL    HW211934   3.909   6.887   1.853 -0.8593 -0.9940 -0.2480
  489SOL     OW11935   5.227   2.264   1.362  0.1004  0.5022  0.8046
  489SOL    HW111936   5.231   2.295   1.457 -1.1285 -0.0468  1.0451
  489SOL    HW211937   5.295   2.192   1.348 -0.5875 -0.3195  1.6172
  490SOL     OW11938   3.205   5.471   3.055 -0.2702 -0.2181 -0.3019
  490SOL    HW111939   3.290   5.510   3.089 -1.0326 -0.7939  2.4630
  490SOL    HW211940   3.215   5.373   3.043 -0.4611 -0.2424 -0.2700
  491SOL     OW11941   2.291   1.174   1.747  0.0749 -0.5032 -0.1182
  491SOL    HW111942   2.372   1.217   1.707 -0.4240  0.3552 -0.2101
  491SOL    HW211943   2.318   1.092   1.797  1.0269 -0.0844  0.0529
  492SOL     OW11944   0.134   5.095   0.289  0.5211  0.2139 -0.1307
  492SOL    HW111945   0.156   5.038   0.368 -0.4646 -0.5887 -0.4163
  492SOL    HW211946   0.140   5.191   0.314 -0.8878 -0.0316  1.2433
  493SOL     OW11947   0.208   2.665   0.181  0.6245  0.9016 -0.3349
  493SOL    HW111948   0.147   2.674   0.259  0.1156  1.5324 -0.7991
  493SOL    HW211949   0.295   2.626   0.211 -0.0763 -0.2147  0.2885
  494SOL     OW11950   9.864   2.132   4.038  0.2886 -0.0876  0.4986
  494SOL    HW111951   9.885   2.229   4.048 -1.4357  0.3807 -0.2955
  494SOL    HW211952   9.949   2.080   4.031  1.2162  1.3957  0.5833
  495SOL     OW11953   2.998   5.128   0.994 -0.4819  1.5719 -0.2485
  495SOL    HW111954   3.043   5.121   0.905 -2.4030 -2.9311 -1.0107
  495SOL    HW211955   3.065   5.119   1.067  0.4462 -0.4886 -1.3302
  496SOL     OW11956   2.272   8.676   3.541  0.4789 -0.5702  0.3443
  496SOL    HW111957   2.244   8.633   3.627  0.1213 -1.9743 -0.4514
  496SOL    HW211958   2.196   8.672   3.476  0.0687  2.2416  0.5849
  497SOL     OW11959   0.842   0.905   1.854  0.1204  0.6420  0.1191
  497SOL    HW111960   0.822   0.874   1.761  1.6597  0.1561 -0.0616
  497SOL    HW211961   0.837   1.004   1.858 -2.1674  0.5606  0.0639
  498SOL     OW11962   1.935   3.048   0.231 -0.0455 -0.2138  0.0417
  498SOL    HW111963   1.941   3.144   0.258  1.2875 -0.3838  0.3752
  498SOL    HW211964   1.876   3.040   0.151 -0.3214  0.8609  0.1262
  499SOL     OW11965   2.986   5.503   3.230  0.0593  0.0080 -0.2049
  499SOL    HW111966   2.942   5.421   3.267  0.2424 -0.7225 -1.5814
  499SOL    HW211967   3.082   5.483   3.211 -0.1201  0.2496 -1.4084
  500SOL     OW11968   7.754   8.938   3.843 -0.0931 -0.5505 -0.3559
  500SOL    HW111969   7.664   8.961   3.806  1.1654  3.1735 -1.2739
  500SOL    HW211970   7.808   8.891   3.773  0.2024  1.1503 -1.2786
  501SOL     OW11971   3.569   9.991   3.403  0.1973 -0.3343 -0.4806
  501SOL    HW111972   3.606   9.979   3.495 -1.5770  0.9643  0.4328
  501SOL    HW211973   3.558  10.089   3.385 -3.6491 -0.6713 -0.3401
  502SOL     OW11974   9.976   0.420   1.220  0.7080 -0.3664 -0.3010
  502SOL    HW111975  10.023   0.365   1.150  1.4100  0.5618 -0.5648
  502SOL    HW211976   9.993   0.381   1.310 -0.0408 -1.4616 -0.6211
  503SOL     OW11977   0.788   3.912   1.178 -0.3507  0.0135 -0.1427
  503SOL    HW111978   0.691   3.903   1.199 -0.3416  0.3506  0.0497
  503SOL    HW211979   0.832   3.969   1.248 -0.3594  1.3064 -1.1820
  504SOL     OW11980   0.277   7.540   2.839 -0.1048  0.3641  0.5482
  504SOL    HW111981   0.216   7.522   2.917 -0.2904  1.2885  0.6280
  504SOL    HW211982   0.222   7.564   2.759  0.1708  2.5554  0.9757
  505SOL     OW11983   5.677   7.992   2.645  0.5737  0.4115  0.3174
  505SOL    HW111984   5.754   7.934   2.669  1.6706  1.5405 -0.4054
  505SOL    HW211985   5.599   7.935   2.619  0.9368 -0.7462  1.7116
  506SOL     OW11986   0.946   2.369   2.480  0.0515 -0.6623  0.3427
  506SOL    HW111987   1.012   2.315   2.428  0.4422 -0.3686  0.5297
  506SOL    HW211988   0.866   2.388   2.423 -0.4863 -2.2013  0.5730
  507SOL     OW11989   7.770   3.061   0.094  0.3676  0.1723  0.6854
  507SOL    HW111990   7.775   3.021   0.186  1.5603  0.2070  0.6454
  507SOL    HW211991   7.839   3.019   0.036 -1.8363 -1.4558 -0.8581
  508SOL     OW11992   2.934   0.672   1.591  0.1908 -0.5148 -0.1804
  508SOL    HW111993   2.900   0.594   1.538 -0.2976 -0.2820 -0.2159
  508SOL    HW211994   3.018   0.705   1.550 -0.1325 -0.3945 -0.7612
  509SOL     OW11995   3.803   1.644   0.028  0.0330  0.2782  0.6058
  509SOL    HW111996   3.864   1.657   0.106 -1.0915  0.2564  1.4938
  509SOL    HW211997   3.721   1.596   0.058  0.0673 -0.6888 -0.8079
  510SOL     OW11998   1.219   7.231   0.722 -0.4453  0.0070  0.2369
  510SOL    HW111999   1.232   7.257   0.817 -1.5521 -1.6368  0.8466
  510SOL    HW212000   1.160   7.298   0.677  2.1761  2.2435 -0.0400
  511SOL     OW12001   3.683   9.248   1.114  0.4764  0.0298  0.1167
  511SOL    HW112002   3.607   9.186   1.135  1.5863 -1.1525  0.6804
  511SOL    HW212003   3.689   9.260   1.015 -1.6464  1.6791  0.1460
  512SOL     OW12004   9.647   8.012   2.992 -0.6875  0.5421 -0.4337
  512SOL    HW112005   9.621   8.104   3.022  0.5795 -0.2308  3.2269
  512SOL    HW212006   9.733   7.985   3.035 -2.0269 -3.1231  0.2005
  513SOL     OW12007   0.164   9.803   0.540 -0.1939 -0.1260 -0.0026
  513SOL    HW112008   0.080   9.843   0.576 -1.2469 -0.1040 -2.4413
  513SOL    HW212009   0.147   9.762   0.450  1.9984 -1.6783  0.2325
  514SOL     OW12010   4.781   8.748   3.075 -0.3110  0.1681  0.1628
  514SOL    HW112011   4.810   8.793   3.159  1.0565 -1.3385  0.5219
  514SOL    HW212012   4.855   8.754   3.007  0.0341 -1.8165  0.3379
  515SOL     OW12013   4.452   7.734   1.937  0.1304  0.2467 -0.3422
  515SOL    HW112014   4.534   7.686   1.969 -0.5108 -0.9637 -0.4868
  515SOL    HW212015   4.384   7.667   1.907 -1.2360  1.2224  0.5603
  516SOL     OW12016   9.510   0.299   2.399 -0.1671 -0.6187 -0.1394
  516SOL    HW112017   9.440   0.319   2.468  0.1434  0.9557 -0.2533
  516SOL    HW212018   9.494   0.355   2.318 -0.0720 -1.8943 -1.0378
  517SOL     OW12019   1.082   7.902   3.413  0.0646  0.4590 -0.5714
  517SOL    HW112020   1.178   7.885   3.436 -0.3346  1.6532  2.1769
  517SOL    HW212021   1.026   7.824   3.442  0.1050  0.0435 -1.5868
  518SOL     OW12022   0.397   4.094   1.939  0.3187 -0.3374  0.6478
  518SOL    HW112023   0.357   4.006   1.966 -0.3442 -0.1394  0.3455
  518SOL    HW212024   0.380   4.161   2.010 -0.0187 -0.2170  0.4558
  519SOL     OW12025   3.759   0.871   3.335  0.3163  0.1437  0.5024
  519SOL    HW112026   3.836   0.928   3.308  0.1022 -0.3732 -1.2049
  519SOL    HW212027   3.767   0.781   3.292 -1.8962  0.4994 -0.6918
  520SOL     OW12028   1.601   0.802   4.025  0.0536 -0.2907  0.3984
  520SOL    HW112029   1.506   0.834   4.035  0.9399  3.1270 -1.2479
  520SOL    HW212030   1.606   0.734   3.952 -1.0162  0.1470 -0.0917
  521SOL     OW12031   0.582   5.950   2.860  0.0520  0.5697  0.0154
  521SOL    HW112032   0.617   6.041   2.879  0.3434  0.7616 -1.4047
  521SOL    HW212033   0.611   5.887   2.932 -1.1703  1.8278  1.6502
  522SOL     OW12034   4.295   8.465   1.525  0.1521  0.2262  0.1788
  522SOL    HW112035   4.381   8.452   1.477 -0.4450  1.8201 -1.3489
  522SOL    HW212036   4.227   8.401   1.490  0.8797 -1.5682  1.9171
  523SOL     OW12037   4.381   1.310   2.496 -0.0719 -0.6139 -0.0292
  523SOL    HW112038   4.425   1.230   2.537 -2.4392 -1.0813  1.7006
  523SOL    HW212039   4.323   1.281   2.420  0.6887 -0.2825 -0.7435
  524SOL     OW12040   1.568   6.686   3.147 -0.5214 -0.2481 -0.7708
  524SOL    HW112041   1.607   6.610   3.200 -1.5668  0.0483  0.4484
  524SOL    HW212042   1.551   6.655   3.053 -0.0721 -1.2414 -0.5384
  525SOL     OW12043   5.553   8.925   1.307  0.3293 -0.0664  0.0455
  525SOL    HW112044   5.621   8.875   1.254  0.8244 -0.1419  0.7464
  525SOL    HW212045   5.496   8.979   1.245  0.7543 -0.3229 -0.5803
  526SOL     OW12046   4.593   6.761   2.697  0.2960  0.0925 -0.3147
  526SOL    HW112047   4.642   6.840   2.733 -0.2153  0.7441 -1.0218
  526SOL    HW212048   4.530   6.726   2.766  0.2843  0.5159 -0.1098
  527SOL     OW12049   9.523   8.193   0.595  0.7524  0.4489 -0.6895
  527SOL    HW112050   9.449   8.253   0.561  0.9292  0.5239 -0.9463
  527SOL    HW212051   9.499   8.098   0.578  0.2029  0.4180  0.2609
  528SOL     OW12052   9.847   3.475   3.360  1.0159 -0.0386 -0.1410
  528SOL    HW112053   9.840   3.421   3.277 -0.9487 -1.1943  0.7474
  528SOL    HW212054   9.897   3.423   3.430  1.9156  0.5945 -0.2927
  529SOL     OW12055   4.506   7.324   2.488  1.0996 -0.2349 -0.1662
  529SOL    HW112056   4.427   7.332   2.550  0.2699 -0.1206 -1.2302
  529SOL    HW212057   4.495   7.242   2.432  1.1911  0.3803 -1.0844
  530SOL     OW12058   0.693   8.675   2.980  0.1318 -0.0237 -0.2567
  530SOL    HW112059   0.663   8.642   2.891 -0.8348  0.9111 -0.2873
  530SOL    HW212060   0.756   8.752   2.968 -0.8953  0.8414 -0.1181
  531SOL     OW12061   8.960   1.690   1.246 -0.1707 -0.2386 -0.6966
  531SOL    HW112062   8.981   1.781   1.282 -0.5119 -0.5980  0.4112
  531SOL    HW212063   8.877   1.655   1.290  1.4840 -2.2646  0.9360
  532SOL     OW12064   1.481   2.647   0.871 -0.2838 -0.6565 -0.2055
  532SOL    HW112065   1.530   2.565   0.843 -0.4637 -0.7436 -0.2702
  532SOL    HW212066   1.382   2.632   0.859 -0.1960  0.5070 -2.8214
  533SOL     OW12067   2.700   2.305   2.427 -0.2539  0.1737  0.5201
  533SOL    HW112068   2.750   2.390   2.444 -0.0462  0.4069 -1.1647
  533SOL    HW212069   2.744   2.231   2.478  1.1645  0.5867 -0.0678
  534SOL     OW12070   6.852   8.618   1.530  0.6141 -0.3341 -0.4559
  534SOL    HW112071   6.854   8.522   1.556  0.2533 -0.9994 -2.8118
  534SOL    HW212072   6.909   8.632   1.449  2.4251  1.8465  1.0998
  535SOL     OW12073   2.640   4.781   3.354 -0.4665 -0.2622  0.1269
  535SOL    HW112074   2.719   4.748   3.302 -0.6159  1.4505 -1.2044
  535SOL    HW212075   2.646   4.880   3.366 -2.1854 -0.1751  0.3927
  536SOL     OW12076   0.825   5.137   2.730 -0.0358  0.1362  0.0290
  536SOL    HW112077   0.782   5.223   2.703 -0.0961 -0.1818 -0.9087
  536SOL    HW212078   0.919   5.154   2.758  0.5281  0.2659 -1.8971
  537SOL     OW12079   7.668   1.591   3.887 -0.4738  0.1763 -0.3764
  537SOL    HW112080   7.740   1.530   3.917 -1.2380 -1.2738 -1.4141
  537SOL    HW212081   7.615   1.547   3.814 -0.8654  2.1805 -1.3373
  538SOL     OW12082   0.088   6.120   3.418  0.1913 -0.3164 -0.1529
  538SOL    HW112083   0.006   6.171   3.391  0.3480 -0.7265 -1.4394
  538SOL    HW212084   0.085   6.102   3.516 -1.4706 -0.6800 -0.2499
  539SOL     OW12085   1.120   1.654   4.025 -0.4491  0.1749 -0.2444
  539SOL    HW112086   1.076   1.675   3.937 -0.5195  0.1418 -0.2171
  539SOL    HW212087   1.119   1.555   4.039 -2.4772  0.3311  0.8598
  540SOL     OW12088   0.777   6.428   0.342  0.1777  0.0425 -0.1948
  540SOL    HW112089   0.831   6.348   0.317 -0.3506  0.1224 -1.5969
  540SOL    HW212090   0.703   6.442   0.276 -0.7102  0.7639  0.9108
  541SOL     OW12091   8.556   0.331   3.839  0.2397 -0.2314  0.0716
  541SOL    HW112092   8.656   0.323   3.829  0.5536 -0.1765  2.7454
  541SOL    HW212093   8.522   0.257   3.897 -1.2523 -0.1593 -0.6968
  542SOL     OW12094   3.899   8.014   1.156 -0.2785 -0.1283  0.3376
  542SOL    HW112095   3.871   8.096   1.206 -2.2958 -0.2242 -0.5860
  542SOL    HW212096   3.877   7.933   1.210  1.2582 -0.1173  1.0288
  543SOL     OW12097   0.336   1.392   3.525 -0.1288 -0.3571  0.5694
  543SOL    HW112098   0.408   1.455   3.497 -0.7845  0.0495 -0.2287
  543SOL    HW212099   0.349   1.367   3.621  1.7437 -1.2050  0.1219
  544SOL     OW12100   7.287   1.249   2.808  0.1302 -0.8022 -0.1319
  544SOL    HW112101   7.211   1.191   2.839 -0.1600 -0.3945 -0.0776
  544SOL    HW212102   7.312   1.223   2.715  0.7307 -1.7538  0.2894
  545SOL     OW12103   2.077   5.476   1.111 -0.2942 -0.4758 -0.2372
  545SOL    HW112104   2.169   5.454   1.076  0.3738  0.3984  0.9217
  545SOL    HW212105   2.035   5.394   1.149  1.0309 -0.3904  1.4883
  546SOL     OW12106   2.190   6.865   1.064  0.0393  0.3314 -0.4536
  546SOL    HW112107   2.107   6.820   1.098  0.8821 -1.6319 -0.9649
  546SOL    HW212108   2.208   6.835   0.971  0.5224  1.8887 -0.8736
  547SOL     OW12109   1.043   2.740   3.139 -0.1538  0.1495 -0.1221
  547SOL    HW112110   0.973   2.778   3.200  1.1813  2.8945 -0.2211
  547SOL    HW212111   1.004   2.723   3.049 -1.5350 -1.6227  0.7942
  548SOL     OW12112   2.095   2.955   0.841 -0.0562  0.6678 -0.9275
  548SOL    HW112113   2.167   3.023   0.846 -0.0336  0.7664 -2.3902
  548SOL    HW212114   2.017   2.984   0.897  1.2319  0.2914  1.0939
  549SOL     OW12115   3.284   2.047   0.224  0.2228 -0.7083  0.2660
  549SOL    HW112116   3.252   2.123   0.166 -2.8795 -0.9458  1.5800
  549SOL    HW212117   3.367   2.075   0.272 -1.2648  2.1825  1.2823
  550SOL     OW12118   0.558   0.417   2.904 -0.0895 -0.6849  0.0113
  550SOL    HW112119   0.543   0.474   2.985 -0.8209 -1.0704  0.1507
  550SOL    HW212120   0.640   0.362   2.917  0.6784  0.3875 -0.1567
  551SOL     OW12121   3.542   3.536   3.187 -0.2360  0.0676  0.2102
  551SOL    HW112122   3.614   3.467   3.198 -0.4635 -0.2189 -0.1144
  551SOL    HW212123   3.548   3.602   3.262  0.1645 -0.1392  0.3611
  552SOL     OW12124   2.674   6.907   0.382  0.1982  0.1363  0.3000
  552SOL    HW112125   2.604   6.925   0.314  0.3493 -0.4061 -0.0037
  552SOL    HW212126   2.762   6.893   0.336  0.0467 -1.5459  0.5060
  553SOL     OW12127   0.757   7.957   2.194  0.0868 -0.0281 -0.2017
  553SOL    HW112128   0.750   7.922   2.287 -2.5037 -0.6845 -0.6031
  553SOL    HW212129   0.787   8.052   2.197  0.8536 -0.3000  1.2585
  554SOL     OW12130   0.850   7.229   0.717  0.6178  0.2634  0.7139
  554SOL    HW112131   0.849   7.150   0.657  1.1435 -1.3998  2.8153
  554SOL    HW212132   0.815   7.309   0.669 -0.0265 -1.2721 -1.4052
  555SOL     OW12133   0.376   9.840   3.029  0.2004 -0.4778 -0.3586
  555SOL    HW112134   0.468   9.806   3.051  0.1167  0.1001  0.8872
  555SOL    HW212135   0.308   9.789   3.082  0.0126  1.0507  0.8883
  556SOL     OW12136   8.307   5.527   2.831  0.1648 -0.0577  0.3085
  556SOL    HW112137   8.294   5.433   2.798 -0.2659 -0.5738  1.9213
  556SOL    HW212138   8.251   5.542   2.912 -1.9883  2.4920 -1.5389
  557SOL     OW12139   2.577   6.227   1.781 -0.3193 -0.0969 -0.1103
  557SOL    HW112140   2.567   6.306   1.842 -0.9964 -0.4422  0.2333
  557SOL    HW212141   2.569   6.257   1.686 -0.1611  0.3073  0.0036
  558SOL     OW12142   9.148   9.793   4.013  0.4900  0.1167 -0.2628
  558SOL    HW112143   9.125   9.823   4.106 -1.7484 -1.0637 -0.4234
  558SOL    HW212144   9.189   9.702   4.016 -1.6212 -0.8742 -0.5888
  559SOL     OW12145   1.419   5.154   3.748 -0.4754  0.0551 -0.1761
  559SOL    HW112146   1.432   5.139   3.650  2.0714  1.6953 -0.1168
  559SOL    HW212147   1.425   5.067   3.797  0.7215 -0.4511 -1.2186
  560SOL     OW12148   1.209   0.032   1.335 -0.0126  0.1716  0.8114
  560SOL    HW112149   1.202  -0.030   1.413 -0.3557 -1.4623 -0.4997
  560SOL    HW212150   1.304   0.035   1.304 -0.0887 -0.0910  0.5549
  561SOL     OW12151   7.915   8.449   2.711 -0.2119  0.2436  0.2199
  561SOL    HW112152   7.985   8.398   2.761 -0.7752 -0.0568  0.7087
  561SOL    HW212153   7.847   8.386   2.675  0.5351  0.4012 -1.4970
  562SOL     OW12154   4.015   7.380   0.257  0.7798  0.1892 -0.1428
  562SOL    HW112155   4.047   7.461   0.306  1.4702 -0.1695  0.0089
  562SOL    HW212156   3.954   7.328   0.317 -1.2646  1.6207 -0.9372
  563SOL     OW12157   8.115   2.964   3.017  0.4402  0.6017 -0.0882
  563SOL    HW112158   8.081   3.058   3.018  0.0421  0.4458  1.3127
  563SOL    HW212159   8.049   2.905   2.969  0.3087  0.8860 -0.2585
  564SOL     OW12160   9.561   9.932   3.544  0.6494  0.1047 -0.1469
  564SOL    HW112161   9.461   9.935   3.557  0.5102  0.1224 -1.2216
  564SOL    HW212162   9.595  10.025   3.530  0.4329 -0.1406 -2.5549
  565SOL     OW12163   3.859   7.377   1.310  0.0647  0.4850  0.1871
  565SOL    HW112164   3.800   7.351   1.386  0.1795  1.9743  0.7921
  565SOL    HW212165   3.955   7.376   1.340  0.1600  0.4298 -0.1171
  566SOL     OW12166   8.911   9.503   1.261 -0.2681  0.2612 -0.3125
  566SOL    HW112167   8.909   9.439   1.184 -1.9233  1.1946 -1.0683
  566SOL    HW212168   8.865   9.462   1.340  3.2449 -1.5512  0.9356
  567SOL     OW12169   4.104   2.399   0.125 -0.6847  0.0303  0.0435
  567SOL    HW112170   4.170   2.452   0.177 -0.3853 -0.7992  0.5213
  567SOL    HW212171   4.151   2.324   0.078 -1.1795 -0.1369 -0.1905
  568SOL     OW12172   2.532   4.724   1.407 -0.0699  0.2647 -0.0289
  568SOL    HW112173   2.486   4.807   1.438  1.3927  1.3079 -0.5971
  568SOL    HW212174   2.540   4.660   1.483 -0.0191  1.1975  0.7613
  569SOL     OW12175   1.548   1.899   2.102 -0.0290 -0.2484 -0.6387
  569SOL    HW112176   1.590   1.808   2.112 -0.2630 -0.3747 -0.7928
  569SOL    HW212177   1.522   1.933   2.192 -0.1893 -0.4549 -0.6046
  570SOL     OW12178   0.250   5.297   1.199 -0.0488 -0.3466 -0.6153
  570SOL    HW112179   0.265   5.279   1.102  0.5871  0.9052 -0.7569
  570SOL    HW212180   0.239   5.210   1.248  2.6425 -1.1337 -1.3352
  571SOL     OW12181   9.393   3.820   1.790 -0.3576 -0.4149  0.4447
  571SOL    HW112182   9.409   3.861   1.700 -0.4061  0.4947  0.8426
  571SOL    HW212183   9.300   3.841   1.821 -1.0097 -2.3512 -0.1258
  572SOL     OW12184   6.931   7.517   2.404 -0.4906 -0.4027 -0.2798
  572SOL    HW112185   6.971   7.475   2.323  1.2804  0.5261  0.0997
  572SOL    HW212186   6.838   7.549   2.382 -0.8064 -1.9979 -1.3343
  573SOL     OW12187   1.983   4.020   3.657  0.3207  0.0963 -0.1365
  573SOL    HW112188   1.974   4.028   3.756 -0.5102 -0.0381 -0.1967
  573SOL    HW212189   1.976   4.110   3.615  0.2400  0.1022 -0.1089
  574SOL     OW12190   8.540   4.326   2.084 -0.2146  0.2344 -0.2176
  574SOL    HW112191   8.578   4.374   2.163 -1.9189 -0.1125  0.8604
  574SOL    HW212192   8.543   4.227   2.100 -0.7599  0.1708 -0.4848
  575SOL     OW12193   8.618   4.684   2.051  0.2785  0.0521  0.4219
  575SOL    HW112194   8.557   4.613   2.016  0.8357 -0.7527  1.0492
  575SOL    HW212195   8.586   4.774   2.022 -0.7374 -0.4236  0.0635
  576SOL     OW12196   1.862   3.052   0.931  0.1291  0.6252  0.0563
  576SOL    HW112197   1.821   3.090   0.848  0.6153  1.0086 -0.0095
  576SOL    HW212198   1.808   2.974   0.962 -1.1812  1.7008  0.5025
  577SOL     OW12199   8.600   4.954   2.269 -0.7352 -0.6419  0.3069
  577SOL    HW112200   8.684   4.910   2.240 -0.2795  0.9568 -0.8874
  577SOL    HW212201   8.522   4.898   2.243 -0.0752 -1.7880  0.7856
  578SOL     OW12202   2.400   8.681   1.616 -0.6883  0.4946 -0.2936
  578SOL    HW112203   2.480   8.740   1.613  0.6015 -0.9686  2.9788
  578SOL    HW212204   2.422   8.597   1.665 -3.5830 -0.9948 -1.4150
  579SOL     OW12205   4.144   8.151   3.994 -0.5682 -0.2830 -0.0513
  579SOL    HW112206   4.124   8.053   3.997 -2.2048 -0.0160 -1.0542
  579SOL    HW212207   4.242   8.166   3.988 -0.2721 -1.8387  0.8557
  580SOL     OW12208   1.785   4.614   3.523  0.7433  0.3247  0.1404
  580SOL    HW112209   1.770   4.523   3.562  2.6945 -0.9759 -1.9966
  580SOL    HW212210   1.703   4.670   3.536 -1.0371 -2.2066  0.2151
  581SOL     OW12211   0.762   2.162   1.042 -0.4361 -0.1516  0.3613
  581SOL    HW112212   0.855   2.130   1.024  0.2306  1.7122  0.4059
  581SOL    HW212213   0.697   2.105   0.992  0.7521 -1.2254  0.0225
  582SOL     OW12214   7.940   7.688   2.678 -0.5556 -0.1915 -0.0310
  582SOL    HW112215   7.882   7.705   2.758 -1.6143  1.4967 -1.1159
  582SOL    HW212216   7.955   7.590   2.668 -0.1639 -0.4045  2.3938
  583SOL     OW12217   9.061   5.845   0.502  0.0834 -0.7982 -0.5035
  583SOL    HW112218   8.989   5.804   0.447 -0.8705 -0.2046  0.2920
  583SOL    HW212219   9.021   5.904   0.572  1.3220 -0.7066  0.1522
  584SOL     OW12220   7.298   7.446   2.054  0.2951  0.3145  0.2970
  584SOL    HW112221   7.292   7.438   1.955 -0.2151  1.8748  0.1988
  584SOL    HW212222   7.210   7.420   2.094  0.8390 -1.4063  0.4292
  585SOL     OW12223   4.278   6.999   2.746  0.0454  0.3963 -0.2173
  585SOL    HW112224   4.289   6.907   2.708 -0.3028  0.9106 -1.6284
  585SOL    HW212225   4.189   7.006   2.791 -0.6728  0.5239 -1.6123
  586SOL     OW12226   2.942   3.511   0.481  0.3086  0.5225  0.1460
  586SOL    HW112227   2.865   3.535   0.541  0.3754  1.1581 -0.0162
  586SOL    HW212228   2.928   3.420   0.443  0.1908  0.1740  1.0157
  587SOL     OW12229   3.944   7.982   2.706  0.2173  0.3468  0.2027
  587SOL    HW112230   4.021   7.961   2.646 -0.8115 -1.6223 -0.4593
  587SOL    HW212231   3.974   8.045   2.777  1.9892  1.0355 -1.1034
  588SOL     OW12232   2.382   8.658   2.420  0.2473  0.4594 -0.2151
  588SOL    HW112233   2.412   8.723   2.350 -2.6978  1.6001 -0.4941
  588SOL    HW212234   2.379   8.704   2.508  0.7282 -0.0635  0.0760
  589SOL     OW12235   2.146   8.193   0.830  0.2669 -0.1318 -0.7063
  589SOL    HW112236   2.098   8.280   0.842  1.2173  0.3761 -0.4650
  589SOL    HW212237   2.121   8.131   0.905  1.1207  0.6677  0.2624
  590SOL     OW12238   0.781   9.466   3.185  0.2841  0.0228  0.3413
  590SOL    HW112239   0.746   9.472   3.278  0.8883 -0.4580  0.6074
  590SOL    HW212240   0.870   9.419   3.186  0.2715 -0.0279 -0.4794
  591SOL     OW12241   7.766   0.055   0.279 -0.2053  0.1037  0.5675
  591SOL    HW112242   7.803   0.114   0.207 -2.5865  1.7927  0.6532
  591SOL    HW212243   7.685   0.008   0.244 -0.5187 -0.1876  1.6874
  592SOL     OW12244   2.754   2.870   0.509 -0.3850 -0.5860 -0.1998
  592SOL    HW112245   2.718   2.807   0.440 -0.2182 -0.0717 -0.7625
  592SOL    HW212246   2.771   2.959   0.467  1.2326 -0.7200  0.1298
  593SOL     OW12247   4.759   8.721   0.823  0.1689 -0.0099  0.4222
  593SOL    HW112248   4.837   8.688   0.877  0.5090  1.2671  0.7474
  593SOL    HW212249   4.681   8.737   0.884  0.0438 -0.1033  0.2864
  594SOL     OW12250   4.549   7.957   1.639  0.6158 -0.2603 -0.3375
  594SOL    HW112251   4.602   8.040   1.659 -2.0158  1.1003  1.2937
  594SOL    HW212252   4.611   7.879   1.635  3.0217  1.5829 -0.7416
  595SOL     OW12253   3.274   9.891   1.954 -0.1806  0.3203  0.3963
  595SOL    HW112254   3.349   9.924   1.897  0.1519 -1.8737 -0.4811
  595SOL    HW212255   3.264   9.792   1.942 -2.5664  0.4269  1.2680
  596SOL     OW12256   8.534   9.547   0.877  0.3225 -0.3122 -0.5012
  596SOL    HW112257   8.616   9.492   0.864  3.1182  3.1618  1.5603
  596SOL    HW212258   8.528   9.616   0.805 -0.1101  0.2700  0.0900
  597SOL     OW12259   3.826   7.224   0.798 -0.6770 -0.1497  0.1347
  597SOL    HW112260   3.779   7.142   0.766 -2.7875  1.7891 -1.9234
  597SOL    HW212261   3.880   7.263   0.724 -1.9183  1.8297  0.2369
  598SOL     OW12262   3.018   4.005   1.761  0.8806 -0.2880  0.0710
  598SOL    HW112263   2.991   4.081   1.820  1.9773  0.7916 -0.8148
  598SOL    HW212264   3.042   3.926   1.817 -1.1741 -0.3091  0.9742
  599SOL     OW12265   1.875   3.466   0.998 -0.0178  0.1483  0.6065
  599SOL    HW112266   1.929   3.550   0.995 -1.0194  0.9470  2.8558
  599SOL    HW212267   1.794   3.476   0.940  1.6490 -0.6565 -1.9358
  600SOL     OW12268   7.695   0.328   1.444  0.2442  0.1697  0.2287
  600SOL    HW112269   7.613   0.290   1.485  1.0989 -4.4127 -2.0000
  600SOL    HW212270   7.678   0.351   1.349  0.3951  3.4185  0.9290
  601SOL     OW12271   4.864   2.857   0.870  0.1368  0.3268 -0.1054
  601SOL    HW112272   4.774   2.885   0.837  1.8287  2.7722 -3.0002
  601SOL    HW212273   4.893   2.919   0.943 -0.7347 -0.7939  1.2014
  602SOL     OW12274   7.578   6.992   2.656 -0.0802 -0.0913  0.0131
  602SOL    HW112275   7.580   6.992   2.756  1.0872  0.4077  0.0093
  602SOL    HW212276   7.485   7.012   2.624 -0.8726 -2.1568  0.9724
  603SOL     OW12277   9.999   8.061   2.342 -0.1319  0.4706  0.0416
  603SOL    HW112278   9.950   8.147   2.334  1.5101  1.4369  0.1802
  603SOL    HW212279  10.081   8.063   2.285 -0.8124 -1.5435 -1.0491
  604SOL     OW12280   9.416   5.157   1.079  0.2563  0.3086 -0.0629
  604SOL    HW112281   9.318   5.138   1.078  0.2792  0.0921  1.1586
  604SOL    HW212282   9.431   5.254   1.097  0.2882 -0.0580  2.0704
  605SOL     OW12283   9.833   1.462   2.143  0.0367  0.1080 -0.1298
  605SOL    HW112284   9.802   1.418   2.059 -0.5401  0.8678 -0.3218
  605SOL    HW212285   9.931   1.483   2.135  0.1801 -0.6163 -0.2614
  606SOL     OW12286   7.612   0.058   2.534  0.1157 -0.4918 -1.0234
  606SOL    HW112287   7.574   0.150   2.523  0.6942 -0.1901 -0.5273
  606SOL    HW212288   7.623   0.015   2.445 -1.5883 -0.6681 -1.1681
  607SOL     OW12289   6.798   7.371   2.153  0.6921 -0.0210 -0.4050
  607SOL    HW112290   6.701   7.365   2.127  0.1546  1.9933  0.9818
  607SOL    HW212291   6.853   7.390   2.072 -0.0741 -1.0968 -1.1942
  608SOL     OW12292   1.815   1.830   2.683 -0.4369  0.2842 -0.7850
  608SOL    HW112293   1.847   1.877   2.765 -0.9912 -0.9650  0.1493
  608SOL    HW212294   1.720   1.803   2.695 -0.6969  0.5912 -2.0716
  609SOL     OW12295   8.067   1.428   1.268  0.2433  0.0601 -0.7313
  609SOL    HW112296   8.085   1.365   1.193  1.0625  0.5585 -0.9564
  609SOL    HW212297   8.055   1.376   1.353  0.3803 -0.4302 -1.0103
  610SOL     OW12298   6.157   9.349   2.242  0.6291 -0.6796  0.0569
  610SOL    HW112299   6.231   9.306   2.190  0.4864 -0.7030 -0.1253
  610SOL    HW212300   6.145   9.300   2.329  1.1818 -0.3487  0.3243
  611SOL     OW12301   3.245   6.220   3.803 -0.6537 -0.5380 -0.2267
  611SOL    HW112302   3.196   6.134   3.787 -0.3686 -0.5734 -0.9435
  611SOL    HW212303   3.336   6.200   3.840 -1.4417 -0.4416  1.8028
  612SOL     OW12304   0.531   7.194   3.275 -0.3681 -0.2809 -0.0016
  612SOL    HW112305   0.618   7.244   3.270  0.0419 -0.9947  0.0365
  612SOL    HW212306   0.459   7.249   3.231  0.1639  0.1719 -0.3127
  613SOL     OW12307   1.666   7.901   2.154  0.3725  0.0194 -0.4170
  613SOL    HW112308   1.740   7.933   2.095  0.6723 -0.7952 -0.4794
  613SOL    HW212309   1.668   7.952   2.240  0.0325  1.0989 -1.0399
  614SOL     OW12310   8.447   2.830   2.049 -0.0134  0.3859 -0.5124
  614SOL    HW112311   8.449   2.848   2.147 -1.2657  1.8060 -0.7465
  614SOL    HW212312   8.416   2.736   2.033 -0.3912  0.3471  0.4237
  615SOL     OW12313   8.145   7.741   0.782  0.5981  0.0323  0.1960
  615SOL    HW112314   8.055   7.758   0.823 -0.1412  0.0577 -1.4078
  615SOL    HW212315   8.211   7.807   0.818 -0.1941  0.4941  0.8175
  616SOL     OW12316   9.421   2.540   0.039  0.5826  0.3341 -0.3411
  616SOL    HW112317   9.475   2.625   0.035  0.7088  0.4401  2.5077
  616SOL    HW212318   9.465   2.476   0.101 -0.6421 -1.0175 -0.8489
  617SOL     OW12319   9.372   1.118   1.084 -0.5891 -0.2367 -0.0299
  617SOL    HW112320   9.418   1.192   1.134 -1.1350 -1.1847  1.9594
  617SOL    HW212321   9.419   1.032   1.103 -0.8914 -0.6281 -1.0675
  618SOL     OW12322   2.209   6.144   1.309 -0.0597 -0.1960  0.8493
  618SOL    HW112323   2.124   6.195   1.323  0.0957  0.5086 -0.7536
  618SOL    HW212324   2.188   6.047   1.292 -0.5630  0.0327  0.1492
  619SOL     OW12325   0.673   0.968   2.793 -0.2931 -0.0425  0.9356
  619SOL    HW112326   0.733   0.893   2.763 -1.5251 -0.7210  0.1156
  619SOL    HW212327   0.728   1.037   2.841  0.7229 -1.9246  2.5816
  620SOL     OW12328   8.057   7.751   0.492 -0.0618 -0.0780 -0.4500
  620SOL    HW112329   8.077   7.705   0.405 -1.5182 -1.9491  0.1565
  620SOL    HW212330   8.137   7.745   0.551  0.6630  0.4885 -1.3646
  621SOL     OW12331   0.143   9.831   3.839  0.5276 -0.6373 -0.1868
  621SOL    HW112332   0.082   9.894   3.887  0.5327 -0.9452  0.2293
  621SOL    HW212333   0.224   9.881   3.807  0.4213 -0.3849 -0.0635
  622SOL     OW12334   4.009   1.464   2.494  0.1859  0.5078 -0.5003
  622SOL    HW112335   4.000   1.366   2.513  2.5671  0.3493 -0.0013
  622SOL    HW212336   4.084   1.479   2.430  2.1610  2.2296  2.1177
  623SOL     OW12337   4.297   2.342   2.562  0.5448  0.1779 -0.0201
  623SOL    HW112338   4.352   2.425   2.568  0.7201  0.1297 -0.8381
  623SOL    HW212339   4.214   2.353   2.617  0.9622  0.5761  0.5351
  624SOL     OW12340   3.931   3.214   0.989  0.0424 -0.5045 -0.4257
  624SOL    HW112341   3.840   3.175   0.979  0.4990 -2.0407  0.9813
  624SOL    HW212342   3.996   3.160   0.935  0.6529 -1.6356  1.3937
  625SOL     OW12343   0.803   7.081   0.005  0.0184 -0.2997 -0.3785
  625SOL    HW112344   0.843   7.170  -0.019 -0.3881 -0.1091 -0.3371
  625SOL    HW212345   0.742   7.091   0.083  0.2510 -0.6810 -0.1418
  626SOL     OW12346   4.586   9.131   2.948 -0.0352 -0.0049  0.3713
  626SOL    HW112347   4.554   9.148   3.041 -0.3172  1.1351  0.0738
  626SOL    HW212348   4.636   9.044   2.945  0.3016  0.1356  1.6652
  627SOL     OW12349   0.332   9.187   2.648 -0.2067 -0.4940 -0.4021
  627SOL    HW112350   0.321   9.286   2.654 -1.9233 -0.5943 -1.4528
  627SOL    HW212351   0.264   9.150   2.584  0.2547 -2.3790  0.1716
  628SOL     OW12352   1.211   9.467   1.116  0.9792  0.6742 -0.4075
  628SOL    HW112353   1.307   9.477   1.142  0.5052  1.9174  0.9273
  628SOL    HW212354   1.196   9.376   1.077  2.0180 -0.7379  2.3803
  629SOL     OW12355   9.286   5.636   0.999 -0.2864  0.0400 -0.3012
  629SOL    HW112356   9.312   5.720   0.951 -1.0322 -0.0565 -0.8796
  629SOL    HW212357   9.216   5.588   0.947 -1.0296 -0.1274  0.8192
  630SOL     OW12358   1.071   9.672   1.031 -0.7671 -0.1433  0.5091
  630SOL    HW112359   1.135   9.599   1.055 -0.5485 -0.3668 -0.7458
  630SOL    HW212360   1.011   9.690   1.110  0.8695  0.1142  1.7105
  631SOL     OW12361   5.636   9.119   2.335 -0.5106 -0.1360  0.1960
  631SOL    HW112362   5.616   9.150   2.242  0.9685  0.5404  0.0951
  631SOL    HW212363   5.630   9.196   2.399  1.4717  0.0354  0.1993
  632SOL     OW12364   8.500   6.641   3.302  0.3952 -0.2882 -0.1080
  632SOL    HW112365   8.448   6.565   3.263  0.5491  0.3493 -1.5768
  632SOL    HW212366   8.519   6.622   3.398 -1.5472 -1.0709  0.1586
  633SOL     OW12367   8.885   1.713   0.399 -0.1751  0.0779  0.6443
  633SOL    HW112368   8.842   1.627   0.426 -1.8658  0.0091 -2.0270
  633SOL    HW212369   8.830   1.757   0.328  1.9139  2.1844  0.2435
  634SOL     OW12370   8.180   1.087   0.131  0.0029 -0.0871 -0.2915
  634SOL    HW112371   8.139   1.100   0.221  0.0582  1.4772 -0.4846
  634SOL    HW212372   8.239   1.006   0.133 -0.1478 -0.1756  1.0288
  635SOL     OW12373   2.214   1.457   2.229 -0.1169  0.0782  0.0317
  635SOL    HW112374   2.312   1.452   2.248  0.1377  0.1199 -1.2139
  635SOL    HW212375   2.198   1.510   2.145 -1.2528  0.6215  0.5699
  636SOL     OW12376   7.531   2.695   0.194 -0.2556 -0.6041 -0.0023
  636SOL    HW112377   7.624   2.731   0.190 -1.0569  1.4150 -1.2295
  636SOL    HW212378   7.494   2.687   0.101 -0.8403 -2.7039  0.3774
  637SOL     OW12379   4.985   0.515   1.579  0.6116  0.2378 -1.0735
  637SOL    HW112380   4.916   0.490   1.511  0.2226 -0.0892 -0.5654
  637SOL    HW212381   5.027   0.432   1.616 -0.7133  0.3148  0.6566
  638SOL     OW12382   4.773   8.551   3.726 -0.4405 -0.2111 -0.0946
  638SOL    HW112383   4.796   8.500   3.644 -1.5674  3.1787 -2.6480
  638SOL    HW212384   4.679   8.529   3.754 -0.5734 -0.2663 -0.5838
  639SOL     OW12385   4.493   0.417   0.510  0.7242  0.2104  0.1301
  639SOL    HW112386   4.469   0.361   0.431 -2.2119  0.5172  0.7836
  639SOL    HW212387   4.519   0.358   0.587 -0.2443 -0.1797  0.1533
  640SOL     OW12388   9.373   7.885   3.865 -0.2214  0.6047 -0.0536
  640SOL    HW112389   9.379   7.827   3.783 -0.5096  0.7047 -0.1442
  640SOL    HW212390   9.452   7.947   3.867  0.1660  0.1067  0.1244
  641SOL     OW12391   4.327   2.864   0.987 -0.1610  0.3532 -0.5786
  641SOL    HW112392   4.338   2.861   0.888 -1.2895 -0.0760 -0.7036
  641SOL    HW212393   4.239   2.823   1.012  0.1489  0.3808  0.6065
  642SOL     OW12394   1.877   4.073   2.630  0.0960 -0.2892 -0.0773
  642SOL    HW112395   1.964   4.099   2.589 -0.4440  0.1847 -0.9574
  642SOL    HW212396   1.851   3.982   2.599 -0.5869  0.2987 -1.2596
  643SOL     OW12397   2.744   4.802   1.217  0.2119 -0.7777 -0.0022
  643SOL    HW112398   2.658   4.764   1.249 -1.1393  1.6906 -0.5751
  643SOL    HW212399   2.731   4.844   1.127  2.0417 -0.4886 -0.1561
  644SOL     OW12400   4.559   1.984   2.144 -0.0776  0.0094  0.3074
  644SOL    HW112401   4.464   1.953   2.143 -0.6065  1.5886 -0.0715
  644SOL    HW212402   4.594   1.987   2.051 -0.0047  0.4227  0.3451
  645SOL     OW12403   7.498   1.219   3.080  0.0223 -0.4696  0.3185
  645SOL    HW112404   7.595   1.194   3.082 -0.2554 -1.6837 -0.3234
  645SOL    HW212405   7.488   1.316   3.059  1.0665 -0.7212 -1.4906
  646SOL     OW12406   4.839   0.350   1.406  0.0498 -0.1672  0.9495
  646SOL    HW112407   4.786   0.379   1.327  0.2558 -0.3518  0.7465
  646SOL    HW212408   4.850   0.251   1.406  1.2822 -0.0388  0.4276
  647SOL     OW12409   1.274   0.476   2.665  0.1278 -0.1316 -0.9204
  647SOL    HW112410   1.200   0.509   2.607  0.0089  1.2961  0.0160
  647SOL    HW212411   1.319   0.398   2.621 -0.5956  0.3017 -2.4455
  648SOL     OW12412   8.436   6.106   3.843 -0.4578 -0.7330  0.1775
  648SOL    HW112413   8.412   6.177   3.910 -1.3045 -0.1421 -0.7442
  648SOL    HW212414   8.478   6.029   3.891 -1.4436 -0.5038  1.4533
  649SOL     OW12415   6.347   9.073   0.970 -0.3870  0.5468 -0.4321
  649SOL    HW112416   6.376   9.111   0.882  0.7565 -0.3508 -0.4642
  649SOL    HW212417   6.267   9.122   1.003 -1.1093  0.6018 -2.1852
  650SOL     OW12418   3.890   1.095   3.206 -0.2160 -0.3184 -0.0447
  650SOL    HW112419   3.881   1.189   3.240 -0.2281 -0.0357 -0.8087
  650SOL    HW212420   3.800   1.060   3.181 -0.3079 -0.8196  0.9755
  651SOL     OW12421   2.076   4.609   2.013  0.4197 -0.1750  0.0270
  651SOL    HW112422   2.034   4.584   1.925 -2.0373  0.4617  0.9600
  651SOL    HW212423   2.162   4.657   1.997 -0.1543  0.2057 -2.0686
  652SOL     OW12424   0.469   6.507   1.844 -0.4033 -0.4184 -0.2471
  652SOL    HW112425   0.441   6.470   1.756 -3.9110  1.1269  0.1541
  652SOL    HW212426   0.390   6.545   1.892  2.1236  2.6737  1.7086
  653SOL     OW12427   3.866   7.711   2.489  0.5450 -0.1999  0.2245
  653SOL    HW112428   3.784   7.673   2.532 -0.0863  2.5311  1.5161
  653SOL    HW212429   3.841   7.787   2.430  2.0685  0.1585  0.0053
  654SOL     OW12430   8.192   9.673   0.399  0.4222  0.0191  0.6908
  654SOL    HW112431   8.270   9.618   0.430 -0.7943 -0.2472  3.4068
  654SOL    HW212432   8.109   9.617   0.401 -0.4127  1.2487  1.0876
  655SOL     OW12433   2.478   1.453   2.344 -0.1467  0.1906  0.2194
  655SOL    HW112434   2.479   1.404   2.431  2.7823 -1.0019 -0.4310
  655SOL    HW212435   2.501   1.549   2.359  0.1858  0.0254  0.7781
  656SOL     OW12436   2.075   2.917   3.815  0.1085  0.1563 -0.5514
  656SOL    HW112437   2.055   2.820   3.827 -1.4361  0.4121 -0.9539
  656SOL    HW212438   2.106   2.956   3.902  0.0063 -0.5351 -0.2010
  657SOL     OW12439   3.920   8.198   1.553  0.4142  0.1582  0.1913
  657SOL    HW112440   3.878   8.263   1.617 -0.4384  0.9698 -1.1748
  657SOL    HW212441   3.901   8.105   1.583 -2.1258  0.5040 -0.2045
  658SOL     OW12442   1.425   8.015   3.253 -0.3543  0.3954  0.0219
  658SOL    HW112443   1.336   7.971   3.269  0.0631 -0.6220 -0.3721
  658SOL    HW212444   1.469   8.035   3.341 -0.2752 -0.5662  0.2094
  659SOL     OW12445   1.525   7.097   1.050  0.4481  0.3045  0.5779
  659SOL    HW112446   1.522   7.092   0.950  2.4009 -2.8967  0.5903
  659SOL    HW212447   1.438   7.066   1.088  0.6662 -1.2182 -0.1211
  660SOL     OW12448   3.162   1.747   1.430  0.1643 -0.2780 -0.3615
  660SOL    HW112449   3.074   1.724   1.390  0.0144  1.4992 -1.0844
  660SOL    HW212450   3.149   1.806   1.510  0.7206  0.5543 -0.8732
  661SOL     OW12451   2.866   6.032   1.660  0.7198 -0.2263  0.0662
  661SOL    HW112452   2.789   5.970   1.644  0.3340  0.1473  0.4882
  661SOL    HW212453   2.847   6.089   1.739  0.3782  1.5493 -1.2517
  662SOL     OW12454   2.700   5.343   3.102  0.1586  0.3393  0.4718
  662SOL    HW112455   2.736   5.285   3.175 -0.2130 -0.3809  0.0986
  662SOL    HW212456   2.775   5.392   3.058  0.4938  0.0677  0.7338
  663SOL     OW12457   2.562   4.942   2.471 -0.0490  0.4804  0.5223
  663SOL    HW112458   2.546   5.031   2.429  0.8648 -0.1510 -1.2028
  663SOL    HW212459   2.507   4.872   2.424  0.4493 -0.1234  0.8308
  664SOL     OW12460   2.457   0.154   1.762 -0.7120 -0.5782 -0.5332
  664SOL    HW112461   2.483   0.086   1.693  0.4928  0.2453 -0.8894
  664SOL    HW212462   2.435   0.240   1.717 -2.0970 -0.6649 -0.0652
  665SOL     OW12463   0.118   9.191   2.194  0.8859 -0.1483  0.1279
  665SOL    HW112464   0.115   9.172   2.096 -1.0702  1.2356 -0.0910
  665SOL    HW212465   0.153   9.283   2.210  0.2619  0.0004  0.6739
  666SOL     OW12466   0.508   4.140   1.251 -0.2134 -0.1698 -0.6785
  666SOL    HW112467   0.556   4.093   1.325  0.1250  0.1224 -0.7103
  666SOL    HW212468   0.452   4.075   1.200 -0.3396 -0.3962 -0.2493
  667SOL     OW12469   3.856   3.386   2.697 -0.4098 -0.0956  0.4300
  667SOL    HW112470   3.795   3.457   2.663 -1.5062 -0.9784  0.5388
  667SOL    HW212471   3.853   3.307   2.636  1.5752  0.3324 -0.2465
  668SOL     OW12472   9.659   4.370   0.640 -0.1363  0.2950  0.0417
  668SOL    HW112473   9.572   4.331   0.669 -0.1747  0.6582  0.4135
  668SOL    HW212474   9.683   4.446   0.700  2.0887 -1.9011  2.0610
  669SOL     OW12475   3.136   9.498   0.073 -0.4789 -0.4139 -0.2736
  669SOL    HW112476   3.080   9.479   0.153  2.1677 -0.2904  1.6787
  669SOL    HW212477   3.188   9.583   0.088  0.7553 -0.8927 -1.7243
  670SOL     OW12478   3.487   9.765   2.548 -0.1910  0.8385  0.9572
  670SOL    HW112479   3.402   9.732   2.588 -1.2380  1.3036 -0.8127
  670SOL    HW212480   3.506   9.858   2.579 -0.3257  0.7341  1.3509
  671SOL     OW12481   3.311   4.160   0.749 -0.8654 -0.0420 -0.3647
  671SOL    HW112482   3.345   4.209   0.669  1.8954 -1.8450 -0.3532
  671SOL    HW212483   3.276   4.225   0.817 -0.3390  1.6638 -1.6958
  672SOL     OW12484   0.884   5.196   0.637 -0.0864 -0.2185 -0.7212
  672SOL    HW112485   0.937   5.154   0.710 -1.0947 -0.6024 -0.2117
  672SOL    HW212486   0.807   5.137   0.612 -0.4310  0.4529 -1.2805
  673SOL     OW12487   9.476   7.740   3.638 -0.2770  0.1459  0.0784
  673SOL    HW112488   9.576   7.737   3.645 -0.1892 -0.6636 -1.3138
  673SOL    HW212489   9.447   7.826   3.595 -0.4352  2.1239  3.9073
  674SOL     OW12490   4.419   8.478   2.067 -0.1144 -0.2292 -0.3128
  674SOL    HW112491   4.447   8.566   2.028 -0.9963 -0.5351 -1.7063
  674SOL    HW212492   4.319   8.475   2.071 -0.0390 -0.2541  1.9196
  675SOL     OW12493   9.280   9.929   3.564 -0.4582  0.0094 -0.2793
  675SOL    HW112494   9.194   9.980   3.555 -0.5492 -0.2788 -1.0082
  675SOL    HW212495   9.268   9.855   3.630 -0.9726 -0.4857 -0.9371
  676SOL     OW12496   8.282   8.425   1.769  0.4620  0.2652 -0.3129
  676SOL    HW112497   8.290   8.446   1.671  0.8849  2.6855  0.2105
  676SOL    HW212498   8.346   8.482   1.821 -1.3131  0.6195  1.5672
  677SOL     OW12499   0.553   1.243   0.115  0.0008 -0.3765  0.0344
  677SOL    HW112500   0.647   1.275   0.112 -0.1852  0.0797 -1.7040
  677SOL    HW212501   0.550   1.146   0.138  1.0411 -0.9087 -1.9634
  678SOL     OW12502   2.766   4.774   3.994  0.1958 -0.4361 -0.3707
  678SOL    HW112503   2.847   4.817   3.955  0.4057 -1.1148 -0.7006
  678SOL    HW212504   2.761   4.679   3.963 -0.4618 -0.5387  0.0406
  679SOL     OW12505   0.071   3.810   3.810 -0.1660 -0.4131 -0.2396
  679SOL    HW112506  -0.016   3.800   3.762  0.8172 -2.0815 -1.7108
  679SOL    HW212507   0.114   3.720   3.821  1.4566  0.4098  0.3342
  680SOL     OW12508   8.624   0.653   1.429 -0.1780  0.3517  0.4781
  680SOL    HW112509   8.640   0.675   1.526  0.4773  2.4253 -0.0728
  680SOL    HW212510   8.527   0.669   1.408 -0.2803  0.0853  0.7271
  681SOL     OW12511   9.826   4.702   3.278 -0.2453 -0.3602  0.2693
  681SOL    HW112512   9.787   4.759   3.206 -0.4940 -0.1705  0.5549
  681SOL    HW212513   9.903   4.650   3.240  1.7963  2.2651  0.7024
  682SOL     OW12514   0.572   1.614   0.559  0.5331  0.1643 -0.5714
  682SOL    HW112515   0.480   1.653   0.552  0.5952  0.2044 -1.1546
  682SOL    HW212516   0.573   1.522   0.521  0.1707 -0.8005  1.6621
  683SOL     OW12517   7.996   8.902   0.522 -0.0483 -0.3800  0.1186
  683SOL    HW112518   8.072   8.846   0.555 -0.0273  0.3136  1.2724
  683SOL    HW212519   7.965   8.868   0.433  1.7295 -0.5508 -0.4495
  684SOL     OW12520   2.674   5.937   0.182  0.0304 -0.2255 -0.5967
  684SOL    HW112521   2.646   5.887   0.264 -2.5390  1.0302 -0.6861
  684SOL    HW212522   2.644   5.887   0.101  2.2185 -1.2598 -0.8147
  685SOL     OW12523   5.471   7.277   3.013  0.1937  0.1827 -0.0116
  685SOL    HW112524   5.520   7.260   3.098 -0.7837 -0.2377  0.4726
  685SOL    HW212525   5.373   7.284   3.031 -0.0374 -0.0417 -1.1226
  686SOL     OW12526   3.391   8.856   3.245  0.8370  0.2439 -0.0772
  686SOL    HW112527   3.362   8.950   3.260 -0.6041 -0.0736 -0.7113
  686SOL    HW212528   3.408   8.812   3.333  1.9816  1.2202  0.2031
  687SOL     OW12529   0.653   2.941   1.977 -0.5716  0.0052 -0.3669
  687SOL    HW112530   0.740   2.893   1.987 -1.4584 -1.1093  2.5913
  687SOL    HW212531   0.670   3.035   1.950  1.5394 -0.2124  0.1142
  688SOL     OW12532   9.490   6.822   3.928  0.5094  0.3143  0.2625
  688SOL    HW112533   9.481   6.798   3.831 -1.4860 -0.5672  0.6431
  688SOL    HW212534   9.513   6.741   3.981  0.8716  0.6568  0.6386
  689SOL     OW12535   4.460   3.031   2.816  0.2480  0.0213  0.0742
  689SOL    HW112536   4.508   2.944   2.827  0.6314 -0.0542 -2.0470
  689SOL    HW212537   4.483   3.071   2.727 -1.3173  1.4225  0.2789
  690SOL     OW12538   9.108   4.546   3.707 -0.0125  0.2181  0.3259
  690SOL    HW112539   9.028   4.605   3.705 -0.5692 -0.4595  2.2787
  690SOL    HW212540   9.081   4.451   3.689  0.6244  0.2413 -0.8691
  691SOL     OW12541   8.417   1.743   3.700 -0.6483 -0.2996  0.6556
  691SOL    HW112542   8.491   1.707   3.757  0.2362 -1.5935 -1.2494
  691SOL    HW212543   8.404   1.840   3.720 -1.2479 -0.9858  3.9571
  692SOL     OW12544   1.960   8.324   1.914 -0.2907  0.5632 -0.1860
  692SOL    HW112545   1.892   8.317   1.841 -1.6086 -1.6390  1.1730
  692SOL    HW212546   2.049   8.347   1.875 -1.4547  1.7452 -2.1975
  693SOL     OW12547   8.271   0.263   2.887 -0.3597  0.1228  0.7511
  693SOL    HW112548   8.199   0.199   2.859  0.8152 -0.6800 -0.5067
  693SOL    HW212549   8.230   0.341   2.935 -2.0992 -0.0742 -0.3841
  694SOL     OW12550   8.130   8.181   0.522 -0.0581 -0.0104  1.0958
  694SOL    HW112551   8.095   8.257   0.467 -0.5335  0.5361  2.1348
  694SOL    HW212552   8.135   8.209   0.618  2.2294 -0.4079  1.1380
  695SOL     OW12553   1.666   0.837   0.859  0.3023  0.4243 -0.5509
  695SOL    HW112554   1.683   0.932   0.886 -1.7691  0.6583 -0.0282
  695SOL    HW212555   1.739   0.779   0.896 -0.8069  1.1718  3.0069
  696SOL     OW12556   7.029   9.271   2.437 -0.1839 -0.4882  0.2079
  696SOL    HW112557   7.000   9.304   2.347 -0.8818 -0.8387  0.3010
  696SOL    HW212558   6.989   9.181   2.455  1.4091 -1.2207  0.1226
  697SOL     OW12559   9.073   1.359   1.524 -0.5666  0.1663  0.4756
  697SOL    HW112560   9.069   1.272   1.574 -0.8671  0.0644  0.2757
  697SOL    HW212561   9.013   1.354   1.444 -1.0417  0.7730  0.7979
  698SOL     OW12562   9.292   0.375   2.546  0.2464  0.9337  0.2648
  698SOL    HW112563   9.233   0.348   2.622  1.3258 -0.5162  0.6148
  698SOL    HW212564   9.246   0.354   2.460 -0.5941  1.7249  0.5102
  699SOL     OW12565   9.774   2.575   0.738 -0.1921  0.1290  0.0301
  699SOL    HW112566   9.873   2.564   0.730 -0.3079  0.7876 -2.8475
  699SOL    HW212567   9.755   2.661   0.787  0.6785  0.8874 -0.9256
  700SOL     OW12568   8.029   8.123   3.972  0.0703  0.4156  0.1598
  700SOL    HW112569   8.019   8.141   4.070 -1.9931  1.0318 -0.1397
  700SOL    HW212570   8.014   8.208   3.921  2.9970  0.5159 -0.6127
  701SOL     OW12571   9.623   8.891   0.924  0.2292  0.0781  0.1302
  701SOL    HW112572   9.700   8.856   0.871 -0.9332 -1.1958 -0.7803
  701SOL    HW212573   9.576   8.961   0.870 -2.1464 -2.6129 -1.4865
  702SOL     OW12574   8.970   7.490   0.820  0.4364 -0.8797 -0.5233
  702SOL    HW112575   9.000   7.454   0.731  3.9604 -1.5082  0.8167
  702SOL    HW212576   8.982   7.589   0.821 -1.9928 -0.5400 -1.5629
  703SOL     OW12577   9.861   5.912   2.088 -0.0600 -0.3126  0.3217
  703SOL    HW112578   9.761   5.903   2.091 -0.1839  0.5345 -1.0148
  703SOL    HW212579   9.891   5.972   2.162 -0.6372  0.2084  0.1407
  704SOL     OW12580   8.405   9.863   3.385 -0.3248  0.3262  0.0201
  704SOL    HW112581   8.316   9.892   3.418  0.2187 -0.3843  2.1715
  704SOL    HW212582   8.423   9.769   3.415  0.9187  0.2618 -0.8666
  705SOL     OW12583   4.042   9.421   0.818 -0.0665  0.5193 -0.1770
  705SOL    HW112584   3.972   9.390   0.754  1.0139 -0.2332 -1.0157
  705SOL    HW212585   4.132   9.394   0.784  0.7718  2.8996  0.0334
  706SOL     OW12586   2.451   5.601   3.719  0.1736 -0.1327  0.5559
  706SOL    HW112587   2.507   5.634   3.795  1.6544  1.3528 -1.1320
  706SOL    HW212588   2.360   5.641   3.724  0.0784 -0.4911  1.8505
  707SOL     OW12589   1.561   4.039   0.570 -0.2086 -0.6060  0.1046
  707SOL    HW112590   1.562   4.138   0.554  0.2356 -0.2288  2.2791
  707SOL    HW212591   1.620   3.994   0.503  0.1214  0.6660 -0.4890
  708SOL     OW12592   2.061   7.482   3.066  0.7167  0.7010  0.2963
  708SOL    HW112593   2.138   7.482   3.130  0.6932 -0.7796  0.3458
  708SOL    HW212594   2.000   7.405   3.087 -0.2938  1.3154 -0.3234
  709SOL     OW12595   3.238   8.746   1.284  0.2953 -0.2804 -0.1578
  709SOL    HW112596   3.205   8.824   1.337  1.9109 -0.8431  1.7330
  709SOL    HW212597   3.195   8.663   1.318 -0.7157 -0.3472 -1.5545
  710SOL     OW12598   9.786   8.632   0.872  0.0971 -0.4673 -0.7001
  710SOL    HW112599   9.862   8.580   0.910  0.3998 -0.7941 -1.7488
  710SOL    HW212600   9.720   8.652   0.945  1.1193 -0.2747  0.1817
  711SOL     OW12601   4.993   2.364   1.264 -0.4054  0.4552 -0.3688
  711SOL    HW112602   5.086   2.339   1.294 -0.0899 -0.2664 -1.9093
  711SOL    HW212603   4.991   2.371   1.165 -2.4166 -1.3041 -0.4802
  712SOL     OW12604   4.536   3.440   0.690  0.0653  0.2109  0.2431
  712SOL    HW112605   4.477   3.441   0.609 -0.9193 -1.6896  0.8973
  712SOL    HW212606   4.525   3.525   0.740  0.6776  1.3994 -1.6104
  713SOL     OW12607   1.990   9.838   0.937  0.0201  0.3053  0.5909
  713SOL    HW112608   2.021   9.848   0.843  0.2565 -1.7426  0.4298
  713SOL    HW212609   2.054   9.781   0.988  0.0524  1.6448  2.0867
  714SOL     OW12610   8.507   1.546   0.674 -0.0626 -0.0127 -0.3806
  714SOL    HW112611   8.496   1.559   0.773 -2.1925 -0.0340 -0.5877
  714SOL    HW212612   8.604   1.545   0.651  0.4558  0.0030  1.7111
  715SOL     OW12613   9.721   3.528   2.284 -0.6736 -0.1650  0.1202
  715SOL    HW112614   9.735   3.626   2.270  0.3933 -0.1019  1.5233
  715SOL    HW212615   9.760   3.478   2.207  0.0624  0.4512  0.0860
  716SOL     OW12616   8.958   0.811   3.037 -0.3297 -0.2121 -0.1144
  716SOL    HW112617   8.953   0.726   3.088 -0.2401  0.8898  1.7685
  716SOL    HW212618   8.867   0.850   3.026 -0.3557 -0.4729 -0.8533
  717SOL     OW12619   3.450   4.457   0.153  0.3767 -0.1909 -0.1454
  717SOL    HW112620   3.406   4.390   0.094  0.3447 -0.8914  0.6638
  717SOL    HW212621   3.456   4.421   0.246  1.2475  0.5284  0.0905
  718SOL     OW12622   5.567   8.262   2.558 -0.2013  0.3301 -0.2414
  718SOL    HW112623   5.614   8.183   2.597  0.3244  0.5356 -0.4539
  718SOL    HW212624   5.632   8.335   2.541 -0.3262  0.0783 -1.9211
  719SOL     OW12625   4.788   4.680   1.499 -0.6005  0.2251 -0.2485
  719SOL    HW112626   4.847   4.745   1.451 -2.0875  0.6594 -1.5357
  719SOL    HW212627   4.697   4.720   1.510 -0.8365 -0.6817  1.1534
  720SOL     OW12628   7.922   0.650   0.154  0.4485  0.3237 -0.6243
  720SOL    HW112629   7.947   0.732   0.103 -0.9366  1.2990  0.2235
  720SOL    HW212630   7.967   0.652   0.243  2.8961 -1.3961 -1.7535
  721SOL     OW12631   3.555   7.895   0.535 -0.4728  0.4714  0.3936
  721SOL    HW112632   3.512   7.984   0.517  1.6194  1.5419  0.5892
  721SOL    HW212633   3.508   7.852   0.612 -2.1411  0.9445 -0.3251
  722SOL     OW12634   9.942   8.872   2.384  0.5069 -0.2941 -0.0931
  722SOL    HW112635   9.945   8.773   2.370 -1.6041 -0.3125 -0.5686
  722SOL    HW212636  10.035   8.909   2.382  1.2452 -2.1460 -0.7343
  723SOL     OW12637   2.036   9.011   3.538 -0.4393  0.2158 -0.3205
  723SOL    HW112638   1.999   9.102   3.519  2.7386  1.7581  0.3786
  723SOL    HW212639   1.993   8.974   3.621 -1.4317  1.2868 -0.3412
  724SOL     OW12640   8.276   3.753   1.456  0.1667  0.2659  0.4890
  724SOL    HW112641   8.253   3.798   1.369  0.7477  0.3321  0.3670
  724SOL    HW212642   8.307   3.822   1.522  0.0666  0.1707  0.6362
  725SOL     OW12643   0.119   4.913   1.697  0.3736 -0.4112  0.0695
  725SOL    HW112644   0.141   4.861   1.780 -1.9267  0.6777  1.4290
  725SOL    HW212645   0.178   4.883   1.622  4.4008  0.4047  2.7304
  726SOL     OW12646   0.286   4.348   1.795 -0.0239 -0.0056 -0.5061
  726SOL    HW112647   0.370   4.301   1.820  0.9142  2.2432  0.7701
  726SOL    HW212648   0.240   4.379   1.878 -0.0866  2.1520 -1.3084
  727SOL     OW12649   0.249   0.349   3.891  0.3668 -0.6986  0.0172
  727SOL    HW112650   0.187   0.271   3.901 -1.6460  0.9468  0.7478
  727SOL    HW212651   0.227   0.398   3.807  0.0636  0.4146  0.7443
  728SOL     OW12652   4.092   1.426   1.156 -0.2083  0.5106  0.0831
  728SOL    HW112653   4.183   1.392   1.180  0.3970  0.8105 -1.7542
  728SOL    HW212654   4.090   1.452   1.060 -1.8297  1.8864  0.4667
  729SOL     OW12655   0.373   6.241   0.245 -0.6743  0.6885 -0.1644
  729SOL    HW112656   0.327   6.152   0.245 -0.3153  0.4950 -1.7203
  729SOL    HW212657   0.309   6.312   0.216 -0.6078  0.7474 -0.1671
  730SOL     OW12658   0.151   4.701   1.211 -0.3959  0.2625 -0.1079
  730SOL    HW112659   0.073   4.753   1.178 -0.4822  0.8998  1.0675
  730SOL    HW212660   0.236   4.745   1.182 -0.4552 -1.1889 -2.5604
  731SOL     OW12661   4.669   7.389   1.608 -0.4652 -0.4515  0.3134
  731SOL    HW112662   4.696   7.293   1.602  2.6320  0.2508  1.9961
  731SOL    HW212663   4.617   7.404   1.692  1.2329 -0.2107  1.3477
  732SOL     OW12664   0.408   4.027   3.440  0.1048 -0.5085 -0.5812
  732SOL    HW112665   0.447   4.076   3.518 -0.3326  1.5048 -1.5772
  732SOL    HW212666   0.457   4.053   3.357  0.0711 -2.0419 -1.1019
  733SOL     OW12667   3.019   6.673   0.132 -0.1021 -0.3566 -0.3053
  733SOL    HW112668   3.085   6.612   0.176 -0.2382 -1.5616 -1.7410
  733SOL    HW212669   3.005   6.753   0.190  1.3667 -0.8672  0.8018
  734SOL     OW12670   4.277   9.024   0.197 -0.1651  0.1493  0.0322
  734SOL    HW112671   4.341   9.042   0.272  0.0516 -1.3006  0.2117
  734SOL    HW212672   4.203   9.091   0.200  0.6562  1.0577  0.5988
  735SOL     OW12673   9.430   2.887   1.835  0.0989  0.1970  0.4842
  735SOL    HW112674   9.453   2.821   1.907  0.2382  1.8600  2.0279
  735SOL    HW212675   9.493   2.877   1.759 -0.0551 -1.6203  0.5780
  736SOL     OW12676   9.563   3.794   3.148 -0.6752  0.9372  0.0659
  736SOL    HW112677   9.507   3.763   3.226  1.0609 -0.4574  0.7927
  736SOL    HW212678   9.636   3.853   3.181  2.2037 -2.4515  0.0212
  737SOL     OW12679   2.789   0.938   0.623 -0.1417  1.0502 -0.4477
  737SOL    HW112680   2.762   0.852   0.581 -0.1856  0.7014  0.2930
  737SOL    HW212681   2.862   0.922   0.689 -1.6695  1.2508  1.3335
  738SOL     OW12682   3.994   4.636   3.582 -0.4114 -0.0207 -0.0898
  738SOL    HW112683   4.014   4.690   3.664 -1.0633  0.6841 -0.3840
  738SOL    HW212684   4.068   4.647   3.515 -0.2763  0.0648  0.0734
  739SOL     OW12685   2.557   8.434   0.542  0.1045 -0.1107 -0.4152
  739SOL    HW112686   2.605   8.458   0.458 -1.3608  0.4423 -1.0983
  739SOL    HW212687   2.543   8.335   0.545 -1.1078  0.0181 -1.5093
  740SOL     OW12688   7.223   8.445   2.103  0.3247 -0.4141 -0.3640
  740SOL    HW112689   7.271   8.368   2.061  0.4137  0.5921 -2.1499
  740SOL    HW212690   7.215   8.430   2.201  0.3129 -2.7136 -0.6989
  741SOL     OW12691   6.200   9.055   2.872 -0.1599 -0.1000 -0.4704
  741SOL    HW112692   6.211   9.137   2.816  0.2489 -0.0659 -0.3398
  741SOL    HW212693   6.226   8.975   2.819  1.7445  0.0683  0.1581
  742SOL     OW12694   9.225   7.339   0.641 -0.1377 -0.0640 -0.4997
  742SOL    HW112695   9.289   7.415   0.648 -1.1483  0.6397  1.2909
  742SOL    HW212696   9.148   7.366   0.584 -1.5849  1.0493  1.9391
  743SOL     OW12697   4.617   2.391   1.297 -0.0453 -0.6927  0.1645
  743SOL    HW112698   4.657   2.401   1.206  0.4469  0.6679  0.5217
  743SOL    HW212699   4.688   2.396   1.366 -0.8326  2.5752  0.8478
  744SOL     OW12700   0.213   4.058   2.202 -0.3330 -0.1404 -0.1379
  744SOL    HW112701   0.116   4.068   2.225  0.5348  0.9465  3.3891
  744SOL    HW212702   0.254   4.148   2.187  0.3965 -0.5065 -0.4042
  745SOL     OW12703   3.957   1.876   2.480 -0.2220  0.0866  0.6099
  745SOL    HW112704   3.869   1.916   2.454 -0.2340  1.2724  2.3619
  745SOL    HW212705   4.023   1.949   2.496  1.4062 -0.8131 -1.6526
  746SOL     OW12706   1.493   7.395   1.988 -0.2756 -0.4198 -0.3360
  746SOL    HW112707   1.517   7.401   1.891  1.1609  2.8001  0.1469
  746SOL    HW212708   1.393   7.389   1.997 -0.5327  0.9572 -1.9884
  747SOL     OW12709   0.835   4.857   0.215  0.6816  0.1952  0.1861
  747SOL    HW112710   0.751   4.896   0.178  0.5161 -0.1376  0.2109
  747SOL    HW212711   0.914   4.906   0.178  0.5764 -0.8488 -1.4842
  748SOL     OW12712   1.893   9.070   1.760  0.1554  0.1503 -0.1308
  748SOL    HW112713   1.977   9.076   1.813  0.8168 -2.8836 -0.7140
  748SOL    HW212714   1.825   9.134   1.796  1.8540  0.8408  1.9144
  749SOL     OW12715   1.868   6.062   0.020  0.2406 -0.3606 -0.5223
  749SOL    HW112716   1.915   5.989  -0.030  1.9509  1.1431 -1.1345
  749SOL    HW212717   1.926   6.143   0.025 -2.0424  1.3436 -0.7649
  750SOL     OW12718   7.431   0.582   2.724 -0.0806 -0.0136 -0.1508
  750SOL    HW112719   7.386   0.507   2.773 -0.1792 -0.7674 -1.3694
  750SOL    HW212720   7.364   0.629   2.666 -0.4370  2.1966  1.9531
  751SOL     OW12721   2.532   6.527   3.068  0.5787 -0.1065 -0.1190
  751SOL    HW112722   2.584   6.444   3.089  2.2976  1.5388  2.4985
  751SOL    HW212723   2.543   6.551   2.972  2.1636 -1.4885 -0.2881
  752SOL     OW12724   4.384   8.487   3.575 -0.1293 -0.4342  0.4916
  752SOL    HW112725   4.422   8.580   3.571  1.3477 -1.0040  0.9722
  752SOL    HW212726   4.418   8.434   3.498 -0.7637 -0.6552  0.3635
  753SOL     OW12727   1.450   0.410   0.406  0.0456 -0.0275 -0.0615
  753SOL    HW112728   1.370   0.359   0.440 -0.9237  1.5302  0.0736
  753SOL    HW212729   1.418   0.490   0.355  1.5370  1.4257  1.2651
  754SOL     OW12730   0.664   2.323   2.961 -0.0679 -0.2026 -0.2789
  754SOL    HW112731   0.596   2.383   3.004  1.0252  1.1561 -0.3911
  754SOL    HW212732   0.637   2.304   2.867 -0.4910  0.0057 -0.2021
  755SOL     OW12733   0.001   6.588   0.489 -0.7650 -0.2843  0.2293
  755SOL    HW112734   0.003   6.552   0.396 -0.5747 -0.5883  0.3516
  755SOL    HW212735   0.081   6.645   0.504 -2.2564  2.1625 -0.7487
  756SOL     OW12736   1.235   8.958   0.920  0.3340 -0.1739  0.2211
  756SOL    HW112737   1.146   8.935   0.961 -1.0353 -1.3965 -3.1976
  756SOL    HW212738   1.229   9.047   0.876  1.3912  0.5611  1.5383
  757SOL     OW12739   8.686   2.016   0.136 -0.8154 -0.0406 -0.0994
  757SOL    HW112740   8.760   2.056   0.190 -0.7470 -0.7562  0.3453
  757SOL    HW212741   8.689   1.916   0.143 -1.0377 -0.1241 -1.1332
  758SOL     OW12742   1.372   1.416   1.468 -0.0644 -0.6976 -0.2671
  758SOL    HW112743   1.431   1.335   1.465 -1.9276 -2.1145  0.2440
  758SOL    HW212744   1.408   1.481   1.535  1.6606 -0.9258 -0.9510
  759SOL     OW12745   4.761   1.814   1.135 -0.8392  0.3815 -0.4489
  759SOL    HW112746   4.677   1.796   1.084 -1.0784  2.0699 -0.7040
  759SOL    HW212747   4.757   1.906   1.175  1.7337  1.3290 -2.1998
  760SOL     OW12748   7.101   9.769   1.823  0.4605 -0.5591 -0.0421
  760SOL    HW112749   7.060   9.721   1.746 -0.1325 -1.4748  0.8366
  760SOL    HW212750   7.039   9.768   1.901  1.6041 -0.8149  0.8843
  761SOL     OW12751   3.181   4.452   3.392 -0.2155 -0.1323  0.4714
  761SOL    HW112752   3.083   4.464   3.381 -0.0460  1.2187  0.3221
  761SOL    HW212753   3.204   4.450   3.489 -0.4307 -0.8457  0.5104
  762SOL     OW12754   9.210   9.202   1.296  0.1525 -0.3548 -0.6760
  762SOL    HW112755   9.305   9.180   1.320 -0.3880  1.1060  3.1219
  762SOL    HW212756   9.205   9.298   1.269 -0.2902 -0.3601 -0.6109
  763SOL     OW12757   0.620   8.317   1.648  0.4601 -0.7973 -0.2162
  763SOL    HW112758   0.570   8.340   1.732  0.2773  0.4974 -0.6757
  763SOL    HW212759   0.671   8.232   1.662 -0.4572 -1.1803  0.8408
  764SOL     OW12760   5.119   0.161   2.605  0.3404  0.3072  0.3666
  764SOL    HW112761   5.169   0.210   2.533 -0.1038  0.5405  0.2136
  764SOL    HW212762   5.057   0.224   2.651 -1.9962 -0.6386 -1.4221
  765SOL     OW12763   7.884   6.274   2.799 -0.5687  0.3612  0.0892
  765SOL    HW112764   7.841   6.265   2.709 -1.1147  0.3056  0.3579
  765SOL    HW212765   7.983   6.263   2.789 -0.4709  1.8401 -0.7235
  766SOL     OW12766   4.992   0.236   2.279  0.9475  0.2460  0.2791
  766SOL    HW112767   5.077   0.258   2.327  1.3514  0.2925 -0.4552
  766SOL    HW212768   4.940   0.170   2.333  0.5266  1.6850  1.6806
  767SOL     OW12769   0.182   5.945   1.114  0.3175  0.2182 -0.5563
  767SOL    HW112770   0.175   5.846   1.108  0.9417  0.1067  0.5379
  767SOL    HW212771   0.263   5.976   1.065 -0.3770  0.2801 -1.6838
  768SOL     OW12772   1.177   0.222   2.865 -0.1397  0.1580  0.1851
  768SOL    HW112773   1.270   0.238   2.897 -0.0599  1.6465 -0.7555
  768SOL    HW212774   1.140   0.306   2.825 -0.7357 -1.2569 -2.3713
  769SOL     OW12775   8.339   9.868   2.710 -0.2713  0.4810  0.3432
  769SOL    HW112776   8.266   9.902   2.651  0.3725 -0.1508 -0.8285
  769SOL    HW212777   8.416   9.931   2.708 -0.1632  0.3495  0.3553
  770SOL     OW12778   7.854   6.814   2.378 -0.3110 -0.1340  0.2698
  770SOL    HW112779   7.925   6.799   2.308 -0.5525 -2.4551  0.4629
  770SOL    HW212780   7.896   6.814   2.469 -0.4940 -1.0856  0.3582
  771SOL     OW12781   2.098   4.084   1.684 -0.6342 -0.0217 -0.2996
  771SOL    HW112782   2.015   4.035   1.712 -1.8807  0.9906 -2.0574
  771SOL    HW212783   2.123   4.150   1.753 -0.6210 -1.1305  0.7740
  772SOL     OW12784   1.991   9.306   0.837  0.2855 -0.5510  0.1256
  772SOL    HW112785   1.955   9.329   0.747 -1.2109 -0.1645  0.7948
  772SOL    HW212786   1.965   9.213   0.861 -0.3280 -0.2650  0.6185
  773SOL     OW12787   4.894   9.831   3.289  0.1090 -0.2204 -0.0830
  773SOL    HW112788   4.814   9.874   3.248 -0.0697 -0.1212  0.3733
  773SOL    HW212789   4.955   9.799   3.217  0.7990  1.8311 -0.4182
  774SOL     OW12790   2.312   3.598   1.291  0.2340  0.0238 -0.2111
  774SOL    HW112791   2.399   3.598   1.341  0.6382  0.9017 -0.9091
  774SOL    HW212792   2.257   3.520   1.320  0.4277  0.5648  1.6890
  775SOL     OW12793   9.180   6.231   3.137 -0.4809  0.3601  0.1749
  775SOL    HW112794   9.159   6.173   3.216  0.8957  0.6568  0.7690
  775SOL    HW212795   9.179   6.327   3.165  1.1406  0.4093  0.1172
  776SOL     OW12796   8.089   4.601   3.122  0.4116 -0.3100 -0.1402
  776SOL    HW112797   8.105   4.509   3.086  0.1690 -0.7156  0.7797
  776SOL    HW212798   8.175   4.640   3.155  0.3812 -0.5018  0.1627
  777SOL     OW12799   8.520   1.339   3.685  0.2541  0.2670  0.1493
  777SOL    HW112800   8.539   1.356   3.588 -2.4323  1.6033 -0.1750
  777SOL    HW212801   8.533   1.423   3.737 -1.0739  0.2618  0.5015
  778SOL     OW12802   7.311   9.509   0.527 -0.2570  0.3595 -0.0861
  778SOL    HW112803   7.330   9.603   0.497 -0.4070  0.0609 -1.1480
  778SOL    HW212804   7.387   9.449   0.500 -0.5083  0.0445 -0.0972
  779SOL     OW12805   6.358   9.936   2.177  0.2845 -0.0667 -0.5623
  779SOL    HW112806   6.366   9.913   2.274 -1.4795  0.7394 -0.2057
  779SOL    HW212807   6.426  10.006   2.154 -0.3093  0.8767  0.4785
  780SOL     OW12808   2.670   6.070   2.845  0.2791  0.1617  0.0801
  780SOL    HW112809   2.629   6.039   2.932  0.4305  0.6193  0.3136
  780SOL    HW212810   2.646   6.165   2.829  1.8565  0.6590  0.5760
  781SOL     OW12811   0.205   3.126   2.034 -0.4747 -0.2427 -0.0823
  781SOL    HW112812   0.229   3.178   2.116 -0.5140 -0.2803 -0.0460
  781SOL    HW212813   0.265   3.046   2.027  0.9265  0.8805 -1.2364
  782SOL     OW12814   0.641   6.947   3.884 -0.0774 -0.3333  0.4068
  782SOL    HW112815   0.554   6.922   3.926  0.9676 -1.0100  2.1955
  782SOL    HW212816   0.698   6.997   3.950  0.6485  0.6599 -0.9374
  783SOL     OW12817   8.670   5.012   1.551 -0.1818 -0.1331 -0.6520
  783SOL    HW112818   8.707   4.981   1.639  0.7339  0.9503 -0.6483
  783SOL    HW212819   8.596   5.077   1.567  1.2765  1.5762 -0.6612
  784SOL     OW12820   9.518   1.474   2.578 -0.3838  0.0667  0.1602
  784SOL    HW112821   9.485   1.380   2.589 -0.4999  0.1923  0.8493
  784SOL    HW212822   9.613   1.479   2.608  0.4797 -0.4191 -2.3120
  785SOL     OW12823   1.608   0.857   2.915  0.0437 -0.3012 -0.3797
  785SOL    HW112824   1.591   0.759   2.922  1.7004 -0.6118 -0.4180
  785SOL    HW212825   1.628   0.894   3.005 -1.4190  0.1819 -0.2380
  786SOL     OW12826   4.596   1.079   1.471  0.0145 -0.4955 -0.1615
  786SOL    HW112827   4.539   1.085   1.552  1.7512 -0.8032  1.1064
  786SOL    HW212828   4.624   1.171   1.443 -3.4281 -0.0658 -2.5359
  787SOL     OW12829   8.667   7.963   3.608  0.1958  0.1472  0.0641
  787SOL    HW112830   8.654   8.047   3.555  0.5942 -0.5892 -1.1929
  787SOL    HW212831   8.674   7.987   3.705 -1.2244  1.4321 -0.1224
  788SOL     OW12832   0.551   2.836   2.686 -0.0492 -0.4163 -0.3872
  788SOL    HW112833   0.581   2.757   2.633  1.5680  0.0283 -0.1697
  788SOL    HW212834   0.524   2.910   2.624 -1.2260 -1.0142 -0.5878
  789SOL     OW12835   2.851   3.455   2.551  0.4282  0.0350  0.6737
  789SOL    HW112836   2.761   3.423   2.523 -1.3845  4.0501  1.5765
  789SOL    HW212837   2.887   3.397   2.624 -1.1862 -1.8558 -0.0017
  790SOL     OW12838   1.817   7.751   1.085  0.5779  0.1444 -0.1175
  790SOL    HW112839   1.899   7.742   1.141  0.0593 -0.5279  0.5378
  790SOL    HW212840   1.842   7.748   0.988  0.9857 -3.9826  0.0110
  791SOL     OW12841   1.799   2.739   1.703  0.5592  0.2472  0.4951
  791SOL    HW112842   1.895   2.756   1.723  0.6331 -1.2125  1.4489
  791SOL    HW212843   1.759   2.680   1.774 -0.6609 -0.3387 -0.6402
  792SOL     OW12844   0.939   3.637   1.279  0.3713  0.4779 -0.0125
  792SOL    HW112845   0.914   3.699   1.354 -2.0296 -0.4947  0.0384
  792SOL    HW212846   0.953   3.690   1.195  0.3401  1.2969  0.4939
  793SOL     OW12847   3.230   3.442   3.904 -0.1336 -0.5255  0.3277
  793SOL    HW112848   3.164   3.454   3.978 -0.4662 -1.2988  0.1670
  793SOL    HW212849   3.322   3.465   3.936 -0.4252  0.1636  0.6685
  794SOL     OW12850   9.155   2.505   3.300 -0.0629 -0.5409 -0.7480
  794SOL    HW112851   9.240   2.464   3.334 -1.1366 -2.2925 -0.1032
  794SOL    HW212852   9.165   2.605   3.298  2.1788 -0.7270 -1.1830
  795SOL     OW12853   8.051   4.193   0.988 -0.3672  0.5669  0.1361
  795SOL    HW112854   8.065   4.247   1.072 -2.5349  0.4191  0.6231
  795SOL    HW212855   8.089   4.243   0.910  0.2850  1.4357  0.9891
  796SOL     OW12856   2.278   1.063   2.843  0.1014 -0.5714  0.1558
  796SOL    HW112857   2.186   1.097   2.856  0.2007 -0.1015 -0.3912
  796SOL    HW212858   2.322   1.110   2.766  0.1568 -2.0711 -0.7502
  797SOL     OW12859   2.794   1.739   2.577 -0.1002  0.0478  0.0201
  797SOL    HW112860   2.723   1.805   2.602  0.5490  1.0448 -0.7289
  797SOL    HW212861   2.843   1.709   2.659  0.6616  1.7331  0.1975
  798SOL     OW12862   1.153   7.733   0.452  0.0338  0.0392 -0.6370
  798SOL    HW112863   1.086   7.705   0.521  0.6801  0.3756  0.1401
  798SOL    HW212864   1.239   7.686   0.469  0.1715  0.0647 -1.2645
  799SOL     OW12865   2.390   3.559   2.376 -0.3989 -0.7043  0.0146
  799SOL    HW112866   2.393   3.657   2.358 -0.0920 -1.2204 -2.8595
  799SOL    HW212867   2.483   3.523   2.384 -0.3902 -1.4132 -2.8297
  800SOL     OW12868   9.922   6.957   2.550 -0.1683  0.2789 -0.0449
  800SOL    HW112869   9.830   6.930   2.577  0.8885 -0.9936  2.3493
  800SOL    HW212870   9.976   6.876   2.528  0.2376  1.0532 -1.9986
  801SOL     OW12871   8.110   9.917   0.285  0.2579 -0.1043 -0.3303
  801SOL    HW112872   8.037   9.893   0.221  0.0190 -0.9040  0.2319
  801SOL    HW212873   8.139   9.835   0.335 -0.3675  0.7015  1.4131
  802SOL     OW12874   2.502   8.867   0.502  0.0387 -0.1958  0.4391
  802SOL    HW112875   2.594   8.851   0.539 -0.0898  1.3251  1.4527
  802SOL    HW212876   2.457   8.779   0.485  1.1799 -0.9408  1.1922
  803SOL     OW12877   7.611   2.710   3.554 -0.3511  0.0876  0.1695
  803SOL    HW112878   7.623   2.740   3.649 -1.8680 -2.0936  1.1026
  803SOL    HW212879   7.656   2.774   3.493  1.8468  0.8077  2.4479
  804SOL     OW12880   0.080   4.835   3.742  0.0130 -0.5243 -0.8134
  804SOL    HW112881   0.038   4.884   3.818  0.0094  0.1086 -1.2242
  804SOL    HW212882   0.154   4.777   3.776  1.9335  1.9620 -0.7042
  805SOL     OW12883   0.118   4.243   1.611 -0.5149  0.1825 -0.2544
  805SOL    HW112884   0.189   4.276   1.674 -0.2234 -0.2521 -0.3521
  805SOL    HW212885   0.034   4.225   1.662  0.1517 -1.5712  0.2733
  806SOL     OW12886   4.552   0.234   0.705 -0.3214  0.4515 -0.5164
  806SOL    HW112887   4.544   0.135   0.697 -1.6961  0.4278  0.7934
  806SOL    HW212888   4.583   0.258   0.797  0.0039  1.2445 -0.8225
  807SOL     OW12889   1.462   5.374   2.280  0.1830 -0.2477 -0.1524
  807SOL    HW112890   1.542   5.431   2.258  0.0964  0.3967  1.1643
  807SOL    HW212891   1.473   5.335   2.371 -1.6148  0.9779  0.6238
  808SOL     OW12892   2.809   9.395   3.036  0.3622  0.3452  0.0741
  808SOL    HW112893   2.831   9.297   3.032 -2.0548 -0.1478 -3.2447
  808SOL    HW212894   2.741   9.411   3.107 -0.6549 -0.7299 -0.6352
  809SOL     OW12895   9.330   8.281   1.826 -0.0018  0.1887 -0.1456
  809SOL    HW112896   9.411   8.330   1.859 -0.8940  1.5676  0.0033
  809SOL    HW212897   9.318   8.198   1.880  0.2069  0.9566  1.1002
  810SOL     OW12898   8.121   0.365   3.785 -0.5465  0.4849  0.0627
  810SOL    HW112899   8.122   0.277   3.739  1.1697 -0.0967  1.1715
  810SOL    HW212900   8.202   0.418   3.759 -0.9977  1.2822  0.2527
  811SOL     OW12901   3.756   5.767   2.463  0.4527 -0.1797  0.1466
  811SOL    HW112902   3.771   5.696   2.394  0.5905  0.7056 -0.7511
  811SOL    HW212903   3.779   5.732   2.553 -1.8886 -2.0819  0.0481
  812SOL     OW12904   1.675   1.970   0.121 -0.4419  0.0569 -0.4966
  812SOL    HW112905   1.717   2.042   0.066 -2.0201  2.3529  1.2051
  812SOL    HW212906   1.593   2.006   0.166  0.2386 -2.0297  2.5531
  813SOL     OW12907   0.765   2.449   1.007 -0.4651  0.6949  0.0822
  813SOL    HW112908   0.711   2.474   1.087  1.9400  1.0096  1.6401
  813SOL    HW212909   0.793   2.353   1.015  1.7551  1.3866  0.7914
  814SOL     OW12910   3.861   9.834   1.226  1.0761  0.6773 -0.2421
  814SOL    HW112911   3.949   9.829   1.274  0.2896  1.6696  1.3122
  814SOL    HW212912   3.808   9.911   1.260  0.0063  0.6987 -1.8966
  815SOL     OW12913   1.304   5.608   2.178  0.1084  0.0396  0.1341
  815SOL    HW112914   1.352   5.522   2.197  1.0946  0.3640 -0.8530
  815SOL    HW212915   1.272   5.648   2.264 -0.4174 -1.3477  0.5983
  816SOL     OW12916   4.421   7.922   3.840 -0.6569  0.2141 -0.3687
  816SOL    HW112917   4.487   7.864   3.888  0.7433 -0.0754 -2.5914
  816SOL    HW212918   4.346   7.866   3.807 -0.3957  0.0233 -0.6357
  817SOL     OW12919   8.633   5.507   0.023 -0.3430 -0.0949 -0.0697
  817SOL    HW112920   8.537   5.481   0.031 -0.5076  0.3221 -0.6658
  817SOL    HW212921   8.689   5.444   0.077 -0.8954 -0.6697 -0.1621
  818SOL     OW12922   3.271   6.439   0.790 -0.1986  0.4975  0.3754
  818SOL    HW112923   3.243   6.521   0.740  1.6544  0.2531 -1.1435
  818SOL    HW212924   3.320   6.466   0.873  0.7565  0.9731 -0.3234
  819SOL     OW12925   0.301   1.057   3.020 -0.2017 -0.7621 -0.2784
  819SOL    HW112926   0.354   1.056   2.935 -1.6305 -0.3030 -1.1774
  819SOL    HW212927   0.292   1.152   3.052  0.5733 -0.9582  0.5453
  820SOL     OW12928   8.463   7.469   1.888 -0.1146  0.0005  0.0526
  820SOL    HW112929   8.443   7.552   1.837 -0.2271  0.6423  1.1170
  820SOL    HW212930   8.498   7.493   1.979 -0.8345 -1.1075  0.6427
  821SOL     OW12931   3.795   9.028   0.726  0.2213 -0.2009  0.0332
  821SOL    HW112932   3.723   8.960   0.726  0.7965 -0.8139  0.1345
  821SOL    HW212933   3.884   8.983   0.721  0.5791  0.5669 -0.6537
  822SOL     OW12934   8.629   6.223   3.351  0.0287 -0.2001  0.1310
  822SOL    HW112935   8.576   6.201   3.433  0.3861  0.2101  0.4699
  822SOL    HW212936   8.642   6.140   3.297 -1.5907 -0.1626 -0.3264
  823SOL     OW12937   5.317   7.548   2.269  0.2482 -0.2170  0.0904
  823SOL    HW112938   5.243   7.600   2.227  0.2823 -0.5046 -0.3325
  823SOL    HW212939   5.315   7.561   2.368  0.1834  0.4906  0.0035
  824SOL     OW12940   2.158   7.139   2.625 -0.2465 -0.4962  0.4348
  824SOL    HW112941   2.125   7.202   2.695  0.0468 -0.6693  0.7310
  824SOL    HW212942   2.234   7.181   2.576 -1.6087  0.3422 -0.9852
  825SOL     OW12943   1.241   3.265   0.456  0.5581 -0.2975 -0.2188
  825SOL    HW112944   1.203   3.174   0.470 -1.2190  0.6131  1.1673
  825SOL    HW212945   1.216   3.299   0.366 -0.4422 -0.4045  0.0155
  826SOL     OW12946   9.089   7.935   3.495 -0.4319 -0.3948  0.1155
  826SOL    HW112947   9.105   7.848   3.542 -0.2143  0.4659  1.6969
  826SOL    HW212948   8.996   7.966   3.512 -0.5115 -0.3174 -0.4461
  827SOL     OW12949   0.002   3.602   1.721  0.0799  0.0405  0.0109
  827SOL    HW112950   0.089   3.559   1.744  0.9193  1.3316 -0.6914
  827SOL    HW212951  -0.039   3.640   1.804  1.8156  2.3404 -0.1230
  828SOL     OW12952   3.106   0.357   0.613 -0.6467  0.1312 -0.6533
  828SOL    HW112953   3.113   0.450   0.578  1.0402  2.0176  4.2274
  828SOL    HW212954   3.015   0.342   0.652 -0.4069  0.2531 -0.0511
  829SOL     OW12955   3.389   5.136   3.507 -0.1714  0.1177  1.2223
  829SOL    HW112956   3.294   5.162   3.521 -1.2866 -2.5912 -1.0299
  829SOL    HW212957   3.411   5.056   3.563  0.3998 -0.0931  0.7014
  830SOL     OW12958   3.806   3.178   1.294 -0.4878  0.6117 -0.1561
  830SOL    HW112959   3.888   3.135   1.332 -0.1149  1.8505  0.4801
  830SOL    HW212960   3.809   3.175   1.194 -0.8307 -1.4866 -0.1246
  831SOL     OW12961   1.632   9.130   2.628 -0.4093  0.0726 -0.2245
  831SOL    HW112962   1.725   9.164   2.613 -0.2141 -0.4748 -0.2408
  831SOL    HW212963   1.614   9.125   2.726 -1.3331  2.6731 -0.2211
  832SOL     OW12964   4.009   9.679   3.017 -0.0513 -0.1797 -0.8304
  832SOL    HW112965   4.071   9.642   2.949  2.5737  0.1903  1.2576
  832SOL    HW212966   4.014   9.624   3.100  0.1237  1.8437  0.5524
  833SOL     OW12967   3.341   7.508   2.791  0.1176  0.5339 -0.2658
  833SOL    HW112968   3.418   7.463   2.746 -0.4371  1.4379 -2.1585
  833SOL    HW212969   3.297   7.572   2.727 -1.2370  1.1839  1.2801
  834SOL     OW12970   9.551   4.200   2.218 -0.0140  0.3802  0.4805
  834SOL    HW112971   9.539   4.223   2.314 -1.6742 -1.1513  0.6623
  834SOL    HW212972   9.583   4.106   2.209  0.9450  0.7767 -0.4500
  835SOL     OW12973   0.609   3.491   0.640 -0.6936  0.2784  0.1844
  835SOL    HW112974   0.623   3.584   0.674 -3.4340  0.7523  0.1375
  835SOL    HW212975   0.555   3.439   0.706  0.6045 -1.1966  0.0868
  836SOL     OW12976   0.457   0.320   1.510  0.3243 -0.2461  0.7949
  836SOL    HW112977   0.539   0.269   1.534  0.7588  0.0395 -0.0594
  836SOL    HW212978   0.467   0.415   1.540  0.0341 -0.3721  1.2820
  837SOL     OW12979   7.849   0.353   3.820 -0.2306 -0.0849  0.2058
  837SOL    HW112980   7.948   0.351   3.809 -0.2587 -1.5132  0.0645
  837SOL    HW212981   7.826   0.402   3.904  0.6728 -0.9468  0.9772
  838SOL     OW12982   9.626   9.316   2.606 -0.6505  0.2805 -0.4730
  838SOL    HW112983   9.644   9.218   2.597 -2.2381 -0.0210 -0.4498
  838SOL    HW212984   9.690   9.356   2.672  1.2880 -0.3526 -1.9053
  839SOL     OW12985   9.349   8.844   1.879 -0.2412 -0.1416  0.8001
  839SOL    HW112986   9.330   8.753   1.916 -0.9038 -1.0789 -1.7355
  839SOL    HW212987   9.266   8.883   1.840  0.8150 -0.0752 -1.4950
  840SOL     OW12988   4.097   8.545   0.185 -0.1110  0.4222  0.5034
  840SOL    HW112989   4.150   8.581   0.262  0.1182  1.4611 -0.1193
  840SOL    HW212990   4.107   8.606   0.106  0.5152 -1.1910 -0.6925
  841SOL     OW12991   5.203   8.889   2.295 -0.6508  0.7491 -0.2079
  841SOL    HW112992   5.238   8.981   2.282  0.3033  0.2414 -1.2423
  841SOL    HW212993   5.218   8.835   2.212 -2.1294 -0.0356  0.0220
  842SOL     OW12994   1.548   6.702   2.371  0.1811  0.2982  0.0774
  842SOL    HW112995   1.483   6.660   2.307 -1.2306  0.2208  1.5146
  842SOL    HW212996   1.628   6.734   2.321 -1.0962  0.6619 -1.8136
  843SOL     OW12997   8.101   9.937   2.605  0.0966 -0.0119  0.6596
  843SOL    HW112998   8.059   9.983   2.527 -0.5630  0.1873  1.1275
  843SOL    HW212999   8.043   9.949   2.686 -0.1083 -1.7118  0.7722
  844SOL     OW13000   9.068   1.455   2.030  0.5293 -0.1544 -0.2557
  844SOL    HW113001   8.974   1.461   1.997  0.4295 -0.5279 -0.0397
  844SOL    HW213002   9.092   1.360   2.049  0.8953 -0.0463 -0.1477
  845SOL     OW13003   9.792   0.411   3.950  0.6341 -0.7333  1.1202
  845SOL    HW113004   9.776   0.361   4.035  3.1016  0.2458  2.2355
  845SOL    HW213005   9.882   0.456   3.955 -0.1398  1.1639 -1.1135
  846SOL     OW13006   9.673   7.925   0.762 -0.5928  0.0101  0.2452
  846SOL    HW113007   9.741   7.879   0.819 -2.2908 -0.5625  1.8436
  846SOL    HW213008   9.638   8.006   0.809 -3.2068 -1.3858  0.7662
  847SOL     OW13009   0.811   0.285   2.921  0.9362 -0.4353 -0.0679
  847SOL    HW113010   0.819   0.256   2.826 -0.5772 -0.9331 -0.0579
  847SOL    HW213011   0.757   0.217   2.972 -0.2397  0.9762  0.6113
  848SOL     OW13012   4.655   0.485   3.713  0.2058  0.5817  0.4392
  848SOL    HW113013   4.576   0.545   3.725 -1.2177 -1.4503  1.6012
  848SOL    HW213014   4.651   0.442   3.623  0.9601  1.8370 -0.1991
  849SOL     OW13015   8.811   4.150   2.939 -0.3302  1.0236  0.3690
  849SOL    HW113016   8.754   4.068   2.941 -0.1275  0.8745  0.0889
  849SOL    HW213017   8.765   4.221   2.885 -0.1193  0.8051 -0.1012
  850SOL     OW13018   5.968   8.382   3.031 -0.5808 -0.7727  0.2935
  850SOL    HW113019   5.890   8.407   2.975 -0.5620  0.6340  0.8694
  850SOL    HW213020   5.938   8.322   3.106 -1.1944  0.1641  0.8038
  851SOL     OW13021   2.788   0.999   3.374  0.0805 -0.1210 -0.4094
  851SOL    HW113022   2.699   0.999   3.329 -0.5256 -1.4358  0.7331
  851SOL    HW213023   2.797   0.916   3.430  1.3914  0.7636  0.7219
  852SOL     OW13024   2.167   9.917   2.393  0.2757  0.5130  0.0103
  852SOL    HW113025   2.168   9.844   2.324 -0.4828  1.0230 -0.5529
  852SOL    HW213026   2.108   9.991   2.361 -0.3612  0.6077  1.3739
  853SOL     OW13027   5.983   9.387   1.971 -0.1208 -0.5839 -0.0512
  853SOL    HW113028   5.953   9.476   1.937 -0.8765  0.0402  2.1689
  853SOL    HW213029   6.077   9.394   2.004 -0.0718 -0.6912 -0.1687
  854SOL     OW13030   4.375   3.435   0.468  0.4370 -0.1499  1.0528
  854SOL    HW113031   4.281   3.457   0.495  0.1293  0.9418 -0.8533
  854SOL    HW213032   4.376   3.348   0.418  0.2077  0.5508 -0.2000
  855SOL     OW13033   2.282   5.603   3.430 -0.3102  0.0924 -0.4615
  855SOL    HW113034   2.219   5.580   3.505  1.8241 -3.6353  0.3090
  855SOL    HW213035   2.288   5.525   3.367  2.7055  0.7731 -1.0877
  856SOL     OW13036   1.726   2.849   0.367 -0.5085 -0.1503 -0.2602
  856SOL    HW113037   1.778   2.887   0.443 -2.9814  0.2447  1.2762
  856SOL    HW213038   1.788   2.797   0.307  1.9390  1.8114  0.4905
  857SOL     OW13039   3.072   0.892   1.078  0.0227  0.0164 -0.0279
  857SOL    HW113040   3.116   0.980   1.092  2.0990 -1.1080  0.6778
  857SOL    HW213041   3.123   0.821   1.126 -1.0677 -1.7219 -1.3825
  858SOL     OW13042   9.560   6.651   2.763  0.0165  0.0876  0.7153
  858SOL    HW113043   9.466   6.672   2.789 -0.1185 -0.4164  0.6344
  858SOL    HW213044   9.600   6.588   2.829  0.0451 -0.3032  0.3280
  859SOL     OW13045   3.494   0.504   0.680 -0.2321  0.1344 -0.0616
  859SOL    HW113046   3.540   0.419   0.654  0.6809  0.8817 -0.9219
  859SOL    HW213047   3.560   0.578   0.681 -1.3780  1.1975 -1.1458
  860SOL     OW13048   3.918   1.947   1.012 -0.1743 -0.4047 -0.3317
  860SOL    HW113049   3.819   1.958   1.012 -0.0248  1.0217 -0.4608
  860SOL    HW213050   3.961   2.025   0.966  0.8523 -2.5322 -3.1930
  861SOL     OW13051   3.896   5.068   1.138  0.1742 -0.3768  0.8501
  861SOL    HW113052   3.868   4.979   1.173 -2.8700  0.2179  0.1106
  861SOL    HW213053   3.876   5.139   1.206  0.2290  0.0223  0.4526
  862SOL     OW13054   8.923   3.822   0.683 -0.0388 -0.1275  0.0374
  862SOL    HW113055   8.930   3.917   0.714 -1.5152 -0.3326  1.0430
  862SOL    HW213056   8.888   3.765   0.757  0.1256 -1.3222 -0.7898
  863SOL     OW13057   4.527   9.792   1.801  0.5662 -0.3422  0.2998
  863SOL    HW113058   4.467   9.870   1.780  0.0144 -0.6815  0.6342
  863SOL    HW213059   4.534   9.780   1.900 -1.0611 -2.0445  0.2241
  864SOL     OW13060   9.744   2.870   2.518 -0.0047 -0.0366 -0.7504
  864SOL    HW113061   9.776   2.834   2.431  2.1100  3.2897 -1.4707
  864SOL    HW213062   9.653   2.912   2.506 -0.5036 -1.1569 -0.9132
  865SOL     OW13063   9.650   9.944   1.019  0.4356  0.4845  0.2294
  865SOL    HW113064   9.564   9.913   1.060  0.7886 -1.1525 -0.2016
  865SOL    HW213065   9.708   9.865   1.001  0.9726  1.3012 -1.8838
  866SOL     OW13066   2.507   5.499   0.003  0.4521 -0.2956 -1.0203
  866SOL    HW113067   2.455   5.422  -0.036 -2.6222  0.5533  1.1867
  866SOL    HW213068   2.558   5.466   0.083  0.1015 -0.3083 -0.7991
  867SOL     OW13069   4.680   3.790   0.495  0.3814  0.0714  0.3640
  867SOL    HW113070   4.644   3.752   0.580 -0.9389  0.7539  0.1304
  867SOL    HW213071   4.643   3.739   0.418 -2.0026  2.2011  0.0068
  868SOL     OW13072   8.757   1.386   0.871 -0.0188 -0.1944  0.3664
  868SOL    HW113073   8.815   1.336   0.935  0.2987  0.4749  0.5971
  868SOL    HW213074   8.739   1.328   0.791 -2.4068 -1.9789  2.1254
  869SOL     OW13075   3.476   2.693   1.052 -0.0302 -0.1932 -0.4505
  869SOL    HW113076   3.425   2.779   1.060 -0.2423 -0.1904 -1.6284
  869SOL    HW213077   3.547   2.703   0.981  1.2623 -0.3682  0.7991
  870SOL     OW13078   9.416   0.831   1.077  0.0150 -0.3072  0.0069
  870SOL    HW113079   9.509   0.806   1.052 -0.3847 -0.9034 -0.9313
  870SOL    HW213080   9.353   0.802   1.004 -0.6212  2.3175 -0.5196
  871SOL     OW13081   3.572   0.512   1.867  0.3216  0.4597  0.2368
  871SOL    HW113082   3.649   0.508   1.803  0.0056  1.5854 -0.2157
  871SOL    HW213083   3.513   0.589   1.844 -0.1318  0.5045  1.5085
  872SOL     OW13084   9.499   5.323   2.434 -0.0545  0.1480 -0.3667
  872SOL    HW113085   9.406   5.315   2.471 -0.3554  0.1075 -1.1259
  872SOL    HW213086   9.495   5.334   2.335  0.6870  2.1947 -0.1803
  873SOL     OW13087   1.540   7.717   0.349  0.5718 -0.3874  0.0388
  873SOL    HW113088   1.589   7.693   0.265 -0.0556 -0.8088 -0.2139
  873SOL    HW213089   1.487   7.800   0.334 -0.6526 -1.2337 -0.4334
  874SOL     OW13090   1.964   9.538   1.864  0.4957  0.0166  0.3051
  874SOL    HW113091   1.943   9.496   1.776 -0.2974 -0.9727  0.9486
  874SOL    HW213092   2.048   9.497   1.901  1.6301  1.4541 -0.6416
  875SOL     OW13093   5.331   8.780   2.064  0.2933  0.1732  0.2864
  875SOL    HW113094   5.299   8.693   2.026 -0.1623  1.1297 -1.5813
  875SOL    HW213095   5.278   8.855   2.024  1.3181  1.3781  1.1632
  876SOL     OW13096   8.179   0.588   1.042 -0.3658 -0.2951  0.3580
  876SOL    HW113097   8.091   0.635   1.036  0.1208  0.7431  1.1421
  876SOL    HW213098   8.216   0.574   0.950 -0.6007  0.6986  0.1095
  877SOL     OW13099   3.639   2.189   0.105 -0.1743 -0.4797 -0.0442
  877SOL    HW113100   3.661   2.098   0.139 -0.4429 -0.7506 -0.5882
  877SOL    HW213101   3.579   2.181   0.026 -0.5905  0.1869  0.2015
  878SOL     OW13102   1.949   9.277   2.992 -0.2728  0.2686  0.1644
  878SOL    HW113103   1.851   9.267   2.974 -0.1862 -1.2013  0.4870
  878SOL    HW213104   1.985   9.354   2.939 -1.6745  1.0490  0.3266
  879SOL     OW13105   1.053   8.915   3.211  0.0340  0.0435  0.5359
  879SOL    HW113106   1.004   8.906   3.125  1.1026  1.0519 -0.1981
  879SOL    HW213107   1.113   8.836   3.224 -1.1082 -0.7545  1.0119
  880SOL     OW13108   0.943   6.259   2.881 -0.2190 -0.0135 -0.0311
  880SOL    HW113109   0.850   6.293   2.896 -0.7082 -1.4963  0.3072
  880SOL    HW213110   1.009   6.326   2.917 -1.2088 -0.2179  2.2007
  881SOL     OW13111   9.769   8.953   1.808  0.0751  0.5095  0.5467
  881SOL    HW113112   9.732   8.969   1.717 -0.0638 -1.3207  0.2678
  881SOL    HW213113   9.861   8.992   1.814  0.1085  0.5937 -0.3932
  882SOL     OW13114   8.446   5.977   3.174 -0.1020 -0.1076 -0.3896
  882SOL    HW113115   8.426   5.891   3.223 -0.2029  0.5343  0.7126
  882SOL    HW213116   8.373   6.043   3.191  1.7784  1.5004  1.8786
  883SOL     OW13117   2.197   5.861   1.261  0.9131 -0.3609  0.0031
  883SOL    HW113118   2.121   5.872   1.325  0.7780  0.3472 -0.2831
  883SOL    HW213119   2.267   5.803   1.304  1.2683  0.9140  1.2033
  884SOL     OW13120   5.919   9.021   2.981 -0.2025 -0.1655 -0.3485
  884SOL    HW113121   5.891   9.111   3.015  1.7756 -0.2168  1.4504
  884SOL    HW213122   6.016   9.022   2.958 -0.0291 -1.9953  0.2080
  885SOL     OW13123   3.688   1.748   0.833 -0.0534 -0.0109  0.0470
  885SOL    HW113124   3.595   1.776   0.809 -0.2998 -1.2226 -0.4354
  885SOL    HW213125   3.693   1.727   0.930  0.0510  1.3355  0.3487
  886SOL     OW13126   0.571   1.400   0.409 -0.2229 -0.0808  0.0730
  886SOL    HW113127   0.562   1.301   0.423  1.5284 -0.2207  0.2654
  886SOL    HW213128   0.496   1.432   0.351  1.0109 -2.0876 -2.7150
  887SOL     OW13129   2.660   5.998   2.560 -0.0793  0.2513  0.8766
  887SOL    HW113130   2.626   6.005   2.653 -0.1261 -0.0648  0.8842
  887SOL    HW213131   2.661   5.902   2.532 -1.9190  0.5188 -0.1499
  888SOL     OW13132   4.407   2.639   1.971  0.1395  0.4799 -0.0764
  888SOL    HW113133   4.325   2.684   1.934  0.4509  1.1523  0.0375
  888SOL    HW213134   4.449   2.582   1.901 -1.4061 -1.2604  0.3650
  889SOL     OW13135   2.938   3.851   4.006  0.2099  0.1614  0.2263
  889SOL    HW113136   2.842   3.857   3.978  0.2588 -0.4279 -0.0839
  889SOL    HW213137   2.942   3.813   4.099  0.1005  1.0738  0.6080
  890SOL     OW13138   0.001   8.800   1.649 -0.6385  0.0154  0.4057
  890SOL    HW113139   0.045   8.835   1.732  1.2937 -0.0934 -0.5400
  890SOL    HW213140  -0.041   8.875   1.599  3.2337  1.0122 -1.4656
  891SOL     OW13141   8.655   7.797   3.065  0.1823  0.3578 -0.0459
  891SOL    HW113142   8.576   7.834   3.114 -0.0944 -0.0993 -0.1395
  891SOL    HW213143   8.646   7.817   2.967  1.5562  2.7341  0.2686
  892SOL     OW13144   0.995   3.551   0.513 -0.1716 -0.1595 -0.0367
  892SOL    HW113145   1.055   3.505   0.578 -2.3933 -2.1896  0.6683
  892SOL    HW213146   0.921   3.597   0.562 -1.1559 -0.6335 -1.0423
  893SOL     OW13147   3.414   8.589   0.476  0.1859 -0.3466  0.0777
  893SOL    HW113148   3.362   8.674   0.477 -0.2423 -0.5914 -0.8798
  893SOL    HW213149   3.356   8.513   0.505  0.0201 -0.6081 -0.9201
  894SOL     OW13150   2.313   5.638   1.948  0.4361  0.7094  0.2949
  894SOL    HW113151   2.324   5.625   1.850 -0.2449  0.6415  0.2264
  894SOL    HW213152   2.226   5.600   1.977  0.4502  1.1030  0.8569
  895SOL     OW13153   2.578   4.179   1.205  0.2558 -0.1557  0.0378
  895SOL    HW113154   2.482   4.192   1.180 -0.2056  0.5695  2.0866
  895SOL    HW213155   2.635   4.240   1.150 -0.6185  0.5744 -0.0781
  896SOL     OW13156   0.518   3.871   1.192 -0.2618 -0.3500  0.0987
  896SOL    HW113157   0.444   3.848   1.130  0.4834  0.7201 -1.2339
  896SOL    HW213158   0.481   3.900   1.280 -1.6326  3.1458 -1.5130
  897SOL     OW13159   8.480   4.923   0.900 -0.2178 -0.4515  0.4618
  897SOL    HW113160   8.398   4.901   0.846  0.3046 -0.5094 -0.3103
  897SOL    HW213161   8.551   4.855   0.883  0.1602 -0.1348  0.7708
  898SOL     OW13162   4.267   1.277   2.251 -0.0505 -0.0826 -0.3381
  898SOL    HW113163   4.343   1.243   2.195  0.0279 -1.6021  0.6661
  898SOL    HW213164   4.184   1.227   2.227  0.3011 -1.8332  1.9441
  899SOL     OW13165   8.362   4.504   0.964  0.0711 -0.5758  0.0644
  899SOL    HW113166   8.361   4.428   1.029 -1.3805  0.6783  1.5435
  899SOL    HW213167   8.289   4.569   0.987  1.0346  1.0726 -1.4231
  900SOL     OW13168   5.194   8.164   1.979 -0.4147 -0.2961 -0.4313
  900SOL    HW113169   5.173   8.066   1.969  0.2607 -0.2808 -2.1529
  900SOL    HW213170   5.289   8.180   1.954 -0.0099  0.5513  1.5716
  901SOL     OW13171   0.001   2.780   1.043 -0.4060 -0.1676  0.1996
  901SOL    HW113172  -0.021   2.858   0.986 -0.5416 -0.8626 -0.7160
  901SOL    HW213173  -0.025   2.799   1.138  0.9846  1.4801  0.2757
  902SOL     OW13174   2.247   6.304   2.576 -0.0141 -0.3491  0.0501
  902SOL    HW113175   2.255   6.206   2.594  0.2076 -0.2206  0.6579
  902SOL    HW213176   2.226   6.352   2.662 -0.3332  0.1104 -0.2805
  903SOL     OW13177   4.305   4.990   1.283 -0.1460 -0.4211  0.0785
  903SOL    HW113178   4.265   5.038   1.206 -0.1880  0.2880  0.5421
  903SOL    HW213179   4.364   4.916   1.250  0.6150  0.5032 -0.6447
  904SOL     OW13180   1.862   0.462   3.434  0.2873  0.0124  0.3904
  904SOL    HW113181   1.956   0.480   3.463  1.0983  1.1014 -2.7291
  904SOL    HW213182   1.799   0.515   3.491  1.6682  0.4637  1.5242
  905SOL     OW13183   0.493   3.530   2.576 -0.0802  0.4578 -0.7287
  905SOL    HW113184   0.427   3.497   2.644 -1.0292  1.0665 -1.3332
  905SOL    HW213185   0.456   3.512   2.484  0.8801  0.2569 -1.0793
  906SOL     OW13186   1.961   9.662   2.330  0.5178 -0.2408  0.1542
  906SOL    HW113187   2.052   9.660   2.290  0.6119 -1.1718  0.4116
  906SOL    HW213188   1.913   9.577   2.309 -1.1792  1.2020 -1.9950
  907SOL     OW13189   1.876   0.657   2.495  0.1942 -0.5307  0.0878
  907SOL    HW113190   1.825   0.678   2.412  0.7061 -1.2569 -0.4179
  907SOL    HW213191   1.816   0.612   2.561 -0.7278  1.8146  0.9043
  908SOL     OW13192   4.166   7.175   3.681  0.1606 -0.6605 -0.0494
  908SOL    HW113193   4.112   7.209   3.758  0.1746 -0.4504 -0.1301
  908SOL    HW213194   4.262   7.199   3.694  0.4357 -2.1246  0.7040
  909SOL     OW13195   1.877   5.246   1.841 -0.0286  0.3760 -0.2849
  909SOL    HW113196   1.903   5.159   1.883 -0.9557 -0.1319 -0.7643
  909SOL    HW213197   1.832   5.229   1.753 -1.8544  1.2468  0.4654
  910SOL     OW13198   8.466   7.815   3.470 -0.0789 -0.0346  0.1757
  910SOL    HW113199   8.549   7.851   3.512  0.0549 -1.1154  0.8788
  910SOL    HW213200   8.387   7.844   3.523 -0.0246 -0.2132  0.3561
  911SOL     OW13201   2.317   2.885   0.587 -0.1962 -0.2302  0.2732
  911SOL    HW113202   2.353   2.948   0.656 -1.1558  0.1303  0.4635
  911SOL    HW213203   2.220   2.904   0.573 -0.1309 -0.6496 -0.8031
  912SOL     OW13204   1.897   8.030   2.598  0.2657 -0.3437  0.3333
  912SOL    HW113205   1.905   7.934   2.623  0.5509  0.2114  2.4304
  912SOL    HW213206   1.881   8.085   2.680  2.0443  1.6209 -0.5802
  913SOL     OW13207   2.154   6.847   1.528 -0.5808  0.3242 -0.3118
  913SOL    HW113208   2.151   6.752   1.496 -0.1467  0.5270 -0.9732
  913SOL    HW213209   2.234   6.859   1.587 -0.7430  0.2344 -0.0711
  914SOL     OW13210   9.565   8.416   1.932  0.4704 -0.1624 -0.1441
  914SOL    HW113211   9.563   8.465   1.845  1.6038 -1.0328 -0.6786
  914SOL    HW213212   9.511   8.466   2.000 -1.7952 -0.3297 -1.7745
  915SOL     OW13213   0.379   0.327   2.570 -0.1654 -0.5061  0.1912
  915SOL    HW113214   0.328   0.411   2.550  0.6228 -0.5122 -1.9589
  915SOL    HW213215   0.353   0.294   2.661 -2.8475  0.3213 -0.2198
  916SOL     OW13216   8.706   8.030   2.380 -0.1948 -0.3283  0.3321
  916SOL    HW113217   8.755   7.943   2.381  0.7289  0.1498 -1.3163
  916SOL    HW213218   8.766   8.102   2.415 -1.0152 -0.3622  1.8557
  917SOL     OW13219   3.016   3.110   1.371  0.5244 -0.4313  0.0600
  917SOL    HW113220   3.027   3.162   1.456  0.2522 -0.9689  0.4316
  917SOL    HW213221   3.090   3.132   1.308  1.1757 -0.6223  0.7508
  918SOL     OW13222   8.752   9.835   0.975  0.4175 -0.6959  0.0770
  918SOL    HW113223   8.704   9.802   0.894  0.8134  0.4877 -0.6591
  918SOL    HW213224   8.827   9.895   0.947 -1.9146  3.0381  1.3852
  919SOL     OW13225   1.636   6.782   3.434 -0.1305  0.2159  0.0774
  919SOL    HW113226   1.607   6.798   3.339  0.7037 -1.1058 -0.4069
  919SOL    HW213227   1.562   6.737   3.484  0.7669 -2.5125 -0.9721
  920SOL     OW13228   8.347   1.033   0.856  0.1619 -0.1186 -0.3239
  920SOL    HW113229   8.409   1.051   0.932 -1.1086 -0.3982  0.7958
  920SOL    HW213230   8.350   1.109   0.791 -1.2489  1.7428  1.7148
  921SOL     OW13231   0.230   6.495   2.352  0.6886  0.7016  0.1648
  921SOL    HW113232   0.279   6.581   2.337  0.1080  1.1058  0.5766
  921SOL    HW213233   0.290   6.418   2.330  0.9773  1.2270 -0.9070
  922SOL     OW13234   8.413   5.695   1.738 -0.2867  0.2987  0.5055
  922SOL    HW113235   8.421   5.758   1.815 -0.1675 -0.6572  1.2875
  922SOL    HW213236   8.495   5.702   1.681  0.4097 -0.2312  1.4255
  923SOL     OW13237   2.467   1.423   3.113  0.6692 -0.0862 -0.0893
  923SOL    HW113238   2.457   1.324   3.115  1.9781 -0.2565 -1.2029
  923SOL    HW213239   2.483   1.457   3.206  1.8345 -1.1072  0.0921
  924SOL     OW13240   1.967   1.756   0.060 -0.0697  0.2116 -0.5860
  924SOL    HW113241   1.932   1.758  -0.034  1.1035  2.1525 -1.0281
  924SOL    HW213242   1.891   1.757   0.124 -0.8800 -0.6827 -1.5083
  925SOL     OW13243   1.304   7.150   2.279  0.1426 -0.2353  0.0229
  925SOL    HW113244   1.275   7.069   2.228 -1.2498 -0.2592  0.8151
  925SOL    HW213245   1.226   7.187   2.329  0.5673  2.0682 -0.9551
  926SOL     OW13246   0.975   5.552   2.628 -0.5523 -0.7114  0.1643
  926SOL    HW113247   0.919   5.473   2.603  0.5672 -1.7632  0.9106
  926SOL    HW213248   0.927   5.636   2.603 -1.5744 -1.6269 -1.0353
  927SOL     OW13249   3.638   8.969   2.723 -0.2764  0.0495 -0.1898
  927SOL    HW113250   3.575   8.919   2.664 -0.9284  1.3103 -0.5833
  927SOL    HW213251   3.634   8.932   2.816  1.1688 -2.3136 -1.0276
  928SOL     OW13252   8.977   4.631   3.219 -0.0025  0.4278 -0.3863
  928SOL    HW113253   8.915   4.696   3.263 -0.1921 -1.1368  1.7738
  928SOL    HW213254   9.069   4.643   3.257 -0.1876 -1.0192  0.5306
  929SOL     OW13255   9.117   0.168   3.679  0.1766 -0.0137 -0.4922
  929SOL    HW113256   9.137   0.251   3.730 -3.2922  0.3093  0.4397
  929SOL    HW213257   9.120   0.187   3.580 -0.9061  1.3058 -0.2821
  930SOL     OW13258   2.125   5.698   2.508 -0.2804 -0.1068 -0.0188
  930SOL    HW113259   2.154   5.757   2.433  0.2123  1.4085  1.3378
  930SOL    HW213260   2.035   5.727   2.541  1.0208  1.4895  2.2528
  931SOL     OW13261   2.982   0.653   0.696 -0.2202  0.3715 -0.0430
  931SOL    HW113262   3.050   0.723   0.676  0.8417 -1.0943 -1.6774
  931SOL    HW213263   2.978   0.638   0.795  0.8708  1.4151  0.1666
  932SOL     OW13264   0.551   2.089   2.175 -0.3986  0.3157  0.1880
  932SOL    HW113265   0.470   2.142   2.150  0.2652  2.2726  2.0696
  932SOL    HW213266   0.627   2.116   2.116 -0.2877  0.8163  0.5588
  933SOL     OW13267   1.200   0.076   2.379 -0.1807  0.7860  0.4234
  933SOL    HW113268   1.223   0.040   2.470 -0.9333  2.0140  1.1182
  933SOL    HW213269   1.266   0.042   2.312  1.8121  1.7831  1.8318
  934SOL     OW13270   9.844   6.260   3.405  0.0501 -0.1564 -0.3240
  934SOL    HW113271   9.870   6.355   3.391  0.7316 -0.4089 -0.8224
  934SOL    HW213272   9.775   6.254   3.477  0.7149  0.6149  0.3875
  935SOL     OW13273   9.443   5.379   2.157 -0.1604 -0.1057  0.6019
  935SOL    HW113274   9.484   5.374   2.065  1.3664 -0.5092  1.2881
  935SOL    HW213275   9.403   5.469   2.170 -1.7246 -0.5347 -1.0165
  936SOL     OW13276   2.960   5.322   1.522 -0.0629  0.2041 -0.2305
  936SOL    HW113277   2.990   5.403   1.573  0.3238 -1.6279  2.5289
  936SOL    HW213278   2.882   5.346   1.465  0.1357  2.5635  0.4229
  937SOL     OW13279   9.289   8.100   0.905  0.1371 -0.3224  0.1785
  937SOL    HW113280   9.294   8.047   0.820 -0.9688  2.1572 -1.5057
  937SOL    HW213281   9.335   8.188   0.892  0.4409 -0.1331  2.3441
  938SOL     OW13282   3.000   4.113   0.912 -0.0406  0.4081 -0.4312
  938SOL    HW113283   2.905   4.096   0.886  0.1750 -1.7581  0.0911
  938SOL    HW213284   3.038   4.031   0.955  1.4702  1.8916  1.1456
  939SOL     OW13285   2.362   9.840   2.158  0.3283  0.4075  0.2774
  939SOL    HW113286   2.412   9.853   2.073  0.4834  2.0254  0.6076
  939SOL    HW213287   2.410   9.774   2.215  0.2850 -0.5973 -0.8296
  940SOL     OW13288   0.613   1.096   3.839 -0.1600 -0.1895 -0.0869
  940SOL    HW113289   0.594   1.071   3.744  0.0225 -0.3148 -0.0912
  940SOL    HW213290   0.653   1.188   3.842 -0.4752 -0.0518 -0.1034
  941SOL     OW13291   9.384   2.492   3.101 -0.4875  0.3554  0.7813
  941SOL    HW113292   9.419   2.410   3.057 -0.1307  0.1328  1.4717
  941SOL    HW213293   9.294   2.473   3.140  0.0158  0.0028  1.7914
  942SOL     OW13294   3.251   2.230   3.250  0.1707  0.1133  0.1454
  942SOL    HW113295   3.331   2.284   3.276 -1.0399  1.6754  0.6939
  942SOL    HW213296   3.247   2.224   3.150  0.7352  0.3993  0.1000
  943SOL     OW13297   0.538   7.714   2.650  0.1980  0.0094 -0.5410
  943SOL    HW113298   0.619   7.732   2.593  0.8220 -1.5882 -0.2015
  943SOL    HW213299   0.567   7.667   2.734 -1.1534 -1.2037 -0.7432
  944SOL     OW13300   2.503   8.207   2.459 -0.4075 -0.2445 -0.6460
  944SOL    HW113301   2.405   8.200   2.475 -0.2925 -0.4100 -0.0205
  944SOL    HW213302   2.553   8.152   2.526  0.2666  2.4283  1.1402
  945SOL     OW13303   0.965   6.646   2.695 -0.2138  0.0579 -0.1061
  945SOL    HW113304   0.948   6.556   2.654  3.5858 -0.9837  0.4331
  945SOL    HW213305   1.037   6.693   2.644  0.6266  1.0940  1.9585
  946SOL     OW13306   7.279   7.451   1.764 -0.4842 -0.3104 -0.5898
  946SOL    HW113307   7.354   7.451   1.698 -0.3477 -0.4831 -0.4366
  946SOL    HW213308   7.195   7.479   1.719 -0.3588 -0.2692 -0.8000
  947SOL     OW13309   8.273   6.218   1.248  0.2153 -0.1035 -0.6574
  947SOL    HW113310   8.212   6.201   1.326  0.0146  1.6801 -0.4021
  947SOL    HW213311   8.353   6.159   1.255 -0.3536 -0.7752  0.2848
  948SOL     OW13312   2.335   5.353   2.864 -0.2754 -0.2586 -0.2311
  948SOL    HW113313   2.381   5.276   2.820 -1.1755 -0.1397 -1.4053
  948SOL    HW213314   2.395   5.433   2.864  1.0266 -1.1851  1.8236
  949SOL     OW13315   9.663   3.526   1.101 -0.0671  0.2388 -0.0408
  949SOL    HW113316   9.599   3.600   1.121 -1.4980 -1.1545  0.5884
  949SOL    HW213317   9.655   3.455   1.170  1.4400 -0.4266 -0.5286
  950SOL     OW13318   7.337   2.039   0.049 -0.3215 -0.2556 -0.4146
  950SOL    HW113319   7.245   2.003   0.040  0.0369 -0.9756 -1.3497
  950SOL    HW213320   7.334   2.139   0.053 -1.0776 -0.2366 -1.3613
  951SOL     OW13321   1.098   3.056   0.107 -0.0034 -0.1799 -0.1894
  951SOL    HW113322   1.037   3.037   0.030  1.0856 -0.0095 -1.0996
  951SOL    HW213323   1.187   3.014   0.091  0.8504  1.4815  0.0838
  952SOL     OW13324   1.019   6.152   1.102  0.4982 -0.0910  0.2105
  952SOL    HW113325   0.931   6.187   1.135  1.0633  0.0532  1.6150
  952SOL    HW213326   1.012   6.053   1.089 -0.6319  0.2727 -2.2313
  953SOL     OW13327   2.613   0.392   4.037  0.3230 -0.5251 -0.2646
  953SOL    HW113328   2.678   0.442   4.094  0.6843  1.7663 -2.5885
  953SOL    HW213329   2.663   0.330   3.976  0.3175  0.6977 -1.5369
  954SOL     OW13330   8.632   0.025   2.942 -0.4769 -0.2542 -0.1374
  954SOL    HW113331   8.552   0.001   2.998  0.3438 -0.9327  0.7579
  954SOL    HW213332   8.678   0.104   2.981 -0.4325 -0.1612 -0.3800
  955SOL     OW13333   8.300   5.261   2.754 -0.2677 -0.0432  0.3285
  955SOL    HW113334   8.300   5.237   2.656  0.9917 -0.1079  0.3376
  955SOL    HW213335   8.263   5.184   2.806  0.1728 -0.4798  0.0056
  956SOL     OW13336   4.800   2.851   1.245 -0.2480  0.2417  0.0722
  956SOL    HW113337   4.818   2.932   1.189 -1.3900  0.1125 -0.4972
  956SOL    HW213338   4.701   2.839   1.255 -0.1762 -2.3081 -1.6852
  957SOL     OW13339   3.627   7.124   3.760  0.2930 -0.0170  0.2127
  957SOL    HW113340   3.575   7.163   3.683 -0.0777 -0.9156  0.0009
  957SOL    HW213341   3.569   7.060   3.810  0.5932  0.4330  1.1511
  958SOL     OW13342   9.621   3.433   1.814  0.2241 -0.0613 -0.3110
  958SOL    HW113343   9.609   3.486   1.731 -1.2313 -0.3397 -0.2908
  958SOL    HW213344   9.598   3.337   1.797  2.8750 -0.7086 -0.3593
  959SOL     OW13345   0.893   6.842   2.427 -0.0663  0.4351  0.3067
  959SOL    HW113346   0.871   6.853   2.330  1.5955  0.1442 -0.1197
  959SOL    HW213347   0.984   6.801   2.436 -0.6614 -0.5587  1.9813
  960SOL     OW13348   3.412   9.665   3.133  0.6560 -0.3244 -0.4308
  960SOL    HW113349   3.422   9.762   3.109  0.8097 -0.6802 -1.8281
  960SOL    HW213350   3.326   9.629   3.096  0.8795 -0.8677 -0.4342
  961SOL     OW13351   1.101   4.063   0.529 -0.0730  0.0340 -0.0991
  961SOL    HW113352   1.162   3.999   0.482  0.5939 -0.1001  0.9540
  961SOL    HW213353   1.079   4.138   0.467  0.7052 -0.2071 -0.6789
  962SOL     OW13354   7.779   1.330   0.742 -0.6109  0.7005  0.1973
  962SOL    HW113355   7.688   1.302   0.773 -0.3048  0.7141  1.1212
  962SOL    HW213356   7.839   1.342   0.821  0.3648  0.0993 -0.4466
  963SOL     OW13357   8.981   7.511   4.013  0.7813  0.3286 -0.4272
  963SOL    HW113358   9.003   7.584   4.077  1.5302  0.2051 -0.5417
  963SOL    HW213359   8.944   7.551   3.929  1.6501  0.6079 -0.6792
  964SOL     OW13360   0.976   4.080   3.790 -0.1701 -0.0824 -0.0351
  964SOL    HW113361   0.911   4.013   3.755 -1.2471  0.7627  0.3309
  964SOL    HW213362   1.045   4.034   3.847  0.8866 -1.2898 -2.2266
  965SOL     OW13363   2.413   4.999   2.930  0.0264 -0.0695 -0.2527
  965SOL    HW113364   2.344   4.937   2.893  1.5983 -0.9542 -1.7706
  965SOL    HW213365   2.428   5.075   2.867  1.3045 -0.5353 -0.5248
  966SOL     OW13366   3.557   7.383   3.101  0.1732  0.1891 -0.1833
  966SOL    HW113367   3.506   7.314   3.152 -0.9816  0.9275 -0.3161
  966SOL    HW213368   3.493   7.440   3.048  1.2608  0.1373 -1.5888
  967SOL     OW13369   7.478   8.535   0.613  0.1773 -0.1235  0.5637
  967SOL    HW113370   7.553   8.591   0.578 -0.5968  1.1449  0.9058
  967SOL    HW213371   7.405   8.594   0.647 -1.6661 -1.3092 -1.1611
  968SOL     OW13372   1.969   3.756   3.602  0.2610  0.1865  0.7573
  968SOL    HW113373   1.968   3.855   3.618 -0.2153 -0.1146  2.6879
  968SOL    HW213374   1.897   3.713   3.656  0.9155 -1.2993  0.4599
  969SOL     OW13375   8.598   6.989   2.764  0.0553  0.0735  0.1622
  969SOL    HW113376   8.643   6.986   2.675 -0.4200 -0.8350 -0.0595
  969SOL    HW213377   8.499   6.985   2.751  0.0383 -2.7282  0.8141
  970SOL     OW13378   4.793   3.433   0.591  0.2159 -0.3643  0.7010
  970SOL    HW113379   4.793   3.508   0.523 -0.0648 -0.6169  0.4176
  970SOL    HW213380   4.709   3.438   0.645  1.9557  1.8936  3.3431
  971SOL     OW13381   8.948   1.035   1.953  0.1519  0.3518 -0.5504
  971SOL    HW113382   9.044   1.053   1.971 -0.2259  1.5270  0.4412
  971SOL    HW213383   8.917   1.089   1.875  0.0193  0.8810 -0.1358
  972SOL     OW13384   9.557   0.863   1.515  0.4406 -0.5518 -0.0056
  972SOL    HW113385   9.500   0.936   1.478 -1.1670 -1.1483  1.2314
  972SOL    HW213386   9.622   0.901   1.581 -1.0598 -0.3472  1.3821
  973SOL     OW13387   2.587   3.761   3.305  0.0100  0.2451  0.0142
  973SOL    HW113388   2.652   3.704   3.356  0.2577 -0.0927 -0.6770
  973SOL    HW213389   2.495   3.724   3.314  0.0838  0.0686  0.0370
  974SOL     OW13390   4.223   9.567   1.920  0.0837  0.0088  0.0040
  974SOL    HW113391   4.155   9.496   1.938  1.3018 -0.5013  2.8307
  974SOL    HW213392   4.286   9.535   1.848  0.7917 -1.9111  1.4396
  975SOL     OW13393   8.555   3.368   2.905  0.0918  0.0609  0.3985
  975SOL    HW113394   8.614   3.303   2.953  0.3504 -0.1960 -0.2650
  975SOL    HW213395   8.605   3.455   2.894  0.1977 -0.0270  0.1897
  976SOL     OW13396   0.505   3.555   0.994 -0.2768  0.4116 -0.3348
  976SOL    HW113397   0.532   3.463   0.965 -0.4642  0.7816 -1.7232
  976SOL    HW213398   0.540   3.572   1.087 -0.7806 -1.2760  0.1840
  977SOL     OW13399   6.314   9.031   2.593  0.0208  0.2447  0.2366
  977SOL    HW113400   6.309   9.093   2.515 -1.2994  0.6365  0.6158
  977SOL    HW213401   6.248   8.957   2.581  1.0194 -0.6443  0.1697
  978SOL     OW13402   1.146   6.447   1.755  0.1109 -0.6881 -0.9656
  978SOL    HW113403   1.105   6.524   1.804  0.8758 -0.9818  0.1735
  978SOL    HW213404   1.083   6.369   1.756 -0.6221 -0.1172 -2.0308
  979SOL     OW13405   1.718   8.148   2.843 -0.1773  0.2989 -0.2275
  979SOL    HW113406   1.714   8.239   2.883  0.1969 -0.2766  1.1560
  979SOL    HW213407   1.642   8.136   2.779 -1.6951  0.7010  1.4716
  980SOL     OW13408   1.289   9.685   1.764  0.4811 -0.0876  0.1117
  980SOL    HW113409   1.368   9.721   1.814  0.4389 -1.4221  1.1688
  980SOL    HW213410   1.320   9.629   1.687  0.5870 -0.8414  0.6929
  981SOL     OW13411   9.389   9.359   2.056 -0.1264  0.3046 -0.2050
  981SOL    HW113412   9.392   9.317   2.147  1.7122 -0.3578 -0.5454
  981SOL    HW213413   9.339   9.299   1.993  2.3811 -1.3955 -0.6586
  982SOL     OW13414   2.973   8.310   1.762  0.2264 -0.0138  0.1243
  982SOL    HW113415   2.965   8.225   1.815  1.2990  0.8328  1.7036
  982SOL    HW213416   3.048   8.364   1.799  0.1293  1.2112 -1.4609
  983SOL     OW13417   1.703   4.056   1.018  0.3359 -0.0315  0.4514
  983SOL    HW113418   1.611   4.095   1.019 -0.8215 -2.6938  2.1300
  983SOL    HW213419   1.724   4.024   0.925  0.1235  1.7776 -0.2421
  984SOL     OW13420   8.095   8.276   2.819 -0.6007  0.0324  0.2989
  984SOL    HW113421   8.154   8.330   2.880 -1.0515  1.2992 -0.3639
  984SOL    HW213422   8.147   8.252   2.737 -0.6256  0.1068  0.2603
  985SOL     OW13423   9.659   6.388   0.810 -0.0660 -0.5354 -0.2758
  985SOL    HW113424   9.608   6.430   0.735  0.0549 -0.6464 -0.4195
  985SOL    HW213425   9.756   6.384   0.787  0.0406 -0.1149  0.0960
  986SOL     OW13426   9.376   2.229   3.988  0.3255  0.2366  0.4361
  986SOL    HW113427   9.438   2.205   4.063 -1.6305 -1.5792  1.5456
  986SOL    HW213428   9.387   2.164   3.914  1.0811  1.0545 -0.1816
  987SOL     OW13429   1.746   3.268   1.892  0.3208  0.2720 -0.4419
  987SOL    HW113430   1.807   3.195   1.861 -0.4383 -0.1087 -1.0585
  987SOL    HW213431   1.658   3.260   1.845 -0.5275  0.2763  1.1121
  988SOL     OW13432   2.380   6.514   2.295  0.6397 -0.0039 -0.2853
  988SOL    HW113433   2.421   6.445   2.354  1.6022  1.9909  1.4764
  988SOL    HW213434   2.353   6.593   2.351 -2.4553  0.1839 -1.8934
  989SOL     OW13435   3.669   4.011   1.952  0.3059 -0.0158  0.6001
  989SOL    HW113436   3.674   4.057   2.041  0.6431  0.8880  0.1182
  989SOL    HW213437   3.574   4.012   1.920  0.2830  0.1924  0.6706
  990SOL     OW13438   8.025   2.880   0.619 -0.3925 -0.1323  0.4056
  990SOL    HW113439   8.072   2.941   0.555  1.7392 -1.6016  0.5402
  990SOL    HW213440   8.013   2.790   0.577 -0.4969 -0.6165  1.4611
  991SOL     OW13441   3.945   1.487   1.401 -0.8271 -0.2187 -0.1399
  991SOL    HW113442   3.985   1.472   1.311 -1.3637  0.8045 -0.5564
  991SOL    HW213443   4.019   1.496   1.469 -0.4457 -1.8366 -0.3252
  992SOL     OW13444   3.371   4.551   2.988 -0.5614 -0.3451  0.3087
  992SOL    HW113445   3.440   4.563   3.059  1.3064 -0.3369 -1.4669
  992SOL    HW213446   3.281   4.538   3.030  0.6020 -0.9228  2.6656
  993SOL     OW13447   2.133   4.740   3.179  0.0985  0.6384  0.1469
  993SOL    HW113448   2.053   4.712   3.232  0.9093 -1.9431  0.0990
  993SOL    HW213449   2.212   4.746   3.239  0.6431 -0.5592 -0.4223
  994SOL     OW13450   8.469   0.745   2.290  0.2736 -0.3178  0.4852
  994SOL    HW113451   8.469   0.655   2.334  1.7839  0.1472  1.4782
  994SOL    HW213452   8.539   0.746   2.218 -0.0713 -0.0841  0.1516
  995SOL     OW13453   7.573   0.019   2.248  0.2940  0.3030  0.1849
  995SOL    HW113454   7.669   0.037   2.226  0.7345  0.2210  1.9281
  995SOL    HW213455   7.529  -0.029   2.172  1.3774  1.2054 -1.0168
  996SOL     OW13456   8.859   1.790   1.564 -0.1268 -0.2125 -0.3689
  996SOL    HW113457   8.929   1.851   1.524 -0.1518  1.4031  1.9411
  996SOL    HW213458   8.809   1.745   1.490  1.9595  0.2046 -2.1067
  997SOL     OW13459   9.776   3.373   3.723 -0.2333 -0.3041  0.5629
  997SOL    HW113460   9.783   3.454   3.781 -0.1256 -0.4649  0.7722
  997SOL    HW213461   9.861   3.362   3.671  0.5534 -1.4756  2.0884
  998SOL     OW13462   3.001   6.999   2.088 -0.2234 -0.4362 -0.3214
  998SOL    HW113463   2.985   7.045   2.000  0.2497 -1.4161 -0.9275
  998SOL    HW213464   2.929   7.026   2.152 -1.4688 -0.9052 -1.4883
  999SOL     OW13465   1.687   0.060   2.982  0.3515  0.0410  0.2903
  999SOL    HW113466   1.773   0.095   2.946 -0.3041  1.7745  0.3699
  999SOL    HW213467   1.676  -0.036   2.955  1.8514  0.0825 -0.5145
 1000SOL     OW13468   7.497   7.312   2.679  0.2618  0.6674 -0.0992
 1000SOL    HW113469   7.438   7.231   2.674  0.0701  0.8236 -0.3938
 1000SOL    HW213470   7.459   7.377   2.746  0.1223  0.7461 -0.2523
 1001SOL     OW13471   0.150   5.007   2.580 -0.2734  0.3423  0.1966
 1001SOL    HW113472   0.164   5.083   2.516  0.8184 -0.2258 -0.2427
 1001SOL    HW213473   0.067   4.957   2.555 -0.4974  0.8443 -0.0587
 1002SOL     OW13474   3.042   9.128   0.263 -0.2391  0.1442  0.3491
 1002SOL    HW113475   2.993   9.214   0.245  0.0737 -0.3948 -3.4778
 1002SOL    HW213476   3.137   9.149   0.287 -0.2010  0.8894 -0.4253
 1003SOL     OW13477   7.228   9.569   2.206  0.0124  0.2628  0.8067
 1003SOL    HW113478   7.158   9.638   2.224 -0.6626 -0.1655 -0.1170
 1003SOL    HW213479   7.254   9.571   2.110  0.7594 -0.0661  0.9885
 1004SOL     OW13480   8.101   8.538   4.008 -0.1943  0.2948  0.1193
 1004SOL    HW113481   8.011   8.497   3.998  0.8098 -2.5165  1.8361
 1004SOL    HW213482   8.167   8.488   3.953  0.6155  1.2310  0.2221
 1005SOL     OW13483   3.556   9.338   0.004 -0.0820  0.3028  0.0210
 1005SOL    HW113484   3.568   9.427  -0.040  1.0359 -0.6352 -1.6433
 1005SOL    HW213485   3.532   9.270  -0.066 -1.0024 -0.6983  1.2869
 1006SOL     OW13486   3.117   0.625   0.412  0.8067  0.7803  0.6968
 1006SOL    HW113487   3.108   0.689   0.488  0.9289 -0.6169  1.8999
 1006SOL    HW213488   3.046   0.643   0.344 -0.1908  1.0955  1.8237
 1007SOL     OW13489   0.412   9.452   2.570 -0.2803  0.2491  0.1618
 1007SOL    HW113490   0.494   9.395   2.568  0.8055  1.6392  2.1420
 1007SOL    HW213491   0.394   9.489   2.479  0.0085 -1.8241 -0.7550
 1008SOL     OW13492   7.036   9.365   2.168 -0.3529  0.5490 -0.1309
 1008SOL    HW113493   7.111   9.431   2.172 -0.7850  1.0612 -0.4896
 1008SOL    HW213494   6.950   9.411   2.191 -0.2809 -0.4752  2.3632
 1009SOL     OW13495   0.324   9.449   0.171 -0.1989  0.6831  0.1741
 1009SOL    HW113496   0.376   9.377   0.217  1.1519  1.1380 -0.6059
 1009SOL    HW213497   0.264   9.407   0.102  0.3159  0.2672 -0.0295
 1010SOL     OW13498   3.477   2.387   3.356  0.1851 -0.2676 -0.3438
 1010SOL    HW113499   3.561   2.439   3.342  1.4151 -1.6574  1.6539
 1010SOL    HW213500   3.430   2.420   3.438 -0.6047 -0.3167 -0.7647
 1011SOL     OW13501   1.191   3.035   1.116  0.2060 -0.3191  0.4778
 1011SOL    HW113502   1.171   3.088   1.199  1.3751 -1.5476  1.5736
 1011SOL    HW213503   1.171   2.939   1.133 -0.4361 -0.4493 -0.9883
 1012SOL     OW13504   4.449   8.248   1.796 -0.2149  0.0958  0.0569
 1012SOL    HW113505   4.359   8.222   1.761 -0.2363  0.1609  0.0639
 1012SOL    HW213506   4.445   8.253   1.896  0.2865 -1.7874  0.1882
 1013SOL     OW13507   2.726   9.910   0.659  0.1914  0.1490  0.0633
 1013SOL    HW113508   2.663   9.927   0.583  0.4501 -1.7024 -0.5791
 1013SOL    HW213509   2.698   9.828   0.708  1.9852 -0.5632 -0.0800
 1014SOL     OW13510   0.809   5.946   0.913  0.0593  0.1248  0.3210
 1014SOL    HW113511   0.776   5.865   0.864 -0.3815  0.5348 -0.0794
 1014SOL    HW213512   0.861   5.918   0.993 -2.4740 -0.5685  1.7978
 1015SOL     OW13513   8.745   0.033   3.747  0.3576  0.1533  0.7157
 1015SOL    HW113514   8.682  -0.041   3.722  1.3635 -0.0317 -1.4525
 1015SOL    HW213515   8.834  -0.006   3.772  0.9390  0.6051 -0.5845
 1016SOL     OW13516   1.100   6.699   1.488  0.4900  0.1241  0.5472
 1016SOL    HW113517   1.085   6.616   1.434 -0.5042  0.0479  0.9219
 1016SOL    HW213518   1.130   6.675   1.580 -1.0007  0.1219  1.0437
 1017SOL     OW13519   8.112   2.088   2.022  0.1924 -0.2756  0.1968
 1017SOL    HW113520   8.194   2.076   1.965 -0.7466  0.7606 -1.4131
 1017SOL    HW213521   8.080   1.999   2.054  0.0796 -0.9847 -1.8342
 1018SOL     OW13522   7.402   9.398   1.091 -0.2359 -0.1617  0.0073
 1018SOL    HW113523   7.398   9.370   0.996  1.0353 -0.1595 -0.0520
 1018SOL    HW213524   7.340   9.342   1.146  0.9981 -1.9341 -0.3847
 1019SOL     OW13525   4.090   2.053   2.189  0.4629 -0.0951  0.0566
 1019SOL    HW113526   4.029   2.111   2.243 -0.3079 -1.5162  0.7093
 1019SOL    HW213527   4.036   1.994   2.129  1.2111 -0.8106  0.0810
 1020SOL     OW13528   3.105   2.027   2.827 -0.0289  0.2282 -0.2679
 1020SOL    HW113529   3.157   2.096   2.879 -0.9526 -0.1352  1.1446
 1020SOL    HW213530   3.014   2.016   2.867 -0.0797 -1.4429 -0.8117
 1021SOL     OW13531   9.828   6.934   3.402 -0.1838  0.4164  0.1389
 1021SOL    HW113532   9.796   7.028   3.390 -2.4957 -0.6401 -2.7264
 1021SOL    HW213533   9.751   6.876   3.431  0.9928 -0.7820  0.9440
 1022SOL     OW13534   2.516   5.232   0.303 -0.1869  0.5929  0.3176
 1022SOL    HW113535   2.581   5.299   0.338 -2.1672  1.8566  1.7287
 1022SOL    HW213536   2.452   5.207   0.376 -1.0856 -0.8432 -0.9322
 1023SOL     OW13537   4.631   3.047   2.348 -0.4426  0.0242  0.6589
 1023SOL    HW113538   4.676   2.961   2.325 -2.1554 -0.8821  0.6801
 1023SOL    HW213539   4.597   3.091   2.265  1.5504  1.3592  0.4890
 1024SOL     OW13540   0.475   8.398   3.911  0.8183 -0.1702  0.4028
 1024SOL    HW113541   0.414   8.448   3.972  1.6654  0.5556  0.6640
 1024SOL    HW213542   0.450   8.415   3.816  1.1805  0.8405  0.4902
 1025SOL     OW13543   3.073   2.316   2.147 -0.3093 -0.1132  0.8248
 1025SOL    HW113544   2.973   2.320   2.151 -0.2347  2.4639  0.7797
 1025SOL    HW213545   3.112   2.384   2.209  1.4215 -0.6346  0.3430
 1026SOL     OW13546   2.167   5.182   3.776  0.3482  0.1489 -0.1340
 1026SOL    HW113547   2.234   5.161   3.705  0.1216  3.5732 -1.4610
 1026SOL    HW213548   2.100   5.109   3.781  0.9640 -0.6483 -2.7254
 1027SOL     OW13549   9.070   6.280   3.488  0.5473  0.5858 -0.5160
 1027SOL    HW113550   9.073   6.192   3.441 -1.6134  0.1794  0.0553
 1027SOL    HW213551   9.094   6.267   3.584 -1.6185  0.2862 -0.0005
 1028SOL     OW13552   9.614   3.429   0.834  0.1631 -0.5281 -0.2373
 1028SOL    HW113553   9.644   3.459   0.924 -0.6960 -0.8310  0.1492
 1028SOL    HW213554   9.694   3.422   0.773  0.6735  0.1765  0.3431
 1029SOL     OW13555   2.272   6.199   1.591  0.1809 -0.3204  0.2330
 1029SOL    HW113556   2.212   6.267   1.549  0.4361 -0.0497  0.3131
 1029SOL    HW213557   2.367   6.226   1.580  0.3340 -1.2259 -0.7323
 1030SOL     OW13558   9.149   8.541   2.965  0.3626  0.2982 -0.2770
 1030SOL    HW113559   9.214   8.579   2.899 -0.7927  1.3694 -0.8112
 1030SOL    HW213560   9.069   8.600   2.971  0.2169 -0.0554  1.7063
 1031SOL     OW13561   2.382   3.076   3.688 -0.3355  0.5123  0.4505
 1031SOL    HW113562   2.342   3.008   3.626 -1.1739  2.4903 -1.2178
 1031SOL    HW213563   2.458   3.034   3.738 -1.1650 -1.7979 -0.1656
 1032SOL     OW13564   2.189   2.050   3.769 -0.0132 -0.0335  0.1220
 1032SOL    HW113565   2.153   2.143   3.778  1.6010  0.5449  0.8681
 1032SOL    HW213566   2.245   2.029   3.849 -1.0901 -1.9937  0.3981
 1033SOL     OW13567   2.857   9.945   2.414 -0.0028 -0.3562 -0.6158
 1033SOL    HW113568   2.873  10.031   2.366  2.6823  0.7717  2.1129
 1033SOL    HW213569   2.923   9.876   2.384 -1.4889 -1.2198 -2.0400
 1034SOL     OW13570   1.927   1.588   0.826  0.0013  0.1909 -0.0592
 1034SOL    HW113571   1.915   1.687   0.820 -0.4505  0.0765 -1.0725
 1034SOL    HW213572   2.025   1.568   0.833 -0.0037  0.7881  1.8916
 1035SOL     OW13573   3.827   7.701   0.775  0.0007  0.0029 -0.4856
 1035SOL    HW113574   3.853   7.617   0.822 -0.3957 -0.4454 -1.0519
 1035SOL    HW213575   3.843   7.780   0.835  0.1318 -0.4980  0.1421
 1036SOL     OW13576   9.928   3.213   2.105  0.2927  0.4083 -0.3345
 1036SOL    HW113577  10.021   3.194   2.074  0.0496 -0.0148 -0.8035
 1036SOL    HW213578   9.883   3.276   2.041 -0.3445 -0.7839 -1.0731
 1037SOL     OW13579   0.627   6.788   3.465  0.4094 -0.0881  0.2726
 1037SOL    HW113580   0.586   6.878   3.454 -0.0313 -0.3955 -0.6842
 1037SOL    HW213581   0.631   6.764   3.562 -0.8916  0.3067  0.4318
 1038SOL     OW13582   8.881   9.796   3.182 -0.2283  0.3088  0.2581
 1038SOL    HW113583   8.907   9.858   3.109 -0.6233  0.0411 -0.1133
 1038SOL    HW213584   8.869   9.704   3.145 -2.1644  0.5102  0.3144
 1039SOL     OW13585   7.965   9.669   3.211 -0.7098 -0.2878 -0.9925
 1039SOL    HW113586   8.064   9.670   3.227 -0.5521 -0.5974 -1.9319
 1039SOL    HW213587   7.931   9.576   3.220 -0.8587 -0.2366 -1.0279
 1040SOL     OW13588   0.523   6.258   1.166 -0.1929 -0.4419  0.3318
 1040SOL    HW113589   0.493   6.174   1.211 -0.5645 -0.0058  0.9048
 1040SOL    HW213590   0.490   6.337   1.218  2.5034  0.0435  1.3821
 1041SOL     OW13591   9.370   3.241   0.773  0.3291  0.3400  0.2673
 1041SOL    HW113592   9.335   3.253   0.866  1.3931  2.7829  0.4059
 1041SOL    HW213593   9.463   3.279   0.768  0.1290  0.5716 -1.8756
 1042SOL     OW13594   1.741   9.570   3.893 -0.5537  0.2042  0.3549
 1042SOL    HW113595   1.744   9.652   3.950  2.0049  0.2452  0.2028
 1042SOL    HW213596   1.765   9.490   3.947 -0.8155 -0.1476 -0.0446
 1043SOL     OW13597   3.395   6.884   2.068 -1.0362  0.3312 -0.3098
 1043SOL    HW113598   3.332   6.942   2.120 -0.2861  0.6324  0.2632
 1043SOL    HW213599   3.412   6.926   1.978 -0.0753  1.2770  0.3045
 1044SOL     OW13600   8.278   5.003   2.211  0.2587 -0.5688 -0.6657
 1044SOL    HW113601   8.268   5.084   2.152 -1.7761 -0.5084 -0.2452
 1044SOL    HW213602   8.288   5.033   2.306 -1.7673 -0.8408 -0.3559
 1045SOL     OW13603   2.503   3.868   2.878 -0.3609 -0.3788 -0.0121
 1045SOL    HW113604   2.448   3.786   2.892 -2.0067  1.0010  1.9339
 1045SOL    HW213605   2.444   3.948   2.876  1.3302  0.8933 -0.5982
 1046SOL     OW13606   0.481   2.122   1.200 -0.0585 -0.0339 -0.2642
 1046SOL    HW113607   0.564   2.106   1.254 -0.3094  1.1968  0.5135
 1046SOL    HW213608   0.502   2.184   1.125 -1.0687  3.4734  2.2293
 1047SOL     OW13609   2.033   2.463   3.139  0.0796  0.7958  0.1978
 1047SOL    HW113610   2.083   2.384   3.175 -1.2453  1.0764  2.8290
 1047SOL    HW213611   2.096   2.540   3.130  0.5737  0.5626  1.4892
 1048SOL     OW13612   2.309   0.652   2.126 -0.2147 -0.4341 -0.2325
 1048SOL    HW113613   2.395   0.601   2.122 -1.9178 -3.5713  1.4550
 1048SOL    HW213614   2.310   0.712   2.206  1.0344  0.8373 -1.1657
 1049SOL     OW13615   6.147   0.087   2.464  0.0432  0.3568 -0.1500
 1049SOL    HW113616   6.070   0.136   2.507  0.2666 -1.7158  2.7748
 1049SOL    HW213617   6.111   0.014   2.406 -0.2138  0.7632 -0.5087
 1050SOL     OW13618   9.434   3.866   0.714  0.3407 -0.0178  0.0415
 1050SOL    HW113619   9.479   3.799   0.654  0.7324 -0.7162  1.1046
 1050SOL    HW213620   9.490   3.880   0.796 -0.1710  0.9707  0.2269
 1051SOL     OW13621   9.642   7.087   2.320 -0.4238  0.4887  0.5377
 1051SOL    HW113622   9.642   6.989   2.336  0.4497  0.4487  0.3137
 1051SOL    HW213623   9.681   7.134   2.399  0.5426  0.5458  0.0291
 1052SOL     OW13624   3.888   8.504   3.538  0.2449 -0.5327 -0.0230
 1052SOL    HW113625   3.960   8.534   3.602  0.0203 -0.0332 -0.0040
 1052SOL    HW213626   3.885   8.404   3.537 -0.4004 -0.5378  1.4750
 1053SOL     OW13627   3.246   0.783   0.859 -0.2886 -0.2275  0.5526
 1053SOL    HW113628   3.158   0.804   0.900 -1.4764 -0.8066 -1.6410
 1053SOL    HW213629   3.247   0.688   0.829  0.0936  0.4943 -1.8169
 1054SOL     OW13630   4.223   2.557   0.337 -0.2601 -0.5055  0.3891
 1054SOL    HW113631   4.273   2.621   0.395 -1.3854 -0.1391  0.9624
 1054SOL    HW213632   4.169   2.607   0.270  1.5793 -0.9422 -1.4503
 1055SOL     OW13633   6.447   6.696   2.422 -0.5800 -0.0677 -0.1912
 1055SOL    HW113634   6.352   6.673   2.442 -0.7255  0.0509 -0.7195
 1055SOL    HW213635   6.464   6.792   2.445 -0.3566 -0.3230  0.7002
 1056SOL     OW13636   3.020   5.572   1.611 -0.6678  0.2460 -0.4166
 1056SOL    HW113637   2.940   5.602   1.664 -1.4828 -0.3757 -1.2716
 1056SOL    HW213638   3.030   5.630   1.531 -1.8080 -1.2491 -1.6788
 1057SOL     OW13639   2.127   1.308   1.555 -0.5000 -0.3827  0.2945
 1057SOL    HW113640   2.211   1.273   1.597  1.3983 -0.2835 -3.1823
 1057SOL    HW213641   2.048   1.261   1.594  1.2980 -1.8860  2.2675
 1058SOL     OW13642   1.011   9.738   0.377  0.0192 -0.4040  0.1581
 1058SOL    HW113643   1.086   9.699   0.323 -0.1720  0.4081 -0.7010
 1058SOL    HW213644   0.998   9.833   0.352 -0.9734 -0.3988  0.6724
 1059SOL     OW13645   2.517   3.872   2.141  0.1639 -0.3057  0.2136
 1059SOL    HW113646   2.436   3.868   2.199  0.4818 -0.5345  0.6434
 1059SOL    HW213647   2.490   3.869   2.045 -0.2856 -1.3675  0.3650
 1060SOL     OW13648   2.675   2.545   2.205  0.4375  0.1117  0.0329
 1060SOL    HW113649   2.712   2.457   2.173 -0.1484 -0.6811  1.5310
 1060SOL    HW213650   2.713   2.566   2.295 -1.5066  0.0630  0.8889
 1061SOL     OW13651   8.369   5.840   2.544 -0.2321  0.4371 -0.5071
 1061SOL    HW113652   8.389   5.923   2.492  1.5175  1.0175  1.0214
 1061SOL    HW213653   8.441   5.826   2.612 -2.0422 -0.7548  1.1932
 1062SOL     OW13654   7.658   9.769   3.056 -0.1319 -0.1859  0.5366
 1062SOL    HW113655   7.602   9.779   2.974  0.4872  0.3202  0.1773
 1062SOL    HW213656   7.739   9.826   3.049 -0.6491  0.7489  2.0121
 1063SOL     OW13657   7.803   5.873   2.251 -0.1776  0.0236 -0.1945
 1063SOL    HW113658   7.817   5.818   2.333 -1.8361 -0.7781 -0.4223
 1063SOL    HW213659   7.783   5.967   2.276  1.9656  0.3969  0.2221
 1064SOL     OW13660   8.424   5.739   2.254  0.0572 -0.5041 -0.5093
 1064SOL    HW113661   8.398   5.713   2.347  1.3309 -0.7220 -0.2152
 1064SOL    HW213662   8.502   5.685   2.224  0.4565  0.4570 -1.2376
 1065SOL     OW13663   3.584   2.693   1.994  0.2652  0.3925  0.0594
 1065SOL    HW113664   3.626   2.644   1.918 -0.3753 -1.4589  0.8690
 1065SOL    HW213665   3.557   2.785   1.965  1.5137  0.2811 -1.4729
 1066SOL     OW13666   9.357   2.155   1.744 -0.7497  0.2359  0.1732
 1066SOL    HW113667   9.311   2.125   1.828 -0.8012 -1.8423 -0.5804
 1066SOL    HW213668   9.444   2.108   1.735  0.0214  1.6907 -0.1084
 1067SOL     OW13669   2.645   7.467   3.386 -0.5440  0.2438 -0.2715
 1067SOL    HW113670   2.704   7.392   3.354 -0.6241  0.3767 -0.7379
 1067SOL    HW213671   2.549   7.439   3.377 -0.5326 -0.3817  1.4991
 1068SOL     OW13672   3.694   9.868   0.127  0.5771 -0.0956  0.2338
 1068SOL    HW113673   3.725   9.794   0.187 -0.6528 -1.3236 -0.6283
 1068SOL    HW213674   3.764   9.886   0.058  0.0890 -1.7443 -0.7069
 1069SOL     OW13675   8.438   8.581   3.475  0.0046 -0.0018  1.0422
 1069SOL    HW113676   8.529   8.570   3.514  0.7189  0.5236 -0.4476
 1069SOL    HW213677   8.428   8.673   3.438 -0.1738 -0.9237 -1.2393
 1070SOL     OW13678   3.136   0.320   2.276 -0.3208  0.3665  0.2390
 1070SOL    HW113679   3.156   0.384   2.202 -1.1036 -0.3114 -0.5842
 1070SOL    HW213680   3.054   0.267   2.252  0.7964 -1.5277  0.5131
 1071SOL     OW13681   1.030   2.161   3.475 -0.9195  0.0495  0.2339
 1071SOL    HW113682   1.045   2.121   3.385  1.4959 -1.3896  1.2331
 1071SOL    HW213683   1.118   2.179   3.519 -2.0591  1.1542  2.1222
 1072SOL     OW13684   0.086   7.780   0.244  0.0316 -0.3915 -0.2470
 1072SOL    HW113685   0.149   7.793   0.321  1.6820 -0.9655 -1.4589
 1072SOL    HW213686   0.139   7.758   0.162 -1.7173  0.0759 -1.5139
 1073SOL     OW13687  10.000   3.747   3.405 -0.2714 -0.6487  0.3515
 1073SOL    HW113688   9.965   3.787   3.490 -0.7923 -0.6858  0.1593
 1073SOL    HW213689   9.949   3.662   3.386 -1.0280  0.0305 -0.6651
 1074SOL     OW13690   3.076   7.062   1.777 -0.0897 -0.1748 -0.1913
 1074SOL    HW113691   3.137   6.984   1.787  1.6694  0.7809 -3.0049
 1074SOL    HW213692   2.990   7.032   1.735 -0.9021 -1.2061  2.1481
 1075SOL     OW13693   4.121   9.644   1.618 -0.1264  0.4520 -0.1931
 1075SOL    HW113694   4.201   9.595   1.653 -0.7274 -0.7715 -0.5058
 1075SOL    HW213695   4.038   9.602   1.655 -0.6516  1.2534 -0.4519
 1076SOL     OW13696   1.377   3.233   0.752  0.3374  0.0260  0.2977
 1076SOL    HW113697   1.402   3.319   0.708 -0.6318  0.4792  0.6290
 1076SOL    HW213698   1.440   3.214   0.827  0.3854  0.5690  0.3915
 1077SOL     OW13699   2.302   0.884   3.526  0.2002 -0.7039  0.2904
 1077SOL    HW113700   2.213   0.841   3.537  0.1845 -0.2161  2.2818
 1077SOL    HW213701   2.372   0.830   3.573  0.9344 -0.9414 -1.0336
 1078SOL     OW13702   5.694   9.723   1.326 -0.5854  0.5344  0.1832
 1078SOL    HW113703   5.653   9.655   1.387  0.8787  0.5218  1.1969
 1078SOL    HW213704   5.777   9.685   1.285 -0.8472  1.0148 -0.8053
 1079SOL     OW13705   2.861   5.153   2.896 -0.4866  0.0166  0.2605
 1079SOL    HW113706   2.796   5.136   2.970  0.2147  0.9990  1.1303
 1079SOL    HW213707   2.891   5.249   2.899  1.8991 -0.6976  0.6381
 1080SOL     OW13708   8.576   9.383   3.269 -0.5462 -0.5056  0.0893
 1080SOL    HW113709   8.540   9.470   3.301 -0.8679 -1.1551  1.5393
 1080SOL    HW213710   8.676   9.381   3.281 -0.5481 -0.3570  0.1251
 1081SOL     OW13711   2.638   2.920   3.544 -0.6440  0.5135 -0.3562
 1081SOL    HW113712   2.665   2.991   3.610 -1.6593  1.3278 -0.7911
 1081SOL    HW213713   2.719   2.886   3.497 -0.0272  0.6913  0.5474
 1082SOL     OW13714   3.688   1.012   0.307 -0.0004  0.6290  0.3331
 1082SOL    HW113715   3.618   0.947   0.278 -0.9865  0.9004  2.0311
 1082SOL    HW213716   3.773   0.963   0.328 -0.5745 -0.0440  1.0985
 1083SOL     OW13717   7.479   9.564   3.003 -0.4325  0.0514 -0.2071
 1083SOL    HW113718   7.576   9.565   3.027 -0.6091 -0.2156  0.5380
 1083SOL    HW213719   7.468   9.566   2.904  0.3202  1.6592 -0.2642
 1084SOL     OW13720   0.552   0.029   1.044  0.1943  0.3913 -0.0888
 1084SOL    HW113721   0.584   0.107   1.098 -0.1467  0.3360  0.1957
 1084SOL    HW213722   0.475   0.057   0.987 -1.4080 -0.2738  1.6911
 1085SOL     OW13723   8.608   0.468   2.864  0.3067 -0.7260  0.2780
 1085SOL    HW113724   8.694   0.424   2.838  0.6562 -0.1651  0.4629
 1085SOL    HW213725   8.557   0.408   2.925  0.9752 -0.7128  0.8644
 1086SOL     OW13726   9.665   2.356   0.951  0.1610  0.1668  0.3025
 1086SOL    HW113727   9.697   2.311   0.867  0.0019  1.0670 -0.2455
 1086SOL    HW213728   9.707   2.447   0.958 -0.7596  0.5724  0.5900
 1087SOL     OW13729   4.134   3.278   0.634 -0.1712  0.1337 -0.0269
 1087SOL    HW113730   4.086   3.222   0.566  2.3189  1.4646 -3.0154
 1087SOL    HW213731   4.111   3.374   0.621  2.7412  0.7533 -1.1812
 1088SOL     OW13732   3.873   7.977   1.688  0.0622 -0.5299 -0.7220
 1088SOL    HW113733   3.837   7.887   1.715  0.6827 -1.0015 -1.4261
 1088SOL    HW213734   3.911   8.022   1.769 -1.1032 -0.4964 -0.1894
 1089SOL     OW13735   0.455   2.665   0.307 -0.2247 -0.0821 -0.3373
 1089SOL    HW113736   0.526   2.596   0.293 -0.8764 -0.8209 -0.1119
 1089SOL    HW213737   0.495   2.756   0.305  0.3291 -0.3338 -2.9287
 1090SOL     OW13738   0.504   4.135   2.394 -0.2617 -0.1912  0.2555
 1090SOL    HW113739   0.594   4.178   2.381 -0.4594  0.0547 -0.3192
 1090SOL    HW213740   0.507   4.041   2.360 -1.1137  0.8216 -2.8216
 1091SOL     OW13741   5.918   9.495   1.498  0.4436 -0.6550 -0.1680
 1091SOL    HW113742   5.821   9.486   1.475  0.5215  0.3325 -0.9277
 1091SOL    HW213743   5.968   9.529   1.418  1.2447 -0.1811  0.5300
 1092SOL     OW13744   8.137   9.069   1.813  0.2414  0.0025  0.2769
 1092SOL    HW113745   8.172   9.151   1.768 -0.9973  0.6646  0.5011
 1092SOL    HW213746   8.211   9.025   1.865  0.9901  0.7836 -0.1217
 1093SOL     OW13747   8.419   4.072   1.119 -0.6390 -0.0725 -0.2182
 1093SOL    HW113748   8.398   4.099   1.213  1.2633 -0.8502  0.4324
 1093SOL    HW213749   8.412   3.973   1.109 -0.1824 -0.0585 -0.7319
 1094SOL     OW13750   1.575   9.149   1.987  0.0078  0.1927  0.1423
 1094SOL    HW113751   1.671   9.178   1.989 -0.3820  1.4633  2.1035
 1094SOL    HW213752   1.519   9.221   1.947 -0.5189  0.8338  1.9487
 1095SOL     OW13753   7.676   2.761   3.807  0.6425  0.0455 -0.1172
 1095SOL    HW113754   7.743   2.687   3.804  0.0292 -0.5723  1.1500
 1095SOL    HW213755   7.713   2.838   3.859  0.9958  0.3465 -0.8099
 1096SOL     OW13756   9.928   5.043   1.891  0.6014  0.3559 -0.3062
 1096SOL    HW113757   9.978   5.047   1.978 -0.0490 -1.9117  0.2035
 1096SOL    HW213758   9.974   4.979   1.829 -1.2842 -1.2706 -0.0620
 1097SOL     OW13759   3.970   1.437   0.241  0.0659  0.2501  0.1634
 1097SOL    HW113760   3.987   1.340   0.224  0.5321  0.4275 -0.3912
 1097SOL    HW213761   3.956   1.484   0.154 -1.3424  0.4654  0.5010
 1098SOL     OW13762   2.379   9.308   3.146  0.0750 -0.0835  0.2700
 1098SOL    HW113763   2.313   9.384   3.147  0.1927  0.0475 -0.6808
 1098SOL    HW213764   2.471   9.344   3.135  0.1129 -0.3640 -0.3978
 1099SOL     OW13765   4.048   1.112   2.167 -0.4288 -0.0837 -0.1672
 1099SOL    HW113766   4.116   1.046   2.134  2.0930  1.9549  0.7766
 1099SOL    HW213767   4.000   1.073   2.245  2.2868 -0.2149  1.5265
 1100SOL     OW13768   9.639   0.710   2.313  0.5164 -0.4235  0.1594
 1100SOL    HW113769   9.682   0.672   2.394  2.4926  0.9155 -0.2281
 1100SOL    HW213770   9.563   0.769   2.340 -0.6009 -2.1513  0.8861
 1101SOL     OW13771   0.731   8.124   1.297 -0.5176 -0.2917 -0.1293
 1101SOL    HW113772   0.786   8.196   1.255 -0.4912 -0.3679 -0.2260
 1101SOL    HW213773   0.653   8.165   1.344  1.4058  0.0964  2.8545
 1102SOL     OW13774   9.345   4.409   1.539 -0.4303 -0.4404  0.0160
 1102SOL    HW113775   9.402   4.438   1.616  0.2840 -0.7923 -0.3846
 1102SOL    HW213776   9.292   4.328   1.565 -2.1271  0.9525  1.0045
 1103SOL     OW13777   1.514   4.676   2.988  0.0781 -0.0070  0.3874
 1103SOL    HW113778   1.449   4.714   3.054  0.0990 -1.4215  1.2377
 1103SOL    HW213779   1.473   4.678   2.897 -0.4929  0.6832  0.6556
 1104SOL     OW13780   4.285   3.236   2.517  0.1897  0.1201 -0.2192
 1104SOL    HW113781   4.227   3.307   2.558 -1.4771 -0.0511 -2.2138
 1104SOL    HW213782   4.292   3.251   2.418  1.4207 -1.3819 -0.3779
 1105SOL     OW13783   5.314   8.876   2.845 -0.0585 -0.1586 -0.1782
 1105SOL    HW113784   5.263   8.887   2.759 -0.5280  2.7433  0.4125
 1105SOL    HW213785   5.395   8.820   2.829 -1.0605 -1.1066 -2.1274
 1106SOL     OW13786   3.257   5.160   1.599  0.0182  0.7436 -0.2288
 1106SOL    HW113787   3.165   5.197   1.585 -0.0939  0.5131 -0.1145
 1106SOL    HW213788   3.325   5.230   1.577 -0.1619  0.6220 -1.2365
 1107SOL     OW13789   8.249   6.486   3.545 -0.2560  0.1805 -0.0918
 1107SOL    HW113790   8.344   6.499   3.520 -0.0315 -0.6725  0.2913
 1107SOL    HW213791   8.204   6.575   3.556  0.5462  0.5834 -0.0783
 1108SOL     OW13792   2.443   4.144   0.482 -0.3573 -0.1430 -0.2031
 1108SOL    HW113793   2.460   4.238   0.452  0.1524 -0.2844 -0.3525
 1108SOL    HW213794   2.530   4.097   0.496 -0.6180 -0.7269 -0.5423
 1109SOL     OW13795   8.142   8.778   3.196 -0.2242 -0.2550 -0.8046
 1109SOL    HW113796   8.107   8.685   3.188 -0.7876  0.0163 -1.4870
 1109SOL    HW213797   8.172   8.810   3.106  2.1066 -0.6109 -0.1884
 1110SOL     OW13798   2.354   4.757   0.584  0.2215 -0.1236  0.1121
 1110SOL    HW113799   2.420   4.690   0.620 -0.7507 -0.8563  0.5495
 1110SOL    HW213800   2.356   4.839   0.640 -0.0147 -0.5690  0.7765
 1111SOL     OW13801   2.787   9.943   0.076 -0.1984  0.9091 -0.7630
 1111SOL    HW113802   2.716  10.005   0.042  0.1700  1.6299 -0.2303
 1111SOL    HW213803   2.834   9.985   0.154 -0.1288 -0.1602 -0.2148
 1112SOL     OW13804   9.946   5.961   4.004 -0.3711  0.0233  0.3370
 1112SOL    HW113805   9.858   5.949   4.050  0.6224 -1.2296  1.9604
 1112SOL    HW213806  10.003   5.880   4.019  1.6348  1.4501  0.6563
 1113SOL     OW13807   1.698   4.414   2.043 -0.0206  0.0963  0.1871
 1113SOL    HW113808   1.711   4.327   2.090 -0.4952  0.6973  1.4506
 1113SOL    HW213809   1.602   4.442   2.048  0.1552  0.7721 -0.0772
 1114SOL     OW13810   7.981   9.514   2.676  0.0095 -0.1296 -0.7696
 1114SOL    HW113811   8.045   9.584   2.645  2.1334 -1.7927 -0.2153
 1114SOL    HW213812   7.978   9.514   2.776 -0.3339 -0.5333 -0.7783
 1115SOL     OW13813   1.266   0.026   2.650  0.0192 -0.1093  1.3459
 1115SOL    HW113814   1.353  -0.002   2.690  0.3078 -0.4707  0.4833
 1115SOL    HW213815   1.198   0.038   2.722  0.9091  0.6451  2.0704
 1116SOL     OW13816   1.295   2.121   3.573  0.7317  0.1531 -0.0102
 1116SOL    HW113817   1.393   2.138   3.570  0.5764  1.0452 -0.0325
 1116SOL    HW213818   1.265   2.111   3.668  0.8579 -0.2160 -0.0083
 1117SOL     OW13819   0.462   3.733   0.805 -0.4492  0.4872  0.6051
 1117SOL    HW113820   0.483   3.668   0.878  2.3093  1.5722  0.8059
 1117SOL    HW213821   0.406   3.687   0.736 -0.3346 -1.4889  1.7795
 1118SOL     OW13822   2.193   8.586   0.258  0.3687 -0.6209 -0.5870
 1118SOL    HW113823   2.236   8.498   0.240  0.9439 -0.0917 -1.8898
 1118SOL    HW213824   2.095   8.580   0.241  0.4448 -0.9541 -0.9101
 1119SOL     OW13825   9.304   8.447   3.662 -0.0788  0.3009  0.2568
 1119SOL    HW113826   9.234   8.394   3.709  0.3172  1.4215  2.1910
 1119SOL    HW213827   9.266   8.488   3.579 -1.3857 -0.0485  0.6774
 1120SOL     OW13828   3.505   7.120   0.444  0.1296  0.0147  0.4636
 1120SOL    HW113829   3.464   7.044   0.393  0.0015 -0.9105  1.9102
 1120SOL    HW213830   3.444   7.200   0.439 -1.2830 -0.9719  1.5912
 1121SOL     OW13831   0.675   5.530   0.318  0.0257  0.1306 -0.1717
 1121SOL    HW113832   0.726   5.491   0.395  0.3878 -0.3307 -0.6375
 1121SOL    HW213833   0.612   5.600   0.352 -0.2788 -0.5093  0.6201
 1122SOL     OW13834   4.427   4.510   1.146 -0.5813 -0.5175 -0.2650
 1122SOL    HW113835   4.453   4.480   1.237  1.3812 -0.0991 -0.6668
 1122SOL    HW213836   4.344   4.462   1.117  0.0981 -2.3704  0.7848
 1123SOL     OW13837   1.046   3.332   3.114  0.4416  0.1685  0.6924
 1123SOL    HW113838   1.137   3.292   3.114 -0.5142 -2.1001  0.8757
 1123SOL    HW213839   1.041   3.403   3.044  2.4832  0.6636  1.0341
 1124SOL     OW13840   0.230   3.280   2.256 -0.4187 -0.3422 -0.1248
 1124SOL    HW113841   0.170   3.357   2.232 -1.2826 -0.9953 -0.1042
 1124SOL    HW213842   0.182   3.220   2.320  0.8044 -0.1201  1.0269
 1125SOL     OW13843   8.787   2.782   1.266 -0.2602 -0.2326 -0.5123
 1125SOL    HW113844   8.710   2.823   1.313  0.5540  0.2630  0.4133
 1125SOL    HW213845   8.764   2.689   1.239 -1.8183  0.5105 -1.8640
 1126SOL     OW13846   9.279   5.007   0.554 -0.4248 -0.3528  0.2896
 1126SOL    HW113847   9.282   5.079   0.623 -1.4616  0.4532 -0.4842
 1126SOL    HW213848   9.371   4.971   0.540  0.3170  1.6352 -0.1441
 1127SOL     OW13849   0.195   1.085   2.175 -0.5586  0.7307  0.0088
 1127SOL    HW113850   0.106   1.125   2.153  0.1811  1.5000 -1.6351
 1127SOL    HW213851   0.187   0.986   2.182 -1.7543  0.8779  0.9370
 1128SOL     OW13852   8.793   6.572   0.138 -0.5308  0.2025 -0.4702
 1128SOL    HW113853   8.774   6.573   0.040 -0.3079  3.1765 -0.5362
 1128SOL    HW213854   8.712   6.603   0.189  0.4385  2.0445  0.0093
 1129SOL     OW13855   9.379   7.859   2.885  0.3074  0.4991 -0.1962
 1129SOL    HW113856   9.373   7.796   2.808 -1.8116  2.6288 -1.8836
 1129SOL    HW213857   9.309   7.836   2.953 -0.0174  0.6306 -0.4873
 1130SOL     OW13858   9.048   2.802   2.663 -0.2010  0.1113  1.0659
 1130SOL    HW113859   9.020   2.822   2.569 -3.9217 -0.4779  1.9343
 1130SOL    HW213860   9.139   2.763   2.663 -0.5742 -0.9838 -2.4314
 1131SOL     OW13861   9.277   8.307   3.029  0.4073 -0.3744  0.2199
 1131SOL    HW113862   9.217   8.384   3.009  0.2818 -0.2397  1.0956
 1131SOL    HW213863   9.248   8.227   2.976 -0.1012 -0.1100  0.1023
 1132SOL     OW13864   2.102   7.091   2.183  0.2980  0.1182 -0.3264
 1132SOL    HW113865   2.133   7.173   2.230 -0.8244  0.0423  0.5914
 1132SOL    HW213866   2.165   7.016   2.202  1.7063  0.9253 -1.7411
 1133SOL     OW13867   2.459   8.464   1.028 -0.1802  0.6422  0.5556
 1133SOL    HW113868   2.494   8.504   0.944 -2.7283 -0.1313 -0.9267
 1133SOL    HW213869   2.363   8.490   1.040 -0.4096 -0.8466  2.2133
 1134SOL     OW13870   0.389   1.946   0.414  0.0917  0.2471  0.2184
 1134SOL    HW113871   0.346   1.970   0.326  0.2550 -0.0441  0.0577
 1134SOL    HW213872   0.317   1.929   0.482 -0.0280  2.0165  0.5718
 1135SOL     OW13873   5.696   8.362   1.662  0.0038  0.1335  0.4584
 1135SOL    HW113874   5.651   8.407   1.739 -0.3499  1.4620 -0.4999
 1135SOL    HW213875   5.718   8.431   1.592  0.4451 -1.0276 -0.5554
 1136SOL     OW13876   5.298   9.698   3.326 -0.2632  0.0813 -0.4101
 1136SOL    HW113877   5.323   9.784   3.372  0.6830 -1.5128  2.1424
 1136SOL    HW213878   5.381   9.648   3.302 -0.8188 -1.8907  1.6056
 1137SOL     OW13879   0.811   3.273   1.071 -0.0337 -0.8875 -0.1993
 1137SOL    HW113880   0.746   3.201   1.050  0.1213 -1.0812 -0.0099
 1137SOL    HW213881   0.800   3.348   1.006  0.6039 -1.5891 -1.1323
 1138SOL     OW13882   9.613   7.645   0.296  0.3918 -0.2322 -0.3892
 1138SOL    HW113883   9.651   7.735   0.279  0.0508 -0.2326 -1.2021
 1138SOL    HW213884   9.609   7.594   0.210  0.7837 -1.0982  0.1035
 1139SOL     OW13885   4.763   2.480   1.763  0.2660 -0.2675 -0.2006
 1139SOL    HW113886   4.669   2.447   1.758  0.4821 -0.6607 -1.9766
 1139SOL    HW213887   4.800   2.462   1.854 -0.9981 -1.1314  0.1579
 1140SOL     OW13888   7.244   8.938   0.471  0.2346  0.2611  0.1361
 1140SOL    HW113889   7.265   9.034   0.489  2.7963 -0.2953  0.2450
 1140SOL    HW213890   7.153   8.932   0.431  0.2495  2.7873 -0.4074
 1141SOL     OW13891   9.998   1.415   1.079  0.2166  0.4147 -0.1213
 1141SOL    HW113892   9.978   1.379   0.988 -0.9792  0.0339  0.2787
 1141SOL    HW213893  10.088   1.458   1.079  0.9411 -1.0400 -1.0679
 1142SOL     OW13894   9.356   1.292   2.285  0.0431  0.3279  0.5201
 1142SOL    HW113895   9.443   1.246   2.298 -0.7983 -2.0699 -1.8016
 1142SOL    HW213896   9.370   1.375   2.231  0.9397  0.2853  0.6752
 1143SOL     OW13897   9.126   2.904   3.991  0.1162  0.1063 -0.0615
 1143SOL    HW113898   9.144   2.817   4.038  1.1511 -0.7677 -2.0328
 1143SOL    HW213899   9.030   2.909   3.965  0.0018 -0.3246  0.2645
 1144SOL     OW13900   0.410   3.087   1.125  0.5540  0.1082 -0.4582
 1144SOL    HW113901   0.381   3.182   1.120  0.5308  0.0007 -3.0961
 1144SOL    HW213902   0.510   3.083   1.136  0.4167  0.4325  0.9428
 1145SOL     OW13903   4.206   8.786   0.348  0.2599  0.4402 -0.3775
 1145SOL    HW113904   4.143   8.818   0.419  1.1780  0.4808  0.4403
 1145SOL    HW213905   4.225   8.860   0.283 -1.1861  0.1715 -1.1097
 1146SOL     OW13906   5.997   9.474   2.640  0.4353 -0.1756 -0.0035
 1146SOL    HW113907   6.018   9.490   2.737  1.1351 -0.9629 -0.0253
 1146SOL    HW213908   5.984   9.562   2.595 -0.3608  0.1905  0.9048
 1147SOL     OW13909   0.007   2.862   0.583 -0.1737 -0.0111 -0.0393
 1147SOL    HW113910   0.039   2.908   0.500  1.0938 -0.2181  0.3320
 1147SOL    HW213911   0.024   2.920   0.662  0.2461 -0.5647  0.2803
 1148SOL     OW13912   9.738   3.049   1.336 -0.2068  0.7908 -0.5082
 1148SOL    HW113913   9.725   3.107   1.417 -0.4356 -0.2679  0.2289
 1148SOL    HW213914   9.793   3.098   1.269 -0.2718  1.8068  0.1599
 1149SOL     OW13915   1.470   0.416   0.035  0.1167  0.1648 -0.1419
 1149SOL    HW113916   1.393   0.369   0.078  0.5466  1.3402  1.9433
 1149SOL    HW213917   1.549   0.355   0.033  0.2634  0.3062  1.2672
 1150SOL     OW13918   1.697   8.745   1.234  0.0957 -0.2424  0.0466
 1150SOL    HW113919   1.667   8.653   1.260  0.0070  0.5033  2.7331
 1150SOL    HW213920   1.617   8.805   1.226  0.3210  0.0876  0.2683
 1151SOL     OW13921   8.804   3.120   2.124 -0.3333  0.2037  0.2571
 1151SOL    HW113922   8.889   3.141   2.077 -0.6336 -0.3549 -0.5373
 1151SOL    HW213923   8.757   3.045   2.078 -0.4970 -0.5433  1.5895
 1152SOL     OW13924   0.931   0.433   3.754 -0.2536  0.2359  0.4900
 1152SOL    HW113925   0.904   0.440   3.850  0.1740 -2.2964  0.8383
 1152SOL    HW213926   1.027   0.406   3.749 -0.8447 -1.7083 -0.6166
 1153SOL     OW13927   9.453   1.321   2.983  0.1554 -0.0946 -0.1781
 1153SOL    HW113928   9.370   1.357   2.941  0.1986 -1.0547 -1.1152
 1153SOL    HW213929   9.498   1.258   2.919  0.9547 -0.5249  0.7913
 1154SOL     OW13930   8.907   5.988   0.682 -0.1140 -0.3360 -0.3474
 1154SOL    HW113931   8.850   6.037   0.617  0.3315 -0.5025 -0.8584
 1154SOL    HW213932   8.943   6.052   0.750 -1.7433 -0.3765  0.6014
 1155SOL     OW13933   2.606   3.881   0.970 -0.3490 -0.0986  0.0844
 1155SOL    HW113934   2.513   3.903   0.941 -0.3833  0.7309  0.8014
 1155SOL    HW213935   2.603   3.834   1.058 -0.0987 -0.2007  0.0378
 1156SOL     OW13936   8.373   0.861   0.145  0.0473 -0.7564 -0.1114
 1156SOL    HW113937   8.337   0.784   0.198 -0.2294 -0.0811  0.7023
 1156SOL    HW213938   8.427   0.826   0.069 -0.4356 -1.7589 -0.0107
 1157SOL     OW13939   1.518   9.026   2.378 -0.2153 -0.5076  0.3413
 1157SOL    HW113940   1.556   9.090   2.445  1.1348  0.5124 -1.3570
 1157SOL    HW213941   1.432   9.063   2.343  0.5225  0.3684 -0.5813
 1158SOL     OW13942   4.159   7.682   1.074 -0.2029 -0.1403  0.4504
 1158SOL    HW113943   4.203   7.595   1.094  1.9885  0.9800  0.6915
 1158SOL    HW213944   4.080   7.694   1.134 -0.0859 -1.6377  0.9161
 1159SOL     OW13945   8.354   2.010   0.065  0.0908 -0.2618 -0.0900
 1159SOL    HW113946   8.451   1.993   0.051  0.2501 -0.5665  1.3359
 1159SOL    HW213947   8.341   2.061   0.150 -0.9514  0.4004 -0.6257
 1160SOL     OW13948   8.036   5.083   3.987 -0.1596 -0.2179 -0.5161
 1160SOL    HW113949   8.040   5.073   4.087 -2.4625  0.9330 -0.2683
 1160SOL    HW213950   8.018   4.994   3.946 -1.6456 -0.3331  0.3151
 1161SOL     OW13951   1.522   4.804   1.088 -0.2107 -0.1092 -0.1724
 1161SOL    HW113952   1.592   4.775   1.154  0.1044 -0.0388 -0.4732
 1161SOL    HW213953   1.473   4.723   1.055 -0.6771 -0.1028  0.4838
 1162SOL     OW13954   2.374   8.624   0.512  0.1858  0.9167  0.6455
 1162SOL    HW113955   2.423   8.538   0.526  0.8271  0.9870 -1.1053
 1162SOL    HW213956   2.279   8.612   0.541  0.0095 -0.6926 -0.4880
 1163SOL     OW13957   2.796   7.661   1.269 -0.0885 -0.6043  0.3232
 1163SOL    HW113958   2.789   7.631   1.174 -1.0103  1.8528 -0.4123
 1163SOL    HW213959   2.711   7.705   1.297  1.3263  1.6189  1.2642
 1164SOL     OW13960   7.838   8.688   1.499 -0.1004  0.2656  0.5604
 1164SOL    HW113961   7.756   8.743   1.512 -0.0653  0.3854  0.2746
 1164SOL    HW213962   7.823   8.597   1.538 -0.8219 -0.1222 -0.6008
 1165SOL     OW13963   8.742   9.158   1.734  0.3932 -0.0027  0.2920
 1165SOL    HW113964   8.829   9.201   1.708  0.8662 -0.3731  1.2540
 1165SOL    HW213965   8.673   9.230   1.749  0.4810  0.2845 -0.6170
 1166SOL     OW13966   3.563   9.908   0.382  0.1468 -0.0295  0.5963
 1166SOL    HW113967   3.627   9.860   0.323 -0.6942 -1.4262  0.8008
 1166SOL    HW213968   3.514   9.977   0.330 -0.3254 -1.0071 -0.2722
 1167SOL     OW13969   0.848   1.437   0.836 -0.2829  0.5649 -0.4446
 1167SOL    HW113970   0.820   1.365   0.773  0.8493 -1.1871  1.0245
 1167SOL    HW213971   0.940   1.468   0.813  0.1138 -0.0459  0.2985
 1168SOL     OW13972   0.541   7.478   4.010 -0.1670  0.2316  0.7311
 1168SOL    HW113973   0.592   7.495   4.095 -0.7104  2.3335  0.6546
 1168SOL    HW213974   0.599   7.502   3.932 -0.5152  0.5874  0.5821
 1169SOL     OW13975   9.218   9.460   3.795  0.6313 -0.3496  0.4188
 1169SOL    HW113976   9.174   9.441   3.882 -0.4473 -1.5766 -0.3689
 1169SOL    HW213977   9.154   9.507   3.734  0.4823 -1.8664 -0.6237
 1170SOL     OW13978   3.724   1.977   0.261 -0.1453 -0.6498 -0.2702
 1170SOL    HW113979   3.822   1.992   0.249 -0.0597 -1.5447 -0.6717
 1170SOL    HW213980   3.707   1.883   0.289 -0.9269 -0.6287 -0.6560
 1171SOL     OW13981   0.776   7.222   2.815 -0.1827  0.5447  0.7482
 1171SOL    HW113982   0.803   7.316   2.795  3.2599 -0.1184  1.9995
 1171SOL    HW213983   0.762   7.211   2.913  2.7327 -0.9735  1.0609
 1172SOL     OW13984   4.325   2.827   0.706  0.3755  0.5532  0.0848
 1172SOL    HW113985   4.377   2.888   0.646  0.1607 -0.5617 -1.2417
 1172SOL    HW213986   4.277   2.759   0.652 -1.1759  0.5572  1.4167
 1173SOL     OW13987   2.109   2.667   0.834 -0.0181 -0.1489 -0.5937
 1173SOL    HW113988   2.018   2.652   0.795 -0.8040  0.0154  1.1373
 1173SOL    HW213989   2.128   2.765   0.837 -0.9577 -0.0106  1.6123
 1174SOL     OW13990   2.639   8.866   0.167 -0.3207  0.0625 -0.2076
 1174SOL    HW113991   2.608   8.772   0.180 -1.9488  0.3938 -1.5217
 1174SOL    HW213992   2.566   8.930   0.196  1.6731  1.0096  3.0655
 1175SOL     OW13993   7.881   8.367   3.405 -0.0860 -0.3358  0.0240
 1175SOL    HW113994   7.946   8.418   3.462  0.2482 -0.0947 -0.5708
 1175SOL    HW213995   7.820   8.431   3.358 -0.4667 -0.5442  0.2310
 1176SOL     OW13996   8.131   4.409   0.789 -0.6225 -0.4177  0.5101
 1176SOL    HW113997   8.122   4.500   0.830 -1.1434  1.0131 -2.6058
 1176SOL    HW213998   8.228   4.391   0.771 -0.5288 -0.4421  1.0292
 1177SOL     OW13999   5.260   2.731   0.940  0.0310  0.5883 -0.1056
 1177SOL    HW114000   5.284   2.641   0.978  2.8042  0.9012 -1.0470
 1177SOL    HW214001   5.213   2.785   1.011  1.0757 -0.4749  1.4311
 1178SOL     OW14002   1.730   6.860   0.461 -0.1453 -0.4288  0.3607
 1178SOL    HW114003   1.742   6.771   0.417 -0.3991 -2.2369  3.7869
 1178SOL    HW214004   1.633   6.881   0.468 -0.0850  0.1782 -0.4694
 1179SOL     OW14005   3.651   0.177   1.728 -0.1022  0.1117 -0.1613
 1179SOL    HW114006   3.641   0.098   1.667  0.0557 -0.2748  0.3036
 1179SOL    HW214007   3.652   0.145   1.823  2.4248  0.4180 -0.0628
 1180SOL     OW14008   9.159   8.569   0.269 -0.0436  0.6059 -0.0685
 1180SOL    HW114009   9.155   8.473   0.242 -0.3710  1.3111 -2.6649
 1180SOL    HW214010   9.227   8.617   0.213 -0.2179  1.9851  0.8795
 1181SOL     OW14011   8.387   4.821   3.961  0.4033 -0.4261  0.2625
 1181SOL    HW114012   8.475   4.867   3.968 -0.3201  0.9695  0.2997
 1181SOL    HW214013   8.361   4.814   3.864 -0.4123  1.0474  0.3609
 1182SOL     OW14014   0.699   3.546   1.513  0.4325  0.4303 -0.5176
 1182SOL    HW114015   0.618   3.558   1.570  0.9690  0.3162  0.2788
 1182SOL    HW214016   0.781   3.571   1.565  0.9410  0.2264 -1.2022
 1183SOL     OW14017   9.029   3.631   0.124  0.4566  0.7106 -0.3864
 1183SOL    HW114018   9.122   3.595   0.124 -0.2940 -1.3333  1.3238
 1183SOL    HW214019   8.970   3.573   0.180 -1.8884  1.9170 -1.4905
 1184SOL     OW14020   0.845   1.248   2.443 -0.0966 -0.4308 -0.4921
 1184SOL    HW114021   0.917   1.204   2.390 -1.4073 -1.1827 -1.6939
 1184SOL    HW214022   0.819   1.334   2.399  1.0065  0.5375  0.7033
 1185SOL     OW14023   2.384   8.266   1.389  0.5380  0.2051 -0.7443
 1185SOL    HW114024   2.298   8.296   1.347  0.7780 -1.4316 -2.4840
 1185SOL    HW214025   2.457   8.330   1.364 -0.2572  1.8948  1.1810
 1186SOL     OW14026   8.748   2.663   3.572  0.2241  0.4208  0.6373
 1186SOL    HW114027   8.698   2.750   3.571  0.2693  0.5012  2.5016
 1186SOL    HW214028   8.804   2.655   3.490 -1.1869  1.3228 -0.4329
 1187SOL     OW14029   1.330   8.934   3.765  0.2959  0.1657  0.5470
 1187SOL    HW114030   1.243   8.974   3.796 -0.1545  1.1208 -1.8068
 1187SOL    HW214031   1.383   8.904   3.844 -1.6282  0.7300  2.0967
 1188SOL     OW14032   0.321   6.373   0.913 -0.0124 -0.1646 -0.4944
 1188SOL    HW114033   0.292   6.461   0.875 -1.3863  0.0741  1.0731
 1188SOL    HW214034   0.269   6.300   0.870  0.4146 -0.1380 -1.0676
 1189SOL     OW14035   2.172   4.085   1.270 -0.0848 -0.4350  0.0815
 1189SOL    HW114036   2.200   3.994   1.299  1.0294 -0.5173 -1.2015
 1189SOL    HW214037   2.072   4.094   1.279 -0.1759 -1.7011  0.3776
 1190SOL     OW14038   2.790   2.966   0.216  0.4081  0.3338  0.9440
 1190SOL    HW114039   2.731   2.959   0.136 -0.6252  0.5236  1.6672
 1190SOL    HW214040   2.813   3.062   0.232  3.2946  0.0169 -0.9994
 1191SOL     OW14041   8.873   6.961   1.117  0.5769  0.2422  0.3503
 1191SOL    HW114042   8.878   6.888   1.185 -0.7365 -0.1833 -0.0067
 1191SOL    HW214043   8.925   7.041   1.150  0.7447 -0.3007  1.4105
 1192SOL     OW14044   8.394   4.099   0.835 -0.1194 -0.0251  0.0984
 1192SOL    HW114045   8.385   4.119   0.933 -2.4586 -1.9969  0.3286
 1192SOL    HW214046   8.374   4.182   0.782 -1.8455  0.3120  1.2314
 1193SOL     OW14047   1.878   7.313   1.416  0.1111  0.0700  0.1807
 1193SOL    HW114048   1.810   7.246   1.386  0.9707  0.2715 -2.2849
 1193SOL    HW214049   1.837   7.404   1.414  0.5434  0.2473 -1.7376
 1194SOL     OW14050   9.429   3.035   2.736 -0.0171  0.9033 -0.8088
 1194SOL    HW114051   9.393   3.128   2.725  0.8214  1.3557  0.2303
 1194SOL    HW214052   9.495   3.033   2.811  0.3126 -0.4404 -1.1188
 1195SOL     OW14053   9.052   4.927   3.716  0.4970 -0.2387  0.3401
 1195SOL    HW114054   9.029   5.007   3.771 -0.2906 -0.0252 -0.2731
 1195SOL    HW214055   8.969   4.875   3.697  0.8249 -0.5607 -0.2417
 1196SOL     OW14056   8.988   8.227   2.163 -0.4179  0.4934  0.4380
 1196SOL    HW114057   8.991   8.267   2.072 -0.7029 -0.2814  0.0816
 1196SOL    HW214058   8.893   8.215   2.191 -0.3316  1.3989  1.1417
 1197SOL     OW14059   9.907   5.660   0.263  0.4740  0.4498  0.1026
 1197SOL    HW114060   9.971   5.616   0.199 -0.3851  0.1195 -0.5345
 1197SOL    HW214061   9.953   5.675   0.351  1.1398 -0.6470 -0.0505
 1198SOL     OW14062   4.529   1.203   2.205  0.6531 -0.2635  0.0998
 1198SOL    HW114063   4.581   1.238   2.283  2.0229 -1.4001 -0.2631
 1198SOL    HW214064   4.499   1.110   2.224 -1.4087  0.4422  0.3561
 1199SOL     OW14065   4.006   3.709   2.641 -0.5204  0.3149 -0.2079
 1199SOL    HW114066   3.910   3.727   2.662 -0.9652 -1.0228 -1.0422
 1199SOL    HW214067   4.047   3.791   2.601 -1.3453  0.8515  0.0248
 1200SOL     OW14068   5.217   7.821   2.184 -0.0382 -0.2273  0.0191
 1200SOL    HW114069   5.127   7.832   2.142 -0.7512  1.2584  1.8733
 1200SOL    HW214070   5.239   7.903   2.238  1.5636 -1.4018  1.2026
 1201SOL     OW14071   4.798   8.393   2.021  0.0186  0.3171 -0.1151
 1201SOL    HW114072   4.791   8.487   2.055  0.2396  1.2429 -2.5079
 1201SOL    HW214073   4.739   8.334   2.075 -1.4677  2.1631  0.3615
 1202SOL     OW14074   8.682   7.669   1.481  0.8783 -0.0782 -0.0015
 1202SOL    HW114075   8.703   7.588   1.427  2.0138  0.3517 -0.2045
 1202SOL    HW214076   8.743   7.675   1.559 -0.1141 -0.1639  0.7960
 1203SOL     OW14077   0.681   8.694   3.265  0.2532  0.4260  0.0893
 1203SOL    HW114078   0.620   8.773   3.280 -0.8106 -0.4064  0.2276
 1203SOL    HW214079   0.694   8.680   3.167  0.2458  0.6266  0.0596
 1204SOL     OW14080   9.889   0.896   3.462  0.3719 -0.3228 -0.5169
 1204SOL    HW114081   9.829   0.816   3.457  0.3517 -0.3800  0.6348
 1204SOL    HW214082   9.834   0.978   3.479  0.7798 -0.6160  2.3214
 1205SOL     OW14083   2.316   5.316   1.041 -0.1516  0.4081  0.0341
 1205SOL    HW114084   2.398   5.290   1.093  0.2306  0.8790 -0.3298
 1205SOL    HW214085   2.323   5.280   0.948  0.6886  2.3154 -0.6788
 1206SOL     OW14086   3.230   0.018   1.209 -0.1872  0.1529  0.1910
 1206SOL    HW114087   3.201  -0.059   1.152 -0.2673  1.1210 -1.0827
 1206SOL    HW214088   3.233  -0.011   1.305 -1.3520 -1.1035 -0.1395
 1207SOL     OW14089   0.119   9.511   1.183  0.3603  0.2468 -0.3820
 1207SOL    HW114090   0.039   9.460   1.212  1.5367 -0.9673  0.7841
 1207SOL    HW214091   0.161   9.556   1.262  1.8260 -0.5736 -0.6684
 1208SOL     OW14092   9.608   9.701   3.693 -0.6805 -0.1085  0.9529
 1208SOL    HW114093   9.579   9.779   3.639 -1.0281 -0.8605  0.0317
 1208SOL    HW214094   9.692   9.724   3.742  0.6009  0.0549 -1.2252
 1209SOL     OW14095   9.111   9.455   1.618  0.1283  0.1594 -0.3551
 1209SOL    HW114096   9.191   9.477   1.674  1.2498 -0.3500 -1.7256
 1209SOL    HW214097   9.036   9.517   1.641  1.4897  1.8360 -0.2994
 1210SOL     OW14098   0.594   6.829   2.571  0.4554 -0.8586 -0.0856
 1210SOL    HW114099   0.598   6.869   2.480  0.6099 -0.2297  0.1932
 1210SOL    HW214100   0.679   6.780   2.590  2.3330  2.7456  1.4012
 1211SOL     OW14101   8.378   8.306   1.303  0.5669  0.9013 -0.6164
 1211SOL    HW114102   8.447   8.321   1.233  0.5098  0.9759 -0.6568
 1211SOL    HW214103   8.352   8.393   1.344  1.2323  0.7628  0.1030
 1212SOL     OW14104   4.902   2.164   2.030 -0.0995 -0.2693  0.7957
 1212SOL    HW114105   4.817   2.198   2.070 -0.5708 -0.2319 -0.2302
 1212SOL    HW214106   4.922   2.073   2.065 -1.0653 -0.6693  0.3079
 1213SOL     OW14107   9.191   2.781   0.664 -0.3451  0.3673  0.1493
 1213SOL    HW114108   9.223   2.716   0.733  0.0063  0.5482  0.1523
 1213SOL    HW214109   9.253   2.858   0.658 -0.3004  0.2889 -0.4686
 1214SOL     OW14110   9.224   4.820   3.087 -0.2889 -0.0675 -0.1471
 1214SOL    HW114111   9.282   4.777   3.018  0.7758  0.9064  0.1142
 1214SOL    HW214112   9.140   4.767   3.098  0.4833 -1.4255 -0.6394
 1215SOL     OW14113   9.034   9.260   2.211 -0.1391 -0.1437 -0.2387
 1215SOL    HW114114   9.074   9.170   2.228 -1.0889 -0.5484 -0.1108
 1215SOL    HW214115   8.964   9.253   2.140 -2.6687 -0.1810  2.1671
 1216SOL     OW14116   5.798   6.757   2.917 -0.2716 -0.6953  0.5046
 1216SOL    HW114117   5.724   6.728   2.857 -0.2619  0.7134 -0.2122
 1216SOL    HW214118   5.763   6.822   2.985  0.5214  0.9846 -0.6438
 1217SOL     OW14119   0.036   4.186   0.691 -0.0246 -0.0992 -0.0435
 1217SOL    HW114120   0.064   4.280   0.706 -0.1842 -0.2657  1.2981
 1217SOL    HW214121  -0.032   4.183   0.617 -0.3129  0.8807  0.1747
 1218SOL     OW14122   3.888   1.712   2.278 -0.0150 -0.1475 -0.0719
 1218SOL    HW114123   3.915   1.763   2.360 -1.5267  0.7215 -0.0889
 1218SOL    HW214124   3.959   1.647   2.254  1.5425  1.3096  0.5062
 1219SOL     OW14125   3.169   1.483   1.497  0.1925 -0.0799 -0.3224
 1219SOL    HW114126   3.189   1.581   1.493 -1.5811  0.4820  3.0058
 1219SOL    HW214127   3.080   1.466   1.455  1.2649 -0.5310 -2.4380
 1220SOL     OW14128   0.573   7.820   3.694  0.7678  0.5299 -0.0525
 1220SOL    HW114129   0.517   7.872   3.629  0.4214 -0.6514 -0.7106
 1220SOL    HW214130   0.634   7.759   3.644  0.7447 -0.1307  0.7175
 1221SOL     OW14131   3.235   5.362   2.743 -0.4157 -0.0923  0.4934
 1221SOL    HW114132   3.322   5.402   2.773 -0.1147 -0.3690 -0.0168
 1221SOL    HW214133   3.226   5.270   2.782  0.5377 -0.9399 -1.2381
 1222SOL     OW14134   0.806   4.911   3.405  0.1322  0.0336  0.3421
 1222SOL    HW114135   0.715   4.936   3.373  0.4050  0.2616 -0.2695
 1222SOL    HW214136   0.817   4.812   3.402  0.1451  0.0528 -0.2480
 1223SOL     OW14137   0.628   9.901   3.555  0.3580 -0.1181  0.1184
 1223SOL    HW114138   0.545   9.954   3.540  1.0733  0.4063 -2.1197
 1223SOL    HW214139   0.607   9.803   3.547 -0.2433 -0.0294  0.6016
 1224SOL     OW14140   7.661   8.551   0.110  0.2984  0.3396  0.3376
 1224SOL    HW114141   7.582   8.584   0.163 -0.4108  1.0950 -1.1455
 1224SOL    HW214142   7.703   8.628   0.062 -0.0177 -0.5596 -1.4127
 1225SOL     OW14143   8.717   5.930   1.296 -0.3762  0.5160  0.8250
 1225SOL    HW114144   8.741   6.007   1.355  1.2567  0.8347 -0.2050
 1225SOL    HW214145   8.784   5.924   1.221 -1.8142 -0.5039 -0.3969
 1226SOL     OW14146   0.931   6.272   1.719  0.2937 -0.0028  0.6815
 1226SOL    HW114147   0.894   6.231   1.635  0.5533 -1.0789  1.0832
 1226SOL    HW214148   0.866   6.338   1.756 -0.3402 -0.4079  0.2891
 1227SOL     OW14149   3.535   5.108   1.282  0.0871  0.1008 -0.0584
 1227SOL    HW114150   3.473   5.066   1.348 -0.3947  0.5101 -0.2470
 1227SOL    HW214151   3.629   5.097   1.313 -0.1729  0.8608  1.0384
 1228SOL     OW14152   0.613   3.966   1.442 -0.5117 -0.0087  0.4732
 1228SOL    HW114153   0.558   3.996   1.521  1.0965 -1.4109  2.1492
 1228SOL    HW214154   0.670   3.889   1.468  3.9544  2.7794 -0.5588
 1229SOL     OW14155   7.981   1.945   1.800  0.0574  0.0478  0.4467
 1229SOL    HW114156   7.964   2.005   1.879 -2.1132  1.4264 -0.9975
 1229SOL    HW214157   8.030   1.996   1.729 -1.0720 -0.1058 -0.4620
 1230SOL     OW14158   1.686   1.118   2.293 -0.1231  0.8769  0.3339
 1230SOL    HW114159   1.638   1.181   2.353 -0.3684  0.5820  0.4455
 1230SOL    HW214160   1.747   1.060   2.347 -0.1404  0.7971  0.2684
 1231SOL     OW14161   4.976   2.633   0.837 -0.5795  0.8322  0.3769
 1231SOL    HW114162   4.942   2.718   0.878 -1.4808 -0.0423  1.4663
 1231SOL    HW214163   5.046   2.593   0.896 -0.0675  0.8826 -0.1973
 1232SOL     OW14164   0.803   5.448   0.548 -0.2572 -0.4504  0.2936
 1232SOL    HW114165   0.711   5.442   0.587 -0.8483  0.4753 -0.9192
 1232SOL    HW214166   0.859   5.373   0.582 -1.6344 -1.3458  0.6117
 1233SOL     OW14167   2.476   3.509   2.699 -0.5869  0.0280 -0.0388
 1233SOL    HW114168   2.398   3.554   2.742 -1.1767 -0.8494 -0.1737
 1233SOL    HW214169   2.521   3.573   2.636 -1.8422  0.2183 -0.7728
 1234SOL     OW14170   3.527   9.176   1.381  0.3483 -0.7254  0.1545
 1234SOL    HW114171   3.495   9.131   1.297 -1.7699  1.3811 -0.2389
 1234SOL    HW214172   3.627   9.176   1.382  0.4055 -2.2354 -1.5657
 1235SOL     OW14173   2.749   2.680   1.492  0.2727  0.0306  0.7272
 1235SOL    HW114174   2.729   2.587   1.460 -0.0698 -0.2385  1.7188
 1235SOL    HW214175   2.721   2.690   1.587  1.5093  0.7536  1.0310
 1236SOL     OW14176   0.081   9.916   2.345  0.3933 -0.8341 -0.0551
 1236SOL    HW114177   0.134   9.949   2.423 -0.4544 -0.3102  0.3022
 1236SOL    HW214178   0.037   9.993   2.299 -0.9969 -1.3824  0.3434
 1237SOL     OW14179   8.672   3.869   2.402  0.0581 -0.2668  0.0534
 1237SOL    HW114180   8.673   3.943   2.470 -0.7043 -0.3026  0.1144
 1237SOL    HW214181   8.625   3.790   2.441 -1.0074 -0.0431 -0.7658
 1238SOL     OW14182   0.267   4.365   3.839 -0.3780 -0.9025  0.1741
 1238SOL    HW114183   0.269   4.353   3.938 -1.0158  0.0512  0.3097
 1238SOL    HW214184   0.306   4.454   3.815  1.5617 -1.9302 -0.5858
 1239SOL     OW14185   8.425   5.781   0.252  0.7359  0.2441  0.2751
 1239SOL    HW114186   8.352   5.850   0.259  0.9052  0.3560  1.0288
 1239SOL    HW214187   8.457   5.775   0.158  1.2799  1.7733  0.3621
 1240SOL     OW14188   4.476   8.793   1.236 -0.2241  0.6689 -0.0697
 1240SOL    HW114189   4.560   8.848   1.240  0.0865  0.2400 -0.7116
 1240SOL    HW214190   4.423   8.808   1.320  1.7472 -1.0687  1.5558
 1241SOL     OW14191   2.989   1.295   2.869  0.0256 -0.2039 -0.1978
 1241SOL    HW114192   3.028   1.340   2.788  0.7721 -0.6670 -0.1062
 1241SOL    HW214193   3.057   1.295   2.942 -0.5977  0.0802  0.3847
 1242SOL     OW14194   1.441   5.857   3.494 -0.4116 -0.6426 -0.0699
 1242SOL    HW114195   1.494   5.882   3.413  0.0624 -2.5487 -0.3780
 1242SOL    HW214196   1.463   5.763   3.520  0.5260  0.4022  3.1315
 1243SOL     OW14197   4.228   0.895   1.147  0.0558  0.3460  0.0694
 1243SOL    HW114198   4.308   0.896   1.087  1.1974 -1.1839  1.4835
 1243SOL    HW214199   4.243   0.959   1.222  0.2210 -0.3495  0.6386
 1244SOL     OW14200   3.674   8.556   3.863 -0.6636  0.4507 -0.2071
 1244SOL    HW114201   3.579   8.583   3.849 -1.3476 -1.1788  1.1338
 1244SOL    HW214202   3.716   8.615   3.933 -1.0865  0.3163  0.1600
 1245SOL     OW14203   8.763   0.307   1.904 -0.2594  0.0143  0.4870
 1245SOL    HW114204   8.757   0.273   1.810 -0.5332 -1.6028  1.0766
 1245SOL    HW214205   8.817   0.244   1.959  2.1317  2.2827  0.8264
 1246SOL     OW14206   9.478   9.034   3.803  0.1601  0.7169  0.1658
 1246SOL    HW114207   9.523   9.084   3.729  2.6558 -0.3387  0.9049
 1246SOL    HW214208   9.451   8.944   3.771  2.1873 -0.1409  0.7681
 1247SOL     OW14209   1.812   8.699   3.353  0.6447 -0.3153  0.5845
 1247SOL    HW114210   1.757   8.781   3.337 -0.3164 -0.9639  0.5671
 1247SOL    HW214211   1.876   8.686   3.277  1.2053  0.7424  0.8680
 1248SOL     OW14212   9.283   7.656   2.140 -0.2328 -0.5803  0.2251
 1248SOL    HW114213   9.273   7.557   2.139  1.2975 -0.7383 -0.3856
 1248SOL    HW214214   9.230   7.697   2.066  1.5505 -1.1955 -1.4184
 1249SOL     OW14215   9.737   3.236   1.512  0.2935  0.4600 -0.4750
 1249SOL    HW114216   9.692   3.178   1.580 -1.0711  0.2806 -1.5050
 1249SOL    HW214217   9.834   3.246   1.535  0.0410 -0.3378  0.9807
 1250SOL     OW14218   9.366   5.661   2.132 -1.2950 -0.3262 -0.2851
 1250SOL    HW114219   9.380   5.673   2.034  1.8884  0.0959  0.1881
 1250SOL    HW214220   9.357   5.751   2.176  1.6408 -0.3278  0.3809
 1251SOL     OW14221   9.223   2.050   1.462 -0.4057 -0.0573  0.7124
 1251SOL    HW114222   9.278   1.981   1.509 -0.8806 -1.6677 -1.0361
 1251SOL    HW214223   9.271   2.082   1.381 -0.4423  1.2807  1.2040
 1252SOL     OW14224   2.182   3.591   3.566 -0.5501  0.5926  0.4543
 1252SOL    HW114225   2.177   3.529   3.645 -0.0224  2.1575  1.7264
 1252SOL    HW214226   2.106   3.656   3.570 -1.4077 -0.2764 -1.1705
 1253SOL     OW14227   3.147   9.274   2.938  0.3605  0.2110 -0.1806
 1253SOL    HW114228   3.136   9.346   2.870 -0.4938 -0.0080 -0.2778
 1253SOL    HW214229   3.201   9.199   2.900  1.6425  0.9870  0.0693
 1254SOL     OW14230   0.785   6.999   1.650  0.2775 -0.1930  0.2848
 1254SOL    HW114231   0.829   7.039   1.570 -1.1682 -1.3739 -1.1452
 1254SOL    HW214232   0.822   6.907   1.666 -1.2358 -0.9900 -0.6181
 1255SOL     OW14233   9.495   4.709   2.253 -0.3205 -0.6040 -0.0363
 1255SOL    HW114234   9.404   4.670   2.240 -0.7229  0.5997 -0.9229
 1255SOL    HW214235   9.531   4.682   2.343 -1.3976 -1.3763  0.1662
 1256SOL     OW14236   7.846   4.567   2.639 -0.0261 -0.4684 -0.4020
 1256SOL    HW114237   7.808   4.520   2.719 -0.7370  0.4611 -0.1898
 1256SOL    HW214238   7.922   4.513   2.602 -1.0810 -1.9845 -0.4055
 1257SOL     OW14239   8.597   0.123   2.342 -0.0868 -0.5471  0.0506
 1257SOL    HW114240   8.637   0.198   2.289 -2.2082  1.2323  0.9220
 1257SOL    HW214241   8.639   0.121   2.433 -0.4304 -0.0640  0.2204
 1258SOL     OW14242   9.203   2.752   3.266 -0.8084  0.2137  0.5269
 1258SOL    HW114243   9.235   2.809   3.342 -0.4180 -0.1444  0.6354
 1258SOL    HW214244   9.187   2.809   3.186 -1.1135  0.5780  0.8467
 1259SOL     OW14245   1.349   4.900   3.114  0.2460  0.3559  0.0740
 1259SOL    HW114246   1.427   4.944   3.159 -0.5663  1.4220  0.4901
 1259SOL    HW214247   1.286   4.865   3.184  1.2947 -2.2418 -0.2661
 1260SOL     OW14248   1.789   1.763   1.951 -0.9720  0.1493  0.4026
 1260SOL    HW114249   1.854   1.768   2.026 -0.7763  3.7015  0.1074
 1260SOL    HW214250   1.721   1.836   1.960  0.2571  1.9918 -3.8756
 1261SOL     OW14251   1.021   7.260   1.068  0.0023 -0.0991  0.4080
 1261SOL    HW114252   0.943   7.319   1.048  0.4269  0.2796 -0.1458
 1261SOL    HW214253   1.019   7.180   1.008 -0.3454 -0.4421  0.8751
 1262SOL     OW14254   7.755   0.394   3.556  0.2524 -0.2614 -0.0278
 1262SOL    HW114255   7.774   0.358   3.648 -0.2343 -1.3541 -0.3458
 1262SOL    HW214256   7.749   0.494   3.560  1.3531 -0.2161  0.9247
 1263SOL     OW14257   9.099   3.502   3.149  0.2683  0.2404 -0.1528
 1263SOL    HW114258   9.069   3.419   3.102 -4.2961  0.8408  1.4264
 1263SOL    HW214259   9.181   3.483   3.202 -0.2197 -3.0746 -0.4934
 1264SOL     OW14260   0.694   4.326   2.521 -0.0386 -0.1041  0.0481
 1264SOL    HW114261   0.790   4.321   2.550  0.0437 -1.9555 -0.4784
 1264SOL    HW214262   0.687   4.385   2.441  0.1256  2.8666  2.1463
 1265SOL     OW14263   1.343   5.794   3.154  0.3397 -0.2006  0.6107
 1265SOL    HW114264   1.264   5.799   3.215 -0.1275  1.9166 -0.1215
 1265SOL    HW214265   1.403   5.720   3.183 -0.9299 -0.5750  2.3587
 1266SOL     OW14266   4.203   0.428   1.830 -0.3034 -0.3159 -0.1217
 1266SOL    HW114267   4.230   0.384   1.745  1.2417  1.0221 -0.3495
 1266SOL    HW214268   4.238   0.376   1.908  2.1945  0.8521 -0.3968
 1267SOL     OW14269   8.340   0.533   2.058  0.0986  0.3313  0.4468
 1267SOL    HW114270   8.320   0.478   1.977 -0.6942 -1.3424  1.7333
 1267SOL    HW214271   8.316   0.628   2.041  1.6836  0.3395 -1.9034
 1268SOL     OW14272   4.172   8.237   1.392 -0.3058  0.3290 -0.2131
 1268SOL    HW114273   4.086   8.248   1.442  0.2448  1.7002  0.4327
 1268SOL    HW214274   4.205   8.143   1.404 -2.2110 -0.5125 -1.2816
 1269SOL     OW14275   3.952   4.438   3.963 -0.2059  0.3206 -0.1301
 1269SOL    HW114276   3.983   4.420   3.870 -1.1007 -0.2372 -0.3327
 1269SOL    HW214277   3.895   4.520   3.964  0.4055  0.7491  0.0604
 1270SOL     OW14278   3.358   1.041   1.572  0.6801  0.1338 -0.1090
 1270SOL    HW114279   3.331   1.014   1.664 -1.2120 -0.4024 -0.7916
 1270SOL    HW214280   3.295   1.111   1.538  0.7125 -0.4302 -1.3707
 1271SOL     OW14281   2.443   9.726   1.337  0.1743 -0.2827 -0.4973
 1271SOL    HW114282   2.356   9.771   1.357 -0.2577 -0.4955 -1.8288
 1271SOL    HW214283   2.493   9.779   1.269  1.5366  0.3402  0.9690
 1272SOL     OW14284   8.145   8.381   2.160  0.4400 -0.2889 -0.4608
 1272SOL    HW114285   8.212   8.439   2.112  0.2510 -0.7783 -1.3292
 1272SOL    HW214286   8.054   8.397   2.122  0.0636  0.3384  0.6857
 1273SOL     OW14287   3.804   9.163   1.402  0.0671 -0.1601 -0.0969
 1273SOL    HW114288   3.831   9.203   1.314  0.5976 -0.7577 -0.2066
 1273SOL    HW214289   3.847   9.214   1.476 -2.1873  1.7909 -0.0617
 1274SOL     OW14290   9.832   4.199   0.516 -0.8709 -0.3887 -0.4795
 1274SOL    HW114291   9.771   4.263   0.561 -0.7003  0.0554 -0.8736
 1274SOL    HW214292   9.870   4.242   0.433  1.0216 -0.1557  0.4788
 1275SOL     OW14293   2.825   5.693   0.477  0.1795 -0.4858 -0.7032
 1275SOL    HW114294   2.899   5.654   0.421  1.0296 -0.2379  0.2194
 1275SOL    HW214295   2.865   5.751   0.549 -0.9656  0.4035 -0.7692
 1276SOL     OW14296   3.825   4.170   0.967 -0.0896 -0.6163  0.0232
 1276SOL    HW114297   3.911   4.186   0.920  0.2633 -3.1464 -0.2737
 1276SOL    HW214298   3.749   4.201   0.910  0.5748  1.1743  0.0813
 1277SOL     OW14299   2.622   8.710   2.868 -0.2393 -0.0472  0.2781
 1277SOL    HW114300   2.646   8.615   2.848 -2.2333 -1.1716  2.8264
 1277SOL    HW214301   2.546   8.712   2.933  0.3065  3.2998  0.9309
 1278SOL     OW14302   3.895   7.218   2.680  0.0121  0.5778  0.5924
 1278SOL    HW114303   3.838   7.236   2.760  0.9572  0.5391  1.2813
 1278SOL    HW214304   3.966   7.288   2.673 -1.0725  1.5519 -1.1773
 1279SOL     OW14305   4.262   2.247   1.759  0.0358 -0.1132 -0.3146
 1279SOL    HW114306   4.243   2.294   1.845 -1.0795 -1.0038 -0.0602
 1279SOL    HW214307   4.276   2.150   1.777  0.1514 -0.2453 -1.0995
 1280SOL     OW14308   9.262   7.279   2.888  0.2507  0.1761 -0.2239
 1280SOL    HW114309   9.311   7.192   2.896 -1.8597 -1.2078 -1.7832
 1280SOL    HW214310   9.244   7.297   2.791  1.0623  2.5988  0.0544
 1281SOL     OW14311   8.338   4.110   1.404  0.3493  0.1644 -0.0444
 1281SOL    HW114312   8.286   4.166   1.468  0.8951  0.1612  0.4006
 1281SOL    HW214313   8.423   4.080   1.446 -0.0006 -1.1275 -0.2295
 1282SOL     OW14314   9.652   0.986   2.007  0.2935  0.7475  0.5492
 1282SOL    HW114315   9.600   0.904   1.985 -1.2159  1.4193  1.5467
 1282SOL    HW214316   9.679   0.984   2.103  0.5643  1.2554  0.4861
 1283SOL     OW14317   8.881   7.198   3.601 -0.2455  0.1771 -0.3513
 1283SOL    HW114318   8.919   7.224   3.690  1.2051 -1.1008 -0.5780
 1283SOL    HW214319   8.810   7.129   3.614  0.3433 -0.4030 -0.2294
 1284SOL     OW14320   2.430   6.206   3.159  0.1597  0.3048  0.0759
 1284SOL    HW114321   2.385   6.148   3.226  1.2194 -2.7850 -1.8113
 1284SOL    HW214322   2.371   6.216   3.078  1.1479 -0.4886 -0.7574
 1285SOL     OW14323   0.578   2.835   2.310  0.1935  0.4187 -0.4897
 1285SOL    HW114324   0.546   2.929   2.322  0.1106  0.5314 -1.5774
 1285SOL    HW214325   0.666   2.836   2.262 -0.1378 -0.0917 -1.1094
 1286SOL     OW14326   1.548   8.748   2.401  0.4235 -0.3143  0.3153
 1286SOL    HW114327   1.543   8.844   2.427  1.4612 -0.7475  2.2476
 1286SOL    HW214328   1.593   8.739   2.312 -0.7818  1.0540 -0.4418
 1287SOL     OW14329   3.546   6.135   3.925 -0.5224  1.2092  0.1690
 1287SOL    HW114330   3.514   6.066   3.989  0.0945  0.4560 -0.3337
 1287SOL    HW214331   3.556   6.095   3.834 -2.0811  2.4366 -0.5823
 1288SOL     OW14332   2.841   1.298   3.153  0.2339  0.3792 -0.3713
 1288SOL    HW114333   2.870   1.366   3.086  2.0735 -0.2191 -0.2161
 1288SOL    HW214334   2.796   1.222   3.105 -0.9104  1.2071 -0.6379
 1289SOL     OW14335   4.281   4.119   3.875 -0.3487 -0.5770 -0.1552
 1289SOL    HW114336   4.227   4.077   3.948 -0.4574 -3.0424 -1.5935
 1289SOL    HW214337   4.226   4.188   3.829 -0.3169  0.9170  1.9900
 1290SOL     OW14338   3.849   8.670   0.985  0.0518 -0.3356  0.0660
 1290SOL    HW114339   3.757   8.690   1.020  0.0514 -1.9843  1.0915
 1290SOL    HW214340   3.917   8.715   1.042 -0.0546 -0.6983  0.4838
 1291SOL     OW14341   1.975   6.102   2.045 -0.0425 -0.2461  0.5834
 1291SOL    HW114342   1.900   6.038   2.062  0.4312 -0.7207  0.8889
 1291SOL    HW214343   2.057   6.071   2.092 -0.3149  1.6307  2.3374
 1292SOL     OW14344   0.567   9.498   1.465 -0.1566  0.3086 -0.0625
 1292SOL    HW114345   0.609   9.523   1.552 -1.7920 -1.9051  1.4254
 1292SOL    HW214346   0.639   9.478   1.398  1.1779 -0.9344  1.6754
 1293SOL     OW14347   4.851   9.274   0.111  0.4092 -0.0129  0.6583
 1293SOL    HW114348   4.810   9.251   0.199 -0.0754 -2.8751 -0.2556
 1293SOL    HW214349   4.947   9.298   0.124  0.2140  0.0414  2.0168
 1294SOL     OW14350   8.566   2.501   0.968  0.3412  0.5009 -0.1538
 1294SOL    HW114351   8.603   2.503   0.876  1.0069 -0.8997  0.0798
 1294SOL    HW214352   8.640   2.517   1.034  0.0439  0.4533  0.1940
 1295SOL     OW14353   1.562   0.027   3.675 -0.6944 -0.3836 -0.2965
 1295SOL    HW114354   1.642   0.034   3.735  0.1360  0.6165 -1.5144
 1295SOL    HW214355   1.505  -0.049   3.706 -0.7023  0.6124  2.2759
 1296SOL     OW14356   4.542   7.538   2.280 -0.3782 -0.0155 -0.0270
 1296SOL    HW114357   4.526   7.472   2.354 -1.2159 -0.9622 -1.0465
 1296SOL    HW214358   4.531   7.631   2.316  0.6451 -0.4297  1.3779
 1297SOL     OW14359   8.565   8.046   0.745 -0.3809  0.2119  0.5034
 1297SOL    HW114360   8.531   8.139   0.757 -3.0033 -0.9153  2.3275
 1297SOL    HW214361   8.507   7.982   0.796  0.5802 -2.5783 -1.7501
 1298SOL     OW14362   4.345   9.261   1.027 -0.0440 -0.1332  0.1818
 1298SOL    HW114363   4.329   9.336   1.091 -1.1324  0.4100 -0.7029
 1298SOL    HW214364   4.302   9.178   1.062  0.0580 -0.0353  0.5445
 1299SOL     OW14365   3.470   9.850   4.023  0.2487 -0.0490  0.0065
 1299SOL    HW114366   3.462   9.942   3.984 -0.0997  0.6082  1.5867
 1299SOL    HW214367   3.547   9.848   4.087 -0.6243 -0.4585  1.0511
 1300SOL     OW14368   1.379   8.144   2.068  0.0776  0.4829 -0.0230
 1300SOL    HW114369   1.421   8.116   1.981 -0.5449  0.0693 -0.1988
 1300SOL    HW214370   1.316   8.073   2.099  0.0174  0.7940  0.5824
 1301SOL     OW14371   3.478   0.999   0.549  0.2267  0.1228 -0.0779
 1301SOL    HW114372   3.389   1.013   0.505  0.3160 -0.6930 -0.5252
 1301SOL    HW214373   3.551   1.019   0.483  0.3609 -0.8283 -0.2303
 1302SOL     OW14374   7.558   8.137   1.714  0.0667 -0.4807 -0.2023
 1302SOL    HW114375   7.537   8.077   1.637  0.0289 -0.0740 -0.5155
 1302SOL    HW214376   7.533   8.092   1.800 -0.3500 -0.7402 -0.4562
 1303SOL     OW14377   3.578   3.621   1.827  0.4949  0.4541 -0.0602
 1303SOL    HW114378   3.563   3.678   1.746 -0.2889  1.6322  0.8947
 1303SOL    HW214379   3.674   3.626   1.854  0.9961 -0.8085 -1.5447
 1304SOL     OW14380   0.633   6.273   2.866 -0.4000  0.1990  0.7185
 1304SOL    HW114381   0.534   6.279   2.883 -0.4382  2.0884 -0.0661
 1304SOL    HW214382   0.682   6.331   2.930  0.1018  0.3265  0.2259
 1305SOL     OW14383   9.823   2.283   3.446 -0.4066 -0.1187 -0.0642
 1305SOL    HW114384   9.760   2.359   3.433 -0.6595 -0.0398  1.6257
 1305SOL    HW214385   9.773   2.201   3.471  0.1242 -0.1028  1.0981
 1306SOL     OW14386   1.183   6.462   4.022 -0.2602  0.1726  0.2725
 1306SOL    HW114387   1.194   6.398   4.098 -0.0545 -0.5111 -0.3271
 1306SOL    HW214388   1.216   6.552   4.049  0.0317 -0.1254  0.9129
 1307SOL     OW14389   9.949   7.485   3.741 -0.0456 -0.4472  0.0074
 1307SOL    HW114390   9.889   7.556   3.703  1.2618  0.6473 -0.0926
 1307SOL    HW214391   9.960   7.411   3.675  0.4577  0.4037 -0.8762
 1308SOL     OW14392   1.958   1.546   3.003  0.2247 -0.2056 -0.3285
 1308SOL    HW114393   1.867   1.572   3.035  1.0365  0.4460  1.4974
 1308SOL    HW214394   1.992   1.617   2.941 -0.7312 -0.7304 -1.4673
 1309SOL     OW14395   1.217   5.248   3.876 -0.4751 -0.1184  0.0160
 1309SOL    HW114396   1.197   5.340   3.842 -0.2936  0.0395  0.3328
 1309SOL    HW214397   1.308   5.220   3.845  0.1472  0.4615  1.2563
 1310SOL     OW14398   2.115   4.950   1.422  0.0879  0.0790  0.4719
 1310SOL    HW114399   2.018   4.928   1.432  0.5085 -1.2594  1.7549
 1310SOL    HW214400   2.126   5.022   1.354 -1.6173 -1.4345 -1.4793
 1311SOL     OW14401   0.866   3.267   2.090  0.2033 -0.7688  0.4342
 1311SOL    HW114402   0.915   3.227   2.168  2.5418  0.4017 -0.3869
 1311SOL    HW214403   0.887   3.214   2.008  3.1862  1.9330 -0.6340
 1312SOL     OW14404   8.756   3.844   1.416 -0.1097 -0.6321  0.3376
 1312SOL    HW114405   8.826   3.859   1.346 -0.4256  0.4809  0.2515
 1312SOL    HW214406   8.705   3.761   1.394 -0.0710 -0.4042 -0.6351
 1313SOL     OW14407   3.679   5.910   1.796 -0.0479 -0.3147  0.0938
 1313SOL    HW114408   3.772   5.873   1.796 -0.0416 -0.2986  0.0082
 1313SOL    HW214409   3.619   5.850   1.849  0.0591 -0.2038  0.3421
 1314SOL     OW14410   1.839   4.174   3.360  0.1359 -0.3454 -0.5450
 1314SOL    HW114411   1.774   4.202   3.430 -0.5128 -2.7169 -0.1538
 1314SOL    HW214412   1.806   4.203   3.270  0.5180  1.9062  0.0116
 1315SOL     OW14413   1.272   8.892   2.085  0.2744  1.0021 -0.1356
 1315SOL    HW114414   1.356   8.886   2.032  1.0069  3.1589  0.7086
 1315SOL    HW214415   1.290   8.941   2.171 -1.3827 -0.3800  1.0364
 1316SOL     OW14416   7.211   7.962   2.732  0.0588 -0.0720 -0.0146
 1316SOL    HW114417   7.295   8.016   2.727 -0.0080  0.0205 -0.1334
 1316SOL    HW214418   7.136   8.012   2.689 -0.4373  0.5530  1.5735
 1317SOL     OW14419   5.250   8.327   3.918 -0.2770  0.0365 -0.0524
 1317SOL    HW114420   5.276   8.280   4.003  1.9249  2.3396  0.6146
 1317SOL    HW214421   5.174   8.390   3.936 -0.6926 -0.4521 -0.0921
 1318SOL     OW14422   3.723   6.329   2.281  0.5569  0.3171  0.1222
 1318SOL    HW114423   3.633   6.360   2.249  0.1882  0.8148  1.5614
 1318SOL    HW214424   3.711   6.272   2.362  1.6216  1.8367  1.3972
 1319SOL     OW14425   8.172   9.271   0.100 -0.4861 -0.6173  0.4920
 1319SOL    HW114426   8.094   9.317   0.144 -0.5164  0.4440 -0.6195
 1319SOL    HW214427   8.210   9.202   0.161 -1.5069 -0.2526  1.5472
 1320SOL     OW14428   8.069   8.975   0.015  0.2407 -0.1144  0.2685
 1320SOL    HW114429   8.122   8.917  -0.047  0.9453 -0.0001  0.7595
 1320SOL    HW214430   8.129   9.012   0.086  0.0289  2.0670 -0.6373
 1321SOL     OW14431   1.091   7.162   3.000 -0.4694  0.5419 -0.6451
 1321SOL    HW114432   0.998   7.176   3.034 -0.1804 -0.0022  0.3892
 1321SOL    HW214433   1.097   7.074   2.952 -0.5421  0.6771 -0.9018
 1322SOL     OW14434   9.591   5.897   2.900 -0.0180  0.1668 -0.3423
 1322SOL    HW114435   9.622   5.992   2.901  0.9497 -0.0928 -2.6537
 1322SOL    HW214436   9.647   5.842   2.962  0.6200  0.7502 -0.3972
 1323SOL     OW14437   2.519   0.692   1.466 -0.0839  0.1516 -0.2645
 1323SOL    HW114438   2.525   0.640   1.381  0.7009 -0.0398 -0.0940
 1323SOL    HW214439   2.424   0.695   1.497 -0.1296 -1.1781 -0.2729
 1324SOL     OW14440   4.872   7.487   1.841 -0.5501 -0.2681  0.4973
 1324SOL    HW114441   4.924   7.408   1.809 -1.3652 -0.7957  0.4529
 1324SOL    HW214442   4.774   7.470   1.829 -0.8535 -0.2290  2.6864
 1325SOL     OW14443   3.646   8.722   0.425  0.0918  0.4228  0.0776
 1325SOL    HW114444   3.567   8.667   0.452  0.7084  0.0484  1.1216
 1325SOL    HW214445   3.725   8.663   0.411 -0.1963  0.5953 -2.5790
 1326SOL     OW14446   0.725   5.527   1.589 -0.2954  0.3386 -0.4572
 1326SOL    HW114447   0.668   5.486   1.660 -0.3461 -0.6167 -1.0428
 1326SOL    HW214448   0.730   5.465   1.511  0.5208  0.9769 -0.9117
 1327SOL     OW14449   3.660   6.673   1.842 -0.6686  0.1895  0.5575
 1327SOL    HW114450   3.653   6.717   1.932 -0.0282 -0.2462  0.8244
 1327SOL    HW214451   3.607   6.589   1.841 -1.7880  0.8915  0.0873
 1328SOL     OW14452   4.409   8.179   0.015 -0.2495  0.1002 -0.0600
 1328SOL    HW114453   4.500   8.186  -0.025  0.4234  2.1137  1.7017
 1328SOL    HW214454   4.403   8.096   0.070  0.3639 -0.2697 -0.5414
 1329SOL     OW14455   3.127   9.486   2.747  0.3613  0.0431  0.1059
 1329SOL    HW114456   3.175   9.519   2.666  1.2177  0.7792  0.9045
 1329SOL    HW214457   3.039   9.534   2.756  0.7887  0.8080  0.2551
 1330SOL     OW14458   8.871   5.043   1.980  0.3927 -0.3918 -0.6428
 1330SOL    HW114459   8.795   5.108   1.984 -1.2091 -2.1079 -2.1853
 1330SOL    HW214460   8.851   4.973   1.912  2.5468 -1.9211  0.2474
 1331SOL     OW14461   9.920   0.092   0.108  0.5676  0.0067  0.0458
 1331SOL    HW114462   9.831   0.137   0.100  0.5866 -0.2213 -1.5143
 1331SOL    HW214463   9.983   0.151   0.159 -0.4982  0.1118  1.2759
 1332SOL     OW14464   4.338   8.791   3.051  0.3311 -0.0197  0.2008
 1332SOL    HW114465   4.306   8.799   3.145 -1.0963 -1.4921 -0.1460
 1332SOL    HW214466   4.323   8.877   3.002  1.2656  0.8145  1.3639
 1333SOL     OW14467   9.306   7.406   2.462 -0.3902 -0.2014 -0.5135
 1333SOL    HW114468   9.356   7.493   2.466  1.8408 -1.4381 -0.5914
 1333SOL    HW214469   9.243   7.400   2.539 -1.1325  1.8101 -0.9366
 1334SOL     OW14470   1.376   1.188   0.438 -0.2150  0.0082 -0.3467
 1334SOL    HW114471   1.319   1.240   0.501  1.1742  1.4501 -0.2528
 1334SOL    HW214472   1.409   1.248   0.365  1.7329 -0.6097 -0.0104
 1335SOL     OW14473   1.694   3.501   2.551  0.2321  0.1446 -0.2244
 1335SOL    HW114474   1.733   3.444   2.479  0.2049  0.9350 -0.8799
 1335SOL    HW214475   1.727   3.471   2.640  0.1020 -0.9799 -0.5476
 1336SOL     OW14476   3.890   9.538   1.687  0.1801  0.6352 -0.3914
 1336SOL    HW114477   3.814   9.602   1.674 -0.6212 -0.0270  0.9300
 1336SOL    HW214478   3.857   9.456   1.733  1.3697 -0.3951 -1.3540
 1337SOL     OW14479   2.680   7.340   2.126  0.1468  0.1686  0.2370
 1337SOL    HW114480   2.586   7.319   2.151  0.6819 -0.4739  1.7568
 1337SOL    HW214481   2.681   7.391   2.039 -1.6972  1.8622  1.1669
 1338SOL     OW14482   7.693   8.747   2.535 -0.5150 -0.2644  0.3145
 1338SOL    HW114483   7.660   8.654   2.551 -1.1290 -0.0442  0.3212
 1338SOL    HW214484   7.689   8.767   2.437 -0.2140 -0.3029  0.2920
 1339SOL     OW14485   1.158   0.218   1.821 -0.0660  0.1128 -0.5260
 1339SOL    HW114486   1.176   0.190   1.727 -1.8874 -0.2300 -0.8011
 1339SOL    HW214487   1.127   0.313   1.822 -0.2557  0.0489 -0.2969
 1340SOL     OW14488   2.731   7.769   2.387  0.8937  0.0531 -0.4973
 1340SOL    HW114489   2.675   7.792   2.308 -0.3891  0.5401  0.5434
 1340SOL    HW214490   2.765   7.675   2.378  1.3922  0.3589 -1.9779
 1341SOL     OW14491   1.387   1.271   3.455  0.0689  0.6127 -0.2831
 1341SOL    HW114492   1.444   1.331   3.400 -0.2107  0.4861 -0.7152
 1341SOL    HW214493   1.361   1.317   3.539 -0.1029  1.0752 -0.5892
 1342SOL     OW14494   8.132   6.090   1.458 -0.0318 -0.1572  0.1306
 1342SOL    HW114495   8.171   6.046   1.538 -0.9920  0.2699  0.8467
 1342SOL    HW214496   8.056   6.034   1.423 -0.6252  0.4276  0.4658
 1343SOL     OW14497   2.633   1.690   3.848 -0.5962 -0.4114  0.0682
 1343SOL    HW114498   2.586   1.778   3.841 -0.6686 -0.3020  1.7076
 1343SOL    HW214499   2.594   1.626   3.781 -0.9975  0.5963 -0.6733
 1344SOL     OW14500   0.491   4.436   1.202 -0.2518 -0.4816  0.1065
 1344SOL    HW114501   0.424   4.452   1.130  0.0712  0.3432 -0.0204
 1344SOL    HW214502   0.491   4.339   1.227 -1.7010 -0.4364  0.3277
 1345SOL     OW14503   2.806   4.850   2.366 -0.1682  0.1658  0.6806
 1345SOL    HW114504   2.754   4.894   2.438  0.0180  0.2825  0.7415
 1345SOL    HW214505   2.871   4.785   2.406  1.3500  1.6870  0.7340
 1346SOL     OW14506   2.814   7.474   1.908 -0.4165  0.4911  0.3819
 1346SOL    HW114507   2.813   7.447   1.812 -1.1331 -0.1219  0.5482
 1346SOL    HW214508   2.900   7.519   1.930  1.3054 -2.6697  0.3493
 1347SOL     OW14509   3.238   2.847   0.798 -0.4058  0.3260  0.2465
 1347SOL    HW114510   3.314   2.908   0.823  0.6701  0.2858 -2.7721
 1347SOL    HW214511   3.265   2.752   0.814  0.1220  0.3182 -0.6972
 1348SOL     OW14512   1.582   2.911   1.880  0.3137 -0.0756 -0.3674
 1348SOL    HW114513   1.495   2.959   1.892 -0.1478 -0.8209 -0.6659
 1348SOL    HW214514   1.575   2.848   1.803  1.6858  1.1347 -1.5199
 1349SOL     OW14515   3.009   8.654   1.797  0.0736  0.0191  0.2604
 1349SOL    HW114516   3.068   8.576   1.816  0.1658 -0.1738 -0.8114
 1349SOL    HW214517   3.022   8.723   1.868  1.6370  0.0046 -0.0017
 1350SOL     OW14518   4.821   7.104   2.660  0.0591 -0.3745 -0.4822
 1350SOL    HW114519   4.728   7.073   2.684  1.2075 -3.1848  0.6098
 1350SOL    HW214520   4.827   7.117   2.562 -2.6191  3.8845 -0.2126
 1351SOL     OW14521   1.321   1.704   2.335 -0.2877 -0.1697  0.5533
 1351SOL    HW114522   1.377   1.626   2.308 -1.0753 -0.0368 -1.5168
 1351SOL    HW214523   1.241   1.671   2.386 -0.1874 -0.6575  0.4022
 1352SOL     OW14524   9.845   4.404   3.709 -0.1563  0.4688  0.0904
 1352SOL    HW114525   9.937   4.367   3.696 -0.4630 -0.6327  0.9309
 1352SOL    HW214526   9.794   4.397   3.623  0.4778  0.8911 -0.3217
 1353SOL     OW14527   1.481   1.813   2.737  0.1324  0.3683  0.1932
 1353SOL    HW114528   1.426   1.734   2.710  0.8737 -0.2122  0.3460
 1353SOL    HW214529   1.471   1.829   2.836  0.8371 -0.2212  0.3662
 1354SOL     OW14530   0.572   8.550   0.780 -0.0350  0.1623  0.1640
 1354SOL    HW114531   0.575   8.508   0.689 -1.4528 -0.3911  0.3778
 1354SOL    HW214532   0.584   8.480   0.850 -1.1178  0.2981  0.4801
 1355SOL     OW14533   3.853   7.901   0.280  0.1808 -0.1327  0.3244
 1355SOL    HW114534   3.832   7.857   0.193  0.1118  0.4248  0.0509
 1355SOL    HW214535   3.829   7.841   0.355  0.8532 -0.8878 -0.0541
 1356SOL     OW14536   1.763   1.177   0.535  0.0603 -0.8236 -0.3979
 1356SOL    HW114537   1.721   1.228   0.459 -0.5416  0.1003  0.5447
 1356SOL    HW214538   1.769   1.236   0.615 -1.2339 -2.4200  0.9056
 1357SOL     OW14539   0.004   6.136   2.223  0.1876  0.8573  0.0899
 1357SOL    HW114540  -0.020   6.117   2.318 -1.6860 -0.6510 -0.6486
 1357SOL    HW214541   0.101   6.115   2.208  0.1351 -0.3427  1.3254
 1358SOL     OW14542   2.567   9.480   3.272 -0.0538 -0.3717 -0.2655
 1358SOL    HW114543   2.535   9.490   3.366 -0.1109 -0.5768 -0.2637
 1358SOL    HW214544   2.553   9.566   3.223 -1.9797 -0.8921 -0.6784
 1359SOL     OW14545   3.353   1.013   3.333  0.0135 -0.0266  0.6567
 1359SOL    HW114546   3.356   1.050   3.240 -0.3637 -1.9501 -0.1501
 1359SOL    HW214547   3.446   1.002   3.368  0.1113  2.6791  1.3499
 1360SOL     OW14548   9.615   2.786   1.585  0.3032  0.1900  0.1960
 1360SOL    HW114549   9.590   2.834   1.501 -2.2662 -0.8770  0.2858
 1360SOL    HW214550   9.669   2.705   1.562  0.4320  0.4306 -0.3595
 1361SOL     OW14551   7.812   7.957   1.487  0.3983  0.0729  0.6767
 1361SOL    HW114552   7.833   7.860   1.498  1.3181  0.0027 -1.5520
 1361SOL    HW214553   7.713   7.970   1.487  0.2687 -0.9075  0.6088
 1362SOL     OW14554   2.377   2.621   0.684 -0.5600  0.2815 -0.2873
 1362SOL    HW114555   2.321   2.610   0.767  1.5096 -0.8619  1.0045
 1362SOL    HW214556   2.360   2.712   0.645 -4.3070 -0.5301 -0.7330
 1363SOL     OW14557   3.094   3.958   2.109  0.0250  0.5132 -0.2383
 1363SOL    HW114558   3.003   3.986   2.081  0.6786  1.3019 -1.6176
 1363SOL    HW214559   3.158   4.033   2.096  0.9704 -0.1894  0.2579
 1364SOL     OW14560   9.202   3.024   2.009 -0.2224  0.1590 -0.2402
 1364SOL    HW114561   9.297   2.994   2.017 -0.3957 -0.4884 -0.5641
 1364SOL    HW214562   9.182   3.089   2.082  0.5495  0.5220 -0.3402
 1365SOL     OW14563   0.732   1.029   0.167  0.0690 -0.1299 -0.1719
 1365SOL    HW114564   0.698   0.967   0.238  0.4124  0.6083  0.6405
 1365SOL    HW214565   0.748   0.977   0.083  0.3058 -1.1357  0.4850
 1366SOL     OW14566   0.203   0.678   1.636 -0.2898 -0.4157  0.0956
 1366SOL    HW114567   0.267   0.700   1.562  0.0333  0.4992  0.6286
 1366SOL    HW214568   0.110   0.679   1.601 -0.0604 -1.0478 -0.5342
 1367SOL     OW14569   1.083   5.500   3.544  1.3927 -0.0148  0.1292
 1367SOL    HW114570   1.076   5.584   3.490 -1.7282  0.1554  0.7029
 1367SOL    HW214571   1.016   5.433   3.511  1.7480 -1.1563  1.6413
 1368SOL     OW14572   4.486   2.482   1.502 -0.1106 -0.1305  0.0264
 1368SOL    HW114573   4.517   2.442   1.416  0.3995  0.1911  0.0600
 1368SOL    HW214574   4.500   2.418   1.577  1.5197  0.4397  0.2187
 1369SOL     OW14575   0.413   5.302   3.022 -0.0082 -0.4980 -0.1036
 1369SOL    HW114576   0.446   5.208   3.033  0.5764 -0.2626  0.1536
 1369SOL    HW214577   0.317   5.306   3.050 -0.1519 -1.0976 -0.4801
 1370SOL     OW14578   1.505   5.256   1.681  0.0302  0.1154  0.4087
 1370SOL    HW114579   1.571   5.190   1.716  1.5571  1.7599  0.7201
 1370SOL    HW214580   1.424   5.258   1.739  0.2247 -1.0743  0.7169
 1371SOL     OW14581   1.211   9.081   2.327 -0.4474  0.4104 -0.4003
 1371SOL    HW114582   1.130   9.103   2.272 -0.4308  0.2327 -0.4948
 1371SOL    HW214583   1.238   9.161   2.380 -1.4829  0.0876  0.6370
 1372SOL     OW14584   8.857   2.562   3.044  0.3881 -0.5088 -0.0069
 1372SOL    HW114585   8.772   2.509   3.039 -0.4753  0.9062 -1.1321
 1372SOL    HW214586   8.931   2.511   3.000 -0.3768 -0.8647 -0.9010
 1373SOL     OW14587   1.109   6.820   1.023  0.0169  0.5212 -0.3040
 1373SOL    HW114588   1.183   6.869   1.069 -0.0162  0.6093 -0.3456
 1373SOL    HW214589   1.065   6.880   0.957  0.1607  0.3512 -0.5559
 1374SOL     OW14590   3.270   0.375   0.886  0.1506 -0.4629  0.0865
 1374SOL    HW114591   3.250   0.341   0.794  0.0311 -2.1650  0.7269
 1374SOL    HW214592   3.358   0.339   0.916  0.9807  1.4419 -0.0031
 1375SOL     OW14593   7.501   9.181   2.663  0.2774 -0.2785 -0.0778
 1375SOL    HW114594   7.504   9.197   2.564 -2.5735 -0.3987 -0.2403
 1375SOL    HW214595   7.451   9.255   2.707 -0.0769 -1.1578  1.0318
 1376SOL     OW14596   1.674   4.715   3.197 -0.3784 -0.2132  0.0191
 1376SOL    HW114597   1.634   4.795   3.241  0.8546  0.9286 -0.8949
 1376SOL    HW214598   1.624   4.695   3.113 -0.4468 -0.1650  0.0485
 1377SOL     OW14599   0.746   2.157   1.309 -0.1065 -0.4998  0.3431
 1377SOL    HW114600   0.764   2.170   1.211 -0.8182  0.2970  0.3129
 1377SOL    HW214601   0.739   2.246   1.354  0.2384 -0.8672  1.1262
 1378SOL     OW14602   0.710   0.559   3.614  0.5619 -0.1387 -0.4282
 1378SOL    HW114603   0.726   0.471   3.570  0.1595 -0.3351 -0.1850
 1378SOL    HW214604   0.676   0.544   3.707 -1.8267  0.2595 -1.2044
 1379SOL     OW14605   7.949   0.205   1.285 -0.4818 -0.0962 -0.1736
 1379SOL    HW114606   7.850   0.206   1.299 -0.6886  0.8087 -1.6001
 1379SOL    HW214607   7.969   0.187   1.188  0.7116  0.8971 -0.1261
 1380SOL     OW14608   8.414   1.121   1.455  0.0600  0.0855 -0.2368
 1380SOL    HW114609   8.399   1.033   1.411  0.2772 -0.6476  1.1210
 1380SOL    HW214610   8.328   1.154   1.494  0.1869 -0.0006  0.1174
 1381SOL     OW14611   1.010   0.992   1.502  0.4615 -0.6537  0.2646
 1381SOL    HW114612   1.043   0.942   1.583  0.5770  0.2219  0.7593
 1381SOL    HW214613   1.058   1.079   1.495  0.7368 -0.8942 -0.9799
 1382SOL     OW14614   2.699   6.631   3.833 -0.2880 -0.0389  0.1480
 1382SOL    HW114615   2.729   6.710   3.779  1.1153 -1.0186 -0.5092
 1382SOL    HW214616   2.616   6.593   3.792 -0.8623  0.9578  0.3538
 1383SOL     OW14617   9.277   2.866   3.751  1.0601 -0.4935 -0.5200
 1383SOL    HW114618   9.371   2.853   3.780  0.0767 -2.7837  1.8081
 1383SOL    HW214619   9.223   2.901   3.827 -0.6578 -2.4075 -0.8212
 1384SOL     OW14620   8.214   5.420   2.476  0.0047  0.0918 -0.0504
 1384SOL    HW114621   8.148   5.490   2.502  0.0761  0.4273 -0.7563
 1384SOL    HW214622   8.167   5.333   2.460 -0.4221  0.5783 -1.5622
 1385SOL     OW14623   9.600   9.715   0.100  0.1315  0.0395 -0.0149
 1385SOL    HW114624   9.550   9.647   0.047  3.0308 -2.4674  0.3066
 1385SOL    HW214625   9.603   9.686   0.196  1.9819  0.2157 -0.0026
 1386SOL     OW14626   3.078   5.852   2.152 -0.3767 -0.8154 -0.4802
 1386SOL    HW114627   3.038   5.830   2.063 -2.1089  0.0791  0.0585
 1386SOL    HW214628   3.107   5.947   2.152  1.4426 -1.3593 -0.7406
 1387SOL     OW14629   2.397   1.170   0.671  0.5174  0.0405  0.0329
 1387SOL    HW114630   2.495   1.156   0.658  0.1931 -2.2307 -0.2151
 1387SOL    HW214631   2.370   1.259   0.635  2.8541  1.6280  2.0295
 1388SOL     OW14632   5.071   9.402   2.218  0.2236  0.1527 -0.3910
 1388SOL    HW114633   4.975   9.399   2.190  0.8127  0.0771 -2.5176
 1388SOL    HW214634   5.083   9.470   2.290 -1.8793 -1.7281  1.7912
 1389SOL     OW14635   8.301   8.465   3.842 -0.3135  0.0194 -0.6577
 1389SOL    HW114636   8.381   8.513   3.806 -0.5114  1.9403  1.4090
 1389SOL    HW214637   8.328   8.374   3.873  0.8984  0.3304 -0.7849
 1390SOL     OW14638   9.233   1.578   1.873  0.1661 -0.3967 -0.6079
 1390SOL    HW114639   9.175   1.536   1.942 -0.8636  1.0915 -0.5412
 1390SOL    HW214640   9.178   1.600   1.792  0.7009  0.7627 -0.6610
 1391SOL     OW14641   1.421   9.695   2.407  0.5777 -0.1376  0.1791
 1391SOL    HW114642   1.450   9.609   2.364  0.7892 -0.2466  0.5429
 1391SOL    HW214643   1.493   9.763   2.398  0.3775  0.0327 -0.1831
 1392SOL     OW14644   3.574   8.887   0.713 -0.7101 -0.4652  0.6111
 1392SOL    HW114645   3.591   8.806   0.657 -0.1905  0.2552 -0.2911
 1392SOL    HW214646   3.516   8.951   0.662 -2.0942 -0.7689  1.7670
 1393SOL     OW14647   9.183   4.254   2.460 -0.0797  0.7031  0.1337
 1393SOL    HW114648   9.137   4.343   2.451  1.1477  1.4863  1.5869
 1393SOL    HW214649   9.170   4.202   2.375 -5.4999 -0.0052  1.1995
 1394SOL     OW14650   2.091   2.321   3.791  0.3149 -0.1955  0.6224
 1394SOL    HW114651   2.130   2.395   3.736 -0.1343  0.2428  0.8885
 1394SOL    HW214652   2.018   2.357   3.849  0.3372 -0.7804  1.0203
 1395SOL     OW14653   7.455   1.024   2.916  0.0820  0.0553  0.0557
 1395SOL    HW114654   7.493   1.079   2.842 -1.1929  1.2499  0.2674
 1395SOL    HW214655   7.455   1.077   3.001  0.1729 -0.7819  0.5918
 1396SOL     OW14656   7.231   9.287   0.319  0.3200 -0.7595  0.1913
 1396SOL    HW114657   7.225   9.387   0.315  2.5643 -0.5581  1.4657
 1396SOL    HW214658   7.172   9.254   0.393  1.1835 -0.2108  1.1342
 1397SOL     OW14659   9.879   1.822   3.877  0.2133  0.4555 -0.0417
 1397SOL    HW114660   9.815   1.797   3.950 -0.0008  0.2958 -0.2825
 1397SOL    HW214661   9.835   1.806   3.788  0.2439  1.2333 -0.1989
 1398SOL     OW14662   2.156   0.339   1.225  0.3483 -0.1265 -0.4760
 1398SOL    HW114663   2.227   0.404   1.198 -0.5814  0.5793 -1.2634
 1398SOL    HW214664   2.067   0.372   1.193 -0.3729 -0.8661  0.7258
 1399SOL     OW14665   9.972   6.190   1.647  0.4220  0.3763 -0.1737
 1399SOL    HW114666  10.027   6.222   1.724 -1.5606 -0.1126  1.4867
 1399SOL    HW214667   9.992   6.246   1.567  2.0511  1.3048  0.8463
 1400SOL     OW14668   1.071   9.024   2.793 -0.2026 -0.3528  0.1048
 1400SOL    HW114669   0.997   8.992   2.734  1.0588 -1.9411 -0.6511
 1400SOL    HW214670   1.151   8.965   2.782  1.1553  1.2633  0.9844
 1401SOL     OW14671   8.825   9.294   2.056 -0.1615  0.0218 -0.4576
 1401SOL    HW114672   8.845   9.381   2.011 -0.2631  0.7409  0.8715
 1401SOL    HW214673   8.730   9.268   2.039 -0.5640  0.9166  0.3477
 1402SOL     OW14674   2.095   1.800   3.680 -0.2034  0.3255 -0.2289
 1402SOL    HW114675   2.159   1.734   3.720  0.0211  1.6990  1.7311
 1402SOL    HW214676   2.126   1.893   3.701 -0.3231  1.1025 -3.2566
 1403SOL     OW14677   9.790   0.950   1.642  0.3885 -0.0319 -0.2715
 1403SOL    HW114678   9.865   0.885   1.632  0.0737 -0.4983  0.3624
 1403SOL    HW214679   9.809   1.013   1.717  1.0113  1.0560 -1.3267
 1404SOL     OW14680   3.140   1.810   3.268 -1.2335  0.0828  0.2252
 1404SOL    HW114681   3.171   1.877   3.336 -4.0244  1.3556  0.3182
 1404SOL    HW214682   3.181   1.721   3.287  2.3788  1.6888  0.2328
 1405SOL     OW14683   2.782   7.425   1.651 -0.2595 -0.5455 -0.0462
 1405SOL    HW114684   2.800   7.334   1.614 -1.9413  0.4983 -3.6850
 1405SOL    HW214685   2.846   7.490   1.611  0.9612 -0.0780  2.5616
 1406SOL     OW14686   7.952   7.702   3.302 -0.2841  0.0228 -0.4657
 1406SOL    HW114687   7.980   7.701   3.206 -0.0857 -2.2871 -0.4126
 1406SOL    HW214688   7.995   7.779   3.349 -0.6492  1.3701 -2.2868
 1407SOL     OW14689   2.912   4.536   3.367  0.2212  0.9301 -0.4798
 1407SOL    HW114690   2.885   4.604   3.299  0.4014  2.0929  0.5811
 1407SOL    HW214691   2.906   4.445   3.328 -0.3410  1.5363 -1.8317
 1408SOL     OW14692   0.432   9.823   1.154 -0.1594  0.3921 -0.4141
 1408SOL    HW114693   0.492   9.891   1.112 -0.9253  0.7822 -0.8914
 1408SOL    HW214694   0.388   9.768   1.083 -2.4080  1.8558 -0.2213
 1409SOL     OW14695   6.132   7.291   2.076  0.3772  0.3806  0.1010
 1409SOL    HW114696   6.174   7.305   1.986  1.5755  0.0404  0.5929
 1409SOL    HW214697   6.060   7.222   2.068 -0.8657  1.7763 -0.9700
 1410SOL     OW14698   1.315   2.215   2.545  0.6064 -0.4957  0.0771
 1410SOL    HW114699   1.315   2.278   2.624  1.5983  0.5037 -0.6965
 1410SOL    HW214700   1.407   2.214   2.505  0.6301 -2.5646  0.1672
 1411SOL     OW14701   3.332   9.510   1.667  0.0655  0.2284 -0.2813
 1411SOL    HW114702   3.298   9.439   1.605 -2.7047 -0.2882  1.7361
 1411SOL    HW214703   3.421   9.483   1.703  0.6906 -0.5086 -2.2771
 1412SOL     OW14704   0.909   0.395   4.025  0.2406  0.1372 -0.0551
 1412SOL    HW114705   0.840   0.324   4.039 -1.9851  1.7695 -2.3142
 1412SOL    HW214706   0.881   0.479   4.072  0.6876  0.8054 -0.9601
 1413SOL     OW14707   3.827   0.464   2.178 -0.0220  0.0362  0.7351
 1413SOL    HW114708   3.880   0.425   2.103  0.4018  0.3026  0.8886
 1413SOL    HW214709   3.730   0.454   2.160  0.0665  1.0537 -0.3500
 1414SOL     OW14710   4.015   2.514   2.090 -0.1205  0.5902  0.5077
 1414SOL    HW114711   4.077   2.569   2.146 -0.4611  0.4026  1.0846
 1414SOL    HW214712   3.921   2.526   2.123 -0.3143  0.4015  0.0338
 1415SOL     OW14713   9.897   9.582   0.484  0.4530  0.0121  0.1478
 1415SOL    HW114714   9.861   9.508   0.428  0.4781  0.2736 -0.2178
 1415SOL    HW214715   9.825   9.650   0.500  1.2758  1.5206 -2.2368
 1416SOL     OW14716   0.025   6.233   4.033 -0.1550  0.3281 -0.0460
 1416SOL    HW114717  -0.022   6.150   4.064  0.3939 -0.1119 -0.3884
 1416SOL    HW214718   0.081   6.212   3.953 -0.4368  1.1520 -0.4675
 1417SOL     OW14719   1.259   5.131   2.978  0.3013 -0.7715  0.4533
 1417SOL    HW114720   1.303   5.043   2.997 -0.6789 -0.7705  2.9818
 1417SOL    HW214721   1.179   5.142   3.038  0.3930  1.8109  0.1682
 1418SOL     OW14722   9.826   0.627   2.508 -0.0190  0.3880 -0.1880
 1418SOL    HW114723   9.859   0.681   2.585 -1.3434  0.9697 -0.0059
 1418SOL    HW214724   9.890   0.553   2.488  0.4120  0.3282  1.3681
 1419SOL     OW14725   4.342   5.069   0.920  0.3374 -0.3427  0.1993
 1419SOL    HW114726   4.273   5.097   0.987  0.9888 -1.1756  1.2301
 1419SOL    HW214727   4.305   5.081   0.827 -1.0018 -0.2885  0.7268
 1420SOL     OW14728   1.269   5.994   1.863  0.8496  0.2592  0.0283
 1420SOL    HW114729   1.288   5.898   1.841  2.6194  0.8617 -1.1134
 1420SOL    HW214730   1.307   6.053   1.792 -2.0193  1.7267 -0.3679
 1421SOL     OW14731   8.086   2.365   0.927  0.1394 -0.0111 -0.1366
 1421SOL    HW114732   7.999   2.328   0.894  1.1285 -1.8928 -0.7269
 1421SOL    HW214733   8.105   2.451   0.881 -1.6855  0.7154  0.4289
 1422SOL     OW14734   9.733   1.691   1.799  0.4957 -0.1579 -0.2201
 1422SOL    HW114735   9.748   1.746   1.881 -0.8980 -0.8706  0.5139
 1422SOL    HW214736   9.647   1.642   1.806  1.3568 -1.8740 -1.1953
 1423SOL     OW14737   3.301   3.472   2.773 -0.6295  0.2716  0.1309
 1423SOL    HW114738   3.265   3.564   2.762  0.1499  0.4604 -0.9771
 1423SOL    HW214739   3.229   3.405   2.754 -0.4396  0.6417 -2.0424
 1424SOL     OW14740   6.261   7.660   2.732 -0.0782 -1.1008  0.2218
 1424SOL    HW114741   6.214   7.659   2.644 -1.2480 -0.0479  0.8324
 1424SOL    HW214742   6.202   7.701   2.802  1.3122 -0.7776  1.2343
 1425SOL     OW14743   1.917   0.499   1.107 -0.6005  0.1369 -0.1576
 1425SOL    HW114744   1.825   0.478   1.139 -0.2386  0.8039  1.4090
 1425SOL    HW214745   1.925   0.597   1.090 -0.6645 -0.1533 -1.9690
 1426SOL     OW14746   8.754   0.999   1.094  0.4287 -0.3926  0.3485
 1426SOL    HW114747   8.774   0.931   1.165  1.4165 -0.9508 -0.4439
 1426SOL    HW214748   8.754   0.954   1.004 -0.4446  0.3706 -0.0402
 1427SOL     OW14749   1.246   8.407   1.981  0.0358  0.3609 -0.2659
 1427SOL    HW114750   1.276   8.329   2.036 -1.1977 -0.0333 -0.1334
 1427SOL    HW214751   1.232   8.487   2.040 -1.0173  0.0128 -0.0307
 1428SOL     OW14752   1.832   3.602   3.104 -0.1306 -0.0228  1.1537
 1428SOL    HW114753   1.812   3.579   3.199 -0.1537 -0.8644  0.9469
 1428SOL    HW214754   1.845   3.518   3.051  0.6800  0.4511  0.5829
 1429SOL     OW14755   2.981   5.012   1.592  0.5217 -0.5472  0.1340
 1429SOL    HW114756   2.967   4.938   1.526 -1.0966 -1.3452  1.3545
 1429SOL    HW214757   2.938   5.096   1.558  1.9896 -0.2403 -1.0494
 1430SOL     OW14758   6.158   8.797   1.460  0.2423  0.3939 -0.2455
 1430SOL    HW114759   6.079   8.794   1.521 -0.0409  3.3331 -0.4062
 1430SOL    HW214760   6.206   8.709   1.463 -2.4677 -1.1019  0.5708
 1431SOL     OW14761   9.762   0.219   2.418 -0.2797  0.1073 -0.1100
 1431SOL    HW114762   9.663   0.231   2.418 -0.2631  0.2336 -0.0165
 1431SOL    HW214763   9.807   0.308   2.425 -0.1399  0.2490 -2.4037
 1432SOL     OW14764   9.845   6.497   2.022  0.0395  0.7260 -0.8592
 1432SOL    HW114765   9.919   6.562   2.041  1.2470 -0.7225 -0.5113
 1432SOL    HW214766   9.769   6.545   1.979  0.4277  2.5914  0.4813
 1433SOL     OW14767   5.783   9.278   2.606 -0.0553 -0.2229 -0.8774
 1433SOL    HW114768   5.734   9.226   2.676 -0.1261  0.1838 -0.6200
 1433SOL    HW214769   5.855   9.332   2.649 -0.8989  0.9857 -0.9566
 1434SOL     OW14770   2.092   8.232   3.469  0.3437  0.0419 -0.6481
 1434SOL    HW114771   2.154   8.154   3.473  0.1861 -0.1003 -0.9582
 1434SOL    HW214772   2.026   8.219   3.394 -0.8567 -0.4045  0.4657
 1435SOL     OW14773   8.313   8.739   2.829 -0.4000 -0.2563 -0.5031
 1435SOL    HW114774   8.241   8.806   2.848  0.2647  0.1622  0.5314
 1435SOL    HW214775   8.402   8.785   2.826  0.4411 -1.5007  3.1110
 1436SOL     OW14776   8.472   8.713   2.399  0.3547 -0.2648 -0.4478
 1436SOL    HW114777   8.384   8.667   2.412 -0.6358  1.3761 -1.1835
 1436SOL    HW214778   8.492   8.720   2.301 -0.3426  2.3509 -0.4332
 1437SOL     OW14779   3.740   9.708   2.495 -0.3354 -0.4594 -0.3887
 1437SOL    HW114780   3.782   9.778   2.438  1.1779 -0.2637  0.9304
 1437SOL    HW214781   3.646   9.734   2.517 -0.0486  0.7465 -0.5796
 1438SOL     OW14782   3.174   1.181   1.400 -0.0240 -0.4160  0.4146
 1438SOL    HW114783   3.116   1.239   1.457 -0.8587 -1.1891  0.3593
 1438SOL    HW214784   3.250   1.236   1.364 -0.7565  0.6266  0.4255
 1439SOL     OW14785   9.139   4.764   0.287 -0.1672 -0.0001 -0.2062
 1439SOL    HW114786   9.095   4.776   0.376  0.4066  0.7106 -0.0110
 1439SOL    HW214787   9.102   4.683   0.242  0.0002 -0.7345  0.9653
 1440SOL     OW14788   0.798   1.192   0.693 -0.1727 -0.3875 -0.3824
 1440SOL    HW114789   0.737   1.150   0.625 -0.8403 -2.9536  1.6894
 1440SOL    HW214790   0.869   1.126   0.718 -0.0784  0.4237  1.5403
 1441SOL     OW14791   2.931   4.124   3.037  0.1487  0.1371 -0.5429
 1441SOL    HW114792   3.030   4.133   3.049 -0.0800 -0.6060  2.1148
 1441SOL    HW214793   2.899   4.041   3.083 -2.0030  1.4926  0.4591
 1442SOL     OW14794   4.198   1.461   1.535  0.6226 -0.7073  0.3056
 1442SOL    HW114795   4.207   1.511   1.620 -1.0039  0.7675 -0.3484
 1442SOL    HW214796   4.286   1.421   1.509  1.3617 -0.2688  2.1021
 1443SOL     OW14797   4.532   7.669   4.018 -0.3579  0.3152  0.0499
 1443SOL    HW114798   4.618   7.655   3.969 -0.7447  1.6683 -1.0319
 1443SOL    HW214799   4.469   7.594   3.996  1.0752 -1.5825  2.1216
 1444SOL     OW14800   0.062   7.558   1.620 -0.3930 -0.5758 -0.0946
 1444SOL    HW114801   0.083   7.591   1.712 -1.5526  2.0845 -0.7267
 1444SOL    HW214802  -0.030   7.519   1.619 -0.9435  0.6881 -0.3950
 1445SOL     OW14803   5.135   8.368   1.531 -0.0531  0.0950  0.3436
 1445SOL    HW114804   5.130   8.314   1.615  0.3322 -0.1456  0.2094
 1445SOL    HW214805   5.158   8.309   1.454 -1.0604  0.1999 -0.0462
 1446SOL     OW14806   9.947   0.148   3.641  0.1282 -0.2311  0.0739
 1446SOL    HW114807   9.951   0.098   3.728 -0.0617  2.5203  1.6937
 1446SOL    HW214808  10.039   0.164   3.608  0.2214 -0.5566  0.1716
 1447SOL     OW14809   2.899   2.162   1.436  0.3077 -0.3455 -0.0484
 1447SOL    HW114810   2.914   2.260   1.421 -0.8250 -0.2018 -0.2599
 1447SOL    HW214811   2.952   2.110   1.369  0.8695  0.1237  0.0286
 1448SOL     OW14812   2.412   6.640   3.335  0.1311 -0.3426 -0.0766
 1448SOL    HW114813   2.434   6.598   3.247  0.2482  0.5595 -0.4870
 1448SOL    HW214814   2.315   6.628   3.355 -0.2286  0.8461 -1.0954
 1449SOL     OW14815   4.547   7.081   2.700 -0.1839  0.3509 -0.2385
 1449SOL    HW114816   4.567   7.148   2.772 -1.9003  0.3509  0.2617
 1449SOL    HW214817   4.450   7.057   2.703 -0.1195 -0.1872 -2.1198
 1450SOL     OW14818   0.540   2.107   0.584 -0.2833 -0.1367 -0.1828
 1450SOL    HW114819   0.499   2.032   0.532 -0.1559 -0.7583  0.5865
 1450SOL    HW214820   0.520   2.194   0.540  0.3318 -0.6879 -1.5899
 1451SOL     OW14821   3.597   7.492   3.538  0.1293 -0.4100  0.8421
 1451SOL    HW114822   3.539   7.432   3.483 -0.3045 -0.8732  1.7894
 1451SOL    HW214823   3.581   7.587   3.512 -0.7176 -0.5671  0.7621
 1452SOL     OW14824   8.894   2.825   0.861 -0.1687  0.3576  0.5283
 1452SOL    HW114825   8.983   2.846   0.821  0.4511 -0.2535  1.5641
 1452SOL    HW214826   8.823   2.828   0.790  0.7161  0.5650 -0.3478
 1453SOL     OW14827   2.471   2.764   0.393 -0.0376 -0.2422  0.0852
 1453SOL    HW114828   2.415   2.816   0.458  0.8164  1.2150 -0.3196
 1453SOL    HW214829   2.472   2.812   0.305  2.1548 -0.0487  0.2050
 1454SOL     OW14830   0.248   1.453   2.848 -0.4040 -0.0859  0.3693
 1454SOL    HW114831   0.337   1.498   2.843 -0.4055 -0.0447  0.7019
 1454SOL    HW214832   0.245   1.393   2.928 -0.2155 -1.0911 -0.3674
 1455SOL     OW14833   2.072   3.166   0.531 -0.3326 -0.2926  0.2444
 1455SOL    HW114834   2.074   3.067   0.546  3.3565 -0.6442 -1.9082
 1455SOL    HW214835   2.035   3.185   0.440  2.1185  0.0798 -0.6873
 1456SOL     OW14836   0.903   6.902   3.536 -0.0670  0.2762  0.0400
 1456SOL    HW114837   0.947   6.866   3.618 -0.8541 -0.1327  0.2896
 1456SOL    HW214838   0.826   6.843   3.511  1.2489 -0.5852 -2.0030
 1457SOL     OW14839   2.650   5.216   1.696 -0.4758 -0.3759 -0.2382
 1457SOL    HW114840   2.610   5.305   1.674 -1.1988 -0.7234 -0.3394
 1457SOL    HW214841   2.579   5.147   1.698  0.4194 -1.3887 -2.4239
 1458SOL     OW14842   4.953   8.218   3.143 -0.3971  0.2506 -0.4073
 1458SOL    HW114843   4.989   8.309   3.164 -0.6907  0.3752 -0.4379
 1458SOL    HW214844   4.875   8.227   3.080 -1.2534  0.0738  0.6209
 1459SOL     OW14845   3.278   4.786   3.438  0.0421  0.9794 -0.8688
 1459SOL    HW114846   3.279   4.787   3.338 -1.0592 -0.2733 -0.9090
 1459SOL    HW214847   3.206   4.846   3.472 -0.4976  0.3389 -0.8693
 1460SOL     OW14848   9.023   9.102   3.768 -0.4331  0.4975  0.1036
 1460SOL    HW114849   9.008   9.049   3.852  1.0187 -1.1839 -0.6694
 1460SOL    HW214850   8.937   9.112   3.719 -0.7481 -1.0660  0.3226
 1461SOL     OW14851   4.121   3.523   1.347  0.2043  0.0416  0.3540
 1461SOL    HW114852   4.097   3.429   1.326 -0.3199  0.3286 -0.3709
 1461SOL    HW214853   4.070   3.553   1.428  0.7403 -0.4482  0.8744
 1462SOL     OW14854   7.632   2.119   1.680  0.0066 -0.1454 -0.2118
 1462SOL    HW114855   7.588   2.191   1.733  0.3601  0.1462 -0.3093
 1462SOL    HW214856   7.654   2.042   1.740  0.1778  0.0788  0.0131
 1463SOL     OW14857   2.204   2.138   0.382  0.1244  0.3894 -0.0172
 1463SOL    HW114858   2.168   2.153   0.474 -0.6351 -1.7953  0.0659
 1463SOL    HW214859   2.152   2.066   0.337  1.0176  0.8743 -1.8749
 1464SOL     OW14860   4.060   7.428   4.047 -0.3146  0.4027 -0.1787
 1464SOL    HW114861   4.036   7.385   4.134 -2.3287  0.2907 -0.7650
 1464SOL    HW214862   4.028   7.371   3.972 -1.8047  2.2141 -0.9655
 1465SOL     OW14863   8.343   8.248   0.149  0.5057  0.4332 -0.0451
 1465SOL    HW114864   8.396   8.173   0.187  1.1682  0.9719  0.0979
 1465SOL    HW214865   8.246   8.233   0.168  0.3799 -1.5688 -2.0532
 1466SOL     OW14866   7.634   6.550   2.784  0.0416 -0.1941  0.2082
 1466SOL    HW114867   7.542   6.589   2.779  0.2216  0.0764 -1.0014
 1466SOL    HW214868   7.647   6.510   2.875 -1.3373 -0.4176  0.3289
 1467SOL     OW14869   0.853   3.179   0.554 -0.5724 -0.2655  0.5207
 1467SOL    HW114870   0.940   3.180   0.506 -0.9419 -0.0025 -0.1498
 1467SOL    HW214871   0.866   3.140   0.645 -0.0300 -1.5416 -0.0891
 1468SOL     OW14872   0.421   3.253   0.398  0.4769 -0.6749 -0.0970
 1468SOL    HW114873   0.433   3.350   0.419  0.0068 -0.7329  0.4466
 1468SOL    HW214874   0.452   3.235   0.305 -1.1351  0.3622 -0.8641
 1469SOL     OW14875   6.875   9.580   1.918 -0.1644 -0.3611 -0.0150
 1469SOL    HW114876   6.812   9.509   1.949  0.3013 -0.2299  1.3051
 1469SOL    HW214877   6.853   9.667   1.963 -0.2940  0.1655 -1.0828
 1470SOL     OW14878   3.423   3.327   0.511 -0.3482 -0.0637 -0.6077
 1470SOL    HW114879   3.456   3.372   0.427  0.9241 -0.5132 -0.3665
 1470SOL    HW214880   3.482   3.353   0.587 -0.8257 -0.5499 -0.0708
 1471SOL     OW14881   2.053   6.797   3.703 -0.3136  0.1942 -0.3613
 1471SOL    HW114882   2.066   6.778   3.800 -0.2917 -0.3378 -0.4686
 1471SOL    HW214883   1.974   6.858   3.691 -0.6864 -0.2276 -0.0548
 1472SOL     OW14884   9.831   0.905   2.244 -0.3555 -0.2238  0.3403
 1472SOL    HW114885   9.761   0.838   2.269  0.2072 -1.0882 -0.3782
 1472SOL    HW214886   9.893   0.865   2.177 -0.1072  1.0703 -0.2263
 1473SOL     OW14887   1.450   1.680   3.081  0.2300 -0.4439  0.1882
 1473SOL    HW114888   1.436   1.630   3.167 -2.7422  0.3159  0.2088
 1473SOL    HW214889   1.393   1.762   3.081  1.6837  0.5961 -1.7131
 1474SOL     OW14890   9.419   7.058   2.912 -0.6796 -0.5630 -0.2608
 1474SOL    HW114891   9.424   6.966   2.873 -0.6011 -1.0918  0.9833
 1474SOL    HW214892   9.491   7.069   2.981 -0.7052  0.4160 -0.3900
 1475SOL     OW14893   1.318   4.680   1.502  0.2601 -0.7422 -0.7534
 1475SOL    HW114894   1.358   4.598   1.545  1.5327 -0.1081 -0.6965
 1475SOL    HW214895   1.337   4.760   1.560 -0.6983 -0.3603 -0.9680
 1476SOL     OW14896   0.281   1.301   0.138  0.0220 -0.3153  0.6463
 1476SOL    HW114897   0.379   1.317   0.127  0.0003 -1.5825 -1.6918
 1476SOL    HW214898   0.234   1.388   0.152  1.5522  0.2352  2.5010
 1477SOL     OW14899   2.042   9.955   3.543 -0.4755 -0.0670  0.1064
 1477SOL    HW114900   2.113   9.885   3.539 -0.7080 -0.2427 -1.1173
 1477SOL    HW214901   2.084  10.046   3.535 -0.2407 -0.0905  1.0083
 1478SOL     OW14902   0.978   3.665   2.666 -0.9251 -0.1486  0.3933
 1478SOL    HW114903   0.884   3.645   2.694 -0.3562 -1.1233  1.6186
 1478SOL    HW214904   1.000   3.760   2.689 -2.5264  0.9771 -2.4525
 1479SOL     OW14905   1.468   1.497   3.297 -0.3693 -0.0996  0.2404
 1479SOL    HW114906   1.567   1.486   3.285 -0.4169 -1.3587  0.9325
 1479SOL    HW214907   1.450   1.564   3.369 -0.0090 -0.7369  0.9282
 1480SOL     OW14908   3.930   0.729   2.142  0.4191 -0.0087  0.3169
 1480SOL    HW114909   3.867   0.652   2.148 -1.6115  1.7170  1.8267
 1480SOL    HW214910   3.879   0.814   2.128  2.4803  1.3102  0.4585
 1481SOL     OW14911   3.195   4.139   3.056 -0.8250  0.0262 -0.1941
 1481SOL    HW114912   3.248   4.082   2.993 -0.5478  0.6711 -0.5465
 1481SOL    HW214913   3.256   4.197   3.109 -1.1249  0.2263 -0.0614
 1482SOL     OW14914   8.675   3.581   1.391  0.1488 -0.6152 -0.9712
 1482SOL    HW114915   8.736   3.508   1.422  0.3892  0.0894  0.2569
 1482SOL    HW214916   8.580   3.551   1.401  0.2169 -0.3665  0.6036
 1483SOL     OW14917   8.440   7.410   1.557  0.4441 -0.1721 -0.1411
 1483SOL    HW114918   8.467   7.474   1.629 -0.6210 -0.5368  0.5970
 1483SOL    HW214919   8.501   7.420   1.479  1.4293  0.4477  0.6920
 1484SOL     OW14920   7.497   0.188   3.455 -0.2186 -0.1509  0.4578
 1484SOL    HW114921   7.533   0.104   3.495 -0.0376 -1.1405 -1.7301
 1484SOL    HW214922   7.564   0.262   3.466  0.9062 -1.0502 -0.2400
 1485SOL     OW14923   0.961   5.613   1.506  0.0385 -0.3544 -0.5904
 1485SOL    HW114924   0.869   5.582   1.531  0.2707 -0.6065 -0.0518
 1485SOL    HW214925   0.954   5.680   1.433 -0.6553  0.5095  0.2575
 1486SOL     OW14926   2.719   7.116   1.250 -0.1027  0.1880 -0.6893
 1486SOL    HW114927   2.632   7.070   1.269 -0.6008  0.5595 -2.0622
 1486SOL    HW214928   2.710   7.214   1.270  0.7109 -0.1363  1.4239
 1487SOL     OW14929   2.581   6.815   1.195 -0.3535  0.0274 -0.2073
 1487SOL    HW114930   2.592   6.812   1.095 -0.2941  1.4524 -0.2584
 1487SOL    HW214931   2.495   6.770   1.220  0.2057 -1.3948 -0.7856
 1488SOL     OW14932   3.360   4.560   3.594 -0.0252  0.0770  0.1489
 1488SOL    HW114933   3.289   4.539   3.660  0.7086  0.3910  1.0515
 1488SOL    HW214934   3.325   4.625   3.526 -0.6818 -0.0146  0.4024
 1489SOL     OW14935   4.412   0.481   0.009 -0.7515 -0.3075 -0.2229
 1489SOL    HW114936   4.399   0.554   0.076  0.5433  0.5380 -0.8595
 1489SOL    HW214937   4.494   0.429   0.031 -0.9804 -0.7800 -0.4734
 1490SOL     OW14938   2.626   8.579   2.491  0.0235  0.3628 -0.2917
 1490SOL    HW114939   2.533   8.562   2.458  0.7101 -2.4944 -0.8767
 1490SOL    HW214940   2.633   8.674   2.524 -3.2984  0.3656  0.5641
 1491SOL     OW14941   7.888   1.339   3.291 -0.1691 -0.0375 -0.2026
 1491SOL    HW114942   7.978   1.378   3.272  0.4524 -0.9177  0.8483
 1491SOL    HW214943   7.888   1.299   3.383 -2.0215  1.0924  0.3232
 1492SOL     OW14944   2.905   4.399   2.993  0.0532 -0.3531  0.6409
 1492SOL    HW114945   2.905   4.423   2.896 -0.5795 -1.3209  0.3958
 1492SOL    HW214946   2.919   4.301   3.004 -0.3612 -0.3311  1.5060
 1493SOL     OW14947   3.902   5.878   2.714 -0.0292  0.6859 -0.2253
 1493SOL    HW114948   3.855   5.954   2.759  0.7498  1.3649 -0.5393
 1493SOL    HW214949   3.991   5.909   2.681 -0.2886 -0.0000 -1.5995
 1494SOL     OW14950   0.945   9.690   2.211 -0.2970 -0.4500 -0.2117
 1494SOL    HW114951   0.895   9.738   2.138 -3.4766 -2.4946  0.4954
 1494SOL    HW214952   1.039   9.723   2.215 -1.6559  3.9205 -1.3578
 1495SOL     OW14953   9.538   1.076   2.446 -0.0082 -0.0211 -0.4205
 1495SOL    HW114954   9.496   0.992   2.412  0.9935 -1.0915  0.9446
 1495SOL    HW214955   9.476   1.119   2.513  0.7212 -1.2054  1.0348
 1496SOL     OW14956   0.126   0.916   3.731  0.1469 -0.2006 -0.2302
 1496SOL    HW114957   0.090   0.874   3.648  1.2319 -1.7929  0.0982
 1496SOL    HW214958   0.057   0.911   3.804 -0.3391  0.0953 -0.6648
 1497SOL     OW14959   0.830   5.277   1.750  0.0115  0.0607  0.1425
 1497SOL    HW114960   0.735   5.281   1.720 -0.1359 -0.8417  0.4746
 1497SOL    HW214961   0.835   5.287   1.849  0.1766 -0.8588  0.2334
 1498SOL     OW14962   2.716   7.843   0.503 -0.0937 -0.1689 -0.2343
 1498SOL    HW114963   2.782   7.887   0.443 -0.9875 -0.4494 -1.4517
 1498SOL    HW214964   2.631   7.896   0.503  0.1728  0.2829  1.4431
 1499SOL     OW14965   2.993   1.408   1.295 -0.2477  0.0114  0.4839
 1499SOL    HW114966   3.011   1.406   1.197 -1.2284 -0.8139  0.3147
 1499SOL    HW214967   2.903   1.367   1.313  0.5419 -1.1551  1.8575
 1500SOL     OW14968   1.348   0.986   2.903  0.3396  0.7726 -0.0106
 1500SOL    HW114969   1.356   0.993   3.003 -1.4311  0.4241  0.1728
 1500SOL    HW214970   1.278   0.918   2.880 -0.0830  1.6828 -1.4655
 1501SOL     OW14971   2.435   3.241   2.727 -0.0533 -0.4795 -0.1789
 1501SOL    HW114972   2.349   3.231   2.777  0.5873  0.4866  1.1331
 1501SOL    HW214973   2.459   3.338   2.721  1.2922 -0.7852  0.0513
 1502SOL     OW14974   2.553   5.461   1.658  0.0316  0.4028 -0.1411
 1502SOL    HW114975   2.551   5.461   1.558 -0.3832 -0.3954 -0.1303
 1502SOL    HW214976   2.471   5.506   1.693 -0.2739 -0.1511 -0.1472
 1503SOL     OW14977   3.149   0.116   0.936 -0.1578  0.1093 -0.5256
 1503SOL    HW114978   3.183   0.097   1.028  0.9337  1.0053 -0.7335
 1503SOL    HW214979   3.138   0.214   0.924  1.6514  0.1436 -2.0163
 1504SOL     OW14980   9.602   6.025   3.185 -0.3836 -0.2301  0.1438
 1504SOL    HW114981   9.674   6.093   3.172 -0.5245  0.0154  0.6237
 1504SOL    HW214982   9.640   5.947   3.235 -0.4719 -0.0586  0.4813
 1505SOL     OW14983   9.117   6.806   1.788 -0.7914 -0.5367 -0.0549
 1505SOL    HW114984   9.191   6.771   1.731  0.0078  0.5943  0.2802
 1505SOL    HW214985   9.084   6.733   1.848  0.2653 -0.9586  0.0192
 1506SOL     OW14986   3.857   3.755   0.281 -0.1152  0.2141  0.1477
 1506SOL    HW114987   3.866   3.795   0.372  1.1586  0.9206 -0.2929
 1506SOL    HW214988   3.826   3.824   0.216  0.1826  0.0056 -0.2173
 1507SOL     OW14989   9.106   0.225   2.676 -0.5594  0.2247  0.0223
 1507SOL    HW114990   9.020   0.253   2.719 -0.5867 -1.1047  0.8915
 1507SOL    HW214991   9.088   0.152   2.610 -0.4368  1.8618 -1.8747
 1508SOL     OW14992   1.937   3.429   2.349  0.0029  0.1498 -0.4799
 1508SOL    HW114993   1.864   3.460   2.288 -0.8306 -0.8798 -0.0176
 1508SOL    HW214994   1.953   3.331   2.335  0.5050  0.1259  0.2406
 1509SOL     OW14995   3.809   3.254   3.614  0.2871 -0.5993  0.0229
 1509SOL    HW114996   3.873   3.181   3.639 -0.3822 -1.1655  0.0805
 1509SOL    HW214997   3.716   3.219   3.613  0.3348 -0.9481 -4.4450
 1510SOL     OW14998   1.792   5.431   3.148 -0.1551  0.3191 -0.1084
 1510SOL    HW114999   1.804   5.448   3.051 -1.5219  0.2802 -0.2957
 1510SOL    HW215000   1.701   5.392   3.164  0.8294 -1.5999  0.9487
 1511SOL     OW15001   8.111   2.139   1.653  0.4457 -0.3100 -0.4005
 1511SOL    HW115002   8.179   2.129   1.726 -0.3516  0.4138  0.4582
 1511SOL    HW215003   8.145   2.201   1.583  1.1227 -0.8250 -0.5333
 1512SOL     OW15004   2.212   0.457   3.111  0.6747 -0.0552  0.5011
 1512SOL    HW115005   2.242   0.552   3.100 -1.6536  0.5859 -0.6871
 1512SOL    HW215006   2.219   0.409   3.024 -3.3689  0.6484 -0.2924
 1513SOL     OW15007   0.998   9.254   1.703  0.3244 -0.4832  0.2509
 1513SOL    HW115008   0.999   9.154   1.712 -1.2984 -0.4098  1.4034
 1513SOL    HW215009   0.905   9.285   1.685  0.7811  0.8593  0.1568
 1514SOL     OW15010   2.613   1.725   2.283  1.0528  0.1352  0.1156
 1514SOL    HW115011   2.530   1.745   2.232  1.8905 -0.3891 -1.4746
 1514SOL    HW215012   2.596   1.740   2.381 -0.6490  0.8461 -0.2666
 1515SOL     OW15013   7.892   9.400   3.267  0.4090  0.2826  0.6521
 1515SOL    HW115014   7.918   9.311   3.231  0.7746  0.4513  0.4952
 1515SOL    HW215015   7.809   9.391   3.323  0.4901 -0.1637  0.7007
 1516SOL     OW15016   3.418   4.255   2.877  0.0740  0.5400 -0.0704
 1516SOL    HW115017   3.395   4.252   2.780 -0.8572 -0.4299  0.1812
 1516SOL    HW215018   3.421   4.351   2.907 -1.2214  0.7798 -0.6762
 1517SOL     OW15019   9.739   4.997   2.344  0.2616  0.5335 -0.1148
 1517SOL    HW115020   9.677   4.956   2.276 -1.8317  1.4098  1.2127
 1517SOL    HW215021   9.773   5.084   2.308  0.1061  0.4245 -0.5412
 1518SOL     OW15022   1.080   2.872   1.935  0.5514 -0.1436 -0.1842
 1518SOL    HW115023   1.158   2.900   1.991  0.9095 -0.6069 -0.4447
 1518SOL    HW215024   1.009   2.832   1.993  1.1924 -1.2250 -0.1320
 1519SOL     OW15025   1.048   7.226   2.396 -0.1603 -0.4188  0.1639
 1519SOL    HW115026   1.100   7.277   2.465 -0.6947  0.1592  0.1462
 1519SOL    HW215027   0.951   7.225   2.421 -0.2144 -1.0573 -0.0672
 1520SOL     OW15028   3.787   1.311   2.169 -0.5371  0.4625 -0.4613
 1520SOL    HW115029   3.781   1.342   2.264 -1.3941 -0.0328 -0.3481
 1520SOL    HW215030   3.866   1.354   2.125  1.0389 -0.7927  1.0421
 1521SOL     OW15031   4.615   8.804   0.185 -0.3257  0.2198  0.3010
 1521SOL    HW115032   4.585   8.813   0.280 -2.3259 -0.4702 -0.2303
 1521SOL    HW215033   4.687   8.735   0.179 -1.0470 -0.6177  1.1580
 1522SOL     OW15034   9.152   3.366   0.335  0.1407  0.0527  0.2366
 1522SOL    HW115035   9.209   3.419   0.399 -0.8571  0.0873  1.1145
 1522SOL    HW215036   9.064   3.413   0.323 -1.0982 -1.8352  1.6967
 1523SOL     OW15037   1.764   4.214   1.540 -0.0306 -0.0345  0.4521
 1523SOL    HW115038   1.758   4.130   1.594 -1.4317  1.1542  2.2093
 1523SOL    HW215039   1.820   4.281   1.588 -1.0153  0.9259  0.2781
 1524SOL     OW15040   9.744   5.489   1.857 -0.0564  0.6593  0.0064
 1524SOL    HW115041   9.805   5.410   1.853  0.6265  1.2605 -1.8964
 1524SOL    HW215042   9.798   5.573   1.845 -1.2207  1.2183 -1.4834
 1525SOL     OW15043   3.483   8.588   1.259  0.5591 -0.4659  0.0994
 1525SOL    HW115044   3.433   8.673   1.276  1.2068  0.1509 -0.9935
 1525SOL    HW215045   3.503   8.544   1.346 -1.4002 -0.4544  0.5750
 1526SOL     OW15046   7.884   9.832   3.436 -0.0568 -0.3048 -0.5158
 1526SOL    HW115047   7.931   9.914   3.404 -1.0316 -0.3945 -2.2778
 1526SOL    HW215048   7.878   9.766   3.361 -1.8952 -0.7743  0.0139
 1527SOL     OW15049   0.006   3.334   1.590 -0.1600  0.1365  0.3315
 1527SOL    HW115050   0.002   3.426   1.629  0.0956  0.1426  0.3445
 1527SOL    HW215051   0.073   3.279   1.640  0.6221  0.3333 -0.4946
 1528SOL     OW15052   0.950   4.435   2.851 -0.3947 -0.1874 -0.2128
 1528SOL    HW115053   0.896   4.503   2.901  1.2186  0.0409  1.2676
 1528SOL    HW215054   0.913   4.344   2.868 -0.7885  0.0388  0.1490
 1529SOL     OW15055   3.404   5.650   3.105 -0.0496 -0.4274  0.2208
 1529SOL    HW115056   3.495   5.690   3.095 -0.5384  0.6530 -0.0238
 1529SOL    HW215057   3.353   5.700   3.175 -0.5093 -0.9207  0.2392
 1530SOL     OW15058   0.132   8.714   3.538  0.1528 -0.2575  0.4850
 1530SOL    HW115059   0.055   8.667   3.494  0.1174 -0.5790  0.8820
 1530SOL    HW215060   0.136   8.687   3.634  1.3990 -1.0397  0.2256
 1531SOL     OW15061   0.348   9.150   3.081 -0.2316 -0.2174  0.3018
 1531SOL    HW115062   0.256   9.188   3.073 -0.8510 -1.5828  0.7109
 1531SOL    HW215063   0.385   9.132   2.990 -0.9428 -0.9846  0.1563
 1532SOL     OW15064   2.335   6.256   3.551  0.0583  0.0709  0.2424
 1532SOL    HW115065   2.268   6.223   3.618 -0.4629 -1.5245 -1.0388
 1532SOL    HW215066   2.425   6.218   3.573 -0.1919 -0.7872 -0.1691
 1533SOL     OW15067   9.598   3.810   2.736  0.1633 -0.1000 -0.0066
 1533SOL    HW115068   9.620   3.905   2.756  2.2721 -0.4447 -0.5005
 1533SOL    HW215069   9.624   3.752   2.814  0.5866 -0.4570 -0.4008
 1534SOL     OW15070   7.603   9.302   3.798  0.4046  0.1998 -0.1990
 1534SOL    HW115071   7.658   9.383   3.819 -0.6597  0.8914 -0.0374
 1534SOL    HW215072   7.536   9.324   3.727  1.6338 -1.1806 -1.8055
 1535SOL     OW15073   0.764   7.769   0.497 -0.2370 -0.0391  0.0059
 1535SOL    HW115074   0.826   7.757   0.574 -1.1383 -0.2077  0.7119
 1535SOL    HW215075   0.676   7.726   0.517 -0.0556 -1.2444 -1.6442
 1536SOL     OW15076   9.520   3.577   3.697 -0.4651  0.4860 -0.5736
 1536SOL    HW115077   9.596   3.527   3.738 -1.1600 -0.6088 -0.5964
 1536SOL    HW215078   9.548   3.615   3.609  0.2723  0.7340 -0.2386
 1537SOL     OW15079   0.483   1.647   1.171 -0.3713  0.5486  0.4699
 1537SOL    HW115080   0.473   1.683   1.264 -2.1943  1.5514 -0.0833
 1537SOL    HW215081   0.463   1.720   1.105 -0.8855 -0.6162 -0.6830
 1538SOL     OW15082   9.489   9.989   1.478 -0.6937  0.0804 -0.1250
 1538SOL    HW115083   9.534   9.981   1.567 -0.0763  2.0051 -0.2477
 1538SOL    HW215084   9.449   9.901   1.453  0.1757 -0.7954  1.4965
 1539SOL     OW15085   7.310   7.711   2.655  0.5870 -0.3340 -0.2308
 1539SOL    HW115086   7.243   7.701   2.582  1.1562 -1.2246 -0.6361
 1539SOL    HW215087   7.308   7.805   2.689 -0.0627 -0.0570 -1.0207
 1540SOL     OW15088   9.771   1.756   3.585 -0.2725 -0.6148  0.8726
 1540SOL    HW115089   9.695   1.716   3.637 -2.0676 -0.5709 -1.6129
 1540SOL    HW215090   9.843   1.688   3.574  0.1975 -0.6071  3.4123
 1541SOL     OW15091   0.255   0.493   3.357  0.7807  0.0580 -0.2373
 1541SOL    HW115092   0.331   0.459   3.302  0.3929 -0.8057 -0.2506
 1541SOL    HW215093   0.182   0.526   3.297 -0.4444 -2.6528 -0.3015
 1542SOL     OW15094   2.057   6.724   1.954  0.5753 -0.2068  0.2975
 1542SOL    HW115095   2.151   6.756   1.970  0.8324  0.1983 -1.8876
 1542SOL    HW215096   2.002   6.799   1.917 -1.1265  0.0649  3.2223
 1543SOL     OW15097   2.320   4.527   1.760  0.3653  0.0483 -0.2721
 1543SOL    HW115098   2.395   4.521   1.694  1.0539  1.5155  0.3643
 1543SOL    HW215099   2.343   4.592   1.832 -1.3560  0.2341  0.1478
 1544SOL     OW15100   8.204   2.963   3.293  0.2599 -0.0001 -0.3339
 1544SOL    HW115101   8.151   2.914   3.224 -0.6943 -2.1192  1.8468
 1544SOL    HW215102   8.292   2.990   3.254 -0.7258 -0.1302 -2.7155
 1545SOL     OW15103   9.078   3.244   0.833  0.5299 -0.7385  0.0930
 1545SOL    HW115104   9.079   3.163   0.892  1.4300  1.3586  3.0738
 1545SOL    HW215105   9.143   3.231   0.758  0.1267 -3.0417  0.0908
 1546SOL     OW15106   4.501   2.817   3.363  0.2563  0.1677 -0.1773
 1546SOL    HW115107   4.545   2.805   3.274  0.4806  0.1401 -0.0618
 1546SOL    HW215108   4.559   2.874   3.422 -0.6414  1.5342 -0.6027
 1547SOL     OW15109   8.480   2.904   2.317  0.0868 -0.0201  0.1459
 1547SOL    HW115110   8.537   2.986   2.311  2.0222 -1.3101  0.3471
 1547SOL    HW215111   8.457   2.887   2.413 -1.3778  0.9715 -0.0145
 1548SOL     OW15112   9.363   7.907   0.711  0.2816 -0.1240  0.0307
 1548SOL    HW115113   9.388   7.926   0.616  1.9395 -2.8009 -0.1067
 1548SOL    HW215114   9.445   7.893   0.765 -0.6803  0.4575  1.6821
 1549SOL     OW15115   8.916   4.114   1.715  0.2923  0.0821  0.3294
 1549SOL    HW115116   8.828   4.080   1.749 -0.9818  1.7910 -1.2305
 1549SOL    HW215117   8.921   4.213   1.727  2.2526 -0.0533  0.8945
 1550SOL     OW15118   9.151   4.215   1.616 -0.4717  0.2332 -0.0583
 1550SOL    HW115119   9.090   4.140   1.642 -1.0160  0.4461 -0.7034
 1550SOL    HW215120   9.103   4.302   1.624 -0.6774  0.3002 -1.8109
 1551SOL     OW15121   2.527   8.905   2.002  0.0644  0.1200 -0.1361
 1551SOL    HW115122   2.605   8.956   2.039  0.1208  0.1067 -0.2397
 1551SOL    HW215123   2.505   8.939   1.911  1.0543 -1.0630 -0.8206
 1552SOL     OW15124   9.942   7.315   3.523  0.3325  0.2545  0.2593
 1552SOL    HW115125   9.855   7.270   3.503 -0.5917  1.9599  0.2813
 1552SOL    HW215126   9.978   7.357   3.439  1.4341 -0.9167  0.1274
 1553SOL     OW15127   1.813   9.356   0.029 -0.2373 -0.2565  0.0262
 1553SOL    HW115128   1.831   9.412   0.109 -0.0050  0.7620 -0.7368
 1553SOL    HW215129   1.885   9.287   0.019 -0.2122 -0.3191  0.6206
 1554SOL     OW15130   7.734   9.433   2.928 -0.0461  0.3609 -0.2518
 1554SOL    HW115131   7.744   9.338   2.957  1.6701  0.3570 -0.8551
 1554SOL    HW215132   7.687   9.436   2.840  0.8299  0.0260 -0.7273
 1555SOL     OW15133   2.632   9.874   0.969 -0.5210  0.2365  0.8912
 1555SOL    HW115134   2.680   9.956   0.998  0.4501  0.4929 -1.3242
 1555SOL    HW215135   2.537   9.897   0.945 -0.3307  0.6662  0.5421
 1556SOL     OW15136   1.379   1.500   0.665 -0.0170 -0.8340 -0.0520
 1556SOL    HW115137   1.385   1.582   0.609  1.6686 -1.3477 -0.6622
 1556SOL    HW215138   1.462   1.444   0.652 -1.6681 -3.2351 -0.6341
 1557SOL     OW15139   1.485   8.545   2.805 -0.2398  0.3514  0.5367
 1557SOL    HW115140   1.390   8.524   2.784 -0.0214  1.0931 -1.2775
 1557SOL    HW215141   1.514   8.625   2.753  1.3484  0.1777  1.1273
 1558SOL     OW15142   5.654   9.448   2.421 -0.1920  0.3325 -0.1492
 1558SOL    HW115143   5.686   9.390   2.496 -0.6443 -1.5223 -1.3587
 1558SOL    HW215144   5.715   9.438   2.342  1.6283  4.0237  0.6621
 1559SOL     OW15145   0.266   8.111   2.233 -0.5440  0.6109  0.0630
 1559SOL    HW115146   0.290   8.204   2.263 -0.2089  0.4363  0.3425
 1559SOL    HW215147   0.341   8.048   2.256 -0.6027  0.3393 -0.4813
 1560SOL     OW15148   2.704   5.391   0.896  0.6081  0.4230 -0.2830
 1560SOL    HW115149   2.645   5.472   0.887 -1.6277 -0.9207  1.5286
 1560SOL    HW215150   2.694   5.333   0.815  0.6150  0.9612 -0.6714
 1561SOL     OW15151   2.128   7.782   1.492  0.2140  0.3033 -0.0003
 1561SOL    HW115152   2.188   7.823   1.561  0.9171 -0.1726 -0.3159
 1561SOL    HW215153   2.083   7.701   1.530  2.2638 -1.2433 -0.7265
 1562SOL     OW15154   1.825   4.976   2.788  0.3106 -0.3761 -0.2575
 1562SOL    HW115155   1.784   5.059   2.826  1.8063  0.8087 -1.1766
 1562SOL    HW215156   1.885   4.935   2.857  1.3277  0.5670 -0.5637
 1563SOL     OW15157   8.745   2.850   3.800 -0.4439  0.0194  0.6239
 1563SOL    HW115158   8.651   2.816   3.800  0.1524 -1.6824 -0.1707
 1563SOL    HW215159   8.807   2.777   3.829  0.6831  1.0307  0.8132
 1564SOL     OW15160   1.842   5.659   1.706 -0.5712  0.3762 -0.2838
 1564SOL    HW115161   1.788   5.640   1.624 -1.2193  0.8965  0.0121
 1564SOL    HW215162   1.885   5.749   1.698 -2.8223  1.6376  1.0523
 1565SOL     OW15163   9.522   6.117   1.054  0.2230 -0.0150  0.6458
 1565SOL    HW115164   9.447   6.143   0.992  0.7705  0.3756  0.1424
 1565SOL    HW215165   9.563   6.200   1.092  0.4438 -0.2282  0.8705
 1566SOL     OW15166   9.163   4.400   1.939  0.1122 -0.2539  0.0521
 1566SOL    HW115167   9.148   4.480   1.880  0.1434 -1.0651 -1.0647
 1566SOL    HW215168   9.205   4.430   2.025  0.3950  0.8939 -0.4688
 1567SOL     OW15169   7.796   5.323   2.764 -0.6087 -0.0414 -0.4357
 1567SOL    HW115170   7.822   5.401   2.707  0.0858  1.7030  2.1834
 1567SOL    HW215171   7.713   5.345   2.815 -0.4237 -1.0524  0.3119
 1568SOL     OW15172   2.748   1.491   2.007 -0.0710 -0.2448 -0.1769
 1568SOL    HW115173   2.680   1.421   2.030 -0.8281  0.3805 -0.4731
 1568SOL    HW215174   2.808   1.506   2.085  0.2693 -1.4255 -0.2089
 1569SOL     OW15175   2.151   3.375   3.153 -0.0639  0.3695  0.2437
 1569SOL    HW115176   2.142   3.364   3.252  2.0669  1.0220  0.5258
 1569SOL    HW215177   2.246   3.396   3.130 -0.6698  0.8846 -1.8865
 1570SOL     OW15178   1.908   9.356   2.293 -0.2192 -0.1446  0.3132
 1570SOL    HW115179   2.005   9.333   2.292 -0.2224 -0.1783  0.9558
 1570SOL    HW215180   1.854   9.273   2.294 -0.2525 -0.1248  0.1318
 1571SOL     OW15181   3.185   3.931   3.867 -0.3436 -0.2382 -0.0437
 1571SOL    HW115182   3.102   3.882   3.897  0.8816 -2.6809 -0.4752
 1571SOL    HW215183   3.232   3.968   3.947 -1.1193 -0.0752  0.3408
 1572SOL     OW15184   9.443   1.184   3.881 -0.4557 -0.7050  0.2373
 1572SOL    HW115185   9.396   1.219   3.962 -0.2572  0.9951 -0.3779
 1572SOL    HW215186   9.375   1.164   3.810 -0.3169  1.3702 -0.5072
 1573SOL     OW15187   5.278   9.255   2.943 -0.2463 -0.4090  0.0927
 1573SOL    HW115188   5.374   9.229   2.949 -0.0949  0.3479  1.0821
 1573SOL    HW215189   5.223   9.187   2.991 -0.3069 -1.3088 -1.2070
 1574SOL     OW15190   9.530   0.164   1.272  0.7401 -1.1660 -0.1874
 1574SOL    HW115191   9.538   0.127   1.364 -1.1723  0.5629  0.7202
 1574SOL    HW215192   9.486   0.096   1.212  0.8919 -1.8440  0.4691
 1575SOL     OW15193   0.137   6.237   0.734  0.1493  0.6830 -0.4877
 1575SOL    HW115194   0.199   6.233   0.655  0.5830  1.6342 -0.2048
 1575SOL    HW215195   0.102   6.145   0.753  1.9301  0.0184 -0.2896
 1576SOL     OW15196   8.509   1.501   0.939 -0.0436 -0.2379  0.1811
 1576SOL    HW115197   8.590   1.446   0.917 -0.2020  0.3739 -2.0806
 1576SOL    HW215198   8.498   1.505   1.038  2.7779 -0.2185  0.5503
 1577SOL     OW15199   3.843   7.774   3.349 -0.1110 -0.4289 -0.0746
 1577SOL    HW115200   3.906   7.725   3.409 -0.2547 -1.2662 -0.5980
 1577SOL    HW215201   3.894   7.814   3.272 -0.1168 -0.5222 -0.1275
 1578SOL     OW15202   8.922   4.364   3.521  0.2989 -0.2609 -0.2173
 1578SOL    HW115203   8.956   4.443   3.469 -0.1982 -0.2663 -0.5515
 1578SOL    HW215204   8.958   4.280   3.481  0.4961 -0.2289 -0.1116
 1579SOL     OW15205   2.636   7.737   0.062  0.1063 -0.0659 -0.2153
 1579SOL    HW115206   2.726   7.694   0.052  0.1986 -0.1435  0.8532
 1579SOL    HW215207   2.612   7.740   0.159 -1.7331 -1.4508 -0.6253
 1580SOL     OW15208   8.347   6.966   3.138 -0.2649  0.4846 -0.2427
 1580SOL    HW115209   8.394   6.912   3.209  2.3562  1.1065 -1.4615
 1580SOL    HW215210   8.365   7.063   3.153 -1.0044  0.7267 -0.8908
 1581SOL     OW15211   9.378   3.502   0.908  0.8093  0.1588 -0.2510
 1581SOL    HW115212   9.306   3.470   0.846  0.2186 -0.5492  0.7816
 1581SOL    HW215213   9.467   3.467   0.877  0.8216  1.6437 -1.9454
 1582SOL     OW15214   1.893   4.489   2.445  0.1007  0.3749  0.0806
 1582SOL    HW115215   1.863   4.516   2.536 -2.7784 -2.9687  0.2395
 1582SOL    HW215216   1.838   4.536   2.376 -0.2196  0.1559  0.1843
 1583SOL     OW15217   0.593   0.710   1.114 -0.4627  0.0806 -0.3831
 1583SOL    HW115218   0.663   0.648   1.150 -2.0230 -0.9663  0.8729
 1583SOL    HW215219   0.598   0.798   1.162  0.9203  0.5153 -1.2932
 1584SOL     OW15220   9.038   8.375   3.476 -0.3239  0.5493  0.5392
 1584SOL    HW115221   9.114   8.310   3.473 -0.6326  0.0605  2.3464
 1584SOL    HW215222   9.014   8.403   3.383 -1.7434 -3.7643 -0.5425
 1585SOL     OW15223   3.162   7.273   2.643  0.0051  0.2089 -0.4703
 1585SOL    HW115224   3.207   7.357   2.671 -1.1781  0.4430  0.7584
 1585SOL    HW215225   3.230   7.200   2.633  1.1569  1.5181 -2.4581
 1586SOL     OW15226   3.714   9.366   0.282  0.2630  0.5215  0.2971
 1586SOL    HW115227   3.790   9.305   0.303 -0.6416  0.2293  2.9688
 1586SOL    HW215228   3.691   9.360   0.185  3.0728 -0.0173 -0.3658
 1587SOL     OW15229   9.016   4.098   3.124 -0.4443 -0.0263 -0.2561
 1587SOL    HW115230   9.079   4.024   3.102  0.1640  0.3281  0.3133
 1587SOL    HW215231   8.933   4.088   3.068  0.1358 -0.4494 -1.0458
 1588SOL     OW15232   8.033   6.065   3.032  0.7520 -0.7226 -0.2629
 1588SOL    HW115233   7.948   6.117   3.037 -1.3935 -4.1025 -0.0084
 1588SOL    HW215234   8.025   5.995   2.962  2.4524 -2.5727  1.3481
 1589SOL     OW15235   8.543   8.241   3.508  0.4505 -0.0233  0.6112
 1589SOL    HW115236   8.526   8.286   3.420 -0.2133 -2.9586 -0.8267
 1589SOL    HW215237   8.598   8.300   3.566  1.6920  1.5941 -2.1386
 1590SOL     OW15238   2.278   9.914   1.453  0.2360  0.1134 -0.4060
 1590SOL    HW115239   2.298   9.985   1.385 -1.2967  0.6586 -0.3091
 1590SOL    HW215240   2.180   9.912   1.471  0.4840 -0.8349  0.9261
 1591SOL     OW15241   4.616   5.115   1.806 -0.2727 -0.4027 -0.2136
 1591SOL    HW115242   4.550   5.174   1.759  1.0210  1.3862  0.1933
 1591SOL    HW215243   4.577   5.084   1.893 -0.5784  0.6043  0.0070
 1592SOL     OW15244   2.147   8.871   3.332  0.5492  0.0854  1.1355
 1592SOL    HW115245   2.222   8.925   3.294  0.1498  0.2486  0.5546
 1592SOL    HW215246   2.108   8.919   3.411  0.8872  0.1285  1.2754
 1593SOL     OW15247   2.057   9.062   2.124 -0.1275  1.0204  0.5122
 1593SOL    HW115248   2.003   9.093   2.202  0.6680 -0.8022  1.8202
 1593SOL    HW215249   2.050   8.962   2.116 -0.6578  1.2286 -2.1170
 1594SOL     OW15250   0.616   9.632   3.591  0.1437 -0.3386  0.1503
 1594SOL    HW115251   0.579   9.585   3.511  0.6268 -0.4504 -0.0112
 1594SOL    HW215252   0.677   9.569   3.641  0.4007 -0.0456  0.2081
 1595SOL     OW15253   1.231   0.354   2.287  1.0024  0.0711 -0.1082
 1595SOL    HW115254   1.140   0.317   2.270  1.0011 -0.0699  0.1938
 1595SOL    HW215255   1.263   0.323   2.377  2.2664 -1.7558 -1.1472
 1596SOL     OW15256   9.586   3.079   2.950  0.4850  0.1801  0.1794
 1596SOL    HW115257   9.527   3.133   3.011  1.6516  1.0581  0.5581
 1596SOL    HW215258   9.620   2.999   2.999  1.3928  0.8670  0.6901
 1597SOL     OW15259   0.389   0.380   0.613  0.3440 -0.2476 -0.0341
 1597SOL    HW115260   0.429   0.419   0.530  0.2008  1.0631  0.4843
 1597SOL    HW215261   0.461   0.359   0.678  0.4458 -1.1439 -0.4322
 1598SOL     OW15262   0.577   6.474   0.143  0.2022 -0.1714 -0.2720
 1598SOL    HW115263   0.481   6.448   0.128  0.2759  0.5859 -2.1227
 1598SOL    HW215264   0.619   6.499   0.056  1.8634  0.2907  0.6443
 1599SOL     OW15265   8.517   8.563   3.002 -0.2728 -0.0183 -0.0011
 1599SOL    HW115266   8.612   8.548   2.975 -0.0931  0.2168  0.4811
 1599SOL    HW215267   8.478   8.639   2.949  1.0057  2.4339  2.4122
 1600SOL     OW15268   9.028   6.454   3.932 -0.1241  0.9427  0.2045
 1600SOL    HW115269   9.020   6.374   3.991 -0.7227 -0.7198 -2.0810
 1600SOL    HW215270   9.013   6.537   3.987 -0.3429 -0.5273  2.4333
 1601SOL     OW15271   0.114   7.667   3.861  0.2505  0.0324  0.4270
 1601SOL    HW115272   0.152   7.677   3.953  0.2494 -0.0178  0.4327
 1601SOL    HW215273   0.065   7.580   3.853  0.7557 -0.2363  0.2047
 1602SOL     OW15274   2.625   9.547   1.419  0.1947 -0.1819 -0.5834
 1602SOL    HW115275   2.680   9.530   1.337 -0.7467  3.5022 -2.0561
 1602SOL    HW215276   2.559   9.620   1.401 -1.6370 -0.8909  2.7779
 1603SOL     OW15277   2.269   7.117   3.491  0.8728  0.5242 -0.1125
 1603SOL    HW115278   2.328   7.073   3.424 -0.0778  0.4137 -0.8713
 1603SOL    HW215279   2.175   7.087   3.479  0.5453  1.1945  0.6855
 1604SOL     OW15280   9.992   8.172   0.399  0.3221  0.3497 -0.5101
 1604SOL    HW115281  10.029   8.120   0.322  0.2246 -0.0766 -0.2719
 1604SOL    HW215282   9.931   8.113   0.452 -0.2923  0.8936 -0.6024
 1605SOL     OW15283   6.057   9.595   2.208  0.2459  0.0062  0.0753
 1605SOL    HW115284   6.092   9.502   2.221 -1.4102 -0.2042  3.7759
 1605SOL    HW215285   5.968   9.590   2.162  0.4512 -0.1667 -0.3107
 1606SOL     OW15286   3.981   0.388   0.034 -0.3263  0.0518  0.1347
 1606SOL    HW115287   4.067   0.364   0.080 -0.4661 -0.6822  0.0273
 1606SOL    HW215288   3.942   0.470   0.076 -1.0483 -1.2600  2.1472
 1607SOL     OW15289   9.389   2.597   3.593 -0.2501  0.1592 -0.3046
 1607SOL    HW115290   9.289   2.598   3.585 -0.3720 -1.4538  0.7406
 1607SOL    HW215291   9.415   2.536   3.668  1.3563  3.3068  1.8070
 1608SOL     OW15292   3.850   2.787   2.477 -0.0852 -0.6389  0.2062
 1608SOL    HW115293   3.876   2.873   2.520 -0.4002 -0.1610 -0.5495
 1608SOL    HW215294   3.925   2.754   2.419  1.2997 -2.5330  2.9843
 1609SOL     OW15295   4.565   7.476   0.374  0.0858  0.4884 -0.2974
 1609SOL    HW115296   4.531   7.393   0.330 -2.1090  2.0474 -1.6342
 1609SOL    HW215297   4.511   7.494   0.457  0.9312  0.2933  0.3053
 1610SOL     OW15298   2.337   6.547   1.546 -0.3105 -0.1683 -0.1618
 1610SOL    HW115299   2.280   6.534   1.627  1.9302 -1.1342  1.2922
 1610SOL    HW215300   2.406   6.616   1.564  1.6753 -2.0288 -0.4221
 1611SOL     OW15301   9.376   4.695   1.495 -0.4489 -0.1425  0.5771
 1611SOL    HW115302   9.348   4.605   1.528 -0.4094  0.2169  1.5996
 1611SOL    HW215303   9.476   4.700   1.492 -0.4316  0.1753  1.4108
 1612SOL     OW15304   2.663   6.123   3.923  0.4108 -0.1028 -0.3262
 1612SOL    HW115305   2.663   6.035   3.874  1.2297 -1.0061  1.2653
 1612SOL    HW215306   2.752   6.138   3.965 -0.6247  0.1093  1.8660
 1613SOL     OW15307   1.824   7.082   0.300  0.8514  0.5801  0.6382
 1613SOL    HW115308   1.856   7.169   0.337 -0.3503  0.9658  0.8182
 1613SOL    HW215309   1.818   7.015   0.374  1.5028  0.4354  0.5549
 1614SOL     OW15310   1.030   9.086   3.430  0.0155  0.2425  0.6032
 1614SOL    HW115311   1.029   9.014   3.360 -2.3138  0.1043  0.7675
 1614SOL    HW215312   1.112   9.076   3.486  1.7149  0.0892 -1.8147
 1615SOL     OW15313   0.948   4.983   0.810  0.2882  0.5159 -0.1418
 1615SOL    HW115314   0.863   4.952   0.852  0.2809  0.3239 -0.2927
 1615SOL    HW215315   1.026   4.948   0.862  0.2833  0.0134 -0.4645
 1616SOL     OW15316   7.862   1.724   1.709  0.0242  0.3638 -0.1643
 1616SOL    HW115317   7.846   1.731   1.610  1.7321  0.4045 -0.4388
 1616SOL    HW215318   7.905   1.807   1.742 -2.2880  1.1540  0.9926
 1617SOL     OW15319   2.213   1.671   1.974  0.1318 -0.4419  0.2691
 1617SOL    HW115320   2.260   1.594   1.929  2.6700  0.7834  0.7394
 1617SOL    HW215321   2.157   1.719   1.907  0.4112 -1.2891 -0.5861
 1618SOL     OW15322   0.517   5.338   0.969 -0.0279  0.1148 -0.3379
 1618SOL    HW115323   0.430   5.308   0.931 -0.3000  0.3469  0.0936
 1618SOL    HW215324   0.577   5.259   0.984 -1.1219 -0.3463  1.7679
 1619SOL     OW15325   3.605   8.065   2.281 -0.3577 -0.1698 -0.0170
 1619SOL    HW115326   3.659   8.039   2.361 -0.9864 -1.0693  0.1254
 1619SOL    HW215327   3.536   8.133   2.307 -1.1752 -1.1476  0.4160
 1620SOL     OW15328   2.009   0.253   1.957 -0.2683  0.0757  0.1360
 1620SOL    HW115329   1.942   0.264   2.030 -0.5750 -1.0813  0.0386
 1620SOL    HW215330   2.098   0.287   1.988 -0.5896  0.3891  0.7324
 1621SOL     OW15331   3.584   1.457   0.818 -0.1332  0.0438  0.3631
 1621SOL    HW115332   3.629   1.464   0.908  0.0006 -1.8171  0.4542
 1621SOL    HW215333   3.589   1.363   0.786 -2.8983  0.0521 -0.2040
 1622SOL     OW15334   7.913   8.992   2.246  0.3192  0.3795 -0.7469
 1622SOL    HW115335   7.991   8.942   2.207  0.1726 -1.8450  1.6719
 1622SOL    HW215336   7.945   9.051   2.320 -0.4250 -1.8827  1.4656
 1623SOL     OW15337   9.826   7.831   2.262  0.0909 -0.3679 -0.0143
 1623SOL    HW115338   9.876   7.909   2.299 -1.7926  0.2098  1.3874
 1623SOL    HW215339   9.783   7.856   2.176 -1.5635  0.5544  1.0627
 1624SOL     OW15340   7.685   8.974   2.679 -0.1382 -0.5456  0.3940
 1624SOL    HW115341   7.678   8.888   2.628 -0.1045 -1.9050  2.6258
 1624SOL    HW215342   7.605   9.031   2.659 -0.4812 -1.3520 -0.6065
 1625SOL     OW15343   2.917   6.525   3.987 -0.2041 -0.0250  0.5635
 1625SOL    HW115344   2.840   6.555   3.931  0.7650  1.6148  0.0590
 1625SOL    HW215345   2.914   6.571   4.076 -0.0722 -0.3297  0.7280
 1626SOL     OW15346   4.760   8.420   0.669 -0.4167 -0.5139  0.4581
 1626SOL    HW115347   4.668   8.396   0.640 -0.2382 -1.0902  0.3668
 1626SOL    HW215348   4.761   8.433   0.768 -0.7332  0.1211  0.3762
 1627SOL     OW15349   3.717   3.069   0.956  0.0452  0.1799  0.2041
 1627SOL    HW115350   3.708   2.973   0.980  1.7479 -0.3161 -1.0464
 1627SOL    HW215351   3.633   3.100   0.911 -1.4953 -0.0026  2.8634
 1628SOL     OW15352   9.214   8.287   1.276  0.5294  0.3443 -0.1695
 1628SOL    HW115353   9.275   8.265   1.352  1.3115  2.3324 -0.2077
 1628SOL    HW215354   9.266   8.284   1.190  0.3469  1.0675 -0.3075
 1629SOL     OW15355   2.326   2.542   3.321  0.4372 -0.4888  0.0144
 1629SOL    HW115356   2.362   2.520   3.230  0.8637 -0.4862  0.1814
 1629SOL    HW215357   2.375   2.622   3.357 -1.3285  0.9642 -0.7296
 1630SOL     OW15358   4.696   8.210   1.695 -0.4179 -0.2435 -0.0244
 1630SOL    HW115359   4.748   8.293   1.714 -1.4757  0.5077 -0.3688
 1630SOL    HW215360   4.605   8.217   1.734 -0.6746 -1.0514 -0.4478
 1631SOL     OW15361   9.774   5.986   1.105 -0.0812 -0.4393  0.8057
 1631SOL    HW115362   9.680   6.014   1.090  0.5716  0.0949 -2.7896
 1631SOL    HW215363   9.828   6.064   1.136 -0.1187  0.1915 -0.6478
 1632SOL     OW15364   1.187   4.558   2.980  0.5214 -0.0012  0.2794
 1632SOL    HW115365   1.112   4.512   3.027  1.7385 -1.2719  1.0236
 1632SOL    HW215366   1.173   4.552   2.881 -1.0281  0.9488  0.4259
 1633SOL     OW15367   9.006   5.277   2.957  0.3467 -0.2487  0.6139
 1633SOL    HW115368   9.093   5.325   2.946  0.7773 -1.4394 -1.2749
 1633SOL    HW215369   9.023   5.182   2.982 -0.4496 -0.3061  0.9652
 1634SOL     OW15370   3.736   2.163   1.947 -0.0033 -0.8541  0.1346
 1634SOL    HW115371   3.735   2.183   2.045  0.1305 -1.7594  0.3251
 1634SOL    HW215372   3.778   2.073   1.931  0.3251 -0.5522 -0.7818
 1635SOL     OW15373   6.362   8.337   2.271 -0.2776 -0.8130  0.2295
 1635SOL    HW115374   6.342   8.299   2.181  0.2589 -0.4103 -0.0562
 1635SOL    HW215375   6.432   8.407   2.264 -0.7942 -0.2245  0.8536
 1636SOL     OW15376   9.752   4.906   1.185  0.4119  0.8584 -0.6737
 1636SOL    HW115377   9.822   4.881   1.252 -1.6936 -0.6029  1.0502
 1636SOL    HW215378   9.759   5.004   1.165  1.0948  1.3296  1.6807
 1637SOL     OW15379   0.914   4.491   1.690  0.7425 -0.2304 -0.2095
 1637SOL    HW115380   0.833   4.547   1.674 -0.1102 -1.1178  0.9971
 1637SOL    HW215381   0.985   4.547   1.734  0.7959  0.5337 -1.2460
 1638SOL     OW15382   1.041   2.340   1.597 -0.0274 -0.3274  0.0749
 1638SOL    HW115383   1.033   2.251   1.552  2.2005 -0.3537 -0.3159
 1638SOL    HW215384   1.106   2.397   1.547  0.7570  0.4658  1.9547
 1639SOL     OW15385   8.650   6.314   0.679  0.3407  0.2610  0.2528
 1639SOL    HW115386   8.601   6.237   0.720 -1.0253  0.8549 -0.2225
 1639SOL    HW215387   8.698   6.283   0.597  1.3954 -0.4904  1.1470
 1640SOL     OW15388   6.867   8.800   2.389 -0.0881  0.3953 -0.0363
 1640SOL    HW115389   6.831   8.716   2.349  1.8935  0.0121 -1.0805
 1640SOL    HW215390   6.795   8.869   2.393 -1.7576 -1.3456  0.8707
 1641SOL     OW15391   2.860   2.751   0.724 -0.7206  0.4902  0.1841
 1641SOL    HW115392   2.859   2.813   0.645  1.9923 -0.1922 -0.4259
 1641SOL    HW215393   2.856   2.656   0.692 -2.7361  0.2438  1.0394
 1642SOL     OW15394   0.649   3.497   0.390 -0.0776  0.2777 -0.2982
 1642SOL    HW115395   0.653   3.475   0.487  2.8718  0.8094 -0.2786
 1642SOL    HW215396   0.689   3.423   0.337  0.3601  0.9783 -0.9559
 1643SOL     OW15397   1.947   0.364   3.183  0.1887 -0.0749 -0.4413
 1643SOL    HW115398   2.037   0.407   3.177 -0.2925  0.9251 -0.6133
 1643SOL    HW215399   1.906   0.385   3.272  1.5288 -3.3501  1.0112
 1644SOL     OW15400   4.051   9.691   0.679 -0.2827  0.4463 -0.3029
 1644SOL    HW115401   4.143   9.731   0.680 -0.3231  0.5178  0.8701
 1644SOL    HW215402   4.047   9.616   0.744 -0.9508  0.1938 -0.6354
 1645SOL     OW15403   9.083   5.990   1.572  0.4500 -0.0519  0.6183
 1645SOL    HW115404   9.093   6.071   1.514  0.1293 -0.0641  0.5479
 1645SOL    HW215405   9.144   5.918   1.540  1.9093  0.7014  1.6315
 1646SOL     OW15406   0.884   2.431   1.831 -0.0139 -0.3946 -0.3237
 1646SOL    HW115407   0.826   2.509   1.808  0.5158  0.0876 -0.0298
 1646SOL    HW215408   0.949   2.415   1.757  1.1472  0.6473  0.4349
 1647SOL     OW15409   3.983   2.620   1.763 -0.5577 -0.4732 -0.0933
 1647SOL    HW115410   4.022   2.540   1.716 -1.2254 -0.4924 -0.6361
 1647SOL    HW215411   3.888   2.600   1.788 -0.4946 -0.1142  0.4372
 1648SOL     OW15412   4.082   2.363   0.481 -0.7737 -0.1274 -0.2322
 1648SOL    HW115413   3.991   2.355   0.439 -1.2226  0.9189  0.5164
 1648SOL    HW215414   4.133   2.435   0.434 -0.2127 -0.9176 -0.8460
 1649SOL     OW15415   4.768   1.956   1.492  0.1263  0.2652  0.6892
 1649SOL    HW115416   4.846   1.898   1.466 -0.9989 -1.0164  0.1361
 1649SOL    HW215417   4.698   1.950   1.421 -0.4967  1.3914  1.2118
 1650SOL     OW15418   2.190   3.360   1.386  0.4866 -0.6254  0.1135
 1650SOL    HW115419   2.214   3.298   1.311  1.9209 -0.6171  0.5589
 1650SOL    HW215420   2.195   3.310   1.473  0.9328 -0.0769  0.4044
 1651SOL     OW15421   8.191   4.930   3.425 -0.1460  0.6413  0.5191
 1651SOL    HW115422   8.129   4.990   3.476  0.6740  0.9847  1.1254
 1651SOL    HW215423   8.169   4.834   3.446 -0.2497  0.7692  0.9972
 1652SOL     OW15424   1.502   9.669   1.573 -0.1468  0.2700 -0.2989
 1652SOL    HW115425   1.556   9.752   1.586  0.4952 -0.3120  0.8135
 1652SOL    HW215426   1.534   9.621   1.491  1.0968 -0.1223  0.4059
 1653SOL     OW15427   1.521   0.944   2.159 -0.0780 -0.2475 -0.4458
 1653SOL    HW115428   1.570   0.897   2.086  0.4984  1.8901 -1.4833
 1653SOL    HW215429   1.581   1.013   2.200 -1.6941  1.3055 -0.6355
 1654SOL     OW15430   0.869   2.028   4.028 -0.7018  0.3176 -0.1025
 1654SOL    HW115431   0.897   1.960   4.095 -0.4967 -2.5255 -2.9106
 1654SOL    HW215432   0.778   2.062   4.051 -0.2896  0.0414  2.0466
 1655SOL     OW15433   1.715   0.256   2.693  0.4824  0.4510 -0.1354
 1655SOL    HW115434   1.810   0.273   2.717  0.0296  0.5575  1.6363
 1655SOL    HW215435   1.703   0.159   2.670  1.1407  0.5737 -1.0357
 1656SOL     OW15436   1.214   9.374   3.034 -0.7490  0.4080  0.2084
 1656SOL    HW115437   1.147   9.393   3.106 -1.2875 -2.5307  0.5505
 1656SOL    HW215438   1.172   9.391   2.945 -1.5574 -0.1863  0.4678
 1657SOL     OW15439   8.921   5.664   0.365  0.5639 -0.3196 -0.1961
 1657SOL    HW115440   8.863   5.590   0.397 -1.9692  0.8187 -1.9300
 1657SOL    HW215441   8.976   5.633   0.288  0.7092 -0.8349  0.1151
 1658SOL     OW15442   0.876   5.803   2.591 -0.2468 -0.0743 -0.1609
 1658SOL    HW115443   0.906   5.807   2.495 -0.2140 -0.6584 -0.1754
 1658SOL    HW215444   0.914   5.881   2.641 -2.8540  2.0512 -1.3577
 1659SOL     OW15445   8.419   0.647   3.231  0.0849 -0.6506 -0.3248
 1659SOL    HW115446   8.342   0.607   3.281  0.8425 -1.1264  0.4852
 1659SOL    HW215447   8.406   0.632   3.133 -1.6611  0.7225 -0.3343
 1660SOL     OW15448   1.128   3.901   0.774  0.6683  0.2190 -0.5383
 1660SOL    HW115449   1.056   3.961   0.739  1.1314  0.1587 -1.6248
 1660SOL    HW215450   1.213   3.919   0.724  0.7439 -1.5201 -1.0525
 1661SOL     OW15451   0.178   2.393   0.511  0.4010 -0.1768 -0.0126
 1661SOL    HW115452   0.192   2.296   0.525  0.3475 -0.1216  0.4336
 1661SOL    HW215453   0.154   2.437   0.598  0.5143  0.2494 -0.1917
 1662SOL     OW15454   1.468   5.150   3.491  0.0358 -0.4779 -0.3183
 1662SOL    HW115455   1.410   5.212   3.438  1.4346  0.2869 -1.0049
 1662SOL    HW215456   1.554   5.196   3.512 -0.8340 -0.4179  3.4777
 1663SOL     OW15457   4.148   3.549   2.838  0.5355 -0.3977 -0.3988
 1663SOL    HW115458   4.137   3.516   2.744  0.5064 -0.5631 -0.3386
 1663SOL    HW215459   4.072   3.609   2.861  1.0045  0.3406 -0.7726
 1664SOL     OW15460   1.999   7.259   3.342 -0.4853  0.0033  0.2915
 1664SOL    HW115461   2.080   7.313   3.364  0.9357 -1.8899 -0.1100
 1664SOL    HW215462   2.004   7.171   3.389 -1.9826 -0.4100 -0.2948
 1665SOL     OW15463   8.516   9.857   0.330 -0.1583 -0.2950 -0.2038
 1665SOL    HW115464   8.520   9.837   0.232 -0.2769 -0.1308 -0.2437
 1665SOL    HW215465   8.604   9.836   0.372  0.5513  1.5094 -0.7222
 1666SOL     OW15466   8.343   5.067   1.870 -0.4361 -0.0004 -0.3625
 1666SOL    HW115467   8.420   5.122   1.837 -0.2905  0.3403  0.5330
 1666SOL    HW215468   8.375   4.976   1.896 -0.5740 -0.3119 -1.2626
 1667SOL     OW15469   2.727   2.802   3.289 -0.1676  0.5013  0.3308
 1667SOL    HW115470   2.638   2.767   3.318  0.2290  0.7931  1.9416
 1667SOL    HW215471   2.714   2.870   3.217 -1.1782 -0.1513 -0.1159
 1668SOL     OW15472   1.558   4.467   3.935 -0.6719  0.3518  0.5100
 1668SOL    HW115473   1.629   4.460   3.865 -1.9535  0.5473 -0.8324
 1668SOL    HW215474   1.578   4.402   4.009  0.5970  0.0187 -0.1060
 1669SOL     OW15475   9.752   7.707   3.686  0.4269 -0.3490 -0.3195
 1669SOL    HW115476   9.759   7.799   3.649 -2.2571 -0.0676 -0.2209
 1669SOL    HW215477   9.776   7.707   3.783  0.3129  0.2756 -0.2914
 1670SOL     OW15478   2.330   0.709   3.086 -0.1806 -0.2099  0.2460
 1670SOL    HW115479   2.281   0.791   3.116 -0.4680 -0.4578  0.4616
 1670SOL    HW215480   2.358   0.719   2.991 -0.6054 -0.0441  0.1390
 1671SOL     OW15481   1.914   6.865   3.205 -0.1275 -0.1733  0.0862
 1671SOL    HW115482   1.824   6.871   3.162  1.5006  1.6252 -3.2564
 1671SOL    HW215483   1.963   6.786   3.166 -0.4397 -1.5323  2.3605
 1672SOL     OW15484   1.765   8.540   2.490 -0.3815  0.2942  0.5848
 1672SOL    HW115485   1.747   8.534   2.392 -1.2170  0.4459  0.7285
 1672SOL    HW215486   1.797   8.632   2.513  1.5462 -0.2493  0.1781
 1673SOL     OW15487   8.014   2.463   2.986  0.0772 -0.1728 -0.4653
 1673SOL    HW115488   7.991   2.368   3.006  0.7591 -0.3871 -0.6670
 1673SOL    HW215489   8.045   2.508   3.070  1.2703 -0.5825 -0.6684
 1674SOL     OW15490   9.943   6.252   0.444 -0.1190 -0.6511 -0.1931
 1674SOL    HW115491   9.879   6.300   0.504  1.0345 -0.0739  0.5760
 1674SOL    HW215492   9.956   6.159   0.477  0.6002 -0.2999  0.5270
 1675SOL     OW15493   0.960   3.366   3.373 -0.1355 -0.3312 -0.4730
 1675SOL    HW115494   0.992   3.367   3.278 -1.2064  1.3337 -0.8470
 1675SOL    HW215495   0.863   3.392   3.376 -0.4594 -1.6261  0.9708
 1676SOL     OW15496   2.944   7.105   1.051  0.1041 -0.3175  0.2372
 1676SOL    HW115497   2.890   7.131   1.130  0.6823  1.0176  0.2120
 1676SOL    HW215498   3.042   7.110   1.074  0.2560 -0.7085 -0.3147
 1677SOL     OW15499   9.635   2.108   3.235 -0.2048 -0.0658  0.3857
 1677SOL    HW115500   9.682   2.031   3.192 -0.2062  0.0986  0.0922
 1677SOL    HW215501   9.686   2.192   3.217 -0.6607  0.1259 -0.0090
 1678SOL     OW15502   2.663   2.661   1.745 -0.0229  0.4001 -0.5230
 1678SOL    HW115503   2.575   2.615   1.734  0.1082 -0.4474  1.6732
 1678SOL    HW215504   2.707   2.629   1.829  1.3979  2.4328 -0.4517
 1679SOL     OW15505   8.996   2.260   1.389 -0.2846 -0.1308 -0.1127
 1679SOL    HW115506   9.016   2.264   1.292  0.2986  1.9501  0.0788
 1679SOL    HW215507   8.898   2.276   1.404 -0.2908  0.0051 -0.3103
 1680SOL     OW15508   1.272   5.516   0.906 -0.5670 -0.6429  0.1693
 1680SOL    HW115509   1.205   5.465   0.852 -0.7342 -0.2701  0.0206
 1680SOL    HW215510   1.364   5.494   0.875 -0.6497 -0.6791 -0.0533
 1681SOL     OW15511   2.561   3.866   3.711 -0.2660  0.5955  0.4470
 1681SOL    HW115512   2.530   3.771   3.702  0.7880  0.2503  0.3853
 1681SOL    HW215513   2.510   3.924   3.649 -0.3894 -0.0562 -0.0655
 1682SOL     OW15514   8.225   8.723   0.520  0.3639  0.2562 -0.0421
 1682SOL    HW115515   8.265   8.779   0.594  1.9786  0.5694 -1.1073
 1682SOL    HW215516   8.193   8.636   0.557  1.6454  0.1887  0.9523
 1683SOL     OW15517   1.838   1.507   0.439 -0.6530 -0.5127 -0.6984
 1683SOL    HW115518   1.808   1.432   0.499  0.7580 -0.7326 -0.2561
 1683SOL    HW215519   1.912   1.475   0.380  0.0951  0.5970 -0.3660
 1684SOL     OW15520   0.380   4.657   0.519  0.3836  0.0252  0.1249
 1684SOL    HW115521   0.290   4.699   0.527  0.8508  0.9776  0.3660
 1684SOL    HW215522   0.386   4.580   0.583  0.1826  0.7194  0.9802
 1685SOL     OW15523   0.863   1.438   3.595  0.3236  0.0367 -0.6597
 1685SOL    HW115524   0.774   1.479   3.577 -0.2477 -0.7125  0.3793
 1685SOL    HW215525   0.872   1.352   3.545  1.0909  0.8733 -1.9852
 1686SOL     OW15526   0.328   0.048   0.028  0.2335  0.5673 -0.0457
 1686SOL    HW115527   0.379   0.089   0.103 -0.1055 -0.9940  1.0713
 1686SOL    HW215528   0.338  -0.052   0.031 -0.7531  0.4055 -1.3590
 1687SOL     OW15529   9.301   1.911   0.565  0.0745  0.2223  0.3178
 1687SOL    HW115530   9.253   1.897   0.652 -0.6601 -1.2861 -0.3007
 1687SOL    HW215531   9.245   1.873   0.491  0.5400  1.7965 -0.8547
 1688SOL     OW15532   2.484   9.296   2.727  0.1025 -0.2171  0.2745
 1688SOL    HW115533   2.469   9.384   2.682 -1.7433 -0.6142  0.0468
 1688SOL    HW215534   2.572   9.258   2.699  0.2938  0.9237 -0.6868
 1689SOL     OW15535   1.318   0.989   2.382  0.0186  0.5791 -0.1820
 1689SOL    HW115536   1.388   1.009   2.313 -0.1199 -0.6081 -0.6882
 1689SOL    HW215537   1.355   0.925   2.449  0.0369  1.4606  0.6532
 1690SOL     OW15538   7.900   7.694   2.140 -0.5848  0.1273 -0.4820
 1690SOL    HW115539   7.850   7.708   2.055 -1.5186  1.3907  0.2605
 1690SOL    HW215540   7.951   7.776   2.163 -0.2574 -0.2375  0.1296
 1691SOL     OW15541   9.678   0.846   3.227 -0.2237  0.3653  0.3218
 1691SOL    HW115542   9.721   0.898   3.152 -1.1145 -1.2137 -1.3287
 1691SOL    HW215543   9.749   0.795   3.276  0.1623  0.0847 -0.5111
 1692SOL     OW15544   4.374   0.650   0.211 -0.1968  0.5220  0.5060
 1692SOL    HW115545   4.433   0.668   0.290 -2.2052 -2.1703  2.6997
 1692SOL    HW215546   4.281   0.679   0.232 -0.3275  1.8793 -1.7829
 1693SOL     OW15547   1.202   3.773   3.373 -0.8730 -0.2493 -0.1997
 1693SOL    HW115548   1.172   3.714   3.448  0.7041 -0.5187  0.2392
 1693SOL    HW215549   1.173   3.733   3.286  2.1546 -2.9709 -0.0733
 1694SOL     OW15550   3.605   6.469   3.014 -0.1836 -0.4148 -0.5044
 1694SOL    HW115551   3.569   6.417   3.092 -1.1812  1.0073  0.0031
 1694SOL    HW215552   3.570   6.430   2.929 -1.5844 -0.0808 -0.0915
 1695SOL     OW15553   0.514   7.648   2.021 -0.3504 -0.4747 -0.2183
 1695SOL    HW115554   0.481   7.560   1.987 -0.3368 -0.5342 -0.0802
 1695SOL    HW215555   0.534   7.640   2.119  1.5513 -0.8881 -0.6205
 1696SOL     OW15556   8.556   8.272   2.742  0.9541 -0.1540 -0.2304
 1696SOL    HW115557   8.473   8.303   2.696  1.4205  0.3343 -0.7618
 1696SOL    HW215558   8.533   8.238   2.833  0.3479  1.2319  0.1484
 1697SOL     OW15559   4.087   4.293   2.626 -0.0302 -0.3880  0.4383
 1697SOL    HW115560   4.133   4.225   2.682 -0.1963 -0.3066  0.6748
 1697SOL    HW215561   4.105   4.274   2.529 -1.5702 -1.8628  0.4178
 1698SOL     OW15562   8.676   5.660   2.424  0.4105  0.3385  0.2758
 1698SOL    HW115563   8.673   5.607   2.339  1.0583 -0.1742  0.5708
 1698SOL    HW215564   8.620   5.615   2.493  2.6620 -1.1648  1.1930
 1699SOL     OW15565   0.537   6.742   2.211 -0.0689  0.0844  0.0449
 1699SOL    HW115566   0.562   6.825   2.261  1.5256 -0.2262 -0.2340
 1699SOL    HW215567   0.578   6.744   2.120 -1.2389 -0.3366 -0.5035
 1700SOL     OW15568   1.437   9.412   4.028 -0.2783  0.7050 -0.2722
 1700SOL    HW115569   1.378   9.396   4.107 -0.5063  0.9513 -0.3895
 1700SOL    HW215570   1.513   9.347   4.029 -1.0513 -0.2186 -0.6170
 1701SOL     OW15571   8.102   4.604   0.409 -0.1982  0.9757  0.2994
 1701SOL    HW115572   8.021   4.661   0.394  0.9754  2.3885 -0.7411
 1701SOL    HW215573   8.125   4.556   0.324 -2.2982 -2.6058  1.6464
 1702SOL     OW15574   2.925   4.149   0.034  0.3136  0.4939  0.4613
 1702SOL    HW115575   3.010   4.200   0.022 -1.0800  2.8741  0.3347
 1702SOL    HW215576   2.931   4.062  -0.013  2.3170  1.0604 -0.3713
 1703SOL     OW15577   9.092   3.562   3.921 -0.3786  0.2933  0.1177
 1703SOL    HW115578   9.032   3.500   3.869  0.1236  0.8800 -1.1888
 1703SOL    HW215579   9.043   3.595   4.002 -1.2063 -0.5754 -0.0150
 1704SOL     OW15580   2.240   8.433   1.794  0.1567 -0.6344  0.7557
 1704SOL    HW115581   2.335   8.463   1.797 -0.8005  2.6472 -0.0211
 1704SOL    HW215582   2.182   8.501   1.838 -2.1536 -1.2188 -1.2835
 1705SOL     OW15583   9.407   3.235   3.724  0.1397 -0.2666  0.6782
 1705SOL    HW115584   9.350   3.303   3.678  0.4950  0.8708  1.8675
 1705SOL    HW215585   9.480   3.205   3.662 -1.1027 -0.9230 -0.4677
 1706SOL     OW15586   0.315   2.359   1.937 -0.3751  0.1022  0.0251
 1706SOL    HW115587   0.314   2.401   2.028 -0.3729  0.3581 -0.0905
 1706SOL    HW215588   0.347   2.265   1.944  2.0490  0.8922 -0.0369
 1707SOL     OW15589   3.335   6.178   1.103  0.1787  0.0949  0.2188
 1707SOL    HW115590   3.434   6.190   1.114  0.4551 -0.9729 -1.0087
 1707SOL    HW215591   3.298   6.139   1.187  0.8855  0.0052  0.4957
 1708SOL     OW15592   9.198   6.664   0.222  0.2033 -0.1458 -0.2052
 1708SOL    HW115593   9.113   6.715   0.212 -0.5472 -0.9323  1.7200
 1708SOL    HW215594   9.250   6.667   0.137 -0.7304  2.1608 -0.7138
 1709SOL     OW15595   3.457   7.709   1.562  0.5133 -0.3467 -0.0266
 1709SOL    HW115596   3.484   7.653   1.484  1.1510 -0.0579 -0.0193
 1709SOL    HW215597   3.370   7.676   1.598  0.8545 -1.2911 -0.0513
 1710SOL     OW15598   3.405   3.830   3.739 -0.3474 -0.2133  0.0658
 1710SOL    HW115599   3.325   3.865   3.789 -0.4029  1.0027 -0.8666
 1710SOL    HW215600   3.376   3.792   3.652  0.2109  1.1914 -0.7434
 1711SOL     OW15601   3.501   9.439   0.461 -0.4392  0.3002 -0.0997
 1711SOL    HW115602   3.576   9.413   0.400  0.3766  0.2995  0.8950
 1711SOL    HW215603   3.533   9.511   0.524 -1.5797  1.0425 -0.3672
 1712SOL     OW15604   0.458   7.466   3.046 -0.0003  0.1802  0.3216
 1712SOL    HW115605   0.413   7.408   2.979 -0.4615 -0.6376  1.3140
 1712SOL    HW215606   0.405   7.550   3.058 -0.2876  0.0222  0.1660
 1713SOL     OW15607   8.739   6.969   3.601 -0.6445  0.5426 -0.1214
 1713SOL    HW115608   8.663   6.950   3.664 -1.4144  0.6056 -1.0234
 1713SOL    HW215609   8.744   6.896   3.533  0.4821  0.2366  0.2865
 1714SOL     OW15610   8.315   2.082   1.816 -0.1490 -0.2326  0.2944
 1714SOL    HW115611   8.365   2.059   1.732  0.0596  2.6395 -0.4328
 1714SOL    HW215612   8.371   2.144   1.872 -1.2060 -0.3378  1.4887
 1715SOL     OW15613   0.259   3.073   0.527  0.3761  0.6922  0.2543
 1715SOL    HW115614   0.326   3.129   0.478  1.4032  0.2011  1.0596
 1715SOL    HW215615   0.206   3.020   0.461 -0.0930  2.0423 -0.4662
 1716SOL     OW15616   2.224   4.263   1.889 -1.3601 -0.4246  0.1662
 1716SOL    HW115617   2.305   4.207   1.906 -0.6618  0.7949  0.8986
 1716SOL    HW215618   2.252   4.355   1.863 -2.5085 -0.2419 -0.4350
 1717SOL     OW15619   8.458   6.895   3.402  0.0382 -0.8182 -0.8984
 1717SOL    HW115620   8.462   6.803   3.364  1.0616 -0.5732 -1.4218
 1717SOL    HW215621   8.545   6.941   3.385 -0.1025 -0.1144  0.2757
 1718SOL     OW15622   4.313   8.337   3.258  0.2914  0.0093  0.1578
 1718SOL    HW115623   4.255   8.256   3.254  1.0716 -0.6146  1.0104
 1718SOL    HW215624   4.393   8.317   3.316  1.1727  0.9483 -0.7185
 1719SOL     OW15625   9.641   6.426   2.250  0.2929  0.2198 -0.3378
 1719SOL    HW115626   9.611   6.389   2.162 -0.2697 -1.5908  0.5956
 1719SOL    HW215627   9.741   6.426   2.253  0.3110  0.0693 -0.8835
 1720SOL     OW15628   9.677   4.485   3.919  0.2627 -0.2392  0.5500
 1720SOL    HW115629   9.724   4.467   3.832  0.6236  0.7085  0.5417
 1720SOL    HW215630   9.719   4.429   3.990  1.6414  0.8220  0.6043
 1721SOL     OW15631   9.503   0.071   0.241 -0.0603 -0.1215 -0.0457
 1721SOL    HW115632   9.469  -0.022   0.225 -1.7265  0.3894  0.3464
 1721SOL    HW215633   9.477   0.101   0.332  1.8874  0.1548  0.4363
 1722SOL     OW15634   0.257   2.968   0.089  0.3729  0.1539  0.3340
 1722SOL    HW115635   0.235   2.872   0.105 -1.3153  0.3388 -0.7499
 1722SOL    HW215636   0.218   2.997   0.002  0.9648  1.8079  0.6003
 1723SOL     OW15637   7.642   0.315   1.182 -0.7263  0.0740  0.0025
 1723SOL    HW115638   7.660   0.243   1.115 -0.9806 -1.4128  1.4765
 1723SOL    HW215639   7.660   0.405   1.141  0.3925 -0.8609 -1.6174
 1724SOL     OW15640   1.371   5.985   2.394 -0.3672  0.0257  0.2988
 1724SOL    HW115641   1.451   5.926   2.407 -0.3703 -0.0352  0.0488
 1724SOL    HW215642   1.395   6.079   2.418 -0.4330 -0.1193  0.9316
 1725SOL     OW15643   8.888   3.425   0.263 -0.5412  0.1520 -0.3835
 1725SOL    HW115644   8.905   3.344   0.207  1.3673  0.5484 -0.3871
 1725SOL    HW215645   8.798   3.417   0.306 -0.5632 -1.7444 -0.7515
 1726SOL     OW15646   7.643   3.514   3.790  0.0412  0.3355 -0.4504
 1726SOL    HW115647   7.609   3.603   3.820  0.2732  0.8176 -1.5818
 1726SOL    HW215648   7.739   3.522   3.761  0.4627 -0.5586  0.6614
 1727SOL     OW15649   8.926   8.518   3.256  0.0482  0.4190 -0.1231
 1727SOL    HW115650   9.012   8.561   3.227 -0.7211  2.1586  0.0947
 1727SOL    HW215651   8.852   8.584   3.246 -1.3119 -1.1668 -0.5597
 1728SOL     OW15652   0.990   2.123   1.399  0.0202 -0.0293 -0.4486
 1728SOL    HW115653   0.983   2.034   1.445 -0.6459  0.6127  0.7051
 1728SOL    HW215654   0.901   2.147   1.360 -0.4157  1.1837  1.2355
 1729SOL     OW15655   3.197   8.162   0.888 -0.4455  0.3726 -0.4451
 1729SOL    HW115656   3.108   8.120   0.873 -0.6339  0.9774 -1.0743
 1729SOL    HW215657   3.251   8.106   0.951 -1.6830  0.5654  0.8026
 1730SOL     OW15658   2.087   6.270   1.844 -1.2270  0.0998  0.5089
 1730SOL    HW115659   2.130   6.202   1.784 -1.0075  1.2567 -0.6684
 1730SOL    HW215660   2.052   6.225   1.926  0.1557 -1.2107  0.3912
 1731SOL     OW15661   0.488   0.492   2.275  0.5742 -0.5856  0.1761
 1731SOL    HW115662   0.523   0.576   2.315  0.2657 -0.2163 -0.3287
 1731SOL    HW215663   0.564   0.431   2.253  0.9738  0.4919 -1.5461
 1732SOL     OW15664   1.502   4.283   1.068  0.0393 -0.3392 -0.1557
 1732SOL    HW115665   1.523   4.263   1.164  0.3893  1.9302  0.2625
 1732SOL    HW215666   1.406   4.264   1.051 -0.7303  1.9209  1.4171
 1733SOL     OW15667   2.844   6.794   3.640  0.0307 -0.0444  0.2381
 1733SOL    HW115668   2.903   6.867   3.674  0.5466 -1.0700  1.6048
 1733SOL    HW215669   2.884   6.756   3.556  0.4169  0.4179  0.2140
 1734SOL     OW15670   1.430   6.623   1.473  0.3872  0.0154  0.4570
 1734SOL    HW115671   1.415   6.637   1.571 -2.1995  0.5903  0.0086
 1734SOL    HW215672   1.383   6.539   1.445 -1.2460  1.3203 -0.8033
 1735SOL     OW15673   3.578   7.830   2.086 -0.2684 -0.3552  0.0738
 1735SOL    HW115674   3.575   7.921   2.127 -0.2592 -0.5875  0.5868
 1735SOL    HW215675   3.486   7.803   2.058 -0.1756  0.0916 -0.7035
 1736SOL     OW15676   7.736   1.601   3.001 -0.1802  0.2836 -0.5333
 1736SOL    HW115677   7.742   1.581   3.099 -0.7859  2.7702  0.0335
 1736SOL    HW215678   7.646   1.641   2.981 -0.3857 -0.9894 -2.2781
 1737SOL     OW15679   5.249   9.522   2.946 -0.4437  0.3842  0.0792
 1737SOL    HW115680   5.295   9.570   2.871  2.3041 -1.7060  0.3732
 1737SOL    HW215681   5.257   9.423   2.933 -1.1818 -0.0101  2.3815
 1738SOL     OW15682   1.459   1.352   0.193 -0.3366 -0.7521  0.3797
 1738SOL    HW115683   1.540   1.295   0.179  0.1038 -0.0981  0.2206
 1738SOL    HW215684   1.405   1.354   0.109  0.2763  0.0219 -0.0120
 1739SOL     OW15685   4.368   0.007   1.830  0.4580 -0.0347 -0.0335
 1739SOL    HW115686   4.339   0.088   1.882  0.5794  0.1685 -0.2766
 1739SOL    HW215687   4.287  -0.045   1.802  0.4681 -0.9380  1.6093
 1740SOL     OW15688   3.217   7.602   1.673 -0.4686 -0.0074 -0.1381
 1740SOL    HW115689   3.160   7.577   1.594  0.7717 -0.3262 -0.9354
 1740SOL    HW215690   3.237   7.520   1.727  0.7575 -0.2139 -0.8796
 1741SOL     OW15691   0.857   8.645   0.888  0.7955  0.0488 -0.0864
 1741SOL    HW115692   0.768   8.601   0.889  0.6719  0.2865 -0.4447
 1741SOL    HW215693   0.845   8.744   0.882  1.0649  0.1603  1.0649
 1742SOL     OW15694   0.088   1.227   3.802  0.1374 -0.0556 -0.1702
 1742SOL    HW115695   0.089   1.127   3.808  0.8427 -0.1615 -1.8715
 1742SOL    HW215696   0.181   1.261   3.804 -0.1251  0.6035  0.8299
 1743SOL     OW15697   2.635   5.726   2.564  0.0923 -0.0029  0.2737
 1743SOL    HW115698   2.671   5.675   2.642  1.7875 -1.3550 -1.3388
 1743SOL    HW215699   2.540   5.699   2.548  0.7233 -2.1558 -0.0862
 1744SOL     OW15700   0.124   5.690   1.176  0.5115  0.2506 -0.1441
 1744SOL    HW115701   0.147   5.713   1.270 -4.6319  0.9674  1.1127
 1744SOL    HW215702   0.097   5.593   1.171  0.5780  0.2636 -0.8548
 1745SOL     OW15703   9.026   2.188   3.556 -0.4647  0.3079 -0.4090
 1745SOL    HW115704   9.057   2.102   3.516  1.8544  0.5253  0.8370
 1745SOL    HW215705   8.985   2.246   3.485 -0.7936 -1.2596 -1.5021
 1746SOL     OW15706   7.217   8.704   2.390 -0.2932  0.9786 -0.2168
 1746SOL    HW115707   7.300   8.694   2.335  0.0153  2.0329  0.0392
 1746SOL    HW215708   7.146   8.748   2.335 -0.4303  0.7806 -0.1981
 1747SOL     OW15709   4.212   2.993   3.810  0.0355  0.4561  0.5922
 1747SOL    HW115710   4.277   2.922   3.782  0.4990  1.0347  0.1822
 1747SOL    HW215711   4.156   2.959   3.885  0.5807 -0.1727  0.7225
 1748SOL     OW15712   9.660   6.939   2.901  0.4218 -0.5910 -0.5556
 1748SOL    HW115713   9.654   6.902   2.808  1.3752 -1.1481 -0.3975
 1748SOL    HW215714   9.691   7.034   2.896 -0.5275 -0.2860 -0.8605
 1749SOL     OW15715   5.831   8.216   2.731 -0.2822 -0.3300  0.2254
 1749SOL    HW115716   5.817   8.179   2.639  0.7702 -1.2962  0.4394
 1749SOL    HW215717   5.757   8.183   2.791 -2.5561  2.5786 -0.8920
 1750SOL     OW15718   3.066   7.144   0.348  0.3006  0.0542  0.2130
 1750SOL    HW115719   3.067   7.197   0.263  1.1131  0.5050  0.4973
 1750SOL    HW215720   3.113   7.196   0.420 -2.2599  0.6530  1.5214
 1751SOL     OW15721   0.314   3.965   3.125  0.2589  0.3008  0.0670
 1751SOL    HW115722   0.332   3.867   3.113  0.6507  0.5205 -1.2214
 1751SOL    HW215723   0.389   4.018   3.085 -0.1368  1.1357  0.4198
 1752SOL     OW15724   5.453   8.541   1.797 -0.9015 -0.5782 -0.3502
 1752SOL    HW115725   5.392   8.522   1.874 -0.5262  0.1871  0.1390
 1752SOL    HW215726   5.429   8.630   1.757  0.8607  0.4594  0.8172
 1753SOL     OW15727   8.385   2.556   2.118  0.1507  0.2604 -0.0287
 1753SOL    HW115728   8.410   2.560   2.214 -0.3127  2.9593  0.0061
 1753SOL    HW215729   8.286   2.543   2.110 -0.0934  2.1112 -0.1201
 1754SOL     OW15730   0.581   4.996   2.822  0.0329 -0.4202  0.3198
 1754SOL    HW115731   0.667   5.048   2.817 -0.9727  1.3425  1.0376
 1754SOL    HW215732   0.570   4.958   2.914 -0.1466 -0.2985  0.3491
 1755SOL     OW15733   1.916   3.315   0.316  0.1387 -0.0506 -0.5305
 1755SOL    HW115734   1.839   3.353   0.368  0.0674  0.3728 -0.9362
 1755SOL    HW215735   1.960   3.388   0.264 -0.6857 -0.7052 -2.1836
 1756SOL     OW15736   4.405   1.675   2.285  0.1014  0.2475 -0.2768
 1756SOL    HW115737   4.504   1.671   2.269  0.0700  2.1827 -1.2016
 1756SOL    HW215738   4.386   1.658   2.381  1.1633 -2.0144 -0.4310
 1757SOL     OW15739   7.811   4.246   0.366  0.6369  0.1961 -0.6358
 1757SOL    HW115740   7.755   4.219   0.287 -0.1152 -0.5411  0.1533
 1757SOL    HW215741   7.907   4.250   0.338  0.5446 -1.4352 -1.2456
 1758SOL     OW15742   2.439   1.792   1.159 -0.3290 -0.7691  0.1277
 1758SOL    HW115743   2.495   1.710   1.168 -0.4873 -0.8969 -0.0617
 1758SOL    HW215744   2.468   1.860   1.227  1.0515 -0.2657 -0.9370
 1759SOL     OW15745   1.564   8.367   0.836 -0.7117 -0.1555  0.0600
 1759SOL    HW115746   1.605   8.313   0.762 -1.7936 -1.1966  0.2100
 1759SOL    HW215747   1.590   8.463   0.825 -1.4074 -0.1848 -2.0688
 1760SOL     OW15748   2.028   9.970   1.564  0.0419  0.0959  0.2375
 1760SOL    HW115749   1.946  10.025   1.578  1.1120  1.3301  2.0237
 1760SOL    HW215750   2.034   9.900   1.636 -0.4116 -1.2333 -0.9995
 1761SOL     OW15751   8.689   1.810   2.220  0.4611 -0.4252  0.0809
 1761SOL    HW115752   8.754   1.857   2.280  0.0972 -0.5032  0.5381
 1761SOL    HW215753   8.596   1.840   2.240  0.3331 -0.4605 -0.4394
 1762SOL     OW15754   9.161   1.973   3.841 -0.1835 -0.4953 -0.0543
 1762SOL    HW115755   9.238   2.023   3.800  0.5028 -1.1362  0.4240
 1762SOL    HW215756   9.109   2.035   3.900  1.9831 -0.8528  2.3092
 1763SOL     OW15757   9.541   2.858   1.301 -0.3250  0.3117 -0.3677
 1763SOL    HW115758   9.527   2.863   1.202  1.0665  0.7387 -0.5496
 1763SOL    HW215759   9.615   2.919   1.328 -0.2182 -0.3292  0.8478
 1764SOL     OW15760   3.620   7.289   2.430 -0.4510  0.0281 -0.6185
 1764SOL    HW115761   3.596   7.264   2.336  1.0971  0.5882 -1.1781
 1764SOL    HW215762   3.710   7.332   2.431 -0.6498  0.4363  1.0742
 1765SOL     OW15763   1.419   5.499   1.679 -0.2020  0.5784 -0.2262
 1765SOL    HW115764   1.456   5.409   1.654 -1.4186  0.1527 -0.5209
 1765SOL    HW215765   1.464   5.570   1.626  0.0512  0.0475 -0.7232
 1766SOL     OW15766   3.468   7.129   1.242  1.0220 -0.4901  0.2777
 1766SOL    HW115767   3.556   7.089   1.271  0.8615 -1.6429 -0.7727
 1766SOL    HW215768   3.464   7.131   1.142  0.5349  1.1174  0.3217
 1767SOL     OW15769   5.609   7.880   2.101  0.1730  0.4956  0.0543
 1767SOL    HW115770   5.664   7.805   2.064 -1.7291 -0.8844 -0.0944
 1767SOL    HW215771   5.528   7.894   2.043  0.4731  2.6284  0.1313
 1768SOL     OW15772   4.524   0.064   0.998  0.0062  0.5132 -0.3696
 1768SOL    HW115773   4.425   0.071   1.014  0.0787 -0.5503  0.6838
 1768SOL    HW215774   4.555  -0.028   1.025  1.3136  0.9043 -0.5066
 1769SOL     OW15775   9.011   9.570   3.653  0.3349  0.1149 -0.2640
 1769SOL    HW115776   9.024   9.502   3.580  1.3247  0.0083  0.0058
 1769SOL    HW215777   8.918   9.562   3.690  0.5381 -1.3013 -0.0292
 1770SOL     OW15778   9.784   3.607   3.871 -0.0424 -0.0167  0.4953
 1770SOL    HW115779   9.757   3.576   3.962  0.4043  0.5759  0.8355
 1770SOL    HW215780   9.752   3.701   3.857 -0.5730 -0.2935 -0.1606
 1771SOL     OW15781   9.844   7.827   2.609  0.4525  0.0615 -0.3160
 1771SOL    HW115782   9.786   7.774   2.670  0.5017 -0.4705 -0.7335
 1771SOL    HW215783   9.790   7.861   2.532  0.3819  0.7640  0.0342
 1772SOL     OW15784   2.063   2.451   1.023  0.7720 -0.3028  0.3473
 1772SOL    HW115785   1.982   2.456   1.081  0.1599 -1.5530 -0.3835
 1772SOL    HW215786   2.079   2.540   0.981 -2.4681 -0.9443 -2.4859
 1773SOL     OW15787   7.861   5.053   2.764 -0.5675  0.2315  0.2860
 1773SOL    HW115788   7.838   5.149   2.749  1.0659  0.4154 -1.2162
 1773SOL    HW215789   7.904   5.042   2.854  2.0338  1.4527 -0.7634
 1774SOL     OW15790   3.283   3.154   0.167 -0.5158 -0.1130 -0.3322
 1774SOL    HW115791   3.297   3.094   0.088 -0.6673 -2.4400  1.3912
 1774SOL    HW215792   3.366   3.209   0.181 -0.6888  0.7662 -2.4207
 1775SOL     OW15793   9.787   2.664   0.128  0.2903  0.5771 -0.1959
 1775SOL    HW115794   9.844   2.718   0.189  0.1871  1.8325 -1.1748
 1775SOL    HW215795   9.693   2.698   0.131  0.1010  0.0849 -0.3964
 1776SOL     OW15796   0.478   5.689   2.188 -0.1850  0.0122 -0.1645
 1776SOL    HW115797   0.381   5.712   2.197  0.1967  1.0540  1.5926
 1776SOL    HW215798   0.528   5.727   2.266  1.7037 -0.1596 -1.2772
 1777SOL     OW15799   3.196   6.315   0.448 -0.0101  0.1921  0.1623
 1777SOL    HW115800   3.262   6.310   0.524  0.8549  0.5223 -0.5526
 1777SOL    HW215801   3.104   6.296   0.482  0.3838  0.2485  1.2779
 1778SOL     OW15802   3.439   3.376   0.254 -0.1047  0.2649  0.0778
 1778SOL    HW115803   3.523   3.397   0.205  0.7941 -1.1092  0.9815
 1778SOL    HW215804   3.372   3.449   0.240  1.8499  2.2282  0.7906
 1779SOL     OW15805   0.122   4.962   3.513  0.8008 -0.3620 -0.0027
 1779SOL    HW115806   0.091   5.056   3.523 -0.0789 -0.7007  0.5306
 1779SOL    HW215807   0.100   4.911   3.597 -0.0572 -1.4091 -0.8504
 1780SOL     OW15808   8.451   0.062   1.414  0.1479 -0.1531 -0.4631
 1780SOL    HW115809   8.503   0.068   1.500 -0.0897 -0.8105 -0.2663
 1780SOL    HW215810   8.514   0.043   1.339  0.4247  0.9625 -0.5223
 1781SOL     OW15811   3.163   5.820   2.659  0.1090  0.6862  0.0997
 1781SOL    HW115812   3.196   5.823   2.754  0.9287  2.3147 -0.2242
 1781SOL    HW215813   3.095   5.748   2.651 -0.4450  0.9380  2.0966
 1782SOL     OW15814   8.065   1.822   2.795 -1.2762  0.1588 -0.2187
 1782SOL    HW115815   8.057   1.894   2.726 -0.1084 -0.9989 -1.6068
 1782SOL    HW215816   8.101   1.739   2.752 -1.0120 -0.7449  1.6942
 1783SOL     OW15817   1.658   6.492   3.645 -0.1643  0.4183 -0.0427
 1783SOL    HW115818   1.628   6.397   3.657 -0.8287  0.5791 -0.4140
 1783SOL    HW215819   1.758   6.495   3.642 -0.1619 -0.3702 -0.8787
 1784SOL     OW15820   2.668   6.545   1.293 -0.1747  0.3917 -0.2620
 1784SOL    HW115821   2.593   6.483   1.270 -0.5789 -0.1151  2.3266
 1784SOL    HW215822   2.640   6.639   1.274 -1.1459  0.1388 -0.0777
 1785SOL     OW15823   3.507   6.430   1.879  0.2125 -0.1742 -0.4045
 1785SOL    HW115824   3.465   6.465   1.963  0.1801  1.8791 -1.2393
 1785SOL    HW215825   3.436   6.400   1.816  0.2110 -1.1260  0.0418
 1786SOL     OW15826   5.048   1.289   1.256  0.0229  0.0693 -0.2134
 1786SOL    HW115827   5.106   1.256   1.330 -2.8737 -1.8102  1.3333
 1786SOL    HW215828   4.985   1.359   1.292 -0.0425  0.6087 -1.3593
 1787SOL     OW15829   0.806   2.130   2.112  0.5061  0.3142  0.3300
 1787SOL    HW115830   0.783   2.226   2.095 -0.2770 -0.1427 -1.3080
 1787SOL    HW215831   0.849   2.092   2.030  1.0333 -0.6599  1.0627
 1788SOL     OW15832   2.836   5.646   3.958  0.0896  0.1798 -0.0119
 1788SOL    HW115833   2.804   5.614   3.869 -1.8930  0.0728  0.7240
 1788SOL    HW215834   2.816   5.577   4.028 -0.4313  1.2249  0.8869
 1789SOL     OW15835   0.795   3.118   2.373  0.0681  0.3058  1.2783
 1789SOL    HW115836   0.814   3.069   2.458  0.0533 -1.3982  0.3183
 1789SOL    HW215837   0.872   3.108   2.311 -1.4818 -1.7912 -0.4071
 1790SOL     OW15838   8.383   2.113   0.572 -0.3195 -0.6811  0.0539
 1790SOL    HW115839   8.361   2.170   0.651 -0.7410 -1.9218  0.8457
 1790SOL    HW215840   8.321   2.035   0.569 -0.4876 -0.4965 -1.6700
 1791SOL     OW15841   8.802   8.171   0.720  0.1274 -0.3457 -0.5822
 1791SOL    HW115842   8.795   8.264   0.755 -0.9747  0.0982 -1.9423
 1791SOL    HW215843   8.719   8.121   0.742  0.5670 -0.8946 -0.1725
 1792SOL     OW15844   1.377   5.564   3.433  0.5328 -0.1491  0.2338
 1792SOL    HW115845   1.306   5.633   3.423  2.1206  1.1858 -2.3336
 1792SOL    HW215846   1.349   5.481   3.384 -0.1773 -0.3626  1.0013
 1793SOL     OW15847   9.991   9.138   2.702  0.2234 -0.4017 -0.1927
 1793SOL    HW115848   9.951   9.208   2.761  1.9213 -0.3249  0.9199
 1793SOL    HW215849  10.002   9.174   2.610  1.4934  0.9742  0.4801
 1794SOL     OW15850   8.664   3.806   0.547 -0.1894  0.8146  0.2519
 1794SOL    HW115851   8.763   3.791   0.549 -0.4219 -1.0911 -0.9256
 1794SOL    HW215852   8.643   3.894   0.590  1.9112  0.7514  1.5013
 1795SOL     OW15853   3.850   1.947   0.684 -0.5473  0.1452 -0.1275
 1795SOL    HW115854   3.797   1.873   0.724 -0.3861  0.8638  1.4620
 1795SOL    HW215855   3.947   1.926   0.691 -0.4934  0.5689  0.4981
 1796SOL     OW15856   1.389   0.008   0.284 -0.2000 -0.0027  0.0559
 1796SOL    HW115857   1.372  -0.075   0.229 -1.3976  0.4428 -0.2653
 1796SOL    HW215858   1.358   0.088   0.233 -1.3096  0.4157  1.3755
 1797SOL     OW15859   3.251   0.553   3.142  0.2160  0.3964 -0.1445
 1797SOL    HW115860   3.282   0.497   3.219  1.8701  0.1897 -0.9338
 1797SOL    HW215861   3.270   0.505   3.057 -0.2612  1.2663 -0.7493
 1798SOL     OW15862   1.066   0.692   3.080 -0.3509 -0.2286 -0.3600
 1798SOL    HW115863   1.117   0.617   3.122  2.6795  1.2593 -1.1964
 1798SOL    HW215864   1.077   0.774   3.135 -0.1894  0.5908 -1.5894
 1799SOL     OW15865   1.046   9.070   2.081  0.0031 -0.0852 -0.1006
 1799SOL    HW115866   1.124   9.022   2.042 -0.4898 -1.1655  0.2246
 1799SOL    HW215867   0.992   9.007   2.136 -0.6007  0.8699  0.4222
 1800SOL     OW15868   0.019   4.529   2.694 -0.2771 -0.0750  0.2507
 1800SOL    HW115869  -0.078   4.552   2.705  0.4307  2.7301  1.1314
 1800SOL    HW215870   0.068   4.607   2.655  1.7636 -1.1770  0.5080
 1801SOL     OW15871   9.108   8.714   3.880 -0.2100 -0.2397 -0.2419
 1801SOL    HW115872   9.101   8.780   3.955 -0.5115  0.3772 -0.8030
 1801SOL    HW215873   9.156   8.632   3.912  0.6719  0.4772  0.3052
 1802SOL     OW15874   0.601   5.067   1.574  0.2604  0.2914  0.6964
 1802SOL    HW115875   0.540   5.145   1.556 -0.6353 -0.2512  1.3631
 1802SOL    HW215876   0.665   5.058   1.498  0.0484  1.3783  0.3709
 1803SOL     OW15877   0.259   2.267   3.831  0.1748  0.0688 -0.5074
 1803SOL    HW115878   0.352   2.250   3.798  0.4529 -0.4588  0.5229
 1803SOL    HW215879   0.247   2.364   3.847 -0.2509  0.4458 -2.9875
 1804SOL     OW15880   9.919   1.339   0.807 -0.1931  0.0489 -1.0124
 1804SOL    HW115881   9.999   1.284   0.781 -0.1204 -0.5626  0.4568
 1804SOL    HW215882   9.840   1.280   0.820  0.2640  0.0456  2.1229
 1805SOL     OW15883   7.469   3.045   3.758  0.0581 -0.4543  0.5456
 1805SOL    HW115884   7.479   2.987   3.840  0.3938  0.9287  1.5040
 1805SOL    HW215885   7.410   3.123   3.780 -0.3424 -0.3956 -0.7187
 1806SOL     OW15886   0.876   4.340   0.022  0.0523 -0.3606 -0.0983
 1806SOL    HW115887   0.872   4.240   0.026 -1.3165 -0.3796 -1.5621
 1806SOL    HW215888   0.866   4.370  -0.072 -0.8323  1.2275  0.4848
 1807SOL     OW15889   8.850   8.841   3.837  0.3221  0.0541 -0.1043
 1807SOL    HW115890   8.876   8.907   3.907 -0.2192 -0.4044  0.5525
 1807SOL    HW215891   8.931   8.796   3.801  0.7381  1.5111 -1.0011
 1808SOL     OW15892   5.681   9.722   2.407  0.2764  0.2514  0.1856
 1808SOL    HW115893   5.647   9.632   2.434 -0.8010  1.2271  2.1628
 1808SOL    HW215894   5.643   9.747   2.318 -1.3811 -0.1880  0.7586
 1809SOL     OW15895   2.338   3.911   0.897 -0.1869 -0.0391  0.4808
 1809SOL    HW115896   2.330   3.993   0.954 -0.2451 -0.7011  1.4427
 1809SOL    HW215897   2.257   3.901   0.840 -0.6653 -0.0012  1.1439
 1810SOL     OW15898   1.124   1.216   0.661 -0.3829 -0.1157  0.3343
 1810SOL    HW115899   1.072   1.301   0.652 -0.6322 -0.4030 -1.1074
 1810SOL    HW215900   1.062   1.138   0.659 -0.1687 -0.3378  1.8256
 1811SOL     OW15901   9.985   3.006   0.864 -0.5315 -0.2767 -0.3132
 1811SOL    HW115902  10.070   3.024   0.913 -0.9590  0.8116  0.0375
 1811SOL    HW215903   9.945   3.092   0.832 -1.4659 -0.7814 -0.5451
 1812SOL     OW15904   0.120   6.958   2.743  0.1419  0.1199 -0.3806
 1812SOL    HW115905   0.113   6.870   2.695  0.5352 -0.2465  0.2343
 1812SOL    HW215906   0.059   7.024   2.699  0.5494 -0.1868 -1.4401
 1813SOL     OW15907   8.850   0.506   1.322 -0.2874 -0.2970  0.0915
 1813SOL    HW115908   8.812   0.430   1.271  1.4661 -0.4062 -1.1147
 1813SOL    HW215909   8.780   0.577   1.334 -0.9730 -0.6510 -1.7051
 1814SOL     OW15910   0.698   3.491   3.413  0.1058  0.3582  0.0276
 1814SOL    HW115911   0.712   3.553   3.491  0.7094 -1.0377  1.0557
 1814SOL    HW215912   0.652   3.408   3.445  0.7881 -0.4321 -1.0185
 1815SOL     OW15913   1.386   8.235   3.822 -0.5076 -0.3047 -0.3963
 1815SOL    HW115914   1.430   8.319   3.790 -0.2355  0.8213  2.7872
 1815SOL    HW215915   1.455   8.174   3.861 -1.0486 -0.9550 -0.4382
 1816SOL     OW15916   6.369   8.875   1.721 -0.8592 -0.2517  0.7645
 1816SOL    HW115917   6.344   8.870   1.624  0.3941  4.3709  0.0778
 1816SOL    HW215918   6.437   8.804   1.741  0.0168 -0.3186 -2.1585
 1817SOL     OW15919   3.122   7.157   3.321  0.2626 -0.1036 -0.1675
 1817SOL    HW115920   3.050   7.179   3.387  0.9073 -1.9762  1.1953
 1817SOL    HW215921   3.081   7.118   3.239 -0.2778 -1.6773  0.8244
 1818SOL     OW15922   7.783   1.201   3.068 -0.2503 -0.3214  0.6220
 1818SOL    HW115923   7.847   1.226   3.141  0.3737 -1.0921  0.3424
 1818SOL    HW215924   7.834   1.191   2.982 -0.9214  0.2040  0.1597
 1819SOL     OW15925   1.709   1.091   0.904  0.0203  0.0058  0.3923
 1819SOL    HW115926   1.655   1.175   0.894  0.2113  0.2896  1.6123
 1819SOL    HW215927   1.795   1.112   0.951  0.8781 -0.5699 -0.8986
 1820SOL     OW15928   2.925   6.136   0.888  0.2016  0.0292  0.4895
 1820SOL    HW115929   3.023   6.155   0.883  0.5888 -1.5772  1.7470
 1820SOL    HW215930   2.905   6.080   0.968 -1.5889 -0.5856 -0.3455
 1821SOL     OW15931   7.941   1.968   2.584  0.0900 -0.4052  0.6659
 1821SOL    HW115932   7.872   1.898   2.566  0.2667 -0.7372  1.2659
 1821SOL    HW215933   7.898   2.047   2.628 -0.6050  0.9948 -2.3718
 1822SOL     OW15934   8.839   5.727   1.917  0.0271 -0.7665 -0.0149
 1822SOL    HW115935   8.797   5.791   1.853 -0.9112 -0.6233  0.7319
 1822SOL    HW215936   8.929   5.700   1.883  0.1305  0.3944 -0.7042
 1823SOL     OW15937   8.861   3.147   1.254 -0.0039 -0.0835  0.0993
 1823SOL    HW115938   8.853   3.158   1.155 -2.4523  0.8695  0.3553
 1823SOL    HW215939   8.943   3.093   1.276  1.1058  0.5497 -2.3656
 1824SOL     OW15940   2.826   3.677   3.015 -0.2232 -0.2447 -0.0365
 1824SOL    HW115941   2.771   3.606   2.969 -1.6331  0.4904  0.4949
 1824SOL    HW215942   2.767   3.753   3.040  1.0290  0.4862  0.7077
 1825SOL     OW15943   3.848   3.905   0.792 -0.2246 -0.0379  0.4150
 1825SOL    HW115944   3.839   3.990   0.843 -1.0357  0.0023  0.2137
 1825SOL    HW215945   3.765   3.850   0.804 -0.8363  0.4094 -1.6616
 1826SOL     OW15946   2.920   0.842   2.648 -0.0530  0.1519  0.3607
 1826SOL    HW115947   2.945   0.937   2.625  0.7319  0.1039  1.0086
 1826SOL    HW215948   2.920   0.787   2.564 -1.4820  0.9222 -0.1825
 1827SOL     OW15949   3.747   6.852   2.353  0.1600 -0.0031  0.2960
 1827SOL    HW115950   3.801   6.771   2.375  0.7944  0.7836  1.7135
 1827SOL    HW215951   3.794   6.933   2.389 -0.6506  0.9496 -0.7829
 1828SOL     OW15952   8.196   1.152   2.195 -0.0164  0.6414  0.0057
 1828SOL    HW115953   8.282   1.114   2.230 -0.3828 -0.1095  0.0956
 1828SOL    HW215954   8.195   1.146   2.095  0.5947  1.8589 -0.0830
 1829SOL     OW15955   1.225   4.955   2.608  0.5986 -0.1802 -0.1052
 1829SOL    HW115956   1.152   4.898   2.646  0.3253  0.3830  0.2179
 1829SOL    HW215957   1.209   5.050   2.633  0.3156  0.2220 -1.7848
 1830SOL     OW15958   1.396   4.669   1.865 -0.4660  0.0413  0.2170
 1830SOL    HW115959   1.382   4.723   1.782 -0.5649  0.4709  0.5141
 1830SOL    HW215960   1.458   4.717   1.926 -1.5932  0.4517  1.0586
 1831SOL     OW15961   4.479   2.571   0.638  0.1187 -0.6989  0.4645
 1831SOL    HW115962   4.557   2.621   0.602  0.0351 -1.1892 -0.4297
 1831SOL    HW215963   4.460   2.599   0.732  0.8716 -0.0069  0.4053
 1832SOL     OW15964   2.561   5.225   2.469 -0.2464  0.4492 -0.0803
 1832SOL    HW115965   2.643   5.280   2.449 -1.4604  2.5271  0.4821
 1832SOL    HW215966   2.482   5.265   2.422 -1.2225 -0.6634  0.5869
 1833SOL     OW15967   8.637   0.767   0.443 -0.2431 -0.4643  0.2172
 1833SOL    HW115968   8.656   0.819   0.526 -0.0611 -0.5484  0.2269
 1833SOL    HW215969   8.646   0.826   0.363 -0.8745 -0.2644  0.2879
 1834SOL     OW15970   9.950   5.995   3.185 -0.0738  0.2557  0.0018
 1834SOL    HW115971   9.906   5.993   3.274  0.8440  1.7657  0.5092
 1834SOL    HW215972  10.049   5.987   3.197  0.1371  1.5436 -0.7988
 1835SOL     OW15973   5.339   1.901   1.306  0.7094  0.1222 -0.1864
 1835SOL    HW115974   5.347   1.912   1.207 -1.4316 -0.5639 -0.4662
 1835SOL    HW215975   5.357   1.806   1.330 -0.8633 -0.1791 -0.1768
 1836SOL     OW15976   0.564   9.348   0.980  0.2176 -0.1223  0.1710
 1836SOL    HW115977   0.585   9.442   0.952 -0.2497  0.8878  3.0123
 1836SOL    HW215978   0.468   9.343   1.010  0.4822 -1.2985  0.8526
 1837SOL     OW15979   3.331   7.675   2.028 -0.4569 -0.4014  0.4166
 1837SOL    HW115980   3.390   7.634   1.958 -1.5048 -2.0989  0.5215
 1837SOL    HW215981   3.306   7.768   1.999  0.0444 -0.6642 -0.9059
 1838SOL     OW15982   7.028   9.050   0.997  0.2266  0.6620 -0.2498
 1838SOL    HW115983   6.958   9.119   1.014 -0.1649 -0.2394  1.8928
 1838SOL    HW215984   6.987   8.959   0.997  1.2046  0.2124 -0.1700
 1839SOL     OW15985   8.454   2.635   1.259 -0.2400  0.5940  0.6416
 1839SOL    HW115986   8.491   2.690   1.185 -0.5324  1.4431  1.1217
 1839SOL    HW215987   8.380   2.577   1.225 -0.5321  1.1544  0.3188
 1840SOL     OW15988   0.578   3.937   0.478 -0.1847  0.0736 -0.3704
 1840SOL    HW115989   0.630   3.854   0.497  1.2008  0.9876 -0.0399
 1840SOL    HW215990   0.592   3.965   0.383 -0.9197 -0.2575 -0.5762
 1841SOL     OW15991   9.188   6.928   2.225 -0.2713  0.1176 -0.3260
 1841SOL    HW115992   9.088   6.923   2.229 -0.2882  0.8075  0.1728
 1841SOL    HW215993   9.215   6.995   2.156 -0.1853  1.4608  0.9865
 1842SOL     OW15994   8.881   1.669   3.011  0.0155  0.3548  0.1630
 1842SOL    HW115995   8.869   1.603   2.936  0.0543 -1.5724  1.8123
 1842SOL    HW215996   8.797   1.721   3.023 -0.7916 -0.9457  0.2722
 1843SOL     OW15997   0.839   2.519   0.297 -0.1357  0.5606 -0.1618
 1843SOL    HW115998   0.923   2.525   0.243  0.3334 -0.4337  0.4525
 1843SOL    HW215999   0.858   2.470   0.382 -1.5100 -0.2871 -0.3469
 1844SOL     OW16000   0.031   0.913   0.240 -0.5431 -0.2169 -0.4751
 1844SOL    HW116001   0.046   0.988   0.175 -0.5102  0.4353  0.2793
 1844SOL    HW216002  -0.056   0.928   0.288 -0.4842 -0.6141 -0.2458
 1845SOL     OW16003   7.282   9.221   1.745 -0.3615  0.4160  0.0156
 1845SOL    HW116004   7.220   9.296   1.767  0.0066  1.0776 -1.1750
 1845SOL    HW216005   7.230   9.136   1.735 -1.0642  0.9284 -0.7488
 1846SOL     OW16006   9.603   7.514   2.920 -0.3186 -0.1996 -0.0440
 1846SOL    HW116007   9.515   7.493   2.963  0.2903 -1.1311  0.7546
 1846SOL    HW216008   9.671   7.446   2.947  0.6402  0.4795 -0.7077
 1847SOL     OW16009   9.671   9.146   3.626 -0.9910  0.1796  0.0587
 1847SOL    HW116010   9.665   9.238   3.587  1.5934 -1.0738 -3.5773
 1847SOL    HW216011   9.729   9.148   3.707 -0.3868  1.6713 -0.3819
 1848SOL     OW16012   3.098   4.973   3.475  0.5490  0.4890 -0.0457
 1848SOL    HW116013   3.057   4.998   3.387  1.2611  1.0492 -0.2208
 1848SOL    HW216014   3.027   4.935   3.535 -0.1069  0.8872 -0.5589
 1849SOL     OW16015   0.762   6.735   2.871  0.3190  0.3456  0.1999
 1849SOL    HW116016   0.712   6.821   2.879  1.1697  0.7225  1.6726
 1849SOL    HW216017   0.835   6.745   2.804  1.2155  1.1870  1.2701
 1850SOL     OW16018   3.738   3.372   3.295 -0.4312  0.3289  0.1894
 1850SOL    HW116019   3.762   3.318   3.377 -0.2421  1.1500  0.6772
 1850SOL    HW216020   3.818   3.379   3.236 -0.2644  0.6609  0.4557
 1851SOL     OW16021   0.883   6.785   0.264 -0.3505  0.2539 -0.3899
 1851SOL    HW116022   0.961   6.844   0.243  0.8359 -1.1854 -0.1391
 1851SOL    HW216023   0.876   6.712   0.195  0.3314 -1.3530  1.2063
 1852SOL     OW16024   6.696   9.375   2.017 -0.6890 -0.4309  0.0134
 1852SOL    HW116025   6.766   9.329   2.071 -1.5480 -0.4868  1.0984
 1852SOL    HW216026   6.621   9.402   2.076 -1.5979 -0.3794 -1.1402
 1853SOL     OW16027   3.449   1.897   2.394  0.3655  0.2047  0.3616
 1853SOL    HW116028   3.363   1.862   2.433 -0.7263  1.2205 -1.0958
 1853SOL    HW216029   3.504   1.820   2.362 -1.4647 -0.3371 -1.6522
 1854SOL     OW16030   7.530   9.764   3.718  0.5230 -0.2605 -0.2187
 1854SOL    HW116031   7.545   9.686   3.656  0.7430  1.0209 -1.8108
 1854SOL    HW216032   7.432   9.779   3.728  0.4930  0.0827 -0.9816
 1855SOL     OW16033   5.229   7.412   1.692  0.0954  0.5990 -0.3354
 1855SOL    HW116034   5.328   7.425   1.702  0.1284  0.3518 -0.3410
 1855SOL    HW216035   5.191   7.486   1.637  0.2167  0.9074 -0.0089
 1856SOL     OW16036   0.666   8.711   2.281 -0.0717  0.1096 -0.2074
 1856SOL    HW116037   0.723   8.663   2.347 -1.5780  0.0225  1.0488
 1856SOL    HW216038   0.579   8.736   2.323 -0.8266  0.5726 -1.9841
 1857SOL     OW16039   2.988   2.134   0.504  0.4987 -0.4094 -0.1436
 1857SOL    HW116040   3.039   2.205   0.553  0.2348  0.8461 -1.6596
 1857SOL    HW216041   2.980   2.159   0.408 -0.3188 -2.1077 -0.5310
 1858SOL     OW16042   1.465   9.801   1.942 -0.0830  0.1648  0.4801
 1858SOL    HW116043   1.447   9.886   1.991 -1.2051  0.5733 -0.6302
 1858SOL    HW216044   1.564   9.787   1.936  0.1092  1.2679  0.8748
 1859SOL     OW16045   7.974   7.224   1.685  0.4981 -0.4439 -0.1008
 1859SOL    HW116046   8.024   7.218   1.598  0.3178  0.8842 -0.3084
 1859SOL    HW216047   7.885   7.181   1.675 -0.4351  1.6593 -1.2779
 1860SOL     OW16048   0.326   4.333   2.487  0.0426 -0.2099  0.1616
 1860SOL    HW116049   0.396   4.265   2.463 -0.2743 -1.3073  2.1964
 1860SOL    HW216050   0.370   4.409   2.535 -0.0543 -0.6164  0.9087
 1861SOL     OW16051   1.593   7.049   0.721  0.4037  0.6258 -0.2006
 1861SOL    HW116052   1.564   7.072   0.628 -2.4312  1.6285  0.8641
 1861SOL    HW216053   1.676   7.100   0.744  0.9796  0.5539 -2.0884
 1862SOL     OW16054   2.544   8.248   0.261 -0.2680  0.2273 -0.3351
 1862SOL    HW116055   2.598   8.332   0.265  0.5835 -0.1853 -2.4621
 1862SOL    HW216056   2.540   8.216   0.166 -3.0106 -0.5610  0.0138
 1863SOL     OW16057   4.399   4.000   1.370 -0.1412  0.0518  0.1628
 1863SOL    HW116058   4.388   3.914   1.420  1.4175 -0.8088 -0.9547
 1863SOL    HW216059   4.495   4.014   1.348 -0.8138  0.2728 -2.8104
 1864SOL     OW16060   6.473   9.359   2.413 -0.2632  0.1879 -0.4284
 1864SOL    HW116061   6.413   9.420   2.361  1.3058  0.8523 -1.5266
 1864SOL    HW216062   6.450   9.264   2.394  0.7699  0.4108 -2.9958
 1865SOL     OW16063   1.879   6.008   0.518  0.5879 -0.2079  0.0704
 1865SOL    HW116064   1.917   5.924   0.557 -1.4667 -0.9358  0.5431
 1865SOL    HW216065   1.879   6.080   0.587  1.1678 -0.1814  0.0448
 1866SOL     OW16066   0.086   8.596   3.213 -0.3274  0.1970 -0.0424
 1866SOL    HW116067   0.175   8.557   3.236 -0.1777  0.2256 -0.5614
 1866SOL    HW216068   0.025   8.590   3.292 -0.1404 -0.6167  0.0422
 1867SOL     OW16069   0.703   2.932   0.598 -0.4351 -0.4773 -0.3280
 1867SOL    HW116070   0.756   3.017   0.589 -1.6833  0.2784 -0.6846
 1867SOL    HW216071   0.757   2.864   0.647  0.1807  0.8717  0.8928
 1868SOL     OW16072   4.488   1.784   1.624 -0.2209  0.5463 -0.3603
 1868SOL    HW116073   4.396   1.807   1.593 -0.5056 -0.3363 -0.1760
 1868SOL    HW216074   4.545   1.762   1.545 -0.3703  0.3623 -0.4167
 1869SOL     OW16075   9.297   2.949   3.467 -0.1208  0.9788 -0.1950
 1869SOL    HW116076   9.385   2.965   3.422 -0.1390  1.7490  0.0242
 1869SOL    HW216077   9.307   2.961   3.566 -0.4987  1.2130 -0.1826
 1870SOL     OW16078   9.852   3.561   2.969 -0.0112  0.4140  0.0788
 1870SOL    HW116079   9.757   3.592   2.962 -0.2220  0.0559  1.2932
 1870SOL    HW216080   9.894   3.563   2.878 -0.9300  1.3556 -0.3395
 1871SOL     OW16081   0.304   8.737   2.048 -0.0494 -0.3984  0.0802
 1871SOL    HW116082   0.247   8.818   2.034 -0.2614 -0.4926  0.3825
 1871SOL    HW216083   0.398   8.757   2.019 -0.0634  0.0085  0.3028
 1872SOL     OW16084   0.103   4.960   2.851  0.1298  0.2532  0.0680
 1872SOL    HW116085   0.158   4.985   2.771 -1.8268  1.9750 -0.7662
 1872SOL    HW216086   0.027   5.023   2.861 -0.8866 -1.2193  2.0800
 1873SOL     OW16087   4.380   0.919   0.359  0.2810  0.6045  0.3616
 1873SOL    HW116088   4.346   0.977   0.285 -0.3653  0.8962  0.8721
 1873SOL    HW216089   4.473   0.889   0.339  0.0475  0.5479 -0.6388
 1874SOL     OW16090   1.631   8.294   2.058  0.2571 -0.1309  0.3860
 1874SOL    HW116091   1.724   8.257   2.068 -0.0404 -0.7215  0.9792
 1874SOL    HW216092   1.566   8.218   2.049 -0.2261  0.2749  0.4619
 1875SOL     OW16093   7.898   6.618   2.650 -0.2284  0.0482 -0.3795
 1875SOL    HW116094   7.887   6.716   2.632 -0.1234 -0.3172 -2.5896
 1875SOL    HW216095   7.813   6.582   2.689 -0.2492  1.0185  0.5129
 1876SOL     OW16096   4.319   3.765   4.030  0.1082  0.2453 -0.2362
 1876SOL    HW116097   4.417   3.752   4.015  0.2121  0.2994  0.3722
 1876SOL    HW216098   4.299   3.756   4.128 -0.2232  1.9157 -0.1213
 1877SOL     OW16099   4.695   9.502   0.803  0.2829  0.2451  0.2172
 1877SOL    HW116100   4.751   9.500   0.721 -0.7611 -0.2043 -0.4921
 1877SOL    HW216101   4.709   9.418   0.856  0.7361  0.4076  0.3613
 1878SOL     OW16102   9.103   1.392   3.660 -0.3879 -0.2931  0.4027
 1878SOL    HW116103   9.175   1.351   3.604 -0.4053 -0.2532  0.3522
 1878SOL    HW216104   9.027   1.419   3.602 -0.5264 -0.5175  0.4813
 1879SOL     OW16105   1.615   1.639   2.132 -0.2133 -0.6326  0.3409
 1879SOL    HW116106   1.712   1.645   2.106 -0.1098 -0.2302  0.8119
 1879SOL    HW216107   1.563   1.601   2.055 -0.1098  1.7235 -0.9591
 1880SOL     OW16108   1.273   7.295   0.974 -0.4973  0.2117  0.4876
 1880SOL    HW116109   1.183   7.273   1.012 -0.5348  1.0992  0.9365
 1880SOL    HW216110   1.338   7.308   1.050  0.0152 -0.4721  0.1649
 1881SOL     OW16111   1.556   2.680   0.513 -0.8682  0.4308  0.7980
 1881SOL    HW116112   1.526   2.706   0.604  1.6217 -0.4628  1.9180
 1881SOL    HW216113   1.629   2.741   0.483  1.4861 -1.9985  1.3510
 1882SOL     OW16114   3.201   8.122   2.077  0.0248 -0.2481  0.0321
 1882SOL    HW116115   3.181   8.213   2.115  0.4725 -0.5663  1.0548
 1882SOL    HW216116   3.198   8.054   2.151  2.6283 -0.6395 -0.1538
 1883SOL     OW16117   2.040   7.070   0.739  0.8213 -0.0157 -0.4397
 1883SOL    HW116118   2.077   7.104   0.652  1.6574  1.4463  0.4825
 1883SOL    HW216119   2.109   7.013   0.784  1.2668  1.1612  0.3802
 1884SOL     OW16120   1.027   1.356   0.277 -0.4232  0.2504  0.1680
 1884SOL    HW116121   1.022   1.266   0.320  0.0956 -0.0108 -0.3067
 1884SOL    HW216122   1.071   1.347   0.187 -2.3042  0.6387 -0.8207
 1885SOL     OW16123   3.109   6.130   2.292 -0.1247 -0.0397 -0.2113
 1885SOL    HW116124   3.058   6.073   2.356  0.2064 -0.6717 -0.5054
 1885SOL    HW216125   3.047   6.195   2.248 -0.2490  0.8210  1.2010
 1886SOL     OW16126   7.789   5.268   2.373  0.1926 -0.5759  0.1295
 1886SOL    HW116127   7.767   5.171   2.371  1.1617 -0.8428  1.1670
 1886SOL    HW216128   7.731   5.318   2.309 -1.6002 -1.5770  0.9259
 1887SOL     OW16129   4.101   5.215   1.475 -0.2614  0.2397  0.0722
 1887SOL    HW116130   4.150   5.293   1.514 -1.1505  0.3003  1.1070
 1887SOL    HW216131   4.136   5.130   1.515 -0.5725  0.2393  0.3422
 1888SOL     OW16132   9.772   6.078   0.720 -0.0619 -0.0296  0.2704
 1888SOL    HW116133   9.867   6.078   0.751 -0.6385 -1.8238  2.2108
 1888SOL    HW216134   9.715   6.121   0.790 -0.8712 -0.3779 -0.1782
 1889SOL     OW16135   9.722   3.783   2.114 -0.4680  0.3062  0.0068
 1889SOL    HW116136   9.690   3.863   2.165 -0.5678 -0.0432  0.5047
 1889SOL    HW216137   9.645   3.744   2.062 -0.7625 -0.2818  0.8660
 1890SOL     OW16138   1.360   7.107   2.711  0.7119  0.9231  0.0694
 1890SOL    HW116139   1.404   7.063   2.632 -0.1157 -0.8396  0.5635
 1890SOL    HW216140   1.269   7.139   2.686  0.2668 -0.0481  0.4128
 1891SOL     OW16141   2.763   8.575   3.122 -0.3569 -0.5133  0.1465
 1891SOL    HW116142   2.806   8.665   3.122 -0.4361 -0.4767 -0.2988
 1891SOL    HW216143   2.834   8.505   3.114 -0.0276 -0.6262  3.4053
 1892SOL     OW16144   2.711   6.817   2.908 -0.1846  0.0385 -0.3956
 1892SOL    HW116145   2.710   6.911   2.942 -0.0727  0.1105 -0.5952
 1892SOL    HW216146   2.790   6.769   2.947 -0.8201 -0.2748  0.5286
 1893SOL     OW16147   9.268   6.178   1.470 -0.3864  0.7124  0.1363
 1893SOL    HW116148   9.245   6.199   1.376 -2.0657 -0.4030  0.2941
 1893SOL    HW216149   9.355   6.128   1.473 -0.9724 -0.3652 -0.9005
 1894SOL     OW16150   0.753   5.576   2.273  0.0567  0.0845  0.0122
 1894SOL    HW116151   0.823   5.632   2.230 -0.8532  0.8208 -0.5096
 1894SOL    HW216152   0.707   5.629   2.344  1.2098 -0.9583  1.5829
 1895SOL     OW16153   3.585   1.116   3.741  0.3557 -0.1102  0.3868
 1895SOL    HW116154   3.592   1.098   3.643 -0.6506 -1.9063  0.6376
 1895SOL    HW216155   3.489   1.128   3.767  0.4105 -1.9403  1.5397
 1896SOL     OW16156   2.657   0.253   0.508 -0.1101  0.0272  0.5723
 1896SOL    HW116157   2.579   0.193   0.526 -0.2558 -0.6754 -2.1071
 1896SOL    HW216158   2.741   0.207   0.537 -0.0349 -2.3605 -3.0825
 1897SOL     OW16159   0.467   5.703   1.908 -0.2752  0.0087  0.3041
 1897SOL    HW116160   0.515   5.689   1.994 -0.2346 -1.5484  0.0503
 1897SOL    HW216161   0.534   5.720   1.835 -0.2383  0.0327  0.3436
 1898SOL     OW16162   2.308   4.741   1.950  0.0512 -0.7314 -0.3473
 1898SOL    HW116163   2.386   4.756   2.011 -0.1155  1.1229 -0.5686
 1898SOL    HW216164   2.282   4.827   1.907 -2.1131 -1.3196 -0.2843
 1899SOL     OW16165   1.559   1.199   3.205  0.1338  0.1291 -0.2458
 1899SOL    HW116166   1.578   1.270   3.137  0.1524  0.9110  0.5650
 1899SOL    HW216167   1.477   1.149   3.179  0.7700 -0.3295 -1.4330
 1900SOL     OW16168   8.304   7.609   3.745  0.0882 -0.1164  0.7128
 1900SOL    HW116169   8.283   7.608   3.648  0.5992  0.9512  0.5923
 1900SOL    HW216170   8.224   7.640   3.797  0.0384 -0.0420  0.5900
 1901SOL     OW16171   2.668   1.173   0.643  0.0945  0.0182  0.0177
 1901SOL    HW116172   2.712   1.089   0.614 -0.1929 -0.2715  0.4026
 1901SOL    HW216173   2.726   1.221   0.709  0.7491  0.6801 -1.0359
 1902SOL     OW16174   1.575   3.200   3.887 -0.1191 -0.0066 -0.1064
 1902SOL    HW116175   1.593   3.172   3.981  0.2768  1.3056  0.2115
 1902SOL    HW216176   1.550   3.119   3.833 -0.9471 -0.6820  1.2496
 1903SOL     OW16177   1.278   9.476   2.088  0.1042  0.4918 -0.2659
 1903SOL    HW116178   1.270   9.571   2.118 -1.3519  1.2710 -2.8797
 1903SOL    HW216179   1.326   9.474   2.000 -0.1490 -1.1548 -0.3702
 1904SOL     OW16180   3.451   4.136   0.298 -0.4252 -0.1173 -0.0815
 1904SOL    HW116181   3.491   4.215   0.252  1.9621 -0.7412  0.8409
 1904SOL    HW216182   3.404   4.078   0.231  3.4208 -1.2730 -1.9332
 1905SOL     OW16183   2.030   2.276   1.594 -0.6135 -0.7891 -0.4704
 1905SOL    HW116184   2.084   2.261   1.677 -1.7818 -1.6086  0.1553
 1905SOL    HW216185   1.938   2.305   1.618 -0.7654 -0.3666 -1.5043
 1906SOL     OW16186   0.072   3.067   3.562  0.0951 -0.8170 -0.0796
 1906SOL    HW116187   0.059   2.990   3.499  2.2485 -0.2783 -1.2076
 1906SOL    HW216188   0.099   3.032   3.652  1.4131 -1.3638 -0.6845
 1907SOL     OW16189   3.282   4.134   2.029  0.3311  0.2798 -0.0565
 1907SOL    HW116190   3.346   4.094   1.963  1.2930  0.9839  0.4386
 1907SOL    HW216191   3.269   4.231   2.008  0.0429  0.3259  0.3254
 1908SOL     OW16192   1.554   5.809   2.469  0.0425  0.0176 -0.3008
 1908SOL    HW116193   1.601   5.871   2.531 -0.9571  0.5019 -0.0072
 1908SOL    HW216194   1.619   5.743   2.431  1.2425  1.6510 -1.1524
 1909SOL     OW16195   8.459   4.197   3.835 -0.3169  0.1035  0.0679
 1909SOL    HW116196   8.540   4.255   3.835  0.2132 -0.6377  0.4441
 1909SOL    HW216197   8.477   4.113   3.887 -1.0129 -0.4826 -0.6151
 1910SOL     OW16198   3.162   4.197   0.404 -0.4729 -0.0968 -0.1569
 1910SOL    HW116199   3.125   4.212   0.496 -0.7474 -2.4885  0.1488
 1910SOL    HW216200   3.125   4.266   0.342 -1.5018  0.6025  1.2019
 1911SOL     OW16201   0.232   8.380   1.588  0.4528  0.4604  0.2441
 1911SOL    HW116202   0.256   8.288   1.619 -1.4348  0.1033  0.7118
 1911SOL    HW216203   0.137   8.381   1.558  0.7076  2.0715 -0.5633
 1912SOL     OW16204   2.487   7.841   1.615  0.0495  0.1366 -0.2890
 1912SOL    HW116205   2.393   7.867   1.641 -0.0542 -0.5724  0.0468
 1912SOL    HW216206   2.504   7.747   1.642  0.6250  0.0354 -1.0014
 1913SOL     OW16207   1.991   5.270   1.464 -0.7522  0.5681  0.2140
 1913SOL    HW116208   1.936   5.204   1.515  0.2349 -0.9695 -0.6636
 1913SOL    HW216209   1.961   5.273   1.368  0.0577  0.4220 -0.0518
 1914SOL     OW16210   4.590   8.315   2.174  0.0311  0.2759  0.2069
 1914SOL    HW116211   4.525   8.373   2.126 -0.9311  0.1826  1.3828
 1914SOL    HW216212   4.604   8.350   2.267 -0.0274 -0.9709  0.6904
 1915SOL     OW16213   2.202   2.345   2.416  0.5484  0.6440  0.1669
 1915SOL    HW116214   2.130   2.276   2.413 -0.3198  1.5928 -2.4740
 1915SOL    HW216215   2.169   2.425   2.467 -1.1293  1.8769 -2.6532
 1916SOL     OW16216   9.940   1.015   2.756 -0.1024  0.7026 -0.8540
 1916SOL    HW116217   9.858   1.022   2.700  0.8594 -0.6493 -2.4919
 1916SOL    HW216218   9.916   1.025   2.852 -2.0390  1.2938 -1.3771
 1917SOL     OW16219   4.409   2.809   3.760  0.0513  0.4870  0.1040
 1917SOL    HW116220   4.423   2.722   3.712  1.1140  0.6772  0.0486
 1917SOL    HW216221   4.487   2.826   3.821  0.4481  1.9822 -0.7976
 1918SOL     OW16222   1.077   8.569   2.452 -0.2970  0.2166 -0.6615
 1918SOL    HW116223   1.095   8.653   2.402  1.3177 -0.4703 -1.2580
 1918SOL    HW216224   1.140   8.562   2.529  0.1055 -0.8185 -1.0777
 1919SOL     OW16225   4.191   8.981   1.561 -0.6577 -0.2134 -0.2980
 1919SOL    HW116226   4.097   8.957   1.536 -0.2258 -0.8605 -1.3419
 1919SOL    HW216227   4.191   9.029   1.649 -1.8359 -1.3453  0.3326
 1920SOL     OW16228   3.313   1.970   3.372  0.2478 -0.1591  0.6512
 1920SOL    HW116229   3.343   1.991   3.465  0.8472 -0.5377  0.5437
 1920SOL    HW216230   3.291   2.055   3.324  0.2145  0.0562  1.0418
 1921SOL     OW16231   9.619   7.290   0.710 -0.2622 -0.1522 -0.2533
 1921SOL    HW116232   9.704   7.241   0.687 -0.1235  0.2200 -0.5442
 1921SOL    HW216233   9.636   7.388   0.706 -1.4410 -0.0252 -3.2529
 1922SOL     OW16234   8.824   9.358   3.365 -0.4290  0.1373 -0.3334
 1922SOL    HW116235   8.808   9.260   3.364  0.6910 -0.0604  0.2030
 1922SOL    HW216236   8.916   9.377   3.401 -1.3479  1.4708  1.3731
 1923SOL     OW16237   0.992   2.412   3.724  0.2581  0.7003 -0.0011
 1923SOL    HW116238   1.041   2.427   3.638  1.8901  0.2331  0.8414
 1923SOL    HW216239   1.034   2.467   3.796 -0.0772 -0.1908  0.8765
 1924SOL     OW16240   7.398   3.876   0.504 -0.2887  0.1561  0.7032
 1924SOL    HW116241   7.470   3.939   0.534 -1.1464  2.2734 -1.5488
 1924SOL    HW216242   7.440   3.792   0.470  1.2044  1.7099 -1.3923
 1925SOL     OW16243   9.409   9.913   1.130 -0.4971  0.4067  0.0083
 1925SOL    HW116244   9.409   9.868   1.220 -0.4035  1.0686  0.3370
 1925SOL    HW216245   9.320   9.899   1.086 -0.3385 -0.4314 -0.0585
 1926SOL     OW16246   7.568   9.453   0.151 -0.4181  0.0711  0.6753
 1926SOL    HW116247   7.642   9.439   0.085 -0.7899  1.9405 -0.1831
 1926SOL    HW216248   7.601   9.433   0.243  0.3793 -1.6552  0.0332
 1927SOL     OW16249   3.102   7.252   0.111  0.0943 -0.2680 -0.3415
 1927SOL    HW116250   3.188   7.263   0.060  0.1015 -0.1311 -0.3006
 1927SOL    HW216251   3.026   7.248   0.047  0.0088  0.8653 -0.3167
 1928SOL     OW16252   2.420   6.396   1.337  0.1481 -0.1265 -0.0261
 1928SOL    HW116253   2.363   6.438   1.409 -1.5672 -1.4752 -0.5661
 1928SOL    HW216254   2.372   6.402   1.250  1.5380  0.0835 -0.7786
 1929SOL     OW16255   2.198   9.413   1.945 -0.4062 -0.6181  0.2847
 1929SOL    HW116256   2.280   9.391   1.891 -1.1343  0.3306 -1.2708
 1929SOL    HW216257   2.221   9.480   2.015 -0.0789  0.6212 -0.9777
 1930SOL     OW16258   1.061   7.790   1.840 -0.4215 -0.6839 -0.2229
 1930SOL    HW116259   1.103   7.699   1.840 -0.9990 -0.9516 -0.5384
 1930SOL    HW216260   0.986   7.793   1.774 -1.1025 -0.3084  0.5437
 1931SOL     OW16261   2.934   5.440   2.911  0.2495  0.5932  0.2186
 1931SOL    HW116262   2.961   5.479   2.823  1.0309 -0.4621 -0.0265
 1931SOL    HW216263   2.999   5.469   2.981  0.2913  0.4910  0.2220
 1932SOL     OW16264   1.719   3.920   0.760  0.5416  0.1817 -0.3466
 1932SOL    HW116265   1.707   3.821   0.774 -0.9502  0.3833 -0.1330
 1932SOL    HW216266   1.663   3.949   0.682  2.4072  0.5345 -1.5755
 1933SOL     OW16267   4.015   8.904   0.571 -0.6949 -0.5997 -0.4434
 1933SOL    HW116268   3.924   8.930   0.537 -0.9340 -1.2305 -0.2916
 1933SOL    HW216269   4.009   8.816   0.617 -0.5702  0.6873  2.1167
 1934SOL     OW16270   2.811   0.441   3.683  0.2730 -0.7682 -0.1526
 1934SOL    HW116271   2.883   0.478   3.741 -1.0131  1.9419 -0.2277
 1934SOL    HW216272   2.815   0.484   3.593 -1.2372 -0.8247 -0.2615
 1935SOL     OW16273   4.193   8.644   0.891 -0.4394 -0.1348  0.2038
 1935SOL    HW116274   4.265   8.685   0.836  0.7357 -1.6151  0.6022
 1935SOL    HW216275   4.225   8.557   0.929 -1.9965 -0.2100  1.4136
 1936SOL     OW16276   3.192   4.335   3.646 -0.1357  0.0121 -0.1373
 1936SOL    HW116277   3.093   4.319   3.647 -0.1376  0.1159  1.4569
 1936SOL    HW216278   3.239   4.248   3.629 -0.5027  0.0224 -1.2547
 1937SOL     OW16279   0.455   8.736   0.361  0.7205  0.2933 -0.6224
 1937SOL    HW116280   0.520   8.704   0.291  1.9654 -2.9769  1.8848
 1937SOL    HW216281   0.426   8.658   0.417 -0.9373  2.6932  1.9506
 1938SOL     OW16282   0.730   7.494   0.172  0.0111  0.1074 -0.3828
 1938SOL    HW116283   0.704   7.585   0.205 -0.6797  0.2936 -1.4074
 1938SOL    HW216284   0.825   7.496   0.140 -0.6231  1.0333 -2.3266
 1939SOL     OW16285   3.445   4.904   3.099 -0.2367 -0.1552 -0.2889
 1939SOL    HW116286   3.518   4.855   3.052 -1.2709 -1.0540 -0.9835
 1939SOL    HW216287   3.358   4.856   3.084 -0.9162  0.7330  0.7721
 1940SOL     OW16288   6.223   7.534   2.202 -0.0406  0.0346  0.0028
 1940SOL    HW116289   6.178   7.456   2.158 -0.3995  0.1552  0.1518
 1940SOL    HW216290   6.255   7.507   2.293  1.7339 -0.5486 -0.7785
 1941SOL     OW16291   1.162   8.238   0.640  0.4740  0.0207  0.1829
 1941SOL    HW116292   1.215   8.296   0.703  1.0043  0.6668 -0.8384
 1941SOL    HW216293   1.160   8.281   0.550 -0.6188 -0.7005 -0.1457
 1942SOL     OW16294   1.515   3.273   0.290  0.1789  0.3492 -0.3248
 1942SOL    HW116295   1.439   3.337   0.284  0.8090  1.2382  0.8557
 1942SOL    HW216296   1.514   3.212   0.211 -0.7692  1.4358 -1.1722
 1943SOL     OW16297   1.670   1.332   2.968 -0.0064  0.7506  0.3144
 1943SOL    HW116298   1.648   1.404   2.903 -1.8001  0.4579  0.5777
 1943SOL    HW216299   1.751   1.282   2.937  0.1933  1.7321 -0.7669
 1944SOL     OW16300   1.214   9.770   2.218 -0.2288  0.3711 -0.1303
 1944SOL    HW116301   1.221   9.851   2.160 -1.0764  1.3743  1.1560
 1944SOL    HW216302   1.269   9.782   2.300 -1.7342  0.3727  0.8925
 1945SOL     OW16303   8.880   4.693   3.697  0.5290 -0.0900 -0.2988
 1945SOL    HW116304   8.787   4.672   3.665  0.3680  1.7193 -1.1085
 1945SOL    HW216305   8.879   4.708   3.795  0.0298 -0.5003 -0.2390
 1946SOL     OW16306   2.815   1.850   0.244 -0.4711 -0.1359  0.1975
 1946SOL    HW116307   2.913   1.836   0.260 -1.0757 -1.8262  2.5911
 1946SOL    HW216308   2.794   1.947   0.256  0.7088  0.0645  0.8089
 1947SOL     OW16309   8.267   7.709   2.200  0.2237 -0.7548  0.1581
 1947SOL    HW116310   8.308   7.679   2.286 -0.1307 -0.9000  0.2773
 1947SOL    HW216311   8.214   7.634   2.161 -0.1967 -0.4624  0.1700
 1948SOL     OW16312   2.569   2.869   2.358  0.1435 -0.1279 -0.7062
 1948SOL    HW116313   2.589   2.963   2.386  0.3474  0.0306 -1.3897
 1948SOL    HW216314   2.552   2.814   2.440 -1.8206  0.9144 -0.3702
 1949SOL     OW16315   1.826   7.295   2.766  0.5059  0.2187 -0.1898
 1949SOL    HW116316   1.788   7.205   2.742  1.1695 -0.4511  1.1579
 1949SOL    HW216317   1.753   7.353   2.802 -0.1110  0.5605 -1.9720
 1950SOL     OW16318   8.783   9.827   3.445 -0.4477 -0.2894  0.2794
 1950SOL    HW116319   8.789   9.828   3.345 -0.8716 -0.0427  0.2567
 1950SOL    HW216320   8.875   9.828   3.484 -0.2948  0.3572 -0.0956
 1951SOL     OW16321   2.038   0.180   0.128  0.1214  0.1476  0.1369
 1951SOL    HW116322   2.019   0.112   0.199 -0.5300 -0.0340 -0.2074
 1951SOL    HW216323   2.083   0.259   0.170  1.3853 -0.7170  0.4445
 1952SOL     OW16324   1.255   9.615   0.342 -0.0387  0.2094  0.5461
 1952SOL    HW116325   1.273   9.657   0.253 -1.0547 -1.9245 -0.7093
 1952SOL    HW216326   1.338   9.570   0.375 -0.3662 -1.1991 -0.5508
 1953SOL     OW16327   1.025   7.659   2.684 -0.1923  0.0497  0.0703
 1953SOL    HW116328   1.051   7.666   2.587 -0.4595  0.5081  0.0304
 1953SOL    HW216329   1.103   7.683   2.741 -0.2132  0.3766 -0.0374
 1954SOL     OW16330   0.638   7.288   2.158  0.1926 -0.2241 -0.2907
 1954SOL    HW116331   0.582   7.268   2.078 -0.7746 -0.2211  0.3770
 1954SOL    HW216332   0.617   7.380   2.192  1.7972  0.4192 -1.0154
 1955SOL     OW16333   8.734   3.001   0.036 -0.0952  0.7213 -0.4249
 1955SOL    HW116334   8.647   3.042   0.006 -1.2798 -0.9950  0.5540
 1955SOL    HW216335   8.751   2.918  -0.017  1.0742  1.1515 -0.7443
 1956SOL     OW16336   8.331   9.210   3.343  0.3609 -0.1241 -0.3358
 1956SOL    HW116337   8.249   9.266   3.327  0.3037  0.6329  2.3791
 1956SOL    HW216338   8.412   9.267   3.337  0.4247 -0.1007  0.6309
 1957SOL     OW16339   4.215   0.324   0.128  0.1978 -0.2679 -0.0788
 1957SOL    HW116340   4.274   0.311   0.207  1.4607 -0.0983 -0.9648
 1957SOL    HW216341   4.266   0.371   0.056 -0.7490 -0.9126 -1.1954
 1958SOL     OW16342   3.711   9.567   1.362  0.2163 -0.1056  0.0501
 1958SOL    HW116343   3.809   9.564   1.347  0.3052 -2.2981  0.8029
 1958SOL    HW216344   3.664   9.578   1.274  1.1286  0.9596 -0.3080
 1959SOL     OW16345   0.884   4.257   3.445 -0.1891  0.0390  0.5581
 1959SOL    HW116346   0.938   4.253   3.361 -1.1635  1.8158 -0.1858
 1959SOL    HW216347   0.942   4.287   3.520  0.6374 -1.3293  0.4707
 1960SOL     OW16348   9.597   2.953   0.624 -0.9305 -0.9943 -0.6558
 1960SOL    HW116349   9.498   2.970   0.628 -0.6832  0.7600 -1.4606
 1960SOL    HW216350   9.629   2.964   0.530 -0.1185 -2.5138 -0.5693
 1961SOL     OW16351   1.265   8.198   2.561  0.6037  0.1641  0.4999
 1961SOL    HW116352   1.269   8.208   2.462 -4.4935  2.2816  0.3683
 1961SOL    HW216353   1.298   8.282   2.604  0.7644  0.0666  0.5700
 1962SOL     OW16354   1.132   7.331   2.797 -0.6337 -0.6381  0.2258
 1962SOL    HW116355   1.039   7.366   2.783 -0.4850  0.4328  1.8969
 1962SOL    HW216356   1.134   7.273   2.878  0.2167 -0.4851  0.3146
 1963SOL     OW16357   4.135   2.759   2.730  0.4285  0.2041  0.0940
 1963SOL    HW116358   4.164   2.840   2.782 -1.1453  1.3604 -0.7561
 1963SOL    HW216359   4.142   2.779   2.632  0.8127 -1.0003 -0.1277
 1964SOL     OW16360   2.988   3.530   3.258  0.4111 -0.1546 -0.1771
 1964SOL    HW116361   2.993   3.430   3.251  1.7700 -0.0712 -0.5907
 1964SOL    HW216362   2.942   3.566   3.177  1.4510 -0.3374 -0.8631
 1965SOL     OW16363   8.940   6.078   3.801 -0.6212  0.2386 -0.0955
 1965SOL    HW116364   8.881   6.019   3.746 -0.0793  0.1007 -0.5356
 1965SOL    HW216365   9.029   6.034   3.813 -0.2075  0.9730 -0.4395
 1966SOL     OW16366   1.324   4.288   2.932  0.4798  0.0261 -0.1144
 1966SOL    HW116367   1.293   4.383   2.932 -0.8828 -0.3962 -1.2768
 1966SOL    HW216368   1.333   4.256   3.026  1.3851  1.4289  0.3014
 1967SOL     OW16369   1.780   6.518   2.675 -0.3211  0.7763  0.5179
 1967SOL    HW116370   1.688   6.551   2.653  0.0572  2.1968  0.9734
 1967SOL    HW216371   1.824   6.484   2.592 -0.3229  2.5171 -0.2252
 1968SOL     OW16372   1.966   6.360   3.147  0.7448  0.1838 -0.6746
 1968SOL    HW116373   1.891   6.309   3.189  1.5241 -0.0626  0.4342
 1968SOL    HW216374   1.995   6.434   3.208 -0.8750  2.4683 -2.5941
 1969SOL     OW16375   4.104   4.408   3.709  0.4556 -0.3647 -0.4960
 1969SOL    HW116376   4.191   4.362   3.692  0.5990 -0.0528 -0.6150
 1969SOL    HW216377   4.092   4.482   3.643 -1.1282 -2.0901 -2.2289
 1970SOL     OW16378   2.399   7.360   2.773 -0.2842  0.2926  0.0442
 1970SOL    HW116379   2.301   7.339   2.782 -0.6753  2.3112  0.8720
 1970SOL    HW216380   2.410   7.447   2.726  1.2175 -0.8382 -1.7789
 1971SOL     OW16381   6.564   8.906   2.656 -0.0089 -0.6771 -0.1575
 1971SOL    HW116382   6.472   8.942   2.641  1.0067  1.5292 -1.4298
 1971SOL    HW216383   6.605   8.952   2.735  2.2723  3.1793 -3.3563
 1972SOL     OW16384   7.568   9.466   1.543  0.0620  0.1975  0.2552
 1972SOL    HW116385   7.548   9.386   1.486 -0.7692 -0.9956  2.1964
 1972SOL    HW216386   7.664   9.493   1.530  0.4898 -1.4101 -0.0394
 1973SOL     OW16387   8.062   3.657   3.147 -0.3713  0.9232  0.1938
 1973SOL    HW116388   7.994   3.727   3.170  1.5505  1.7350  3.7804
 1973SOL    HW216389   8.154   3.697   3.150  0.6608 -1.3731  0.6790
 1974SOL     OW16390   4.931   0.013   3.502  0.7694  0.4049  0.0786
 1974SOL    HW116391   4.883  -0.042   3.570 -0.4139  1.1189 -0.1474
 1974SOL    HW216392   4.932  -0.036   3.415  0.4808  0.3571  0.0996
 1975SOL     OW16393   8.461   9.831   1.962 -0.2211 -0.3327 -0.2343
 1975SOL    HW116394   8.490   9.842   2.057  0.5990  1.9209 -0.7189
 1975SOL    HW216395   8.365   9.804   1.958  0.0754 -1.6367  1.2527
 1976SOL     OW16396   6.307   6.608   2.094  0.0165 -0.0518 -0.2421
 1976SOL    HW116397   6.211   6.582   2.094 -0.3933  1.4466  0.0136
 1976SOL    HW216398   6.362   6.531   2.127 -1.0962 -0.8767 -0.2857
 1977SOL     OW16399   0.174   5.403   1.487 -0.0311  0.0962 -0.2215
 1977SOL    HW116400   0.178   5.474   1.417  0.2912  1.1170  0.7966
 1977SOL    HW216401   0.091   5.348   1.474  0.3035 -0.0792 -1.7022
 1978SOL     OW16402   4.050   7.241   3.240  0.0039  0.3303  0.0330
 1978SOL    HW116403   4.143   7.234   3.277  0.9446  2.2178 -1.8863
 1978SOL    HW216404   3.993   7.293   3.304  0.0240 -1.4210  1.5473
 1979SOL     OW16405   4.753   7.640   0.863 -0.1426 -0.1167  0.0028
 1979SOL    HW116406   4.760   7.637   0.764 -0.1735 -2.7288  0.0328
 1979SOL    HW216407   4.752   7.735   0.894 -0.8757  0.7398 -2.5277
 1980SOL     OW16408   7.043   8.080   2.527 -0.2895  0.0080  0.4562
 1980SOL    HW116409   7.052   8.081   2.427 -2.5323  1.3871  0.2303
 1980SOL    HW216410   6.982   8.005   2.554  0.4316 -0.4561  0.8103
 1981SOL     OW16411   9.993   2.905   1.300 -0.3761  0.2468  0.1823
 1981SOL    HW116412   9.909   2.951   1.331 -1.1593  0.2991 -1.9573
 1981SOL    HW216413  10.070   2.967   1.310 -0.9757  1.0371 -0.0608
 1982SOL     OW16414   0.967   5.534   0.885  0.1625 -0.5604  0.6193
 1982SOL    HW116415   0.927   5.442   0.887 -0.6955 -0.1770  1.1880
 1982SOL    HW216416   1.002   5.557   0.976  0.6986 -0.4646  0.3887
 1983SOL     OW16417   3.637   6.732   2.992 -0.0027  0.5061 -0.7795
 1983SOL    HW116418   3.635   6.633   3.009  1.4956  0.5334 -0.4370
 1983SOL    HW216419   3.648   6.749   2.894 -1.3665  0.3552 -0.9793
 1984SOL     OW16420   2.154   8.623   1.462 -0.4383 -0.0297 -0.3443
 1984SOL    HW116421   2.236   8.644   1.514 -0.7879  2.0818 -0.6170
 1984SOL    HW216422   2.075   8.619   1.523 -0.6907  1.4531 -0.5742
 1985SOL     OW16423   4.185   9.892   3.627 -0.5238  0.4450 -0.1407
 1985SOL    HW116424   4.236   9.896   3.541  0.8342  0.2975  0.6560
 1985SOL    HW216425   4.154   9.798   3.643  1.6621 -0.1196  0.9307
 1986SOL     OW16426   8.853   1.141   3.613  0.0603  0.9268 -0.0191
 1986SOL    HW116427   8.882   1.178   3.525  0.2934  1.0163  0.0952
 1986SOL    HW216428   8.927   1.150   3.679  0.5907 -0.8670 -0.3172
 1987SOL     OW16429   0.310   8.462   3.339 -0.3104 -0.0607  0.0076
 1987SOL    HW116430   0.340   8.370   3.366 -0.3458 -0.2206 -0.4914
 1987SOL    HW216431   0.358   8.530   3.394 -0.8965 -0.4042  0.9741
 1988SOL     OW16432   9.300   4.976   2.465  0.8592  0.9122 -0.3851
 1988SOL    HW116433   9.352   5.015   2.389  0.4700  1.0143 -0.6012
 1988SOL    HW216434   9.205   5.007   2.460  1.0145  1.5349  0.5943
 1989SOL     OW16435   0.112   9.238   1.939 -0.1296 -0.4014 -0.1998
 1989SOL    HW116436   0.134   9.248   1.841 -1.0501 -0.9087 -0.4609
 1989SOL    HW216437   0.034   9.295   1.962 -0.8543 -1.4268 -0.0924
 1990SOL     OW16438   2.373   7.477   3.039  0.4888  0.1888 -0.2872
 1990SOL    HW116439   2.336   7.452   2.950 -1.3659  1.0084  0.2318
 1990SOL    HW216440   2.457   7.530   3.028  0.2468  0.3092 -1.5347
 1991SOL     OW16441   3.925   8.946   1.532 -0.0153  0.3390  0.6405
 1991SOL    HW116442   3.869   9.002   1.472  0.4905 -2.2087 -2.3837
 1991SOL    HW216443   3.881   8.857   1.546  1.6409 -0.4441  1.0408
 1992SOL     OW16444   2.751   0.796   3.574 -0.3146  0.9354 -1.0059
 1992SOL    HW116445   2.752   0.697   3.559  0.5725  1.0751 -1.9764
 1992SOL    HW216446   2.657   0.827   3.587 -0.4037 -0.3548  1.5881
 1993SOL     OW16447   3.838   2.023   3.986  0.0979 -0.0962  0.1506
 1993SOL    HW116448   3.926   1.977   3.977  1.0007  0.8602  3.5292
 1993SOL    HW216449   3.776   1.968   4.041 -1.3669 -0.6005 -1.9079
 1994SOL     OW16450   7.577   1.176   2.676  0.1650 -0.4421 -0.4626
 1994SOL    HW116451   7.660   1.177   2.620  0.2556  2.0919 -0.3514
 1994SOL    HW216452   7.498   1.203   2.620  0.1094  1.2051  0.3585
 1995SOL     OW16453   2.120   9.374   2.664  0.2747 -0.4061 -0.2104
 1995SOL    HW116454   2.218   9.354   2.658  0.3378  0.1507 -1.1343
 1995SOL    HW216455   2.106   9.473   2.666 -0.1148 -0.4591  3.0507
 1996SOL     OW16456   0.069   1.279   3.356 -0.3836  0.1463 -0.2744
 1996SOL    HW116457   0.111   1.329   3.431  1.0988  0.1738 -1.1046
 1996SOL    HW216458   0.095   1.182   3.362 -0.4245  0.1125 -0.6310
 1997SOL     OW16459   1.659   0.039   2.292  0.4668  0.1904  0.0820
 1997SOL    HW116460   1.645   0.051   2.391  3.1372  0.2447  0.5004
 1997SOL    HW216461   1.731  -0.029   2.277 -1.0386 -1.0111 -1.8931
 1998SOL     OW16462   0.230   6.644   0.320  0.6314 -0.0857 -0.0585
 1998SOL    HW116463   0.316   6.617   0.364  1.5716 -0.1960 -1.9104
 1998SOL    HW216464   0.185   6.563   0.282 -0.7844 -0.1578  1.7327
 1999SOL     OW16465   8.337   0.541   3.740  0.1651 -0.0670  0.2074
 1999SOL    HW116466   8.424   0.524   3.787 -0.7680  0.4776  2.1704
 1999SOL    HW216467   8.352   0.605   3.664  1.7359 -1.1509 -0.4158
 2000SOL     OW16468   7.720   6.396   2.562  0.4101 -0.2324 -0.6549
 2000SOL    HW116469   7.675   6.415   2.649  1.1767 -0.5323 -0.1939
 2000SOL    HW216470   7.704   6.472   2.499 -0.2133 -0.0559 -0.2788
 2001SOL     OW16471   6.679   9.907   2.350 -0.0841 -0.3042  0.0186
 2001SOL    HW116472   6.696   9.809   2.342  3.6532  0.2533  0.3151
 2001SOL    HW216473   6.685   9.950   2.260 -2.9544 -0.4645 -0.3000
 2002SOL     OW16474   0.671   6.443   2.239  0.7460 -0.6740 -0.3746
 2002SOL    HW116475   0.756   6.471   2.285  1.4678 -1.4785 -1.1887
 2002SOL    HW216476   0.616   6.523   2.219  0.8613 -0.2294  1.0464
 2003SOL     OW16477   0.383   2.647   2.398  0.3186  0.1192 -0.7029
 2003SOL    HW116478   0.452   2.696   2.345 -0.1433  0.8736 -0.6188
 2003SOL    HW216479   0.343   2.709   2.466 -0.5160 -0.2780 -0.8212
 2004SOL     OW16480   9.714   8.185   2.321 -0.6477  0.8367  0.2164
 2004SOL    HW116481   9.641   8.253   2.319  1.2746  3.0587  2.2387
 2004SOL    HW216482   9.803   8.232   2.321  0.7313 -1.6874  1.8119
 2005SOL     OW16483   4.841   9.236   3.145 -0.5449 -0.3157  0.1279
 2005SOL    HW116484   4.797   9.294   3.075 -1.3494 -0.3228  0.6189
 2005SOL    HW216485   4.855   9.290   3.228  1.1701 -0.0683 -0.2952
 2006SOL     OW16486   3.200   8.469   1.798  0.7213 -0.2306  0.3366
 2006SOL    HW116487   3.244   8.441   1.883  1.5064 -2.1306 -0.6570
 2006SOL    HW216488   3.268   8.515   1.740  0.3096  0.6317  0.5314
 2007SOL     OW16489   1.975   0.182   2.441 -0.0451 -0.1589 -0.1174
 2007SOL    HW116490   2.022   0.264   2.473  2.0066 -0.9260 -1.0598
 2007SOL    HW216491   1.945   0.195   2.347  0.9777 -0.7584 -0.5314
 2008SOL     OW16492   0.822   8.414   3.077  0.5703 -0.1621  0.2344
 2008SOL    HW116493   0.798   8.486   3.013 -0.8623 -1.1490 -0.3785
 2008SOL    HW216494   0.782   8.434   3.167  2.4291  1.1294  0.7963
 2009SOL     OW16495   4.448   0.594   1.990  0.5362 -0.2992 -0.1803
 2009SOL    HW116496   4.465   0.691   2.009  2.1635 -0.7195  0.6523
 2009SOL    HW216497   4.368   0.564   2.042  2.1406 -0.2594  2.3986
 2010SOL     OW16498   3.172   2.784   3.436  0.7733  0.1641 -0.6813
 2010SOL    HW116499   3.197   2.733   3.353  0.2972 -0.5629 -0.3842
 2010SOL    HW216500   3.236   2.762   3.509  2.9177  2.9601 -1.6207
 2011SOL     OW16501   3.179   0.580   1.711 -0.0786 -0.1714  0.0289
 2011SOL    HW116502   3.257   0.620   1.757 -0.2963  1.5785 -1.0789
 2011SOL    HW216503   3.094   0.608   1.757 -0.3941  2.8681 -2.2894
 2012SOL     OW16504   3.872   7.072   2.402  0.3021 -0.1440  0.1645
 2012SOL    HW116505   3.900   7.100   2.310  0.3479 -1.3549 -0.1955
 2012SOL    HW216506   3.894   7.145   2.467  0.7677  0.4920 -0.6975
 2013SOL     OW16507   5.189   7.864   2.585 -0.3104  0.3377 -0.0059
 2013SOL    HW116508   5.204   7.906   2.496 -0.1541  0.5848  0.1381
 2013SOL    HW216509   5.117   7.914   2.633  1.4188  1.8180  1.0829
 2014SOL     OW16510   1.442   0.446   1.332  0.4107 -0.0966 -0.0113
 2014SOL    HW116511   1.410   0.475   1.422 -2.3407  0.7858 -1.2284
 2014SOL    HW216512   1.366   0.405   1.281  1.7417  0.0699 -2.1867
 2015SOL     OW16513   9.544   6.773   0.192  0.3697  0.4081 -0.1892
 2015SOL    HW116514   9.522   6.675   0.194 -1.1702  0.7155 -1.4985
 2015SOL    HW216515   9.517   6.815   0.279  0.3727 -0.1881  0.1038
 2016SOL     OW16516   4.578   0.369   3.457 -0.0524 -0.1886  0.1887
 2016SOL    HW116517   4.496   0.326   3.493  0.3217  0.7763  2.2957
 2016SOL    HW216518   4.643   0.299   3.428 -0.8694 -0.9814  0.2883
 2017SOL     OW16519   9.653   4.544   0.411 -0.4432  0.6237 -0.4198
 2017SOL    HW116520   9.623   4.463   0.460  1.5346 -0.6970 -1.3021
 2017SOL    HW216521   9.583   4.572   0.346 -0.5719 -1.2437 -1.1038
 2018SOL     OW16522   9.475   2.590   1.340 -0.2993 -0.2068 -0.2043
 2018SOL    HW116523   9.467   2.689   1.337  1.8877  0.0340  1.0098
 2018SOL    HW216524   9.388   2.550   1.370 -0.6297  1.4611  1.0788
 2019SOL     OW16525   6.877   7.316   2.569 -0.0215 -0.4740  0.2039
 2019SOL    HW116526   6.848   7.333   2.663 -1.5182  0.3745 -0.3887
 2019SOL    HW216527   6.893   7.403   2.523  0.4636 -0.8796 -0.4045
 2020SOL     OW16528   9.175   0.994   0.672 -0.3825 -0.5527  0.1983
 2020SOL    HW116529   9.095   1.051   0.691 -0.8358 -0.9951 -0.3532
 2020SOL    HW216530   9.212   1.018   0.582  0.0648 -0.3944  0.4251
 2021SOL     OW16531   8.643   8.269   3.835  0.3449  0.3421 -0.6347
 2021SOL    HW116532   8.546   8.246   3.840  0.4998 -0.0747  0.7462
 2021SOL    HW216533   8.658   8.340   3.767 -1.0846  1.1910 -0.0668
 2022SOL     OW16534   5.164   9.678   2.072 -1.1619 -0.2536 -0.3733
 2022SOL    HW116535   5.220   9.691   1.990 -2.3571  1.2504 -0.9998
 2022SOL    HW216536   5.079   9.631   2.047 -1.9074  0.9600 -0.1803
 2023SOL     OW16537   9.700   6.788   0.478  0.2934  0.3338  0.0391
 2023SOL    HW116538   9.605   6.818   0.467  0.4569  0.8689  0.0783
 2023SOL    HW216539   9.746   6.794   0.389  0.0108 -0.9202 -0.2092
 2024SOL     OW16540   1.888   1.512   3.905  0.3461  0.5464  0.4489
 2024SOL    HW116541   1.888   1.426   3.855 -2.0430 -0.1233  1.5097
 2024SOL    HW216542   1.859   1.586   3.845  1.8447  0.5331 -0.3120
 2025SOL     OW16543   1.772   3.666   0.289 -0.1010 -0.6967 -0.0503
 2025SOL    HW116544   1.776   3.588   0.352  1.2614 -1.0534 -0.5695
 2025SOL    HW216545   1.682   3.708   0.295  0.1752 -0.3656  2.5789
 2026SOL     OW16546   9.752   4.658   0.649  0.2290 -0.3499 -0.2343
 2026SOL    HW116547   9.659   4.691   0.666  0.2528 -0.1412 -0.5091
 2026SOL    HW216548   9.754   4.606   0.564 -0.5138 -3.9184  1.8048
 2027SOL     OW16549   9.655   4.354   3.483 -0.2141 -0.1474 -0.5540
 2027SOL    HW116550   9.576   4.303   3.517 -0.7230  1.2360  0.3594
 2027SOL    HW216551   9.624   4.439   3.440  0.7253  0.0322 -0.8981
 2028SOL     OW16552   9.210   9.463   1.205 -0.6360  0.3682 -0.1646
 2028SOL    HW116553   9.204   9.513   1.291  2.3472 -2.1830  1.6469
 2028SOL    HW216554   9.280   9.505   1.147 -1.6083  1.2071 -0.7444
 2029SOL     OW16555   0.686   0.113   3.104  0.3423 -0.0822  0.4600
 2029SOL    HW116556   0.637   0.163   3.175 -3.3686 -0.2845 -1.8319
 2029SOL    HW216557   0.735   0.036   3.145  0.1583  1.1454  3.0606
 2030SOL     OW16558   2.533   2.766   2.600 -0.3105  0.2094  0.3073
 2030SOL    HW116559   2.509   2.674   2.631 -0.4429 -0.0077 -0.4263
 2030SOL    HW216560   2.611   2.799   2.652 -0.2998 -0.2937  0.6177
 2031SOL     OW16561   1.482   2.172   1.984  0.3321 -0.1084  0.7915
 2031SOL    HW116562   1.560   2.185   1.922  0.2350 -1.0609  0.4665
 2031SOL    HW216563   1.474   2.076   2.008 -1.2315 -0.1559  0.1690
 2032SOL     OW16564   3.115   1.156   3.716  0.2248 -0.2187  0.1566
 2032SOL    HW116565   3.064   1.193   3.638 -0.3667 -1.6436 -0.1432
 2032SOL    HW216566   3.144   1.063   3.696  1.7782  0.0909  0.8767
 2033SOL     OW16567   3.074   1.478   3.954  0.0184 -0.1303  0.3165
 2033SOL    HW116568   3.022   1.411   4.007  1.2233 -1.4659 -0.1579
 2033SOL    HW216569   3.164   1.441   3.932 -0.0674  0.8243 -1.7797
 2034SOL     OW16570   0.226   3.499   1.871  0.2158  0.1183 -0.4343
 2034SOL    HW116571   0.215   3.570   1.940 -0.1479  0.4377 -0.8167
 2034SOL    HW216572   0.175   3.417   1.899  0.3209  0.1414 -0.1768
 2035SOL     OW16573   0.045   3.780   2.739  0.1333 -0.2379 -0.1616
 2035SOL    HW116574  -0.009   3.865   2.740  1.2099  0.5031 -2.2400
 2035SOL    HW216575   0.134   3.797   2.782  2.0460  0.9228 -4.3640
 2036SOL     OW16576   1.945   6.214   0.709  0.2250  0.2341 -1.0434
 2036SOL    HW116577   1.892   6.229   0.793  1.6514 -1.0376  0.1015
 2036SOL    HW216578   1.965   6.302   0.667 -1.2953  0.8338 -0.5472
 2037SOL     OW16579   4.972   7.952   1.335  0.5572  0.0020  0.4806
 2037SOL    HW116580   4.879   7.925   1.307 -0.0843  0.1352  2.3692
 2037SOL    HW216581   4.985   8.050   1.320 -0.6043  0.5362  2.7482
 2038SOL     OW16582   2.333   2.563   1.354  0.5571  0.2499 -0.1976
 2038SOL    HW116583   2.368   2.656   1.344 -0.8134  0.6615 -1.2895
 2038SOL    HW216584   2.244   2.565   1.399  0.3008 -0.4936 -0.6528
 2039SOL     OW16585   9.231   6.517   1.117 -0.5288  0.0512  0.3488
 2039SOL    HW116586   9.286   6.560   1.189  2.2131  0.0837 -1.6693
 2039SOL    HW216587   9.163   6.582   1.084  0.6582  1.3142  0.3441
 2040SOL     OW16588   1.497   0.429   2.402 -0.5112  0.3266 -0.0551
 2040SOL    HW116589   1.506   0.360   2.474  2.1952  1.0723  0.3923
 2040SOL    HW216590   1.412   0.414   2.351 -0.1302 -3.1507  0.2254
 2041SOL     OW16591   2.611   4.559   3.843 -0.3468 -0.5337  0.0464
 2041SOL    HW116592   2.606   4.602   3.753 -0.4422  0.2417  0.4190
 2041SOL    HW216593   2.552   4.609   3.907  0.0340 -0.8356  0.6386
 2042SOL     OW16594   9.519   6.439   1.043  0.2620  0.0629 -0.7807
 2042SOL    HW116595   9.426   6.475   1.038  0.8275  1.8073  0.6278
 2042SOL    HW216596   9.562   6.442   0.953 -1.1070 -0.9173 -1.4678
 2043SOL     OW16597   9.930   3.892   0.064 -0.7626 -0.2871  0.2476
 2043SOL    HW116598   9.937   3.989   0.090 -1.7697  0.0344 -0.6261
 2043SOL    HW216599   9.988   3.874  -0.015 -3.2720  0.4861 -1.8781
 2044SOL     OW16600   2.805   2.902   1.839 -0.3710 -0.2318  0.3814
 2044SOL    HW116601   2.811   2.809   1.804 -2.2786 -1.3431  2.8501
 2044SOL    HW216602   2.859   2.910   1.923  1.7014  1.5724 -1.0507
 2045SOL     OW16603   2.616   6.758   2.447 -0.5164 -0.3699  0.3325
 2045SOL    HW116604   2.710   6.788   2.433 -0.4551  0.0950  1.6209
 2045SOL    HW216605   2.617   6.663   2.481 -0.6499 -1.3772 -2.3582
 2046SOL     OW16606   7.939   9.377   1.611 -0.3852 -0.2986 -0.9311
 2046SOL    HW116607   7.881   9.352   1.689 -1.8806 -0.5492 -2.1156
 2046SOL    HW216608   8.035   9.357   1.634 -0.8337 -0.6775  0.7145
 2047SOL     OW16609   8.016   2.249   3.457 -0.3033  0.1886 -0.0174
 2047SOL    HW116610   8.060   2.169   3.499 -1.1670 -0.9408 -1.2162
 2047SOL    HW216611   7.938   2.277   3.513 -1.5584 -1.4220 -0.9355
 2048SOL     OW16612   0.129   7.275   2.882  0.6481 -0.4721  0.1568
 2048SOL    HW116613   0.052   7.266   2.945  0.8812 -1.4375  0.3203
 2048SOL    HW216614   0.115   7.215   2.803  1.2701 -0.7333  0.2352
 2049SOL     OW16615   3.636   4.479   1.336  0.0087 -0.0262  0.0731
 2049SOL    HW116616   3.665   4.383   1.328 -1.2924 -0.5195  1.0294
 2049SOL    HW216617   3.660   4.528   1.252 -3.5089 -2.3645 -2.4802
 2050SOL     OW16618   6.689   7.659   2.422 -0.2637  0.4049  0.4109
 2050SOL    HW116619   6.674   7.718   2.342  0.7419  1.1586  0.7717
 2050SOL    HW216620   6.619   7.679   2.491 -0.1013  0.9802  0.4133
 2051SOL     OW16621   2.486   2.320   3.668 -0.3129  0.1575 -0.2682
 2051SOL    HW116622   2.428   2.280   3.597  0.6865 -0.2546 -0.8586
 2051SOL    HW216623   2.546   2.389   3.628 -0.1308  0.3243  0.2758
 2052SOL     OW16624   8.266   7.272   2.240 -0.0666 -0.4273 -0.1056
 2052SOL    HW116625   8.196   7.342   2.227 -0.4955 -0.6843  0.7808
 2052SOL    HW216626   8.316   7.259   2.155 -0.3213  0.5939 -0.4199
 2053SOL     OW16627   3.599   4.419   3.761  0.5145 -0.3805  0.1262
 2053SOL    HW116628   3.613   4.516   3.779 -1.3937  0.1535 -1.1360
 2053SOL    HW216629   3.529   4.384   3.824 -1.0251 -0.1883 -1.4494
 2054SOL     OW16630   4.477   1.216   1.697 -0.4655 -0.7041  0.6063
 2054SOL    HW116631   4.551   1.163   1.739  0.4212  0.9181  1.1267
 2054SOL    HW216632   4.399   1.219   1.759  0.4245  0.7276  1.6959
 2055SOL     OW16633   3.483   3.133   1.366  0.0879  0.4147  0.3574
 2055SOL    HW116634   3.481   3.037   1.393 -1.1374  0.7297  1.4123
 2055SOL    HW216635   3.578   3.161   1.351  0.5322 -0.6629  1.1051
 2056SOL     OW16636   3.536   4.017   3.326  0.5568  0.6259  0.9124
 2056SOL    HW116637   3.595   4.080   3.376  0.8907  0.3890  0.8197
 2056SOL    HW216638   3.552   4.027   3.228  1.3937 -0.3629  0.9412
 2057SOL     OW16639   1.109   5.907   0.471  0.6061  0.0219 -0.0881
 2057SOL    HW116640   1.083   5.810   0.464  0.7348  0.0468 -1.0416
 2057SOL    HW216641   1.080   5.943   0.559  1.7519 -1.2576  0.8379
 2058SOL     OW16642   3.971   3.046   3.671  0.1709  0.2389  0.3074
 2058SOL    HW116643   4.041   3.048   3.743 -1.0370  0.6403  1.4830
 2058SOL    HW216644   4.000   2.983   3.599  1.3844 -0.1883  1.1488
 2059SOL     OW16645   8.056   1.801   3.373 -0.3431 -0.3634 -0.0780
 2059SOL    HW116646   8.028   1.730   3.438  0.6573 -1.3791 -0.7531
 2059SOL    HW216647   8.151   1.787   3.346 -0.3964  0.7317 -0.8854
 2060SOL     OW16648   0.980   4.265   1.860  0.4021 -0.0438  0.0571
 2060SOL    HW116649   0.886   4.238   1.880 -0.3064  1.2300 -1.4169
 2060SOL    HW216650   0.980   4.330   1.784  2.3943  0.7043  0.6660
 2061SOL     OW16651   8.364   5.149   3.580 -1.0672  0.4307 -0.3204
 2061SOL    HW116652   8.302   5.070   3.577 -0.8954  0.2868 -0.0549
 2061SOL    HW216653   8.428   5.144   3.503 -1.8334  0.9448 -0.9926
 2062SOL     OW16654   9.287   3.471   3.604 -0.2350 -0.4368 -0.3377
 2062SOL    HW116655   9.361   3.527   3.642  0.3878 -1.0222 -0.6598
 2062SOL    HW216656   9.199   3.504   3.636  0.2057 -0.0833  0.5113
 2063SOL     OW16657   9.550   4.283   2.478  0.2768  0.0339 -0.1440
 2063SOL    HW116658   9.492   4.262   2.556  0.7365  1.0639  0.4824
 2063SOL    HW216659   9.646   4.286   2.507  0.6416 -1.4201 -1.1234
 2064SOL     OW16660   4.609   9.154   1.737  0.0407  0.1995  0.0913
 2064SOL    HW116661   4.692   9.208   1.752  1.7031 -2.0786 -0.6525
 2064SOL    HW216662   4.597   9.090   1.812  0.5103 -1.3917 -1.1693
 2065SOL     OW16663   2.227   3.143   1.176 -0.4809  0.3888 -0.0679
 2065SOL    HW116664   2.274   3.182   1.097 -0.5971  1.3023  0.3039
 2065SOL    HW216665   2.273   3.059   1.205  1.9127  2.0989  1.2760
 2066SOL     OW16666   7.804   8.743   3.612  0.1098  0.3543 -0.3696
 2066SOL    HW116667   7.903   8.737   3.600  0.0302  0.1070 -0.9266
 2066SOL    HW216668   7.760   8.753   3.523 -0.3726  0.4124 -0.1300
 2067SOL     OW16669   0.164   9.872   0.951  0.5723  0.4185 -0.2278
 2067SOL    HW116670   0.112   9.851   1.034 -0.5685  0.2682 -0.9679
 2067SOL    HW216671   0.204   9.788   0.915 -0.4303  0.1844 -0.8170
 2068SOL     OW16672   1.349   7.514   0.469  0.3194  0.6113  0.0523
 2068SOL    HW116673   1.397   7.445   0.523  0.6546  0.5365 -0.3382
 2068SOL    HW216674   1.407   7.544   0.394  0.7185  2.3087  0.9939
 2069SOL     OW16675   4.111   7.816   0.856 -0.0044 -0.1018  0.0912
 2069SOL    HW116676   4.133   7.762   0.937 -0.0893  0.1858  0.3024
 2069SOL    HW216677   4.031   7.873   0.874  1.1074  1.3736  0.4292
 2070SOL     OW16678   4.282   9.845   0.766 -0.0399 -0.3480  0.4852
 2070SOL    HW116679   4.353   9.775   0.763  3.2153  2.7807  1.9024
 2070SOL    HW216680   4.229   9.835   0.850 -0.4890 -1.8846  0.0409
 2071SOL     OW16681   0.411   6.912   0.597 -0.3070 -0.1794 -0.8600
 2071SOL    HW116682   0.345   6.839   0.618  0.3707 -0.3357  0.7501
 2071SOL    HW216683   0.401   6.938   0.501 -0.7254 -2.2294 -1.4104
 2072SOL     OW16684   3.830   8.391   4.023 -0.0219  0.0897  0.1035
 2072SOL    HW116685   3.759   8.425   3.961 -2.1558  0.1748  2.5389
 2072SOL    HW216686   3.828   8.444   4.108 -0.0967 -2.8651  1.9947
 2073SOL     OW16687   3.790   3.811   2.080 -0.0150 -0.0605  0.0263
 2073SOL    HW116688   3.739   3.887   2.041 -1.2400 -0.2664  1.1827
 2073SOL    HW216689   3.746   3.782   2.165  1.9720 -0.3141  0.9898
 2074SOL     OW16690   2.143   2.790   1.570  0.2416  0.3766  0.1473
 2074SOL    HW116691   2.110   2.701   1.539  2.3185 -0.7066  0.9238
 2074SOL    HW216692   2.223   2.777   1.628 -0.6915  2.6552  2.0150
 2075SOL     OW16693   4.427   3.296   2.039 -0.0307  0.1493 -0.5733
 2075SOL    HW116694   4.475   3.209   2.046 -4.1891 -2.2458 -0.0155
 2075SOL    HW216695   4.420   3.323   1.943 -0.1806 -0.9958 -0.8903
 2076SOL     OW16696   3.314   2.463   0.999  0.1962  0.0465 -0.1966
 2076SOL    HW116697   3.348   2.548   1.041 -0.7973  0.3580 -0.0006
 2076SOL    HW216698   3.390   2.415   0.956  0.4971  1.9371 -1.8677
 2077SOL     OW16699   1.050   3.096   2.219  0.3825  0.1931  0.4017
 2077SOL    HW116700   1.131   3.058   2.176  0.2168 -0.7219  0.8890
 2077SOL    HW216701   1.076   3.143   2.304  0.2079 -1.5336  1.4270
 2078SOL     OW16702   4.413   3.183   0.351 -0.2020  0.0488  0.0243
 2078SOL    HW116703   4.512   3.197   0.357 -0.1932 -0.3651  0.8221
 2078SOL    HW216704   4.392   3.132   0.268  0.0115  2.4282 -1.5480
 2079SOL     OW16705   1.850   4.951   0.064  0.2699 -0.5341  0.2862
 2079SOL    HW116706   1.830   4.936   0.160 -0.1036  0.0275  0.2993
 2079SOL    HW216707   1.948   4.969   0.053  0.3468 -0.8138  0.5352
 2080SOL     OW16708   1.501   4.731   3.819 -0.0134 -0.7519  0.3728
 2080SOL    HW116709   1.511   4.631   3.818 -1.6894 -0.9818  2.6312
 2080SOL    HW216710   1.419   4.756   3.871 -0.0944  1.7777 -0.9097
 2081SOL     OW16711   3.279   6.213   1.397 -0.6264  0.1106  0.1210
 2081SOL    HW116712   3.205   6.148   1.415 -1.4536  0.9677 -0.1168
 2081SOL    HW216713   3.323   6.239   1.483  0.4930 -1.6622  0.1022
 2082SOL     OW16714   8.191   3.942   3.357 -0.3320  0.5071  0.0562
 2082SOL    HW116715   8.172   4.009   3.285 -1.1220 -1.2685 -1.4436
 2082SOL    HW216716   8.111   3.884   3.371  0.4074 -0.2773  1.1530
 2083SOL     OW16717   8.431   2.256   1.992 -0.4779 -0.2590 -0.8743
 2083SOL    HW116718   8.486   2.312   1.930 -0.9394 -0.1441 -1.1852
 2083SOL    HW216719   8.376   2.316   2.051  2.5659 -0.2451  2.1129
 2084SOL     OW16720   0.951   4.039   2.468 -0.5939  0.0819  0.0107
 2084SOL    HW116721   0.957   4.136   2.495  0.6623  0.2287 -0.7756
 2084SOL    HW216722   1.025   3.988   2.512 -1.9503 -0.7644  1.3676
 2085SOL     OW16723   8.718   8.688   3.190  0.9375 -0.6672 -0.2470
 2085SOL    HW116724   8.689   8.781   3.210  1.1669 -0.6315 -0.0833
 2085SOL    HW216725   8.642   8.638   3.148  0.3745 -0.8268  0.9610
 2086SOL     OW16726   1.638   9.519   1.745  0.2501  0.3937  0.2381
 2086SOL    HW116727   1.571   9.567   1.689  0.0788  1.2226  1.1419
 2086SOL    HW216728   1.688   9.454   1.688 -0.7029  0.4067 -0.6295
 2087SOL     OW16729   8.853   0.054   0.046  0.0317  0.9705  0.1982
 2087SOL    HW116730   8.930   0.019   0.099  0.2375  1.8238  0.4633
 2087SOL    HW216731   8.871   0.041  -0.052  0.3836  0.9089  0.2722
 2088SOL     OW16732   3.738   4.325   3.088  0.0685 -0.1834  0.0965
 2088SOL    HW116733   3.638   4.318   3.096  0.0907  0.0012  0.5553
 2088SOL    HW216734   3.774   4.372   3.169  0.6740 -1.4873  0.5954
 2089SOL     OW16735   2.176   7.116   1.827 -0.0608  0.1296 -0.7596
 2089SOL    HW116736   2.244   7.043   1.820  0.8276  0.8898 -0.1969
 2089SOL    HW216737   2.170   7.147   1.921 -1.1479  0.1263 -0.8174
 2090SOL     OW16738   3.460   3.547   4.032 -0.5375  0.3407 -0.4296
 2090SOL    HW116739   3.550   3.513   4.062 -0.5323 -0.5930 -1.4499
 2090SOL    HW216740   3.437   3.630   4.082  1.2513  1.0201 -0.6907
 2091SOL     OW16741   0.284   9.384   1.015  0.2667 -0.0450  0.2960
 2091SOL    HW116742   0.208   9.430   1.061  0.5293  0.4627  0.2272
 2091SOL    HW216743   0.249   9.311   0.957 -0.1563  0.0745  0.4030
 2092SOL     OW16744   6.277   9.121   3.118 -0.4763  0.4902  0.2949
 2092SOL    HW116745   6.323   9.046   3.165 -0.6608  0.5849  0.6251
 2092SOL    HW216746   6.251   9.091   3.026 -0.3810  0.2102  0.3585
 2093SOL     OW16747   7.933   1.719   0.665  0.7916  0.6670  0.4821
 2093SOL    HW116748   8.009   1.677   0.616  0.0853 -0.5777  0.4263
 2093SOL    HW216749   7.936   1.692   0.761 -0.1985 -0.2980  0.2545
 2094SOL     OW16750   2.513   4.277   2.911  0.5751 -0.7130  0.0905
 2094SOL    HW116751   2.444   4.209   2.886 -0.4964  0.4907 -0.2950
 2094SOL    HW216752   2.538   4.265   3.007  1.6764 -2.7436 -0.4204
 2095SOL     OW16753   0.410   2.311   0.409  0.0363  0.1214 -0.3253
 2095SOL    HW116754   0.381   2.264   0.326 -1.2118  1.2778 -0.5614
 2095SOL    HW216755   0.334   2.364   0.446 -0.0160 -1.8631  2.6208
 2096SOL     OW16756   9.894   7.915   0.003 -0.1250  0.0180  0.0339
 2096SOL    HW116757   9.991   7.931  -0.014  0.1513 -1.7306 -0.0679
 2096SOL    HW216758   9.877   7.914   0.102  0.3681 -1.9699  0.1117
 2097SOL     OW16759   2.550   9.446   0.459  0.2650 -0.2636  0.6443
 2097SOL    HW116760   2.598   9.360   0.470  0.3458 -0.4661 -1.1965
 2097SOL    HW216761   2.464   9.431   0.410  0.8074  0.8480 -0.6848
 2098SOL     OW16762   3.041   0.736   3.150  0.3296  0.2071  0.5580
 2098SOL    HW116763   3.019   0.779   3.063 -0.6156  0.7687  1.0642
 2098SOL    HW216764   3.129   0.690   3.143 -0.1596 -0.5411 -0.9698
 2099SOL     OW16765   3.650   6.800   2.103 -0.8280  0.3167  0.3735
 2099SOL    HW116766   3.693   6.825   2.189 -0.6106 -0.3061  0.4402
 2099SOL    HW216767   3.557   6.839   2.100 -0.0652  2.1576 -0.0239
 2100SOL     OW16768   3.945   7.909   3.078 -0.1524 -0.0016  0.4904
 2100SOL    HW116769   3.907   7.856   3.002  1.6809 -1.9964  0.9005
 2100SOL    HW216770   4.041   7.928   3.059  0.3177 -0.5021  2.2709
 2101SOL     OW16771   1.942   2.406   2.723  0.3773  0.2115  0.0111
 2101SOL    HW116772   1.966   2.329   2.782  1.4742  0.7236  0.2447
 2101SOL    HW216773   1.874   2.463   2.769  0.3185 -0.0587  0.2600
 2102SOL     OW16774   3.985   9.471   3.840 -0.5566 -0.2549 -0.2177
 2102SOL    HW116775   3.961   9.378   3.811 -1.2751 -0.3346  0.6296
 2102SOL    HW216776   3.902   9.525   3.849 -0.3017 -0.0770  1.1896
 2103SOL     OW16777   0.227   2.473   2.221  0.4151  0.2735 -0.1206
 2103SOL    HW116778   0.281   2.513   2.296  0.5833  0.4597 -0.3400
 2103SOL    HW216779   0.150   2.421   2.259 -0.4152  1.6722  0.1399
 2104SOL     OW16780   0.906   0.361   1.714 -0.3501 -0.0540 -0.3404
 2104SOL    HW116781   0.897   0.261   1.711 -1.0000  0.0309 -2.1141
 2104SOL    HW216782   0.817   0.402   1.730 -0.5660  0.3098 -2.3278
 2105SOL     OW16783   3.330   3.812   0.395  0.4025  0.1985  0.4659
 2105SOL    HW116784   3.238   3.777   0.411  0.5725  0.1890  1.4127
 2105SOL    HW216785   3.360   3.866   0.473  0.2865  2.1626 -0.8186
 2106SOL     OW16786   8.430   1.814   0.319  0.2792 -0.3610 -0.4687
 2106SOL    HW116787   8.395   1.907   0.308  0.9469  0.3328  2.6874
 2106SOL    HW216788   8.353   1.751   0.332 -0.0867  0.1400 -0.1740
 2107SOL     OW16789   1.778   2.874   3.158  0.1625  0.0734  0.0081
 2107SOL    HW116790   1.756   2.794   3.214  0.6519  0.2522  0.4554
 2107SOL    HW216791   1.874   2.898   3.171  0.1537  0.4072 -0.5438
 2108SOL     OW16792   3.113   8.493   1.378 -0.1690 -0.3706 -0.2024
 2108SOL    HW116793   3.032   8.437   1.396  1.1520 -2.0622  0.5928
 2108SOL    HW216794   3.167   8.452   1.305  1.3366 -0.7277  1.0777
 2109SOL     OW16795   1.325   0.798   2.048  0.1224 -0.3534 -1.0541
 2109SOL    HW116796   1.337   0.710   2.002  1.4423 -0.9148  0.3553
 2109SOL    HW216797   1.406   0.820   2.102 -1.1263  0.6095  0.4867
 2110SOL     OW16798   8.495   2.758   3.777 -0.1738 -0.7319 -0.3539
 2110SOL    HW116799   8.431   2.716   3.841 -0.3048 -2.5145 -1.6223
 2110SOL    HW216800   8.469   2.734   3.684  1.0078  0.4320 -0.9911
 2111SOL     OW16801   2.706   4.177   3.227  0.1452  0.1776 -0.6536
 2111SOL    HW116802   2.794   4.225   3.235  0.0134  0.5181 -1.2222
 2111SOL    HW216803   2.722   4.084   3.193  0.3705 -0.0747  0.1269
 2112SOL     OW16804   3.137   7.459   3.735  0.4630  0.2640 -0.4782
 2112SOL    HW116805   3.158   7.411   3.820 -0.4500  1.6422  0.5391
 2112SOL    HW216806   3.086   7.543   3.755  0.3524  0.6778 -2.3720
 2113SOL     OW16807   3.311   7.405   3.522 -0.2364 -0.0325 -0.2986
 2113SOL    HW116808   3.324   7.497   3.485  3.2049 -0.3953 -0.1573
 2113SOL    HW216809   3.257   7.410   3.607 -1.8714  1.5802 -1.3970
 2114SOL     OW16810   3.342   5.780   3.350  0.4994 -0.2683  0.2271
 2114SOL    HW116811   3.409   5.724   3.399  1.0344  0.1372 -0.0386
 2114SOL    HW216812   3.358   5.876   3.368  0.4321 -0.1328 -0.3968
 2115SOL     OW16813   3.911   8.918   0.124 -0.3405  0.3744 -0.4322
 2115SOL    HW116814   3.942   8.851   0.056  1.0428 -0.0235  0.5524
 2115SOL    HW216815   3.909   9.009   0.083  0.5323  0.1485 -1.0007
 2116SOL     OW16816   0.543   7.158   1.923 -0.2107 -0.3682  0.2035
 2116SOL    HW116817   0.556   7.079   1.863  1.2662 -0.0101  0.0331
 2116SOL    HW216818   0.480   7.134   1.997  0.1345 -1.6708  0.0840
 2117SOL     OW16819   2.136   2.678   3.933  0.3912 -0.6869 -0.0372
 2117SOL    HW116820   2.219   2.636   3.895 -0.8091 -1.7724 -1.5024
 2117SOL    HW216821   2.095   2.615   4.000  0.0329 -0.7145 -0.2851
 2118SOL     OW16822   8.067   3.133   3.899 -0.0806 -0.1239 -0.3226
 2118SOL    HW116823   8.046   3.221   3.943 -1.6699 -0.8435  0.4210
 2118SOL    HW216824   8.164   3.130   3.875  0.3644  1.1482  1.1946
 2119SOL     OW16825   8.291   2.284   2.857 -0.3988  0.1056  0.2831
 2119SOL    HW116826   8.202   2.279   2.811 -0.8700  0.3389  1.1498
 2119SOL    HW216827   8.354   2.219   2.815 -0.5731  0.8880 -1.2031
 2120SOL     OW16828   3.301   9.068   2.215 -0.4803 -0.0862 -0.2371
 2120SOL    HW116829   3.374   9.051   2.281  0.3405  2.8230 -0.3395
 2120SOL    HW216830   3.335   9.051   2.122 -0.2413  0.3330 -0.2236
 2121SOL     OW16831   9.949   1.159   2.131 -0.6776 -0.0610  0.9635
 2121SOL    HW116832   9.891   1.233   2.095 -0.3753 -0.0509  0.4975
 2121SOL    HW216833   9.891   1.092   2.179 -1.2290 -0.6329 -0.4724
 2122SOL     OW16834   0.746   2.232   0.292  0.0968  0.0642  0.2360
 2122SOL    HW116835   0.818   2.301   0.283  0.2499 -0.2178 -0.7776
 2122SOL    HW216836   0.656   2.276   0.287  0.1841  0.3857  1.2589
 2123SOL     OW16837   9.745   9.419   0.270  0.6070 -0.8813 -0.4053
 2123SOL    HW116838   9.690   9.502   0.263  1.7681 -0.2293 -1.9409
 2123SOL    HW216839   9.701   9.346   0.217  1.6291 -0.1193 -2.3565
 2124SOL     OW16840   1.692   7.751   0.022  0.1216  0.2384 -0.0305
 2124SOL    HW116841   1.713   7.655   0.003 -1.0151 -0.4426  2.0323
 2124SOL    HW216842   1.598   7.771  -0.008 -0.0891  0.3591  0.6977
 2125SOL     OW16843   2.046   4.865   0.750 -0.7397 -0.2231  0.2762
 2125SOL    HW116844   2.078   4.818   0.832  2.0592 -0.5374 -0.9508
 2125SOL    HW216845   2.087   4.823   0.669  0.9092  3.5107 -0.9392
 2126SOL     OW16846   9.700   2.832   3.044  0.2964  0.3611 -0.6367
 2126SOL    HW116847   9.630   2.761   3.057  0.9085 -0.9026 -3.6938
 2126SOL    HW216848   9.790   2.789   3.044  0.7605  1.3448 -1.1198
 2127SOL     OW16849   7.143   6.932   2.142  0.2524 -0.3614  0.2797
 2127SOL    HW116850   7.155   6.843   2.097  1.2500  0.4191 -1.0611
 2127SOL    HW216851   7.216   6.994   2.113 -1.2338  1.3492  0.0707
 2128SOL     OW16852   0.261   5.894   1.945  0.0278  0.1989  0.2451
 2128SOL    HW116853   0.208   5.905   1.861 -0.7509  0.4356  0.7575
 2128SOL    HW216854   0.331   5.824   1.932 -0.9961 -0.7670 -0.1775
 2129SOL     OW16855   1.225   2.687   0.994  0.1830  0.0453  0.5221
 2129SOL    HW116856   1.258   2.755   0.929 -1.9850  0.1575 -0.5113
 2129SOL    HW216857   1.145   2.723   1.042 -1.3061 -1.9328 -0.4071
 2130SOL     OW16858   9.658   0.465   1.464 -0.3396  0.6076 -0.6213
 2130SOL    HW116859   9.653   0.552   1.416  0.4931  0.6463 -0.6303
 2130SOL    HW216860   9.565   0.429   1.477 -0.7657  2.0193  0.3612
 2131SOL     OW16861   2.465   9.048   1.728  0.2169  0.0831 -0.4605
 2131SOL    HW116862   2.445   9.072   1.633 -0.0519  0.1032 -0.4006
 2131SOL    HW216863   2.554   9.003   1.734  0.5443  0.7051 -0.6237
 2132SOL     OW16864   1.404   9.248   1.589  0.2868 -0.3623  0.7561
 2132SOL    HW116865   1.325   9.301   1.617  0.0567 -0.3896  0.1711
 2132SOL    HW216866   1.451   9.295   1.514 -0.4338 -1.4132 -0.3792
 2133SOL     OW16867   0.365   4.911   1.130 -0.3416  0.2526  0.1749
 2133SOL    HW116868   0.326   4.964   1.206  3.0528  2.2098  0.6690
 2133SOL    HW216869   0.436   4.851   1.166  0.1392 -0.0366 -1.2589
 2134SOL     OW16870   1.523   5.183   2.484 -0.6411 -0.2319  0.1266
 2134SOL    HW116871   1.593   5.113   2.501 -1.8702 -1.7254 -0.8372
 2134SOL    HW216872   1.485   5.213   2.571  0.4600 -0.1687  0.6008
 2135SOL     OW16873   4.647   2.242   2.128  0.0886 -0.0666  0.0109
 2135SOL    HW116874   4.575   2.306   2.101  1.3411  1.5863  0.4589
 2135SOL    HW216875   4.607   2.163   2.173 -1.4900  0.5198 -0.3464
 2136SOL     OW16876   8.843   9.523   0.545 -0.2180  0.5033 -0.0610
 2136SOL    HW116877   8.910   9.451   0.561 -0.0872  0.9356  1.4082
 2136SOL    HW216878   8.887   9.613   0.548 -0.8521  0.7968  1.0138
 2137SOL     OW16879   9.204   2.163   0.644 -0.3777 -0.2525  0.1295
 2137SOL    HW116880   9.267   2.178   0.720 -0.2385  0.2798 -0.0915
 2137SOL    HW216881   9.231   2.080   0.595 -0.1976 -0.3485  0.3893
 2138SOL     OW16882   9.142   9.934   3.234 -0.5123  0.7020  0.6995
 2138SOL    HW116883   9.052   9.907   3.198 -0.1343 -1.3629  1.2405
 2138SOL    HW216884   9.209   9.863   3.213  0.7395  1.6615  1.3843
 2139SOL     OW16885   1.152   4.371   0.086  0.1692  1.1467 -0.3206
 2139SOL    HW116886   1.053   4.372   0.071  0.2247  2.5974 -0.6762
 2139SOL    HW216887   1.199   4.381  -0.002  0.6529 -0.2351 -0.2341
 2140SOL     OW16888   5.311   8.194   2.586  0.4776  0.3295  0.1437
 2140SOL    HW116889   5.403   8.226   2.563  0.8016  0.9454  2.2097
 2140SOL    HW216890   5.284   8.232   2.675 -1.8784  0.3861 -0.5585
 2141SOL     OW16891   9.371   7.206   0.235 -0.5269 -0.0455 -0.3553
 2141SOL    HW116892   9.330   7.293   0.208 -0.0729  1.1688  2.6283
 2141SOL    HW216893   9.312   7.160   0.301 -0.6302 -1.9000 -1.7076
 2142SOL     OW16894   9.177   7.003   3.935 -0.3598  0.0133  0.3299
 2142SOL    HW116895   9.118   7.081   3.912 -0.1304 -0.0918 -0.6646
 2142SOL    HW216896   9.273   7.029   3.919 -0.3708 -0.9240 -1.4336
 2143SOL     OW16897   1.094   3.672   3.134  0.8503  0.0588 -0.2653
 2143SOL    HW116898   1.096   3.595   3.070 -0.2376 -0.8058  0.7175
 2143SOL    HW216899   1.040   3.746   3.095 -1.0312 -1.0126  0.2187
 2144SOL     OW16900   1.010   5.619   0.619 -0.3142  0.1970 -0.1499
 2144SOL    HW116901   0.949   5.542   0.603  0.1767 -0.1650 -0.2819
 2144SOL    HW216902   1.055   5.608   0.707 -0.5269  0.5256  0.0009
 2145SOL     OW16903   1.135   1.584   3.328 -0.3053 -0.0408 -0.3774
 2145SOL    HW116904   1.200   1.544   3.392 -1.4356 -0.1967  0.6936
 2145SOL    HW216905   1.094   1.512   3.272  0.8153  0.1154 -1.4159
 2146SOL     OW16906   8.234   4.736   0.145 -0.2716 -0.4674  0.1227
 2146SOL    HW116907   8.306   4.744   0.075 -0.0573 -0.1664  0.3750
 2146SOL    HW216908   8.222   4.640   0.169  0.3923 -0.4778  0.4359
 2147SOL     OW16909   8.411   9.906   3.853 -0.2503  0.1549 -0.3314
 2147SOL    HW116910   8.488   9.867   3.801 -2.6476 -0.6146 -3.4557
 2147SOL    HW216911   8.369   9.980   3.800 -1.0064  1.2994  1.8208
 2148SOL     OW16912   4.538   1.701   1.023  0.3662 -0.2145  0.1706
 2148SOL    HW116913   4.479   1.631   1.064  0.2777  0.0859  0.5654
 2148SOL    HW216914   4.587   1.663   0.945 -1.4004 -0.1062 -1.0233
 2149SOL     OW16915   1.409   7.315   1.284 -0.5322 -1.1499  0.3635
 2149SOL    HW116916   1.313   7.343   1.291 -0.5145 -1.1651  0.6966
 2149SOL    HW216917   1.441   7.284   1.374 -0.3772 -1.6777  0.1300
 2150SOL     OW16918   3.096   9.059   3.145 -0.2640  0.2638  0.0084
 2150SOL    HW116919   3.161   9.116   3.095 -0.2759  0.1113 -0.1798
 2150SOL    HW216920   3.004   9.074   3.109 -0.5179  1.3982  1.0791
 2151SOL     OW16921   8.687   3.429   1.124  0.2253  0.2283 -0.8179
 2151SOL    HW116922   8.620   3.466   1.059 -0.7619  1.2114  0.7252
 2151SOL    HW216923   8.698   3.494   1.200  1.1499 -1.0378  0.1379
 2152SOL     OW16924   0.695   8.994   1.666  0.3200  0.2688 -0.2844
 2152SOL    HW116925   0.773   9.014   1.724  0.4145  0.8099 -0.5954
 2152SOL    HW216926   0.629   8.938   1.717  0.0128  1.4369  0.6257
 2153SOL     OW16927   9.325   2.443   0.413  0.1969 -0.2761  0.3837
 2153SOL    HW116928   9.292   2.351   0.390  0.2188 -0.1949  0.0294
 2153SOL    HW216929   9.253   2.492   0.463  0.6865 -0.9678  1.8079
 2154SOL     OW16930   1.893   3.015   1.829  0.1003 -0.0418 -0.1740
 2154SOL    HW116931   1.811   2.958   1.823 -0.1486  0.3779 -0.6851
 2154SOL    HW216932   1.941   3.015   1.742 -1.0126  2.2120 -0.8203
 2155SOL     OW16933   3.362   8.370   1.982 -0.3626  0.1090 -0.3233
 2155SOL    HW116934   3.356   8.432   2.060 -3.0216 -0.3464 -0.0942
 2155SOL    HW216935   3.402   8.283   2.011 -0.0059  0.4468  0.2045
 2156SOL     OW16936   1.133   2.581   0.347 -0.6584  0.6327  0.1161
 2156SOL    HW116937   1.074   2.502   0.367 -0.7357  0.3635 -1.1572
 2156SOL    HW216938   1.184   2.564   0.263 -0.2308  1.7033  0.1553
 2157SOL     OW16939   5.010   7.562   3.039  0.1113  0.3226 -0.4599
 2157SOL    HW116940   4.993   7.631   3.110 -0.2018 -1.1030  0.8840
 2157SOL    HW216941   4.923   7.527   3.005  0.2744  0.1443 -0.6954
 2158SOL     OW16942   1.070   7.625   1.532  0.1073 -0.0758  0.1938
 2158SOL    HW116943   1.155   7.587   1.567 -0.7179 -1.4578  0.7472
 2158SOL    HW216944   1.015   7.552   1.491 -0.6074  0.8754 -0.5581
 2159SOL     OW16945   1.888   6.627   0.849  0.1283  0.0144  0.6042
 2159SOL    HW116946   1.840   6.553   0.803  0.6048 -0.2694  0.5591
 2159SOL    HW216947   1.929   6.688   0.781  1.1689 -0.6269  0.6496
 2160SOL     OW16948   9.090   6.049   3.336 -0.2430  0.4161  0.3815
 2160SOL    HW116949   9.142   6.005   3.409 -0.5905  0.6776  0.7919
 2160SOL    HW216950   9.026   5.983   3.297  2.2154 -0.6910 -1.9364
 2161SOL     OW16951   1.032   7.515   0.839  0.2575  0.2425 -0.3202
 2161SOL    HW116952   1.092   7.571   0.896  1.0523 -0.2445 -0.6669
 2161SOL    HW216953   0.961   7.474   0.896  0.3203  0.7222  0.1158
 2162SOL     OW16954   4.182   7.899   2.355 -0.2205  0.0682 -0.4633
 2162SOL    HW116955   4.260   7.957   2.377 -1.3653  0.5073  2.7059
 2162SOL    HW216956   4.097   7.950   2.370 -1.2321 -2.2696  2.0789
 2163SOL     OW16957   1.586   9.101   4.039  0.0760 -0.7771 -0.3032
 2163SOL    HW116958   1.591   9.018   3.984  0.8352 -0.2234 -1.0838
 2163SOL    HW216959   1.672   9.151   4.032 -0.2368 -0.1133  0.4638
 2164SOL     OW16960   2.868   0.548   0.032  0.2169 -0.3826 -0.2779
 2164SOL    HW116961   2.860   0.604  -0.050  0.0824 -1.2079 -0.8224
 2164SOL    HW216962   2.859   0.607   0.113 -0.7649  0.2568 -0.8512
 2165SOL     OW16963   2.493   8.572   1.854  0.5669 -0.7833  0.0130
 2165SOL    HW116964   2.511   8.670   1.847 -0.5091 -0.6088 -0.4690
 2165SOL    HW216965   2.576   8.520   1.835  1.0259  0.0240 -0.1836
 2166SOL     OW16966   1.368   1.273   2.825  0.7075  0.1482  0.1166
 2166SOL    HW116967   1.320   1.219   2.755  1.9195 -0.7583 -0.0208
 2166SOL    HW216968   1.404   1.213   2.895  1.4374  0.8478  0.3496
 2167SOL     OW16969   1.840   7.949   1.455 -0.8117  0.5004  0.7808
 2167SOL    HW116970   1.801   7.970   1.366 -0.6862  0.1951  0.6504
 2167SOL    HW216971   1.804   7.861   1.488  0.0057  0.0484  0.5049
 2168SOL     OW16972   1.383   0.883   3.449 -0.0167  0.4318  0.5235
 2168SOL    HW116973   1.435   0.798   3.453 -0.9214 -0.1652 -0.0746
 2168SOL    HW216974   1.433   0.956   3.495  1.6339  0.0211 -0.5941
 2169SOL     OW16975   5.372   7.385   2.579  0.3317 -0.6856  0.3103
 2169SOL    HW116976   5.305   7.310   2.573  0.4896 -0.7367 -0.9123
 2169SOL    HW216977   5.332   7.468   2.541  0.4943 -0.3817  0.8056
 2170SOL     OW16978   2.723   0.662   0.583  0.1375 -0.3839  0.2331
 2170SOL    HW116979   2.814   0.629   0.607 -1.0270 -1.2747  3.7079
 2170SOL    HW216980   2.654   0.599   0.617 -1.8702  1.1132 -0.9074
 2171SOL     OW16981   3.319   2.983   4.016 -0.0601  0.0374 -0.3934
 2171SOL    HW116982   3.321   3.003   3.918  0.5881  0.5328 -0.2820
 2171SOL    HW216983   3.280   2.892   4.031 -1.7265  0.6486 -0.9928
 2172SOL     OW16984   8.669   1.409   0.363  0.1147 -0.1886  0.2022
 2172SOL    HW116985   8.726   1.329   0.343 -0.3013 -0.8532  1.6598
 2172SOL    HW216986   8.690   1.443   0.454 -0.1591  0.9991 -0.1708
 2173SOL     OW16987   3.239   2.945   1.620  0.2114  0.6068 -0.0956
 2173SOL    HW116988   3.262   3.026   1.566  0.6911 -0.2338 -1.1634
 2173SOL    HW216989   3.320   2.915   1.671  0.4519 -0.0979 -0.8863
 2174SOL     OW16990   1.662   8.357   3.045 -0.4336  0.5044  0.5259
 2174SOL    HW116991   1.696   8.358   3.140 -1.7632 -1.4101  1.0336
 2174SOL    HW216992   1.592   8.428   3.034 -1.2548 -0.1687  1.3498
 2175SOL     OW16993   8.781   9.099   3.393 -0.0472  0.2255  0.4132
 2175SOL    HW116994   8.726   9.041   3.333 -0.1890  0.5719  0.2046
 2175SOL    HW216995   8.778   9.063   3.487 -1.9444  1.1488  0.7296
 2176SOL     OW16996   2.460   9.888   1.912 -0.6755 -0.0391  0.0442
 2176SOL    HW116997   2.508   9.831   1.845 -1.8773  0.7852 -1.5641
 2176SOL    HW216998   2.482   9.984   1.896 -2.5946  0.3264 -0.5370
 2177SOL     OW16999   4.242   3.630   0.697 -1.1524  0.4448  0.1120
 2177SOL    HW117000   4.191   3.603   0.615 -0.2725 -0.2743 -0.2020
 2177SOL    HW217001   4.196   3.593   0.778 -1.3422  0.1066 -0.1466
 2178SOL     OW17002   2.294   8.325   0.277  0.3562 -0.0682 -0.5018
 2178SOL    HW117003   2.255   8.319   0.369 -0.9775 -0.3104 -1.0653
 2178SOL    HW217004   2.388   8.292   0.278 -0.5036 -2.6308  0.2709
 2179SOL     OW17005   4.823   2.765   3.030 -0.5781  0.0048 -0.0852
 2179SOL    HW117006   4.913   2.787   2.993  0.3739 -1.5099  1.2676
 2179SOL    HW217007   4.772   2.850   3.046  0.0535  0.8076 -2.1548
 2180SOL     OW17008   4.243   9.184   1.746 -0.5024  0.3863 -0.3701
 2180SOL    HW117009   4.309   9.185   1.821 -0.7412 -1.7423 -0.0942
 2180SOL    HW217010   4.167   9.246   1.766  0.1949  0.9709  0.4429
 2181SOL     OW17011   7.962   9.113   3.212 -0.6144  0.1009  0.6725
 2181SOL    HW117012   8.041   9.086   3.267 -0.6845 -0.3757  0.5421
 2181SOL    HW217013   7.896   9.038   3.210 -0.5825  0.0896 -0.1153
 2182SOL     OW17014   7.456   2.190   0.765  0.2995 -0.0539 -0.0276
 2182SOL    HW117015   7.512   2.265   0.730  0.0613 -0.3374 -1.0375
 2182SOL    HW217016   7.385   2.167   0.699 -0.4644 -0.2896  0.8563
 2183SOL     OW17017   1.119   5.191   2.749 -0.2257  0.1009 -0.0356
 2183SOL    HW117018   1.151   5.284   2.729 -1.3210  0.6220  0.6052
 2183SOL    HW217019   1.156   5.161   2.837  1.0210 -0.5029 -0.7522
 2184SOL     OW17020   9.397   9.347   0.356 -0.0588  0.7501 -0.4097
 2184SOL    HW117021   9.404   9.297   0.442 -0.3071  0.4758 -0.5482
 2184SOL    HW217022   9.372   9.284   0.283 -1.4717  1.2808 -0.3836
 2185SOL     OW17023   7.623   8.856   1.431  0.2127 -0.5004  0.1050
 2185SOL    HW117024   7.527   8.846   1.456  0.0452 -0.4268 -0.5051
 2185SOL    HW217025   7.665   8.926   1.489 -0.7384  1.3004 -1.2960
 2186SOL     OW17026   9.572   1.276   0.655 -0.2257  0.2388 -0.2517
 2186SOL    HW117027   9.551   1.205   0.588  2.2132 -0.3369 -0.4394
 2186SOL    HW217028   9.630   1.346   0.612  0.4842  0.4086  0.9683
 2187SOL     OW17029   4.364   9.427   0.455 -0.2235  0.2158  0.0274
 2187SOL    HW117030   4.444   9.487   0.452 -0.0174 -0.0785 -0.5814
 2187SOL    HW217031   4.386   9.343   0.505 -0.7996  1.0499  1.7085
 2188SOL     OW17032   5.171   2.779   0.708  0.5050  0.0211 -0.1612
 2188SOL    HW117033   5.232   2.779   0.787  0.5020  1.0198 -0.1622
 2188SOL    HW217034   5.098   2.712   0.722 -0.3155  1.2162  1.2893
 2189SOL     OW17035   1.270   4.160   0.993 -0.6976  0.0003 -0.3973
 2189SOL    HW117036   1.292   4.144   0.897 -2.2374  0.0797 -0.7802
 2189SOL    HW217037   1.267   4.072   1.041  1.1124  0.0507 -0.1786
 2190SOL     OW17038   0.901   1.549   1.329 -0.1401 -0.0264 -0.4733
 2190SOL    HW117039   0.842   1.583   1.402 -0.2398  0.0374 -0.5836
 2190SOL    HW217040   0.856   1.562   1.241  1.1085  2.4581 -0.8016
 2191SOL     OW17041   8.941   8.689   3.021  0.2662 -0.2373  0.1958
 2191SOL    HW117042   8.913   8.704   2.926 -0.6325 -1.3935  0.2598
 2191SOL    HW217043   8.863   8.705   3.081  0.4898 -0.7650  0.6270
 2192SOL     OW17044   9.711   5.607   0.614  0.0405 -0.4998  0.4722
 2192SOL    HW117045   9.798   5.559   0.626 -1.1947 -2.7540  0.5611
 2192SOL    HW217046   9.683   5.604   0.519 -0.7220 -1.1492  0.7136
 2193SOL     OW17047   3.514   0.935   1.378 -0.1186  0.2553 -0.4915
 2193SOL    HW117048   3.446   0.955   1.448 -0.0745  0.6021 -0.5516
 2193SOL    HW217049   3.606   0.952   1.414 -0.0224 -0.8558 -0.1838
 2194SOL     OW17050   0.752   0.859   3.202 -0.3677  0.0444  0.1022
 2194SOL    HW117051   0.676   0.804   3.236 -0.9240  0.7717  0.0486
 2194SOL    HW217052   0.831   0.800   3.187 -0.9417 -0.7358  0.0735
 2195SOL     OW17053   1.365   1.594   2.611 -0.0739 -0.2983  0.0144
 2195SOL    HW117054   1.404   1.573   2.521  1.7497  0.2069  0.6672
 2195SOL    HW217055   1.281   1.542   2.624  1.3279 -2.7927 -0.7154
 2196SOL     OW17056   8.485   7.404   2.738 -0.1808  0.4510 -0.4232
 2196SOL    HW117057   8.427   7.328   2.767  0.6047  0.2758  0.6856
 2196SOL    HW217058   8.510   7.392   2.642  2.9425 -2.6329  0.6826
 2197SOL     OW17059   7.658   5.446   2.129 -0.3891  0.0713  0.0560
 2197SOL    HW117060   7.719   5.441   2.050  1.1322 -1.2683  1.2825
 2197SOL    HW217061   7.608   5.533   2.126  1.1589  0.9600 -1.2784
 2198SOL     OW17062   1.907   7.897   0.091  0.4456 -0.3116 -0.3536
 2198SOL    HW117063   1.971   7.825   0.116  0.3511 -0.4895 -0.6330
 2198SOL    HW217064   1.825   7.857   0.050  0.2973 -0.0608 -0.3071
 2199SOL     OW17065   2.785   5.181   0.045 -1.0209  0.5235  0.3852
 2199SOL    HW117066   2.758   5.124   0.123  0.1240 -1.1982 -0.4359
 2199SOL    HW217067   2.716   5.175  -0.027 -0.0658 -1.2825 -0.4116
 2200SOL     OW17068   9.727   4.926   3.563 -0.2980  0.0875  0.5224
 2200SOL    HW117069   9.763   4.996   3.625  2.8702 -0.3327 -0.7159
 2200SOL    HW217070   9.796   4.854   3.552 -0.8037  0.0844 -3.3298
 2201SOL     OW17071   7.757   2.936   0.361 -0.3688 -0.6901 -0.5265
 2201SOL    HW117072   7.696   2.874   0.411  0.9916 -1.3765  0.3077
 2201SOL    HW217073   7.769   3.020   0.414  0.5301 -1.1352 -0.0273
 2202SOL     OW17074   7.482   7.681   2.426  0.0785  0.1077 -0.0367
 2202SOL    HW117075   7.404   7.719   2.476 -0.5758  0.3762 -1.2432
 2202SOL    HW217076   7.479   7.581   2.432 -1.6814 -0.0011 -1.9814
 2203SOL     OW17077   1.371   8.992   1.335  0.1766 -0.3867  0.3738
 2203SOL    HW117078   1.409   8.965   1.247  0.8224 -0.8394  0.7801
 2203SOL    HW217079   1.445   8.996   1.403  0.1754  2.6502  0.2894
 2204SOL     OW17080   0.539   6.752   1.341 -0.0550 -0.0750 -0.0408
 2204SOL    HW117081   0.594   6.720   1.264  2.1325  1.2339  0.9225
 2204SOL    HW217082   0.482   6.829   1.311  2.2897  1.7775  0.0533
 2205SOL     OW17083   1.722   4.634   2.288 -0.1762 -0.5633 -0.0487
 2205SOL    HW117084   1.730   4.581   2.204 -1.2967 -0.6183 -0.1185
 2205SOL    HW217085   1.633   4.678   2.292  0.1232 -0.0167  0.7962
 2206SOL     OW17086   4.089   7.874   3.985 -0.7889  0.8836 -0.6820
 2206SOL    HW117087   4.074   7.807   4.058  0.1492 -2.0764 -3.1099
 2206SOL    HW217088   4.003   7.894   3.940 -0.6173 -1.2324 -2.0287
 2207SOL     OW17089   3.515   7.157   2.203  0.3198 -0.0588  0.5251
 2207SOL    HW117090   3.445   7.103   2.250 -0.9596 -0.6389 -1.9219
 2207SOL    HW217091   3.471   7.228   2.148  1.8940  2.2134  2.1154
 2208SOL     OW17092   0.561   7.603   0.994  0.3082  0.2177  0.3459
 2208SOL    HW117093   0.571   7.693   0.952 -0.8725 -0.4322 -1.4029
 2208SOL    HW217094   0.600   7.604   1.086  5.9123  0.8316 -1.8278
 2209SOL     OW17095   2.822   1.263   0.870 -0.8437  0.6639  0.6986
 2209SOL    HW117096   2.889   1.330   0.903  0.4733 -1.4374  2.4602
 2209SOL    HW217097   2.789   1.208   0.947 -1.7711 -0.8284 -0.7312
 2210SOL     OW17098   0.545   2.611   0.051  0.6076  0.3293  0.8607
 2210SOL    HW117099   0.624   2.666   0.024  1.1130 -0.0564  1.5255
 2210SOL    HW217100   0.470   2.671   0.077  0.4976  0.6978 -0.3003
 2211SOL     OW17101   1.903   2.204   3.172 -0.6449 -0.1180 -0.1681
 2211SOL    HW117102   1.881   2.299   3.191 -0.7062 -0.0090 -0.8035
 2211SOL    HW217103   1.821   2.148   3.182 -0.3549 -0.2858  1.4163
 2212SOL     OW17104   9.617   8.844   2.172  0.6616 -0.1556 -0.2164
 2212SOL    HW117105   9.642   8.794   2.090  0.0687 -1.6772  0.5146
 2212SOL    HW217106   9.584   8.935   2.147 -0.0636 -0.8150 -1.6958
 2213SOL     OW17107   9.867   5.813   3.656  0.3984  0.0234  0.1693
 2213SOL    HW117108   9.903   5.720   3.667 -1.6329 -0.7948  0.1822
 2213SOL    HW217109   9.943   5.878   3.650  1.8174 -1.4382  1.8126
 2214SOL     OW17110   0.598   4.770   1.236 -0.0776  0.1059  0.1468
 2214SOL    HW117111   0.546   4.698   1.282  0.1416  0.5505  1.1124
 2214SOL    HW217112   0.680   4.791   1.289 -0.4733  1.5108  0.2321
 2215SOL     OW17113   1.155   1.420   1.769  0.5120  0.2042  0.6048
 2215SOL    HW117114   1.159   1.352   1.696 -0.6550  1.5018 -0.6868
 2215SOL    HW217115   1.211   1.390   1.846 -2.4713 -3.7794  1.3753
 2216SOL     OW17116   2.833   0.720   3.878 -0.1678 -0.0419  0.0484
 2216SOL    HW117117   2.753   0.759   3.831 -0.0264 -0.2803 -0.3974
 2216SOL    HW217118   2.912   0.779   3.862  0.4303 -1.3274 -1.9975
 2217SOL     OW17119   9.057   1.663   1.006 -0.3017  0.2279 -0.0148
 2217SOL    HW117120   9.129   1.594   1.015  2.3506  3.0140  0.8796
 2217SOL    HW217121   9.012   1.675   1.095 -0.8359 -0.3841 -0.1955
 2218SOL     OW17122   1.102   9.205   1.034  0.4798 -0.6256 -0.4405
 2218SOL    HW117123   1.005   9.218   1.015  0.9138  4.6734  0.3749
 2218SOL    HW217124   1.114   9.168   1.126 -0.7024  1.4596  0.5783
 2219SOL     OW17125   8.512   8.538   1.442 -0.8953  0.1234 -0.4659
 2219SOL    HW117126   8.543   8.508   1.351 -0.6659  0.7789 -0.6094
 2219SOL    HW217127   8.421   8.579   1.434  0.0594  2.2413 -0.7876
 2220SOL     OW17128   1.341   2.546   0.160 -0.1917 -0.6375 -0.1364
 2220SOL    HW117129   1.386   2.510   0.242  0.9164  1.2083  0.1035
 2220SOL    HW217130   1.403   2.539   0.082  0.0840  0.8106 -0.0644
 2221SOL     OW17131   3.438   2.049   3.618  0.0997  0.4858  0.6517
 2221SOL    HW117132   3.358   2.006   3.660 -0.4455 -0.4813 -1.3024
 2221SOL    HW217133   3.521   2.006   3.654 -0.3503 -0.1781  0.9140
 2222SOL     OW17134   2.434   6.915   3.399 -0.0918  0.7722 -0.3592
 2222SOL    HW117135   2.517   6.949   3.443 -2.5759  1.7567  3.8678
 2222SOL    HW217136   2.441   6.815   3.390  2.2926  1.0306 -1.8316
 2223SOL     OW17137   9.456   3.266   2.531  0.2576 -0.3599 -0.1669
 2223SOL    HW117138   9.536   3.310   2.572  0.3011 -0.2343 -0.3907
 2223SOL    HW217139   9.486   3.203   2.460  0.2402 -1.2526  0.6018
 2224SOL     OW17140   6.724   7.062   2.324  0.1310 -0.2546 -0.5686
 2224SOL    HW117141   6.753   7.143   2.375  0.8932 -0.7392 -0.2260
 2224SOL    HW217142   6.765   6.981   2.365  0.5423 -0.6753 -1.7974
 2225SOL     OW17143   2.337   8.946   2.414  0.1482 -0.7796 -0.6723
 2225SOL    HW117144   2.405   8.909   2.350 -0.2321 -0.8551 -1.0401
 2225SOL    HW217145   2.354   8.910   2.505  2.5874  1.7248 -0.0682
 2226SOL     OW17146   0.573   9.941   1.750  0.7780  0.0080 -0.1577
 2226SOL    HW117147   0.525   9.907   1.669  0.4775 -0.1055  0.0658
 2226SOL    HW217148   0.527   9.907   1.833 -1.0654  3.0078  0.1078
 2227SOL     OW17149   4.962   0.852   2.031 -0.3892 -0.2461 -0.2418
 2227SOL    HW117150   4.917   0.918   1.971  1.0000 -0.6609 -1.8004
 2227SOL    HW217151   4.989   0.772   1.978  1.5038 -0.3134  0.7744
 2228SOL     OW17152   7.495   1.836   0.187 -0.5076  0.0944  0.0404
 2228SOL    HW117153   7.416   1.885   0.150 -0.7358  0.1983  0.6713
 2228SOL    HW217154   7.566   1.830   0.116 -2.2489 -2.6810 -1.5581
 2229SOL     OW17155   7.827   9.907   0.771 -0.1108  0.2253  0.0670
 2229SOL    HW117156   7.836   9.980   0.704  0.4803  0.6396  0.5913
 2229SOL    HW217157   7.815   9.819   0.724  0.5211  0.4824 -0.5842
 2230SOL     OW17158   3.736   2.512   1.816  0.3017 -0.1164 -0.1290
 2230SOL    HW117159   3.760   2.435   1.874 -1.6495 -0.4850  0.2344
 2230SOL    HW217160   3.713   2.479   1.724 -1.6051 -0.1141  0.3301
 2231SOL     OW17161   2.645   7.065   0.616 -0.3008 -0.0402 -0.3003
 2231SOL    HW117162   2.611   7.122   0.542  3.0353 -0.1660 -2.0137
 2231SOL    HW217163   2.692   6.985   0.578  2.1303  0.2878  1.8721
 2232SOL     OW17164   9.514   3.052   3.294  0.4486  0.5452  0.3351
 2232SOL    HW117165   9.578   3.115   3.339  0.4702  0.7939 -0.0477
 2232SOL    HW217166   9.448   3.104   3.241  2.2400  0.1456 -2.3818
 2233SOL     OW17167   9.734   4.741   0.961  0.2179  0.4702  0.3527
 2233SOL    HW117168   9.808   4.723   0.896 -0.3737  1.2896 -0.5622
 2233SOL    HW217169   9.772   4.778   1.046  0.9715 -0.3696  0.3832
 2234SOL     OW17170   6.115   6.658   2.495  0.9124  0.0444 -0.0842
 2234SOL    HW117171   6.086   6.673   2.590 -0.9391  0.5831 -0.7144
 2234SOL    HW217172   6.090   6.738   2.440 -0.7457 -1.5001 -1.6352
 2235SOL     OW17173   2.655   9.936   2.208  0.4745  0.2850 -0.1076
 2235SOL    HW117174   2.694   9.872   2.275  2.0015  1.6569  0.3634
 2235SOL    HW217175   2.703   9.926   2.121 -1.2871 -1.2640 -0.9381
 2236SOL     OW17176   7.961   8.109   1.684 -0.1266 -0.6351  0.0116
 2236SOL    HW117177   7.891   8.094   1.614  0.6701  1.2308 -1.1898
 2236SOL    HW217178   8.049   8.075   1.652 -0.0590 -1.2227  0.7739
 2237SOL     OW17179   9.503   5.705   3.983  0.3541 -0.0048 -0.0794
 2237SOL    HW117180   9.405   5.694   4.002  0.3738  2.3962  1.6919
 2237SOL    HW217181   9.523   5.802   3.964  2.5542 -0.2540  0.7622
 2238SOL     OW17182   4.205   7.221   0.480 -0.0166 -0.5336 -0.5305
 2238SOL    HW117183   4.240   7.202   0.388  1.9225 -0.7631  0.2296
 2238SOL    HW217184   4.122   7.276   0.473 -0.1809 -0.9805 -2.4345
 2239SOL     OW17185   2.224   3.892   3.751 -0.8490 -0.2607  0.2003
 2239SOL    HW117186   2.300   3.892   3.686 -0.9014  1.7765  0.1114
 2239SOL    HW217187   2.141   3.923   3.706 -1.1268  0.1379  0.9750
 2240SOL     OW17188   1.053   6.867   2.918  0.2663  0.3100 -0.0599
 2240SOL    HW117189   1.010   6.826   2.998  0.0337 -0.3996 -0.5448
 2240SOL    HW217190   0.983   6.908   2.860  0.3826  0.3872 -0.1462
 2241SOL     OW17191   3.150   8.647   3.396 -0.4357 -0.4254  0.2346
 2241SOL    HW117192   3.114   8.665   3.305  0.5245  0.8867  0.0878
 2241SOL    HW217193   3.121   8.556   3.427  0.1705 -1.3371 -1.8198
 2242SOL     OW17194   8.256   1.374   3.513  0.3012  0.1026 -0.4371
 2242SOL    HW117195   8.234   1.470   3.493 -0.0267 -0.1483 -1.3213
 2242SOL    HW217196   8.354   1.365   3.531 -0.0304  0.9934  2.0315
 2243SOL     OW17197   9.974   1.773   2.022  0.1959 -0.2494 -0.5701
 2243SOL    HW117198  10.044   1.702   2.033  1.2696  0.6625 -1.3413
 2243SOL    HW217199   9.996   1.830   1.943 -1.8243 -0.3824 -1.2612
 2244SOL     OW17200   8.469   5.233   2.962 -0.6565  0.8661 -0.1693
 2244SOL    HW117201   8.564   5.228   2.932 -0.8089 -0.4656 -0.4533
 2244SOL    HW217202   8.410   5.244   2.882 -0.9334 -0.9261 -0.2114
 2245SOL     OW17203   1.057   8.647   1.090  0.0568 -0.0024  0.3185
 2245SOL    HW117204   1.096   8.555   1.085 -0.5595 -0.2595  0.1486
 2245SOL    HW217205   0.972   8.649   1.037  0.3577  0.8104 -0.1332
 2246SOL     OW17206   1.595   4.687   0.770  0.6655  0.3311  0.1210
 2246SOL    HW117207   1.686   4.687   0.813  0.8393 -1.1436 -0.2232
 2246SOL    HW217208   1.528   4.652   0.836  0.3025  1.6535  0.4576
 2247SOL     OW17209   2.904   8.839   1.042 -0.8319 -0.6192  0.0293
 2247SOL    HW117210   2.959   8.803   0.967  1.0131 -1.1550  1.5794
 2247SOL    HW217211   2.837   8.771   1.071  0.6544 -1.6825  1.0080
 2248SOL     OW17212   9.244   4.291   3.293  0.5537  1.2570  0.1323
 2248SOL    HW117213   9.232   4.308   3.195  1.6042 -0.4850 -0.3204
 2248SOL    HW217214   9.172   4.229   3.325  3.2846 -2.5733 -0.7823
 2249SOL     OW17215   8.450   4.933   0.196  0.4857 -0.3698  0.0898
 2249SOL    HW117216   8.497   5.021   0.191 -1.2220  0.5888  0.4090
 2249SOL    HW217217   8.430   4.900   0.104  1.3332 -0.5370 -0.0353
 2250SOL     OW17218   2.236   9.541   3.214  0.9541  0.2344  0.3806
 2250SOL    HW117219   2.163   9.503   3.270  1.5949 -0.0659  1.0202
 2250SOL    HW217220   2.277   9.619   3.262  0.4187  1.0050 -0.4052
 2251SOL     OW17221   0.203   3.817   0.154 -0.1417 -0.1230 -0.0883
 2251SOL    HW117222   0.171   3.831   0.247 -0.7001  0.0245 -0.2985
 2251SOL    HW217223   0.200   3.720   0.131  0.3251 -0.1976  0.1622
 2252SOL     OW17224   0.182   7.253   1.855  0.1721  0.4565  0.1628
 2252SOL    HW117225   0.124   7.176   1.883  2.4792 -1.1956  0.5540
 2252SOL    HW217226   0.212   7.239   1.761 -0.8671  1.8286 -0.3878
 2253SOL     OW17227   9.239   1.931   3.124  0.0299 -0.4491 -0.4320
 2253SOL    HW117228   9.151   1.915   3.169  0.8033 -0.4675  1.1193
 2253SOL    HW217229   9.257   1.858   3.058 -1.3061 -0.2120 -1.0682
 2254SOL     OW17230   2.311   8.164   3.695 -0.7846  0.0770  0.0808
 2254SOL    HW117231   2.298   8.263   3.700 -1.1361  0.0512 -0.2645
 2254SOL    HW217232   2.223   8.118   3.706 -0.3844 -0.2783  2.0545
 2255SOL     OW17233   4.113   9.276   2.960  0.3510  0.0021 -0.3194
 2255SOL    HW117234   4.170   9.262   2.879  1.3590  1.7454  0.0508
 2255SOL    HW217235   4.045   9.347   2.940  0.5488  0.3755  0.3109
 2256SOL     OW17236   1.560   2.336   1.447 -0.0161 -0.2043  1.2173
 2256SOL    HW117237   1.536   2.429   1.422  1.5460  0.2919  1.4768
 2256SOL    HW217238   1.505   2.308   1.526 -2.5373 -0.5700 -0.6282
 2257SOL     OW17239   2.863   5.089   1.836 -0.1062 -0.2271 -0.0336
 2257SOL    HW117240   2.782   5.137   1.805  1.4539  1.4957 -1.5947
 2257SOL    HW217241   2.905   5.041   1.759  0.8359 -0.3578  0.5513
 2258SOL     OW17242   9.455   6.630   2.411  0.5739 -0.1455 -0.2682
 2258SOL    HW117243   9.392   6.620   2.334  0.9558  1.8736 -0.8797
 2258SOL    HW217244   9.468   6.542   2.455 -2.7800 -0.6000 -0.0381
 2259SOL     OW17245   3.955   1.179   1.406  0.6292 -0.1424 -0.7397
 2259SOL    HW117246   4.023   1.125   1.456  0.7571  1.5042  0.9136
 2259SOL    HW217247   3.957   1.273   1.439 -2.3919 -0.0466 -0.7109
 2260SOL     OW17248   4.224   0.793   3.172 -0.1492 -0.0210 -0.2068
 2260SOL    HW117249   4.262   0.775   3.263  3.2081 -0.0618 -1.5201
 2260SOL    HW217250   4.166   0.717   3.144  1.8150 -1.7831  0.4027
 2261SOL     OW17251   9.026   7.116   2.707 -0.6440  0.2161  0.0833
 2261SOL    HW117252   9.079   7.043   2.663  0.1906  0.3007  0.9316
 2261SOL    HW217253   8.965   7.076   2.775 -0.1241  0.3105  0.6092
 2262SOL     OW17254   9.703   0.487   0.296 -0.4641  0.1531 -0.5268
 2262SOL    HW117255   9.693   0.387   0.297 -0.4315  0.1555  0.0748
 2262SOL    HW217256   9.788   0.512   0.341 -1.0213  0.5186  0.3182
 2263SOL     OW17257   3.277   7.693   3.441  0.4678  0.3348 -0.2441
 2263SOL    HW117258   3.247   7.787   3.431  0.1313  0.2881  0.2939
 2263SOL    HW217259   3.377   7.689   3.442  0.5005  0.5378 -1.5909
 2264SOL     OW17260   9.218   3.392   2.504  0.7512  0.1365  0.7738
 2264SOL    HW117261   9.298   3.335   2.524  0.3581 -0.4190  0.7595
 2264SOL    HW217262   9.245   3.467   2.443  1.2195 -0.1770  0.5944
 2265SOL     OW17263   9.944   0.141   0.506  0.0070  0.1845  0.1041
 2265SOL    HW117264  10.037   0.170   0.524  0.3066 -1.5376  1.4462
 2265SOL    HW217265   9.945   0.066   0.439 -0.2980 -0.8130  1.2062
 2266SOL     OW17266   1.312   2.794   0.501 -0.0655  0.4745  0.1394
 2266SOL    HW117267   1.389   2.800   0.437  0.5016 -0.7752  0.6869
 2266SOL    HW217268   1.246   2.726   0.467  0.3982 -0.4356  1.0471
 2267SOL     OW17269   1.993   7.600   1.602  0.1867  0.5208  0.4781
 2267SOL    HW117270   1.982   7.616   1.700  0.5561  0.1595  0.5808
 2267SOL    HW217271   1.904   7.577   1.561 -0.0835  1.3273  0.6012
 2268SOL     OW17272   2.380   5.889   2.784  0.1633  0.2133  0.3934
 2268SOL    HW117273   2.464   5.836   2.778 -0.9663 -1.5422 -0.2852
 2268SOL    HW217274   2.316   5.843   2.845 -0.7857  0.8777 -0.0821
 2269SOL     OW17275   2.456   5.963   1.737 -0.0272  0.3456 -0.2241
 2269SOL    HW117276   2.524   5.889   1.732  2.2259  2.2049  1.3743
 2269SOL    HW217277   2.502   6.048   1.764 -2.7513  2.0737 -0.8411
 2270SOL     OW17278   2.777   5.600   1.765  0.0418 -0.2294  0.2326
 2270SOL    HW117279   2.767   5.567   1.859  0.0225 -0.0047  0.3101
 2270SOL    HW217280   2.721   5.545   1.704  0.5803 -0.8043  0.2573
 2271SOL     OW17281   3.758   4.805   1.211 -0.3631  0.2234 -0.3224
 2271SOL    HW117282   3.745   4.857   1.295 -1.3429 -0.6723  0.0874
 2271SOL    HW217283   3.819   4.727   1.228  2.6513  2.2531 -1.3659
 2272SOL     OW17284   3.461   7.964   0.164 -0.0224  0.2657 -0.4483
 2272SOL    HW117285   3.518   8.036   0.204 -1.1270  1.7583 -1.5262
 2272SOL    HW217286   3.369   7.998   0.148 -0.6403 -1.4699 -0.7471
 2273SOL     OW17287   6.297   7.374   2.723 -0.3332  0.2767 -0.8323
 2273SOL    HW117288   6.296   7.472   2.743  1.4399  0.0350  0.5672
 2273SOL    HW217289   6.260   7.324   2.801  1.0114 -0.3081 -0.5580
 2274SOL     OW17290   3.446   9.380   3.224 -0.1661 -0.2190 -0.0038
 2274SOL    HW117291   3.353   9.414   3.237 -0.2912 -1.3810  2.4053
 2274SOL    HW217292   3.510   9.457   3.225 -0.9970  0.4979 -0.7022
 2275SOL     OW17293   3.420   6.338   1.618  0.3757 -0.0644  0.0750
 2275SOL    HW117294   3.487   6.267   1.636  1.4645  0.2179 -2.5731
 2275SOL    HW217295   3.467   6.420   1.585 -1.2228  0.2586 -1.4897
 2276SOL     OW17296   1.659   2.737   3.394  0.2490  0.2025 -0.0335
 2276SOL    HW117297   1.712   2.684   3.461  2.1818  0.8184 -1.0212
 2276SOL    HW217298   1.563   2.709   3.398  0.6014 -0.8547  1.9138
 2277SOL     OW17299   8.351   5.451   0.983  0.3520 -0.5469  0.0489
 2277SOL    HW117300   8.447   5.428   0.968 -0.2406 -2.0244 -1.7713
 2277SOL    HW217301   8.295   5.369   0.967 -1.1997  0.2844  1.1364
 2278SOL     OW17302   0.280   7.739   0.636  0.3491 -0.3605  0.3958
 2278SOL    HW117303   0.220   7.667   0.672  1.1667 -0.7879  0.9206
 2278SOL    HW217304   0.290   7.811   0.704  1.6313 -1.0103  0.9176
 2279SOL     OW17305   4.569   0.325   0.979 -0.0505 -0.5101  0.0273
 2279SOL    HW117306   4.561   0.232   1.016  1.1192 -1.4773 -2.0531
 2279SOL    HW217307   4.616   0.383   1.046 -1.4420 -1.1905  1.6560
 2280SOL     OW17308   2.500   3.130   0.137 -0.3343  0.1553 -0.7189
 2280SOL    HW117309   2.580   3.178   0.103  0.2861  0.5260  1.1936
 2280SOL    HW217310   2.417   3.173   0.101  0.2912  0.5625 -1.6863
 2281SOL     OW17311   2.812   8.072   2.720 -0.4015 -0.5356 -0.3784
 2281SOL    HW117312   2.865   8.154   2.742 -2.4509  0.8431 -0.3587
 2281SOL    HW217313   2.813   8.010   2.798 -0.0660  0.1704  0.1873
 2282SOL     OW17314   1.642   5.969   1.841  0.1690  0.4463 -0.3272
 2282SOL    HW117315   1.618   5.872   1.839 -0.6621  0.6325  0.4284
 2282SOL    HW217316   1.640   6.002   1.935  1.8828  0.8534 -0.4154
 2283SOL     OW17317   8.618   2.965   2.954 -0.3837 -0.1663  0.0242
 2283SOL    HW117318   8.605   2.874   2.913  1.1562 -0.5244  0.3163
 2283SOL    HW217319   8.706   3.003   2.926 -0.1527  0.3997  1.4492
 2284SOL     OW17320   8.572   5.103   3.400  0.0885  0.2482  0.3469
 2284SOL    HW117321   8.565   5.022   3.458 -1.1991 -0.9449 -1.4292
 2284SOL    HW217322   8.664   5.108   3.361 -0.3691 -1.4354 -1.0171
 2285SOL     OW17323   5.105   9.684   3.132 -0.3523  0.3655  0.2846
 2285SOL    HW117324   5.120   9.628   3.051 -0.1789  0.6198  0.1430
 2285SOL    HW217325   5.182   9.673   3.195 -0.8967 -0.5249  0.8204
 2286SOL     OW17326   7.804   2.171   3.265 -0.0987 -0.0588  0.7027
 2286SOL    HW117327   7.732   2.122   3.314  0.6850 -0.8654  1.0827
 2286SOL    HW217328   7.876   2.197   3.330  0.2766  0.1200  0.2135
 2287SOL     OW17329   8.505   4.784   1.455 -0.0112  0.3482  0.4067
 2287SOL    HW117330   8.509   4.730   1.371 -0.4914 -0.0117  0.6093
 2287SOL    HW217331   8.561   4.866   1.446  1.0351 -0.3831  0.2236
 2288SOL     OW17332   2.482   7.681   0.355  0.6443 -0.0451  0.4535
 2288SOL    HW117333   2.518   7.752   0.415 -0.5583 -0.3334  1.5391
 2288SOL    HW217334   2.394   7.648   0.391  0.9464 -1.7268 -0.2930
 2289SOL     OW17335   3.615   0.225   3.609 -0.0703 -0.2734 -0.0331
 2289SOL    HW117336   3.538   0.241   3.671  0.0250  1.0528 -0.2427
 2289SOL    HW217337   3.597   0.267   3.521  0.2767 -1.2071 -0.5630
 2290SOL     OW17338   2.635   6.509   2.547 -0.6628  0.0215  0.1711
 2290SOL    HW117339   2.591   6.421   2.528 -0.2153 -0.2438  0.3464
 2290SOL    HW217340   2.735   6.498   2.542 -0.6143  0.6149 -0.2244
 2291SOL     OW17341   4.023   1.216   1.772 -0.2824 -0.3307  0.5474
 2291SOL    HW117342   3.937   1.203   1.821 -1.5911  0.7834 -1.3464
 2291SOL    HW217343   4.049   1.312   1.774  0.1335 -0.4204 -0.1380
 2292SOL     OW17344   8.537   0.041   2.703  0.1967  0.5437 -0.3238
 2292SOL    HW117345   8.594   0.032   2.785  0.0003 -1.6163 -0.3985
 2292SOL    HW217346   8.583   0.101   2.637  1.1808  0.8801  0.6528
 2293SOL     OW17347   3.766   8.716   1.517 -0.0771 -0.0827 -0.5890
 2293SOL    HW117348   3.787   8.631   1.566  0.2908 -0.3914 -1.2642
 2293SOL    HW217349   3.681   8.755   1.552  0.1748 -0.2989  0.2815
 2294SOL     OW17350   2.222   7.016   1.329 -0.2967  0.0663 -0.1927
 2294SOL    HW117351   2.177   6.967   1.403 -1.4912  1.5219  0.0668
 2294SOL    HW217352   2.202   6.972   1.241 -2.2347  0.6778 -0.0786
 2295SOL     OW17353   2.035   9.398   1.126  0.0550  0.0177  0.1380
 2295SOL    HW117354   1.981   9.332   1.177 -0.9635  1.5066  1.0471
 2295SOL    HW217355   2.055   9.363   1.035 -0.1699 -1.6680  0.7310
 2296SOL     OW17356   2.977   0.291   1.132  0.2245  0.3419  0.2951
 2296SOL    HW117357   2.908   0.358   1.159 -0.6147  0.7073 -2.6080
 2296SOL    HW217358   3.067   0.319   1.167 -0.2778  2.4911 -0.1050
 2297SOL     OW17359   4.154   2.057   2.604 -0.1541 -0.2463  0.1914
 2297SOL    HW117360   4.222   2.004   2.554 -2.1390 -0.7616 -2.0540
 2297SOL    HW217361   4.199   2.124   2.662  2.2526 -0.9904 -0.7916
 2298SOL     OW17362   7.270   0.362   2.805 -0.3945  0.0422  0.3019
 2298SOL    HW117363   7.242   0.286   2.747  0.3761  0.1164 -0.1698
 2298SOL    HW217364   7.244   0.343   2.900 -1.8340  0.0123 -0.0907
 2299SOL     OW17365   1.484   6.233   1.862  0.2853 -0.4518 -0.3841
 2299SOL    HW117366   1.453   6.156   1.920  0.7867 -0.1512  0.2916
 2299SOL    HW217367   1.428   6.237   1.780  0.2405 -1.5384 -0.4133
 2300SOL     OW17368   1.826   5.799   3.523 -0.1034 -0.0078 -0.2788
 2300SOL    HW117369   1.751   5.738   3.498 -1.4723  1.5292 -0.0187
 2300SOL    HW217370   1.869   5.835   3.441 -1.1688  0.9185 -0.4358
 2301SOL     OW17371   9.750   8.685   0.568  0.5467 -0.0908  0.1697
 2301SOL    HW117372   9.760   8.692   0.668  0.4203  1.3282  0.0940
 2301SOL    HW217373   9.772   8.592   0.539  0.5727 -0.5254  1.5238
 2302SOL     OW17374   8.427   5.390   1.755 -0.3141  0.1146  0.1911
 2302SOL    HW117375   8.447   5.474   1.705  1.6278  0.2664  1.1873
 2302SOL    HW217376   8.380   5.413   1.840  0.1040  0.1880  0.4035
 2303SOL     OW17377   8.244   6.143   3.208 -0.4139  0.0256  0.1624
 2303SOL    HW117378   8.201   6.183   3.288  0.4998  0.8521  0.2570
 2303SOL    HW217379   8.176   6.093   3.155 -1.5838  1.6525  0.0836
 2304SOL     OW17380   7.798   7.760   1.244 -0.0982 -0.7226 -0.6424
 2304SOL    HW117381   7.850   7.824   1.187 -0.5357  0.8018  0.6178
 2304SOL    HW217382   7.857   7.726   1.317 -0.6439  0.4832  0.3845
 2305SOL     OW17383   3.170   0.151   0.137 -0.2778 -0.4606 -0.3014
 2305SOL    HW117384   3.123   0.090   0.073 -1.5633  0.9236 -0.7223
 2305SOL    HW217385   3.102   0.209   0.183  1.0327  1.8323 -1.1623
 2306SOL     OW17386   7.929   1.092   2.239  0.0601  0.1227  0.1777
 2306SOL    HW117387   7.930   0.997   2.271  1.2985  0.1044  0.1004
 2306SOL    HW217388   8.022   1.122   2.219 -0.4914  0.7847 -1.5021
 2307SOL     OW17389   1.848   3.784   1.755  0.0522 -0.6648 -0.7557
 2307SOL    HW117390   1.937   3.763   1.795 -0.0656  1.4473  0.6936
 2307SOL    HW217391   1.784   3.710   1.776  0.6052 -0.6538  1.0454
 2308SOL     OW17392   2.105   1.247   3.560 -0.1934  0.1056 -0.1041
 2308SOL    HW117393   2.147   1.173   3.508 -0.4246 -1.1077  1.4087
 2308SOL    HW217394   2.005   1.243   3.548 -0.2301 -0.0357  0.2486
 2309SOL     OW17395   9.777   2.561   3.693 -0.4880 -0.1200 -0.0203
 2309SOL    HW117396   9.712   2.601   3.758 -1.2838 -0.3646 -0.6589
 2309SOL    HW217397   9.866   2.604   3.705 -0.5211 -0.4137  1.4861
 2310SOL     OW17398   1.162   4.500   1.809 -0.3289  0.3677  0.2191
 2310SOL    HW117399   1.178   4.403   1.829 -0.9631  0.5245  1.5764
 2310SOL    HW217400   1.249   4.546   1.796  0.0406 -0.1203  0.9067
 2311SOL     OW17401   9.968   2.758   3.027 -0.2743 -0.4657  0.1375
 2311SOL    HW117402  10.014   2.718   3.107  0.4404  0.7760  0.3580
 2311SOL    HW217403  10.024   2.832   2.990 -2.3260  1.4192  0.7049
 2312SOL     OW17404   0.760   1.308   1.669  0.2203  0.3630  0.0265
 2312SOL    HW117405   0.806   1.390   1.704 -0.0923  1.0225 -1.1092
 2312SOL    HW217406   0.702   1.333   1.592 -0.2449 -0.8574 -0.0162
 2313SOL     OW17407   1.039   8.079   2.165 -0.3708 -0.3390  0.0861
 2313SOL    HW117408   1.027   8.152   2.232 -0.4196 -0.4377  0.1844
 2313SOL    HW217409   1.116   8.021   2.190  0.5597  0.5157 -0.7457
 2314SOL     OW17410   9.236   4.986   3.949  0.2680  0.4187 -0.2013
 2314SOL    HW117411   9.181   4.989   4.033  1.0213  1.7439  0.2588
 2314SOL    HW217412   9.180   4.953   3.874 -1.3170  2.2010  0.1539
 2315SOL     OW17413   0.125   1.006   3.364  0.1691 -0.0790 -0.2353
 2315SOL    HW117414   0.045   0.966   3.408 -0.5822  1.4186 -0.2200
 2315SOL    HW217415   0.123   0.984   3.266 -0.6267  0.5132 -0.3609
 2316SOL     OW17416   1.516   5.505   2.618 -0.1820 -1.1341  0.0672
 2316SOL    HW117417   1.486   5.410   2.617  0.0061 -1.2317  1.8811
 2316SOL    HW217418   1.532   5.534   2.712 -2.4718  1.4219 -0.2716
 2317SOL     OW17419   7.971   1.847   0.301  0.0737  0.1897  0.5709
 2317SOL    HW117420   7.917   1.793   0.364  0.7414  0.9524  1.8114
 2317SOL    HW217421   8.058   1.802   0.284 -0.9893 -1.1441 -1.5898
 2318SOL     OW17422   9.321   2.771   2.683  0.8788 -0.3178  0.3436
 2318SOL    HW117423   9.313   2.727   2.773  1.2967  1.0827  1.0880
 2318SOL    HW217424   9.398   2.835   2.685  0.7915 -0.1646 -0.9762
 2319SOL     OW17425   3.590   3.819   1.127  0.0814 -0.2876  0.2668
 2319SOL    HW117426   3.666   3.863   1.174  1.1808 -0.1050 -1.6257
 2319SOL    HW217427   3.544   3.886   1.068 -0.0682 -0.9542 -0.3810
 2320SOL     OW17428   0.515   2.377   4.015 -0.4345  0.0535  0.4643
 2320SOL    HW117429   0.548   2.455   4.069 -1.9892 -0.1980  1.8314
 2320SOL    HW217430   0.431   2.403   3.968 -0.6847 -0.6489  0.5314
 2321SOL     OW17431   1.544   5.668   3.751 -0.0550 -0.3665 -0.0268
 2321SOL    HW117432   1.456   5.712   3.764  0.0529 -0.5847  1.5654
 2321SOL    HW217433   1.538   5.572   3.781  0.0567 -1.0916 -2.2293
 2322SOL     OW17434   9.342   3.666   3.881  0.2640 -0.1624  0.0568
 2322SOL    HW117435   9.265   3.603   3.884  1.3075 -1.4914 -0.6257
 2322SOL    HW217436   9.410   3.634   3.815  1.9551  0.3529  1.4918
 2323SOL     OW17437   1.814   4.712   3.972  0.1943  0.6078 -0.3671
 2323SOL    HW117438   1.717   4.739   3.973 -0.5361 -1.9130  1.5482
 2323SOL    HW217439   1.862   4.761   4.045  0.3785  1.8731 -1.3274
 2324SOL     OW17440   3.379   3.697   3.457  0.6749 -0.4147 -0.0405
 2324SOL    HW117441   3.478   3.708   3.446  0.7770 -1.4035 -0.1457
 2324SOL    HW217442   3.332   3.761   3.396  1.2433  0.1734  0.1273
 2325SOL     OW17443   3.009   6.335   3.332 -0.0120 -0.1090  0.4873
 2325SOL    HW117444   2.931   6.397   3.324  1.7524  2.1528  0.1478
 2325SOL    HW217445   2.983   6.244   3.299 -2.1884  0.8532 -0.5740
 2326SOL     OW17446   0.217   2.173   0.965 -0.3062  0.2365 -0.4800
 2326SOL    HW117447   0.246   2.125   1.048 -0.9897 -0.6665 -0.7577
 2326SOL    HW217448   0.295   2.179   0.902  0.1572  0.7342  0.1263
 2327SOL     OW17449   2.539   7.746   1.339 -0.4401  0.3316  0.5987
 2327SOL    HW117450   2.468   7.760   1.270  0.9112 -0.1090 -0.9113
 2327SOL    HW217451   2.510   7.787   1.426 -1.6767  1.8839 -0.5297
 2328SOL     OW17452   1.797   9.218   0.361 -0.7915  0.0100  0.4905
 2328SOL    HW117453   1.705   9.181   0.374 -1.3375  0.3354 -2.0221
 2328SOL    HW217454   1.791   9.301   0.305  0.9314  0.7148  1.3372
 2329SOL     OW17455   8.229   4.001   3.637  0.1824 -0.1763  0.1198
 2329SOL    HW117456   8.182   3.951   3.564 -0.3081 -1.1596  1.1010
 2329SOL    HW217457   8.328   3.984   3.632  0.1555 -0.1776 -0.3596
 2330SOL     OW17458   9.338   2.680   1.627  0.5112 -0.3424 -0.1826
 2330SOL    HW117459   9.427   2.722   1.646 -0.2463  1.4216 -0.4258
 2330SOL    HW217460   9.266   2.747   1.645 -0.6664 -1.1777 -1.7475
 2331SOL     OW17461   9.603   9.160   4.044 -0.2522  0.1447  0.0291
 2331SOL    HW117462   9.564   9.252   4.042 -1.4755 -0.3717 -0.8501
 2331SOL    HW217463   9.579   9.112   3.960  0.0248 -1.1188  0.6567
 2332SOL     OW17464   2.178   6.423   2.807 -0.6396 -0.1603  0.3245
 2332SOL    HW117465   2.091   6.414   2.857 -0.6242 -1.0534  0.1863
 2332SOL    HW217466   2.253   6.428   2.873 -0.7435  0.1130  0.4276
 2333SOL     OW17467   5.030   0.469   3.010 -0.0944  0.0923  0.0597
 2333SOL    HW117468   5.053   0.497   3.103 -1.0413  1.0831 -0.0015
 2333SOL    HW217469   5.031   0.369   3.005 -1.1830 -0.0094  1.4331
 2334SOL     OW17470   8.383   7.643   1.345 -0.0402  0.0655  0.1470
 2334SOL    HW117471   8.344   7.735   1.334 -0.0831 -0.0578 -0.8351
 2334SOL    HW217472   8.472   7.649   1.389 -0.6592  0.4523  1.3755
 2335SOL     OW17473   9.140   0.167   3.394  0.8028 -0.7032  0.2012
 2335SOL    HW117474   9.162   0.081   3.347  1.7512 -0.4498  0.1707
 2335SOL    HW217475   9.183   0.243   3.345  1.1249 -0.3541  1.0289
 2336SOL     OW17476   2.796   2.564   3.033  0.1358  0.2664  0.5708
 2336SOL    HW117477   2.873   2.510   3.068  0.3800  1.3234  1.6904
 2336SOL    HW217478   2.831   2.635   2.971 -0.0944 -0.2478 -0.1540
 2337SOL     OW17479   2.427   7.339   3.269 -0.5576  0.4214  0.1013
 2337SOL    HW117480   2.393   7.396   3.195 -1.4358 -0.9091 -0.5499
 2337SOL    HW217481   2.439   7.245   3.236 -0.3601 -0.0500  1.4726
 2338SOL     OW17482   2.485   5.700   2.180 -0.9677 -0.5603  0.2398
 2338SOL    HW117483   2.554   5.750   2.127 -1.4621  1.0034  1.0536
 2338SOL    HW217484   2.414   5.667   2.118 -0.0786 -1.2189 -0.4531
 2339SOL     OW17485   9.984   1.699   1.376  0.2284  0.5507  0.2134
 2339SOL    HW117486   9.890   1.690   1.343  1.1148 -0.0935 -2.2410
 2339SOL    HW217487   9.986   1.689   1.475 -2.0356 -1.4289  0.0842
 2340SOL     OW17488   0.447   4.749   2.786  0.6996 -0.1659 -0.2310
 2340SOL    HW117489   0.524   4.812   2.789 -0.5522  1.3430  1.6690
 2340SOL    HW217490   0.390   4.770   2.707  2.7973 -2.0199 -2.2835
 2341SOL     OW17491   5.628   6.446   2.630  0.5971  0.3995  0.0478
 2341SOL    HW117492   5.718   6.418   2.664 -0.2458 -1.0417  1.1335
 2341SOL    HW217493   5.603   6.391   2.551 -0.6530 -1.3520  1.6189
 2342SOL     OW17494   0.992   0.650   3.556  0.1919  0.1050 -0.0216
 2342SOL    HW117495   1.021   0.608   3.470  0.7977  0.6427 -0.0828
 2342SOL    HW217496   0.940   0.584   3.610  0.8913 -0.6242 -0.2421
 2343SOL     OW17497   2.937   6.306   1.822  0.4023 -0.4248 -0.5637
 2343SOL    HW117498   2.869   6.374   1.796 -0.6912 -0.3021  2.4697
 2343SOL    HW217499   3.026   6.332   1.785  0.2356  3.2532  1.3811
 2344SOL     OW17500   8.284   9.944   2.210 -0.2234  0.1450 -0.1092
 2344SOL    HW117501   8.375   9.914   2.236 -0.9782 -1.5224  0.6411
 2344SOL    HW217502   8.287  10.042   2.186  1.9374 -0.1434 -1.1221
 2345SOL     OW17503   1.662   8.486   2.226 -0.3380 -0.5366  0.1734
 2345SOL    HW117504   1.573   8.494   2.271 -0.8084  2.6160 -1.1926
 2345SOL    HW217505   1.657   8.417   2.154 -1.1103 -1.7622  1.3889
 2346SOL     OW17506   4.510   9.695   0.682  0.5506 -0.2703  0.4829
 2346SOL    HW117507   4.528   9.647   0.596  2.1059 -0.1760  0.7422
 2346SOL    HW217508   4.559   9.650   0.756 -1.1062 -0.5936  1.4049
 2347SOL     OW17509   9.853   1.820   2.897 -0.3711 -0.3301  0.3887
 2347SOL    HW117510   9.828   1.741   2.953  0.6812 -1.0964 -0.2220
 2347SOL    HW217511   9.922   1.793   2.830 -0.8110  0.8490 -0.5458
 2348SOL     OW17512   8.384   4.620   2.780 -0.3323  0.4671  0.2053
 2348SOL    HW117513   8.442   4.701   2.781 -0.6384  0.6915  2.2553
 2348SOL    HW217514   8.311   4.631   2.713  0.2678  1.4242 -0.2893
 2349SOL     OW17515   7.221   9.683   2.677  0.0313  0.2063  0.4705
 2349SOL    HW117516   7.149   9.616   2.688 -0.2930  0.6902  1.3502
 2349SOL    HW217517   7.307   9.647   2.713  0.0805 -0.1196  0.0226
 2350SOL     OW17518   7.833   9.324   1.872  0.0279  0.0493  0.1486
 2350SOL    HW117519   7.887   9.389   1.925  1.4794 -0.3525 -0.8159
 2350SOL    HW217520   7.852   9.231   1.903  0.7196 -0.1728 -0.9260
 2351SOL     OW17521   5.272   8.337   2.200 -0.0871  0.3038 -0.2077
 2351SOL    HW117522   5.225   8.274   2.139  0.2902  0.0812 -0.2667
 2351SOL    HW217523   5.359   8.298   2.228 -0.5129  0.1494  0.9361
 2352SOL     OW17524   8.134   3.577   3.456  0.3258 -0.3070  0.2767
 2352SOL    HW117525   8.066   3.591   3.385  0.2796 -0.3151  0.3185
 2352SOL    HW217526   8.090   3.579   3.546  0.3983 -0.1951  0.3103
 2353SOL     OW17527   8.725   2.778   2.269 -0.2627 -0.3425 -0.6706
 2353SOL    HW117528   8.632   2.803   2.296 -0.1440 -0.1007 -0.4943
 2353SOL    HW217529   8.720   2.714   2.192 -0.5431  2.2258 -2.8549
 2354SOL     OW17530   1.249   5.690   2.430 -0.2851  0.0770  0.0975
 2354SOL    HW117531   1.347   5.701   2.412 -0.4468 -0.0323 -0.8629
 2354SOL    HW217532   1.231   5.708   2.527  0.5407  1.0642  0.0781
 2355SOL     OW17533   8.193   7.568   3.461  0.2368 -0.0118 -0.5631
 2355SOL    HW117534   8.102   7.609   3.473 -0.3807 -1.3264 -0.5919
 2355SOL    HW217535   8.194   7.515   3.376  0.8358 -0.4941 -0.2572
 2356SOL     OW17536   9.902   6.455   2.617 -0.3478  0.4271 -0.3493
 2356SOL    HW117537   9.900   6.453   2.517 -0.8715 -0.9682 -0.3175
 2356SOL    HW217538   9.916   6.363   2.652  1.1706  1.0987  0.8487
 2357SOL     OW17539   8.259   3.490   1.241  0.3348 -0.3260 -0.5136
 2357SOL    HW117540   8.327   3.418   1.253 -0.8689 -1.2866  0.6587
 2357SOL    HW217541   8.226   3.520   1.331  0.5899  1.4740 -0.9948
 2358SOL     OW17542   9.123   2.357   4.036 -0.4307 -0.5552  0.3377
 2358SOL    HW117543   9.215   2.320   4.024 -1.0773 -1.8737 -0.7066
 2358SOL    HW217544   9.102   2.420   3.960  0.6118  1.9371  2.0288
 2359SOL     OW17545   1.004   6.076   1.895 -0.0957  0.1700 -0.0385
 2359SOL    HW117546   0.975   6.129   1.815 -0.4149  1.1275  0.7009
 2359SOL    HW217547   1.096   6.040   1.880 -0.5554 -0.5446 -1.2602
 2360SOL     OW17548   8.983   7.868   2.852  0.0472  0.1913 -0.4472
 2360SOL    HW117549   9.052   7.937   2.830 -0.3425  1.3777  1.9023
 2360SOL    HW217550   8.893   7.910   2.858 -0.7257 -1.1339 -2.2442
 2361SOL     OW17551   1.394   0.034   0.955  0.1707 -0.3945 -0.3991
 2361SOL    HW117552   1.423   0.013   0.861  1.0664  0.4149 -0.3123
 2361SOL    HW217553   1.294   0.027   0.961  0.1678 -1.2459 -1.2049
 2362SOL     OW17554   8.698   6.989   3.296  0.4346 -0.2455  0.3847
 2362SOL    HW117555   8.687   7.069   3.237  1.6713 -0.0959  0.3396
 2362SOL    HW217556   8.767   6.928   3.257  0.4410 -0.7026  1.0936
 2363SOL     OW17557   9.964   7.448   2.592 -0.3383 -0.4995  0.7136
 2363SOL    HW117558   9.961   7.500   2.677 -0.1529 -1.9223  1.6115
 2363SOL    HW217559  10.058   7.445   2.559 -0.5389  0.7611 -0.0026
 2364SOL     OW17560   8.025   8.901   3.430 -0.7281 -0.3285 -0.0280
 2364SOL    HW117561   8.046   8.850   3.347  1.2224  1.0718 -0.4259
 2364SOL    HW217562   8.043   8.844   3.510  0.7102 -0.5336 -0.4896
 2365SOL     OW17563   8.613   9.006   0.331 -0.1704  0.1885 -0.4199
 2365SOL    HW117564   8.532   8.957   0.298  0.1542  0.5667 -1.7802
 2365SOL    HW217565   8.608   9.102   0.302  0.9324  0.1349 -0.7843
 2366SOL     OW17566   9.464   6.210   0.688 -0.3739  0.4839  0.8372
 2366SOL    HW117567   9.537   6.274   0.713 -1.8962  2.1473  1.1370
 2366SOL    HW217568   9.412   6.185   0.769  0.1901 -1.1370  0.7105
 2367SOL     OW17569   9.018   4.304   3.946  0.3175  0.6847 -0.1411
 2367SOL    HW117570   8.930   4.270   3.911  0.3507  0.8025 -0.3387
 2367SOL    HW217571   9.042   4.255   4.030 -0.6052  1.5776  0.6668
 2368SOL     OW17572   0.668   1.415   3.239  0.3291 -0.0904 -0.1585
 2368SOL    HW117573   0.659   1.318   3.264  0.6690 -0.1012 -0.0727
 2368SOL    HW217574   0.748   1.427   3.179  1.6322  0.4583  1.6234
 2369SOL     OW17575   1.719   2.973   3.561  0.2344 -0.5302 -0.4027
 2369SOL    HW117576   1.788   3.031   3.518  0.0749  0.0231  0.0849
 2369SOL    HW217577   1.695   2.898   3.499 -0.7978  0.8729 -1.7304
 2370SOL     OW17578   3.949   0.058   2.532  0.0762  0.1809 -0.4324
 2370SOL    HW117579   3.898  -0.003   2.592  0.8225  0.2062  0.2418
 2370SOL    HW217580   3.886   0.111   2.475 -0.6159 -0.2404 -0.0526
 2371SOL     OW17581   2.889   3.269   2.780 -0.6829  0.1229 -0.1496
 2371SOL    HW117582   2.803   3.231   2.747 -0.4399  0.1665 -0.8549
 2371SOL    HW217583   2.875   3.316   2.867 -1.1485 -0.8360  0.2853
 2372SOL     OW17584   9.506   6.114   2.206 -0.5450  0.2539 -0.9499
 2372SOL    HW117585   9.553   6.043   2.153  1.0641  0.6470 -0.1035
 2372SOL    HW217586   9.518   6.202   2.161 -0.5052  0.3441 -0.7641
 2373SOL     OW17587   0.585   8.790   1.273 -0.3806 -0.1301 -0.0971
 2373SOL    HW117588   0.555   8.813   1.180 -0.8224 -0.9331 -0.1559
 2373SOL    HW217589   0.589   8.874   1.328 -0.0518  0.3554 -0.8574
 2374SOL     OW17590   7.598   9.009   3.432  0.4806 -0.0420 -0.2614
 2374SOL    HW117591   7.621   8.913   3.414  1.8762  0.7096 -2.7739
 2374SOL    HW217592   7.597   9.059   3.345 -0.8553  2.0905  0.9546
 2375SOL     OW17593   5.204   7.154   2.616 -0.2288 -0.0287 -0.2771
 2375SOL    HW117594   5.228   7.057   2.612  0.7237  0.2226 -0.7884
 2375SOL    HW217595   5.145   7.177   2.539 -0.9035 -0.3207  0.1506
 2376SOL     OW17596   0.220   8.293   0.607  0.4473 -0.4094  0.3692
 2376SOL    HW117597   0.153   8.274   0.535  0.6986  1.3939 -0.3644
 2376SOL    HW217598   0.268   8.209   0.630  1.1003 -0.8395 -2.3264
 2377SOL     OW17599   5.051   8.935   0.788 -0.5355 -0.3694 -0.8304
 2377SOL    HW117600   5.027   9.002   0.718 -1.2210  2.2506  1.7905
 2377SOL    HW217601   5.151   8.928   0.794 -0.3952  1.6265 -0.1491
 2378SOL     OW17602   8.338   7.903   0.931 -0.3341  0.2812  0.0736
 2378SOL    HW117603   8.297   7.909   1.022 -0.6862 -1.8806  0.0811
 2378SOL    HW217604   8.435   7.881   0.939  0.0275  1.8275 -0.0321
 2379SOL     OW17605   3.241   8.095   0.563 -0.1824 -0.2783  0.0476
 2379SOL    HW117606   3.233   7.996   0.566  0.7071 -0.3841 -0.6266
 2379SOL    HW217607   3.315   8.125   0.624 -0.6454 -0.0051  0.4777
 2380SOL     OW17608   8.234   4.496   1.715  0.9831 -0.5554 -0.3189
 2380SOL    HW117609   8.149   4.548   1.721  0.8722 -0.5482 -1.8238
 2380SOL    HW217610   8.287   4.510   1.798  0.2829  0.7865 -0.0848
 2381SOL     OW17611   9.474   8.505   1.279 -0.1258 -0.8510 -0.4166
 2381SOL    HW117612   9.507   8.410   1.279 -0.0359 -0.8513  2.1530
 2381SOL    HW217613   9.394   8.512   1.339  1.6895  1.2650  1.8548
 2382SOL     OW17614   9.315   8.931   0.466 -0.4225  0.1621  0.0658
 2382SOL    HW117615   9.358   8.869   0.531 -1.7064  0.0369  0.8192
 2382SOL    HW217616   9.216   8.914   0.464 -0.6118  1.2810 -0.7028
 2383SOL     OW17617   0.921   8.572   0.619 -0.3897 -0.0336 -0.0550
 2383SOL    HW117618   0.936   8.598   0.714 -1.2303 -0.0428  0.0831
 2383SOL    HW217619   0.882   8.481   0.615  0.7266 -0.5016 -0.4631
 2384SOL     OW17620   3.278   9.839   3.447 -0.0583 -0.1821  0.1757
 2384SOL    HW117621   3.210   9.773   3.415 -2.0209  2.1104 -0.5390
 2384SOL    HW217622   3.370   9.804   3.428 -1.0930 -1.8042 -2.0930
 2385SOL     OW17623   1.548   6.559   4.040 -0.5001 -0.4508 -0.6707
 2385SOL    HW117624   1.505   6.582   3.953 -0.7588  0.0748 -0.4101
 2385SOL    HW217625   1.540   6.637   4.102 -0.2521 -0.7953 -0.2041
 2386SOL     OW17626   1.111   9.515   3.746  0.6235 -0.0812  0.0660
 2386SOL    HW117627   1.110   9.615   3.749  0.8303 -0.1100  1.2597
 2386SOL    HW217628   1.173   9.485   3.673 -0.8958  0.6684 -1.5676
 2387SOL     OW17629   1.494   2.171   0.230 -0.2608  0.9180 -0.0518
 2387SOL    HW117630   1.453   2.116   0.302 -0.2491 -0.3530 -0.9899
 2387SOL    HW217631   1.518   2.261   0.266 -0.9442  0.5647  1.3198
 2388SOL     OW17632   8.378   8.737   1.253  0.4968 -0.2025 -0.2796
 2388SOL    HW117633   8.328   8.794   1.188  0.8300 -1.0125 -1.2604
 2388SOL    HW217634   8.378   8.781   1.343  0.4892  1.1845 -0.9497
 2389SOL     OW17635   5.567   7.355   2.763 -0.1483  0.1519 -0.3474
 2389SOL    HW117636   5.535   7.330   2.855  1.3177  1.8368  0.6699
 2389SOL    HW217637   5.489   7.364   2.702 -1.5093  2.1838  1.5687
 2390SOL     OW17638   8.488   4.938   3.032 -0.0651 -0.0066 -0.5275
 2390SOL    HW117639   8.459   5.029   3.061  2.0678  0.8124 -0.8860
 2390SOL    HW217640   8.487   4.932   2.932 -0.5776 -0.5095 -0.4962
 2391SOL     OW17641   4.107   9.826   1.390 -0.3700  0.0710  0.2579
 2391SOL    HW117642   4.119   9.765   1.468  0.8570 -0.1252 -0.0651
 2391SOL    HW217643   4.185   9.888   1.384 -1.4514  1.4518  0.3797
 2392SOL     OW17644   0.917   4.002   3.499 -0.2216  0.4766 -0.0563
 2392SOL    HW117645   0.917   4.101   3.483  0.2892  0.3504 -0.8521
 2392SOL    HW217646   0.849   3.959   3.440  1.6433  0.0136 -1.9235
 2393SOL     OW17647   2.230   1.694   0.013 -0.1223 -0.3467 -0.4368
 2393SOL    HW117648   2.282   1.779   0.000 -1.3278  0.2568 -1.4842
 2393SOL    HW217649   2.134   1.716   0.032 -0.6887 -1.4676 -1.8614
 2394SOL     OW17650   3.111   8.519   3.683  0.0085  0.2606 -0.3735
 2394SOL    HW117651   3.177   8.593   3.664  1.2470 -0.4556  0.9903
 2394SOL    HW217652   3.031   8.557   3.729  1.2693  0.6088  1.6342
 2395SOL     OW17653   9.187   4.510   2.362 -0.1506 -0.0192  0.3693
 2395SOL    HW117654   9.235   4.566   2.429  0.5989 -0.7535  0.4570
 2395SOL    HW217655   9.148   4.569   2.291 -0.1664  0.6806  0.9534
 2396SOL     OW17656   2.291   9.622   0.238 -0.1318 -0.3082 -0.1030
 2396SOL    HW117657   2.278   9.625   0.139 -2.3277  1.0760  0.1819
 2396SOL    HW217658   2.373   9.672   0.262  0.2625 -0.4090 -1.2038
 2397SOL     OW17659   8.838   9.991   0.688 -0.3337 -0.3867 -0.1376
 2397SOL    HW117660   8.899   9.980   0.767  0.3833 -0.5662 -0.7131
 2397SOL    HW217661   8.804  10.085   0.685  0.0782 -0.2278  0.0734
 2398SOL     OW17662   5.511   7.422   1.802 -0.9432  0.3172 -0.5638
 2398SOL    HW117663   5.471   7.457   1.887  1.6672  1.8995  0.1104
 2398SOL    HW217664   5.564   7.340   1.821 -1.7185 -0.2761 -0.9647
 2399SOL     OW17665   8.571   9.206   2.034  0.9099  0.3352  0.5457
 2399SOL    HW117666   8.517   9.291   2.036  0.4399  0.0631 -0.2164
 2399SOL    HW217667   8.544   9.148   2.110 -0.7790 -0.3352 -0.5363
 2400SOL     OW17668   5.037   0.282   1.707 -0.4041  0.4783 -0.2305
 2400SOL    HW117669   5.077   0.190   1.704 -0.0497  0.5930  0.7977
 2400SOL    HW217670   4.942   0.279   1.676 -0.1805 -0.1243 -0.8510
 2401SOL     OW17671   2.444   7.889   3.991 -0.1527 -1.0184  0.1493
 2401SOL    HW117672   2.515   7.827   4.024  2.4340  2.3919  1.3066
 2401SOL    HW217673   2.437   7.882   3.891  2.8923 -0.3814 -0.1559
 2402SOL     OW17674   8.469   6.083   0.540  0.0055  0.4236 -0.1945
 2402SOL    HW117675   8.401   6.149   0.508 -0.6473 -0.5516 -0.8222
 2402SOL    HW217676   8.528   6.056   0.463  0.9114  1.0201  0.2742
 2403SOL     OW17677   9.847   4.422   1.244  0.1288 -0.2184 -0.3205
 2403SOL    HW117678   9.749   4.405   1.233 -0.0759  0.7963 -0.1393
 2403SOL    HW217679   9.893   4.338   1.272 -1.0044 -0.2523  1.5597
 2404SOL     OW17680   0.879   1.718   3.382  0.4396  0.1703 -0.3048
 2404SOL    HW117681   0.936   1.638   3.363 -0.9862 -0.7784 -0.6931
 2404SOL    HW217682   0.847   1.758   3.297 -1.0141 -0.4491 -0.0671
 2405SOL     OW17683   2.318   5.601   1.672 -0.2262 -0.1997 -0.3233
 2405SOL    HW117684   2.226   5.560   1.666  0.3676 -1.6923  0.4354
 2405SOL    HW217685   2.320   5.685   1.618 -1.7208 -0.7431 -1.2861
 2406SOL     OW17686   2.048   4.561   1.731  0.3118  0.0593  0.2179
 2406SOL    HW117687   2.147   4.561   1.740  0.4796  0.2632 -1.3890
 2406SOL    HW217688   2.023   4.533   1.638 -1.1854 -1.2934  0.9903
 2407SOL     OW17689   9.408   1.107   1.710  0.3857  0.0565 -0.0285
 2407SOL    HW117690   9.357   1.089   1.794 -0.1283  0.3779 -0.2673
 2407SOL    HW217691   9.488   1.162   1.731 -0.7172  1.6916  0.0126
 2408SOL     OW17692   8.977   1.846   3.211  0.2170  0.1598 -0.2203
 2408SOL    HW117693   8.942   1.803   3.128 -1.0984 -0.0305  0.4044
 2408SOL    HW217694   8.922   1.927   3.232  0.8943  0.5288  0.1523
 2409SOL     OW17695   2.747   7.195   0.869 -0.2894  0.4513 -0.8168
 2409SOL    HW117696   2.709   7.132   0.801 -2.1140 -0.9210  1.3512
 2409SOL    HW217697   2.822   7.150   0.918 -0.0111  0.8418 -0.8875
 2410SOL     OW17698   3.019   7.144   0.649 -0.2460 -0.4958 -0.7061
 2410SOL    HW117699   2.961   7.158   0.568 -0.5534 -1.0911 -0.5960
 2410SOL    HW217700   2.991   7.060   0.695  0.7503 -0.8206 -0.6856
 2411SOL     OW17701   3.801   6.561   2.459  0.3279 -0.3439  0.1827
 2411SOL    HW117702   3.785   6.482   2.400  1.5135  0.0922 -0.7400
 2411SOL    HW217703   3.872   6.539   2.526  2.8244  0.8898 -1.9991
 2412SOL     OW17704   8.417   6.293   1.481 -0.0818 -0.4347 -0.4706
 2412SOL    HW117705   8.417   6.301   1.381 -1.3014  1.2702 -0.3505
 2412SOL    HW217706   8.408   6.196   1.506 -1.2785 -0.7421 -2.0196
 2413SOL     OW17707   9.177   7.917   0.024  0.0326  0.3494  0.0370
 2413SOL    HW117708   9.174   8.002   0.076  0.7604 -0.0334  0.7287
 2413SOL    HW217709   9.254   7.919  -0.040  1.4215 -0.6306  1.6048
 2414SOL     OW17710   9.755   3.079   4.022  0.4697 -0.1728 -0.0935
 2414SOL    HW117711   9.724   3.174   4.012  0.2340 -0.2822 -0.3921
 2414SOL    HW217712   9.780   3.042   3.933 -0.5924 -0.7923 -0.1328
 2415SOL     OW17713   2.317   5.068   3.580  0.2154 -0.8865  0.2589
 2415SOL    HW117714   2.323   5.126   3.499  0.1713  0.4620  1.1950
 2415SOL    HW217715   2.242   5.003   3.568 -1.0787  0.6024  0.0054
 2416SOL     OW17716   9.200   8.271   2.630  0.6994 -0.4775 -0.2196
 2416SOL    HW117717   9.230   8.231   2.544 -0.3695  0.3954 -1.0145
 2416SOL    HW217718   9.278   8.313   2.676  1.3334 -1.2206 -0.6061
 2417SOL     OW17719   3.823   7.828   1.416  0.5984  0.1070 -0.1114
 2417SOL    HW117720   3.730   7.865   1.410  0.3518 -0.6270 -0.9163
 2417SOL    HW217721   3.873   7.875   1.489 -0.1204  1.1141 -0.2576
 2418SOL     OW17722   4.187   0.771   1.570  0.4994  0.1989 -0.1376
 2418SOL    HW117723   4.180   0.745   1.474  2.6537 -2.0077  0.2496
 2418SOL    HW217724   4.103   0.745   1.618 -0.7289  1.6341 -1.4722
 2419SOL     OW17725   9.738   2.581   1.940 -0.0352 -0.3690  0.0933
 2419SOL    HW117726   9.643   2.608   1.956 -0.0461 -1.0834  1.2740
 2419SOL    HW217727   9.742   2.482   1.924  0.3883 -0.1781 -1.0144
 2420SOL     OW17728   2.219   7.908   1.700 -0.4798 -0.5114 -0.0641
 2420SOL    HW117729   2.175   7.853   1.771 -1.7033 -0.0547 -0.4540
 2420SOL    HW217730   2.174   7.997   1.695  0.7929  0.1282 -0.1694
 2421SOL     OW17731   3.477   6.308   3.190 -0.0039 -0.4022  0.3550
 2421SOL    HW117732   3.506   6.314   3.285  0.0126  0.7969  0.2724
 2421SOL    HW217733   3.378   6.321   3.185 -0.0775 -0.9646  0.2521
 2422SOL     OW17734   6.269   8.747   2.028  0.5876  0.0295 -0.0860
 2422SOL    HW117735   6.260   8.668   1.968  2.6550  0.2536 -0.7155
 2422SOL    HW217736   6.240   8.829   1.979  1.6057  0.1148 -0.5488
 2423SOL     OW17737   1.826   5.966   2.294  0.3472  0.0127 -0.3379
 2423SOL    HW117738   1.881   6.047   2.312 -0.0673  0.2653 -0.1875
 2423SOL    HW217739   1.885   5.887   2.281  0.7244  0.1964  0.2549
 2424SOL     OW17740   2.768   0.593   2.967 -0.7609  0.2196  0.3482
 2424SOL    HW117741   2.712   0.669   2.934 -0.0568  1.4438  1.9337
 2424SOL    HW217742   2.771   0.594   3.067  0.3525 -1.1001  0.3418
 2425SOL     OW17743   8.884   9.774   0.324 -0.0870 -0.0721 -0.2014
 2425SOL    HW117744   8.832   9.746   0.243 -1.6848 -0.3818  0.9048
 2425SOL    HW217745   8.826   9.768   0.405  2.0563 -1.6268  1.2694
 2426SOL     OW17746   9.898   4.440   1.874 -0.3391  0.2753 -0.4825
 2426SOL    HW117747   9.907   4.509   1.803  0.6609 -1.1132 -1.7347
 2426SOL    HW217748   9.801   4.423   1.892 -0.6349 -0.2873 -2.4696
 2427SOL     OW17749   2.256   1.070   2.401 -0.2560  0.1423  0.3547
 2427SOL    HW117750   2.241   1.083   2.499  0.0153 -0.4053  0.4729
 2427SOL    HW217751   2.188   1.121   2.349  0.1566  1.1676  0.8215
 2428SOL     OW17752   9.584   2.408   0.208 -0.0278  0.3224 -0.4165
 2428SOL    HW117753   9.645   2.485   0.187 -0.4367  0.3306 -1.6114
 2428SOL    HW217754   9.540   2.424   0.297  2.9923 -0.5087  1.2932
 2429SOL     OW17755   2.728   5.253   3.564 -0.4118  0.0934 -1.0217
 2429SOL    HW117756   2.783   5.282   3.642 -0.4241 -1.0679 -0.5690
 2429SOL    HW217757   2.640   5.300   3.566 -1.3752 -1.7457  1.0465
 2430SOL     OW17758   3.212   9.550   2.482  0.0139 -0.1399  0.1749
 2430SOL    HW117759   3.173   9.642   2.490  1.0715  0.3848 -0.6374
 2430SOL    HW217760   3.288   9.551   2.418 -1.1315 -1.9736 -1.2859
 2431SOL     OW17761   1.092   3.492   2.918  0.0851  0.3371 -0.3599
 2431SOL    HW117762   1.159   3.428   2.880 -0.2031  0.3437 -0.8721
 2431SOL    HW217763   1.052   3.547   2.845 -1.1985 -0.3438 -0.1990
 2432SOL     OW17764   9.404   0.540   2.991  0.1220 -0.1943  0.2258
 2432SOL    HW117765   9.454   0.624   3.012 -1.6079  0.5242  1.5925
 2432SOL    HW217766   9.453   0.489   2.920  0.9505  2.1996 -0.9759
 2433SOL     OW17767   3.333   2.520   0.300  0.2155 -0.2659  0.4600
 2433SOL    HW117768   3.376   2.555   0.216 -0.4292 -1.0050 -0.1766
 2433SOL    HW217769   3.313   2.423   0.290 -0.5719 -0.1819  1.1884
 2434SOL     OW17770   6.759   9.373   2.292 -0.6376 -0.8343  0.0981
 2434SOL    HW117771   6.770   9.397   2.388 -0.1371 -0.6602  0.0034
 2434SOL    HW217772   6.670   9.330   2.277 -0.1009 -2.2789  0.9244
 2435SOL     OW17773   9.581   0.704   2.009 -0.1114 -0.5792  0.1450
 2435SOL    HW117774   9.565   0.649   1.928  0.0335 -0.7363  0.2232
 2435SOL    HW217775   9.621   0.647   2.081  0.5788 -0.2437  0.0351
 2436SOL     OW17776   2.420   2.206   2.515  0.2067 -0.2134  0.2002
 2436SOL    HW117777   2.460   2.136   2.456 -1.0529 -0.6022 -0.2065
 2436SOL    HW217778   2.335   2.239   2.474 -0.1863  0.1929  1.3375
 2437SOL     OW17779   0.837   1.977   0.629 -0.3230 -0.6008  0.6965
 2437SOL    HW117780   0.761   2.021   0.582  1.3765 -0.5365 -2.1442
 2437SOL    HW217781   0.842   1.881   0.600  1.1303 -0.3947  0.1957
 2438SOL     OW17782   4.935   7.354   2.097  0.5317 -0.6088  0.0121
 2438SOL    HW117783   4.845   7.358   2.140  0.9430 -0.9604  0.9275
 2438SOL    HW217784   4.940   7.421   2.022 -0.0790  0.2616  0.7417
 2439SOL     OW17785   4.516   0.167   2.781 -0.0003 -0.1196  0.4105
 2439SOL    HW117786   4.529   0.259   2.743  1.8878 -0.1140  1.0116
 2439SOL    HW217787   4.425   0.134   2.757  0.9274  0.0683 -3.7144
 2440SOL     OW17788   4.269   1.195   1.877  0.2781 -0.2235 -0.4079
 2440SOL    HW117789   4.282   1.134   1.955 -1.3139 -0.2561 -0.1496
 2440SOL    HW217790   4.177   1.182   1.840  0.2458  1.3795 -0.9151
 2441SOL     OW17791   5.283   9.201   1.553 -0.9904 -0.1953  0.2425
 2441SOL    HW117792   5.376   9.200   1.514 -1.7372 -1.3634 -1.5679
 2441SOL    HW217793   5.278   9.137   1.629 -0.1364  0.3773  0.7941
 2442SOL     OW17794   2.188   0.007   2.653 -0.3021 -0.2586 -0.0678
 2442SOL    HW117795   2.185  -0.026   2.558 -0.8881 -0.1741 -0.0783
 2442SOL    HW217796   2.278   0.046   2.671 -0.3146  0.0813 -0.7087
 2443SOL     OW17797   0.626   4.048   0.210 -0.3977  0.1048  0.0435
 2443SOL    HW117798   0.574   4.092   0.138 -0.3696  0.4950  0.2578
 2443SOL    HW217799   0.724   4.064   0.196 -0.3811  0.0200  0.0610
 2444SOL     OW17800   4.066   7.606   0.450 -0.0091  0.7686  0.2063
 2444SOL    HW117801   4.149   7.648   0.486  0.2442  1.1473 -0.7976
 2444SOL    HW217802   3.995   7.676   0.442  0.1172  0.8124 -0.5674
 2445SOL     OW17803   7.665   8.107   3.090 -0.0612  0.0619  0.2065
 2445SOL    HW117804   7.685   8.009   3.083 -1.5217 -0.3000  0.8343
 2445SOL    HW217805   7.656   8.146   2.999  0.0793 -0.4854 -0.0472
 2446SOL     OW17806   1.122   8.353   1.032 -0.1335 -0.0908 -0.0048
 2446SOL    HW117807   1.181   8.283   1.071  0.8472  0.7839  0.1059
 2446SOL    HW217808   1.158   8.381   0.942 -1.7272 -1.2706 -1.0226
 2447SOL     OW17809   8.280   4.452   1.464  0.0033 -0.2996 -0.1385
 2447SOL    HW117810   8.266   4.475   1.560  0.9413  0.4588 -0.1783
 2447SOL    HW217811   8.374   4.474   1.438  0.9071 -3.9546 -0.2519
 2448SOL     OW17812   7.854   2.530   3.778 -0.2351  0.1307  0.1668
 2448SOL    HW117813   7.953   2.522   3.791 -0.4882 -0.4712  1.9413
 2448SOL    HW217814   7.824   2.463   3.710  0.6525  0.7392 -0.8449
 2449SOL     OW17815   2.001   9.622   2.595  0.5743  0.1925 -0.3868
 2449SOL    HW117816   2.001   9.621   2.495  0.8184  0.7200 -0.3968
 2449SOL    HW217817   1.989   9.717   2.627 -2.4541 -0.2954  0.0958
 2450SOL     OW17818   4.556   0.704   0.419 -0.2950 -0.2151 -0.1374
 2450SOL    HW117819   4.531   0.620   0.468 -1.5539  0.2108 -0.0361
 2450SOL    HW217820   4.610   0.763   0.479 -2.1633  0.4792  0.9064
 2451SOL     OW17821   6.854   7.904   2.562  0.0632  0.2073  0.4299
 2451SOL    HW117822   6.757   7.919   2.544 -0.1157  1.8425  2.6099
 2451SOL    HW217823   6.865   7.832   2.630  0.3534  0.5289  0.7216
 2452SOL     OW17824   9.723   8.501   3.826 -0.1768  0.7077 -0.5107
 2452SOL    HW117825   9.668   8.517   3.744 -2.7157  1.1719  1.2359
 2452SOL    HW217826   9.801   8.443   3.803 -1.3143  0.1415 -3.0735
 2453SOL     OW17827   1.107   1.491   0.715  0.0510  0.1947  0.2001
 2453SOL    HW117828   1.192   1.442   0.696 -0.8251 -0.4193 -2.3218
 2453SOL    HW217829   1.121   1.588   0.696  0.4679  0.2415  0.7303
 2454SOL     OW17830   1.070   2.798   1.186 -0.3259  0.8579 -0.3372
 2454SOL    HW117831   1.058   2.753   1.275  0.7890 -0.5055 -0.8558
 2454SOL    HW217832   0.982   2.807   1.141 -0.4029 -2.3370 -0.9330
 2455SOL     OW17833   5.112   0.994   2.226  0.2444 -0.1059 -0.7408
 2455SOL    HW117834   5.071   0.951   2.307 -0.7392  0.9681 -0.6634
 2455SOL    HW217835   5.080   0.948   2.144 -0.9882  0.6229 -0.6712
 2456SOL     OW17836   9.008   0.608   1.933 -0.7794  0.0143  0.1079
 2456SOL    HW117837   9.102   0.632   1.911 -1.1398  2.3219  0.9336
 2456SOL    HW217838   8.961   0.575   1.851  0.0504  1.2222 -0.8690
 2457SOL     OW17839   7.299   9.655   1.937 -0.7387 -0.6364  0.2130
 2457SOL    HW117840   7.219   9.699   1.896  0.1758 -0.5821 -1.5525
 2457SOL    HW217841   7.349   9.604   1.866  1.4515  0.3137  1.0378
 2458SOL     OW17842   7.632   1.275   1.857  0.2596  0.2860  0.2404
 2458SOL    HW117843   7.562   1.341   1.884  0.3438  0.0311  1.0753
 2458SOL    HW217844   7.635   1.270   1.757  0.1010  1.3761  0.1752
 2459SOL     OW17845   7.886   6.884   2.860 -0.0641 -0.6178 -0.1526
 2459SOL    HW117846   7.862   6.790   2.837 -0.2810 -0.9447  1.3685
 2459SOL    HW217847   7.970   6.885   2.914  0.1491  0.0888 -0.4950
 2460SOL     OW17848   8.155   1.880   3.969  0.1777 -0.1540 -0.3971
 2460SOL    HW117849   8.223   1.916   4.033 -0.1926 -0.1253 -0.0173
 2460SOL    HW217850   8.195   1.803   3.919  0.9052  0.6452 -1.0747
 2461SOL     OW17851   3.815   1.681   1.942  0.3010 -0.7198  0.1571
 2461SOL    HW117852   3.743   1.656   2.007 -0.2319 -1.8146 -0.8275
 2461SOL    HW217853   3.794   1.641   1.852  1.2467  0.4020 -0.5763
 2462SOL     OW17854   1.577   6.372   2.962 -0.2407  0.4493  0.1279
 2462SOL    HW117855   1.513   6.443   2.989 -1.0449 -0.5138  0.8141
 2462SOL    HW217856   1.597   6.312   3.040  1.8070  0.9557  0.0256
 2463SOL     OW17857   8.761   0.252   3.054  0.0733  0.1907  0.7188
 2463SOL    HW117858   8.826   0.252   3.130  1.3555 -0.3056 -0.3782
 2463SOL    HW217859   8.673   0.287   3.087  0.8931  0.9337  2.1905
 2464SOL     OW17860   8.921   1.244   1.065  0.1708  0.0769 -0.1237
 2464SOL    HW117861   8.864   1.166   1.090 -1.5241  1.0181 -0.9494
 2464SOL    HW217862   9.017   1.216   1.062 -0.4412 -2.0355 -0.6484
 2465SOL     OW17863   1.872   9.645   1.493 -0.5671  0.4147  0.3371
 2465SOL    HW117864   1.957   9.612   1.452 -0.2941  0.7608  0.6285
 2465SOL    HW217865   1.819   9.566   1.525 -1.0872  0.1002 -1.2546
 2466SOL     OW17866   9.562   8.772   2.430  0.4025 -0.2043 -0.0686
 2466SOL    HW117867   9.590   8.806   2.340 -1.1561  0.6493 -0.2553
 2466SOL    HW217868   9.625   8.701   2.460  1.3201 -0.0343 -1.5428
 2467SOL     OW17869   2.908   8.309   1.498  0.4630  0.1606  0.5289
 2467SOL    HW117870   2.936   8.319   1.594 -0.3078  0.5308  0.7195
 2467SOL    HW217871   2.878   8.215   1.483  0.5355  0.1140  0.6669
 2468SOL     OW17872   4.050   2.707   0.158 -0.6078 -0.0635  0.1093
 2468SOL    HW117873   3.955   2.680   0.143 -0.4797 -1.2331  1.3618
 2468SOL    HW217874   4.059   2.746   0.249  0.0106  0.5764 -0.2230
 2469SOL     OW17875   0.828   9.626   2.475 -0.7584  0.1136  0.2931
 2469SOL    HW117876   0.841   9.661   2.382  0.4177 -0.8608  0.0811
 2469SOL    HW217877   0.865   9.692   2.540 -0.3456  0.1752 -0.0002
 2470SOL     OW17878   4.274   8.895   3.970 -0.4194  0.3445  0.0642
 2470SOL    HW117879   4.277   8.927   4.065 -0.2484 -0.3438  0.2938
 2470SOL    HW217880   4.276   8.974   3.909 -2.3951  0.8775  0.6541
 2471SOL     OW17881   2.727   5.984   3.579  0.3905  0.1750  0.0385
 2471SOL    HW117882   2.712   5.929   3.660  3.4035 -0.3720  0.2586
 2471SOL    HW217883   2.722   5.926   3.497 -1.1619  0.4631 -0.0872
 2472SOL     OW17884   4.496   7.748   0.230 -0.7734  0.0482  0.0434
 2472SOL    HW117885   4.494   7.723   0.134  2.2338 -0.9236  0.2010
 2472SOL    HW217886   4.509   7.666   0.286  0.9863  0.9818  1.0472
 2473SOL     OW17887   1.802   2.501   2.256 -0.5399 -0.2394 -0.0038
 2473SOL    HW117888   1.832   2.553   2.176 -2.0949 -0.0361 -0.4694
 2473SOL    HW217889   1.788   2.406   2.230  1.5225 -0.7436  0.6614
 2474SOL     OW17890   1.285   9.116   3.543  0.4401 -0.2166 -1.2089
 2474SOL    HW117891   1.285   9.215   3.560  1.7660 -0.1909 -1.2719
 2474SOL    HW217892   1.338   9.070   3.615 -1.2800 -1.0316 -0.4288
 2475SOL     OW17893   4.138   4.762   1.421  0.0845  0.6381  0.6536
 2475SOL    HW117894   4.225   4.807   1.402  1.8268 -2.0377  2.0287
 2475SOL    HW217895   4.113   4.774   1.517 -0.7569  0.8276  0.4222
 2476SOL     OW17896   2.870   0.687   0.280  0.2469  0.5767  0.4614
 2476SOL    HW117897   2.871   0.787   0.271  0.6263  0.6311  1.0567
 2476SOL    HW217898   2.811   0.661   0.357  1.5334  0.4456  1.4181
 2477SOL     OW17899   9.092   5.014   0.149 -0.1421  0.0443 -0.5185
 2477SOL    HW117900   9.170   4.951   0.158  2.3643  2.6871 -2.6140
 2477SOL    HW217901   9.061   5.041   0.240  2.2040 -0.1636  0.3985
 2478SOL     OW17902   5.929   8.239   2.076 -0.6298 -0.1428 -0.2188
 2478SOL    HW117903   5.948   8.336   2.064 -1.3167 -0.1102 -1.0803
 2478SOL    HW217904   6.013   8.187   2.058 -0.5950  0.2035 -1.1253
 2479SOL     OW17905   3.830   0.292   2.982 -0.6217 -0.9358 -0.2832
 2479SOL    HW117906   3.778   0.206   2.987 -1.3582 -0.4500  0.7009
 2479SOL    HW217907   3.777   0.360   2.933 -0.4439 -0.7665 -0.2396
 2480SOL     OW17908   3.138   0.968   0.166 -0.0515 -0.7537  0.5985
 2480SOL    HW117909   3.053   1.007   0.131 -0.7625 -0.5565  2.4832
 2480SOL    HW217910   3.134   0.868   0.159  1.0816 -0.5957 -2.6817
 2481SOL     OW17911   4.817   7.621   3.897  0.0771  0.2398 -0.5554
 2481SOL    HW117912   4.867   7.627   3.811  1.5350  0.3124  0.2844
 2481SOL    HW217913   4.864   7.674   3.967 -0.2698 -1.0319  0.6714
 2482SOL     OW17914   1.705   6.204   3.155 -1.0506 -0.0554  0.3226
 2482SOL    HW117915   1.720   6.124   3.098 -3.4565  0.3847 -1.0047
 2482SOL    HW217916   1.661   6.177   3.240 -0.6613 -0.3094  0.4404
 2483SOL     OW17917   3.814   1.200   1.131  0.2253  0.0451 -0.3649
 2483SOL    HW117918   3.730   1.149   1.150  1.2627 -1.5268  0.0747
 2483SOL    HW217919   3.871   1.203   1.213  0.4757  1.3724 -0.5701
 2484SOL     OW17920   9.098   0.523   0.542 -1.0405  0.2517  0.5617
 2484SOL    HW117921   9.073   0.458   0.470 -0.2987  0.5701  0.0078
 2484SOL    HW217922   9.075   0.616   0.512  4.4346  1.0698 -1.7752
 2485SOL     OW17923   7.811   8.213   1.888  0.0039 -0.2529  0.5292
 2485SOL    HW117924   7.722   8.196   1.846  0.4303  2.3152 -1.5669
 2485SOL    HW217925   7.883   8.170   1.833  0.1734 -1.0843  1.3965
 2486SOL     OW17926   1.384   4.068   2.097 -0.0289  0.0920 -0.1249
 2486SOL    HW117927   1.318   3.999   2.126  1.1247 -1.1459 -0.3548
 2486SOL    HW217928   1.339   4.157   2.090 -1.7290 -0.7765 -0.5559
 2487SOL     OW17929   9.493   9.209   1.612 -0.1397  0.3710  0.6227
 2487SOL    HW117930   9.473   9.306   1.628 -0.9990 -0.0041  1.8538
 2487SOL    HW217931   9.497   9.161   1.699  1.2270 -0.5363  0.0766
 2488SOL     OW17932   7.788   9.157   3.022 -0.7078  0.0574 -0.1048
 2488SOL    HW117933   7.853   9.141   3.096  0.3262  0.6729 -0.8727
 2488SOL    HW217934   7.814   9.103   2.942 -1.1469  0.3119 -0.4235
 2489SOL     OW17935   8.398   9.502   1.118  0.1333  0.2400  0.6931
 2489SOL    HW117936   8.429   9.408   1.134 -0.3948  0.3566  2.5719
 2489SOL    HW217937   8.436   9.535   1.032  0.5080 -1.6165  0.1185
 2490SOL     OW17938   1.295   3.854   1.075  0.0267  0.3736 -0.5857
 2490SOL    HW117939   1.347   3.797   1.138 -0.4885  2.2436  1.6148
 2490SOL    HW217940   1.200   3.823   1.074 -0.2806  1.2237  0.7047
 2491SOL     OW17941   4.523   4.038   0.517  0.0748  0.1785  0.6026
 2491SOL    HW117942   4.580   3.956   0.521 -1.4257 -0.8707  0.9501
 2491SOL    HW217943   4.483   4.046   0.426  1.0451  1.1005  0.2557
 2492SOL     OW17944   0.200   4.300   0.096 -0.0750 -0.0663 -0.3131
 2492SOL    HW117945   0.128   4.231   0.103 -0.9348  0.8578  0.3363
 2492SOL    HW217946   0.280   4.270   0.147 -0.2710 -0.7853 -0.4208
 2493SOL     OW17947   1.260   3.602   0.834  0.3218 -0.2123  0.2218
 2493SOL    HW117948   1.224   3.695   0.841 -1.5186 -0.5817 -3.3996
 2493SOL    HW217949   1.183   3.537   0.836  1.3064 -1.4254 -0.8496
 2494SOL     OW17950   4.200   9.676   0.371  0.3504  0.3431  0.2152
 2494SOL    HW117951   4.270   9.604   0.376  0.3222  0.4084  1.6416
 2494SOL    HW217952   4.126   9.655   0.434  0.1268  1.4123  0.3116
 2495SOL     OW17953   0.490   7.925   2.256  0.0402 -0.0931  0.2776
 2495SOL    HW117954   0.568   7.932   2.194  0.6092 -2.4719  0.6983
 2495SOL    HW217955   0.489   7.835   2.300 -1.2316  0.9924  2.5838
 2496SOL     OW17956   0.773   9.958   2.418 -0.2352 -0.3789 -0.3886
 2496SOL    HW117957   0.685  10.000   2.397 -0.8251 -1.9788 -1.2372
 2496SOL    HW217958   0.839   9.978   2.345 -0.0561  0.3318 -0.0382
 2497SOL     OW17959   2.423   8.776   1.283  0.0618 -0.4777 -0.0756
 2497SOL    HW117960   2.481   8.793   1.203 -0.1091  0.6579  0.0381
 2497SOL    HW217961   2.477   8.730   1.354  0.8000  0.4690 -0.0107
 2498SOL     OW17962   8.473   3.546   0.989 -0.3349  0.0117  0.6478
 2498SOL    HW117963   8.384   3.500   0.995 -1.1852  1.6651  1.0348
 2498SOL    HW217964   8.460   3.640   0.958  1.1921  0.5140  1.4626
 2499SOL     OW17965   2.665   4.948   0.680  0.0467  0.2773 -0.4306
 2499SOL    HW117966   2.698   4.904   0.596 -0.1170 -0.7862  0.0530
 2499SOL    HW217967   2.565   4.946   0.681  0.0327  0.8315 -0.4906
 2500SOL     OW17968   1.880   6.088   3.644  0.2390 -0.2701  0.4647
 2500SOL    HW117969   1.880   5.994   3.608  0.2879 -0.6206  1.3792
 2500SOL    HW217970   1.968   6.107   3.686 -0.1204 -0.1513  1.1637
 2501SOL     OW17971   8.747   1.570   1.342  0.2110  0.1226 -0.1247
 2501SOL    HW117972   8.686   1.536   1.413  3.1843 -2.4388  1.3031
 2501SOL    HW217973   8.800   1.494   1.305  0.6966  1.8802 -3.1649
 2502SOL     OW17974   4.756   9.164   3.754  0.1133 -0.1834 -0.3517
 2502SOL    HW117975   4.755   9.101   3.677  1.7687  0.0786 -0.6097
 2502SOL    HW217976   4.776   9.113   3.838  0.0701 -0.2103 -0.3577
 2503SOL     OW17977   7.805   1.186   2.490  0.2658 -0.1719 -0.3656
 2503SOL    HW117978   7.893   1.233   2.487 -0.1930  0.7416  0.1944
 2503SOL    HW217979   7.797   1.125   2.411  0.9042  0.6304 -1.0632
 2504SOL     OW17980   8.327   0.041   0.371  0.0089 -0.5326 -0.3790
 2504SOL    HW117981   8.245  -0.000   0.331 -0.3497  0.0308 -0.2207
 2504SOL    HW217982   8.400  -0.027   0.373  0.0627 -0.5587 -2.0890
 2505SOL     OW17983   0.001   3.327   3.539  0.0486 -0.5357  0.1223
 2505SOL    HW117984   0.068   3.395   3.510 -0.8389 -0.1480 -1.0723
 2505SOL    HW217985   0.048   3.241   3.558  0.9247 -0.1913 -0.4326
 2506SOL     OW17986   1.339   4.195   3.666 -0.1178  0.0486 -0.0825
 2506SOL    HW117987   1.327   4.170   3.762 -2.0893  1.5096  0.0881
 2506SOL    HW217988   1.282   4.137   3.609 -0.9022  0.8493 -0.1266
 2507SOL     OW17989   8.386   2.683   3.279  0.5755  0.4345 -0.0665
 2507SOL    HW117990   8.410   2.779   3.270  2.0511  0.0370 -0.5691
 2507SOL    HW217991   8.387   2.657   3.376  1.4305  0.6094 -0.0301
 2508SOL     OW17992   9.390   1.839   3.532  0.3945 -0.1193 -1.0211
 2508SOL    HW117993   9.396   1.934   3.502  2.6337  0.6899  1.7691
 2508SOL    HW217994   9.461   1.784   3.488  2.2179  0.5787  0.9816
 2509SOL     OW17995   4.114   2.558   2.929 -0.2022 -0.1540  0.2217
 2509SOL    HW117996   4.185   2.491   2.910 -1.1474 -0.8718 -0.8790
 2509SOL    HW217997   4.124   2.637   2.868  1.0178  0.7948  1.6393
 2510SOL     OW17998   7.809   2.287   3.625  0.2537 -0.3978  0.0708
 2510SOL    HW117999   7.717   2.291   3.586 -0.6050 -0.9260  1.9844
 2510SOL    HW218000   7.812   2.218   3.696  2.0782 -0.1867  0.2212
 2511SOL     OW18001   3.263   9.629   0.432 -0.5135 -0.0666 -0.3596
 2511SOL    HW118002   3.351   9.584   0.413 -0.7288 -0.0852 -1.2948
 2511SOL    HW218003   3.280   9.721   0.467 -0.0771 -0.7426  1.2700
 2512SOL     OW18004   0.992   9.397   2.412  0.0651 -0.3180 -0.6080
 2512SOL    HW118005   1.005   9.371   2.316 -1.0174 -1.5829 -0.4176
 2512SOL    HW218006   0.961   9.492   2.416  0.2742 -0.2056 -1.4989
 2513SOL     OW18007   8.200   3.412   0.993 -0.1327  0.2005 -0.0684
 2513SOL    HW118008   8.232   3.450   1.081  1.0743 -0.7965 -0.0551
 2513SOL    HW218009   8.167   3.319   1.008 -0.1572  0.1212 -0.6367
 2514SOL     OW18010   9.660   1.980   1.764  0.5681  0.5832 -0.0179
 2514SOL    HW118011   9.622   1.891   1.738 -1.0966  0.9691  0.9629
 2514SOL    HW218012   9.697   1.974   1.856 -0.8113  1.2427  0.5923
 2515SOL     OW18013   9.485   1.930   2.400  0.2795 -0.1919  0.0851
 2515SOL    HW118014   9.550   1.921   2.475  0.4384 -1.2880 -0.1828
 2515SOL    HW218015   9.454   1.840   2.370  0.3135  0.2266 -1.2522
 2516SOL     OW18016   0.839   3.975   1.993 -0.6388  0.0994 -0.2514
 2516SOL    HW118017   0.895   4.028   2.057  0.0824  0.0849 -0.8589
 2516SOL    HW218018   0.822   3.884   2.031  1.0952 -0.4559 -0.7481
 2517SOL     OW18019   7.342   3.476   0.306 -0.0162 -0.0089  0.1777
 2517SOL    HW118020   7.322   3.553   0.366 -0.6460 -0.4919  0.5978
 2517SOL    HW218021   7.375   3.399   0.360  0.9107  0.0662 -0.2774
 2518SOL     OW18022   5.620   7.465   2.110 -0.1328  0.2962  0.0610
 2518SOL    HW118023   5.700   7.432   2.161  0.2710 -0.8432 -1.2458
 2518SOL    HW218024   5.542   7.404   2.127 -0.0085 -0.0618 -0.6185
 2519SOL     OW18025   8.459   2.545   1.699 -0.1362  0.2316 -0.1034
 2519SOL    HW118026   8.377   2.549   1.756 -0.2597 -0.5528 -0.2274
 2519SOL    HW218027   8.539   2.530   1.756 -0.4371 -2.1547 -0.2735
 2520SOL     OW18028   1.454   8.350   3.329  0.1978  0.1482  0.0181
 2520SOL    HW118029   1.362   8.386   3.350  0.1649 -1.4044  2.6510
 2520SOL    HW218030   1.457   8.323   3.233 -2.3529 -0.4965  0.0823
 2521SOL     OW18031   2.091   7.712   0.162  0.5856 -0.0342  0.0638
 2521SOL    HW118032   2.064   7.690   0.256 -0.8426  1.4390  0.0160
 2521SOL    HW218033   2.166   7.652   0.134  2.3790  0.8487  2.8332
 2522SOL     OW18034   8.749   5.926   3.686  0.2425 -0.6599 -0.1471
 2522SOL    HW118035   8.722   5.833   3.661 -0.4170 -0.8535  1.3021
 2522SOL    HW218036   8.691   5.991   3.638 -1.6180 -1.0461  1.5339
 2523SOL     OW18037   9.959   0.044   1.906  0.5029  0.4007  0.9880
 2523SOL    HW118038   9.877   0.004   1.948  0.4882 -0.2070  0.3833
 2523SOL    HW218039   9.964   0.141   1.929  0.0180  0.2679  1.6585
 2524SOL     OW18040   9.986   9.773   1.141 -0.0025 -0.1822 -0.1676
 2524SOL    HW118041   9.928   9.755   1.062 -0.9545 -1.3128  0.7562
 2524SOL    HW218042  10.032   9.688   1.169  0.9400  0.3795  0.0117
 2525SOL     OW18043   1.212   5.882   0.802  0.0250  0.2047  0.2281
 2525SOL    HW118044   1.222   5.830   0.886 -1.0900 -0.2112  0.1118
 2525SOL    HW218045   1.119   5.917   0.795  0.2164  0.5562 -0.6510
 2526SOL     OW18046   0.220   0.544   2.453 -0.2307 -0.5256 -0.6598
 2526SOL    HW118047   0.279   0.526   2.375 -0.8050  0.6751 -1.3860
 2526SOL    HW218048   0.126   0.520   2.430 -0.1996 -1.4997  0.1577
 2527SOL     OW18049   1.031   1.860   3.561 -0.6229 -0.1276 -0.1764
 2527SOL    HW118050   1.024   1.952   3.524 -3.5811  0.0745  0.7379
 2527SOL    HW218051   0.990   1.795   3.498  1.5715 -0.8678 -0.8773
 2528SOL     OW18052   3.314   6.245   2.410  0.3803 -0.2069  0.0654
 2528SOL    HW118053   3.372   6.179   2.458  0.8529 -0.8038 -1.2927
 2528SOL    HW218054   3.234   6.198   2.372 -0.3159  0.3755  0.8064
 2529SOL     OW18055   8.677   7.431   1.360  0.1159 -0.2270  0.1791
 2529SOL    HW118056   8.739   7.379   1.420 -1.2856 -0.3101  1.5928
 2529SOL    HW218057   8.686   7.399   1.266  1.0316 -1.3607  0.6483
 2530SOL     OW18058   2.820   7.900   2.935  0.1303  0.0862  0.1602
 2530SOL    HW118059   2.854   7.810   2.910  0.1531  0.2791 -0.4931
 2530SOL    HW218060   2.734   7.890   2.986  0.5187 -0.3378  0.7375
 2531SOL     OW18061   3.900   2.246   2.241 -0.1818 -0.4725  0.0049
 2531SOL    HW118062   3.806   2.279   2.234 -0.4438 -1.7679 -4.4447
 2531SOL    HW218063   3.963   2.324   2.240 -1.1234  0.2866 -0.6932
 2532SOL     OW18064   8.449   9.326   2.981 -0.2516 -0.1201  0.0860
 2532SOL    HW118065   8.386   9.395   2.947  0.5293  0.2462 -0.6579
 2532SOL    HW218066   8.530   9.371   3.020  0.8383 -0.5988 -1.5402
 2533SOL     OW18067   0.565   5.404   1.768  0.5352 -0.0154  0.0560
 2533SOL    HW118068   0.588   5.411   1.865  2.9854 -0.2356 -0.4713
 2533SOL    HW218069   0.469   5.425   1.755 -0.0244 -0.7684  2.6413
 2534SOL     OW18070   4.544   3.160   2.595  0.0561 -0.1001 -0.1054
 2534SOL    HW118071   4.451   3.193   2.580 -1.2888 -3.7949 -0.5644
 2534SOL    HW218072   4.575   3.109   2.515  1.7531 -0.5158  0.7735
 2535SOL     OW18073   3.734   7.125   3.474 -0.2642 -0.3153 -0.3059
 2535SOL    HW118074   3.754   7.218   3.444 -0.6680 -0.1334 -0.0133
 2535SOL    HW218075   3.702   7.127   3.568 -1.0522 -0.6707 -0.5665
 2536SOL     OW18076   9.613   2.226   2.491  0.6243  0.0561 -0.8441
 2536SOL    HW118077   9.651   2.293   2.428  2.2691 -0.0304  0.0382
 2536SOL    HW218078   9.606   2.265   2.582 -1.8124  0.2017 -1.0397
 2537SOL     OW18079   2.074   5.967   0.748 -0.2068 -0.1501 -0.0769
 2537SOL    HW118080   2.037   6.060   0.746  0.4448  0.1310  0.5594
 2537SOL    HW218081   2.048   5.923   0.834  0.2858 -0.2235  0.0335
 2538SOL     OW18082   5.181   7.637   4.047 -0.1027 -0.5622  0.4565
 2538SOL    HW118083   5.195   7.670   3.953 -1.1792 -0.2271  0.4067
 2538SOL    HW218084   5.123   7.556   4.046 -1.4517  0.3793  0.9442
 2539SOL     OW18085   1.892   6.219   3.399 -0.2820  0.4116 -0.3811
 2539SOL    HW118086   1.980   6.266   3.403  1.6552 -2.9753 -0.4443
 2539SOL    HW218087   1.886   6.154   3.474 -2.0830 -0.4355 -1.2351
 2540SOL     OW18088   5.962   8.702   2.709  0.2810 -0.5095 -0.0704
 2540SOL    HW118089   5.880   8.739   2.753  1.0802  0.2401  0.8142
 2540SOL    HW218090   5.965   8.731   2.614 -1.2524 -1.7951 -0.5451
 2541SOL     OW18091   1.995   4.265   0.400  0.3544 -0.3583  0.1013
 2541SOL    HW118092   2.065   4.194   0.406  0.7593  0.0380  0.0965
 2541SOL    HW218093   1.981   4.292   0.305  1.0478  0.4054  0.2135
 2542SOL     OW18094   3.178   8.994   1.362 -0.6962  0.1454  0.5126
 2542SOL    HW118095   3.081   8.988   1.338 -0.4319 -0.0696 -0.5114
 2542SOL    HW218096   3.221   9.067   1.308 -0.3006  0.2946  1.0240
 2543SOL     OW18097   0.471   2.476   3.075 -0.2236 -0.5868  0.3033
 2543SOL    HW118098   0.425   2.401   3.027  1.7862 -1.3360 -0.4962
 2543SOL    HW218099   0.407   2.552   3.087 -0.3888  0.3317 -5.1497
 2544SOL     OW18100   2.471   5.499   3.120 -0.5203  0.0237 -0.0085
 2544SOL    HW118101   2.555   5.447   3.136 -0.0577  0.7471 -0.0582
 2544SOL    HW218102   2.393   5.448   3.157 -0.0258 -0.5129  0.3072
 2545SOL     OW18103   0.586   5.414   0.707  0.5076 -0.0778  0.8970
 2545SOL    HW118104   0.491   5.401   0.677  1.8662 -2.9820 -2.6210
 2545SOL    HW218105   0.596   5.385   0.802 -1.9568 -0.4597  1.0604
 2546SOL     OW18106   1.003   5.173   1.545 -0.2710 -0.2355  0.5322
 2546SOL    HW118107   0.945   5.190   1.624  1.4907 -0.7147  1.9658
 2546SOL    HW218108   1.066   5.250   1.533 -0.4616 -0.2127 -0.3484
 2547SOL     OW18109   2.594   6.269   1.502 -0.1474  0.6719  0.1662
 2547SOL    HW118110   2.536   6.341   1.463  0.2231  0.4087 -0.8844
 2547SOL    HW218111   2.566   6.180   1.464 -0.5486  0.2660  1.3899
 2548SOL     OW18112   1.809   0.947   0.054 -0.7199  0.0484  0.3048
 2548SOL    HW118113   1.857   0.959  -0.034 -0.9395  0.0497  0.1849
 2548SOL    HW218114   1.729   0.889   0.040  0.9820 -2.6111  1.1044
 2549SOL     OW18115   0.704   8.439   3.329 -0.5595  0.5130 -0.2390
 2549SOL    HW118116   0.669   8.529   3.353  1.0183  0.8404  0.8948
 2549SOL    HW218117   0.784   8.418   3.386 -1.6396 -2.1075  0.3667
 2550SOL     OW18118   8.348   4.470   3.243  0.3018 -0.5241 -0.2003
 2550SOL    HW118119   8.440   4.432   3.238  0.1073 -0.8506 -1.5105
 2550SOL    HW218120   8.351   4.568   3.222  0.2519 -0.6979 -1.0335
 2551SOL     OW18121   0.382   6.513   1.294 -0.4575 -0.1155  0.5755
 2551SOL    HW118122   0.433   6.599   1.284 -0.3621 -0.1130  1.0437
 2551SOL    HW218123   0.296   6.519   1.243 -0.9444  0.6636  1.4491
 2552SOL     OW18124   2.623   9.907   2.543 -0.4863 -0.1082  0.6520
 2552SOL    HW118125   2.546   9.936   2.486  0.1878 -0.8057 -0.6446
 2552SOL    HW218126   2.708   9.917   2.491 -0.0236 -2.4276  0.8937
 2553SOL     OW18127   8.411   7.681   0.284  0.1226 -0.0714 -0.1245
 2553SOL    HW118128   8.438   7.611   0.218  0.0244 -0.1113 -0.1222
 2553SOL    HW218129   8.415   7.643   0.376  0.9539  0.1947 -0.0423
 2554SOL     OW18130   9.087   7.730   1.959  0.6850  0.5332  0.4579
 2554SOL    HW118131   9.062   7.653   2.019  3.2348  0.6286  1.7185
 2554SOL    HW218132   9.012   7.795   1.955 -0.1109 -0.2362  2.3679
 2555SOL     OW18133   9.053   3.257   3.006 -0.0482 -0.5150 -0.2819
 2555SOL    HW118134   9.021   3.249   2.912 -1.1581 -1.7175  0.1850
 2555SOL    HW218135   9.038   3.170   3.054  3.7289 -1.0895  0.0194
 2556SOL     OW18136   1.494   6.652   1.751 -0.8618 -0.1563 -0.1390
 2556SOL    HW118137   1.423   6.601   1.800  0.0750 -1.1013  0.2632
 2556SOL    HW218138   1.572   6.667   1.812  0.0901 -0.8506 -1.1621
 2557SOL     OW18139   0.099   9.847   1.534  0.1232  0.2679 -0.5181
 2557SOL    HW118140   0.143   9.872   1.448  0.9227  1.9160  0.3456
 2557SOL    HW218141   0.084   9.748   1.536  0.6236  0.1339 -2.2955
 2558SOL     OW18142   9.734   5.137   1.421  0.2900  0.5097 -0.5606
 2558SOL    HW118143   9.798   5.204   1.459  3.4054 -2.4124 -0.3831
 2558SOL    HW218144   9.721   5.156   1.323 -0.5246  2.5811 -0.0782
 2559SOL     OW18145   0.473   3.459   4.008  0.5222 -0.5094 -0.1978
 2559SOL    HW118146   0.541   3.427   4.074  1.0841  1.9624  0.4960
 2559SOL    HW218147   0.496   3.552   3.980 -2.8485  0.5864  0.4587
 2560SOL     OW18148   9.033   8.721   0.753  0.4743  0.2157 -0.0314
 2560SOL    HW118149   9.022   8.663   0.834 -0.6263  3.0514  1.9249
 2560SOL    HW218150   9.006   8.670   0.671 -0.6885 -1.9360  1.6476
 2561SOL     OW18151   1.786   4.116   0.164 -0.1084  0.1593 -0.4748
 2561SOL    HW118152   1.827   4.208   0.168  1.4035 -0.4998 -0.3622
 2561SOL    HW218153   1.781   4.078   0.257 -1.6910  0.5254 -0.3994
 2562SOL     OW18154   2.759   9.156   2.382 -0.5442 -0.4195 -0.1661
 2562SOL    HW118155   2.666   9.182   2.357 -0.3317  0.5285  0.0254
 2562SOL    HW218156   2.818   9.237   2.383 -0.0675 -0.7583  1.2643
 2563SOL     OW18157   2.984   4.856   2.824  0.0900  0.1037 -0.1107
 2563SOL    HW118158   2.996   4.947   2.863 -0.1126 -0.5018  1.3959
 2563SOL    HW218159   2.913   4.858   2.755 -0.0582  1.0502  0.0693
 2564SOL     OW18160   4.753   0.443   2.953  0.4169  0.3289 -0.4480
 2564SOL    HW118161   4.840   0.492   2.962  0.9858 -0.2973 -2.3154
 2564SOL    HW218162   4.761   0.354   2.998  0.2549  0.8370  0.6163
 2565SOL     OW18163   1.108   3.275   3.880  0.0180 -0.3492  0.2643
 2565SOL    HW118164   1.174   3.252   3.951  0.8319 -1.6392 -0.9070
 2565SOL    HW218165   1.035   3.206   3.879 -0.1701 -0.1491  0.0424
 2566SOL     OW18166   2.102   7.339   0.951  0.3811 -0.7186  0.0597
 2566SOL    HW118167   2.123   7.392   0.869 -0.2206  1.5645  1.3268
 2566SOL    HW218168   2.153   7.254   0.950  0.1244 -0.8865 -2.8387
 2567SOL     OW18169   9.801   8.182   3.974 -0.0864 -0.9925  0.6780
 2567SOL    HW118170   9.858   8.105   4.002  2.5439 -0.2429 -2.3656
 2567SOL    HW218171   9.847   8.268   3.996  1.4758 -0.3697 -4.2402
 2568SOL     OW18172   1.146   1.434   2.676 -0.0902 -0.0023 -0.7975
 2568SOL    HW118173   1.156   1.453   2.773 -0.4084 -0.5170 -0.6619
 2568SOL    HW218174   1.089   1.353   2.663 -1.1420  0.8112 -1.4446
 2569SOL     OW18175   0.895   7.330   3.938 -0.3867  0.2144 -0.2598
 2569SOL    HW118176   0.974   7.377   3.978 -0.7257 -0.1380  0.8578
 2569SOL    HW218177   0.844   7.393   3.880  1.2186  0.2064 -1.7174
 2570SOL     OW18178   9.404   5.699   1.863  0.5756  0.6628 -0.1925
 2570SOL    HW118179   9.341   5.766   1.900 -1.7101 -0.6705 -1.5500
 2570SOL    HW218180   9.475   5.746   1.810 -0.4551  2.0534 -0.3580
 2571SOL     OW18181   3.783   0.790   1.230 -0.1178 -0.7207  0.0976
 2571SOL    HW118182   3.712   0.814   1.164 -1.0851 -0.8896  1.0665
 2571SOL    HW218183   3.783   0.857   1.305  0.0417 -1.3032  0.6228
 2572SOL     OW18184   7.044   8.801   2.636 -0.6100 -0.3516 -0.3503
 2572SOL    HW118185   6.985   8.785   2.557  0.7125 -2.1786 -1.0015
 2572SOL    HW218186   7.138   8.819   2.605 -0.5805  1.4762  0.7160
 2573SOL     OW18187   8.624   8.718   3.621 -0.2787  0.0413  0.1164
 2573SOL    HW118188   8.600   8.812   3.597 -0.9784 -0.2757 -0.4419
 2573SOL    HW218189   8.718   8.700   3.591 -0.3153  0.4028 -0.2340
 2574SOL     OW18190   0.384   6.198   0.520 -0.1121 -0.2140  0.0886
 2574SOL    HW118191   0.466   6.231   0.567  0.9481 -0.4318 -1.5702
 2574SOL    HW218192   0.389   6.222   0.423 -1.5283 -1.1605 -0.2356
 2575SOL     OW18193   8.794   7.310   1.113  0.1368  0.8602  0.0235
 2575SOL    HW118194   8.752   7.388   1.067 -0.5413  1.5250  1.7069
 2575SOL    HW218195   8.724   7.241   1.130  0.6439  0.0778 -1.0529
 2576SOL     OW18196   2.063   8.935   0.061  0.7305  0.1008  0.6146
 2576SOL    HW118197   2.130   8.957   0.132  2.2459 -1.3961 -0.3188
 2576SOL    HW218198   1.998   8.868   0.097  0.6569  0.3817  1.0167
 2577SOL     OW18199   0.305   4.488   3.286 -0.0863 -0.3684 -0.5320
 2577SOL    HW118200   0.258   4.473   3.200  0.1601 -1.1444 -0.5308
 2577SOL    HW218201   0.291   4.410   3.347 -1.2552  0.6872  0.5852
 2578SOL     OW18202   0.368   8.774   2.329  0.4663  0.6072 -0.1351
 2578SOL    HW118203   0.320   8.743   2.247  0.2109  1.1851 -0.2070
 2578SOL    HW218204   0.305   8.775   2.407  0.1403  2.1962 -0.4166
 2579SOL     OW18205   1.529   3.827   2.364 -0.1836 -0.4177 -0.6500
 2579SOL    HW118206   1.576   3.881   2.295  1.0570 -0.4731  0.1392
 2579SOL    HW218207   1.594   3.765   2.408 -0.8196  0.0559  0.9895
 2580SOL     OW18208   9.832   8.760   1.210  0.1440  0.1067 -0.3512
 2580SOL    HW118209   9.775   8.842   1.210  0.8341  0.5834 -0.3637
 2580SOL    HW218210   9.927   8.785   1.194  0.7761 -0.3965  2.4126
 2581SOL     OW18211   3.978   0.368   1.947  0.4391 -0.0135  0.0019
 2581SOL    HW118212   4.061   0.395   1.899  0.3646 -0.1549 -0.2062
 2581SOL    HW218213   3.899   0.378   1.886  0.3198 -0.0062  0.1561
 2582SOL     OW18214   4.826   3.075   1.066  0.5175  0.0944  0.1216
 2582SOL    HW118215   4.749   3.095   1.006  1.0187 -2.9216 -1.6314
 2582SOL    HW218216   4.883   3.156   1.076 -1.8213  1.8030 -0.0986
 2583SOL     OW18217   0.880   2.695   2.025 -0.0724  0.3749  1.0491
 2583SOL    HW118218   0.827   2.643   1.958 -0.3878  2.8560 -0.6852
 2583SOL    HW218219   0.934   2.632   2.081 -1.6718 -1.9058  0.1094
 2584SOL     OW18220   9.268   0.574   0.179 -0.3590 -0.5361  0.4022
 2584SOL    HW118221   9.208   0.654   0.170 -0.9381 -1.1853 -1.7169
 2584SOL    HW218222   9.362   0.606   0.193 -0.0791  0.6291 -3.5621
 2585SOL     OW18223   4.141   0.714   1.961 -0.2918  0.1945  0.2034
 2585SOL    HW118224   4.173   0.623   1.932 -1.7033 -0.9055  1.9370
 2585SOL    HW218225   4.059   0.703   2.018 -0.7426  2.6049  0.0519
 2586SOL     OW18226   0.730   0.192   1.228  0.2187  0.1229  0.0915
 2586SOL    HW118227   0.693   0.158   1.315  0.0078  0.3646  0.0941
 2586SOL    HW218228   0.821   0.153   1.214 -0.4661 -1.3255 -0.4311
 2587SOL     OW18229   2.284   4.017   2.850 -0.6742 -0.7983 -0.2295
 2587SOL    HW118230   2.216   3.980   2.913  1.1618 -1.7140  1.2625
 2587SOL    HW218231   2.260   3.992   2.757 -2.9131 -0.2599  0.1787
 2588SOL     OW18232   0.081   5.359   2.534 -0.1685 -0.3532  0.1219
 2588SOL    HW118233   0.121   5.372   2.625 -0.9826  0.8764  0.3087
 2588SOL    HW218234  -0.017   5.343   2.543  0.1575 -2.8743 -0.3707
 2589SOL     OW18235   1.733   5.606   2.480 -0.3757  0.3592 -0.6020
 2589SOL    HW118236   1.732   5.557   2.393 -0.7191  0.3392 -0.5881
 2589SOL    HW218237   1.658   5.573   2.538  1.3879 -1.4284  0.7078
 2590SOL     OW18238   8.189   6.792   3.488  0.1611 -0.0414  0.3958
 2590SOL    HW118239   8.276   6.841   3.483 -0.2468  0.5018 -1.7173
 2590SOL    HW218240   8.113   6.857   3.481 -0.4239 -0.6222  1.2142
 2591SOL     OW18241   0.028   9.053   1.009 -0.3391  0.1124 -0.0780
 2591SOL    HW118242   0.081   9.112   0.948 -2.4670 -0.0864 -2.2105
 2591SOL    HW218243  -0.021   8.985   0.954 -1.3966 -0.8220  1.9886
 2592SOL     OW18244   0.652   0.140   1.525 -0.4905 -0.2400  0.0533
 2592SOL    HW118245   0.745   0.142   1.561 -0.6298 -0.2611  0.4154
 2592SOL    HW218246   0.599   0.070   1.573 -0.8232  0.0899  0.1661
 2593SOL     OW18247   8.821   8.332   0.047 -0.0182 -0.6449  0.2811
 2593SOL    HW118248   8.793   8.286   0.131 -1.7437 -1.3573 -0.6419
 2593SOL    HW218249   8.800   8.273  -0.031  2.4673 -0.4139 -0.5947
 2594SOL     OW18250   8.773   3.296   3.525 -0.5131 -0.6506 -0.1551
 2594SOL    HW118251   8.850   3.354   3.498 -1.4706  0.9545  0.5216
 2594SOL    HW218252   8.806   3.202   3.537  1.1696 -0.1601 -0.7094
 2595SOL     OW18253   2.432   9.303   1.844  0.1412  0.2351 -0.5573
 2595SOL    HW118254   2.473   9.361   1.774 -1.0889 -0.1752 -1.6326
 2595SOL    HW218255   2.422   9.210   1.808  0.6336 -0.2759  0.5962
 2596SOL     OW18256   1.139   1.826   3.187 -0.1500  0.2153  0.1453
 2596SOL    HW118257   1.122   1.750   3.250 -0.9968  0.5355  0.3048
 2596SOL    HW218258   1.103   1.802   3.097  2.1721 -0.7642 -0.5690
 2597SOL     OW18259   7.738   2.032   0.284  0.0776 -0.2145  0.7361
 2597SOL    HW118260   7.787   1.950   0.257 -0.5650 -0.8801  1.5671
 2597SOL    HW218261   7.641   2.021   0.264  0.0923  0.6534  0.1303
 2598SOL     OW18262   4.332   1.968   2.375  0.5449 -0.0180  0.4858
 2598SOL    HW118263   4.250   1.984   2.320 -0.1597 -0.0395  1.5078
 2598SOL    HW218264   4.374   1.881   2.348 -0.9403 -1.0302  1.3520
 2599SOL     OW18265   2.887   1.553   0.703  0.0056 -0.5341 -0.3660
 2599SOL    HW118266   2.912   1.475   0.646 -0.9115 -0.5131 -0.7922
 2599SOL    HW218267   2.817   1.608   0.658  1.1147  0.9161 -0.3640
 2600SOL     OW18268   0.362   8.747   3.976 -0.7476  0.2920 -0.1015
 2600SOL    HW118269   0.348   8.773   4.071 -0.5109 -1.4348  0.4236
 2600SOL    HW218270   0.276   8.714   3.937 -0.3234 -1.3019  0.2649
 2601SOL     OW18271   4.081   2.490   3.352 -0.0735  0.1120  0.3846
 2601SOL    HW118272   4.171   2.533   3.351  0.8707 -1.7980 -0.5917
 2601SOL    HW218273   4.044   2.491   3.445  1.5334 -0.2675  1.0375
 2602SOL     OW18274   8.601   0.912   0.662  0.0578  1.2652  0.4164
 2602SOL    HW118275   8.510   0.875   0.686  0.4378 -1.4336 -2.0511
 2602SOL    HW218276   8.669   0.876   0.727  0.1435 -1.0293 -0.9015
 2603SOL     OW18277   9.224   9.219   3.054 -0.5747  0.2406 -0.1602
 2603SOL    HW118278   9.255   9.184   3.142 -1.4732 -1.9759 -0.6864
 2603SOL    HW218279   9.278   9.300   3.029  0.9192 -0.1990  1.5352
 2604SOL     OW18280   1.783   1.378   0.719  0.1276  0.0958  0.2808
 2604SOL    HW118281   1.858   1.435   0.751 -0.5121  1.3309 -0.3704
 2604SOL    HW218282   1.708   1.381   0.786 -0.1330  0.4862 -0.0264
 2605SOL     OW18283   0.841   4.632   2.592 -0.1253 -0.4397  0.0202
 2605SOL    HW118284   0.884   4.542   2.596 -1.8456 -1.2760  0.0613
 2605SOL    HW218285   0.816   4.653   2.497 -0.5131 -0.3872  0.1336
 2606SOL     OW18286   4.682   8.223   1.419  0.3042  0.1727  0.2815
 2606SOL    HW118287   4.619   8.302   1.418 -0.1905 -0.2120  0.9156
 2606SOL    HW218288   4.711   8.205   1.512  2.1037  0.9259 -0.1251
 2607SOL     OW18289   3.532   2.048   1.036 -0.3383  0.0828 -0.2166
 2607SOL    HW118290   3.535   2.048   0.936 -0.0921  0.1384 -0.2104
 2607SOL    HW218291   3.437   2.039   1.067 -0.1542 -3.9877 -0.4563
 2608SOL     OW18292   0.023   2.316   2.941  0.2011  0.2092  0.0121
 2608SOL    HW118293  -0.017   2.255   2.873 -2.8074 -0.1240  1.9931
 2608SOL    HW218294   0.081   2.263   3.003  0.9518  0.0924 -0.7865
 2609SOL     OW18295   8.653   6.894   0.002 -0.1657  0.6795 -0.2730
 2609SOL    HW118296   8.637   6.925   0.095  0.8011  0.2372  0.0410
 2609SOL    HW218297   8.675   6.797   0.002 -2.8063  0.0209 -1.2166
 2610SOL     OW18298   0.677   8.976   0.107 -0.1222 -0.3698  0.0803
 2610SOL    HW118299   0.605   9.044   0.103 -1.3295 -1.6317 -0.0368
 2610SOL    HW218300   0.735   8.993   0.187 -1.9363 -0.7134  1.4958
 2611SOL     OW18301   2.205   1.783   2.587  0.2263 -0.3879 -0.4211
 2611SOL    HW118302   2.204   1.878   2.618 -0.5607 -0.1740 -1.0810
 2611SOL    HW218303   2.183   1.723   2.664 -2.5205  0.1916 -0.6778
 2612SOL     OW18304   8.974   3.703   3.008  0.2283  0.4235  0.2944
 2612SOL    HW118305   9.021   3.635   3.064  0.9993  0.8068  0.1131
 2612SOL    HW218306   9.014   3.704   2.917  0.5781  1.5145  0.4635
 2613SOL     OW18307   8.498   2.993   3.201  0.1227  0.0507 -0.4107
 2613SOL    HW118308   8.471   3.089   3.210  0.5663  0.1019  0.3972
 2613SOL    HW218309   8.520   2.973   3.105 -1.8793  0.2396 -0.9172
 2614SOL     OW18310   7.517   2.165   3.896 -1.0494 -0.2874 -0.7190
 2614SOL    HW118311   7.475   2.089   3.946 -1.5963 -0.4881 -1.4766
 2614SOL    HW218312   7.525   2.244   3.957  1.0933 -1.4604  0.5804
 2615SOL     OW18313   2.184   5.237   1.816  0.0160  0.0754  1.0509
 2615SOL    HW118314   2.151   5.255   1.909 -0.9441 -1.4453  1.0253
 2615SOL    HW218315   2.111   5.256   1.750 -0.4508 -2.0543  0.8932
 2616SOL     OW18316   5.007   8.809   1.602 -0.0174  0.2054  0.2442
 2616SOL    HW118317   4.912   8.793   1.574 -0.1285  1.3796 -0.0825
 2616SOL    HW218318   5.011   8.891   1.658  1.1682  1.6754 -1.9091
 2617SOL     OW18319   7.757   6.103   2.990 -0.0542 -0.2064  0.5053
 2617SOL    HW118320   7.692   6.160   3.040 -2.6108 -1.6046 -1.1525
 2617SOL    HW218321   7.785   6.150   2.906 -0.2296 -0.3164  0.3846
 2618SOL     OW18322   2.029   8.767   2.103 -0.0150  0.0570 -0.1303
 2618SOL    HW118323   2.099   8.730   2.166 -0.7396 -1.2706 -0.0710
 2618SOL    HW218324   2.045   8.731   2.011 -1.0770 -0.8998  0.0467
 2619SOL     OW18325   9.485   7.799   2.239  0.5968 -0.6586  0.3155
 2619SOL    HW118326   9.404   7.758   2.197  0.4269 -0.6946  0.6767
 2619SOL    HW218327   9.538   7.847   2.169  0.3525 -0.7814  0.0481
 2620SOL     OW18328   9.532   0.668   0.197 -0.2511  0.1821  0.5134
 2620SOL    HW118329   9.594   0.601   0.238 -0.4086 -0.5066 -0.3865
 2620SOL    HW218330   9.539   0.664   0.098 -1.1320  0.6811  0.4299
 2621SOL     OW18331   9.753   2.573   1.442 -0.0569 -0.1895  0.2970
 2621SOL    HW118332   9.667   2.586   1.394  1.1823 -0.0234 -1.9371
 2621SOL    HW218333   9.795   2.486   1.414  2.1573  1.3425 -1.3352
 2622SOL     OW18334   1.067   8.033   0.461  0.1449 -0.1303 -0.3635
 2622SOL    HW118335   1.092   8.089   0.540 -0.9991 -1.6999  1.1313
 2622SOL    HW218336   1.080   7.936   0.483  1.5731 -0.5050 -2.7301
 2623SOL     OW18337   7.096   3.810   4.005  0.5771 -0.4228  0.6372
 2623SOL    HW118338   7.170   3.761   3.958  1.2735  1.5795 -0.4093
 2623SOL    HW218339   7.010   3.761   3.991  1.2720 -1.4185 -0.2893
 2624SOL     OW18340   3.081   2.714   1.609 -0.0594 -0.4357  0.2528
 2624SOL    HW118341   3.115   2.803   1.638 -0.7416  0.0018 -0.2685
 2624SOL    HW218342   3.105   2.698   1.513 -1.3755 -0.0776 -0.1517
 2625SOL     OW18343   0.918   0.699   1.080 -0.1189  0.6460  0.3464
 2625SOL    HW118344   0.863   0.651   1.148  1.4589 -0.1361  1.0731
 2625SOL    HW218345   1.014   0.698   1.107  0.5847  0.0470 -2.0494
 2626SOL     OW18346   2.855   0.355   0.765 -0.6006 -0.1504 -0.2866
 2626SOL    HW118347   2.760   0.383   0.750 -0.6909  0.1442  0.7948
 2626SOL    HW218348   2.858   0.256   0.780 -0.5055 -0.4565 -2.1821
 2627SOL     OW18349   7.984   4.985   0.553  0.0785  0.1854  0.3556
 2627SOL    HW118350   7.982   4.984   0.453 -2.1056  2.6783  0.3339
 2627SOL    HW218351   7.927   4.910   0.587 -0.9746  0.6992 -0.2660
 2628SOL     OW18352   2.281   9.183   2.494  0.1436 -0.3535  0.1204
 2628SOL    HW118353   2.322   9.096   2.469  0.5836 -0.0577 -0.2044
 2628SOL    HW218354   2.336   9.226   2.566 -0.4085 -0.6195  0.7015
 2629SOL     OW18355   8.613   8.380   1.124  0.1126  0.5529  0.1701
 2629SOL    HW118356   8.624   8.479   1.135 -1.1911  0.8040 -0.7153
 2629SOL    HW218357   8.703   8.337   1.112  0.4314  2.1906 -4.0665
 2630SOL     OW18358   9.433   5.130   1.945 -0.0621  0.3452 -0.4180
 2630SOL    HW118359   9.443   5.217   1.898 -0.3345  1.1599  0.9864
 2630SOL    HW218360   9.336   5.106   1.950  0.0604 -0.3754 -1.3861
 2631SOL     OW18361   1.670   6.162   3.800 -0.9691  0.1451 -0.2370
 2631SOL    HW118362   1.710   6.165   3.892 -1.6211  0.4225  0.0435
 2631SOL    HW218363   1.739   6.133   3.734 -0.0436  1.5607  0.0933
 2632SOL     OW18364   1.083   6.059   2.488 -0.2771 -0.5910 -0.1992
 2632SOL    HW118365   1.177   6.045   2.456 -0.7659 -0.7889 -1.5612
 2632SOL    HW218366   1.075   6.149   2.530  0.5556 -0.6345  0.0575
 2633SOL     OW18367   9.688   7.754   2.831 -0.1554 -0.0187 -0.2072
 2633SOL    HW118368   9.651   7.834   2.877  0.0474  0.1069 -0.2620
 2633SOL    HW218369   9.631   7.674   2.851  0.4276 -0.1454  0.9738
 2634SOL     OW18370   9.547   5.490   3.111 -0.1028  0.4037  0.7845
 2634SOL    HW118371   9.494   5.405   3.109 -0.1836  0.4831 -0.7971
 2634SOL    HW218372   9.486   5.568   3.102  0.0408  0.6187  1.5818
 2635SOL     OW18373   4.841   2.398   0.768  0.3467  0.5106 -0.0048
 2635SOL    HW118374   4.838   2.343   0.684  0.1283  0.2430  0.1783
 2635SOL    HW218375   4.828   2.494   0.745 -0.1316  0.3924 -0.2286
 2636SOL     OW18376   8.929   0.283   0.444  0.3706 -0.0439 -0.5254
 2636SOL    HW118377   8.891   0.373   0.424 -1.9027 -1.2650 -1.9007
 2636SOL    HW218378   8.856   0.215   0.447  1.7648 -1.5170  2.8385
 2637SOL     OW18379   3.179   7.986   2.320  0.4486  0.5302  0.8582
 2637SOL    HW118380   3.210   7.893   2.299  1.3630  1.2211 -0.8814
 2637SOL    HW218381   3.085   7.982   2.354 -0.3528 -0.8397 -1.3719
 2638SOL     OW18382   2.379   1.165   3.119  0.0920  0.0830 -0.1764
 2638SOL    HW118383   2.342   1.125   3.035  0.9340  0.3609 -0.6888
 2638SOL    HW218384   2.310   1.160   3.192  0.1341 -2.1915 -0.2590
 2639SOL     OW18385   9.393   7.438   3.065  0.8706 -0.3460 -0.1315
 2639SOL    HW118386   9.385   7.389   3.152  0.1607  1.4602  0.8481
 2639SOL    HW218387   9.345   7.387   2.993  1.2481 -1.7280  0.5886
 2640SOL     OW18388   4.104   4.784   1.117  0.4863 -0.0538  0.5353
 2640SOL    HW118389   4.153   4.797   1.203 -1.2851  0.5158  1.4808
 2640SOL    HW218390   4.021   4.731   1.133  0.1599  0.0213 -0.8329
 2641SOL     OW18391   9.350   8.900   3.142 -0.3049 -0.2325 -0.3301
 2641SOL    HW118392   9.378   8.813   3.183 -0.3552  0.5106  1.3078
 2641SOL    HW218393   9.403   8.916   3.059  0.7730 -1.0998  0.1851
 2642SOL     OW18394   1.186   0.536   3.998 -0.1058  0.0878 -0.6002
 2642SOL    HW118395   1.149   0.584   3.919 -0.4647  1.0940  0.1686
 2642SOL    HW218396   1.113   0.486   4.044 -0.1146  0.3984 -0.2740
 2643SOL     OW18397   4.064   3.541   0.514 -0.2343 -0.4171 -0.0083
 2643SOL    HW118398   4.061   3.570   0.418 -0.3060  0.0540  0.1348
 2643SOL    HW218399   3.975   3.557   0.557 -0.5120 -1.5992 -0.1409
 2644SOL     OW18400   1.287   7.704   3.231  0.0576  0.8698 -0.3545
 2644SOL    HW118401   1.289   7.654   3.318  1.0731  1.3342 -0.0959
 2644SOL    HW218402   1.381   7.713   3.197 -0.4023  0.1499 -1.8127
 2645SOL     OW18403   1.360   3.870   0.632 -0.1317  0.4370  0.1816
 2645SOL    HW118404   1.424   3.942   0.604  0.6962 -0.6013 -0.6602
 2645SOL    HW218405   1.412   3.795   0.675 -0.9824  0.3618  1.0799
 2646SOL     OW18406   9.458   4.684   0.622 -0.2581 -0.3954  0.5558
 2646SOL    HW118407   9.476   4.757   0.557 -0.1296  0.3301  1.4065
 2646SOL    HW218408   9.413   4.608   0.574  0.3433 -0.1025 -0.4884
 2647SOL     OW18409   8.863   7.028   0.244  0.1011  0.5713  0.4025
 2647SOL    HW118410   8.816   7.054   0.328  0.2141 -1.0171  0.9726
 2647SOL    HW218411   8.945   7.083   0.232 -0.2119  1.1811  1.0345
 2648SOL     OW18412   3.172   9.235   1.181 -0.2963  0.3121  0.0462
 2648SOL    HW118413   3.101   9.271   1.240  0.6803  1.8939  0.3029
 2648SOL    HW218414   3.149   9.253   1.085 -0.7642 -0.1767  0.0655
 2649SOL     OW18415   7.637   0.198   3.930  0.2373  0.0902 -0.2302
 2649SOL    HW118416   7.659   0.102   3.913  0.7161 -0.0313  1.0128
 2649SOL    HW218417   7.672   0.254   3.854 -0.9434 -0.8086 -1.4604
 2650SOL     OW18418   3.883   4.778   0.664 -0.1479 -0.4870  0.1209
 2650SOL    HW118419   3.907   4.827   0.748 -3.3490 -1.4091  1.6468
 2650SOL    HW218420   3.956   4.714   0.641  0.2766 -1.0786  2.8850
 2651SOL     OW18421   1.110   3.090   1.779 -0.2127 -0.3444  0.1708
 2651SOL    HW118422   1.058   3.112   1.695  1.0357 -0.3197 -0.6030
 2651SOL    HW218423   1.079   3.002   1.814 -1.2387 -0.0338  0.0819
 2652SOL     OW18424   2.987   5.951   2.493  0.1808  0.2220  0.2467
 2652SOL    HW118425   3.051   5.920   2.563  2.5725  1.4549 -1.3546
 2652SOL    HW218426   2.931   6.025   2.531  0.7934  0.2372  1.1510
 2653SOL     OW18427   2.317   7.974   0.210  0.3698  0.1422 -0.4930
 2653SOL    HW118428   2.273   7.888   0.185  0.7666 -0.4110  0.6517
 2653SOL    HW218429   2.388   7.995   0.144  0.4789 -0.5765 -0.6121
 2654SOL     OW18430   8.568   5.852   2.753  0.5048 -0.2356 -0.0938
 2654SOL    HW118431   8.618   5.766   2.761 -0.0749 -0.6918 -1.2986
 2654SOL    HW218432   8.482   5.845   2.805  2.4966  1.2093  3.5662
 2655SOL     OW18433   9.289   1.262   3.495 -0.2420  0.0436  0.1219
 2655SOL    HW118434   9.294   1.306   3.405  1.9166  1.5497  0.9539
 2655SOL    HW218435   9.350   1.183   3.496  1.3947  1.2974  0.9338
 2656SOL     OW18436   9.255   4.128   2.888  0.3629  0.4954 -0.0748
 2656SOL    HW118437   9.176   4.154   2.833  1.4328  0.8073 -1.5128
 2656SOL    HW218438   9.226   4.069   2.963 -1.4461  1.9277  0.3910
 2657SOL     OW18439   2.914   6.894   0.641  0.3269 -0.1439  0.1585
 2657SOL    HW118440   2.829   6.848   0.665 -0.8861  0.9966 -1.7874
 2657SOL    HW218441   2.983   6.826   0.618 -0.2084 -1.0643  1.2424
 2658SOL     OW18442   1.858   9.073   0.883  0.5135 -0.1701  0.0947
 2658SOL    HW118443   1.762   9.044   0.871  0.1059  0.3679  1.9924
 2658SOL    HW218444   1.892   9.041   0.971  2.5571 -1.5523 -1.1500
 2659SOL     OW18445   0.399   1.408   1.038  0.4222 -0.1162  0.6246
 2659SOL    HW118446   0.451   1.426   0.954  0.3323 -1.0453  0.3726
 2659SOL    HW218447   0.430   1.471   1.110 -0.2980  1.4482 -0.4227
 2660SOL     OW18448   5.506   9.590   2.093 -0.3526  0.4158 -0.7201
 2660SOL    HW118449   5.544   9.547   2.012  0.1301 -0.0744 -0.2380
 2660SOL    HW218450   5.540   9.684   2.099  0.0614  0.2735 -0.7841
 2661SOL     OW18451   3.466   5.083   0.837  0.1822  0.0426 -0.1035
 2661SOL    HW118452   3.496   5.004   0.891 -2.7791 -1.6908 -0.8512
 2661SOL    HW218453   3.460   5.163   0.896  0.5281 -0.9524  1.3045
 2662SOL     OW18454   9.759   8.373   3.481  0.5315 -0.6293  0.7226
 2662SOL    HW118455   9.679   8.425   3.513  0.0838 -0.9104  0.0791
 2662SOL    HW218456   9.800   8.324   3.557  0.6630  0.2783  1.2418
 2663SOL     OW18457   4.217   0.927   0.782  0.0115  0.6161  0.3005
 2663SOL    HW118458   4.220   0.876   0.695 -2.0408  1.6346 -0.3867
 2663SOL    HW218459   4.199   0.863   0.856 -0.1347 -0.0070 -0.2615
 2664SOL     OW18460   3.684   3.508   0.183  0.5924  0.3188  0.0502
 2664SOL    HW118461   3.729   3.421   0.204 -0.0994  0.0668  0.5142
 2664SOL    HW218462   3.741   3.583   0.217 -0.4120 -0.0795  2.7191
 2665SOL     OW18463   0.380   8.805   2.774  0.3376 -0.4600 -0.2705
 2665SOL    HW118464   0.368   8.744   2.853  0.4717 -1.1012 -0.7382
 2665SOL    HW218465   0.414   8.893   2.805 -1.1731 -0.1501  0.5722
 2666SOL     OW18466   1.567   8.196   1.042  0.6122 -0.4889  0.4909
 2666SOL    HW118467   1.564   8.274   0.980 -1.2227  0.6513  1.9381
 2666SOL    HW218468   1.602   8.116   0.994 -0.5406  0.4097 -1.9362
 2667SOL     OW18469   2.943   4.690   1.415 -0.0020  1.2872 -0.2971
 2667SOL    HW118470   2.912   4.608   1.463  1.8930 -0.7408 -2.4645
 2667SOL    HW218471   2.869   4.723   1.355  0.1006 -0.3729 -1.3750
 2668SOL     OW18472   0.937   5.719   2.941  0.4509 -0.1209 -0.6233
 2668SOL    HW118473   0.938   5.798   2.880 -2.7451  1.0584  0.7988
 2668SOL    HW218474   0.864   5.729   3.008  1.9578 -2.8560  1.5051
 2669SOL     OW18475   4.490   2.990   0.538  0.2208 -0.9615  0.1832
 2669SOL    HW118476   4.436   3.020   0.460 -3.0770  0.0554  2.7739
 2669SOL    HW218477   4.531   3.069   0.583 -0.0827 -1.2804  1.0323
 2670SOL     OW18478   9.125   3.037   1.226 -0.3944 -0.3773  0.4050
 2670SOL    HW118479   9.104   2.953   1.176 -1.7178 -0.2898  0.7928
 2670SOL    HW218480   9.126   3.114   1.163 -2.8418 -0.1511  0.6212
 2671SOL     OW18481   8.834   6.423   3.463  0.2112  0.1518 -0.2810
 2671SOL    HW118482   8.764   6.364   3.423 -0.0663  1.0675 -1.1628
 2671SOL    HW218483   8.922   6.375   3.465 -0.1119 -0.4529 -0.5548
 2672SOL     OW18484   0.667   9.309   0.405 -0.0653  0.1994 -0.8509
 2672SOL    HW118485   0.646   9.330   0.500  0.6632  1.2678 -0.9229
 2672SOL    HW218486   0.586   9.272   0.361 -0.5085  0.0330  0.0868
 2673SOL     OW18487   3.962   8.662   0.730 -0.8760 -0.2483 -0.1498
 2673SOL    HW118488   3.879   8.690   0.779 -0.0641  0.5419  0.7967
 2673SOL    HW218489   4.036   8.648   0.795 -0.1187 -0.4293 -1.0378
 2674SOL     OW18490   2.738   3.406   1.414  0.0410 -0.0440  0.1821
 2674SOL    HW118491   2.691   3.494   1.402  0.6341  0.3636  0.7947
 2674SOL    HW218492   2.741   3.358   1.326 -0.1032  0.6494 -0.2091
 2675SOL     OW18493   0.973   9.814   2.562  0.3898  0.0868  0.6301
 2675SOL    HW118494   0.915   9.881   2.516 -0.6457 -0.8313  0.5886
 2675SOL    HW218495   1.015   9.857   2.642 -1.0186  0.5186  1.1534
 2676SOL     OW18496   7.213   9.627   2.978  0.1192  0.1957  0.0594
 2676SOL    HW118497   7.194   9.699   3.045 -0.5417  0.4064 -0.3401
 2676SOL    HW218498   7.310   9.603   2.981  0.4130  1.3496 -0.0444
 2677SOL     OW18499   3.219   8.424   2.931  0.0707 -0.2140 -0.4275
 2677SOL    HW118500   3.148   8.494   2.942  2.0831  1.9723 -0.9993
 2677SOL    HW218501   3.277   8.423   3.013  1.2341  0.1499 -1.2505
 2678SOL     OW18502   3.246   8.414   0.608  0.6641  0.3523 -0.5421
 2678SOL    HW118503   3.219   8.318   0.617  3.0662 -0.3646 -0.5587
 2678SOL    HW218504   3.243   8.458   0.698  1.7182 -0.3669 -0.1394
 2679SOL     OW18505   9.026   1.709   3.882  0.1843 -0.1996 -0.1537
 2679SOL    HW118506   9.088   1.785   3.902  1.1246 -1.0634  0.2167
 2679SOL    HW218507   8.998   1.713   3.786  1.5685 -0.3656 -0.5677
 2680SOL     OW18508   1.826   7.384   1.000 -0.3526  0.0131  0.4477
 2680SOL    HW118509   1.924   7.382   0.978 -0.1966  3.0743  0.6008
 2680SOL    HW218510   1.777   7.321   0.941  1.3566  0.5955 -1.6410
 2681SOL     OW18511   2.163   8.856   0.707 -0.4899 -0.9361 -0.1679
 2681SOL    HW118512   2.168   8.896   0.616 -0.0100 -0.7583 -0.0642
 2681SOL    HW218513   2.195   8.923   0.775 -3.8797  0.0963  0.4817
 2682SOL     OW18514   0.275   8.605   1.747 -0.4293 -0.1076  0.3007
 2682SOL    HW118515   0.272   8.528   1.683  0.4261 -0.6545  0.9282
 2682SOL    HW218516   0.183   8.622   1.782 -1.5739  2.2231 -3.4813
 2683SOL     OW18517   9.154   0.819   2.704  0.3301  0.4978  0.1479
 2683SOL    HW118518   9.092   0.866   2.767 -0.1883  0.6678 -0.4811
 2683SOL    HW218519   9.129   0.842   2.610  0.2582 -0.8094 -0.1604
 2684SOL     OW18520   1.824   5.587   4.028  0.0276 -0.3742 -0.5004
 2684SOL    HW118521   1.816   5.643   3.945  2.2819 -0.4451 -0.8013
 2684SOL    HW218522   1.871   5.501   4.006 -0.3287 -0.8614  0.6330
 2685SOL     OW18523   0.052   6.047   3.690  0.0513  0.3509 -0.1737
 2685SOL    HW118524  -0.017   6.041   3.762  0.4246  0.2165  0.1813
 2685SOL    HW218525   0.134   6.092   3.727  0.1922  0.4078 -0.5533
 2686SOL     OW18526   9.582   3.833   1.240 -0.2865 -0.0939 -0.6944
 2686SOL    HW118527   9.574   3.895   1.318  1.3169 -1.0665  0.2848
 2686SOL    HW218528   9.676   3.836   1.205 -0.2191 -1.8654 -0.7058
 2687SOL     OW18529   3.274   9.782   2.724 -0.3390 -0.1806 -0.1574
 2687SOL    HW118530   3.242   9.865   2.677  2.0327  0.3061 -1.0278
 2687SOL    HW218531   3.323   9.808   2.808 -1.7758 -0.8606  0.8951
 2688SOL     OW18532   1.911   4.292   2.828  0.0109 -0.4513 -0.1170
 2688SOL    HW118533   1.823   4.298   2.874 -0.7891  0.8022 -1.7296
 2688SOL    HW218534   1.916   4.207   2.776  0.2851 -1.1285  1.0028
 2689SOL     OW18535   1.453   6.991   1.405 -0.0823  0.2769 -0.8759
 2689SOL    HW118536   1.379   6.961   1.465  1.2937 -0.8869  0.2477
 2689SOL    HW218537   1.484   7.082   1.434 -0.4641  0.3915 -0.8164
 2690SOL     OW18538   1.630   8.714   3.599  0.4317 -0.5430 -0.0837
 2690SOL    HW118539   1.651   8.671   3.686  1.4976 -1.2174 -0.6693
 2690SOL    HW218540   1.694   8.682   3.529 -0.1206  0.3412 -1.0109
 2691SOL     OW18541   1.761   8.088   2.372 -0.5611 -0.9121 -0.3454
 2691SOL    HW118542   1.823   8.124   2.303 -1.3859 -1.1665 -1.2420
 2691SOL    HW218543   1.812   8.063   2.454 -0.0197  2.6791  0.4831
 2692SOL     OW18544   2.985   2.647   1.207 -0.3337  0.1374 -0.3155
 2692SOL    HW118545   3.065   2.670   1.262 -1.3885  0.2935  1.2008
 2692SOL    HW218546   2.983   2.705   1.125  1.7130 -0.6949 -0.9812
 2693SOL     OW18547   4.099   8.026   0.281 -0.1026  0.0604 -0.3467
 2693SOL    HW118548   4.081   8.118   0.245 -0.9091  1.3423  3.1711
 2693SOL    HW218549   4.016   7.970   0.274 -0.0997  0.1220 -0.9202
 2694SOL     OW18550   0.450   4.414   0.210  0.5060  0.4786  0.5468
 2694SOL    HW118551   0.395   4.495   0.191  0.1176  0.0567 -0.1317
 2694SOL    HW218552   0.495   4.383   0.126 -0.2786 -0.6917  0.5346
 2695SOL     OW18553   1.929   9.637   3.276 -0.5329  0.0431  0.4558
 2695SOL    HW118554   1.859   9.571   3.249  1.6181 -1.9227 -0.5567
 2695SOL    HW218555   1.889   9.705   3.337 -3.1848 -1.2888  0.2950
 2696SOL     OW18556   2.695   3.888   3.104 -0.2600 -0.3951 -0.3766
 2696SOL    HW118557   2.642   3.859   3.184 -0.7003  0.6677 -0.2703
 2696SOL    HW218558   2.634   3.899   3.026 -0.6464  3.1609  0.3410
 2697SOL     OW18559   5.915   0.065   2.148  0.0809 -0.3477 -0.4343
 2697SOL    HW118560   5.922   0.136   2.218 -2.6668 -0.2464 -0.2232
 2697SOL    HW218561   5.922   0.108   2.057  1.8076 -0.2591 -0.2819
 2698SOL     OW18562   4.081   7.045   1.533  1.0061 -0.4285 -0.0715
 2698SOL    HW118563   4.045   7.080   1.447 -0.2808 -0.2369  0.5306
 2698SOL    HW218564   4.139   6.966   1.516  3.2419  1.4323 -1.3785
 2699SOL     OW18565   3.030   2.827   0.281  0.6734  0.4505  0.2290
 2699SOL    HW118566   2.933   2.849   0.280  0.7278  0.7158  0.6014
 2699SOL    HW218567   3.069   2.850   0.370  0.8788 -0.5433  0.4006
 2700SOL     OW18568   2.668   3.587   1.059 -0.0817 -0.1540 -0.1990
 2700SOL    HW118569   2.739   3.539   1.008 -0.2010  0.3380 -0.8419
 2700SOL    HW218570   2.710   3.648   1.126  0.0834 -0.6257  0.1215
 2701SOL     OW18571   2.507   0.484   0.408  0.3498  0.0770 -0.1220
 2701SOL    HW118572   2.578   0.414   0.403 -1.8949 -2.3351  0.5961
 2701SOL    HW218573   2.452   0.483   0.324  0.9365  1.7284 -0.5538
 2702SOL     OW18574   2.660   6.146   2.291 -0.4317  0.4134 -0.2826
 2702SOL    HW118575   2.742   6.203   2.288 -0.4174  0.4209  0.2791
 2702SOL    HW218576   2.668   6.079   2.365  0.6605 -1.9732 -2.4562
 2703SOL     OW18577   9.294   8.676   3.443 -0.0101  0.2449 -0.0217
 2703SOL    HW118578   9.257   8.614   3.373  1.0391 -1.7770  1.1644
 2703SOL    HW218579   9.394   8.679   3.434  0.3679 -1.8128  2.7494
 2704SOL     OW18580   1.662   7.927   3.019  0.0971  0.4231 -0.4624
 2704SOL    HW118581   1.628   7.976   3.099 -2.3703 -0.4775 -0.9142
 2704SOL    HW218582   1.688   7.992   2.948 -1.8510  1.1297 -0.5479
 2705SOL     OW18583   2.803   6.487   0.900 -0.0903  0.0837 -0.0716
 2705SOL    HW118584   2.780   6.486   0.997  0.0371 -0.2721 -0.0430
 2705SOL    HW218585   2.872   6.416   0.881 -0.4859 -0.1856 -0.5099
 2706SOL     OW18586   4.040   9.231   3.227  0.0757  0.2398  0.4681
 2706SOL    HW118587   4.030   9.237   3.127 -2.1049 -1.2729  0.5683
 2706SOL    HW218588   4.130   9.192   3.248 -0.5719 -2.2409 -1.0402
 2707SOL     OW18589   0.816   9.527   3.763  0.1345 -0.8669  0.3733
 2707SOL    HW118590   0.795   9.430   3.775  0.6451 -0.9698  0.4219
 2707SOL    HW218591   0.914   9.539   3.753  0.0375 -0.3947 -0.0273
 2708SOL     OW18592   3.158   1.373   2.259 -0.1719 -0.1082 -0.1439
 2708SOL    HW118593   3.146   1.442   2.187 -0.9548  0.6596  0.7112
 2708SOL    HW218594   3.215   1.298   2.224 -0.8574  0.0654 -1.6843
 2709SOL     OW18595   8.355   5.711   1.084  0.2415 -0.1008 -0.2867
 2709SOL    HW118596   8.340   5.613   1.068  1.0218 -0.2247 -0.2494
 2709SOL    HW218597   8.271   5.761   1.063 -0.1073 -0.7600 -0.4683
 2710SOL     OW18598   1.891   7.285   3.087  0.9159 -0.1597 -0.2315
 2710SOL    HW118599   1.914   7.269   3.183  1.4598  1.1504 -0.1269
 2710SOL    HW218600   1.899   7.200   3.036 -1.6890 -1.4116  1.3344
 2711SOL     OW18601   0.630   3.617   1.204 -0.3491 -0.5619  0.4120
 2711SOL    HW118602   0.693   3.595   1.277  1.9135  2.1934 -0.6224
 2711SOL    HW218603   0.601   3.712   1.212 -0.1552 -0.2349 -2.1763
 2712SOL     OW18604   1.595   1.602   0.825 -0.5694 -1.0119 -0.2478
 2712SOL    HW118605   1.520   1.624   0.762  1.0166  0.9774 -1.4755
 2712SOL    HW218606   1.679   1.647   0.795  0.3797 -0.5103  2.9614
 2713SOL     OW18607   7.768   0.274   3.323 -0.1829  0.7740 -0.2064
 2713SOL    HW118608   7.771   0.313   3.415  1.1776 -0.4603  0.2969
 2713SOL    HW218609   7.746   0.346   3.257 -0.6739  1.7735  1.0156
 2714SOL     OW18610   1.285   1.463   3.640  0.0421 -0.4080 -0.3546
 2714SOL    HW118611   1.195   1.462   3.683  1.2662 -2.3484  2.3007
 2714SOL    HW218612   1.314   1.558   3.626 -1.5851  0.2373  0.5431
 2715SOL     OW18613   2.023   4.933   3.027  0.3063 -0.5009  0.3394
 2715SOL    HW118614   2.081   4.870   3.079 -0.6576 -0.7606  1.1118
 2715SOL    HW218615   2.068   5.021   3.019  0.1714 -0.2475  2.2102
 2716SOL     OW18616   8.205   4.464   0.181  0.0523 -0.0691  0.3520
 2716SOL    HW118617   8.293   4.416   0.192  0.4608  0.7899  0.9546
 2716SOL    HW218618   8.155   4.426   0.104  1.6141  0.4082 -0.9229
 2717SOL     OW18619   4.976   0.684   1.795 -0.8964 -0.0283  0.0140
 2717SOL    HW118620   4.890   0.729   1.770  0.1005  1.4227 -0.8867
 2717SOL    HW218621   5.006   0.624   1.720 -1.3377 -0.8593  0.5009
 2718SOL     OW18622   1.297   6.810   2.811  0.6918 -0.0886  0.1569
 2718SOL    HW118623   1.347   6.896   2.816  0.2067  0.3120 -1.7377
 2718SOL    HW218624   1.201   6.826   2.838  0.5818 -0.0238 -0.2769
 2719SOL     OW18625   4.427   7.946   3.173  0.2499 -0.6467  0.3038
 2719SOL    HW118626   4.449   7.864   3.226 -0.6132 -1.0478  0.0598
 2719SOL    HW218627   4.372   8.008   3.229  0.5174 -0.4445  0.3390
 2720SOL     OW18628   0.436   3.460   2.318 -0.3283  0.2484 -0.1127
 2720SOL    HW118629   0.502   3.428   2.250 -0.5914  0.1365 -0.3132
 2720SOL    HW218630   0.344   3.430   2.293 -0.3177 -0.5376  0.7411
 2721SOL     OW18631   8.858   2.488   2.612 -0.0630  0.4164  0.0752
 2721SOL    HW118632   8.913   2.526   2.537  0.0768  1.4679  0.6985
 2721SOL    HW218633   8.810   2.563   2.659 -1.3782 -0.4023  0.0581
 2722SOL     OW18634   8.784   4.858   1.755  0.5644  1.0185  0.4154
 2722SOL    HW118635   8.749   4.768   1.783  1.8556  0.9307  1.7951
 2722SOL    HW218636   8.838   4.847   1.672 -0.7638  0.8137 -0.4480
 2723SOL     OW18637   9.085   8.987   2.301  0.5747  0.2242  0.0331
 2723SOL    HW118638   9.012   8.948   2.357 -0.4620 -0.0641 -1.4849
 2723SOL    HW218639   9.169   8.935   2.315 -0.5881 -2.1210 -1.3693
 2724SOL     OW18640   3.959   8.947   2.424  0.8063  0.0529 -0.1517
 2724SOL    HW118641   4.033   8.940   2.490  0.1818 -1.0742  0.4425
 2724SOL    HW218642   3.992   8.918   2.334  0.9440 -0.9938  0.2281
 2725SOL     OW18643   9.015   3.482   0.901 -0.0721  0.0604  0.5390
 2725SOL    HW118644   8.946   3.530   0.847  0.0840  0.5246  0.7401
 2725SOL    HW218645   9.040   3.397   0.857 -0.0012  0.4016 -0.0809
 2726SOL     OW18646   1.527   7.103   2.962  0.1658 -0.0252  0.3705
 2726SOL    HW118647   1.452   7.129   2.901  0.3831 -0.1652  0.0404
 2726SOL    HW218648   1.521   7.155   3.047  0.9376  1.5202 -0.5173
 2727SOL     OW18649   0.802   4.556   3.144  0.9838  0.2774  0.2367
 2727SOL    HW118650   0.706   4.532   3.149  0.8672  0.4012 -1.0506
 2727SOL    HW218651   0.817   4.615   3.064  2.1655  0.0545  0.2846
 2728SOL     OW18652   7.615   9.939   2.812  0.3441  0.1344 -0.9955
 2728SOL    HW118653   7.622  10.012   2.881  1.1774  0.1763 -1.1171
 2728SOL    HW218654   7.578   9.977   2.727  0.3863  0.3282 -0.9280
 2729SOL     OW18655   4.306   1.063   1.357  0.0775 -0.1177  0.6345
 2729SOL    HW118656   4.395   1.018   1.366  0.2620 -0.0657 -0.9127
 2729SOL    HW218657   4.271   1.084   1.448  0.3282 -2.7365  1.3814
 2730SOL     OW18658   8.517   9.792   0.729 -0.6390 -0.5193 -0.7566
 2730SOL    HW118659   8.419   9.795   0.706 -0.5202 -0.5818 -1.2660
 2730SOL    HW218660   8.544   9.877   0.773 -0.7437 -0.1954 -1.3211
 2731SOL     OW18661   9.643   0.132   0.817  0.1867 -0.2847 -0.6650
 2731SOL    HW118662   9.654   0.062   0.888  2.2044  2.3090  1.6909
 2731SOL    HW218663   9.564   0.189   0.839 -1.2736 -1.5967 -2.4167
 2732SOL     OW18664   8.972   8.876   1.005 -0.1273  0.1827 -0.4083
 2732SOL    HW118665   9.058   8.884   1.057 -1.6317  1.9268  1.8941
 2732SOL    HW218666   8.976   8.935   0.924  0.6921  0.5208 -0.1234
 2733SOL     OW18667   1.442   7.195   0.174  0.2838  0.1308 -0.1192
 2733SOL    HW118668   1.468   7.200   0.078  1.3605  0.5905  0.1900
 2733SOL    HW218669   1.514   7.236   0.231 -0.9909  1.1578  0.7863
 2734SOL     OW18670   4.316   9.673   3.144 -0.3259 -0.2342 -0.0047
 2734SOL    HW118671   4.307   9.676   3.044 -1.8703  1.0227  0.1468
 2734SOL    HW218672   4.266   9.594   3.179  0.7535 -1.0392 -0.2768
 2735SOL     OW18673   3.563   1.382   0.426  0.2259  0.5267  0.3441
 2735SOL    HW118674   3.496   1.431   0.371  1.2711  2.0882  0.4165
 2735SOL    HW218675   3.619   1.324   0.367  0.3743  1.0646 -0.0485
 2736SOL     OW18676   2.799   8.158   0.665 -0.8194 -0.3353  0.0419
 2736SOL    HW118677   2.838   8.250   0.676 -1.1641  0.0469 -1.7445
 2736SOL    HW218678   2.710   8.165   0.621 -1.1334 -1.4959  0.4748
 2737SOL     OW18679   0.940   3.210   2.796  0.0617  0.0736 -0.4907
 2737SOL    HW118680   1.006   3.189   2.869 -1.5773 -1.1459  0.6970
 2737SOL    HW218681   0.988   3.250   2.718  1.6093  3.2412  1.9869
 2738SOL     OW18682   8.152   9.654   3.938  0.1965  0.1518  0.0596
 2738SOL    HW118683   8.145   9.573   3.878  2.0332  0.4706 -0.6133
 2738SOL    HW218684   8.203   9.630   4.020  0.0712  0.4345  0.2199
 2739SOL     OW18685   7.643   0.448   3.142  0.0357 -0.2117 -0.4866
 2739SOL    HW118686   7.685   0.400   3.064  1.9688 -0.1882  0.5035
 2739SOL    HW218687   7.616   0.540   3.114  1.1165 -0.0530 -1.0245
 2740SOL     OW18688   0.223   6.140   2.882 -0.0912  0.3450 -0.0572
 2740SOL    HW118689   0.235   6.177   2.790 -0.0269 -0.8240 -0.5373
 2740SOL    HW218690   0.259   6.204   2.949 -0.6445  1.4529 -0.8106
 2741SOL     OW18691   2.815   9.432   0.741 -0.5322 -0.1229  0.5642
 2741SOL    HW118692   2.871   9.447   0.822 -1.8044  0.1862  1.4192
 2741SOL    HW218693   2.731   9.487   0.749 -0.9228 -0.5226 -0.6979
 2742SOL     OW18694   4.860   0.087   1.462  0.4234 -0.2058 -0.1097
 2742SOL    HW118695   4.886   0.026   1.536 -0.4629  0.7732  1.0265
 2742SOL    HW218696   4.769   0.060   1.428  2.2662 -2.8565 -3.2451
 2743SOL     OW18697   6.759   9.357   1.639  0.1924 -0.4753 -0.3616
 2743SOL    HW118698   6.859   9.359   1.649  0.1026 -1.2588  0.7405
 2743SOL    HW218699   6.719   9.301   1.712 -1.0996  0.3293 -0.4374
 2744SOL     OW18700   2.611   0.910   2.058 -0.2376  0.4508 -0.0103
 2744SOL    HW118701   2.608   0.960   1.972  0.6077  1.4383  0.5324
 2744SOL    HW218702   2.605   0.812   2.040  1.9513  0.5493 -1.3170
 2745SOL     OW18703   3.274   9.445   3.475 -0.5630  0.5100 -0.1576
 2745SOL    HW118704   3.247   9.449   3.379 -0.8849 -1.2386 -0.1597
 2745SOL    HW218705   3.224   9.371   3.521  1.5527 -0.4360  0.6956
 2746SOL     OW18706   0.108   0.108   3.943  0.4009 -0.0046  0.5213
 2746SOL    HW118707   0.027   0.129   3.998  0.5482 -0.6818  1.0007
 2746SOL    HW218708   0.184   0.083   4.003  0.6779 -0.3480  0.0320
 2747SOL     OW18709   9.965   2.881   2.074  0.4707 -0.5108  0.0610
 2747SOL    HW118710  10.046   2.862   2.131  1.6946 -0.4860 -1.6246
 2747SOL    HW218711   9.978   2.840   1.984 -0.9060  0.5118 -0.6110
 2748SOL     OW18712   7.412   0.652   0.949  0.4511 -0.6045 -0.8411
 2748SOL    HW118713   7.337   0.640   0.883  0.9328 -1.0313 -1.3181
 2748SOL    HW218714   7.494   0.682   0.901  0.6213 -0.2686 -0.3378
 2749SOL     OW18715   0.047   8.520   2.728  0.6624  0.5313  0.5378
 2749SOL    HW118716   0.052   8.609   2.772 -1.4579  0.6997  0.4997
 2749SOL    HW218717   0.088   8.450   2.786 -0.3810  1.0631  1.9398
 2750SOL     OW18718   7.780   2.194   2.220 -0.1234 -0.4584 -0.1510
 2750SOL    HW118719   7.757   2.097   2.213  3.3110 -1.1512 -3.3396
 2750SOL    HW218720   7.845   2.208   2.295 -0.8173 -0.5769  0.4735
 2751SOL     OW18721   5.506   8.226   2.296 -0.2025  0.5622 -0.4904
 2751SOL    HW118722   5.587   8.168   2.295  0.0294  0.8919 -0.5941
 2751SOL    HW218723   5.493   8.265   2.388 -0.8343 -0.3219 -0.1937
 2752SOL     OW18724   3.125   5.186   3.634 -0.1389 -0.2338 -0.4776
 2752SOL    HW118725   3.088   5.123   3.566 -2.7856  1.3928 -0.5932
 2752SOL    HW218726   3.065   5.190   3.713 -1.2701  3.8023 -1.4113
 2753SOL     OW18727   3.282   9.033   2.887  0.2785 -0.0171  0.0652
 2753SOL    HW118728   3.350   9.051   2.959  1.4715 -0.2019 -1.0048
 2753SOL    HW218729   3.256   8.937   2.889 -1.0251  0.3476  1.3911
 2754SOL     OW18730   3.585   3.638   2.904  0.1060 -0.1446  0.0678
 2754SOL    HW118731   3.561   3.612   2.998  0.2147  0.2359  0.2016
 2754SOL    HW218732   3.604   3.556   2.851 -1.0755 -0.4290  0.0732
 2755SOL     OW18733   0.957   8.382   1.491  0.0229  0.1996 -0.0588
 2755SOL    HW118734   0.945   8.415   1.397  1.0554  0.4866 -0.1023
 2755SOL    HW218735   1.051   8.402   1.521 -0.8163  1.7109  1.6642
 2756SOL     OW18736   6.687   8.669   2.669  0.4927  0.1719  0.2159
 2756SOL    HW118737   6.748   8.715   2.604 -0.1041  0.2004 -0.3287
 2756SOL    HW218738   6.611   8.729   2.691 -1.3474 -1.2270 -1.9997
 2757SOL     OW18739   3.164   2.783   1.369  0.4056 -0.4212  0.2768
 2757SOL    HW118740   3.252   2.801   1.415 -0.1185  1.4899  0.6045
 2757SOL    HW218741   3.105   2.864   1.379 -0.6997 -0.9939 -1.5172
 2758SOL     OW18742   1.030   9.746   3.302  0.6802  0.1514 -0.6955
 2758SOL    HW118743   1.050   9.650   3.282  1.7144 -0.0341  1.0439
 2758SOL    HW218744   1.063   9.767   3.394 -2.5284  1.3044  0.2278
 2759SOL     OW18745   7.861   2.115   1.532 -0.3616 -0.0089 -0.0549
 2759SOL    HW118746   7.771   2.135   1.572 -0.7586  0.0476 -0.9399
 2759SOL    HW218747   7.933   2.157   1.586 -0.9730  1.1466 -0.1287
 2760SOL     OW18748   9.645   1.945   0.075 -0.3806 -0.3565  0.3363
 2760SOL    HW118749   9.609   1.893  -0.002  0.2163 -1.0577  0.5195
 2760SOL    HW218750   9.717   2.007   0.043 -2.8887  2.2964 -0.3049
 2761SOL     OW18751   0.901   1.519   1.774 -0.3520  0.3903  0.7909
 2761SOL    HW118752   0.887   1.602   1.828  1.0394 -0.6353  2.8126
 2761SOL    HW218753   0.999   1.499   1.768 -0.6346 -0.7814 -0.1812
 2762SOL     OW18754   1.753   9.780   0.495 -0.1632  0.1426  0.3293
 2762SOL    HW118755   1.844   9.768   0.455 -1.3220 -0.7535 -2.1224
 2762SOL    HW218756   1.732   9.878   0.503  0.9583  0.3516  0.8382
 2763SOL     OW18757   1.914   4.674   3.311 -0.0916 -0.5096  0.0528
 2763SOL    HW118758   1.836   4.698   3.252 -0.2483  1.7812  1.1310
 2763SOL    HW218759   1.882   4.661   3.405  0.8030  0.3694  0.4910
 2764SOL     OW18760   0.896   7.921   0.243 -0.2921 -0.0535  0.1065
 2764SOL    HW118761   0.839   7.860   0.298 -1.8964  0.4354 -0.9499
 2764SOL    HW218762   0.961   7.968   0.301 -0.7508 -0.8784  1.3071
 2765SOL     OW18763   9.517   2.079   2.199  0.2431  0.1698 -0.1256
 2765SOL    HW118764   9.500   2.018   2.276  0.1409 -0.1434 -0.3927
 2765SOL    HW218765   9.531   2.173   2.232  1.4776 -0.1837  0.3757
 2766SOL     OW18766   0.022   4.090   3.846 -0.0315 -0.5813 -0.4466
 2766SOL    HW118767   0.030   4.160   3.775  0.8000  0.4941  0.6830
 2766SOL    HW218768   0.045   4.000   3.807 -0.2831 -0.1062 -1.7021
 2767SOL     OW18769   9.530   0.975   4.048 -0.5049  0.4821  0.2080
 2767SOL    HW118770   9.463   0.913   4.005  2.0287 -0.8727 -1.9548
 2767SOL    HW218771   9.531   1.062   3.999 -1.0931  0.7492  0.6520
 2768SOL     OW18772   3.891   2.239   1.554 -0.1956 -0.0745 -0.1494
 2768SOL    HW118773   3.910   2.201   1.464  2.6726  1.6889 -0.3565
 2768SOL    HW218774   3.957   2.312   1.574 -0.3455 -0.8758  3.6542
 2769SOL     OW18775   0.672   1.898   0.344  0.2636  0.4802 -0.0598
 2769SOL    HW118776   0.692   1.900   0.246  0.4038 -1.0543 -0.0743
 2769SOL    HW218777   0.574   1.916   0.358  0.5974  2.5899 -0.3416
 2770SOL     OW18778   0.619   9.683   3.075  0.0442 -0.0812  0.1566
 2770SOL    HW118779   0.619   9.604   3.137 -0.0339 -0.1874  0.0206
 2770SOL    HW218780   0.669   9.660   2.992 -0.9984 -0.3743 -0.3864
 2771SOL     OW18781   1.649   7.488   2.750  0.0869  0.1622  0.2640
 2771SOL    HW118782   1.554   7.477   2.721 -0.5771  2.2177  1.5089
 2771SOL    HW218783   1.699   7.540   2.681 -0.0259  0.1453  0.1693
 2772SOL     OW18784   3.024   3.180   3.980 -0.2600  0.0941 -0.0466
 2772SOL    HW118785   3.064   3.267   3.950 -1.1842  0.8777  0.9256
 2772SOL    HW218786   3.093   3.108   3.977  1.1390  1.3435  1.3033
 2773SOL     OW18787   0.134   9.722   0.269 -0.2514  0.4756  0.7136
 2773SOL    HW118788   0.207   9.760   0.214  0.2725 -0.4192  0.7808
 2773SOL    HW218789   0.099   9.638   0.227  0.5402 -0.5308  2.0163
 2774SOL     OW18790   2.679   2.447   3.526 -0.4677 -0.0383 -0.2154
 2774SOL    HW118791   2.669   2.383   3.450 -0.6956 -2.7805  2.0697
 2774SOL    HW218792   2.771   2.486   3.525 -0.3741 -0.2814 -1.7087
 2775SOL     OW18793   9.889   2.523   1.078 -0.0602  0.5377  0.6181
 2775SOL    HW118794   9.957   2.457   1.047 -1.2716 -1.0186  1.2648
 2775SOL    HW218795   9.902   2.609   1.028  0.6969 -0.5778 -1.1803
 2776SOL     OW18796   1.690   1.342   1.838  0.3157 -0.6728  0.1669
 2776SOL    HW118797   1.656   1.435   1.847  2.1070 -0.0131  0.3889
 2776SOL    HW218798   1.736   1.316   1.923 -1.6109 -2.3698  0.7192
 2777SOL     OW18799   4.045   8.268   0.157 -0.0133 -0.4292 -0.1497
 2777SOL    HW118800   4.072   8.233   0.067  0.7109 -0.2355 -0.0160
 2777SOL    HW218801   4.067   8.365   0.162  1.4874 -0.8019  0.8165
 2778SOL     OW18802   0.560   5.966   0.095 -0.1369  0.9683  0.0069
 2778SOL    HW118803   0.608   6.052   0.113 -1.0533  1.3920  0.5151
 2778SOL    HW218804   0.615   5.889   0.128  0.3482  1.4234  0.2586
 2779SOL     OW18805   0.769   1.643   0.066  0.4524  0.5201  0.6786
 2779SOL    HW118806   0.766   1.552   0.107  2.3073  0.2858  0.3024
 2779SOL    HW218807   0.850   1.652   0.008 -1.2838  1.4011 -1.6925
 2780SOL     OW18808   1.611   7.632   1.255 -0.2307 -0.0642  0.0042
 2780SOL    HW118809   1.660   7.709   1.214  0.4088  0.2044  1.2628
 2780SOL    HW218810   1.593   7.563   1.185  0.8340  0.3934 -0.7290
 2781SOL     OW18811   1.370   0.947   4.030 -0.3269 -0.2933 -0.6422
 2781SOL    HW118812   1.335   1.007   4.102 -0.1332 -0.0286 -0.7699
 2781SOL    HW218813   1.318   0.963   3.946 -0.0985 -0.1202 -0.7477
 2782SOL     OW18814   2.800   4.422   2.240 -0.5830  0.5335 -0.1632
 2782SOL    HW118815   2.821   4.411   2.337  0.2622  1.8295 -0.1879
 2782SOL    HW218816   2.885   4.427   2.188 -1.0054  1.2685 -0.7931
 2783SOL     OW18817   5.194   0.553   2.815 -0.0376  0.3893  0.2517
 2783SOL    HW118818   5.121   0.535   2.881 -1.2569 -0.3439 -1.2631
 2783SOL    HW218819   5.266   0.484   2.825  0.8553  1.5860  2.2918
 2784SOL     OW18820   9.394   6.154   3.905  0.3468  0.2474  0.5798
 2784SOL    HW118821   9.357   6.147   3.998 -0.6318 -2.8645  0.0085
 2784SOL    HW218822   9.491   6.177   3.910  0.4860 -0.5954  2.4329
 2785SOL     OW18823   4.761   0.603   2.596 -0.8608 -0.1850  0.0125
 2785SOL    HW118824   4.782   0.664   2.673 -0.1178 -0.3691 -0.0425
 2785SOL    HW218825   4.705   0.527   2.629 -0.7986 -0.1030  0.3127
 2786SOL     OW18826   1.989   5.593   2.851 -0.0156  0.1431 -0.1183
 2786SOL    HW118827   2.018   5.518   2.792  0.0319  0.5552 -0.6257
 2786SOL    HW218828   1.944   5.664   2.796 -2.7505 -0.8482  0.7790
 2787SOL     OW18829   5.423   8.798   1.602 -0.0316 -0.2642  0.1180
 2787SOL    HW118830   5.477   8.815   1.520 -0.6702 -0.4800 -0.3455
 2787SOL    HW218831   5.349   8.734   1.581 -0.4565  0.0129  0.7592
 2788SOL     OW18832   2.218   5.918   2.020 -0.9633  0.0563  0.3742
 2788SOL    HW118833   2.291   5.970   2.066  0.3586  0.8146 -2.4624
 2788SOL    HW218834   2.255   5.832   1.986 -1.9571 -0.5455  0.7997
 2789SOL     OW18835   8.108   2.769   1.512 -0.1204 -0.0632 -0.0397
 2789SOL    HW118836   8.050   2.831   1.459  0.2967 -0.7881 -1.3643
 2789SOL    HW218837   8.125   2.808   1.603 -3.2198 -0.1528  0.6113
 2790SOL     OW18838   1.948   7.730   3.313 -0.0142  0.5244  0.2116
 2790SOL    HW118839   1.957   7.763   3.218  1.9850 -0.2063  0.1194
 2790SOL    HW218840   1.943   7.808   3.375  1.7959  1.0598 -0.2609
 2791SOL     OW18841   2.039   5.897   1.026 -0.1263  0.0699 -0.3353
 2791SOL    HW118842   2.100   5.885   1.104 -0.3041  0.5312 -0.1231
 2791SOL    HW218843   1.945   5.876   1.053 -0.0271 -0.9249 -0.7384
 2792SOL     OW18844   9.490   4.011   1.988  0.0454 -0.6603  0.0101
 2792SOL    HW118845   9.419   4.079   2.004 -0.1263 -0.8170 -0.0918
 2792SOL    HW218846   9.488   3.982   1.893  2.2962  1.6827 -0.8110
 2793SOL     OW18847   8.532   4.591   0.031 -0.0487  0.0157  0.0367
 2793SOL    HW118848   8.482   4.664  -0.015 -0.0728 -0.8401 -1.2875
 2793SOL    HW218849   8.558   4.521  -0.035  1.0450 -0.5829  1.0875
 2794SOL     OW18850   9.417   8.315   1.033  0.6022  0.0285 -0.3621
 2794SOL    HW118851   9.426   8.415   1.041  1.8255 -0.1248  0.3932
 2794SOL    HW218852   9.508   8.275   1.026  0.1162 -1.0585 -0.4725
 2795SOL     OW18853   9.712   1.799   0.695  0.5926 -0.3076  0.0762
 2795SOL    HW118854   9.789   1.743   0.724 -0.7533 -1.1232  2.1908
 2795SOL    HW218855   9.647   1.743   0.644  0.5890 -0.0230 -0.2307
 2796SOL     OW18856   2.681   5.092   1.440 -0.4921 -0.0533 -0.3263
 2796SOL    HW118857   2.607   5.025   1.447  1.4646 -2.2979 -0.5272
 2796SOL    HW218858   2.702   5.129   1.530  0.4735 -2.0297  0.2812
 2797SOL     OW18859   0.122   1.902   3.568  0.2827  0.4803 -0.8384
 2797SOL    HW118860   0.112   1.972   3.639 -2.3519 -0.0949 -0.6084
 2797SOL    HW218861   0.144   1.814   3.611  0.4407  0.4974 -0.8828
 2798SOL     OW18862   1.346   6.750   0.566 -0.5715  0.1732 -0.2140
 2798SOL    HW118863   1.284   6.828   0.576 -0.2997  0.2043  1.3290
 2798SOL    HW218864   1.392   6.732   0.652  1.4314  0.0042 -1.2801
 2799SOL     OW18865   3.556   8.601   2.331 -1.0229  0.6896  0.5182
 2799SOL    HW118866   3.545   8.504   2.309 -0.1625  0.1644  2.2988
 2799SOL    HW218867   3.653   8.624   2.330 -1.1615  1.2913  1.0835
 2800SOL     OW18868   9.066   7.195   3.121  0.1599  0.1417 -0.2327
 2800SOL    HW118869   9.146   7.223   3.069  0.7542  0.3711  0.7880
 2800SOL    HW218870   9.096   7.146   3.203 -0.7449  0.3434  0.2203
 2801SOL     OW18871   2.263   6.087   0.203 -0.1894 -0.1826  0.6321
 2801SOL    HW118872   2.170   6.073   0.236 -0.2457 -0.6795  0.2719
 2801SOL    HW218873   2.291   6.182   0.219 -0.6230 -0.1298  1.0680
 2802SOL     OW18874   0.232   2.706   1.939 -0.7120  0.2778 -0.2116
 2802SOL    HW118875   0.191   2.644   2.005 -2.2927 -0.4512 -1.8370
 2802SOL    HW218876   0.165   2.729   1.868  0.9928  0.8673 -1.6790
 2803SOL     OW18877   0.461   3.331   0.828  0.4693 -0.3508  0.0813
 2803SOL    HW118878   0.500   3.239   0.824  1.2974  0.0526 -1.7403
 2803SOL    HW218879   0.374   3.332   0.780  0.3662 -0.2179  0.2688
 2804SOL     OW18880   8.581   6.723   1.999  0.3365 -0.5319 -0.7777
 2804SOL    HW118881   8.517   6.777   2.053 -0.4989 -0.1898 -2.0856
 2804SOL    HW218882   8.608   6.775   1.917  2.1465 -0.7336 -0.3492
 2805SOL     OW18883   4.130   2.465   1.338  0.4275  0.4014  0.9009
 2805SOL    HW118884   4.179   2.403   1.277  1.1051  0.4718  1.3693
 2805SOL    HW218885   4.038   2.482   1.302  1.0422  0.9461 -0.4128
 2806SOL     OW18886   9.018   3.483   1.352  0.5014  0.0833 -0.3594
 2806SOL    HW118887   8.950   3.416   1.381  1.0433 -0.7835 -1.0774
 2806SOL    HW218888   9.103   3.436   1.328  1.9720  1.2989  2.2734
 2807SOL     OW18889   8.358   6.991   2.654 -0.0582 -0.3531  0.1609
 2807SOL    HW118890   8.294   7.055   2.612  0.0602 -0.5986 -0.4087
 2807SOL    HW218891   8.322   6.898   2.647  1.0646 -0.6931 -1.6106
 2808SOL     OW18892   1.864   4.795   2.105  0.7769  0.7684 -0.4025
 2808SOL    HW118893   1.933   4.724   2.101 -1.4216 -1.5486  1.3185
 2808SOL    HW218894   1.862   4.835   2.196  0.8502  1.8976 -0.8830
 2809SOL     OW18895   0.942   2.176   0.758 -0.8768  0.5815 -0.0884
 2809SOL    HW118896   0.970   2.130   0.842  0.4278  1.3496 -0.0944
 2809SOL    HW218897   0.908   2.108   0.692 -1.8360 -0.0246  1.0176
 2810SOL     OW18898   3.603   6.121   1.653 -0.1716 -0.0418 -0.2912
 2810SOL    HW118899   3.634   6.084   1.741 -0.4212 -1.1284 -0.6474
 2810SOL    HW218900   3.557   6.049   1.602  0.6964  0.3622 -1.6546
 2811SOL     OW18901   1.761   3.398   2.136 -0.1417 -0.0500 -0.7483
 2811SOL    HW118902   1.774   3.350   2.049 -1.9555  1.0682 -1.6575
 2811SOL    HW218903   1.771   3.496   2.122  1.8138  0.0018  0.7747
 2812SOL     OW18904   7.893   4.738   0.662 -0.3494  0.1411 -0.2134
 2812SOL    HW118905   7.875   4.646   0.626  0.3637 -0.0635 -0.0447
 2812SOL    HW218906   7.912   4.732   0.760  0.1238  0.4265 -0.2914
 2813SOL     OW18907   2.552   6.463   1.923  0.3349  0.3094 -0.6514
 2813SOL    HW118908   2.477   6.413   1.966  1.3554 -0.6341  0.0644
 2813SOL    HW218909   2.574   6.544   1.978  1.8036 -1.0285  0.8136
 2814SOL     OW18910   0.295   7.567   2.215 -0.6542 -0.0598 -0.2044
 2814SOL    HW118911   0.291   7.528   2.123 -0.4753  0.0202 -0.2467
 2814SOL    HW218912   0.203   7.595   2.243 -0.6027  0.5882 -0.6545
 2815SOL     OW18913   0.542   7.341   0.888  0.3870  0.1699 -0.5375
 2815SOL    HW118914   0.631   7.328   0.843  0.9255  0.6883  0.3696
 2815SOL    HW218915   0.536   7.433   0.925 -1.0935  0.5993 -1.7977
 2816SOL     OW18916   8.966   2.860   2.035  0.5009  0.6021  0.3255
 2816SOL    HW118917   8.883   2.874   1.981  0.8368 -1.0630 -0.6733
 2816SOL    HW218918   9.035   2.928   2.009  0.3784  0.3121 -0.7933
 2817SOL     OW18919   8.132   3.359   4.041 -0.0910 -0.1899 -0.3507
 2817SOL    HW118920   8.207   3.332   4.101 -0.0231  0.4286 -0.1600
 2817SOL    HW218921   8.071   3.421   4.089 -0.9656 -1.0355 -0.3647
 2818SOL     OW18922   4.730   8.209   2.992 -0.1739  0.1233 -0.0299
 2818SOL    HW118923   4.679   8.126   3.010 -1.4192  0.9320  0.2184
 2818SOL    HW218924   4.670   8.276   2.947  1.0515  0.5556 -1.0481
 2819SOL     OW18925   5.236   8.526   1.280 -0.1026 -0.2581  0.1689
 2819SOL    HW118926   5.269   8.577   1.360 -1.1548 -1.5420  1.4416
 2819SOL    HW218927   5.287   8.441   1.271  0.1159 -0.0487 -0.6366
 2820SOL     OW18928   0.443   1.091   2.778  0.2079  0.6076  0.1363
 2820SOL    HW118929   0.449   1.166   2.712 -2.5936  0.1052 -0.7620
 2820SOL    HW218930   0.521   1.030   2.765 -0.1481  0.6465 -2.6427
 2821SOL     OW18931   9.412   2.697   2.929  0.3025  0.1176  0.4820
 2821SOL    HW118932   9.486   2.694   2.862 -1.0109 -0.3996 -1.0102
 2821SOL    HW218933   9.403   2.608   2.973  0.2729  0.0461  0.3316
 2822SOL     OW18934   9.151   8.019   3.226  0.3548  0.1223  0.0226
 2822SOL    HW118935   9.134   7.982   3.317  3.6568 -0.2094  0.5856
 2822SOL    HW218936   9.161   7.944   3.161  1.5670  0.2019  0.1043
 2823SOL     OW18937   7.897   8.357   1.031 -0.0452  0.4144  0.0598
 2823SOL    HW118938   7.901   8.449   1.069  0.6156  0.5325 -0.3041
 2823SOL    HW218939   7.987   8.329   0.999 -0.5360  0.2265 -1.2171
 2824SOL     OW18940   1.296   2.663   2.154 -0.4873  0.0210  0.1747
 2824SOL    HW118941   1.287   2.761   2.167 -0.0473  0.1410 -0.3982
 2824SOL    HW218942   1.205   2.621   2.153 -0.7020  0.4869 -0.0621
 2825SOL     OW18943   2.540   2.468   3.129  0.0890 -0.2426  0.1425
 2825SOL    HW118944   2.553   2.391   3.191 -1.2996 -0.8267 -0.2634
 2825SOL    HW218945   2.625   2.485   3.078  0.3068 -1.7222 -0.0117
 2826SOL     OW18946   3.466   6.401   2.234  0.2323 -0.0433  0.1820
 2826SOL    HW118947   3.440   6.477   2.173  0.7259 -0.1668 -0.1870
 2826SOL    HW218948   3.388   6.376   2.291  0.1697  0.9816  0.5524
 2827SOL     OW18949   5.481   9.002   2.515  0.3311 -0.2563 -0.0374
 2827SOL    HW118950   5.458   8.906   2.501 -1.7450  0.3737 -1.1392
 2827SOL    HW218951   5.552   9.029   2.450 -0.0826 -0.6996 -0.6845
 2828SOL     OW18952   0.087   4.381   2.311 -0.2575  0.2792 -0.1444
 2828SOL    HW118953   0.050   4.296   2.275  0.1534 -0.1874  0.5168
 2828SOL    HW218954   0.134   4.363   2.398 -1.8839  1.4962  1.0208
 2829SOL     OW18955   2.722   6.712   0.710  1.0765  0.3073 -0.2364
 2829SOL    HW118956   2.641   6.707   0.652  1.8517  2.3252 -1.5288
 2829SOL    HW218957   2.744   6.620   0.743 -1.1093 -0.4193 -0.7126
 2830SOL     OW18958   0.848   3.548   0.956 -0.1691  0.0887  0.8415
 2830SOL    HW118959   0.755   3.577   0.980  0.3239  1.1839  1.4839
 2830SOL    HW218960   0.881   3.602   0.879 -0.0553 -0.2779  0.6348
 2831SOL     OW18961   7.628   1.487   1.117 -0.1660 -0.9275  0.2824
 2831SOL    HW118962   7.557   1.545   1.078 -1.8436 -2.0487  1.6241
 2831SOL    HW218963   7.706   1.544   1.145 -1.0429  0.4584 -0.0411
 2832SOL     OW18964   2.687   7.854   3.169 -0.6004  0.4956 -0.3286
 2832SOL    HW118965   2.644   7.889   3.251 -2.4510  1.0829 -1.5145
 2832SOL    HW218966   2.754   7.784   3.193 -0.6238  1.1632  1.6999
 2833SOL     OW18967   2.050   2.920   0.595 -0.2747  0.0346 -0.3020
 2833SOL    HW118968   1.959   2.881   0.583 -0.8457  0.8695  1.2219
 2833SOL    HW218969   2.069   2.930   0.692  1.2955  0.2406 -0.6215
 2834SOL     OW18970   8.867   5.858   2.905  0.2259 -0.4109  0.6865
 2834SOL    HW118971   8.964   5.875   2.926  0.5325 -0.5446 -0.6091
 2834SOL    HW218972   8.855   5.851   2.806 -1.4828  1.8873  0.6817
 2835SOL     OW18973   2.865   8.357   2.878 -0.3167 -0.2571 -0.0464
 2835SOL    HW118974   2.854   8.282   2.944 -0.2527 -0.4194 -0.2207
 2835SOL    HW218975   2.910   8.434   2.923 -1.1229 -0.0103  0.3604
 2836SOL     OW18976   0.725   8.476   2.697 -0.6382  0.3579  0.0928
 2836SOL    HW118977   0.710   8.381   2.723  0.7507  0.4137  1.1619
 2836SOL    HW218978   0.764   8.479   2.605  2.0191 -0.2941  1.1521
 2837SOL     OW18979   9.015   0.800   0.551  0.5825 -0.5632 -0.0100
 2837SOL    HW118980   8.980   0.834   0.463 -0.2877 -1.5254 -0.0558
 2837SOL    HW218981   9.088   0.860   0.584  0.7590 -0.0628 -1.2789
 2838SOL     OW18982   1.680   3.734   2.913  0.1304 -0.0419 -0.1243
 2838SOL    HW118983   1.720   3.716   3.003  0.9928  3.0345  0.1567
 2838SOL    HW218984   1.587   3.768   2.924 -0.2014 -0.8408 -0.4570
 2839SOL     OW18985   3.808   8.946   0.366  0.8633 -0.2935  0.3392
 2839SOL    HW118986   3.847   8.944   0.273 -0.0668  0.4258 -0.0748
 2839SOL    HW218987   3.746   8.869   0.378 -0.3980  0.6121 -0.2589
 2840SOL     OW18988   1.601   9.383   0.975 -0.3489 -0.6705 -0.5065
 2840SOL    HW118989   1.685   9.437   0.976 -0.8256  0.0821  0.9752
 2840SOL    HW218990   1.558   9.390   0.885  1.5551 -1.6860 -1.5119
 2841SOL     OW18991   9.240   7.700   0.845  0.2773  0.4166  0.4886
 2841SOL    HW118992   9.142   7.715   0.856  0.4071  1.0456  0.7753
 2841SOL    HW218993   9.280   7.778   0.797  0.7841  0.5389  1.1156
 2842SOL     OW18994   9.819   0.650   3.007 -0.7148 -0.1410 -0.2099
 2842SOL    HW118995   9.808   0.569   3.065 -0.7511 -1.5263 -2.1144
 2842SOL    HW218996   9.729   0.682   2.977 -0.7986  1.4742  1.6643
 2843SOL     OW18997   0.857   2.311   3.222  0.6729 -0.3655 -0.2165
 2843SOL    HW118998   0.765   2.295   3.187  1.0923 -2.0563 -0.6104
 2843SOL    HW218999   0.904   2.223   3.233  2.6166  0.5366 -1.0520
 2844SOL     OW19000   9.601   0.564   3.424  0.0607 -0.6402 -0.2572
 2844SOL    HW119001   9.697   0.569   3.400 -0.2783  1.2147 -1.3808
 2844SOL    HW219002   9.552   0.510   3.356  0.0729 -0.3366 -0.5091
 2845SOL     OW19003   2.931   7.956   2.446  0.0395  0.0826 -0.1724
 2845SOL    HW119004   2.864   7.997   2.507 -0.1783  1.9456 -1.6361
 2845SOL    HW219005   2.889   7.879   2.397 -0.0997 -0.7159  1.1770
 2846SOL     OW19006   0.102   9.590   1.498 -0.1674 -0.9869  0.0100
 2846SOL    HW119007   0.082   9.520   1.567 -0.7234 -0.8849 -0.0470
 2846SOL    HW219008   0.194   9.576   1.462  1.5922  1.1236  3.4071
 2847SOL     OW19009   4.095   2.815   3.553 -0.4389  0.3557 -0.0438
 2847SOL    HW119010   4.077   2.752   3.628 -0.8554 -0.7180 -1.0297
 2847SOL    HW219011   4.181   2.788   3.508 -1.3013 -0.3583 -1.3094
 2848SOL     OW19012   4.949   1.264   1.569 -0.5538  0.1381  0.0257
 2848SOL    HW119013   4.991   1.321   1.640 -1.4063  2.0695 -0.9846
 2848SOL    HW219014   5.006   1.183   1.553  0.5011  0.5271  1.7237
 2849SOL     OW19015   2.108   2.856   2.824 -0.2760  0.2863  0.1970
 2849SOL    HW119016   2.044   2.819   2.757  0.0035 -0.6889  0.4589
 2849SOL    HW219017   2.199   2.862   2.783 -0.4219  1.1533 -0.0015
 2850SOL     OW19018   9.528   1.314   1.175  0.3481  0.0969 -0.1275
 2850SOL    HW119019   9.466   1.365   1.235  0.7141 -0.9587  1.1766
 2850SOL    HW219020   9.616   1.362   1.170 -0.0285  0.7362 -0.6673
 2851SOL     OW19021   9.669   9.023   3.309 -0.0328  0.0483  0.2664
 2851SOL    HW119022   9.692   9.048   3.403 -2.0251 -0.9743  1.0396
 2851SOL    HW219023   9.710   8.935   3.286 -0.8832 -0.4737  0.7301
 2852SOL     OW19024   1.637   6.460   0.760 -0.6793  0.1321 -0.1766
 2852SOL    HW119025   1.673   6.429   0.672  0.7231 -0.8173  0.7076
 2852SOL    HW219026   1.537   6.467   0.754 -0.8456 -2.3157 -1.1254
 2853SOL     OW19027   3.794   3.189   2.311 -0.1215 -0.4049  0.4856
 2853SOL    HW119028   3.833   3.161   2.223 -0.5393  0.2148  0.1104
 2853SOL    HW219029   3.849   3.148   2.385  1.9803  1.4014 -0.0238
 2854SOL     OW19030   6.863   9.134   2.111 -0.2671  0.0875  0.1582
 2854SOL    HW119031   6.918   9.070   2.057  1.0323 -0.4178  2.0255
 2854SOL    HW219032   6.915   9.218   2.125 -1.6007  1.2182 -1.4848
 2855SOL     OW19033   1.196   1.651   0.417 -0.3982  0.5136  0.1626
 2855SOL    HW119034   1.163   1.557   0.430  0.9156  0.3650  2.7374
 2855SOL    HW219035   1.272   1.651   0.352 -0.5575 -0.1753 -0.0336
 2856SOL     OW19036   2.070   3.750   3.194 -0.6752  0.2458  0.5081
 2856SOL    HW119037   2.004   3.812   3.237 -2.1320  0.1213 -1.4748
 2856SOL    HW219038   2.021   3.670   3.158  0.6914 -0.3250 -0.1084
 2857SOL     OW19039   1.626   7.467   1.730 -0.3647 -0.6316  0.2596
 2857SOL    HW119040   1.711   7.482   1.781  0.0237 -2.2235  0.0934
 2857SOL    HW219041   1.574   7.552   1.726 -0.1845 -0.3803  2.9296
 2858SOL     OW19042   7.829   1.104   0.562  0.3146  0.4237  0.1429
 2858SOL    HW119043   7.805   1.183   0.618 -1.7048 -1.2829  1.8183
 2858SOL    HW219044   7.814   1.125   0.466 -1.4743  1.6858  0.6537
 2859SOL     OW19045   3.976   4.704   3.167 -0.0366 -0.4488  0.7601
 2859SOL    HW119046   3.904   4.658   3.115 -0.0510 -0.3988  0.7354
 2859SOL    HW219047   3.996   4.792   3.124 -0.9621  0.1835  1.5866
 2860SOL     OW19048   4.315   4.258   3.584 -0.1187 -0.0555 -0.7531
 2860SOL    HW119049   4.319   4.242   3.486 -0.5774  0.2362 -0.8195
 2860SOL    HW219050   4.374   4.192   3.631 -0.0975 -0.3582 -1.2041
 2861SOL     OW19051   8.282   3.091   0.383  0.4612  0.2773  0.4334
 2861SOL    HW119052   8.327   3.133   0.462 -0.4576  2.0009  0.0831
 2861SOL    HW219053   8.256   2.997   0.405  0.9358  0.4657  1.8920
 2862SOL     OW19054   2.338   9.134   2.125  0.3670 -0.4377 -0.0842
 2862SOL    HW119055   2.407   9.062   2.118 -0.2702 -1.6012  3.9441
 2862SOL    HW219056   2.247   9.095   2.113 -0.0057 -0.4506  2.4942
 2863SOL     OW19057   9.330   5.646   3.171 -0.5114  0.3263  0.0330
 2863SOL    HW119058   9.275   5.653   3.088  1.1820  0.8072 -1.0892
 2863SOL    HW219059   9.340   5.736   3.213  1.1707  0.6462 -0.9768
 2864SOL     OW19060   9.184   9.760   3.749  0.1165 -0.0377 -0.0500
 2864SOL    HW119061   9.179   9.774   3.848 -0.8935  0.3516 -0.1503
 2864SOL    HW219062   9.115   9.694   3.721  0.1510  0.1378 -0.5517
 2865SOL     OW19063   0.594   8.727   0.106  0.2134  0.4776 -0.3044
 2865SOL    HW119064   0.631   8.820   0.112  0.4269  0.4154 -0.6430
 2865SOL    HW219065   0.532   8.721   0.027  1.0536  0.0387 -0.9396
 2866SOL     OW19066   3.546   5.111   3.855  0.1788 -0.3756 -0.1279
 2866SOL    HW119067   3.476   5.064   3.800 -2.6598  1.1842  2.0379
 2866SOL    HW219068   3.587   5.184   3.800 -0.9097 -0.3801 -0.9733
 2867SOL     OW19069   0.766   7.454   0.547 -0.0097  0.3342  0.2477
 2867SOL    HW119070   0.697   7.507   0.596  1.6061  0.1441  2.8112
 2867SOL    HW219071   0.831   7.516   0.503  1.4982  0.5718  2.6998
 2868SOL     OW19072   2.771   7.248   3.348  0.4306 -0.2229  0.4446
 2868SOL    HW119073   2.699   7.185   3.378  0.7373 -0.7978 -0.0114
 2868SOL    HW219074   2.846   7.196   3.306  0.8964  0.4076  0.4769
 2869SOL     OW19075   4.896   0.719   3.071  0.3953  0.1237 -0.0481
 2869SOL    HW119076   4.859   0.651   3.134 -1.7028  0.6196 -0.7161
 2869SOL    HW219077   4.988   0.745   3.101  0.7487 -2.1172  0.8714
 2870SOL     OW19078   0.883   8.940   2.255  0.3384  0.0881 -0.4029
 2870SOL    HW119079   0.821   8.869   2.223  0.5663 -0.8199  1.1340
 2870SOL    HW219080   0.834   9.027   2.260 -0.4889 -0.3766 -0.3229
 2871SOL     OW19081   1.233   6.294   0.190  0.4733 -0.0986  0.0420
 2871SOL    HW119082   1.213   6.211   0.243  0.1160 -0.3035 -0.4103
 2871SOL    HW219083   1.330   6.296   0.167 -0.1491 -2.2921 -3.1364
 2872SOL     OW19084   4.624   0.482   2.328 -0.1912 -0.8375  0.0887
 2872SOL    HW119085   4.618   0.392   2.372 -1.0094 -1.5687 -1.5063
 2872SOL    HW219086   4.697   0.481   2.260 -1.8503 -1.0904 -1.7304
 2873SOL     OW19087   7.224   9.592   3.505 -0.0885 -0.1473  0.5821
 2873SOL    HW119088   7.156   9.572   3.575  1.5004 -1.0816  1.8906
 2873SOL    HW219089   7.221   9.520   3.435 -2.6975  1.5704 -1.1517
 2874SOL     OW19090   8.895   4.118   0.524 -0.3179 -0.1363  0.0736
 2874SOL    HW119091   8.894   4.076   0.434 -1.0733 -1.2592  0.6006
 2874SOL    HW219092   8.824   4.188   0.529 -0.0269  0.1925 -0.3160
 2875SOL     OW19093   1.109   1.701   1.469 -0.2732 -0.1541  0.3828
 2875SOL    HW119094   1.108   1.612   1.515 -0.2667 -0.7475 -0.7429
 2875SOL    HW219095   1.090   1.688   1.372 -4.0109  1.4732  0.8436
 2876SOL     OW19096   7.445   8.953   0.010  0.1576 -0.4154 -0.1621
 2876SOL    HW119097   7.444   9.021  -0.064  0.8221 -0.0182  0.1881
 2876SOL    HW219098   7.365   8.893   0.001 -0.0379 -0.0536 -0.9058
 2877SOL     OW19099   3.874   9.856   2.721  0.1273  0.0575 -0.0058
 2877SOL    HW119100   3.810   9.923   2.758 -1.3535 -1.1539 -0.3320
 2877SOL    HW219101   3.833   9.765   2.724  0.5655 -0.2879 -3.2344
 2878SOL     OW19102   0.991   7.213   3.727  0.3189  0.3790 -0.3586
 2878SOL    HW119103   0.954   7.123   3.706  0.7632 -0.1573  1.0768
 2878SOL    HW219104   0.947   7.249   3.809 -0.4328  1.8316 -1.3849
 2879SOL     OW19105   1.438   3.081   1.010  0.6121  0.4283 -0.0147
 2879SOL    HW119106   1.509   3.011   1.015  0.3278  0.0729 -0.9507
 2879SOL    HW219107   1.359   3.052   1.065  1.0431  0.6651  0.7406
 2880SOL     OW19108   8.803   1.472   1.902 -0.6446 -0.2586 -0.1562
 2880SOL    HW119109   8.821   1.571   1.894 -1.6085 -0.1774 -1.4969
 2880SOL    HW219110   8.737   1.456   1.975 -0.6554  0.1187 -0.0798
 2881SOL     OW19111   2.800   5.263   1.130 -0.7073  0.0510  0.0615
 2881SOL    HW119112   2.856   5.187   1.095 -0.5437 -0.5889  1.6901
 2881SOL    HW219113   2.761   5.313   1.053 -1.5249 -2.2155 -1.0497
 2882SOL     OW19114   1.579   0.136   1.403  0.6184 -0.4083  0.2831
 2882SOL    HW119115   1.547   0.070   1.335  2.3257 -1.1266  0.1560
 2882SOL    HW219116   1.503   0.195   1.431 -0.8642 -2.2180  0.1570
 2883SOL     OW19117   1.942   8.419   0.854 -0.4051  0.3803  0.3593
 2883SOL    HW119118   1.854   8.385   0.885 -1.1997  1.2941 -0.8629
 2883SOL    HW219119   1.961   8.507   0.899 -0.2252  0.3067  0.4312
 2884SOL     OW19120   2.765   8.878   0.651 -0.7894 -0.3194  0.2194
 2884SOL    HW119121   2.832   8.949   0.626 -1.2810  0.4925  1.1783
 2884SOL    HW219122   2.795   8.790   0.614 -0.1104  0.3602 -0.8853
 2885SOL     OW19123   9.782   8.013   0.524 -0.0785  0.1421  0.1176
 2885SOL    HW119124   9.838   7.934   0.503  0.8435  1.0767 -1.0395
 2885SOL    HW219125   9.730   7.997   0.608  3.6845  0.1350  2.5727
 2886SOL     OW19126   8.355   7.987   0.484  0.4947  0.3404 -0.6268
 2886SOL    HW119127   8.431   8.000   0.547 -0.4740 -0.7099  0.7852
 2886SOL    HW219128   8.273   8.030   0.521  0.2708  1.0434 -1.9084
 2887SOL     OW19129   5.323   7.885   3.026  0.4355 -0.0478  0.4357
 2887SOL    HW119130   5.240   7.940   3.025  0.6776  0.3114 -1.3935
 2887SOL    HW219131   5.298   7.788   3.027 -0.0137  0.0536 -0.5611
 2888SOL     OW19132   3.591   9.692   1.130  0.3955  0.6276  0.1643
 2888SOL    HW119133   3.676   9.744   1.128  0.5327  0.4648  1.5848
 2888SOL    HW219134   3.513   9.755   1.119  0.6788  0.7719 -1.1746
 2889SOL     OW19135   2.373   5.624   2.602  0.3191 -0.5562 -0.5435
 2889SOL    HW119136   2.383   5.598   2.698  0.4699  3.3202  0.5837
 2889SOL    HW219137   2.280   5.655   2.586  0.5720 -0.2397 -1.4079
 2890SOL     OW19138   0.984   3.392   2.577  0.5544 -0.3197  0.7211
 2890SOL    HW119139   0.897   3.399   2.528  0.2701 -2.7526  0.8079
 2890SOL    HW219140   1.030   3.481   2.577 -0.5520  0.2960 -1.8826
 2891SOL     OW19141   8.147   1.471   3.198 -0.0650 -0.7350 -0.2319
 2891SOL    HW119142   8.104   1.519   3.122  0.1096 -2.2610 -1.3054
 2891SOL    HW219143   8.207   1.534   3.248 -1.2931  0.6474 -0.4623
 2892SOL     OW19144   2.824   7.649   3.288 -0.1130  0.4811  0.1328
 2892SOL    HW119145   2.891   7.589   3.245  1.4022  1.4062  1.1578
 2892SOL    HW219146   2.766   7.596   3.350 -0.0973 -0.2623 -0.4859
 2893SOL     OW19147   7.107   7.796   2.942  0.0692  0.7484  0.3872
 2893SOL    HW119148   7.170   7.821   3.015  0.5936  0.4279  0.0410
 2893SOL    HW219149   7.140   7.833   2.855 -0.0665  0.3366  0.1595
 2894SOL     OW19150   3.378   8.968   0.226 -0.0348 -0.6017 -0.2858
 2894SOL    HW119151   3.379   9.068   0.228  0.5398 -0.6400  2.3637
 2894SOL    HW219152   3.466   8.935   0.189  0.4835 -0.1557  0.5441
 2895SOL     OW19153   9.696   7.691   1.663 -0.0998  0.1284 -0.3356
 2895SOL    HW119154   9.628   7.682   1.735 -1.1395  1.6173 -1.0976
 2895SOL    HW219155   9.776   7.740   1.698 -0.4944  0.6198 -0.1181
 2896SOL     OW19156   9.389   8.142   0.266 -0.0209  0.2396 -0.2459
 2896SOL    HW119157   9.370   8.143   0.168  0.3613  0.4127 -0.3195
 2896SOL    HW219158   9.484   8.171   0.282  0.7261 -2.2050 -0.0009
 2897SOL     OW19159   5.110   8.700   2.976 -0.4578  0.7887  0.5973
 2897SOL    HW119160   5.160   8.760   2.915  1.0892  0.6790  1.7348
 2897SOL    HW219161   5.080   8.751   3.057  0.0419  0.2654  1.1200
 2898SOL     OW19162   0.449   1.306   2.612  0.6099 -0.2625 -0.4573
 2898SOL    HW119163   0.439   1.404   2.627 -0.3877 -0.2470 -1.1351
 2898SOL    HW219164   0.442   1.287   2.514  1.1627 -0.9736 -0.3641
 2899SOL     OW19165   8.611   1.254   1.596  0.2181 -0.2864  0.2370
 2899SOL    HW119166   8.545   1.215   1.532  1.1337 -2.0038  0.3179
 2899SOL    HW219167   8.603   1.354   1.595  0.5445 -0.2352 -2.9195
 2900SOL     OW19168   1.521   7.559   0.733  0.1213  0.0538  0.7025
 2900SOL    HW119169   1.480   7.594   0.816  0.1259  0.4861  0.5245
 2900SOL    HW219170   1.534   7.634   0.668 -2.4325 -0.7269 -0.7703
 2901SOL     OW19171   9.186   1.682   3.527  0.4570 -0.0379 -0.0157
 2901SOL    HW119172   9.246   1.762   3.524  2.6084 -1.6548 -1.6154
 2901SOL    HW219173   9.231   1.610   3.581  0.3677 -1.5748 -1.9580
 2902SOL     OW19174   1.235   0.285   1.267 -0.3413  0.3350 -0.1169
 2902SOL    HW119175   1.261   0.281   1.171 -0.1565  0.0016 -0.0521
 2902SOL    HW219176   1.201   0.196   1.296 -0.8731  0.5710 -0.0091
 2903SOL     OW19177   3.874   3.824   0.548 -0.2592 -0.1608 -0.2016
 2903SOL    HW119178   3.867   3.889   0.624 -0.1265 -1.6359  1.1021
 2903SOL    HW219179   3.830   3.738   0.574 -0.1620 -0.6979 -1.7875
 2904SOL     OW19180   4.555   9.714   2.042 -0.1473 -0.3865  0.0443
 2904SOL    HW119181   4.486   9.676   2.103  1.1301 -2.0768  0.4704
 2904SOL    HW219182   4.618   9.771   2.094 -1.1601  1.1087 -0.3339
 2905SOL     OW19183   3.763   9.646   2.887 -0.2742  0.0607  0.0723
 2905SOL    HW119184   3.849   9.671   2.933  0.1151  1.4137 -1.3351
 2905SOL    HW219185   3.689   9.702   2.922 -0.1778  0.3603 -0.1995
 2906SOL     OW19186   7.155   9.543   1.037 -0.0865  0.8506 -0.9149
 2906SOL    HW119187   7.249   9.508   1.037 -0.3394  0.1751 -0.1033
 2906SOL    HW219188   7.113   9.526   0.948 -0.7003 -2.2589 -0.0928
 2907SOL     OW19189   9.182   3.598   0.700 -0.6981  0.2770 -0.7264
 2907SOL    HW119190   9.125   3.601   0.782 -0.8530 -1.5177 -0.7409
 2907SOL    HW219191   9.197   3.691   0.666 -1.6910  0.9372  0.5997
 2908SOL     OW19192   1.466   8.840   3.958  0.4176 -0.5993  0.4751
 2908SOL    HW119193   1.422   8.784   4.027  0.1569  0.1257  0.9084
 2908SOL    HW219194   1.564   8.822   3.957  0.5396 -0.0342  1.6022
 2909SOL     OW19195   8.945   9.953   2.987 -0.5027  0.0241  0.9475
 2909SOL    HW119196   8.863   9.953   2.929  0.7238 -0.0927 -0.8330
 2909SOL    HW219197   9.015  10.012   2.946  0.5978 -0.4882  2.0432
 2910SOL     OW19198   3.918   7.093   3.054 -0.7088  0.1302 -0.2836
 2910SOL    HW119199   3.959   7.155   3.121 -1.3572 -0.5257  0.7378
 2910SOL    HW219200   3.863   7.024   3.102 -1.0829 -0.4186 -1.4877
 2911SOL     OW19201   8.374   5.479   0.145  0.4091  0.1390 -0.1076
 2911SOL    HW119202   8.408   5.552   0.204  1.1388 -0.6996  0.5203
 2911SOL    HW219203   8.274   5.478   0.147  0.4396 -0.4435  1.8097
 2912SOL     OW19204   4.415   9.510   1.705 -0.6240 -0.1974  0.6229
 2912SOL    HW119205   4.412   9.589   1.644 -1.7926 -0.2905  0.5420
 2912SOL    HW219206   4.430   9.427   1.650  0.0214 -0.1013  0.6479
 2913SOL     OW19207   9.841   8.061   1.808  0.3303 -0.1050 -0.2351
 2913SOL    HW119208   9.904   8.137   1.791 -0.7069  0.6291 -0.8746
 2913SOL    HW219209   9.785   8.081   1.888 -1.3076  0.7242 -1.5561
 2914SOL     OW19210   0.573   5.026   0.271 -0.3607 -0.3495 -0.0975
 2914SOL    HW119211   0.525   5.112   0.289 -0.7459 -0.3265 -1.2128
 2914SOL    HW219212   0.618   4.995   0.355  0.5981  1.4571  0.0987
 2915SOL     OW19213   0.288   9.892   2.104 -0.2062 -0.9796 -0.3564
 2915SOL    HW119214   0.219   9.924   2.039 -1.3169  0.5010  1.5062
 2915SOL    HW219215   0.252   9.898   2.197  1.5577 -2.5480  0.4564
 2916SOL     OW19216   9.821   9.387   2.785 -0.0612  0.8093 -0.3730
 2916SOL    HW119217   9.846   9.470   2.736 -0.0036  1.0964  0.1430
 2916SOL    HW219218   9.757   9.409   2.858 -0.0541  0.3979 -0.2396
 2917SOL     OW19219   4.547   8.079   0.433 -0.1573 -0.6281  0.3552
 2917SOL    HW119220   4.463   8.063   0.382 -1.6285 -0.9999  2.8124
 2917SOL    HW219221   4.607   8.139   0.380 -2.4483  0.5886 -0.9567
 2918SOL     OW19222   3.762   2.480   0.845 -0.4856 -0.1818 -0.5976
 2918SOL    HW119223   3.802   2.486   0.936  0.0137 -1.2761 -0.7340
 2918SOL    HW219224   3.833   2.457   0.779 -0.6177  1.7679 -1.4543
 2919SOL     OW19225   7.893   1.996   3.981 -0.2266 -0.7086  0.2049
 2919SOL    HW119226   7.891   2.064   4.055 -1.3078  0.3117 -0.7321
 2919SOL    HW219227   7.983   1.954   3.978  1.0237  1.8879 -0.2387
 2920SOL     OW19228   9.858   0.671   3.792  0.5902  0.2859  0.1875
 2920SOL    HW119229   9.906   0.652   3.878 -0.7330 -0.7674  0.7177
 2920SOL    HW219230   9.868   0.593   3.730 -1.0964 -0.2941  0.6172
 2921SOL     OW19231   2.563   6.726   1.578  0.2992 -0.9140  0.3211
 2921SOL    HW119232   2.656   6.703   1.551 -0.2117 -1.3928 -1.0521
 2921SOL    HW219233   2.561   6.817   1.620  1.4503 -1.1005  0.7761
 2922SOL     OW19234   2.695   9.756   3.411  0.5176  0.0892 -0.4358
 2922SOL    HW119235   2.786   9.739   3.447  0.1260 -2.4288 -0.5367
 2922SOL    HW219236   2.698   9.755   3.311  0.3814 -0.0596 -0.4390
 2923SOL     OW19237   2.616   6.423   0.050 -0.6400  0.2771  0.4441
 2923SOL    HW119238   2.530   6.382   0.018  1.2211 -2.4201 -1.4024
 2923SOL    HW219239   2.672   6.351   0.091  1.2214  1.7452  0.4903
 2924SOL     OW19240   9.533   4.897   0.484 -0.3783 -0.3429  0.4296
 2924SOL    HW119241   9.604   4.941   0.539 -3.6288  1.9753  2.9550
 2924SOL    HW219242   9.564   4.889   0.389  3.1567  0.6944  1.4366
 2925SOL     OW19243   4.734   8.923   2.824  0.2043  0.4501  0.0597
 2925SOL    HW119244   4.830   8.951   2.828  0.0271  1.0758 -0.0843
 2925SOL    HW219245   4.709   8.905   2.728  0.9475 -2.4150  0.3563
 2926SOL     OW19246   0.440   5.684   1.594 -0.9964 -0.1430  0.4376
 2926SOL    HW119247   0.391   5.622   1.655 -1.7804  2.5821  2.6884
 2926SOL    HW219248   0.525   5.713   1.637 -0.3134 -0.1692 -0.8743
 2927SOL     OW19249   8.296   8.498   0.847 -0.4039 -0.1958 -0.8043
 2927SOL    HW119250   8.362   8.569   0.872 -0.5798 -0.2788 -0.0835
 2927SOL    HW219251   8.216   8.540   0.806 -0.4774  0.0203 -0.4431
 2928SOL     OW19252   2.982   0.367   0.218 -0.5133 -0.3165  0.1050
 2928SOL    HW119253   3.072   0.399   0.246 -0.0743 -1.8277  0.4883
 2928SOL    HW219254   2.950   0.422   0.141  1.4770 -0.8347 -1.1363
 2929SOL     OW19255   3.525   4.544   3.196  0.4427  0.2122 -0.1632
 2929SOL    HW119256   3.620   4.559   3.224  0.6072 -1.5739  0.3011
 2929SOL    HW219257   3.485   4.473   3.253 -0.6060 -0.3500 -1.5931
 2930SOL     OW19258   4.089   9.491   3.234  0.2099  0.4834  0.0888
 2930SOL    HW119259   4.050   9.521   3.321 -0.9310  0.5684 -0.4433
 2930SOL    HW219260   4.092   9.391   3.232 -2.3256  0.3784 -0.8425
 2931SOL     OW19261   2.760   1.372   2.638  0.7472 -0.4757  0.1668
 2931SOL    HW119262   2.834   1.417   2.587  1.0297  1.3643  2.1451
 2931SOL    HW219263   2.672   1.393   2.594  0.6566  3.6788  2.0323
 2932SOL     OW19264   9.311   1.639   2.730  0.6481 -0.2192  0.0408
 2932SOL    HW119265   9.243   1.670   2.663 -0.2575 -0.0299  1.0389
 2932SOL    HW219266   9.395   1.614   2.682  0.4664  1.1792 -1.0375
 2933SOL     OW19267   0.582   1.817   2.071  0.2515  0.4048  0.0146
 2933SOL    HW119268   0.568   1.903   2.120  1.2164  1.6064 -1.7993
 2933SOL    HW219269   0.506   1.801   2.008 -0.1962 -0.3517  0.7372
 2934SOL     OW19270   4.874   1.984   0.625  0.4191 -0.4930  0.1218
 2934SOL    HW119271   4.841   2.078   0.616  2.5109  0.2449 -0.0406
 2934SOL    HW219272   4.852   1.950   0.717 -0.5989  0.0240  0.0828
 2935SOL     OW19273   0.060   7.436   3.310  0.2894 -0.1678  0.4509
 2935SOL    HW119274   0.059   7.512   3.245 -1.8680 -1.7811 -1.5186
 2935SOL    HW219275   0.133   7.372   3.284  0.2380 -0.1965  0.3782
 2936SOL     OW19276   2.235   1.178   0.437 -0.5390 -0.3361 -0.3050
 2936SOL    HW119277   2.256   1.258   0.492  0.3079 -1.1672  0.6038
 2936SOL    HW219278   2.152   1.134   0.473 -1.1649  0.2870 -0.9784
 2937SOL     OW19279   3.185   5.581   0.935 -0.6259 -0.8673 -0.0487
 2937SOL    HW119280   3.109   5.570   0.998 -0.0943 -1.6695  0.4497
 2937SOL    HW219281   3.157   5.552   0.843 -1.5277  0.6995 -0.2961
 2938SOL     OW19282   8.411   5.541   3.632  0.1740  0.4226 -0.4983
 2938SOL    HW119283   8.398   5.491   3.546  0.9715  0.4465 -0.6391
 2938SOL    HW219284   8.385   5.484   3.709  1.4992 -0.3859 -0.6308
 2939SOL     OW19285   3.501   2.350   2.980 -0.1917  0.4840  0.1361
 2939SOL    HW119286   3.529   2.290   3.054 -1.9335 -1.9068 -1.0703
 2939SOL    HW219287   3.572   2.353   2.910  0.4582  0.8911  0.8113
 2940SOL     OW19288   2.800   3.205   0.784 -0.5558  0.2491  0.1986
 2940SOL    HW119289   2.785   3.151   0.867 -0.3620  1.0442  0.7557
 2940SOL    HW219290   2.715   3.249   0.757 -0.2527  1.2340  0.8563
 2941SOL     OW19291   2.665   1.752   0.584 -0.1701  0.2877  0.1995
 2941SOL    HW119292   2.631   1.753   0.679 -0.5413  1.2403  0.0653
 2941SOL    HW219293   2.689   1.845   0.557 -1.0199  0.1659 -0.9802
 2942SOL     OW19294   4.068   0.724   1.299 -0.2129  0.1127 -0.4772
 2942SOL    HW119295   4.113   0.806   1.264 -0.0208 -0.0108 -0.5214
 2942SOL    HW219296   3.981   0.710   1.251 -0.5051  0.5889 -0.0957
 2943SOL     OW19297   9.660   5.551   3.781  0.3794 -0.0756  0.1733
 2943SOL    HW119298   9.588   5.562   3.712 -0.1602 -0.4466  0.6662
 2943SOL    HW219299   9.660   5.630   3.842  2.1443  1.1823 -1.4090
 2944SOL     OW19300   4.218   7.937   2.653 -0.3963 -0.7728  0.5573
 2944SOL    HW119301   4.198   7.847   2.613  3.1680 -2.2373  1.9094
 2944SOL    HW219302   4.200   7.934   2.752  1.7606 -0.6986  0.9788
 2945SOL     OW19303   2.937   9.066   0.549  0.1286  0.0682 -0.1859
 2945SOL    HW119304   2.991   9.137   0.593 -0.7184  1.1234 -0.8319
 2945SOL    HW219305   2.957   9.065   0.451  0.8925 -1.2658 -0.0223
 2946SOL     OW19306   4.521   8.498   3.823 -0.6583  0.2366 -0.0695
 2946SOL    HW119307   4.450   8.498   3.753 -0.2102  0.6894 -0.5254
 2946SOL    HW219308   4.493   8.556   3.899 -0.6458  0.6480 -0.3786
 2947SOL     OW19309   1.389   6.586   2.933  0.3086  0.1619 -0.1852
 2947SOL    HW119310   1.359   6.670   2.889 -0.6741 -1.2113 -2.2441
 2947SOL    HW219311   1.326   6.512   2.911  2.8747 -1.8417 -1.1112
 2948SOL     OW19312   8.913   5.885   1.119  0.0626  0.3015  0.1663
 2948SOL    HW119313   8.878   5.851   1.031  0.3501  1.2118 -0.2972
 2948SOL    HW219314   9.005   5.849   1.134  0.4105  0.9635 -0.3786
 2949SOL     OW19315   8.408   3.208   0.598  0.3167 -0.1003 -0.3406
 2949SOL    HW119316   8.433   3.287   0.653 -1.4208  0.6576 -0.6112
 2949SOL    HW219317   8.490   3.170   0.554  1.3547  0.6912  0.9038
 2950SOL     OW19318   1.020   3.812   1.070  0.2226  0.5627 -0.6774
 2950SOL    HW119319   0.931   3.854   1.089  0.6277  0.6508  1.1375
 2950SOL    HW219320   1.039   3.818   0.972 -2.2581 -0.4463 -1.2637
 2951SOL     OW19321   1.835   7.732   0.811 -0.1560 -0.1417  0.6717
 2951SOL    HW119322   1.780   7.754   0.730 -0.0386 -0.4149  0.5142
 2951SOL    HW219323   1.925   7.774   0.802 -0.9699  1.8794  1.8066
 2952SOL     OW19324   3.858   0.630   3.297  0.0097  0.0716 -0.2458
 2952SOL    HW119325   3.948   0.646   3.256 -0.3507  0.5470 -0.8567
 2952SOL    HW219326   3.845   0.532   3.312 -0.4678 -0.2801 -2.6906
 2953SOL     OW19327   0.703   3.152   3.746 -0.2916  0.1871  0.0841
 2953SOL    HW119328   0.731   3.245   3.771 -1.8196  0.0010  2.6393
 2953SOL    HW219329   0.673   3.103   3.828 -2.1741 -1.6441 -1.6492
 2954SOL     OW19330   0.557   7.568   2.273  0.9299 -0.5770  0.1406
 2954SOL    HW119331   0.592   7.542   2.363  0.2671  1.5873  1.0505
 2954SOL    HW219332   0.457   7.560   2.272  0.8888  0.0103 -0.2148
 2955SOL     OW19333   1.844   0.958   2.448 -0.6659  0.6658 -0.2629
 2955SOL    HW119334   1.791   0.933   2.529  0.1805  0.9213  0.3829
 2955SOL    HW219335   1.892   0.877   2.413 -2.1736  0.2343 -1.3864
 2956SOL     OW19336   4.292   9.948   0.228 -0.7573 -0.0122 -0.8631
 2956SOL    HW119337   4.214   9.986   0.179 -0.8138  0.6210 -0.2839
 2956SOL    HW219338   4.261   9.875   0.288 -1.0146  0.7042 -0.1108
 2957SOL     OW19339   1.100   6.105   3.923 -0.2800  0.0293  0.5907
 2957SOL    HW119340   1.056   6.017   3.906 -1.0321  0.0979  2.1121
 2957SOL    HW219341   1.190   6.090   3.965 -0.7347  0.0019  1.5610
 2958SOL     OW19342   0.405   9.090   0.030  0.1984  0.9022  0.4602
 2958SOL    HW119343   0.423   9.093  -0.068 -0.3405  1.1949  0.3688
 2958SOL    HW219344   0.358   9.005   0.054  1.1570  0.4032  0.6120
 2959SOL     OW19345   8.642   5.371   0.955 -0.2463 -0.3761 -0.1695
 2959SOL    HW119346   8.717   5.426   0.991 -1.9991  1.1835  1.2430
 2959SOL    HW219347   8.631   5.289   1.012 -0.6748  0.2476  0.6566
 2960SOL     OW19348   3.920   8.908   3.239 -0.8936 -0.1651  0.0336
 2960SOL    HW119349   3.928   9.007   3.254 -2.2913  0.0992 -0.9224
 2960SOL    HW219350   3.824   8.882   3.234 -0.5416 -1.0785 -2.8975
 2961SOL     OW19351   9.207   5.405   2.521 -0.9199 -0.2687 -0.3506
 2961SOL    HW119352   9.165   5.438   2.437 -1.5460 -0.5562 -0.1552
 2961SOL    HW219353   9.144   5.341   2.567 -1.2274  1.0172  1.0789
 2962SOL     OW19354   9.019   3.636   1.132  0.0841  0.2463 -0.1711
 2962SOL    HW119355   9.010   3.568   1.060  0.5132 -0.1537  0.1550
 2962SOL    HW219356   9.030   3.591   1.220  2.3442  0.7241 -0.1869
 2963SOL     OW19357   3.358   0.596   0.178  0.3180 -0.0807 -0.5310
 2963SOL    HW119358   3.384   0.535   0.103  5.2568  0.8753  0.2453
 2963SOL    HW219359   3.360   0.545   0.264 -0.3780  0.0406 -0.4407
 2964SOL     OW19360   4.546   8.401   2.908  0.0444  0.0724  0.1157
 2964SOL    HW119361   4.556   8.500   2.923 -4.1655  0.3855  1.2824
 2964SOL    HW219362   4.552   8.382   2.810 -0.8562  1.6979 -0.2650
 2965SOL     OW19363   8.726   0.705   3.846 -0.2431  0.3261  0.1919
 2965SOL    HW119364   8.729   0.649   3.929 -1.3337  0.6062  0.4368
 2965SOL    HW219365   8.794   0.672   3.781  0.7797  0.2368  1.2778
 2966SOL     OW19366   4.257   7.914   3.471  0.0652 -0.1345  0.0095
 2966SOL    HW119367   4.353   7.931   3.492  0.4689 -1.2233 -0.8902
 2966SOL    HW219368   4.200   7.941   3.549  1.0221  1.2737  0.2353
 2967SOL     OW19369   1.140   7.503   1.819  0.4115 -0.0860 -0.1675
 2967SOL    HW119370   1.157   7.444   1.898  0.4768  1.6378  1.1054
 2967SOL    HW219371   1.061   7.468   1.769 -0.0399 -0.7978  1.0203
 2968SOL     OW19372   8.601   1.967   1.572  0.3919 -0.0955 -0.1244
 2968SOL    HW119373   8.602   1.901   1.648 -0.4663 -1.7931 -1.5374
 2968SOL    HW219374   8.507   1.980   1.542  0.6478  1.2117 -0.3642
 2969SOL     OW19375   0.568   2.751   3.626 -0.2167  0.1800  0.1613
 2969SOL    HW119376   0.478   2.766   3.587 -0.2236  2.6115  1.0646
 2969SOL    HW219377   0.576   2.655   3.655 -2.5202 -0.0370  0.1298
 2970SOL     OW19378   9.535   8.533   1.662 -0.2756 -0.0701 -0.1292
 2970SOL    HW119379   9.444   8.522   1.621 -1.0916  0.9601  1.3714
 2970SOL    HW219380   9.599   8.567   1.593 -0.9198 -1.1915 -1.3016
 2971SOL     OW19381   0.639   1.878   1.295 -0.0225  0.2943  0.1259
 2971SOL    HW119382   0.682   1.967   1.312  0.0495  0.0702  1.1516
 2971SOL    HW219383   0.666   1.845   1.205  2.1527  0.0651  0.8319
 2972SOL     OW19384   1.826   3.789   2.595  0.2556 -0.3157  0.5553
 2972SOL    HW119385   1.827   3.690   2.590 -1.2930 -0.2746 -0.8338
 2972SOL    HW219386   1.852   3.818   2.688 -0.5553 -2.0493  1.3459
 2973SOL     OW19387   1.819   7.065   2.145  0.2902  0.1477  0.4694
 2973SOL    HW119388   1.917   7.078   2.157  0.2325  0.1142  1.0066
 2973SOL    HW219389   1.794   7.078   2.049  0.9146 -0.4428  0.2227
 2974SOL     OW19390   8.070   4.836   2.157  0.2952  0.2325  0.1619
 2974SOL    HW119391   8.150   4.893   2.175 -0.7164  1.2459  1.6544
 2974SOL    HW219392   7.996   4.893   2.121 -0.0311 -0.5326 -0.3928
 2975SOL     OW19393   3.215   6.384   2.885 -0.2236  0.1699 -0.0511
 2975SOL    HW119394   3.168   6.304   2.921  0.2615 -0.5319 -0.9266
 2975SOL    HW219395   3.182   6.466   2.930 -1.4360 -0.4261  0.1701
 2976SOL     OW19396   2.882   6.463   2.292  0.6470  0.1817  0.5662
 2976SOL    HW119397   2.980   6.479   2.298  0.7823 -0.5211  0.3223
 2976SOL    HW219398   2.835   6.549   2.273  0.9686  0.9757  3.2202
 2977SOL     OW19399   4.461   0.939   1.045 -0.3382  0.3976 -0.1434
 2977SOL    HW119400   4.495   0.896   0.961 -2.4885  1.8696 -1.8397
 2977SOL    HW219401   4.522   1.013   1.072 -0.4233  0.8867 -1.2725
 2978SOL     OW19402   3.071   9.621   1.183  0.3640  0.1732 -0.0894
 2978SOL    HW119403   3.129   9.679   1.126  0.7603 -0.6379 -0.5194
 2978SOL    HW219404   3.128   9.571   1.248  0.1597 -0.7565 -0.6276
 2979SOL     OW19405   1.754   6.226   0.909  0.0416  1.1435 -0.4055
 2979SOL    HW119406   1.777   6.243   1.005  1.5887  0.3275 -0.6194
 2979SOL    HW219407   1.674   6.281   0.884 -1.7825 -0.3220  1.9667
 2980SOL     OW19408   2.257   5.200   1.499  0.2200  0.6544  0.1700
 2980SOL    HW119409   2.260   5.185   1.598  3.0847  0.4045  0.0957
 2980SOL    HW219410   2.169   5.240   1.474 -1.0089 -0.3883  2.6513
 2981SOL     OW19411   4.326   7.292   1.539 -0.0836  0.3691 -0.1717
 2981SOL    HW119412   4.354   7.381   1.575  0.3509 -0.0782  0.5957
 2981SOL    HW219413   4.406   7.233   1.531 -0.2262  0.3238 -1.5153
 2982SOL     OW19414   0.483   9.002   2.475 -0.3542  0.1165  0.1851
 2982SOL    HW119415   0.453   9.063   2.548  0.9473  2.7463 -1.3693
 2982SOL    HW219416   0.553   8.940   2.510 -1.4362 -0.2639  1.7170
 2983SOL     OW19417   8.553   6.869   3.795  0.2625  0.6072 -0.0946
 2983SOL    HW119418   8.583   6.862   3.890 -1.3065 -2.0512  0.2461
 2983SOL    HW219419   8.474   6.931   3.790 -0.8597 -0.7411  0.6491
 2984SOL     OW19420   4.013   2.167   0.915  0.3056  0.1723 -0.2412
 2984SOL    HW119421   4.007   2.164   0.816 -0.5265  3.6452 -0.3496
 2984SOL    HW219422   4.086   2.230   0.943 -0.3382  0.2500  1.3471
 2985SOL     OW19423   9.966   0.038   1.195 -0.5935 -0.2292 -0.1274
 2985SOL    HW119424   9.890   0.082   1.244 -0.5923 -0.0328 -0.3021
 2985SOL    HW219425   9.966  -0.060   1.216 -0.3196 -0.0724  0.6171
 2986SOL     OW19426   0.721   5.000   2.515 -0.1815  0.6143  0.7731
 2986SOL    HW119427   0.759   5.030   2.602  0.5548 -0.7903  0.9520
 2986SOL    HW219428   0.651   5.064   2.485 -1.3677  0.4145  3.0532
 2987SOL     OW19429   7.904   8.819   0.240 -0.4888 -0.0710 -0.0091
 2987SOL    HW119430   7.860   8.778   0.160 -1.0210 -1.1750  0.8384
 2987SOL    HW219431   7.898   8.919   0.233 -2.3302 -0.1904 -0.3466
 2988SOL     OW19432   3.180   8.133   2.534 -0.1359  0.0978 -0.6134
 2988SOL    HW119433   3.201   8.101   2.441 -0.0097 -0.7357 -0.3070
 2988SOL    HW219434   3.100   8.193   2.532  0.1439  0.4542 -1.3216
 2989SOL     OW19435   9.880   1.367   3.712  0.8649 -0.8343  0.2679
 2989SOL    HW119436   9.955   1.322   3.761  0.4467 -2.2104 -0.3590
 2989SOL    HW219437   9.918   1.432   3.646  1.4337  1.1187  2.4596
 2990SOL     OW19438   1.505   2.484   2.033 -0.1328 -0.4333 -0.4105
 2990SOL    HW119439   1.491   2.400   2.086 -0.9918 -0.0770 -0.0564
 2990SOL    HW219440   1.448   2.557   2.072 -0.3254 -0.0144 -1.4752
 2991SOL     OW19441   9.558   1.538   3.147  0.5552  0.2856 -0.3071
 2991SOL    HW119442   9.523   1.454   3.104  1.7748 -0.7602  0.6919
 2991SOL    HW219443   9.495   1.567   3.219  2.1027 -2.1151  2.1188
 2992SOL     OW19444   2.708   8.485   0.322 -0.1618  0.2076 -0.0718
 2992SOL    HW119445   2.772   8.515   0.393  0.1291  1.4165 -0.8360
 2992SOL    HW219446   2.749   8.496   0.232 -0.8963 -0.4007 -0.4897
 2993SOL     OW19447   9.330   6.723   1.638  0.3180 -0.0881 -0.2588
 2993SOL    HW119448   9.344   6.633   1.598  0.5460  0.3015 -1.0676
 2993SOL    HW219449   9.419   6.764   1.659  0.2335  0.1708 -0.4027
 2994SOL     OW19450   8.259   7.011   1.800  0.2734  0.4128 -0.1363
 2994SOL    HW119451   8.322   7.067   1.747  2.1929 -2.0094 -0.5212
 2994SOL    HW219452   8.180   6.988   1.744  1.4765 -0.7068 -1.4162
 2995SOL     OW19453   8.962   9.124   2.596 -0.3148 -0.0240 -0.3905
 2995SOL    HW119454   8.947   9.032   2.558 -0.0082 -0.7611  1.2329
 2995SOL    HW219455   8.875   9.172   2.600 -0.9529 -1.2587  1.2666
 2996SOL     OW19456   2.827   6.943   1.690  0.2182  0.2979  0.3589
 2996SOL    HW119457   2.728   6.952   1.699  0.1717 -1.0061  1.3394
 2996SOL    HW219458   2.849   6.902   1.601 -0.2347 -0.9192  0.7896
 2997SOL     OW19459   9.719   5.640   2.231 -0.0542  0.0895 -0.2494
 2997SOL    HW119460   9.642   5.622   2.293 -0.3250  1.4355 -0.1748
 2997SOL    HW219461   9.713   5.734   2.198 -0.2404 -0.7766 -2.7844
 2998SOL     OW19462   0.848   9.602   1.603 -0.3274  0.3728 -0.1102
 2998SOL    HW119463   0.815   9.684   1.556  1.3345  0.3592 -1.3476
 2998SOL    HW219464   0.894   9.628   1.688 -0.9697  0.6184  0.1606
 2999SOL     OW19465   0.184   9.511   3.550 -0.0855 -0.6122 -0.0834
 2999SOL    HW119466   0.126   9.467   3.481  1.0827 -1.2067 -0.7121
 2999SOL    HW219467   0.147   9.600   3.574 -0.2179 -0.1647 -1.8977
 3000SOL     OW19468   1.786   1.651   1.699  0.2219 -0.1611  0.1846
 3000SOL    HW119469   1.793   1.737   1.649 -0.3101  0.0713  0.5036
 3000SOL    HW219470   1.793   1.668   1.797 -0.4640 -0.4084  0.2837
 3001SOL     OW19471   7.850   2.228   1.895 -0.6772 -0.3147 -0.0922
 3001SOL    HW119472   7.757   2.230   1.930 -0.4563 -0.7275  0.5279
 3001SOL    HW219473   7.915   2.216   1.971 -0.1257 -0.0908 -0.5205
 3002SOL     OW19474   8.625   2.280   0.088 -0.4799 -0.0264 -0.0999
 3002SOL    HW119475   8.679   2.327   0.018 -1.3453 -0.2154 -0.9139
 3002SOL    HW219476   8.654   2.185   0.095 -0.7300 -0.1401 -0.5678
 3003SOL     OW19477   3.499   2.029   3.038 -0.8714  0.1235  0.1536
 3003SOL    HW119478   3.537   2.063   3.125  0.2483 -0.8138  0.0299
 3003SOL    HW219479   3.522   1.933   3.026 -0.4455  0.4283 -1.5212
 3004SOL     OW19480   0.021   8.535   2.446  0.4857 -0.0027 -0.1815
 3004SOL    HW119481   0.009   8.511   2.542 -0.6377  1.6837  0.1167
 3004SOL    HW219482   0.115   8.567   2.431  1.2089 -1.9650 -0.0483
 3005SOL     OW19483   8.490   0.319   3.097 -0.2588 -0.1158  0.6796
 3005SOL    HW119484   8.462   0.331   3.193 -2.8032 -1.5115  0.1436
 3005SOL    HW219485   8.425   0.259   3.051  2.7276 -2.1216 -1.0889
 3006SOL     OW19486   0.669   5.920   1.458 -0.4948  0.0314  0.1395
 3006SOL    HW119487   0.648   5.901   1.554 -1.7458  0.7536  0.0213
 3006SOL    HW219488   0.652   5.839   1.403 -1.1071  0.0238  0.3360
 3007SOL     OW19489   6.035   9.085   1.184 -0.4492 -0.1871 -0.0894
 3007SOL    HW119490   6.108   9.091   1.251  0.3553 -3.0266 -0.6425
 3007SOL    HW219491   6.051   9.152   1.111 -0.7428  2.1481  1.9242
 3008SOL     OW19492   2.851   6.032   0.438  0.2129 -0.1722  0.3313
 3008SOL    HW119493   2.898   6.106   0.486  1.3606  0.0329 -1.0472
 3008SOL    HW219494   2.819   5.963   0.503 -0.5553  1.3648  1.5893
 3009SOL     OW19495   3.669   3.630   3.749 -0.0294  0.1055 -0.2606
 3009SOL    HW119496   3.685   3.545   3.799 -0.1606  0.0597 -0.2954
 3009SOL    HW219497   3.575   3.660   3.764 -0.0068  0.2024 -0.3122
 3010SOL     OW19498   3.916   0.850   0.386  0.1310 -0.0920  0.0757
 3010SOL    HW119499   3.903   0.784   0.460 -0.1094  0.2369  0.3304
 3010SOL    HW219500   3.973   0.925   0.419 -1.1280  0.7485  0.3507
 3011SOL     OW19501   8.311   7.224   2.816 -0.0626 -0.6387  0.3088
 3011SOL    HW119502   8.339   7.128   2.816 -1.5219 -1.0690 -0.4769
 3011SOL    HW219503   8.251   7.242   2.894  1.2669 -0.0285  1.2209
 3012SOL     OW19504   4.874   8.493   1.511  0.0390  0.3128 -0.4442
 3012SOL    HW119505   4.969   8.477   1.483  0.9552  2.9738  0.9672
 3012SOL    HW219506   4.862   8.465   1.606 -0.5867  0.0219 -0.6048
 3013SOL     OW19507   3.388   5.119   2.183  0.3502  0.0091 -0.2904
 3013SOL    HW119508   3.452   5.042   2.183 -0.3663 -0.5997  0.7584
 3013SOL    HW219509   3.302   5.090   2.224  0.3836  1.6277  0.9617
 3014SOL     OW19510   7.213   8.805   1.948 -0.1277  0.5397 -0.7820
 3014SOL    HW119511   7.204   8.854   2.035 -0.0941 -2.4306  0.9709
 3014SOL    HW219512   7.310   8.801   1.922 -0.0616  0.8045 -0.5784
 3015SOL     OW19513   0.978   0.797   0.302 -0.3956 -0.8981 -0.2504
 3015SOL    HW119514   0.995   0.884   0.255 -0.3113 -0.8725 -0.1730
 3015SOL    HW219515   1.065   0.761   0.337 -0.5523 -0.5721  0.4845
 3016SOL     OW19516   5.407   8.397   3.477 -0.1494  0.3250 -0.2696
 3016SOL    HW119517   5.365   8.388   3.386 -0.1598  0.9840 -0.3295
 3016SOL    HW219518   5.480   8.330   3.486 -1.0094 -0.6299 -0.2793
 3017SOL     OW19519   1.310   7.458   1.609  0.2368  0.0252  0.6556
 3017SOL    HW119520   1.292   7.360   1.596 -0.3553  0.1539  0.5105
 3017SOL    HW219521   1.284   7.484   1.702  0.4814  0.0312  0.7247
 3018SOL     OW19522   9.959   4.614   1.645  0.4855  0.5828 -0.0261
 3018SOL    HW119523  10.007   4.688   1.693  0.5496  1.0274 -0.7745
 3018SOL    HW219524  10.018   4.576   1.574 -0.0713  0.7675 -0.5890
 3019SOL     OW19525   9.079   1.483   3.102 -0.4433 -0.1785 -0.1242
 3019SOL    HW119526   9.063   1.392   3.063  0.4757  1.0624 -3.6070
 3019SOL    HW219527   8.996   1.539   3.091  0.5525  0.9078 -2.6145
 3020SOL     OW19528   8.715   6.962   0.879 -0.1373  0.7476 -0.4492
 3020SOL    HW119529   8.625   7.003   0.894 -1.7233 -2.9427  0.8504
 3020SOL    HW219530   8.770   6.973   0.962  0.1433  1.8040 -0.7629
 3021SOL     OW19531   1.224   4.780   0.520  0.3178 -0.2305 -0.2547
 3021SOL    HW119532   1.138   4.752   0.562  0.2158  2.1999  1.2357
 3021SOL    HW219533   1.212   4.868   0.476  1.9327 -0.1005 -0.4454
 3022SOL     OW19534   4.108   3.034   0.881 -0.4152  0.1776  0.1500
 3022SOL    HW119535   4.078   2.999   0.792 -0.1787  0.7486 -0.1574
 3022SOL    HW219536   4.206   3.054   0.877 -0.4188  0.2642  0.5211
 3023SOL     OW19537   9.296   2.820   0.989 -0.0158  0.9569  0.0939
 3023SOL    HW119538   9.312   2.742   0.930 -0.2225  1.8245 -1.1306
 3023SOL    HW219539   9.202   2.816   1.025 -0.7344  1.7375 -1.6556
 3024SOL     OW19540   9.344   6.768   3.359 -0.5489 -1.1524 -0.3831
 3024SOL    HW119541   9.440   6.744   3.344 -0.5357 -1.0007 -0.5376
 3024SOL    HW219542   9.338   6.837   3.431 -0.4123  0.0936 -1.5543
 3025SOL     OW19543   0.810   9.462   1.318 -0.2735 -0.1595  0.6714
 3025SOL    HW119544   0.808   9.551   1.272 -1.0856 -0.9696 -0.8813
 3025SOL    HW219545   0.891   9.456   1.376  0.4890  1.0661 -0.2562
 3026SOL     OW19546   8.150   5.602   3.312 -0.1961  0.1134 -0.0944
 3026SOL    HW119547   8.067   5.568   3.355  0.5074 -0.1890  1.0549
 3026SOL    HW219548   8.227   5.544   3.338  0.7069  1.5128  0.4239
 3027SOL     OW19549   9.259   4.150   1.922 -0.2729  0.1773 -0.2211
 3027SOL    HW119550   9.207   4.236   1.925 -0.1558  0.2094  2.8654
 3027SOL    HW219551   9.198   4.075   1.897 -0.4545  1.0620 -2.5977
 3028SOL     OW19552   9.433   5.907   1.223 -0.5321  0.1516 -0.2644
 3028SOL    HW119553   9.502   5.836   1.209  0.5822  0.8223  1.5626
 3028SOL    HW219554   9.454   5.986   1.164 -1.3609 -0.7279 -1.7631
 3029SOL     OW19555   1.976   5.152   2.573  0.0703  0.4700  0.4637
 3029SOL    HW119556   1.888   5.125   2.534  0.6333  0.2607 -0.6680
 3029SOL    HW219557   1.974   5.250   2.593 -0.1576  0.6211 -0.2740
 3030SOL     OW19558   1.719   3.638   0.784  0.2155  0.1623 -0.6666
 3030SOL    HW119559   1.630   3.654   0.828  0.4061  0.1370 -0.2739
 3030SOL    HW219560   1.723   3.544   0.750 -0.1729  0.3659 -1.2985
 3031SOL     OW19561   0.116   5.410   1.974  0.7760  0.4864 -0.7918
 3031SOL    HW119562   0.200   5.405   2.028  0.4348  0.0512 -0.2948
 3031SOL    HW219563   0.044   5.455   2.028 -0.3254 -2.2613  0.1241
 3032SOL     OW19564   3.021   4.125   0.639  0.5063  0.0342 -0.4567
 3032SOL    HW119565   2.930   4.154   0.610  1.8133  1.7951 -2.9687
 3032SOL    HW219566   3.026   4.126   0.739 -1.5944  1.9282 -0.3312
 3033SOL     OW19567   8.060   4.943   2.573  0.3009 -0.6844  0.4253
 3033SOL    HW119568   8.020   4.880   2.506  0.5647  2.3023 -2.6923
 3033SOL    HW219569   7.989   4.975   2.635 -0.9139 -0.1431 -1.1968
 3034SOL     OW19570   0.741   5.805   0.232 -0.0121 -0.2114  0.4440
 3034SOL    HW119571   0.741   5.706   0.245 -0.7619 -0.4807 -1.4802
 3034SOL    HW219572   0.819   5.831   0.174 -1.3539  0.0118 -1.2700
 3035SOL     OW19573   1.529   3.303   1.734  0.1157 -0.7159 -0.5943
 3035SOL    HW119574   1.484   3.377   1.683 -1.1130 -0.9891  0.0550
 3035SOL    HW219575   1.595   3.257   1.675  0.5688  0.6087 -1.1408
 3036SOL     OW19576   8.390   8.990   1.934 -0.0682 -0.1650  0.2448
 3036SOL    HW119577   8.449   9.069   1.953 -1.3557  0.9434 -0.2642
 3036SOL    HW219578   8.428   8.937   1.859  0.9254 -0.1499  0.7359
 3037SOL     OW19579   7.809   7.551   2.418  0.3618 -0.3057 -0.0801
 3037SOL    HW119580   7.746   7.542   2.496  1.2866 -0.1865  0.6970
 3037SOL    HW219581   7.812   7.646   2.388 -0.8602 -0.5526 -1.0011
 3038SOL     OW19582   4.366   3.159   0.785  0.5668  0.7741 -0.7505
 3038SOL    HW119583   4.301   3.197   0.719 -0.1033 -0.1885 -0.6527
 3038SOL    HW219584   4.387   3.227   0.854 -1.0226  0.8075 -0.2893
 3039SOL     OW19585   1.798   4.428   0.520  0.2996 -0.4498  0.0378
 3039SOL    HW119586   1.863   4.359   0.490  0.6527  0.2681 -0.8739
 3039SOL    HW219587   1.837   4.481   0.595  0.4159 -0.5936  0.0788
 3040SOL     OW19588   2.927   5.427   2.476  0.0740  0.0942 -0.1198
 3040SOL    HW119589   2.984   5.494   2.429  0.2515 -0.0412 -0.0989
 3040SOL    HW219590   2.832   5.441   2.450 -0.1534  1.7066  1.4977
 3041SOL     OW19591   9.233   4.384   3.044 -0.3945  0.4040 -0.3969
 3041SOL    HW119592   9.323   4.393   3.000  1.0874 -0.3082  2.3699
 3041SOL    HW219593   9.192   4.297   3.016  0.0566  0.4246 -1.1570
 3042SOL     OW19594   1.583   8.163   0.378  0.6114 -0.6267 -0.3631
 3042SOL    HW119595   1.628   8.214   0.305 -0.0846 -0.1527 -0.4650
 3042SOL    HW219596   1.528   8.089   0.338  0.9336 -0.9214 -0.2647
 3043SOL     OW19597   4.467   7.546   1.297  0.5070  0.0775 -0.6561
 3043SOL    HW119598   4.552   7.599   1.302  0.3835  0.4162 -1.8952
 3043SOL    HW219599   4.403   7.579   1.366  0.9231  0.6471 -0.5332
 3044SOL     OW19600   1.936   1.702   2.180 -0.1851  0.2994 -0.2462
 3044SOL    HW119601   2.013   1.745   2.226  1.6472 -1.7119 -1.2980
 3044SOL    HW219602   1.915   1.615   2.225 -1.6055  0.6427 -0.2135
 3045SOL     OW19603   2.314   4.175   1.056  0.0791 -0.0756 -0.2259
 3045SOL    HW119604   2.265   4.133   1.132 -1.0057 -1.9542 -1.8876
 3045SOL    HW219605   2.248   4.206   0.987  1.1041 -0.2329 -1.2950
 3046SOL     OW19606   0.475   5.823   1.024  0.1216 -0.2032  0.1086
 3046SOL    HW119607   0.444   5.916   1.006  0.4629 -0.4465 -1.8128
 3046SOL    HW219608   0.565   5.809   0.984 -0.6544 -1.8659 -1.1141
 3047SOL     OW19609   2.873   1.800   3.283  0.4407  0.6299  0.1704
 3047SOL    HW119610   2.965   1.814   3.246  1.0372  0.8921  1.7011
 3047SOL    HW219611   2.826   1.730   3.230  2.5123 -1.4763  1.0318
 3048SOL     OW19612   8.552   2.043   2.118  0.3531 -0.3982  0.1036
 3048SOL    HW119613   8.652   2.041   2.115  0.4761  1.0949  2.1317
 3048SOL    HW219614   8.519   2.123   2.067  0.2748 -0.0346  0.7205
 3049SOL     OW19615   8.901   5.438   1.239 -0.2544 -0.8764  0.0585
 3049SOL    HW119616   8.870   5.479   1.153 -1.0046 -1.5862 -0.0185
 3049SOL    HW219617   8.839   5.464   1.312  0.0825 -0.7086  0.2853
 3050SOL     OW19618   0.805   7.139   3.084 -0.1935  0.3873  0.0706
 3050SOL    HW119619   0.842   7.115   3.174  1.3477  0.9176 -0.4143
 3050SOL    HW219620   0.753   7.062   3.047  0.1242 -0.2319  0.9098
 3051SOL     OW19621   7.146   9.416   3.284 -0.1037  0.2057 -0.3862
 3051SOL    HW119622   7.164   9.319   3.267  1.1209  0.4615 -0.5917
 3051SOL    HW219623   7.058   9.441   3.244 -0.0909 -0.6510 -0.9572
 3052SOL     OW19624   2.193   0.335   2.446 -0.1858 -0.0479 -0.6713
 3052SOL    HW119625   2.164   0.424   2.480 -2.1818 -1.2686  0.9588
 3052SOL    HW219626   2.288   0.317   2.474 -0.2519  0.9557  0.2009
 3053SOL     OW19627   3.872   4.193   1.854 -0.1046  0.6042  0.1306
 3053SOL    HW119628   3.780   4.154   1.866 -0.9539  1.4271 -3.1456
 3053SOL    HW219629   3.864   4.292   1.841  1.4859  1.0032  2.0482
 3054SOL     OW19630   0.855   9.888   1.958 -0.6960 -0.3608 -0.5303
 3054SOL    HW119631   0.759   9.900   1.933 -0.9508  0.7266  0.8761
 3054SOL    HW219632   0.875   9.942   2.040  0.5250 -2.4653  0.5951
 3055SOL     OW19633   9.278   5.428   2.816  0.6158  0.0936 -0.2865
 3055SOL    HW119634   9.264   5.435   2.717  0.7704 -0.1216 -0.3232
 3055SOL    HW219635   9.322   5.511   2.849 -1.9149  1.3764  0.0363
 3056SOL     OW19636   3.146   3.242   2.737  0.2509 -0.3361  0.6218
 3056SOL    HW119637   3.048   3.255   2.747  0.2771  0.7128 -0.4002
 3056SOL    HW219638   3.178   3.176   2.805 -0.9535  0.2172  1.7345
 3057SOL     OW19639   2.778   3.217   1.875  0.7120 -0.3752 -0.0233
 3057SOL    HW119640   2.763   3.119   1.859  2.8453 -0.5230 -1.3146
 3057SOL    HW219641   2.743   3.269   1.797  0.3814 -0.1788  0.2561
 3058SOL     OW19642   2.784   1.926   2.208  0.4767  0.1282  0.1966
 3058SOL    HW119643   2.717   1.853   2.210  0.1036  0.5058  2.2364
 3058SOL    HW219644   2.791   1.963   2.115 -0.9693 -0.9674 -0.3514
 3059SOL     OW19645   9.637   4.589   2.464  0.3044 -0.3501  0.5028
 3059SOL    HW119646   9.609   4.548   2.550  1.7841  0.1468  1.2461
 3059SOL    HW219647   9.658   4.686   2.478 -2.0461  0.4137 -0.9863
 3060SOL     OW19648   8.923   2.647   1.786  0.0039 -0.7458  0.9645
 3060SOL    HW119649   8.841   2.696   1.755 -0.3272 -0.6688  1.9432
 3060SOL    HW219650   8.925   2.556   1.745 -0.1301 -0.4403  0.2715
 3061SOL     OW19651   2.763   7.010   2.690  0.3373  0.4554 -0.4147
 3061SOL    HW119652   2.757   6.916   2.722  0.1541  0.2598 -1.0206
 3061SOL    HW219653   2.681   7.060   2.718  1.5004  1.0881  1.9928
 3062SOL     OW19654   9.626   2.591   3.215  0.3925  0.1961 -0.1753
 3062SOL    HW119655   9.706   2.539   3.184  1.4912  1.7348  0.0186
 3062SOL    HW219656   9.543   2.541   3.191  1.3975 -1.4502 -0.3579
 3063SOL     OW19657   9.609   4.213   1.155 -0.0029  0.3331 -0.2666
 3063SOL    HW119658   9.628   4.159   1.238  0.8279  0.0021 -0.6647
 3063SOL    HW219659   9.612   4.310   1.177  0.2459  0.2451  0.0846
 3064SOL     OW19660   8.732   7.074   1.730  0.5151 -0.1902 -0.6403
 3064SOL    HW119661   8.728   6.979   1.762 -0.2487  0.0745  0.0986
 3064SOL    HW219662   8.641   7.102   1.699 -0.3439  1.6024  3.1309
 3065SOL     OW19663   0.598   7.103   0.185 -0.2440 -0.0884 -1.0428
 3065SOL    HW119664   0.635   7.180   0.236 -0.2745 -0.7160 -0.0662
 3065SOL    HW219665   0.530   7.136   0.120  0.5387  0.8326 -1.4103
 3066SOL     OW19666   9.630   9.435   3.638 -0.6423  0.2157 -0.5396
 3066SOL    HW119667   9.615   9.534   3.645  1.0873  0.5618 -1.4996
 3066SOL    HW219668   9.544   9.387   3.655 -1.1878  1.8210  1.3968
 3067SOL     OW19669   0.501   8.758   1.700 -0.0250 -0.3872  0.4982
 3067SOL    HW119670   0.568   8.727   1.634  0.7340 -0.0754  1.1178
 3067SOL    HW219671   0.430   8.688   1.712 -0.7151 -0.0245 -1.3708
 3068SOL     OW19672   7.877   0.153   0.022  0.2254  0.1031  0.2568
 3068SOL    HW119673   7.949   0.105  -0.028  0.5895 -0.6042  1.4408
 3068SOL    HW219674   7.804   0.179  -0.042 -0.3332 -2.6956 -0.3178
 3069SOL     OW19675   1.153   6.550   0.973 -0.4863 -0.2732 -0.4295
 3069SOL    HW119676   1.074   6.494   0.996 -1.0977  0.2611 -1.2026
 3069SOL    HW219677   1.126   6.646   0.969  0.6153  0.1103  1.1585
 3070SOL     OW19678   0.306   5.614   0.930 -0.6395  0.2799 -0.1153
 3070SOL    HW119679   0.340   5.697   0.974  1.4410  0.2216 -1.5406
 3070SOL    HW219680   0.367   5.538   0.950  0.1305  0.1658 -2.6772
 3071SOL     OW19681   0.123   0.192   0.225 -0.4734 -0.0714 -0.4455
 3071SOL    HW119682   0.166   0.101   0.217  0.3800  0.3829 -1.0888
 3071SOL    HW219683   0.143   0.230   0.315  0.5149  0.1623 -0.7666
 3072SOL     OW19684   2.910   2.442   1.367 -0.2507 -0.1245  0.3579
 3072SOL    HW119685   2.920   2.532   1.326 -1.5477 -1.0295 -2.0075
 3072SOL    HW219686   2.825   2.400   1.336  0.0051 -1.9148  1.9469
 3073SOL     OW19687   0.894   5.636   3.373 -0.0814  1.1196 -0.2997
 3073SOL    HW119688   0.866   5.652   3.467  0.8214 -1.6049  0.4884
 3073SOL    HW219689   0.860   5.547   3.343  3.4604 -0.0944 -0.9569
 3074SOL     OW19690   1.351   1.241   3.931  0.4128  0.3311 -0.0593
 3074SOL    HW119691   1.447   1.219   3.918  0.5752 -1.3431  3.4404
 3074SOL    HW219692   1.294   1.165   3.899  0.3124  0.5684 -0.4573
 3075SOL     OW19693   4.271   9.640   2.869 -1.1647  0.1666 -0.1047
 3075SOL    HW119694   4.241   9.699   2.795 -0.0383  0.4631 -0.3324
 3075SOL    HW219695   4.315   9.559   2.831 -0.6840  0.2643  0.2417
 3076SOL     OW19696   3.904   3.608   1.510 -0.4217  0.0490 -0.8130
 3076SOL    HW119697   3.851   3.567   1.435 -3.2275 -0.5159  1.4243
 3076SOL    HW219698   3.882   3.561   1.596  2.2947  1.0958  0.5161
 3077SOL     OW19699   8.240   1.998   3.201  0.0930  0.7247 -0.7582
 3077SOL    HW119700   8.141   2.004   3.212  0.1488 -0.8696  0.8622
 3077SOL    HW219701   8.262   1.962   3.111 -0.8383 -0.3202 -0.5665
 3078SOL     OW19702   1.021   6.080   3.056 -0.1092  0.7476  0.0119
 3078SOL    HW119703   0.980   6.141   2.988  1.1783 -0.6516 -2.0774
 3078SOL    HW219704   0.987   5.987   3.042  1.2298  0.1864  0.3868
 3079SOL     OW19705   4.324   9.241   2.438  0.2557  0.5520 -0.0655
 3079SOL    HW119706   4.232   9.220   2.472  0.4126  0.5955  0.3947
 3079SOL    HW219707   4.386   9.166   2.461  0.8435  1.5449  1.6725
 3080SOL     OW19708   4.806   9.401   3.629  0.0980 -0.0057 -0.3585
 3080SOL    HW119709   4.778   9.319   3.680  1.8355 -0.8770 -0.7801
 3080SOL    HW219710   4.838   9.471   3.694 -0.0729 -0.1829 -0.0833
 3081SOL     OW19711   0.997   1.619   3.763 -0.4992 -0.1368 -0.4919
 3081SOL    HW119712   1.020   1.696   3.704 -0.2873  0.8654  0.8982
 3081SOL    HW219713   0.965   1.543   3.706  0.7368  0.4257 -1.9972
 3082SOL     OW19714   3.859   0.161   3.653 -0.6851  0.0159 -0.2737
 3082SOL    HW119715   3.894   0.184   3.562 -0.3123 -3.2065 -0.9930
 3082SOL    HW219716   3.759   0.174   3.654 -0.3239  3.2402 -0.0827
 3083SOL     OW19717   3.856   1.590   3.788 -0.6758 -0.3942  0.2561
 3083SOL    HW119718   3.835   1.547   3.876 -2.1863  1.0895  0.6421
 3083SOL    HW219719   3.816   1.536   3.714  1.3253 -2.1269  0.3571
 3084SOL     OW19720   2.307   5.752   0.622 -0.3341  0.2151  0.0414
 3084SOL    HW119721   2.358   5.832   0.590 -1.7253  0.4412 -1.7062
 3084SOL    HW219722   2.266   5.771   0.711 -0.9510  1.5854 -0.5238
 3085SOL     OW19723   9.039   8.260   0.396  0.0601  0.0957 -0.8125
 3085SOL    HW119724   9.063   8.251   0.299 -0.3038 -0.6537 -0.8299
 3085SOL    HW219725   8.947   8.298   0.403  0.8364  2.0457 -0.7470
 3086SOL     OW19726   1.993   3.001   1.166  0.2949  0.1743 -0.5219
 3086SOL    HW119727   2.075   3.059   1.172  0.2123  0.2417 -0.0078
 3086SOL    HW219728   1.938   3.029   1.088  1.3741 -0.6633 -1.6066
 3087SOL     OW19729   1.387   4.252   1.790 -0.0673 -0.2989  0.8342
 3087SOL    HW119730   1.449   4.319   1.748 -0.0617 -0.8974 -0.1331
 3087SOL    HW219731   1.438   4.168   1.809 -0.3919 -0.5072  0.7815
 3088SOL     OW19732   2.427   0.124   2.734 -0.4355 -0.1437 -0.0541
 3088SOL    HW119733   2.417   0.217   2.769 -2.0560 -0.5540  0.6409
 3088SOL    HW219734   2.520   0.092   2.750  0.0987  1.2991 -0.1678
 3089SOL     OW19735   4.542   3.046   2.074 -0.0232 -0.2209  0.0422
 3089SOL    HW119736   4.616   2.983   2.050 -0.5204 -0.1511 -1.7472
 3089SOL    HW219737   4.455   2.997   2.073 -0.4257  0.4949 -1.4662
 3090SOL     OW19738   0.937   3.349   1.661 -0.2504 -0.0003  0.4575
 3090SOL    HW119739   0.977   3.413   1.595  1.0001  0.5428  1.7205
 3090SOL    HW219740   0.945   3.256   1.625 -1.4094  0.4600 -1.0539
 3091SOL     OW19741   6.328   7.718   1.900  0.1464  0.0676  0.3826
 3091SOL    HW119742   6.363   7.699   1.991 -0.4325 -0.3207  0.5296
 3091SOL    HW219743   6.228   7.711   1.901  0.0466  1.3391  0.0203
 3092SOL     OW19744   8.853   0.303   2.793  0.8232 -0.3872 -0.3012
 3092SOL    HW119745   8.837   0.285   2.890  0.8035  0.9694 -0.0346
 3092SOL    HW219746   8.902   0.390   2.783 -1.3796  0.7624 -1.5891
 3093SOL     OW19747   8.453   6.694   0.963 -0.2118 -0.2393  0.0574
 3093SOL    HW119748   8.528   6.666   0.902 -0.5391 -1.8207  0.3636
 3093SOL    HW219749   8.449   6.632   1.041 -2.4820 -0.7800 -0.4684
 3094SOL     OW19750   9.129   4.144   2.215 -0.2132 -0.7890 -0.3087
 3094SOL    HW119751   9.057   4.194   2.166 -0.2457 -1.1347 -0.6187
 3094SOL    HW219752   9.208   4.132   2.155 -0.0149 -0.6764 -0.0702
 3095SOL     OW19753   1.846   7.487   0.166  0.0431 -0.0376  0.1783
 3095SOL    HW119754   1.841   7.435   0.251 -0.1233 -1.1847 -0.5263
 3095SOL    HW219755   1.753   7.515   0.140 -0.2191 -1.9142 -0.9792
 3096SOL     OW19756   1.395   5.857   1.186  0.3969 -0.5876 -0.7610
 3096SOL    HW119757   1.463   5.917   1.144 -0.1565 -0.2408 -1.1754
 3096SOL    HW219758   1.361   5.897   1.271 -0.6145  0.1254 -1.4839
 3097SOL     OW19759   5.880   6.523   2.425  0.2520  0.1838  0.3150
 3097SOL    HW119760   5.805   6.587   2.412  0.5178  0.8983  2.1081
 3097SOL    HW219761   5.960   6.572   2.458  0.4708 -1.0277  1.6548
 3098SOL     OW19762   3.228   6.829   1.725  0.5972 -0.2407  0.2499
 3098SOL    HW119763   3.246   6.746   1.778  1.1522  1.1311  2.2613
 3098SOL    HW219764   3.276   6.824   1.637 -2.3437 -3.6374 -1.2599
 3099SOL     OW19765   7.928   1.620   0.915  0.4014  0.0402  0.0377
 3099SOL    HW119766   7.933   1.521   0.920  1.1430  0.1194  1.0343
 3099SOL    HW219767   7.901   1.657   1.004 -0.5203  0.7004 -0.4971
 3100SOL     OW19768   3.670   4.652   1.967 -0.4433 -0.3308 -0.2934
 3100SOL    HW119769   3.603   4.593   2.012  0.1880 -0.1587  0.8952
 3100SOL    HW219770   3.742   4.596   1.927 -1.4220 -0.5355 -1.8257
 3101SOL     OW19771   4.500   9.311   1.545 -0.3314 -0.5469  0.2524
 3101SOL    HW119772   4.556   9.264   1.613  0.0416 -0.2784  0.1291
 3101SOL    HW219773   4.444   9.244   1.496  0.3442 -0.8883 -0.0568
 3102SOL     OW19774   1.339   7.462   4.037 -0.1638  0.1270  0.1171
 3102SOL    HW119775   1.392   7.379   4.024 -0.1889 -0.3016  2.4541
 3102SOL    HW219776   1.250   7.439   4.076 -0.4543  1.1849  0.1066
 3103SOL     OW19777   4.385   0.490   2.447 -0.2181  0.2103 -0.6532
 3103SOL    HW119778   4.383   0.391   2.446  0.2147  0.0961  2.5838
 3103SOL    HW219779   4.471   0.523   2.409 -0.4690 -0.6401 -1.9571
 3104SOL     OW19780   3.784   2.232   3.591 -0.3937 -0.2139 -0.4919
 3104SOL    HW119781   3.811   2.185   3.507  1.2329 -0.8822  0.3719
 3104SOL    HW219782   3.775   2.330   3.573  1.5656 -0.1178 -1.1133
 3105SOL     OW19783   9.865   7.265   0.478  0.3904  0.1828 -0.2540
 3105SOL    HW119784   9.785   7.234   0.426 -0.7667  1.0096  1.0140
 3105SOL    HW219785   9.871   7.214   0.564  1.2478  0.1220 -0.3423
 3106SOL     OW19786   4.606   2.937   3.906 -0.5170  0.0022  0.0224
 3106SOL    HW119787   4.682   2.994   3.874  0.3368 -0.1897  1.6414
 3106SOL    HW219788   4.590   2.955   4.003 -2.4531 -0.0836 -0.2722
 3107SOL     OW19789   3.490   2.589   2.607  0.2329  0.0729 -0.5662
 3107SOL    HW119790   3.558   2.575   2.535  2.3730  1.5931  1.0762
 3107SOL    HW219791   3.537   2.606   2.694 -2.2463  2.2790  0.4047
 3108SOL     OW19792   7.259   9.839   3.365 -0.2025 -0.2786 -0.0366
 3108SOL    HW119793   7.244   9.749   3.408  1.1631 -0.8106 -0.6546
 3108SOL    HW219794   7.356   9.851   3.346 -0.1333  2.0895  1.6594
 3109SOL     OW19795   9.689   8.700   2.968  0.2425 -0.4371  0.4592
 3109SOL    HW119796   9.706   8.733   3.061 -4.3822  2.5462  0.3964
 3109SOL    HW219797   9.745   8.753   2.903  1.0673 -0.2960  1.2722
 3110SOL     OW19798   0.454   6.935   2.774 -0.4773  0.3097  0.0727
 3110SOL    HW119799   0.517   6.911   2.700  0.0771 -0.2360  0.7248
 3110SOL    HW219800   0.360   6.924   2.742 -0.2391  0.1304 -0.5729
 3111SOL     OW19801   4.829   0.686   3.920  0.0890 -0.0924 -0.0226
 3111SOL    HW119802   4.768   0.632   3.862  0.3107  0.4676 -0.7875
 3111SOL    HW219803   4.827   0.649   4.013  1.4334 -2.3852 -0.8609
 3112SOL     OW19804   2.128   6.675   3.446  0.8031  0.5741 -0.3532
 3112SOL    HW119805   2.090   6.746   3.386  1.2289  1.5683  0.5357
 3112SOL    HW219806   2.143   6.713   3.537  2.3641 -0.2595 -0.2502
 3113SOL     OW19807   2.733   6.353   0.619  0.5050  0.4715 -0.2125
 3113SOL    HW119808   2.655   6.410   0.594  0.9831  0.9949 -0.5290
 3113SOL    HW219809   2.711   6.301   0.702 -0.2870  0.3847 -0.4705
 3114SOL     OW19810   7.616   9.159   1.759  0.1160 -0.4726 -0.3735
 3114SOL    HW119811   7.534   9.144   1.815  0.0141 -0.3429 -0.4851
 3114SOL    HW219812   7.682   9.213   1.811 -1.3593  2.5920 -1.5681
 3115SOL     OW19813   9.091   3.731   2.761 -0.0132 -0.0870 -0.1189
 3115SOL    HW119814   9.069   3.749   2.665 -0.0773 -0.5365 -0.1924
 3115SOL    HW219815   9.190   3.726   2.772  0.0175  0.6315 -0.0345
 3116SOL     OW19816   1.592   6.785   0.857  0.3649 -0.0031 -0.4841
 3116SOL    HW119817   1.598   6.874   0.813  0.5080  0.7897  1.1025
 3116SOL    HW219818   1.666   6.726   0.824  0.6977  0.7005 -1.0011
 3117SOL     OW19819   4.866   8.407   1.776  0.1155  0.0940 -0.4416
 3117SOL    HW119820   4.940   8.340   1.772  0.3665  0.3651 -0.3665
 3117SOL    HW219821   4.840   8.422   1.872  1.1971  1.3396 -0.3289
 3118SOL     OW19822   0.798   6.121   3.976  0.4549 -0.2504  0.1984
 3118SOL    HW119823   0.754   6.120   4.066  1.4753  0.5929  0.7188
 3118SOL    HW219824   0.889   6.081   3.982  0.1739 -1.0569 -0.6686
 3119SOL     OW19825   3.735   2.641   0.145  0.6689  0.0335 -0.2484
 3119SOL    HW119826   3.645   2.627   0.105  0.0837 -0.8850  1.3631
 3119SOL    HW219827   3.786   2.555   0.145  1.0737  0.2714 -0.0218
 3120SOL     OW19828   9.342   8.819   3.688  0.5920 -0.0448  0.4920
 3120SOL    HW119829   9.366   8.745   3.625  1.8890  1.2639 -0.5751
 3120SOL    HW219830   9.266   8.790   3.746  0.4101 -1.8322 -0.6155
 3121SOL     OW19831   8.644   8.551   0.256 -0.4887 -0.6816  0.3060
 3121SOL    HW119832   8.551   8.520   0.236 -0.7307  0.1545  0.1445
 3121SOL    HW219833   8.689   8.580   0.171 -0.4180 -0.1540  0.5236
 3122SOL     OW19834   9.649   1.880   2.705  1.0937 -0.5186  0.2113
 3122SOL    HW119835   9.695   1.834   2.781  0.8992  1.5072  1.6140
 3122SOL    HW219836   9.715   1.932   2.652  0.6679  1.3539  1.4600
 3123SOL     OW19837   0.572   2.851   1.357 -0.0494 -0.3946  0.2548
 3123SOL    HW119838   0.557   2.800   1.273 -1.1270  2.4882 -1.3996
 3123SOL    HW219839   0.499   2.831   1.423 -1.0176 -0.1995 -0.7605
 3124SOL     OW19840   9.347   6.872   2.450 -0.0604  0.3117  0.3058
 3124SOL    HW119841   9.395   6.785   2.432 -1.2146 -0.0585 -1.0949
 3124SOL    HW219842   9.285   6.891   2.374  0.4983  2.5963  0.4039
 3125SOL     OW19843   3.672   8.910   3.883 -0.0411  0.2138 -0.2456
 3125SOL    HW119844   3.727   8.868   3.811  0.7030  3.0982 -1.4398
 3125SOL    HW219845   3.591   8.953   3.843 -1.1252 -0.6022  1.0222
 3126SOL     OW19846   1.959   7.757   2.673  0.1604 -0.0500 -0.3367
 3126SOL    HW119847   2.040   7.787   2.722 -0.6326 -0.9108  1.5378
 3126SOL    HW219848   1.978   7.669   2.628  0.5666  0.2369 -0.7310
 3127SOL     OW19849   0.062   2.793   3.932 -0.3007 -0.2763  0.0912
 3127SOL    HW119850   0.034   2.775   3.837  0.6283  1.0946 -0.4546
 3127SOL    HW219851   0.058   2.708   3.984  1.1010 -1.4673 -1.6838
 3128SOL     OW19852   8.420   4.307   0.658 -0.6357  0.3039  0.1567
 3128SOL    HW119853   8.434   4.402   0.629 -2.2557  0.3574 -0.5000
 3128SOL    HW219854   8.395   4.251   0.579 -0.1958 -0.5620  0.6244
 3129SOL     OW19855   8.983   7.996   0.708  0.1944  0.4504  0.0483
 3129SOL    HW119856   8.904   8.057   0.702 -1.0727 -1.2721 -1.2702
 3129SOL    HW219857   9.045   8.014   0.631  1.2062  1.8937  1.1564
 3130SOL     OW19858   2.674   3.934   1.317  0.2577 -0.4933  0.3833
 3130SOL    HW119859   2.673   3.947   1.416 -1.7140  1.5324  0.1334
 3130SOL    HW219860   2.663   4.023   1.272 -0.3971 -1.5811 -1.6404
 3131SOL     OW19861   8.592   7.978   1.173  0.0559  0.3355 -0.2287
 3131SOL    HW119862   8.583   7.962   1.271  1.3772 -1.4436 -0.3828
 3131SOL    HW219863   8.629   8.070   1.158 -1.4446  1.1396  0.8800
 3132SOL     OW19864   3.128   9.853   2.425  0.0598  0.3052 -0.1897
 3132SOL    HW119865   3.105   9.921   2.494  0.9949 -0.6807  1.1378
 3132SOL    HW219866   3.198   9.890   2.364  0.1003  0.7673  0.1349
 3133SOL     OW19867   1.417   4.575   1.000  0.2401  0.1376  0.5076
 3133SOL    HW119868   1.340   4.542   0.946 -0.1302  0.3176  0.9200
 3133SOL    HW219869   1.462   4.498   1.045  0.4686  0.0025  0.0529
 3134SOL     OW19870   9.645   8.275   1.309  0.3800 -0.1602 -0.0761
 3134SOL    HW119871   9.659   8.180   1.337  0.0606 -0.2104 -0.0842
 3134SOL    HW219872   9.664   8.284   1.211 -1.6311 -0.6671 -0.5448
 3135SOL     OW19873   3.062   1.116   3.246  0.7287  0.5800 -0.6520
 3135SOL    HW119874   3.101   1.037   3.198  0.1054 -0.0873 -0.0758
 3135SOL    HW219875   2.963   1.102   3.257  0.9595  0.4504  1.3358
 3136SOL     OW19876   6.945   8.472   2.136  0.5631 -0.2151  0.2540
 3136SOL    HW119877   7.042   8.480   2.114  0.5442 -0.9849 -0.1120
 3136SOL    HW219878   6.907   8.390   2.093 -0.1743 -0.0974  0.6651
 3137SOL     OW19879   8.120   0.967   3.284 -0.4233  0.2039 -0.1185
 3137SOL    HW119880   8.151   1.062   3.295 -1.4477  0.6434 -0.8987
 3137SOL    HW219881   8.060   0.943   3.360 -0.6492  0.3869 -0.2386
 3138SOL     OW19882   8.168   4.569   2.131  0.1219  0.3627  0.0985
 3138SOL    HW119883   8.157   4.510   2.211 -2.1330 -0.6930 -0.9258
 3138SOL    HW219884   8.138   4.662   2.153  0.6569  0.3759  0.8048
 3139SOL     OW19885   9.615   4.386   2.019  0.3662  0.2727 -0.0367
 3139SOL    HW119886   9.623   4.300   2.071 -0.8738 -0.3881 -0.9042
 3139SOL    HW219887   9.560   4.451   2.071 -2.8003 -1.1776 -1.4209
 3140SOL     OW19888   8.391   1.246   0.713  0.6990  0.1254  0.0529
 3140SOL    HW119889   8.356   1.274   0.623 -0.0747 -0.7463  0.0696
 3140SOL    HW219890   8.410   1.327   0.768  0.1089  0.6440 -0.4965
 3141SOL     OW19891   0.226   8.934   1.441  0.2176 -0.5805 -0.1944
 3141SOL    HW119892   0.174   8.987   1.508 -0.9256  1.1019 -2.3545
 3141SOL    HW219893   0.317   8.916   1.477  1.1373  4.0847  0.0921
 3142SOL     OW19894   2.139   3.380   0.788  0.3591  0.4197  0.0615
 3142SOL    HW119895   2.208   3.366   0.716  1.7495  0.0530  1.4441
 3142SOL    HW219896   2.052   3.343   0.758  1.3424 -1.3012 -0.7573
 3143SOL     OW19897   9.722   8.215   0.786  0.4514 -0.5299 -0.2051
 3143SOL    HW119898   9.658   8.208   0.709  1.4721  2.3973 -1.3721
 3143SOL    HW219899   9.810   8.177   0.759  0.5812 -0.2204 -0.2182
 3144SOL     OW19900   2.462   5.352   1.396  0.0862  0.2221  0.1893
 3144SOL    HW119901   2.377   5.321   1.438  0.3660  0.0045  0.5930
 3144SOL    HW219902   2.487   5.291   1.321 -0.3861  0.5807 -0.2606
 3145SOL     OW19903   1.997   2.131   1.189 -0.2434 -0.3037 -0.0239
 3145SOL    HW119904   2.073   2.066   1.192 -0.8235 -0.9399  1.2576
 3145SOL    HW219905   1.914   2.084   1.157 -0.4906 -0.0383  0.2232
 3146SOL     OW19906   4.409   1.923   0.923  0.3378 -0.7440 -0.0108
 3146SOL    HW119907   4.438   1.855   0.990 -1.1401 -1.3275  0.0617
 3146SOL    HW219908   4.331   1.888   0.871 -0.2341  0.7560 -0.2057
 3147SOL     OW19909   0.294   7.735   0.019 -0.1970  0.0274 -0.4455
 3147SOL    HW119910   0.386   7.758  -0.014 -0.0410 -0.3173 -0.2513
 3147SOL    HW219911   0.290   7.639   0.043 -0.5137  0.1186 -0.1287
 3148SOL     OW19912   0.762   2.839   1.607  0.7199 -0.1191 -0.4799
 3148SOL    HW119913   0.786   2.792   1.522 -0.4150 -1.1084 -0.2757
 3148SOL    HW219914   0.729   2.931   1.586  3.5600  0.8456 -0.8337
 3149SOL     OW19915   8.454   2.370   0.493  0.0919  0.3924 -0.2906
 3149SOL    HW119916   8.438   2.274   0.515 -1.3931  1.1628  2.2241
 3149SOL    HW219917   8.528   2.378   0.426  0.6539 -2.4351 -0.0435
 3150SOL     OW19918   2.218   4.832   2.815  0.3557  0.4032  0.4369
 3150SOL    HW119919   2.164   4.820   2.731 -2.2260 -0.2542  2.1335
 3150SOL    HW219920   2.237   4.743   2.856 -2.0560  0.8678  2.7359
 3151SOL     OW19921   7.690   8.689   0.533  0.2348  0.6605 -0.3208
 3151SOL    HW119922   7.743   8.623   0.480  0.2342  0.0338  0.4458
 3151SOL    HW219923   7.741   8.716   0.614 -0.6240  0.0281  0.4367
 3152SOL     OW19924   2.008   6.043   0.267  0.0336  0.0434 -0.0350
 3152SOL    HW119925   1.979   5.972   0.203  1.3020 -2.4086  1.9790
 3152SOL    HW219926   1.958   6.032   0.353  1.7411  0.2788  1.0065
 3153SOL     OW19927   3.345   7.685   0.389 -0.1123  0.1273  0.0554
 3153SOL    HW119928   3.415   7.625   0.428 -1.2559 -2.2617 -1.4715
 3153SOL    HW219929   3.383   7.733   0.310  0.6370  1.0309  0.9458
 3154SOL     OW19930   9.788   8.725   3.636  0.5194 -0.4614  0.2125
 3154SOL    HW119931   9.852   8.787   3.682  0.0501 -0.4948  0.9271
 3154SOL    HW219932   9.775   8.643   3.693 -1.9582  0.5840  1.2364
 3155SOL     OW19933   5.919   7.535   3.008 -0.2686  0.3460  0.1785
 3155SOL    HW119934   5.829   7.563   2.974  0.5182 -1.6692 -3.7407
 3155SOL    HW219935   5.978   7.616   3.013 -1.7925  1.4312  1.3016
 3156SOL     OW19936   4.464   9.049   0.409 -0.1662  0.3392  0.0319
 3156SOL    HW119937   4.469   9.105   0.492  1.7615  1.4216 -0.7698
 3156SOL    HW219938   4.511   8.962   0.425  0.6274  0.7424 -0.0535
 3157SOL     OW19939   8.801   0.523   0.036  0.7591 -0.4730 -0.2527
 3157SOL    HW119940   8.715   0.477   0.060 -0.1632  1.1534 -0.3471
 3157SOL    HW219941   8.878   0.465   0.060 -0.4018 -2.5249 -1.3660
 3158SOL     OW19942   9.782   9.029   0.608 -0.2676 -0.0900  0.7581
 3158SOL    HW119943   9.824   8.965   0.672  0.4648  0.3226  0.6937
 3158SOL    HW219944   9.832   9.115   0.609 -0.4986  0.0617 -0.0643
 3159SOL     OW19945   9.490   5.403   1.843 -0.4054  0.3057  0.0302
 3159SOL    HW119946   9.414   5.454   1.803 -1.2023 -1.1547 -0.3589
 3159SOL    HW219947   9.564   5.466   1.867 -0.6082  1.4041 -2.1483
 3160SOL     OW19948   8.335   5.300   2.215 -0.0148 -0.6220  0.2912
 3160SOL    HW119949   8.282   5.341   2.142  1.5830  0.2305 -0.4168
 3160SOL    HW219950   8.312   5.343   2.302 -0.8359 -0.6024  0.0645
 3161SOL     OW19951   9.661   5.563   0.335 -0.3531 -0.4779  0.2157
 3161SOL    HW119952   9.752   5.591   0.305 -0.1803 -0.5781  0.6504
 3161SOL    HW219953   9.616   5.511   0.263  0.2836 -1.2077  0.3523
 3162SOL     OW19954   8.428   5.081   0.500  0.5392  0.4410 -0.6165
 3162SOL    HW119955   8.528   5.084   0.494  0.6037 -0.2510  0.0114
 3162SOL    HW219956   8.396   4.989   0.476  0.3146 -0.3701  2.5692
 3163SOL     OW19957   8.048   5.712   2.375  0.1299  0.0168 -0.3673
 3163SOL    HW119958   8.130   5.729   2.320 -0.9286 -0.5291 -2.1531
 3163SOL    HW219959   8.073   5.705   2.471  1.9198  1.7390 -0.6874
 3164SOL     OW19960   0.115   7.545   1.931 -0.2655  0.1587  0.5542
 3164SOL    HW119961   0.023   7.564   1.965 -0.8081  0.5694 -1.0560
 3164SOL    HW219962   0.126   7.446   1.916 -0.7782  0.1934 -0.1017
 3165SOL     OW19963   3.704   0.050   3.107  0.0263  0.4484  0.0790
 3165SOL    HW119964   3.683   0.042   3.205  2.5461  0.0503  0.6091
 3165SOL    HW219965   3.790   0.004   3.087  0.2965  1.8101 -2.0777
 3166SOL     OW19966   9.764   2.954   3.771  0.1874 -0.0387  0.2552
 3166SOL    HW119967   9.688   2.907   3.725 -0.3059  1.2001 -0.2208
 3166SOL    HW219968   9.845   2.952   3.713 -0.0559  0.3539 -0.1088
 3167SOL     OW19969   2.726   1.801   1.343  0.1047  0.7097 -0.7647
 3167SOL    HW119970   2.766   1.739   1.276  0.6675  1.4798 -1.1424
 3167SOL    HW219971   2.769   1.786   1.432 -2.1186 -1.8057 -0.0469
 3168SOL     OW19972   1.282   8.450   0.818  0.6090  0.2424 -0.1430
 3168SOL    HW119973   1.288   8.549   0.813  1.1126  0.2094 -0.2652
 3168SOL    HW219974   1.370   8.413   0.850  0.6717 -0.2058 -0.8152
 3169SOL     OW19975   2.550   9.531   1.971  0.1731 -0.0220 -0.0290
 3169SOL    HW119976   2.534   9.578   1.884 -1.0122 -1.2473 -0.4829
 3169SOL    HW219977   2.530   9.433   1.961  2.5221 -0.6551  0.9234
 3170SOL     OW19978   2.099   3.078   3.571 -0.4934 -0.1361 -0.2666
 3170SOL    HW119979   2.082   3.033   3.658  1.2343 -0.2172  0.0579
 3170SOL    HW219980   2.160   3.157   3.586 -0.1585 -0.1684 -1.3889
 3171SOL     OW19981   8.810   4.608   1.416  0.2668  0.5754 -0.3812
 3171SOL    HW119982   8.860   4.682   1.461 -0.3625  0.3529  0.7272
 3171SOL    HW219983   8.813   4.621   1.317  2.8513  0.3379 -0.3778
 3172SOL     OW19984   3.018   8.340   2.478 -0.1067 -0.2259  0.0852
 3172SOL    HW119985   3.001   8.390   2.393 -0.8992  0.4945  0.6573
 3172SOL    HW219986   2.983   8.394   2.555 -1.3969 -1.8670  0.6671
 3173SOL     OW19987   0.117   3.630   2.372 -0.0020  0.3811 -0.6960
 3173SOL    HW119988   0.186   3.703   2.370  0.1753  0.1959 -1.2388
 3173SOL    HW219989   0.105   3.600   2.467 -1.2789  2.2412 -0.2358
 3174SOL     OW19990   0.083   3.352   1.327  0.0920  0.2898 -0.1634
 3174SOL    HW119991   0.045   3.348   1.419  0.7477 -1.8948  0.0196
 3174SOL    HW219992   0.087   3.448   1.298 -2.1990  0.8497  1.1820
 3175SOL     OW19993   8.901   1.313   1.335  0.1865  0.4136 -0.4214
 3175SOL    HW119994   8.865   1.227   1.372  0.0990  0.5138 -0.2751
 3175SOL    HW219995   8.911   1.304   1.236 -1.7865  0.9278 -0.6887
 3176SOL     OW19996   3.254   0.396   2.890 -0.2298  0.2247  0.0741
 3176SOL    HW119997   3.257   0.488   2.851  0.6074  0.7646  1.3591
 3176SOL    HW219998   3.176   0.346   2.852 -2.2393  2.3375  1.2587
 3177SOL     OW19999   7.641   4.157   3.465 -0.8010 -0.3651  0.0072
 3177SOL    HW120000   7.590   4.141   3.550  0.8997 -2.3337  0.6881
 3177SOL    HW220001   7.666   4.070   3.424  0.7133  0.5773 -1.1067
 3178SOL     OW20002   3.418   5.820   3.875  0.3337 -0.3404 -0.9356
 3178SOL    HW120003   3.411   5.878   3.956 -2.8183 -0.2857 -1.1904
 3178SOL    HW220004   3.345   5.751   3.878  1.2668 -1.4305 -2.8641
 3179SOL     OW20005   7.993   1.576   3.624  0.2651 -0.4969  0.1648
 3179SOL    HW120006   7.975   1.573   3.723 -1.7666  0.2568 -0.1515
 3179SOL    HW220007   7.932   1.511   3.578  0.4749 -0.0816 -0.6887
 3180SOL     OW20008   2.827   2.600   1.976  0.1591 -0.6044 -0.3509
 3180SOL    HW120009   2.778   2.590   2.062 -0.6679 -2.0865 -0.9647
 3180SOL    HW220010   2.916   2.643   1.992 -0.1777 -0.4640  1.1656
 3181SOL     OW20011   5.279   0.379   1.999 -0.0611  0.2896  0.7364
 3181SOL    HW120012   5.322   0.394   1.911  0.6790 -1.3612  0.7987
 3181SOL    HW220013   5.194   0.431   2.004 -0.4049 -0.0697 -1.1593
 3182SOL     OW20014   8.177   7.947   1.588  0.1262 -0.3880 -0.5763
 3182SOL    HW120015   8.261   7.999   1.603 -0.1584  0.4210 -1.6934
 3182SOL    HW220016   8.151   7.899   1.673  0.0772  1.7586  0.6588
 3183SOL     OW20017   3.014   3.513   3.683  0.8062  0.2449 -0.3588
 3183SOL    HW120018   2.994   3.607   3.710  0.5042 -0.3142  1.3851
 3183SOL    HW220019   3.089   3.477   3.739 -0.7193 -1.3841  0.6866
 3184SOL     OW20020   2.842   2.529   2.450 -0.3949  0.5169 -0.3376
 3184SOL    HW120021   2.863   2.522   2.547  0.0076  1.1261 -0.3791
 3184SOL    HW220022   2.887   2.609   2.411  0.1839 -0.2151 -1.2163
 3185SOL     OW20023   9.996   8.456   0.966  0.0647 -0.2130  0.1994
 3185SOL    HW120024  10.024   8.484   1.058  1.1017 -0.4810 -0.0295
 3185SOL    HW220025  10.077   8.446   0.908 -0.5842 -0.0036 -0.7589
 3186SOL     OW20026   1.540   0.264   1.711  0.2151  0.3945 -0.1754
 3186SOL    HW120027   1.548   0.364   1.713 -1.1170  0.6257 -3.4193
 3186SOL    HW220028   1.628   0.224   1.687  0.3059  0.9163 -0.7347
 3187SOL     OW20029   3.707   0.286   0.051  0.5308  0.3270  0.1169
 3187SOL    HW120030   3.803   0.310   0.037  0.0662  2.3493  0.2008
 3187SOL    HW220031   3.686   0.291   0.148  0.5186 -0.8317  0.1738
 3188SOL     OW20032   4.467   6.776   1.863  0.2495 -0.2091  0.3083
 3188SOL    HW120033   4.467   6.762   1.962 -0.1229 -0.7208  0.2355
 3188SOL    HW220034   4.412   6.857   1.841 -1.4019 -1.2968  0.3543
 3189SOL     OW20035   2.783   1.443   2.910 -0.1342 -0.3189  0.1319
 3189SOL    HW120036   2.711   1.441   2.841  0.6662 -1.0089 -0.6941
 3189SOL    HW220037   2.857   1.382   2.882 -0.0444 -1.0305  1.8680
 3190SOL     OW20038   5.710   8.473   1.920 -0.8534  0.1941 -0.7481
 3190SOL    HW120039   5.619   8.513   1.906 -0.7929  0.4358 -0.4566
 3190SOL    HW220040   5.721   8.448   2.016  0.2941  2.4361 -0.2567
 3191SOL     OW20041   8.795   1.089   1.474  0.1434 -0.5886 -0.6020
 3191SOL    HW120042   8.728   1.147   1.520  1.8406  0.7281  0.2312
 3191SOL    HW220043   8.855   1.047   1.541  0.6456 -1.1625 -1.3959
 3192SOL     OW20044   3.604   3.204   1.987 -0.2400 -0.2667  0.0362
 3192SOL    HW120045   3.551   3.238   2.064  0.8228  0.2560  0.5464
 3192SOL    HW220046   3.699   3.192   2.014  0.0203 -0.6995 -1.0147
 3193SOL     OW20047   4.357   3.117   3.284 -0.1914 -0.0429 -0.3560
 3193SOL    HW120048   4.412   3.158   3.211  0.7178 -1.1647 -0.3137
 3193SOL    HW220049   4.396   3.029   3.309 -0.1321  0.6061  1.9178
 3194SOL     OW20050   2.811   2.292   2.179 -0.2605 -0.6715  0.0219
 3194SOL    HW120051   2.774   2.276   2.270 -1.6493 -0.4666 -0.4997
 3194SOL    HW220052   2.786   2.216   2.119  0.2790 -0.5911 -0.3103
 3195SOL     OW20053   2.901   1.673   1.531  0.3976  0.2841  0.0414
 3195SOL    HW120054   2.899   1.598   1.598  0.1512 -0.0300 -0.3151
 3195SOL    HW220055   2.934   1.756   1.575  2.0656 -0.3786  0.0902
 3196SOL     OW20056   6.842   9.694   2.557  0.3484  0.0875  0.5853
 3196SOL    HW120057   6.774   9.685   2.629 -0.4862  3.0998  0.2532
 3196SOL    HW220058   6.877   9.788   2.556  0.9746 -0.1369 -2.3485
 3197SOL     OW20059   2.317   9.371   0.359  0.2588 -0.0468  0.4541
 3197SOL    HW120060   2.246   9.379   0.429 -0.3443 -0.8970 -0.0406
 3197SOL    HW220061   2.307   9.446   0.293 -0.0015 -0.0002  0.5441
 3198SOL     OW20062   4.922   7.677   2.160  0.5589  0.3586 -0.1977
 3198SOL    HW120063   4.925   7.768   2.202 -0.2788 -0.1189  0.9309
 3198SOL    HW220064   4.934   7.607   2.231 -0.2635 -0.4534 -0.8398
 3199SOL     OW20065   0.190   9.116   1.648 -0.8663 -0.1876  0.2168
 3199SOL    HW120066   0.220   9.156   1.561 -1.6912 -0.8251 -0.3749
 3199SOL    HW220067   0.267   9.068   1.691 -0.8959 -1.4384 -1.0692
 3200SOL     OW20068   0.721   1.800   1.044  0.1670  0.9096  0.3023
 3200SOL    HW120069   0.799   1.850   1.007  0.8798  0.8465  1.6986
 3200SOL    HW220070   0.746   1.705   1.060 -0.8946  0.3213 -1.4020
 3201SOL     OW20071   4.636   0.619   1.410 -0.4715  0.1238  0.1211
 3201SOL    HW120072   4.653   0.609   1.508  0.2476  0.2301  0.0101
 3201SOL    HW220073   4.599   0.710   1.392 -0.8481  0.0120  0.3264
 3202SOL     OW20074   2.914   2.072   3.943  0.1847 -0.2714 -0.1544
 3202SOL    HW120075   2.951   2.142   3.881  0.4131 -0.3005 -0.0533
 3202SOL    HW220076   2.972   1.990   3.938  1.4962  0.5168  1.7528
 3203SOL     OW20077   0.757   6.714   1.678 -0.2300 -0.1577  0.1378
 3203SOL    HW120078   0.664   6.681   1.691 -0.6674 -0.6486 -3.5739
 3203SOL    HW220079   0.799   6.665   1.602  1.8586  2.3454 -0.3999
 3204SOL     OW20080   7.230   2.301   0.036 -0.2391 -0.0183  0.0516
 3204SOL    HW120081   7.266   2.377  -0.019 -2.1032  1.4196  0.7671
 3204SOL    HW220082   7.165   2.336   0.104 -0.0461 -2.0980  1.3558
 3205SOL     OW20083   7.295   2.685   0.489 -0.1218 -0.2723 -0.0093
 3205SOL    HW120084   7.280   2.596   0.446 -0.2096 -0.6616  0.8036
 3205SOL    HW220085   7.389   2.690   0.524  0.4242  0.6264 -1.5802
 3206SOL     OW20086   2.773   3.550   0.668 -0.2189  0.6786  0.5350
 3206SOL    HW120087   2.707   3.475   0.661  1.0546 -0.3724 -0.4171
 3206SOL    HW220088   2.724   3.636   0.678 -1.7369 -0.1310  0.1959
 3207SOL     OW20089   8.707   0.643   2.144 -0.1123 -0.4269 -0.4412
 3207SOL    HW120090   8.667   0.614   2.057  0.8396 -1.5389 -0.5194
 3207SOL    HW220091   8.767   0.721   2.128  0.0263 -0.6020 -0.7875
 3208SOL     OW20092   1.759   8.457   1.081 -0.1221  0.0219 -0.0138
 3208SOL    HW120093   1.783   8.537   1.025  0.6160 -0.4395 -0.3670
 3208SOL    HW220094   1.684   8.480   1.142 -2.2732  0.0023 -2.5541
 3209SOL     OW20095   3.436   8.718   3.470 -0.5324  0.1623  0.7659
 3209SOL    HW120096   3.345   8.678   3.470  0.4447 -2.1596 -1.7150
 3209SOL    HW220097   3.504   8.647   3.485  1.0830  1.3088 -0.9275
 3210SOL     OW20098   0.306   8.110   3.743 -0.1033 -0.2167  0.4123
 3210SOL    HW120099   0.399   8.101   3.707  0.2815  3.6943  0.1994
 3210SOL    HW220100   0.243   8.062   3.682  1.7841 -3.7017  1.0476
 3211SOL     OW20101   3.557   4.849   0.976 -0.1766 -1.0689  0.0385
 3211SOL    HW120102   3.470   4.828   1.019 -1.7888  1.6123 -1.7700
 3211SOL    HW220103   3.631   4.836   1.042 -2.0827 -1.7544  2.1028
 3212SOL     OW20104   9.017   5.567   3.291 -0.2271 -0.2799 -0.0864
 3212SOL    HW120105   9.093   5.523   3.338 -0.7099 -3.0429 -1.7962
 3212SOL    HW220106   8.933   5.517   3.307 -1.3196  1.5701  0.0959
 3213SOL     OW20107   3.240   5.054   2.802 -0.0944 -0.0483  0.0542
 3213SOL    HW120108   3.180   4.998   2.746  0.3048 -0.4910  0.0630
 3213SOL    HW220109   3.335   5.032   2.780  0.0865  2.2893 -1.6140
 3214SOL     OW20110   7.393   9.356   0.828  0.0099 -0.1659 -0.7469
 3214SOL    HW120111   7.382   9.275   0.771 -0.2385 -1.0132  0.4833
 3214SOL    HW220112   7.431   9.431   0.773  0.1966 -1.0941 -1.8976
 3215SOL     OW20113   3.228   7.066   2.205  0.0509  0.0241  0.3924
 3215SOL    HW120114   3.135   7.054   2.169 -0.0800  1.0363  0.3724
 3215SOL    HW220115   3.242   7.004   2.282 -0.7515  0.0854  0.5922
 3216SOL     OW20116   7.559   3.765   3.527  0.3629 -0.0642  0.0246
 3216SOL    HW120117   7.468   3.787   3.563  0.5719  0.4829  0.2245
 3216SOL    HW220118   7.554   3.681   3.473 -0.0923 -0.5228  0.7687
 3217SOL     OW20119   8.866   5.664   0.003  0.0767 -0.1554  0.1673
 3217SOL    HW120120   8.853   5.762   0.021  2.9858 -0.3043  3.5465
 3217SOL    HW220121   8.791   5.612   0.045 -0.1074  0.4434  0.5896
 3218SOL     OW20122   1.068   8.044   4.024  0.0708  0.0692  0.1479
 3218SOL    HW120123   1.095   8.112   3.956 -0.2813  0.0605 -0.0009
 3218SOL    HW220124   1.085   7.952   3.987 -2.2352  0.0100 -0.8174
 3219SOL     OW20125   1.692   9.497   3.207 -0.3659  0.2152  0.4048
 3219SOL    HW120126   1.655   9.472   3.118  0.0157  0.5950  0.1431
 3219SOL    HW220127   1.659   9.587   3.233 -1.2607 -0.2990  1.0861
 3220SOL     OW20128   0.040   1.175   1.723  0.1903 -0.3463 -0.1944
 3220SOL    HW120129  -0.052   1.172   1.762 -1.1180  1.2827 -3.0123
 3220SOL    HW220130   0.100   1.114   1.775 -3.1570 -3.6982 -0.0626
 3221SOL     OW20131   1.185   4.172   1.277  0.3712 -0.2354 -0.2478
 3221SOL    HW120132   1.216   4.206   1.188  1.6347 -0.9101 -0.0702
 3221SOL    HW220133   1.201   4.241   1.347 -2.4427  1.0820 -0.8561
 3222SOL     OW20134   7.846   8.877   3.164 -0.0498  0.1167 -0.3551
 3222SOL    HW120135   7.829   8.864   3.066 -1.5557 -1.2697  0.0703
 3222SOL    HW220136   7.765   8.850   3.216  1.5014 -1.2990  1.4205
 3223SOL     OW20137   1.093   1.702   2.088 -0.1163  0.3105 -0.3354
 3223SOL    HW120138   1.157   1.743   2.024 -0.4963  2.7217  0.7896
 3223SOL    HW220139   1.138   1.628   2.137  1.6214  1.5472 -0.0374
 3224SOL     OW20140   9.976   9.948   3.444  0.2625 -0.1937  0.0531
 3224SOL    HW120141  10.006  10.019   3.508  1.2060 -0.8514  0.3535
 3224SOL    HW220142   9.910   9.987   3.379 -0.4761  0.5593  1.2276
 3225SOL     OW20143   3.633   1.702   2.305 -0.1093 -0.4741 -0.1161
 3225SOL    HW120144   3.733   1.707   2.301 -0.1147 -0.8917 -0.6952
 3225SOL    HW220145   3.598   1.651   2.227 -0.7029 -1.3121  0.6776
 3226SOL     OW20146   4.777   9.639   1.213  0.2723  0.3025 -0.2207
 3226SOL    HW120147   4.853   9.655   1.276  1.0585 -0.0291 -1.0701
 3226SOL    HW220148   4.804   9.571   1.145 -0.1464  1.5157 -1.6278
 3227SOL     OW20149   1.121   9.145   1.299 -0.4794 -0.4262  0.3073
 3227SOL    HW120150   1.189   9.076   1.322 -1.8514 -1.2373  2.0401
 3227SOL    HW220151   1.029   9.108   1.313 -1.2530  1.3737  0.1476
 3228SOL     OW20152   2.814   2.128   2.590  0.4760 -0.1831  0.2119
 3228SOL    HW120153   2.867   2.166   2.666  1.6970 -0.0793 -0.6614
 3228SOL    HW220154   2.871   2.063   2.540 -0.7659 -1.2564  0.1850
 3229SOL     OW20155   3.813   2.260   0.415 -0.0231 -0.0025 -1.0842
 3229SOL    HW120156   3.847   2.166   0.416 -0.3311 -0.1152 -1.0116
 3229SOL    HW220157   3.814   2.295   0.321 -2.3660 -0.9882 -1.5269
 3230SOL     OW20158   5.342   8.968   3.093  0.3026  0.8506  0.1539
 3230SOL    HW120159   5.319   8.931   3.003  1.2278 -1.0236  0.6821
 3230SOL    HW220160   5.277   8.934   3.161  0.5990  0.9533  0.4915
 3231SOL     OW20161   9.573   0.268   1.746  0.1319  0.0067 -0.2078
 3231SOL    HW120162   9.535   0.298   1.833 -0.8111  0.4951 -0.7728
 3231SOL    HW220163   9.596   0.171   1.751  0.2843  0.0840  0.6503
 3232SOL     OW20164   8.474   4.280   3.584  0.6563 -0.0022  0.1970
 3232SOL    HW120165   8.521   4.223   3.516  1.3822  0.5136  0.2615
 3232SOL    HW220166   8.443   4.222   3.659 -0.1404 -0.5785 -0.5614
 3233SOL     OW20167   1.343   6.008   0.043  0.3435  0.0847  0.3743
 3233SOL    HW120168   1.435   6.047   0.036  0.4329  0.0703  1.3043
 3233SOL    HW220169   1.301   6.038   0.129  0.4897 -2.0185  1.2075
 3234SOL     OW20170   2.339   9.740   0.588 -0.1523 -0.3240  0.7374
 3234SOL    HW120171   2.437   9.723   0.590  0.2008  0.9906 -2.6252
 3234SOL    HW220172   2.292   9.657   0.558  0.1249 -0.2111 -0.0009
 3235SOL     OW20173   9.878   6.212   1.986  0.2627 -0.5300  0.3351
 3235SOL    HW120174   9.921   6.166   2.063  1.3006 -2.0600 -1.1266
 3235SOL    HW220175   9.860   6.307   2.010  0.2657 -1.0603  2.5659
 3236SOL     OW20176   7.619   7.609   1.771 -0.4059  0.6788 -0.2269
 3236SOL    HW120177   7.606   7.534   1.835  2.3736 -0.2786 -0.7065
 3236SOL    HW220178   7.684   7.675   1.810  2.2457 -0.4940 -2.4394
 3237SOL     OW20179   4.042   2.938   4.020 -0.0006 -0.0393  0.1345
 3237SOL    HW120180   3.965   2.997   4.044  1.6198  1.7669  0.9950
 3237SOL    HW220181   4.037   2.854   4.073 -0.7783  0.5405  0.9976
 3238SOL     OW20182   2.721   8.603   3.453  0.1955 -0.0825 -0.7275
 3238SOL    HW120183   2.628   8.566   3.454  0.4627 -0.7459 -0.4024
 3238SOL    HW220184   2.787   8.529   3.468  0.6802  0.6744  1.0808
 3239SOL     OW20185   0.884   4.059   0.057 -0.0898 -0.5584 -0.4786
 3239SOL    HW120186   0.981   4.043   0.040 -0.1046 -0.6366 -0.4865
 3239SOL    HW220187   0.829   4.008  -0.009 -0.2548 -3.8095  2.0485
 3240SOL     OW20188   9.335   8.147   2.407 -0.5902 -0.1929  0.9078
 3240SOL    HW120189   9.413   8.090   2.381 -0.7815 -0.5657  1.1468
 3240SOL    HW220190   9.318   8.215   2.336 -0.2636 -0.3334  0.6926
 3241SOL     OW20191   6.281   8.133   1.588  0.5582 -0.2040  0.2689
 3241SOL    HW120192   6.188   8.112   1.618  0.4239 -0.7615 -0.5338
 3241SOL    HW220193   6.289   8.118   1.490  1.5346 -0.2980  0.3568
 3242SOL     OW20194   6.019   7.712   2.227  0.0466 -0.6163  0.8341
 3242SOL    HW120195   5.941   7.695   2.288 -0.6814 -0.9103 -0.1529
 3242SOL    HW220196   6.068   7.626   2.211 -2.5551 -1.5780 -2.7016
 3243SOL     OW20197   7.795   7.358   2.136  0.2112 -0.3879 -0.4421
 3243SOL    HW120198   7.833   7.431   2.194 -0.6279  0.0725 -0.4674
 3243SOL    HW220199   7.860   7.337   2.063  0.8582 -0.3028  0.0994
 3244SOL     OW20200   4.016   4.023   3.715  0.2578 -0.4605 -0.2626
 3244SOL    HW120201   3.953   4.100   3.705 -1.2630 -1.5930  0.5949
 3244SOL    HW220202   3.977   3.942   3.672  0.1853 -1.6949  2.0804
 3245SOL     OW20203   7.746   2.652   1.064  0.4980  0.0767  0.1490
 3245SOL    HW120204   7.754   2.578   1.130 -0.4139  0.4162  0.6506
 3245SOL    HW220205   7.808   2.726   1.089 -0.3540  0.5064  1.0536
 3246SOL     OW20206   0.453   8.171   1.158 -0.1290 -0.1941  0.4141
 3246SOL    HW120207   0.479   8.194   1.252 -1.6676  1.8834  0.3450
 3246SOL    HW220208   0.422   8.076   1.155  1.3530 -0.7351  1.7150
 3247SOL     OW20209   1.855   4.885   3.621 -0.3152 -0.8792 -0.1559
 3247SOL    HW120210   1.863   4.787   3.603  1.2810 -1.1789  1.9279
 3247SOL    HW220211   1.765   4.917   3.594 -1.0770 -3.0659 -0.2966
 3248SOL     OW20212   3.215   2.637   3.208 -1.0748 -0.8053  0.1122
 3248SOL    HW120213   3.303   2.619   3.164  0.3563  1.1903  2.0679
 3248SOL    HW220214   3.174   2.719   3.168 -1.5855 -1.1776 -0.1265
 3249SOL     OW20215   9.011   7.068   1.762 -0.4347  0.3919  0.3193
 3249SOL    HW120216   8.913   7.071   1.784 -0.2743 -0.4342  1.1930
 3249SOL    HW220217   9.048   6.979   1.790 -0.0252 -0.4143 -2.5861
 3250SOL     OW20218   4.024   8.666   3.199 -0.4589 -0.0885  1.0731
 3250SOL    HW120219   3.950   8.600   3.211 -1.3944 -0.1945 -4.2017
 3250SOL    HW220220   3.986   8.758   3.193  0.3228  0.3601  2.6521
 3251SOL     OW20221   8.348   2.012   1.519  0.3259  0.4784  0.2332
 3251SOL    HW120222   8.309   1.935   1.468 -0.8429  1.0021  0.3276
 3251SOL    HW220223   8.297   2.095   1.498  0.9259  1.0318  0.9460
 3252SOL     OW20224   8.260   9.495   2.893 -0.6873 -0.3330  0.0685
 3252SOL    HW120225   8.179   9.553   2.905 -0.4124 -0.1051  0.8959
 3252SOL    HW220226   8.286   9.492   2.797 -0.2083  1.6026  0.1232
 3253SOL     OW20227   0.704   2.640   1.785  0.0232  0.1784 -0.3632
 3253SOL    HW120228   0.611   2.616   1.757  0.0747  0.2440 -0.5911
 3253SOL    HW220229   0.734   2.719   1.733  0.2181  0.1381 -0.3092
 3254SOL     OW20230   3.103   9.629   3.861  0.3366  0.0126  0.4769
 3254SOL    HW120231   3.140   9.590   3.945 -0.1017  0.2600  0.7897
 3254SOL    HW220232   3.007   9.656   3.876 -0.7717 -2.8802 -1.0122
 3255SOL     OW20233   9.136   2.695   3.567 -0.0911 -0.4722 -0.9499
 3255SOL    HW120234   9.197   2.763   3.607 -0.8755  1.2019 -2.5197
 3255SOL    HW220235   9.128   2.710   3.469 -2.5876 -0.9970 -0.8682
 3256SOL     OW20236   1.013   3.854   1.718 -0.1708  0.1606 -0.4732
 3256SOL    HW120237   1.094   3.891   1.673 -0.2754  2.3031  0.9841
 3256SOL    HW220238   0.984   3.917   1.791 -2.0292 -1.4942  0.2700
 3257SOL     OW20239   2.232   7.041   3.027  0.6778  0.0062 -0.7136
 3257SOL    HW120240   2.133   7.051   3.037  0.8550  1.0094  0.0873
 3257SOL    HW220241   2.252   7.003   2.936 -0.4794 -1.0245 -0.5596
 3258SOL     OW20242   6.140   8.919   1.843 -0.7158  0.0858  0.4063
 3258SOL    HW120243   6.215   8.900   1.779 -0.1593  0.1451  1.0289
 3258SOL    HW220244   6.099   9.007   1.820  0.1499  0.5892  0.7469
 3259SOL     OW20245   8.883   5.533   0.977  0.1080  0.2153 -0.4363
 3259SOL    HW120246   8.861   5.626   0.946 -0.7518 -0.4346 -1.8656
 3259SOL    HW220247   8.970   5.505   0.937  0.2401  0.3002 -0.2135
 3260SOL     OW20248   2.573   3.800   0.493  0.6939 -0.4986  0.6667
 3260SOL    HW120249   2.624   3.883   0.516 -2.4078  1.0253  2.3967
 3260SOL    HW220250   2.533   3.762   0.576 -2.4558 -0.6021 -0.8190
 3261SOL     OW20251   1.557   3.651   3.402  0.4702  0.4486 -0.2007
 3261SOL    HW120252   1.641   3.596   3.399  0.0656 -0.2689  1.2767
 3261SOL    HW220253   1.486   3.601   3.452 -0.6962  1.2553 -1.0320
 3262SOL     OW20254   9.305   4.683   2.528  0.4453  0.2906 -0.1232
 3262SOL    HW120255   9.241   4.675   2.605 -0.9205  0.8025 -1.1874
 3262SOL    HW220256   9.335   4.778   2.521 -1.8561  0.9025 -2.1188
 3263SOL     OW20257   0.787   6.269   1.179 -0.1540  0.1277  0.4222
 3263SOL    HW120258   0.687   6.270   1.178 -0.1582  0.4717 -2.6614
 3263SOL    HW220259   0.820   6.345   1.235 -1.5786 -1.0434  2.9443
 3264SOL     OW20260   8.121   8.742   1.858  0.6484  0.1245  0.0057
 3264SOL    HW120261   8.105   8.646   1.833 -0.4384 -0.0218  1.2377
 3264SOL    HW220262   8.098   8.800   1.780  1.3724 -0.6112 -0.7719
 3265SOL     OW20263   1.803   4.558   1.369 -0.3040 -0.0487 -0.6792
 3265SOL    HW120264   1.711   4.563   1.330 -0.2617 -1.7867 -1.0165
 3265SOL    HW220265   1.870   4.562   1.295 -0.0581  2.0288 -0.3815
 3266SOL     OW20266   7.462   9.160   0.453 -0.2004 -0.1529 -0.5095
 3266SOL    HW120267   7.516   9.097   0.397  0.1851 -1.3501  1.1773
 3266SOL    HW220268   7.397   9.209   0.395 -1.1395 -2.7548 -1.7072
 3267SOL     OW20269   2.085   7.338   2.807  0.2273 -0.4722 -0.2931
 3267SOL    HW120270   1.991   7.316   2.781  0.4917 -2.6831  0.5462
 3267SOL    HW220271   2.084   7.390   2.893 -0.2197 -0.5849 -0.2276
 3268SOL     OW20272   0.852   5.173   2.038 -0.0297  0.1584  0.2298
 3268SOL    HW120273   0.935   5.175   2.095  1.1832 -0.5388 -1.4715
 3268SOL    HW220274   0.821   5.079   2.027  1.0915  0.0256 -2.1237
 3269SOL     OW20275   3.100   2.951   1.016 -0.0221  0.0238  0.1703
 3269SOL    HW120276   3.136   2.900   0.938 -0.1532  2.7299 -1.7064
 3269SOL    HW220277   3.002   2.933   1.025 -0.0656 -0.0664 -0.4763
 3270SOL     OW20278   3.409   1.532   0.283 -0.1837  0.5073  0.6166
 3270SOL    HW120279   3.381   1.628   0.271 -0.2560  0.2750 -1.2930
 3270SOL    HW220280   3.420   1.490   0.193  1.3909 -0.8346  1.4188
 3271SOL     OW20281   9.604   7.236   2.814  0.3588 -0.5455  0.2328
 3271SOL    HW120282   9.599   7.276   2.723  3.5791 -1.7110 -0.5234
 3271SOL    HW220283   9.531   7.169   2.826  0.2808 -0.8182 -1.7369
 3272SOL     OW20284   2.956   7.842   1.032 -0.0122  0.2593 -0.4463
 3272SOL    HW120285   2.889   7.772   1.009 -0.2631  0.1652  0.5563
 3272SOL    HW220286   2.974   7.899   0.952 -0.6543 -0.2461 -0.9461
 3273SOL     OW20287   9.022   4.282   1.228 -0.0757 -0.2623  0.0681
 3273SOL    HW120288   8.943   4.313   1.176  0.9050 -0.0478 -1.3283
 3273SOL    HW220289   9.039   4.186   1.209 -0.1035 -0.3513  0.4941
 3274SOL     OW20290   2.268   7.742   3.122  0.2087 -0.5788 -0.1285
 3274SOL    HW120291   2.215   7.808   3.069 -2.6012 -2.6633 -0.0351
 3274SOL    HW220292   2.284   7.660   3.068  1.7108 -0.7303  0.5214
 3275SOL     OW20293   8.572   2.615   0.093 -0.1688  0.3465  0.3296
 3275SOL    HW120294   8.518   2.532   0.109  0.0276  0.1511 -0.0053
 3275SOL    HW220295   8.571   2.638  -0.004  0.9965 -0.1237  0.1872
 3276SOL     OW20296   9.251   7.350   0.950  0.1991 -0.9064  0.1587
 3276SOL    HW120297   9.174   7.367   1.011  0.4167 -0.0035  0.1732
 3276SOL    HW220298   9.216   7.323   0.860 -0.1679  1.3008 -0.3815
 3277SOL     OW20299   2.566   6.324   2.788 -0.0364 -0.2733  0.4289
 3277SOL    HW120300   2.542   6.409   2.742  1.7550 -0.0157 -0.0360
 3277SOL    HW220301   2.482   6.274   2.809 -0.9899  0.3168 -1.7569
 3278SOL     OW20302   9.067   8.561   1.680 -0.5509 -0.1172 -0.2092
 3278SOL    HW120303   9.047   8.633   1.614 -1.1256  0.5219  0.6579
 3278SOL    HW220304   8.982   8.513   1.703 -0.2154 -0.8942 -0.5682
 3279SOL     OW20305   1.340   0.605   0.180 -0.1336 -0.0871 -0.1509
 3279SOL    HW120306   1.439   0.609   0.167 -0.0745  1.5355  0.7349
 3279SOL    HW220307   1.298   0.565   0.098  1.2233 -0.6214 -0.6055
 3280SOL     OW20308   9.480   7.628   2.464  0.3087  0.3985  0.2067
 3280SOL    HW120309   9.573   7.591   2.466 -0.1482 -0.8251 -0.6217
 3280SOL    HW220310   9.469   7.688   2.385  1.2834  2.9934  1.9792
 3281SOL     OW20311   8.940   2.112   1.148  0.0385  0.1649 -0.8498
 3281SOL    HW120312   8.879   2.191   1.156  1.9445  1.5196  1.2219
 3281SOL    HW220313   8.941   2.079   1.054 -1.9820  1.6410 -1.4169
 3282SOL     OW20314   1.823   2.960   1.374 -0.8771 -0.0752  0.3075
 3282SOL    HW120315   1.900   2.974   1.437 -0.3544 -0.3842 -0.2496
 3282SOL    HW220316   1.857   2.965   1.279 -1.6377  0.3054  0.0579
 3283SOL     OW20317   8.943   2.739   0.332  0.0528 -0.1700  0.5463
 3283SOL    HW120318   8.912   2.689   0.251  1.2966  1.0485 -0.7159
 3283SOL    HW220319   9.043   2.748   0.329  0.1284 -0.2560  2.3189
 3284SOL     OW20320   2.950   1.996   1.203  0.2397 -0.5169 -0.0383
 3284SOL    HW120321   2.959   1.897   1.200  1.0162 -0.4511 -0.0215
 3284SOL    HW220322   2.877   2.025   1.142 -0.7406 -1.1833  0.7929
 3285SOL     OW20323   0.197   2.103   1.252 -0.0437 -0.5362 -0.3655
 3285SOL    HW120324   0.164   2.056   1.335 -1.4021  0.6627 -0.2075
 3285SOL    HW220325   0.297   2.098   1.249  0.1024  0.3163  1.9011
 3286SOL     OW20326   0.270   0.362   0.945  0.5594 -0.1709  0.6488
 3286SOL    HW120327   0.176   0.335   0.966  0.4644 -0.5664 -0.2505
 3286SOL    HW220328   0.321   0.283   0.912  0.5125  0.5446 -1.2284
 3287SOL     OW20329   9.296   2.042   2.025  0.2481  0.0986  0.2589
 3287SOL    HW120330   9.303   1.962   1.966  1.5993  0.3512  0.0727
 3287SOL    HW220331   9.380   2.052   2.079  0.3121  1.7064 -0.1178
 3288SOL     OW20332   9.685   4.024   2.852  0.5090  0.0853  0.3852
 3288SOL    HW120333   9.628   4.079   2.913 -0.3993 -0.5129  0.0940
 3288SOL    HW220334   9.747   3.967   2.905  0.6466  0.5479  0.7168
 3289SOL     OW20335   3.286   1.319   1.935  0.3336  0.1100 -0.5770
 3289SOL    HW120336   3.216   1.390   1.941 -0.3504 -0.6203  0.1149
 3289SOL    HW220337   3.367   1.347   1.987 -0.2403  0.0163  0.3597
 3290SOL     OW20338   3.911   4.344   0.617 -0.3800  0.4166  0.1597
 3290SOL    HW120339   3.954   4.416   0.562  0.7776  0.5697  1.2650
 3290SOL    HW220340   3.817   4.372   0.639 -0.0793  1.4081  0.2207
 3291SOL     OW20341   4.887   2.442   1.992 -0.2869 -0.2725 -0.7558
 3291SOL    HW120342   4.923   2.351   2.015  0.4840  0.2744  0.2393
 3291SOL    HW220343   4.807   2.461   2.050  1.1812  0.7827  0.9639
 3292SOL     OW20344   8.128   6.293   2.660  0.3363 -0.0670 -0.3095
 3292SOL    HW120345   8.216   6.321   2.699  0.8160  1.7770 -2.6053
 3292SOL    HW220346   8.094   6.364   2.598 -2.8105 -0.7213  0.5388
 3293SOL     OW20347   2.538   9.265   2.253  1.0322  0.4372  0.4649
 3293SOL    HW120348   2.533   9.364   2.269  0.3670  0.6074 -0.7096
 3293SOL    HW220349   2.452   9.234   2.211  1.8427 -0.3789 -0.5952
 3294SOL     OW20350   3.544   8.250   0.216  0.3631  0.2195 -0.4870
 3294SOL    HW120351   3.532   8.317   0.143 -0.4497  1.3123  0.6267
 3294SOL    HW220352   3.641   8.238   0.236  0.5825 -0.0287 -1.6793
 3295SOL     OW20353   1.122   4.145   2.806 -0.2899 -0.6525 -0.2742
 3295SOL    HW120354   1.171   4.220   2.849 -2.3818 -0.7933  2.4519
 3295SOL    HW220355   1.154   4.134   2.712  2.6610  1.2247  0.4510
 3296SOL     OW20356   2.836   1.576   2.244 -0.3691 -0.0109  0.0387
 3296SOL    HW120357   2.752   1.627   2.263 -0.0200  0.8520 -0.7217
 3296SOL    HW220358   2.875   1.543   2.330 -0.6102  0.9709  0.5302
 3297SOL     OW20359   9.427   7.106   2.153  0.0189 -0.4509 -0.2065
 3297SOL    HW120360   9.396   7.198   2.173 -0.8327 -0.6032 -0.7924
 3297SOL    HW220361   9.504   7.083   2.212 -1.8305 -0.5740  2.2494
 3298SOL     OW20362   9.631   2.460   3.475 -0.2767  0.2329  0.0942
 3298SOL    HW120363   9.687   2.497   3.548  0.0614  0.1323 -0.1116
 3298SOL    HW220364   9.550   2.518   3.461  0.2946  0.9357 -0.2866
 3299SOL     OW20365   3.173   6.615   1.868 -0.3437 -0.2259 -0.4073
 3299SOL    HW120366   3.179   6.530   1.816 -2.4170 -1.1232  0.7874
 3299SOL    HW220367   3.081   6.653   1.861 -0.2080  0.4775  1.3344
 3300SOL     OW20368   9.298   8.520   3.977 -0.0156 -0.3240 -0.1184
 3300SOL    HW120369   9.395   8.535   3.996  0.3841 -0.9332 -1.6072
 3300SOL    HW220370   9.288   8.446   3.911 -1.3128  1.9642 -2.5803
 3301SOL     OW20371   8.529   9.737   1.718 -0.3052 -0.2220 -0.2093
 3301SOL    HW120372   8.475   9.752   1.800 -0.1626 -0.0625 -0.1442
 3301SOL    HW220373   8.493   9.793   1.643 -0.6135 -0.5795 -0.3316
 3302SOL     OW20374   0.147   7.699   3.427 -0.2827 -0.1241 -0.7601
 3302SOL    HW120375   0.212   7.706   3.504 -0.9727  1.4372 -0.2961
 3302SOL    HW220376   0.097   7.613   3.434  0.1486 -0.3130  0.1669
 3303SOL     OW20377   0.025   8.173   1.097 -0.2817 -0.9844 -0.2819
 3303SOL    HW120378   0.012   8.250   1.159  0.3116  0.0877 -1.4648
 3303SOL    HW220379  -0.038   8.100   1.121 -1.5966  0.2839  0.1972
 3304SOL     OW20380   9.221   2.208   0.303  0.2128  0.0981 -0.1968
 3304SOL    HW120381   9.201   2.123   0.352 -1.5644 -0.0854 -1.1895
 3304SOL    HW220382   9.294   2.191   0.236 -0.8827 -0.9349 -1.1548
 3305SOL     OW20383   9.887   3.435   0.991 -0.7069 -0.3731  0.2062
 3305SOL    HW120384   9.813   3.478   1.043 -0.3165 -1.2017  1.4515
 3305SOL    HW220385   9.970   3.491   1.000 -0.1673 -1.4310  1.9233
 3306SOL     OW20386   1.539   4.858   1.403  0.7192  0.2224  0.4027
 3306SOL    HW120387   1.493   4.946   1.414  1.3104  0.7824 -1.6124
 3306SOL    HW220388   1.634   4.865   1.433  0.9932  0.4867 -0.5248
 3307SOL     OW20389   0.621   9.024   3.571  0.1127 -0.2425 -0.1814
 3307SOL    HW120390   0.576   8.991   3.488  0.2405 -0.8414 -0.0139
 3307SOL    HW220391   0.705   8.972   3.587  1.2392  1.3156 -0.8628
 3308SOL     OW20392   2.100   6.144   3.774 -0.0124  0.2910 -0.2589
 3308SOL    HW120393   2.119   6.055   3.815  2.5844  1.2294  0.6589
 3308SOL    HW220394   2.062   6.205   3.844 -0.3376  0.3677 -0.5033
 3309SOL     OW20395   8.476   1.796   2.004  0.5246 -0.7431 -0.6634
 3309SOL    HW120396   8.485   1.882   2.056 -0.0413 -1.1778  0.1666
 3309SOL    HW220397   8.545   1.731   2.035  0.6444 -0.7589 -0.9587
 3310SOL     OW20398   7.381   7.520   2.827 -0.5760  0.6563 -0.5013
 3310SOL    HW120399   7.387   7.563   2.917 -0.2178  0.9963 -0.6879
 3310SOL    HW220400   7.345   7.585   2.760 -0.7879  0.4236 -0.6144
 3311SOL     OW20401   1.744   8.218   3.693  0.2734 -0.9718 -0.2265
 3311SOL    HW120402   1.717   8.130   3.731  1.0665 -1.2868 -0.3689
 3311SOL    HW220403   1.834   8.244   3.729  0.3150 -0.5125 -0.6506
 3312SOL     OW20404   4.747   2.497   0.435  0.5011  0.1121  0.1654
 3312SOL    HW120405   4.710   2.545   0.356  0.6307 -0.1521 -0.0573
 3312SOL    HW220406   4.772   2.563   0.505  2.4508  0.5366 -0.8899
 3313SOL     OW20407   2.186   6.409   3.386  0.4154 -0.3129 -0.1545
 3313SOL    HW120408   2.236   6.348   3.447 -1.8609 -1.1855  0.8808
 3313SOL    HW220409   2.164   6.494   3.433  1.6363  0.4226 -0.8824
 3314SOL     OW20410   9.220   2.238   3.740 -0.3512 -0.4282 -0.1749
 3314SOL    HW120411   9.300   2.206   3.689  0.1166  0.9407 -0.3249
 3314SOL    HW220412   9.140   2.242   3.679 -0.2253 -0.5718 -0.3477
 3315SOL     OW20413   8.392   8.671   1.850 -0.4558  0.1530  0.7111
 3315SOL    HW120414   8.297   8.701   1.854 -0.8196 -0.3396 -2.5897
 3315SOL    HW220415   8.447   8.742   1.806 -0.4588 -1.8796 -2.7814
 3316SOL     OW20416   4.821   1.241   0.825 -0.1354  0.2559 -0.0366
 3316SOL    HW120417   4.855   1.301   0.898 -0.9028  2.0867 -1.1596
 3316SOL    HW220418   4.761   1.293   0.764  0.3858 -1.2828 -1.9109
 3317SOL     OW20419   2.548   9.703   0.315 -0.3816  0.0226  0.3854
 3317SOL    HW120420   2.577   9.607   0.308 -1.9350 -0.4748  0.6418
 3317SOL    HW220421   2.587   9.743   0.398  0.6190 -0.2484  0.0595
 3318SOL     OW20422   7.270   9.306   2.905 -0.0283  0.0819 -0.1556
 3318SOL    HW120423   7.272   9.349   2.814  0.6241  0.8315  0.2097
 3318SOL    HW220424   7.262   9.377   2.975 -0.7975 -0.5133  0.3636
 3319SOL     OW20425   2.979   5.167   3.852 -0.0076  0.0357  0.1532
 3319SOL    HW120426   3.068   5.136   3.886 -0.1096  0.7669  1.0996
 3319SOL    HW220427   2.920   5.191   3.930 -1.0573 -0.4948 -0.4578
 3320SOL     OW20428   0.958   0.043   2.206 -0.1828 -0.4923  0.2666
 3320SOL    HW120429   1.030   0.041   2.275 -0.2934 -0.5726  0.3810
 3320SOL    HW220430   0.949   0.136   2.170 -0.9743 -0.1627  1.2732
 3321SOL     OW20431   0.548   8.413   0.263 -0.0757 -0.2360 -0.8801
 3321SOL    HW120432   0.632   8.467   0.261  0.9590 -1.7751 -0.3302
 3321SOL    HW220433   0.571   8.317   0.248 -1.8672 -0.5431 -1.7183
 3322SOL     OW20434   2.483   4.623   3.071 -0.2993  0.3686  0.2712
 3322SOL    HW120435   2.555   4.692   3.068 -0.5309  0.5634 -1.0879
 3322SOL    HW220436   2.524   4.532   3.076  0.0966  0.3730 -2.3537
 3323SOL     OW20437   9.215   0.116   0.941 -0.6570 -0.4147 -0.0769
 3323SOL    HW120438   9.284   0.164   0.887 -1.5522  1.0093 -0.0033
 3323SOL    HW220439   9.203   0.164   1.029 -2.3073 -0.1407 -0.4274
 3324SOL     OW20440   2.140   7.313   0.353 -0.3384 -0.3065 -0.0317
 3324SOL    HW120441   2.194   7.396   0.343  0.7622 -1.1083 -0.8924
 3324SOL    HW220442   2.156   7.273   0.443  1.3251 -1.0953 -0.6564
 3325SOL     OW20443   4.489   9.561   1.014 -0.0917  0.1825 -0.1657
 3325SOL    HW120444   4.433   9.490   1.057  1.9223 -1.2228  0.2122
 3325SOL    HW220445   4.546   9.520   0.943  0.5979  1.5537 -0.4250
 3326SOL     OW20446   4.359   8.122   0.775 -0.2242  0.7063 -0.5572
 3326SOL    HW120447   4.277   8.078   0.737 -1.5411  2.4281  0.2415
 3326SOL    HW220448   4.427   8.052   0.798 -2.1848 -0.8948  0.4480
 3327SOL     OW20449   0.272   7.440   1.258 -0.0437  0.2899 -0.5440
 3327SOL    HW120450   0.319   7.448   1.346 -0.9979 -2.1368  0.2358
 3327SOL    HW220451   0.313   7.367   1.204 -0.9991  0.1473 -1.1097
 3328SOL     OW20452   2.556   1.314   2.099  0.3634  0.0135  0.0267
 3328SOL    HW120453   2.521   1.355   2.183 -1.2814 -0.9328 -0.1871
 3328SOL    HW220454   2.535   1.217   2.098  1.7683 -0.2933 -0.7706
 3329SOL     OW20455   3.923   7.341   0.557 -0.1402  0.0876  0.4815
 3329SOL    HW120456   3.841   7.325   0.502 -0.9409  0.8671  1.4437
 3329SOL    HW220457   3.958   7.433   0.541  0.1975 -0.0241  0.5507
 3330SOL     OW20458   2.019   6.480   0.269 -0.1457 -0.2077  0.0729
 3330SOL    HW120459   1.944   6.419   0.245 -1.1728  0.7320  0.8251
 3330SOL    HW220460   2.079   6.434   0.336 -0.5561 -0.6239  0.1570
 3331SOL     OW20461   8.808   4.419   1.095 -0.3408  0.2321 -0.2028
 3331SOL    HW120462   8.861   4.496   1.130 -1.9104  1.0892  0.3890
 3331SOL    HW220463   8.738   4.453   1.032  0.6423 -1.0103 -1.9941
 3332SOL     OW20464   0.732   3.896   3.330 -0.5713 -0.3496 -1.1539
 3332SOL    HW120465   0.672   3.817   3.338 -0.0567 -0.5973  0.4664
 3332SOL    HW220466   0.756   3.910   3.234 -1.6371 -1.4221 -1.5894
 3333SOL     OW20467   1.209   6.688   3.508  0.4581 -0.5879  0.2981
 3333SOL    HW120468   1.260   6.604   3.492  2.3141  0.3803  0.9871
 3333SOL    HW220469   1.168   6.719   3.422  0.5918 -1.6524 -0.1576
 3334SOL     OW20470   8.288   1.910   2.938  0.6129 -0.0079 -0.0677
 3334SOL    HW120471   8.205   1.893   2.884  1.3196 -1.5910 -0.6877
 3334SOL    HW220472   8.350   1.968   2.886 -0.3136  1.5956  0.6016
 3335SOL     OW20473   4.858   2.696   1.476 -0.2284  0.4412  0.4589
 3335SOL    HW120474   4.887   2.762   1.407 -1.1517 -0.4664 -0.8301
 3335SOL    HW220475   4.759   2.683   1.468 -0.1042 -0.7829  0.9765
 3336SOL     OW20476   3.569   0.255   3.335 -0.4793 -0.6121 -0.5168
 3336SOL    HW120477   3.482   0.300   3.314 -0.4858  0.3747  1.4580
 3336SOL    HW220478   3.643   0.303   3.288 -0.3206  2.4462  2.5928
 3337SOL     OW20479   8.407   2.863   2.579  0.0024 -0.0070 -0.1892
 3337SOL    HW120480   8.345   2.914   2.638  0.8101  0.8800 -0.0939
 3337SOL    HW220481   8.478   2.820   2.635  0.2871  0.1498 -0.4285
 3338SOL     OW20482   8.874   5.275   1.719 -0.3084  0.3981 -0.6408
 3338SOL    HW120483   8.787   5.251   1.761 -0.4838  0.1254 -1.1682
 3338SOL    HW220484   8.909   5.359   1.762 -0.8493  0.5354 -0.4638
 3339SOL     OW20485   1.773   2.286   1.259 -0.4777  0.9687 -0.0159
 3339SOL    HW120486   1.741   2.302   1.353 -2.0821 -1.0347 -0.1916
 3339SOL    HW220487   1.863   2.243   1.261 -0.9240  0.0370  0.6511
 3340SOL     OW20488   7.091   9.836   3.153 -0.0984 -0.2347 -0.0673
 3340SOL    HW120489   7.055   9.928   3.140  0.3313 -0.2191 -1.2119
 3340SOL    HW220490   7.142   9.831   3.239 -2.3477 -0.1072  1.2985
 3341SOL     OW20491   7.913   7.594   3.560 -0.2700 -0.2102 -0.2763
 3341SOL    HW120492   7.893   7.625   3.467 -3.2533  2.2129  1.1016
 3341SOL    HW220493   7.850   7.636   3.624  2.5482 -0.8073  3.0824
 3342SOL     OW20494   1.996   5.980   2.925  0.3535  0.5931 -0.1092
 3342SOL    HW120495   2.070   5.912   2.924 -0.0476  0.1631 -1.3116
 3342SOL    HW220496   1.987   6.020   2.834 -0.0440  1.5799  0.3600
 3343SOL     OW20497   9.755   9.050   2.367  0.1049 -0.2473 -0.4917
 3343SOL    HW120498   9.834   8.989   2.359 -0.1069 -0.1946 -3.7966
 3343SOL    HW220499   9.682   9.017   2.307 -1.3008  1.3515  0.2945
 3344SOL     OW20500   9.092   7.776   3.714  0.7004 -0.6553  0.1270
 3344SOL    HW120501   9.016   7.715   3.735  0.8027 -1.5136 -1.9040
 3344SOL    HW220502   9.077   7.864   3.759 -1.6229 -0.7069 -0.4712
 3345SOL     OW20503   4.443   9.892   2.895  0.3351  0.1293 -0.1183
 3345SOL    HW120504   4.357   9.845   2.915 -0.0365  0.0408 -1.8805
 3345SOL    HW220505   4.447   9.978   2.947 -0.3276 -0.3924  0.7989
 3346SOL     OW20506   8.498   4.421   2.907  0.2568  0.0967  0.0611
 3346SOL    HW120507   8.448   4.480   2.843 -0.9754 -0.7613  0.2094
 3346SOL    HW220508   8.546   4.478   2.974  0.6865  0.9725 -0.9802
 3347SOL     OW20509   1.557   2.917   0.695 -0.4150  0.4862  0.2573
 3347SOL    HW120510   1.567   3.002   0.643 -0.6845 -0.6287 -1.6597
 3347SOL    HW220511   1.466   2.913   0.736 -1.4230 -0.0928 -1.9482
 3348SOL     OW20512   3.387   2.351   1.950  0.0227  0.2650  0.2399
 3348SOL    HW120513   3.369   2.434   1.898  0.7110  0.5486  0.4438
 3348SOL    HW220514   3.373   2.271   1.892 -1.1534  0.4990  0.1902
 3349SOL     OW20515   2.004   2.494   0.035 -0.5485 -0.3066 -0.1327
 3349SOL    HW120516   1.907   2.473   0.047 -0.2992 -2.0472 -1.0010
 3349SOL    HW220517   2.058   2.436   0.096 -0.0370  0.6200  0.3049
 3350SOL     OW20518   2.605   1.409   0.988 -0.0379  0.6539  0.3488
 3350SOL    HW120519   2.564   1.323   1.019  1.6715 -0.0730  0.6720
 3350SOL    HW220520   2.677   1.389   0.921  0.5933  1.8069  0.6684
 3351SOL     OW20521   2.976   4.647   1.058  0.8671  0.0382 -0.2640
 3351SOL    HW120522   2.978   4.562   1.111 -0.0367 -0.0221 -0.3345
 3351SOL    HW220523   2.900   4.703   1.088 -0.2479 -0.4243 -2.1809
 3352SOL     OW20524   3.586   5.451   1.358  0.2781  0.1385  0.4332
 3352SOL    HW120525   3.513   5.499   1.309 -0.6102 -1.3516  0.2624
 3352SOL    HW220526   3.551   5.415   1.444  1.2455  0.8215  1.1091
 3353SOL     OW20527   8.659   5.174   0.407  0.5736  0.4977 -0.1401
 3353SOL    HW120528   8.591   5.211   0.344  1.4995  1.3854 -0.6298
 3353SOL    HW220529   8.723   5.246   0.433  1.8382 -0.5424 -0.3521
 3354SOL     OW20530   2.328   6.870   3.661  0.5618 -0.4819  0.2359
 3354SOL    HW120531   2.236   6.881   3.699  0.2037  1.1287 -1.0676
 3354SOL    HW220532   2.341   6.934   3.586  1.7673 -2.6683 -1.4581
 3355SOL     OW20533   1.526   5.601   3.188  0.0118  0.4593 -0.3167
 3355SOL    HW120534   1.608   5.641   3.227 -1.2457  0.8477  2.0328
 3355SOL    HW220535   1.535   5.501   3.185  0.8731  0.5467 -0.8660
 3356SOL     OW20536   0.242   3.010   0.940 -0.3692  0.0915  0.0631
 3356SOL    HW120537   0.319   3.028   1.001  0.2912  2.3145 -1.3630
 3356SOL    HW220538   0.276   2.976   0.852 -0.9654  1.5551 -0.7480
 3357SOL     OW20539   9.059   1.097   1.630 -0.6753 -0.6983  0.6016
 3357SOL    HW120540   9.083   1.117   1.725  1.6969  0.5416 -0.2242
 3357SOL    HW220541   9.112   1.019   1.598  0.3253  0.3862 -0.4224
 3358SOL     OW20542   9.089   4.193   0.130 -0.0553 -0.5249  0.7083
 3358SOL    HW120543   9.178   4.147   0.126 -0.1050 -0.5047 -0.8018
 3358SOL    HW220544   9.095   4.272   0.192  0.2140 -2.1190  2.7905
 3359SOL     OW20545   1.544   9.035   1.537 -0.2172  0.3231 -0.1991
 3359SOL    HW120546   1.478   9.101   1.574  1.0012  0.2384  2.2350
 3359SOL    HW220547   1.547   8.954   1.596  0.4309 -0.6563 -1.5401
 3360SOL     OW20548   9.018   9.700   2.839 -0.0354  0.1174 -0.1298
 3360SOL    HW120549   8.972   9.775   2.793  0.7558 -0.1103 -1.3170
 3360SOL    HW220550   8.986   9.613   2.802  0.1956 -0.0817  0.1365
 3361SOL     OW20551   8.986   5.616   1.507  0.0094  0.0005 -0.8476
 3361SOL    HW120552   9.023   5.626   1.599  1.1592  0.8264 -1.3874
 3361SOL    HW220553   8.899   5.567   1.511  0.4228 -0.6361  0.5942
 3362SOL     OW20554   9.786   9.034   0.162  0.1407  0.2362 -0.2451
 3362SOL    HW120555   9.707   9.071   0.114  0.4181 -0.4635 -1.2494
 3362SOL    HW220556   9.754   8.985   0.244 -0.5395 -0.7032 -1.0524
 3363SOL     OW20557   1.189   2.729   1.508  0.5425  0.0978  0.0994
 3363SOL    HW120558   1.182   2.709   1.606  2.4066  0.2866  0.2862
 3363SOL    HW220559   1.193   2.828   1.494 -1.7167  0.1647 -0.3370
 3364SOL     OW20560   3.412   4.895   3.668 -0.0091  0.1550  0.2367
 3364SOL    HW120561   3.490   4.849   3.710  0.0413  1.5977  1.7466
 3364SOL    HW220562   3.372   4.835   3.598  1.0852 -1.4792  0.9848
 3365SOL     OW20563   2.963   1.960   3.503 -0.5764 -0.3251  0.6179
 3365SOL    HW120564   2.890   2.010   3.549 -0.9491 -0.1173 -0.1845
 3365SOL    HW220565   2.927   1.917   3.419  0.4497  0.6503 -0.3412
 3366SOL     OW20566   4.946   3.193   0.411  0.0034  0.2130  0.3368
 3366SOL    HW120567   5.023   3.146   0.367 -0.7580 -0.3286 -0.4270
 3366SOL    HW220568   4.974   3.224   0.502  1.0443 -0.2132  0.1703
 3367SOL     OW20569   2.860   8.044   1.495 -0.0032  0.2558  0.0763
 3367SOL    HW120570   2.799   8.006   1.564  0.6957  0.6783  0.9302
 3367SOL    HW220571   2.825   8.020   1.404 -0.6920 -0.6620  0.5669
 3368SOL     OW20572   0.768   2.247   3.796  0.2358 -0.0617  0.2088
 3368SOL    HW120573   0.780   2.214   3.890  1.9840 -0.2924 -0.0795
 3368SOL    HW220574   0.844   2.307   3.771 -0.7755  0.8781 -0.7020
 3369SOL     OW20575   1.746   2.591   0.264  0.3439 -0.2137  0.1122
 3369SOL    HW120576   1.813   2.520   0.287 -0.7092 -1.3335 -0.2111
 3369SOL    HW220577   1.675   2.593   0.334  0.6370  0.8812  0.3835
 3370SOL     OW20578   6.244   8.729   2.322 -0.1683  0.3131 -0.1379
 3370SOL    HW120579   6.337   8.737   2.360 -0.3009  2.1708 -0.1372
 3370SOL    HW220580   6.249   8.723   2.223  0.0457 -1.8435 -0.0219
 3371SOL     OW20581   2.455   6.020   2.135 -0.0738  0.3049 -0.1369
 3371SOL    HW120582   2.524   6.068   2.190  0.2554 -2.0888  1.5927
 3371SOL    HW220583   2.491   6.004   2.043  0.4794  1.7859 -0.1906
 3372SOL     OW20584   2.723   0.246   3.860  0.1060 -0.2778  0.3197
 3372SOL    HW120585   2.800   0.182   3.850  3.0537  2.8126  2.1412
 3372SOL    HW220586   2.722   0.308   3.782 -1.6409 -1.3388 -0.5322
 3373SOL     OW20587   4.416   3.021   3.554 -0.3398 -0.1079  0.4129
 3373SOL    HW120588   4.348   3.091   3.574 -1.7805 -1.7987  1.6737
 3373SOL    HW220589   4.434   2.967   3.637  1.4629 -0.6124 -0.2753
 3374SOL     OW20590   4.173   5.173   1.110  0.5654  0.0140  0.6566
 3374SOL    HW120591   4.077   5.156   1.133  0.5123  0.5932  0.8791
 3374SOL    HW220592   4.201   5.261   1.148  0.6949  0.6459 -0.8469
 3375SOL     OW20593   2.252   7.104   0.975  0.0469  0.7712  0.5721
 3375SOL    HW120594   2.345   7.127   1.005  1.4816 -0.4458 -2.6435
 3375SOL    HW220595   2.219   7.025   1.025  0.9496  0.9295  1.4229
 3376SOL     OW20596   4.210   2.758   1.815  0.1593 -0.5491  0.0229
 3376SOL    HW120597   4.262   2.757   1.730 -0.1529 -0.2235 -0.1719
 3376SOL    HW220598   4.142   2.684   1.813  1.3854 -1.7377  0.7674
 3377SOL     OW20599   0.753   7.497   2.456 -0.2339  0.6495  0.1674
 3377SOL    HW120600   0.810   7.575   2.429 -1.2097  1.1887 -0.3574
 3377SOL    HW220601   0.765   7.480   2.554  0.2498  1.2452  0.2153
 3378SOL     OW20602   8.407   2.994   0.787 -0.1556 -0.2576  0.0497
 3378SOL    HW120603   8.420   2.904   0.747  0.9815 -0.7409  1.4895
 3378SOL    HW220604   8.390   3.061   0.714 -2.3110 -1.8277 -0.9553
 3379SOL     OW20605   0.235   1.953   2.326  0.6024 -0.4269 -0.0504
 3379SOL    HW120606   0.306   1.898   2.369  2.0086  0.5536 -1.0521
 3379SOL    HW220607   0.156   1.896   2.304  1.4944 -1.7368  0.1301
 3380SOL     OW20608   9.560   2.026   0.595 -0.5753  0.3400 -0.0334
 3380SOL    HW120609   9.468   1.988   0.588  0.1496 -1.9777  2.3381
 3380SOL    HW220610   9.624   1.955   0.626  2.0773  1.8371 -1.8144
 3381SOL     OW20611   8.192   2.627   2.808  0.4206 -0.4407  0.0067
 3381SOL    HW120612   8.135   2.564   2.861  1.2436  0.5688  2.1309
 3381SOL    HW220613   8.279   2.641   2.855  0.2894  2.1883 -0.4886
 3382SOL     OW20614   2.657   5.816   1.637  0.5719 -0.1910  0.1256
 3382SOL    HW120615   2.691   5.750   1.703 -0.3007 -1.4054 -0.6109
 3382SOL    HW220616   2.656   5.774   1.546 -1.5098  0.2659 -0.0974
 3383SOL     OW20617   9.247   9.185   2.512 -0.2824  0.5713  0.1850
 3383SOL    HW120618   9.150   9.172   2.532 -0.0846 -0.0089  0.7601
 3383SOL    HW220619   9.302   9.153   2.588  0.3737  0.8172 -0.1761
 3384SOL     OW20620   7.227   8.994   2.154  0.1303  0.2186  0.0358
 3384SOL    HW120621   7.263   9.055   2.225  1.3294 -0.3618 -0.0652
 3384SOL    HW220622   7.179   8.918   2.197 -1.6560  1.3942  0.1579
 3385SOL     OW20623   8.893   7.194   0.848 -0.0737  0.4430  0.5521
 3385SOL    HW120624   8.818   7.145   0.893  0.8047 -0.6230  0.8759
 3385SOL    HW220625   8.901   7.285   0.887  0.5585 -0.3975  2.4645
 3386SOL     OW20626   1.054   9.767   2.919  0.5869  0.2573 -0.1921
 3386SOL    HW120627   1.131   9.769   2.983  1.1827  0.2544 -0.8917
 3386SOL    HW220628   1.031   9.860   2.891 -0.4335  0.3365  0.9218
 3387SOL     OW20629   7.987   1.569   2.151 -0.2034  0.4423 -0.3081
 3387SOL    HW120630   8.050   1.508   2.199 -1.7789 -1.0191 -0.0124
 3387SOL    HW220631   7.958   1.526   2.065  0.2834  1.7219 -1.1288
 3388SOL     OW20632   4.010   2.929   2.201  0.2497  0.0763 -0.0040
 3388SOL    HW120633   4.057   2.992   2.264  3.4919 -0.6505 -1.5873
 3388SOL    HW220634   4.005   2.838   2.242 -0.6095  0.3573  0.5298
 3389SOL     OW20635   4.592   9.066   2.297 -0.1983  0.4541  0.5035
 3389SOL    HW120636   4.664   9.056   2.228  0.4577  2.1867  0.8830
 3389SOL    HW220637   4.529   9.139   2.269 -0.9915 -0.0990  0.8495
 3390SOL     OW20638   1.485   3.955   1.462  0.0449  0.3288 -0.1698
 3390SOL    HW120639   1.557   3.931   1.397 -0.7246  0.4297 -1.0735
 3390SOL    HW220640   1.445   4.043   1.437 -0.8351 -0.0303 -0.0666
 3391SOL     OW20641   3.193   6.340   1.744  0.8254  0.2668  0.4591
 3391SOL    HW120642   3.203   6.271   1.816  1.3243 -1.0623 -0.8563
 3391SOL    HW220643   3.276   6.343   1.688 -0.1911  0.1041 -1.0845
 3392SOL     OW20644   1.149   7.947   2.627 -0.6941  0.2674 -0.1338
 3392SOL    HW120645   1.196   8.035   2.626  1.0543 -0.6381 -0.6515
 3392SOL    HW220646   1.053   7.960   2.650  0.0560  2.0701  2.1878
 3393SOL     OW20647   0.992   6.803   3.799  0.4188  0.5037  0.4109
 3393SOL    HW120648   0.944   6.799   3.887  2.5408  0.3963  1.5965
 3393SOL    HW220649   1.091   6.796   3.815  0.8165  0.3615 -2.0008
 3394SOL     OW20650   7.301   9.413   2.647 -0.1576 -0.1948 -0.6566
 3394SOL    HW120651   7.356   9.443   2.570  0.0611 -0.5493 -0.6431
 3394SOL    HW220652   7.205   9.434   2.631  0.2818  2.9322  0.5213
 3395SOL     OW20653   0.890   6.089   2.311 -0.2405  0.0097 -0.1916
 3395SOL    HW120654   0.934   6.157   2.253 -1.8214  0.6052 -0.7291
 3395SOL    HW220655   0.949   6.067   2.388  0.3397  1.9003 -0.0898
 3396SOL     OW20656   0.410   5.269   1.526  0.1987  0.1399  0.1404
 3396SOL    HW120657   0.327   5.306   1.484 -0.5673 -1.1194  0.5333
 3396SOL    HW220658   0.457   5.342   1.576 -0.8154  0.8027  0.1377
 3397SOL     OW20659   8.120   5.435   0.247  0.2072 -0.0278 -0.2953
 3397SOL    HW120660   8.121   5.470   0.341  1.7606 -1.4195  0.2320
 3397SOL    HW220661   8.139   5.337   0.247  0.0543 -0.0802 -2.0528
 3398SOL     OW20662   0.912   7.693   3.988  0.3780  0.6877 -0.6066
 3398SOL    HW120663   0.986   7.627   3.977  0.7669  0.6455  1.9470
 3398SOL    HW220664   0.940   7.765   4.051 -1.5968  0.8715  0.0999
 3399SOL     OW20665   6.081   9.291   3.168 -0.0769  0.2211 -0.2443
 3399SOL    HW120666   6.003   9.238   3.202 -0.0496 -0.9502 -1.9447
 3399SOL    HW220667   6.155   9.228   3.144  0.7657  1.2134 -0.2702
 3400SOL     OW20668   8.418   8.050   1.683  0.3174 -0.0599  0.3649
 3400SOL    HW120669   8.435   8.113   1.759 -1.6948 -0.0434  0.8448
 3400SOL    HW220670   8.463   8.083   1.601  0.0127  1.5554  0.8350
 3401SOL     OW20671   7.922   3.410   3.784 -0.1058  0.4467  0.4705
 3401SOL    HW120672   7.851   3.374   3.845 -0.1662  1.0516  0.7680
 3401SOL    HW220673   7.915   3.366   3.695 -0.4217  0.0084  0.7104
 3402SOL     OW20674   9.975   4.861   2.437  0.0879 -0.3733  0.3135
 3402SOL    HW120675   9.886   4.901   2.414  1.0314  1.3802 -0.4364
 3402SOL    HW220676  10.035   4.867   2.357  1.5640  0.4837  1.4510
 3403SOL     OW20677   3.644   0.646   2.636  0.2510 -0.0896 -0.4241
 3403SOL    HW120678   3.589   0.667   2.717  0.5602  1.8601 -0.6985
 3403SOL    HW220679   3.732   0.692   2.643  0.3593 -0.0845 -1.7816
 3404SOL     OW20680   1.314   6.231   1.667  0.2927  0.2591 -0.0725
 3404SOL    HW120681   1.370   6.209   1.587 -0.6127 -1.7195 -0.2092
 3404SOL    HW220682   1.248   6.302   1.643 -0.6247 -1.0142 -1.3882
 3405SOL     OW20683   8.701   2.083   2.728  0.5200  0.1019 -0.2253
 3405SOL    HW120684   8.703   2.174   2.770  1.1881  0.1744 -0.4078
 3405SOL    HW220685   8.795   2.054   2.707  0.4365 -1.1837  1.0460
 3406SOL     OW20686   3.725   2.854   3.528  0.3084  0.2689 -0.2466
 3406SOL    HW120687   3.787   2.822   3.457 -0.0720 -0.7426 -0.1334
 3406SOL    HW220688   3.769   2.843   3.618  0.0388 -0.2970 -0.1792
 3407SOL     OW20689   3.691   9.711   1.609 -0.1878 -0.4640  0.0056
 3407SOL    HW120690   3.683   9.804   1.574 -2.3012 -0.4733  0.3996
 3407SOL    HW220691   3.676   9.646   1.535  0.4572 -0.4926 -0.1014
 3408SOL     OW20692   1.889   9.941   3.825 -0.1344 -1.0064 -0.4533
 3408SOL    HW120693   1.947   9.883   3.881  1.1555  0.4419 -0.2424
 3408SOL    HW220694   1.931   9.954   3.735 -1.1638 -1.6285 -1.0351
 3409SOL     OW20695   9.812   5.321   3.404  0.1101 -0.2275  0.4501
 3409SOL    HW120696   9.797   5.387   3.331 -0.2351  0.3840  1.0608
 3409SOL    HW220697   9.724   5.290   3.440  0.2470 -2.0474 -0.7250
 3410SOL     OW20698   1.142   2.466   3.492  0.0825 -0.0444  0.4327
 3410SOL    HW120699   1.150   2.451   3.393  1.1605 -0.4645  0.5802
 3410SOL    HW220700   1.147   2.564   3.511 -2.6258  0.2487 -0.1398
 3411SOL     OW20701   1.476   0.733   2.507  0.4675 -0.0254  0.0843
 3411SOL    HW120702   1.426   0.728   2.594 -2.2056 -0.3336 -1.4042
 3411SOL    HW220703   1.491   0.641   2.472  2.6929  0.0293  0.8006
 3412SOL     OW20704   0.049   9.479   0.694 -0.2813  0.4543  0.8800
 3412SOL    HW120705  -0.015   9.519   0.629 -0.6817 -1.5185  0.0416
 3412SOL    HW220706   0.141   9.517   0.678 -0.6720  1.1199  0.2064
 3413SOL     OW20707   8.826   8.914   1.907  0.5441 -0.1890  0.0227
 3413SOL    HW120708   8.811   9.010   1.884  0.3827  0.1593  1.5295
 3413SOL    HW220709   8.784   8.856   1.837  2.2602  0.8243 -1.8904
 3414SOL     OW20710   4.016   7.639   3.501  0.0526 -0.5578 -0.3025
 3414SOL    HW120711   4.104   7.618   3.458 -0.6612  0.8868 -2.5378
 3414SOL    HW220712   3.960   7.557   3.503  0.7816 -1.0672 -0.4481
 3415SOL     OW20713   0.187   5.707   3.197 -0.4929 -0.6821 -0.5836
 3415SOL    HW120714   0.212   5.804   3.187 -1.6390 -0.4120 -0.9342
 3415SOL    HW220715   0.262   5.657   3.240 -0.9799  0.9255  2.2804
 3416SOL     OW20716   1.238   7.288   3.601 -0.4494 -1.0792  0.4337
 3416SOL    HW120717   1.284   7.362   3.649  0.2017 -1.8499  1.0273
 3416SOL    HW220718   1.141   7.287   3.627 -0.7043  0.2217 -0.4200
 3417SOL     OW20719   0.751   6.078   0.439  0.0205 -0.2953  0.1590
 3417SOL    HW120720   0.691   6.121   0.506 -0.1077 -1.9410  1.1510
 3417SOL    HW220721   0.758   5.980   0.460  1.6581 -0.4368 -0.9763
 3418SOL     OW20722   5.790   9.368   2.187  0.0613 -0.0355 -0.1165
 3418SOL    HW120723   5.744   9.442   2.139 -0.2216 -0.2635 -0.1928
 3418SOL    HW220724   5.857   9.325   2.127 -0.0820 -0.1274 -0.2074
 3419SOL     OW20725   3.628   3.736   3.369  0.0914  0.6204  0.2341
 3419SOL    HW120726   3.722   3.707   3.387 -0.0233  1.2149  1.9017
 3419SOL    HW220727   3.626   3.835   3.353 -0.2457  0.6160  0.2393
 3420SOL     OW20728   5.264   9.686   1.377 -0.5242 -0.1779 -0.1616
 3420SOL    HW120729   5.203   9.607   1.386 -0.4943 -0.1151  0.7190
 3420SOL    HW220730   5.327   9.672   1.301 -0.8582 -0.7708 -0.3302
 3421SOL     OW20731   8.245   9.057   3.543  0.1778 -0.6373  0.0096
 3421SOL    HW120732   8.152   9.082   3.571  0.5300 -0.0157  0.6201
 3421SOL    HW220733   8.266   9.101   3.456  0.3984  0.3294  0.5462
 3422SOL     OW20734   1.819   6.273   0.273 -0.2897  0.3940  0.5204
 3422SOL    HW120735   1.788   6.313   0.187  0.1087 -0.4773 -0.0301
 3422SOL    HW220736   1.846   6.178   0.259  0.7267  0.5326  1.3931
 3423SOL     OW20737   3.260   3.424   3.435 -0.4623  0.1357  0.0837
 3423SOL    HW120738   3.176   3.438   3.384  0.6467 -0.1807 -1.8927
 3423SOL    HW220739   3.303   3.513   3.454 -0.6785  0.2365  0.0961
 3424SOL     OW20740   1.120   9.043   0.242  0.1662 -0.0000  0.0809
 3424SOL    HW120741   1.219   9.059   0.245 -0.2630  3.4490 -2.1808
 3424SOL    HW220742   1.098   8.987   0.162 -0.0059  2.1397 -1.4185
 3425SOL     OW20743   1.657   0.377   1.182 -0.3059  0.5287 -0.3810
 3425SOL    HW120744   1.570   0.421   1.205 -0.3133  0.7261 -0.7813
 3425SOL    HW220745   1.663   0.289   1.229 -0.4372  0.8021  0.1655
 3426SOL     OW20746   1.547   1.243   2.479  0.1164  0.1892 -0.3764
 3426SOL    HW120747   1.583   1.320   2.530 -0.2315  0.9978 -1.3276
 3426SOL    HW220748   1.477   1.197   2.533 -0.0745  0.8861 -0.0233
 3427SOL     OW20749   8.523   1.720   1.270  0.4798  0.3198 -0.1449
 3427SOL    HW120750   8.600   1.658   1.281 -1.6900 -2.8580 -2.0181
 3427SOL    HW220751   8.519   1.752   1.175  0.3882  1.7534  0.3205
 3428SOL     OW20752   3.558   9.589   3.931  0.6290  0.2965  0.1536
 3428SOL    HW120753   3.499   9.576   3.851  1.9840 -0.3805 -0.7416
 3428SOL    HW220754   3.535   9.675   3.975 -2.9556 -1.2070  1.4362
 3429SOL     OW20755   1.990   5.365   0.174  0.1379 -0.2868 -0.2562
 3429SOL    HW120756   2.049   5.445   0.182 -1.6327  1.2152 -1.8706
 3429SOL    HW220757   1.915   5.371   0.240  1.3922 -1.8969  1.3761
 3430SOL     OW20758   8.364   9.487   0.506  0.2197  0.4970 -0.1376
 3430SOL    HW120759   8.332   9.500   0.600  1.6108  1.5016  0.2074
 3430SOL    HW220760   8.366   9.389   0.485 -1.2776  0.3265  0.4489
 3431SOL     OW20761   0.760   1.748   2.259  0.0068 -0.2603  0.2871
 3431SOL    HW120762   0.692   1.744   2.185  1.4342 -2.2888 -1.0011
 3431SOL    HW220763   0.741   1.825   2.319 -2.9692 -0.3429 -0.4876
 3432SOL     OW20764   8.757   7.160   3.977  0.4386 -0.2164 -0.1668
 3432SOL    HW120765   8.757   7.184   4.075 -0.7975 -0.0248 -0.2125
 3432SOL    HW220766   8.710   7.073   3.964 -0.9501  0.6114 -0.7868
 3433SOL     OW20767   0.690   5.414   2.012 -0.5507  0.1677  0.2515
 3433SOL    HW120768   0.753   5.346   2.049 -1.0116 -0.1677  0.4155
 3433SOL    HW220769   0.648   5.466   2.087  2.0537  2.6884  0.0553
 3434SOL     OW20770   8.697   2.303   2.906  0.0398 -0.2249 -0.2010
 3434SOL    HW120771   8.628   2.282   2.974  1.2006 -0.5557  0.8891
 3434SOL    HW220772   8.786   2.314   2.950  0.5258  1.1514 -1.4598
 3435SOL     OW20773   8.222   9.500   0.748  0.3047  0.3432 -0.3646
 3435SOL    HW120774   8.233   9.541   0.838  2.2913 -1.1768  0.1255
 3435SOL    HW220775   8.154   9.426   0.753  0.2402  0.4157 -0.1807
 3436SOL     OW20776   3.672   0.037   1.957 -0.1978  0.1649  0.1036
 3436SOL    HW120777   3.738   0.088   2.013 -0.0669 -0.1867  0.2719
 3436SOL    HW220778   3.584   0.034   2.005 -0.4257  0.8852 -0.2532
 3437SOL     OW20779   7.745   5.646   3.116 -0.0504 -0.3310  0.3960
 3437SOL    HW120780   7.765   5.715   3.047 -0.1897 -0.9732 -0.2921
 3437SOL    HW220781   7.673   5.680   3.177 -1.7452 -0.7535 -1.3091
 3438SOL     OW20782   0.942   5.135   3.386  0.6183  0.2484  0.2775
 3438SOL    HW120783   0.980   5.158   3.476 -1.2690  1.6334  0.7512
 3438SOL    HW220784   0.902   5.044   3.389  1.8496 -0.2940  0.4270
 3439SOL     OW20785   9.880   6.664   3.016  0.1721  0.2538 -0.4618
 3439SOL    HW120786   9.798   6.619   2.979 -0.2448 -0.0639  0.8134
 3439SOL    HW220787   9.961   6.613   2.989 -0.2930 -1.3267  0.9632
 3440SOL     OW20788   2.315   7.628   3.381  0.3497  0.2626 -0.1952
 3440SOL    HW120789   2.392   7.665   3.433 -0.8027  2.0820  0.2349
 3440SOL    HW220790   2.315   7.666   3.289  0.5077 -0.4751 -0.5040
 3441SOL     OW20791   2.587   9.631   0.682  0.0135  1.0206 -0.0447
 3441SOL    HW120792   2.556   9.623   0.777  2.3932  1.2177  0.7736
 3441SOL    HW220793   2.567   9.547   0.633  0.8172  0.0489  1.2614
 3442SOL     OW20794   4.593   2.361   2.442  0.0140 -0.3580 -0.4108
 3442SOL    HW120795   4.546   2.340   2.528  0.5650 -0.3365 -0.1030
 3442SOL    HW220796   4.591   2.280   2.383  2.7378 -1.5522  1.0510
 3443SOL     OW20797   1.656   4.594   0.350  0.2677 -0.2835 -0.0165
 3443SOL    HW120798   1.718   4.529   0.392 -0.1695 -0.7389 -0.0759
 3443SOL    HW220799   1.588   4.625   0.417  1.1527  0.9741  0.3297
 3444SOL     OW20800   0.893   0.076   1.690  0.9335 -0.2133  0.0461
 3444SOL    HW120801   0.823   0.052   1.756  0.4887 -1.4119 -0.8328
 3444SOL    HW220802   0.953  -0.003   1.676 -0.4965 -0.8528 -2.8514
 3445SOL     OW20803   4.331   0.180   0.379  0.0918  0.1135  0.1964
 3445SOL    HW120804   4.341   0.129   0.464 -0.7511  0.0328  0.2517
 3445SOL    HW220805   4.313   0.116   0.304 -1.3832  0.3457  0.3358
 3446SOL     OW20806   1.248   3.685   1.667  0.1861  0.0935  0.7470
 3446SOL    HW120807   1.284   3.694   1.760  0.5946  0.9064  0.5144
 3446SOL    HW220808   1.244   3.775   1.624  1.4601 -0.4701 -0.5730
 3447SOL     OW20809   4.850   7.809   0.534  0.3126  0.3431  0.3711
 3447SOL    HW120810   4.908   7.875   0.488  1.1164 -1.8071 -1.7750
 3447SOL    HW220811   4.761   7.805   0.489  0.7980 -1.1251 -0.5051
 3448SOL     OW20812   0.043   1.069   1.482 -0.4934  0.3923 -0.0734
 3448SOL    HW120813  -0.007   1.132   1.423  0.3307  0.5242 -0.6374
 3448SOL    HW220814   0.060   1.111   1.570  1.7527  1.7089 -1.1017
 3449SOL     OW20815   7.990   4.508   4.006 -0.2268  0.0619  0.6839
 3449SOL    HW120816   7.923   4.436   4.024  0.6531 -0.4672  1.8912
 3449SOL    HW220817   8.056   4.475   3.938 -1.3555  0.6952 -0.7392
 3450SOL     OW20818   1.848   5.655   0.616  0.0420  0.1253 -0.2679
 3450SOL    HW120819   1.748   5.655   0.612 -0.0403 -0.3154  1.4447
 3450SOL    HW220820   1.877   5.642   0.710  1.7251 -0.3744 -0.8471
 3451SOL     OW20821   2.309   5.875   1.525 -0.5364  0.5045  0.2083
 3451SOL    HW120822   2.223   5.921   1.543 -0.5166  0.4025  0.5649
 3451SOL    HW220823   2.379   5.907   1.589 -1.0490 -1.5101  1.8265
 3452SOL     OW20824   5.652   7.019   2.057 -0.4180  0.8861  0.2525
 3452SOL    HW120825   5.594   7.085   2.009  0.0218  0.8730 -0.3055
 3452SOL    HW220826   5.594   6.949   2.099 -0.9125  1.9114  1.2816
 3453SOL     OW20827   1.972   5.879   1.425  0.0412 -0.1265 -0.2328
 3453SOL    HW120828   1.947   5.784   1.407 -0.2846 -0.3167  1.2084
 3453SOL    HW220829   1.942   5.906   1.516  1.0925  1.0301 -0.2035
 3454SOL     OW20830   6.254   8.460   1.889 -0.1354 -0.4640 -0.2669
 3454SOL    HW120831   6.271   8.362   1.896 -0.4918 -0.3598  2.3493
 3454SOL    HW220832   6.193   8.489   1.963  0.5647  1.8733 -0.5701
 3455SOL     OW20833   4.696   8.493   2.371  0.1030 -0.4573 -0.2394
 3455SOL    HW120834   4.795   8.502   2.371  0.1706 -1.1556 -0.1141
 3455SOL    HW220835   4.654   8.580   2.345  0.7369 -0.0688  0.0403
 3456SOL     OW20836   3.556   3.185   3.598  0.1505 -0.1597 -0.1027
 3456SOL    HW120837   3.549   3.092   3.562 -0.0003 -0.7404  1.3673
 3456SOL    HW220838   3.464   3.223   3.613  0.1854 -0.5316  1.1412
 3457SOL     OW20839   0.729   8.026   1.005 -0.0050  0.1936  0.5404
 3457SOL    HW120840   0.681   8.086   1.068  0.1732  0.5271  0.3595
 3457SOL    HW220841   0.802   7.977   1.054  0.2198  0.5509  0.5669
 3458SOL     OW20842   9.802   3.354   3.121  0.7414 -0.4898 -0.2612
 3458SOL    HW120843   9.844   3.273   3.081  1.1571  1.0039 -2.9270
 3458SOL    HW220844   9.823   3.434   3.065 -0.4617  1.3185  1.8008
 3459SOL     OW20845   9.094   0.577   1.200  0.2963  0.1463 -0.4580
 3459SOL    HW120846   9.019   0.579   1.266  1.6420  0.5099  1.0888
 3459SOL    HW220847   9.171   0.526   1.238  1.7919  1.9594 -0.9776
 3460SOL     OW20848   4.976   4.198   1.035 -0.2720  0.3455 -0.2495
 3460SOL    HW120849   4.994   4.287   1.078  0.6302 -0.9776  2.1498
 3460SOL    HW220850   5.061   4.163   0.995  0.0437 -0.8116  1.4217
 3461SOL     OW20851   9.357   7.302   3.315 -0.0033  0.4459  0.0064
 3461SOL    HW120852   9.404   7.364   3.378 -1.2105  1.1007  0.2631
 3461SOL    HW220853   9.282   7.256   3.362  0.9068 -1.2748 -0.1631
 3462SOL     OW20854   9.125   7.616   1.254 -0.2801 -0.2096  0.3131
 3462SOL    HW120855   9.099   7.581   1.344  0.5390 -0.9469  0.2709
 3462SOL    HW220856   9.225   7.614   1.245 -0.3467  0.0331 -0.5421
 3463SOL     OW20857   4.524   2.356   1.752 -0.2248  0.4358 -0.3017
 3463SOL    HW120858   4.581   2.279   1.724 -0.1717  0.9691 -1.6981
 3463SOL    HW220859   4.427   2.332   1.741 -0.2831 -0.3024  1.6253
 3464SOL     OW20860   6.426   8.249   2.506  0.5576 -0.1110  0.2896
 3464SOL    HW120861   6.525   8.255   2.496  0.4677  3.1402  0.8200
 3464SOL    HW220862   6.381   8.300   2.433 -0.7754 -1.9072 -0.1948
 3465SOL     OW20863   3.297   0.006   3.647 -0.4708 -0.5355 -0.4777
 3465SOL    HW120864   3.252  -0.046   3.575  0.0371  0.7064 -1.7161
 3465SOL    HW220865   3.390  -0.028   3.659 -1.7013 -3.1354  2.1212
 3466SOL     OW20866   9.110   9.923   1.211 -0.5389  0.1455 -0.1437
 3466SOL    HW120867   9.100  10.007   1.157 -0.3936 -0.2237 -0.7473
 3466SOL    HW220868   9.021   9.877   1.218 -0.9645  1.1924  1.5773
 3467SOL     OW20869   3.667   7.613   2.658  0.0585  0.4633 -0.8115
 3467SOL    HW120870   3.624   7.524   2.672  0.6874  0.0989 -1.1786
 3467SOL    HW220871   3.596   7.683   2.648 -0.4374  0.2274  0.8735
 3468SOL     OW20872   8.129   8.028   2.894  0.1933 -0.2414  0.6557
 3468SOL    HW120873   8.161   7.980   2.812  3.0496  0.1713  1.4482
 3468SOL    HW220874   8.102   8.121   2.871 -2.1505 -1.1395 -0.3288
 3469SOL     OW20875   0.594   7.830   0.877  0.7367 -0.2154 -0.1067
 3469SOL    HW120876   0.497   7.854   0.865  0.2779 -1.5426  0.8169
 3469SOL    HW220877   0.641   7.906   0.923 -0.3511 -0.4269  1.4051
 3470SOL     OW20878   9.651   0.246   0.096  0.3732 -0.5207  0.1223
 3470SOL    HW120879   9.602   0.179   0.151  0.2254 -1.3555 -0.9954
 3470SOL    HW220880   9.587   0.288   0.030  1.0665 -1.3427 -1.0875
 3471SOL     OW20881   4.019   1.174   0.231  0.5784  0.3307 -0.0770
 3471SOL    HW120882   4.033   1.123   0.316 -0.8328  0.0647 -0.0058
 3471SOL    HW220883   3.987   1.112   0.160  0.0973  0.8730 -0.3348
 3472SOL     OW20884   2.114   4.714   0.982 -0.2414  0.3529  0.2784
 3472SOL    HW120885   2.205   4.717   0.941 -0.8142  0.5378 -1.0196
 3472SOL    HW220886   2.084   4.619   0.990 -0.7875  0.3781 -1.2711
 3473SOL     OW20887   1.569   3.087   3.146 -0.2038 -0.0574 -0.0699
 3473SOL    HW120888   1.566   2.988   3.127  0.3379  0.0242 -0.5751
 3473SOL    HW220889   1.631   3.104   3.222 -1.9040 -0.3200  1.4103
 3474SOL     OW20890   1.694   1.734   0.384  0.4376  0.2438  0.1705
 3474SOL    HW120891   1.759   1.658   0.388 -0.3042 -0.3526  1.2393
 3474SOL    HW220892   1.609   1.703   0.342 -0.0938  0.2954  1.1829
 3475SOL     OW20893   2.453   7.497   0.722  0.3273 -0.3449 -0.4237
 3475SOL    HW120894   2.485   7.443   0.644  0.3298 -2.2968  0.9256
 3475SOL    HW220895   2.528   7.555   0.755  0.3552  0.4273 -1.7949
 3476SOL     OW20896   9.287   1.838   0.879  0.3110  0.2410  0.0275
 3476SOL    HW120897   9.202   1.787   0.862 -0.7554  2.1643 -0.5412
 3476SOL    HW220898   9.351   1.779   0.928 -0.7821 -1.7458 -0.8344
 3477SOL     OW20899   0.798   3.176   3.151 -0.0185 -0.0533  0.3113
 3477SOL    HW120900   0.879   3.231   3.130  0.1458 -0.1221  0.7439
 3477SOL    HW220901   0.812   3.083   3.120 -0.2075  0.0982 -0.2253
 3478SOL     OW20902   9.431   7.939   0.453 -0.6222 -0.5136  0.2381
 3478SOL    HW120903   9.467   7.852   0.422 -0.2291 -0.0402 -0.6619
 3478SOL    HW220904   9.424   8.002   0.375  1.9170  1.2402  1.3637
 3479SOL     OW20905   0.314   7.459   1.534  0.1626  0.2064  0.1848
 3479SOL    HW120906   0.214   7.459   1.545  0.0076  0.8573 -1.1201
 3479SOL    HW220907   0.353   7.532   1.590 -0.0634 -0.1506  0.8249
 3480SOL     OW20908   2.735   8.623   1.089  0.1846  0.2315  0.3874
 3480SOL    HW120909   2.739   8.591   0.994 -0.7059  0.5544  0.2384
 3480SOL    HW220910   2.779   8.555   1.148  2.6180  1.0053 -0.4805
 3481SOL     OW20911   4.215   2.197   4.027 -0.2947  0.3400  0.1600
 3481SOL    HW120912   4.152   2.120   4.022  0.5132 -0.2755 -0.7302
 3481SOL    HW220913   4.301   2.167   4.068 -0.0601  0.8243  0.0247
 3482SOL     OW20914   5.251   8.496   2.717  0.0652 -0.4141  0.6145
 3482SOL    HW120915   5.222   8.507   2.812  1.4450 -0.2758  1.0266
 3482SOL    HW220916   5.327   8.557   2.698  1.3090 -2.0770  0.0797
 3483SOL     OW20917   8.315   9.492   2.610  0.0856 -0.1813  0.1657
 3483SOL    HW120918   8.324   9.455   2.517  2.2017 -0.1055  0.3016
 3483SOL    HW220919   8.265   9.578   2.606 -0.2214 -0.3975 -0.8619
 3484SOL     OW20920   7.913   4.849   1.673  0.3564 -0.3589 -0.3905
 3484SOL    HW120921   7.838   4.915   1.665  0.5870 -0.2626 -1.8609
 3484SOL    HW220922   7.997   4.888   1.634  1.0053 -0.7408  0.5889
 3485SOL     OW20923   8.893   3.838   3.276  0.2480  0.5183  0.2815
 3485SOL    HW120924   8.927   3.848   3.183  1.2200  1.5785  0.7287
 3485SOL    HW220925   8.794   3.854   3.278  0.3373  1.1692 -0.4718
 3486SOL     OW20926   8.701   9.625   0.143  0.6457 -0.4438  0.2265
 3486SOL    HW120927   8.700   9.565   0.222  0.6525 -0.5150  0.1735
 3486SOL    HW220928   8.610   9.663   0.129 -0.0702 -2.6826 -1.4526
 3487SOL     OW20929   0.578   8.794   1.973  0.8579  0.2301 -0.0737
 3487SOL    HW120930   0.574   8.750   1.884  1.5245  1.4326 -0.7088
 3487SOL    HW220931   0.650   8.751   2.028 -0.5682 -1.5190  0.4537
 3488SOL     OW20932   0.548   6.511   0.897  0.2683  0.5341 -0.0931
 3488SOL    HW120933   0.575   6.509   0.801  0.5940  0.9714 -0.0120
 3488SOL    HW220934   0.480   6.439   0.914 -0.3718  0.9603 -0.8249
 3489SOL     OW20935   9.046   7.358   1.156  0.2101  0.1118  0.2021
 3489SOL    HW120936   9.070   7.448   1.194  0.0910 -0.0138  0.5735
 3489SOL    HW220937   8.947   7.348   1.153  0.2238 -0.0264  0.2069
 3490SOL     OW20938   2.312   2.290   3.452 -0.1032  0.2659  0.0163
 3490SOL    HW120939   2.285   2.250   3.365  0.9199 -0.2981 -0.0573
 3490SOL    HW220940   2.287   2.387   3.455 -1.0022  0.0502 -0.5137
 3491SOL     OW20941   2.086   1.441   0.296 -0.2848 -0.4791 -0.2546
 3491SOL    HW120942   2.133   1.359   0.329  2.7165  1.0764 -0.5210
 3491SOL    HW220943   2.124   1.522   0.340 -1.6472  0.9862 -1.6781
 3492SOL     OW20944   0.447   3.759   1.821  0.2839  0.6757 -0.4415
 3492SOL    HW120945   0.473   3.843   1.773 -0.9997  1.2798 -0.1053
 3492SOL    HW220946   0.456   3.681   1.758  3.7521  0.6890 -0.0704
 3493SOL     OW20947   9.530   4.012   1.423 -0.0234  0.2035 -0.3633
 3493SOL    HW120948   9.569   4.099   1.456  1.4963 -0.7995  0.5265
 3493SOL    HW220949   9.454   3.986   1.482  0.0202  0.5347 -0.1550
 3494SOL     OW20950   3.326   6.793   1.458 -0.3121 -0.2270  0.8309
 3494SOL    HW120951   3.282   6.732   1.392  0.6948  0.7906 -0.8222
 3494SOL    HW220952   3.304   6.888   1.435  2.0076  0.2528  0.4725
 3495SOL     OW20953   0.034   0.245   0.991 -0.2728  0.0406  0.2448
 3495SOL    HW120954   0.031   0.155   1.036 -1.6521 -0.3049 -0.5076
 3495SOL    HW220955  -0.038   0.249   0.921  1.6202  0.6960 -1.6992
 3496SOL     OW20956   7.743   4.751   1.965  0.0998  0.2874 -0.5509
 3496SOL    HW120957   7.770   4.669   2.016 -1.2615  0.7801  1.0068
 3496SOL    HW220958   7.738   4.730   1.868  0.2323 -1.3467 -0.2122
 3497SOL     OW20959   0.913   6.425   0.969 -0.5156 -0.0114  0.1835
 3497SOL    HW120960   0.899   6.435   0.871 -2.6763  1.1309  0.5648
 3497SOL    HW220961   0.849   6.357   1.005 -1.5535  1.4730  1.1892
 3498SOL     OW20962   3.634   4.997   1.852 -0.4845  0.0697  0.1487
 3498SOL    HW120963   3.681   4.932   1.793 -1.1058 -0.6070  0.3966
 3498SOL    HW220964   3.537   4.997   1.832 -0.6103  0.2887  0.7479
 3499SOL     OW20965   5.029   7.190   2.814 -0.1936  0.2202  0.7081
 3499SOL    HW120966   4.939   7.151   2.790 -0.1833 -0.0938  1.1775
 3499SOL    HW220967   5.086   7.193   2.732  0.4756 -2.5787  1.0101
 3500SOL     OW20968   2.714   7.392   2.920 -0.0041  0.0270 -0.0141
 3500SOL    HW120969   2.668   7.480   2.922 -0.3595 -0.1664  0.5288
 3500SOL    HW220970   2.656   7.323   2.963 -0.5403 -0.8751 -2.1216
 3501SOL     OW20971   3.221   5.741   2.917 -0.6599 -0.4712  0.0850
 3501SOL    HW120972   3.212   5.825   2.971 -2.3475 -1.0879  0.7710
 3501SOL    HW220973   3.237   5.663   2.977 -0.1875 -0.8242 -0.4810
 3502SOL     OW20974   9.836   5.791   3.013  0.1478 -0.4559  0.9767
 3502SOL    HW120975   9.897   5.796   2.934 -0.8493  0.0671  0.2250
 3502SOL    HW220976   9.861   5.862   3.079  1.4564 -1.3729  1.4895
 3503SOL     OW20977   8.813   1.223   1.789 -0.3259  0.2997 -0.1755
 3503SOL    HW120978   8.750   1.211   1.713  0.5135 -0.5808 -0.7526
 3503SOL    HW220979   8.827   1.321   1.807 -1.7668  0.4899 -0.0963
 3504SOL     OW20980   8.143   5.452   0.531 -0.3806 -0.0524  0.2563
 3504SOL    HW120981   8.238   5.482   0.531 -0.0278 -1.1473  0.7457
 3504SOL    HW220982   8.098   5.484   0.615 -1.0771  2.3512 -0.9746
 3505SOL     OW20983   5.735   8.737   2.433 -0.3481 -0.0940 -0.1023
 3505SOL    HW120984   5.691   8.715   2.346 -0.8992  0.9412 -0.0937
 3505SOL    HW220985   5.818   8.791   2.417 -0.2649 -0.1924 -0.0070
 3506SOL     OW20986   2.532   4.531   0.629  0.0914  0.6442  0.1964
 3506SOL    HW120987   2.623   4.535   0.671  0.4994 -2.3890 -0.2522
 3506SOL    HW220988   2.479   4.457   0.672 -0.4191 -0.8241 -2.8104
 3507SOL     OW20989   7.197   8.253   1.421  0.2919  0.7193  0.2949
 3507SOL    HW120990   7.167   8.275   1.514 -0.4105 -0.4273  0.3521
 3507SOL    HW220991   7.274   8.311   1.396  1.2551  0.2327  2.0478
 3508SOL     OW20992   6.864   8.347   1.587 -0.1931 -0.1861 -0.2591
 3508SOL    HW120993   6.806   8.267   1.601  0.4110 -0.4641  0.7175
 3508SOL    HW220994   6.952   8.332   1.632  0.8303  0.0143 -2.1677
 3509SOL     OW20995   9.163   0.309   2.313  0.3175  0.2356 -0.3759
 3509SOL    HW120996   9.209   0.228   2.276 -1.4789 -0.3983 -1.2991
 3509SOL    HW220997   9.175   0.385   2.249  1.6980  0.6326  0.3205
 3510SOL     OW20998   3.768   5.800   2.101 -0.2906 -0.0742  0.0785
 3510SOL    HW120999   3.670   5.804   2.120 -0.1502 -0.2197  0.8551
 3510SOL    HW221000   3.805   5.893   2.095 -0.5348 -0.0161 -0.5342
 3511SOL     OW21001   0.590   1.015   3.578  0.6791  0.1875 -0.3570
 3511SOL    HW121002   0.560   0.926   3.613  1.1150  0.2568  0.1999
 3511SOL    HW221003   0.517   1.055   3.523  0.4254 -0.4508 -0.4938
 3512SOL     OW21004   0.758   8.544   3.617  0.1836  0.1528 -0.1849
 3512SOL    HW121005   0.797   8.583   3.534  1.7097 -0.1148  0.3898
 3512SOL    HW221006   0.811   8.574   3.696 -1.2309  0.3797  0.7069
 3513SOL     OW21007   1.207   2.418   1.011 -0.1764  0.0872  0.4166
 3513SOL    HW121008   1.224   2.516   1.006 -2.2090  0.5641  1.9164
 3513SOL    HW221009   1.134   2.394   0.947  0.6355 -0.5314 -0.2829
 3514SOL     OW21010   8.517   8.397   3.265  0.1166  0.5259  0.0429
 3514SOL    HW121011   8.502   8.469   3.333 -1.5652 -0.2452  0.5006
 3514SOL    HW221012   8.483   8.428   3.176 -1.8467 -0.1964  0.5207
 3515SOL     OW21013   2.936   9.181   3.747 -0.0444 -0.1869 -0.1400
 3515SOL    HW121014   2.838   9.201   3.748  0.1491  0.8625 -1.2394
 3515SOL    HW221015   2.966   9.154   3.839 -0.8584  1.9790  0.7946
 3516SOL     OW21016   3.122   6.613   3.057  0.4915 -0.0949  0.4928
 3516SOL    HW121017   3.132   6.683   3.128 -0.5765  1.9665 -1.3520
 3516SOL    HW221018   3.025   6.606   3.031  0.6480 -1.9527  0.3356
 3517SOL     OW21019   7.727   4.172   0.118 -0.6983  0.5618  0.0989
 3517SOL    HW121020   7.639   4.168   0.071 -0.9119  0.3249  0.5163
 3517SOL    HW221021   7.800   4.190   0.051 -0.8185 -1.2444 -0.5398
 3518SOL     OW21022   2.223   7.588   1.068 -0.4517  0.5811  0.2921
 3518SOL    HW121023   2.287   7.569   1.143  0.5726 -0.3952 -0.8056
 3518SOL    HW221024   2.183   7.502   1.037 -0.0967  0.8676 -0.9551
 3519SOL     OW21025   3.519   7.566   3.833 -0.3161 -0.4228  0.2489
 3519SOL    HW121026   3.600   7.624   3.829  0.9884 -2.1934  0.4416
 3519SOL    HW221027   3.491   7.540   3.741 -0.7759  0.3185  0.1741
 3520SOL     OW21028   2.645   0.964   3.898 -0.0546  0.7191 -0.7241
 3520SOL    HW121029   2.647   0.948   3.997  0.2091 -1.9254 -1.1188
 3520SOL    HW221030   2.738   0.983   3.866 -0.0470  0.9670 -0.5571
 3521SOL     OW21031   1.203   2.581   2.489  0.5224  0.1004 -0.1638
 3521SOL    HW121032   1.161   2.600   2.578  2.0593 -2.1333  1.0624
 3521SOL    HW221033   1.180   2.488   2.460  0.6781  0.5353 -1.7607
 3522SOL     OW21034   8.208   8.947   1.117 -0.6208 -0.2587 -0.1341
 3522SOL    HW121035   8.170   8.957   1.025 -0.4876  0.8304 -0.0737
 3522SOL    HW221036   8.138   8.971   1.185 -0.4277 -0.1360  0.0235
 3523SOL     OW21037   9.488   4.286   1.777 -0.6194  0.4859  0.4910
 3523SOL    HW121038   9.416   4.223   1.806  1.1988 -2.0101 -0.2613
 3523SOL    HW221039   9.550   4.303   1.854  0.8130 -1.3861 -0.2159
 3524SOL     OW21040   9.066   7.667   2.382  0.4862 -0.5083 -0.3200
 3524SOL    HW121041   9.152   7.641   2.338  0.7537  1.0047 -0.7225
 3524SOL    HW221042   9.085   7.697   2.476  0.3901 -0.1949 -0.4014
 3525SOL     OW21043   8.228   9.805   2.946  0.1196  0.2481 -0.2919
 3525SOL    HW121044   8.155   9.873   2.954 -0.3076 -0.2078 -0.3449
 3525SOL    HW221045   8.269   9.810   2.855 -0.2214  0.1112 -0.4493
 3526SOL     OW21046   0.187   9.012   2.388 -0.2449  0.3558 -0.1889
 3526SOL    HW121047   0.277   8.973   2.371 -1.4015 -1.1273 -3.2958
 3526SOL    HW221048   0.163   9.074   2.313 -0.9881  2.3082  1.6241
 3527SOL     OW21049   4.918   7.900   2.321  0.1447  0.0703 -0.0441
 3527SOL    HW121050   4.880   7.879   2.412 -1.3722 -0.6066 -0.8197
 3527SOL    HW221051   4.904   7.997   2.301  0.3863  0.1977  0.3966
 3528SOL     OW21052   4.011   3.259   1.860  0.6413 -0.0513 -0.2646
 3528SOL    HW121053   4.049   3.351   1.865 -0.0982  0.1488  2.8455
 3528SOL    HW221054   4.081   3.196   1.827  1.7097  1.3051 -0.6464
 3529SOL     OW21055   3.968   1.937   1.962  0.0761  0.3826 -0.2323
 3529SOL    HW121056   4.023   1.944   1.879  2.0998 -1.7320  0.8742
 3529SOL    HW221057   3.921   1.849   1.964 -0.7494  0.8281  0.3958
 3530SOL     OW21058   4.399   2.206   0.945 -0.3472  0.0635  0.1237
 3530SOL    HW121059   4.419   2.108   0.939  1.4276  0.3879  0.4134
 3530SOL    HW221060   4.391   2.232   1.041 -2.6662 -0.1216  0.0232
 3531SOL     OW21061   0.480   0.092   2.392  0.0943 -0.1671 -0.1617
 3531SOL    HW121062   0.425   0.156   2.446 -0.4706 -0.7073 -0.0810
 3531SOL    HW221063   0.462  -0.001   2.423  1.6325 -0.2910  0.3576
 3532SOL     OW21064   8.750   5.231   2.309  0.3818 -0.2267 -0.6396
 3532SOL    HW121065   8.697   5.211   2.227 -0.6974  2.4197 -0.6313
 3532SOL    HW221066   8.812   5.308   2.291  0.8289 -0.2523  0.7477
 3533SOL     OW21067   8.770   3.561   0.800  0.3827  0.5672 -0.0831
 3533SOL    HW121068   8.686   3.506   0.798 -0.6756  2.1514  0.2276
 3533SOL    HW221069   8.755   3.642   0.857  2.1917  0.7701  0.1277
 3534SOL     OW21070   8.114   9.217   2.708  0.3570 -0.1671 -1.0886
 3534SOL    HW121071   8.124   9.260   2.619  0.4821  2.0406 -0.0434
 3534SOL    HW221072   8.132   9.285   2.780  1.8765 -2.2877  0.5982
 3535SOL     OW21073   9.636   6.513   2.995 -0.3500  0.2766  0.3024
 3535SOL    HW121074   9.692   6.439   3.031  0.1935 -0.0013 -1.0689
 3535SOL    HW221075   9.546   6.512   3.038  0.1186 -0.3315  1.2746
 3536SOL     OW21076   9.668   2.292   2.867 -0.2251  0.1203  0.2872
 3536SOL    HW121077   9.731   2.224   2.830 -0.5869  0.0840 -0.2678
 3536SOL    HW221078   9.637   2.353   2.794 -0.7132  0.2325  0.5826
 3537SOL     OW21079   1.457   4.508   2.148  0.4309  0.2489  0.0144
 3537SOL    HW121080   1.437   4.562   2.230  1.1261  0.5518 -0.0098
 3537SOL    HW221081   1.417   4.554   2.068  1.0427  0.7486 -0.0096
 3538SOL     OW21082   0.702   5.337   1.361  0.4697 -0.5068  0.2614
 3538SOL    HW121083   0.702   5.237   1.361  1.3724 -0.5438 -2.1893
 3538SOL    HW221084   0.627   5.369   1.303  0.8771  0.2102  0.1346
 3539SOL     OW21085   2.601   1.869   1.732 -0.4497  0.2778  0.5636
 3539SOL    HW121086   2.659   1.945   1.705 -1.5168  1.5468  1.7589
 3539SOL    HW221087   2.657   1.797   1.772  0.3672  1.2803  1.2516
 3540SOL     OW21088   4.930   3.329   1.064  0.1589  0.0157 -0.2420
 3540SOL    HW121089   4.936   3.386   0.982  2.7611 -0.3437 -0.3400
 3540SOL    HW221090   4.952   3.384   1.144 -0.1106 -0.1915 -0.0235
 3541SOL     OW21091   1.007   3.061   3.434  0.2387 -0.3190 -0.1602
 3541SOL    HW121092   0.919   3.031   3.471  0.5064  0.2686  0.9902
 3541SOL    HW221093   0.991   3.130   3.364 -0.2758 -1.4247 -1.1490
 3542SOL     OW21094   8.632   3.113   0.476  0.6372 -0.0909  0.0796
 3542SOL    HW121095   8.697   3.138   0.547  1.4505  0.2737 -0.7749
 3542SOL    HW221096   8.669   3.038   0.422  0.6652  0.5841 -0.8535
 3543SOL     OW21097   9.921   0.087   2.213 -0.1916  0.0973  0.1635
 3543SOL    HW121098   9.869   0.136   2.282  0.9015  0.1793  0.9391
 3543SOL    HW221099   9.980   0.151   2.163 -1.4836  0.1577 -1.3355
 3544SOL     OW21100   4.813   9.976   2.589  0.2642 -0.3306  0.6524
 3544SOL    HW121101   4.894  10.023   2.626 -0.9376  1.6851  0.7557
 3544SOL    HW221102   4.801  10.000   2.493  0.1640 -1.1693  0.4520
 3545SOL     OW21103   4.188   0.321   0.723  0.3838 -0.2322  0.0459
 3545SOL    HW121104   4.283   0.294   0.707 -0.0862 -1.1442 -1.2654
 3545SOL    HW221105   4.173   0.333   0.821  1.8230 -0.1621  0.2744
 3546SOL     OW21106   0.511   0.167   0.223 -0.7230 -0.2674  0.1367
 3546SOL    HW121107   0.543   0.095   0.283  1.9520  0.4434 -0.3701
 3546SOL    HW221108   0.506   0.254   0.273  2.4542  0.5350 -0.8043
 3547SOL     OW21109   4.732   1.175   1.803 -0.1322  0.2926  0.1431
 3547SOL    HW121110   4.709   1.241   1.874 -1.7275  1.6521 -1.6162
 3547SOL    HW221111   4.804   1.213   1.744 -0.5936  0.1897 -0.4848
 3548SOL     OW21112   8.838   2.600   0.143 -0.2369 -0.3287 -0.0789
 3548SOL    HW121113   8.880   2.513   0.167 -0.7042 -0.1365  1.5086
 3548SOL    HW221114   8.738   2.591   0.147 -0.2999  0.0530 -0.7358
 3549SOL     OW21115   3.061   0.866   1.413 -0.5124  0.3695  0.1231
 3549SOL    HW121116   3.047   0.809   1.332  1.0589 -0.7320  0.6087
 3549SOL    HW221117   3.105   0.952   1.387  1.4294 -0.6384 -0.0197
 3550SOL     OW21118   4.705   8.682   1.392 -0.1838 -0.4211 -0.6409
 3550SOL    HW121119   4.706   8.761   1.453 -0.4968 -0.8903 -0.0152
 3550SOL    HW221120   4.746   8.603   1.439 -1.4260 -1.0781 -0.6125
 3551SOL     OW21121   2.296   3.938   0.606  0.0639  0.5022  0.6504
 3551SOL    HW121122   2.331   3.996   0.533  0.1865 -1.4071 -0.8419
 3551SOL    HW221123   2.372   3.900   0.659  0.0295  0.6490  0.8078
 3552SOL     OW21124   3.311   9.877   1.443  0.1648 -0.4307  0.2299
 3552SOL    HW121125   3.271   9.842   1.528 -0.2683 -0.1479  0.1448
 3552SOL    HW221126   3.337   9.801   1.384 -1.7495 -0.6218 -0.4136
 3553SOL     OW21127   3.251   9.947   2.990 -0.0850 -0.2239 -0.7059
 3553SOL    HW121128   3.187  10.011   3.033  0.3355  0.5877 -1.2742
 3553SOL    HW221129   3.214   9.854   2.997 -0.2645 -0.0496  0.9417
 3554SOL     OW21130   8.725   2.927   3.372 -0.3993  0.1160 -0.2505
 3554SOL    HW121131   8.655   2.967   3.313 -3.1046 -1.7711  1.5486
 3554SOL    HW221132   8.749   2.836   3.338 -0.8694 -0.3647  0.6973
 3555SOL     OW21133   6.516   7.983   2.834 -0.7520 -0.1844 -0.1230
 3555SOL    HW121134   6.476   8.074   2.843  1.2524  0.6064  1.1461
 3555SOL    HW221135   6.476   7.921   2.901 -0.4324  0.3929  0.6075
 3556SOL     OW21136   8.936   4.845   1.532 -0.1310 -0.1576  0.1145
 3556SOL    HW121137   9.027   4.873   1.564 -0.7139 -1.1432  2.7825
 3556SOL    HW221138   8.894   4.920   1.482  1.9817  0.4651 -0.7859
 3557SOL     OW21139   3.244   8.154   3.192  0.7712  0.2001 -0.2840
 3557SOL    HW121140   3.319   8.167   3.127  0.7106  0.5987 -0.2699
 3557SOL    HW221141   3.179   8.087   3.154  2.0188 -1.4589  0.4621
 3558SOL     OW21142   4.430   9.335   2.205  0.2738 -0.2674 -0.0671
 3558SOL    HW121143   4.357   9.319   2.272  1.9846 -1.9299  1.4736
 3558SOL    HW221144   4.458   9.430   2.209  0.0564 -0.2486  1.2818
 3559SOL     OW21145   1.829   6.355   2.163 -0.4070  0.4028  0.2116
 3559SOL    HW121146   1.909   6.412   2.144  0.3763 -0.0805  1.9784
 3559SOL    HW221147   1.854   6.259   2.157 -1.1100  0.2473 -0.2475
 3560SOL     OW21148   4.156   9.817   2.684  0.4072  0.1291  0.2863
 3560SOL    HW121149   4.058   9.835   2.676  0.5951  0.7852 -0.7847
 3560SOL    HW221150   4.198   9.819   2.593  1.4323 -0.0387  0.7396
 3561SOL     OW21151   7.373   8.455   1.067 -0.2162 -0.1110  0.0658
 3561SOL    HW121152   7.367   8.370   1.120  3.8606 -0.4122  0.2758
 3561SOL    HW221153   7.369   8.434   0.970 -0.4958 -0.4184  0.1448
 3562SOL     OW21154   3.181   1.392   0.477  0.4118  0.1618  0.1120
 3562SOL    HW121155   3.196   1.420   0.572  3.2996 -2.4297  0.5221
 3562SOL    HW221156   3.245   1.442   0.418 -1.2482  1.6277 -0.4664
 3563SOL     OW21157   9.279   7.367   2.164  0.1332 -0.5906  0.2637
 3563SOL    HW121158   9.222   7.385   2.244  0.8933  1.6191  0.3195
 3563SOL    HW221159   9.222   7.327   2.092 -1.2470  0.4330  0.7633
 3564SOL     OW21160   8.064   0.608   0.415  0.1111  0.0616  0.5206
 3564SOL    HW121161   8.048   0.675   0.488  0.6727 -1.1410  1.7740
 3564SOL    HW221162   8.039   0.517   0.447 -0.7515 -0.3256 -1.2088
 3565SOL     OW21163   7.378   8.663   2.676  0.3634 -0.2085 -0.6807
 3565SOL    HW121164   7.299   8.617   2.637 -0.8671  0.8407  0.5398
 3565SOL    HW221165   7.357   8.760   2.689  1.5523 -0.0895  0.4566
 3566SOL     OW21166   0.366   2.723   1.540  0.5591 -0.3381  0.0402
 3566SOL    HW121167   0.426   2.695   1.614 -0.4169 -1.1549  0.5392
 3566SOL    HW221168   0.281   2.670   1.544 -2.0918  3.7439  2.0265
 3567SOL     OW21169   1.061   7.617   3.734  0.3402  0.2593  0.4386
 3567SOL    HW121170   1.084   7.713   3.744  0.3416  0.9117 -4.5687
 3567SOL    HW221171   1.144   7.561   3.740  0.9237  0.9854 -0.8750
 3568SOL     OW21172   0.164   9.044   0.339  0.1572 -0.1449 -0.0216
 3568SOL    HW121173   0.176   9.140   0.362 -1.5824  0.3076 -0.8524
 3568SOL    HW221174   0.115   9.037   0.252 -0.7302 -1.7780  0.5834
 3569SOL     OW21175   9.311   1.760   3.932 -0.4474  0.3765 -0.2782
 3569SOL    HW121176   9.284   1.667   3.908  0.1673  0.8208 -2.8640
 3569SOL    HW221177   9.256   1.825   3.879  0.7713  1.4196 -0.2722
 3570SOL     OW21178   9.155   5.115   0.957  0.6791  0.3530  0.2481
 3570SOL    HW121179   9.096   5.191   0.929  2.7738  2.0573  0.2485
 3570SOL    HW221180   9.100   5.034   0.975 -1.6303  1.8978  0.3191
 3571SOL     OW21181   9.594   0.090   3.095  0.0037  0.2476  0.0264
 3571SOL    HW121182   9.516   0.085   3.157  0.2714 -0.0659  0.3302
 3571SOL    HW221183   9.567   0.056   3.005 -0.2849  0.3827  0.0632
 3572SOL     OW21184   8.818   6.315   0.237 -0.0335  0.1957 -0.0090
 3572SOL    HW121185   8.796   6.412   0.224 -0.3857  0.1727  0.4229
 3572SOL    HW221186   8.879   6.285   0.163  0.2394  0.7955 -0.0306
 3573SOL     OW21187   6.806   9.780   2.094 -0.3783 -0.4978  0.1270
 3573SOL    HW121188   6.711   9.758   2.073 -0.4978 -0.1103  0.2555
 3573SOL    HW221189   6.816   9.879   2.104 -0.4375 -0.6926  2.4067
 3574SOL     OW21190   8.747   7.523   0.968 -0.2135  0.7132 -0.3996
 3574SOL    HW121191   8.749   7.613   1.010 -0.9501 -0.4039  2.1014
 3574SOL    HW221192   8.825   7.513   0.905  0.9729  2.3751  0.7891
 3575SOL     OW21193   0.555   2.030   0.883  0.3750  0.1649  0.3223
 3575SOL    HW121194   0.540   2.053   0.787  2.3785 -0.3905 -0.1491
 3575SOL    HW221195   0.528   1.935   0.900  0.4918  0.1109  0.2006
 3576SOL     OW21196   0.469   5.201   2.673 -0.0888 -0.1254  0.2171
 3576SOL    HW121197   0.486   5.123   2.733 -0.9666  0.7779  1.6804
 3576SOL    HW221198   0.555   5.246   2.652  0.4803 -1.7280 -1.0035
 3577SOL     OW21199   2.125   7.285   1.307 -0.5240 -0.2103 -0.0323
 3577SOL    HW121200   2.156   7.190   1.308 -0.1326 -0.0910 -0.6485
 3577SOL    HW221201   2.032   7.290   1.344 -0.5188 -0.8200  0.0664
 3578SOL     OW21202   2.384   2.866   2.846 -0.5924  0.0203 -0.0599
 3578SOL    HW121203   2.404   2.783   2.897  0.4377  1.0572  1.2608
 3578SOL    HW221204   2.428   2.862   2.756 -0.1865 -0.6605  0.1646
 3579SOL     OW21205   0.633   7.858   1.306 -0.4304  0.4027 -0.0097
 3579SOL    HW121206   0.680   7.946   1.302 -0.4286  0.4446  0.7865
 3579SOL    HW221207   0.551   7.867   1.363 -1.5977  0.4210 -1.6808
 3580SOL     OW21208   4.755   9.919   3.078 -0.3660 -0.0428 -0.3246
 3580SOL    HW121209   4.662   9.897   3.108 -0.0623  0.9174  1.3966
 3580SOL    HW221210   4.780   9.860   3.001 -2.2618 -0.5502 -0.5847
 3581SOL     OW21211   7.909   4.534   2.071 -0.4283  0.0286 -0.3098
 3581SOL    HW121212   7.879   4.452   2.118 -0.0326 -0.7099 -1.3109
 3581SOL    HW221213   8.009   4.531   2.058 -0.6380 -0.2043 -1.9496
 3582SOL     OW21214   9.402   2.220   0.813  0.2339 -0.4860  0.4217
 3582SOL    HW121215   9.462   2.159   0.864  1.0852 -1.6211 -1.8434
 3582SOL    HW221216   9.456   2.287   0.763 -0.4583 -0.4367 -0.2857
 3583SOL     OW21217   7.958   9.757   2.159  0.5460  0.1566  0.3505
 3583SOL    HW121218   8.039   9.749   2.216  1.9462  3.0982 -1.0949
 3583SOL    HW221219   7.923   9.851   2.164 -2.4765 -0.9031  0.4987
 3584SOL     OW21220   2.295   6.037   2.540 -0.0809  0.4382 -0.1235
 3584SOL    HW121221   2.297   5.993   2.630 -0.9748  0.1913 -0.2201
 3584SOL    HW221222   2.279   5.969   2.469  2.1888  0.4096 -0.6371
 3585SOL     OW21223   0.668   1.134   0.936 -0.0212 -0.5598 -0.3708
 3585SOL    HW121224   0.583   1.092   0.905 -0.9129  1.4778 -0.7690
 3585SOL    HW221225   0.718   1.171   0.857  0.6578 -0.6813 -0.0060
 3586SOL     OW21226   1.010   5.126   3.088  0.4301  0.7515  0.2962
 3586SOL    HW121227   0.986   5.129   3.185  0.3074 -0.4512  0.3039
 3586SOL    HW221228   0.976   5.209   3.044 -0.5647  0.7617  1.0500
 3587SOL     OW21229   0.981   4.821   3.828  0.2062  0.5819 -0.0407
 3587SOL    HW121230   0.992   4.907   3.878 -0.1806  0.0181  1.0410
 3587SOL    HW221231   0.895   4.777   3.857  1.2146 -0.9712  0.6482
 3588SOL     OW21232   4.319   2.808   2.414  0.0216  0.1386 -0.1561
 3588SOL    HW121233   4.400   2.759   2.383  0.3551 -0.7959  2.0250
 3588SOL    HW221234   4.344   2.902   2.439  0.3805 -0.0429  0.1824
 3589SOL     OW21235   8.687   6.429   1.243 -0.0569 -0.0040  0.0915
 3589SOL    HW121236   8.594   6.450   1.213 -0.1763 -0.1237  0.3747
 3589SOL    HW221237   8.717   6.343   1.202 -0.7834 -0.9598  1.5039
 3590SOL     OW21238   3.101   9.685   3.259  0.4900  0.3564  0.2446
 3590SOL    HW121239   3.040   9.672   3.337 -0.2496 -1.5995 -0.6192
 3590SOL    HW221240   3.048   9.712   3.178  0.9223  0.0015 -0.1672
 3591SOL     OW21241   2.035   6.281   3.999 -0.4161  0.2750 -0.3302
 3591SOL    HW121242   2.096   6.290   4.078  0.9163 -2.8999 -0.9577
 3591SOL    HW221243   1.971   6.358   3.998  0.7743  1.3694  2.7690
 3592SOL     OW21244   7.305   3.296   3.836 -0.3514  0.2504 -0.0793
 3592SOL    HW121245   7.369   3.360   3.793  0.2405  0.0230  0.4498
 3592SOL    HW221246   7.225   3.345   3.868  0.4026  0.8508  0.9261
 3593SOL     OW21247   7.010   9.396   1.210  0.0870 -0.1500 -0.1452
 3593SOL    HW121248   7.080   9.440   1.154  0.5307  1.1901  1.4168
 3593SOL    HW221249   6.975   9.462   1.277  0.4417 -2.0319  1.9601
 3594SOL     OW21250   5.103   8.037   2.972 -0.0226 -0.1401  0.0866
 3594SOL    HW121251   5.042   8.097   3.023  0.4874  0.0666  0.4572
 3594SOL    HW221252   5.055   8.001   2.892 -0.0412  1.4659 -0.6323
 3595SOL     OW21253   0.404   8.501   0.496  0.9520  0.5448 -0.1114
 3595SOL    HW121254   0.342   8.428   0.525  2.7164 -0.1181  2.1375
 3595SOL    HW221255   0.474   8.463   0.435  2.0591  0.2625  1.3129
 3596SOL     OW21256   9.691   4.454   0.951  0.1184  0.3615  0.3938
 3596SOL    HW121257   9.599   4.420   0.930  0.1118  1.5261 -1.5525
 3596SOL    HW221258   9.688   4.552   0.969  1.1278  0.6326 -0.8213
 3597SOL     OW21259   7.882   9.092   1.995 -0.2201  0.4906  0.5695
 3597SOL    HW121260   7.969   9.075   1.947 -0.6086 -0.0608  0.0485
 3597SOL    HW221261   7.893   9.072   2.092 -0.1961 -1.1287  0.2414
 3598SOL     OW21262   3.841   1.350   3.254  0.1721 -0.8148  0.6069
 3598SOL    HW121263   3.893   1.411   3.313 -0.8607  0.3462  0.3215
 3598SOL    HW221264   3.815   1.398   3.170 -1.3892 -1.3602  0.7563
 3599SOL     OW21265   0.638   5.669   2.664 -0.1945 -0.6855  0.2295
 3599SOL    HW121266   0.542   5.694   2.646  0.1296 -0.0191 -0.6191
 3599SOL    HW221267   0.693   5.752   2.672  0.6936 -1.0686 -1.4884
 3600SOL     OW21268   1.900   8.163   2.133  0.2208 -0.7683 -0.6943
 3600SOL    HW121269   1.935   8.234   2.071  3.0335 -1.7460 -0.3178
 3600SOL    HW221270   1.893   8.076   2.083 -1.1845 -0.7241 -0.6023
 3601SOL     OW21271   0.099   1.430   1.470  0.1503  0.8061  0.2147
 3601SOL    HW121272   0.038   1.367   1.423 -0.5364  0.3924  1.6387
 3601SOL    HW221273   0.089   1.522   1.430 -1.9385  0.8988  0.8854
 3602SOL     OW21274   8.909   6.535   3.208  0.5647 -0.6395 -0.0080
 3602SOL    HW121275   8.837   6.470   3.187  0.6952 -0.4991 -0.8872
 3602SOL    HW221276   8.905   6.559   3.305 -0.8269 -0.2973 -0.1509
 3603SOL     OW21277   0.874   6.849   2.163 -0.3661 -0.1917 -0.6788
 3603SOL    HW121278   0.911   6.805   2.081 -1.9280  1.9056 -2.5844
 3603SOL    HW221279   0.849   6.944   2.141 -0.9204  0.3774  2.2176
 3604SOL     OW21280   1.569   9.315   1.347  0.3920 -0.5466  0.0389
 3604SOL    HW121281   1.515   9.379   1.292 -0.3053 -1.1742 -0.0171
 3604SOL    HW221282   1.581   9.229   1.297  0.6997 -0.7215  0.4120
 3605SOL     OW21283   8.115   2.592   0.179 -0.3708 -0.3426 -0.2175
 3605SOL    HW121284   8.162   2.515   0.137  0.9235  1.5858 -2.4120
 3605SOL    HW221285   8.068   2.645   0.109 -1.1074  0.9790  1.2283
 3606SOL     OW21286   0.848   2.909   1.053 -0.1019  0.2841  0.1230
 3606SOL    HW121287   0.825   2.993   1.102  0.0273  0.0867  0.5167
 3606SOL    HW221288   0.765   2.856   1.036  0.1689 -0.9211  2.4309
 3607SOL     OW21289   0.101   1.987   4.026  0.3116 -0.1026  0.6843
 3607SOL    HW121290   0.200   1.981   4.025  0.2050 -2.0831  0.6455
 3607SOL    HW221291   0.067   1.994   3.932  0.3251 -1.4728  0.5613
 3608SOL     OW21292   4.337   9.599   2.161  0.2723 -0.2799 -0.2360
 3608SOL    HW121293   4.259   9.589   2.222 -0.0009  0.8706 -0.3815
 3608SOL    HW221294   4.304   9.610   2.067  0.5868  0.8401 -0.2171
 3609SOL     OW21295   1.546   2.381   3.324  0.4365 -0.0406 -0.5167
 3609SOL    HW121296   1.472   2.449   3.318  2.3273  2.1332  0.2033
 3609SOL    HW221297   1.623   2.410   3.267  0.6043 -2.5115 -1.6043
 3610SOL     OW21298   7.743   2.071   3.790 -0.0714 -0.1582 -0.4616
 3610SOL    HW121299   7.651   2.098   3.818 -1.2797 -0.4463 -3.8584
 3610SOL    HW221300   7.793   2.036   3.869 -2.6187  0.6189  1.5904
 3611SOL     OW21301   8.039   7.808   3.037  0.0021 -0.1703 -0.1540
 3611SOL    HW121302   8.065   7.901   3.011 -0.8154  0.2251  0.4160
 3611SOL    HW221303   8.113   7.745   3.014  0.4453  0.5768 -0.8123
 3612SOL     OW21304   1.320   1.574   1.019  0.2531  0.0170 -0.6342
 3612SOL    HW121305   1.272   1.541   1.100 -0.0096  0.8554 -0.4477
 3612SOL    HW221306   1.301   1.512   0.942 -1.8479  0.8069 -0.7844
 3613SOL     OW21307   9.741   4.485   2.250 -0.3036  0.3451  0.2732
 3613SOL    HW121308   9.776   4.392   2.265 -1.0519 -0.0661 -0.4726
 3613SOL    HW221309   9.682   4.511   2.326 -0.2345  0.1354  0.4001
 3614SOL     OW21310   9.159   1.682   2.489  0.1173 -0.5281 -0.1912
 3614SOL    HW121311   9.069   1.711   2.521  0.6594  0.7764  0.1809
 3614SOL    HW221312   9.153   1.590   2.450 -1.6185  0.0643 -1.3560
 3615SOL     OW21313   2.322   6.059   3.332  0.5375  0.1859 -0.1358
 3615SOL    HW121314   2.279   5.970   3.321  0.5913 -0.0108  1.1447
 3615SOL    HW221315   2.289   6.102   3.416 -1.5235  2.5563 -2.0867
 3616SOL     OW21316   8.283   5.985   1.680 -0.0870  0.3591 -0.6954
 3616SOL    HW121317   8.275   5.885   1.683  2.0441  0.1854  0.0347
 3616SOL    HW221318   8.299   6.021   1.772  1.2627  1.1564 -1.2215
 3617SOL     OW21319   4.435   2.477   3.715  0.2496 -0.1694  0.2500
 3617SOL    HW121320   4.344   2.436   3.710  0.3818 -0.4484  0.0843
 3617SOL    HW221321   4.504   2.405   3.724  0.4768  0.0189  0.0480
 3618SOL     OW21322   2.168   2.527   1.843 -0.6001 -0.4742  0.7278
 3618SOL    HW121323   2.241   2.591   1.866 -1.5716  1.3219 -0.9795
 3618SOL    HW221324   2.208   2.446   1.799  0.3924  0.3948 -0.0056
 3619SOL     OW21325   2.918   9.702   3.023  0.3139 -0.2909 -0.2356
 3619SOL    HW121326   2.858   9.624   3.003 -0.8078  0.4438  0.2454
 3619SOL    HW221327   2.865   9.786   3.021  1.5530  0.4784 -0.8541
 3620SOL     OW21328   8.327   7.808   2.803 -0.2695 -0.1394  0.2330
 3620SOL    HW121329   8.350   7.766   2.891  1.3292  0.1482 -0.0214
 3620SOL    HW221330   8.403   7.794   2.739 -2.1622 -1.9304 -1.6877
 3621SOL     OW21331   1.941   3.011   3.363 -0.7254 -0.4392  0.6583
 3621SOL    HW121332   1.906   3.075   3.294  0.1767 -1.0287 -0.3712
 3621SOL    HW221333   1.988   3.062   3.435  1.5320  0.0053 -1.0482
 3622SOL     OW21334   3.353   0.502   0.423 -0.3821  0.0023  0.1130
 3622SOL    HW121335   3.381   0.471   0.514 -2.2072 -0.5828  0.5016
 3622SOL    HW221336   3.265   0.548   0.430 -0.7603 -0.4769 -1.4353
 3623SOL     OW21337   1.789   7.964   3.813 -0.2589  0.7090 -0.4999
 3623SOL    HW121338   1.867   8.009   3.857 -0.5067  0.5303  0.1418
 3623SOL    HW221339   1.809   7.867   3.801 -0.8992  0.3916  0.9080
 3624SOL     OW21340   1.791   3.070   2.798 -0.1186 -0.1739 -0.3379
 3624SOL    HW121341   1.755   2.980   2.820 -0.3823  0.5487  2.2904
 3624SOL    HW221342   1.869   3.090   2.858 -0.5243  1.6370 -0.3899
 3625SOL     OW21343   0.088   8.698   3.850  0.1889  0.6632 -0.4645
 3625SOL    HW121344   0.047   8.642   3.921  1.3733  1.0882  0.5636
 3625SOL    HW221345   0.043   8.788   3.848 -0.5043  0.3160 -0.9283
 3626SOL     OW21346   3.409   9.730   2.232  0.1613  0.1287  0.2189
 3626SOL    HW121347   3.399   9.638   2.193  0.2720 -0.0999  0.7351
 3626SOL    HW221348   3.477   9.728   2.305 -0.6585  0.4040  0.9849
 3627SOL     OW21349   2.042   7.998   1.028  0.0629  0.0203 -0.0616
 3627SOL    HW121350   1.989   8.077   1.060  0.3045 -0.2101  0.9441
 3627SOL    HW221351   2.057   7.935   1.105 -0.1345 -1.0090 -0.8615
 3628SOL     OW21352   1.298   7.811   2.451  0.6970  0.1784  0.4561
 3628SOL    HW121353   1.388   7.816   2.494  0.9111  0.7013 -0.0486
 3628SOL    HW221354   1.233   7.865   2.504  0.8318  0.3513  0.4462
 3629SOL     OW21355   0.841   5.735   1.914  0.7754 -0.4924 -0.5199
 3629SOL    HW121356   0.805   5.655   1.963  2.3499 -0.4345  0.7903
 3629SOL    HW221357   0.817   5.818   1.965 -2.8529  0.1428 -3.0581
 3630SOL     OW21358   2.339   3.163   3.367 -0.7811  0.2414  0.8227
 3630SOL    HW121359   2.304   3.070   3.366  0.0627 -0.0754  0.2426
 3630SOL    HW221360   2.382   3.183   3.279 -1.0577  1.2171  0.9043
 3631SOL     OW21361   5.962   8.839   2.366 -0.4286  0.5378 -0.2078
 3631SOL    HW121362   5.955   8.938   2.354  0.4243  0.2646 -3.4161
 3631SOL    HW221363   6.059   8.812   2.364 -0.6319 -0.3413  1.0896
 3632SOL     OW21364   9.121   6.900   3.077 -0.1191 -0.0467 -0.1851
 3632SOL    HW121365   9.058   6.978   3.082  2.1000  1.8035 -0.2004
 3632SOL    HW221366   9.104   6.839   3.154 -2.7250 -0.2492 -0.8516
 3633SOL     OW21367   0.698   3.627   3.692  0.2371  0.1919  0.2585
 3633SOL    HW121368   0.664   3.533   3.696 -0.1179  0.3729  1.5135
 3633SOL    HW221369   0.621   3.691   3.701  0.4522  0.6139 -0.7701
 3634SOL     OW21370   2.271   2.027   1.494  0.3128 -0.2573 -0.1889
 3634SOL    HW121371   2.236   2.120   1.488  0.9327  0.0020  0.1963
 3634SOL    HW221372   2.370   2.027   1.480  0.7909 -0.4772  2.8680
 3635SOL     OW21373   8.531   0.043   0.840  0.2479 -0.0996 -0.1559
 3635SOL    HW121374   8.561   0.123   0.892  0.0072 -0.8909  1.2399
 3635SOL    HW221375   8.434   0.053   0.816  0.5711  0.6419 -1.1803
 3636SOL     OW21376   2.423   8.845   3.767  0.3969 -0.2329 -0.0485
 3636SOL    HW121377   2.412   8.812   3.673  2.8927 -0.0681 -0.4180
 3636SOL    HW221378   2.518   8.869   3.783  0.1030 -0.7925  2.7085
 3637SOL     OW21379   1.393   5.116   2.183  0.0653 -0.2309 -0.0630
 3637SOL    HW121380   1.405   5.157   2.093  2.6535 -2.1604 -0.6543
 3637SOL    HW221381   1.445   5.168   2.251  0.4099 -0.4197 -0.1814
 3638SOL     OW21382   8.687   6.362   2.626  0.0364 -0.4280  0.3265
 3638SOL    HW121383   8.728   6.313   2.703  0.9161  0.9862  0.7744
 3638SOL    HW221384   8.732   6.450   2.614 -2.1399  0.7142  0.1487
 3639SOL     OW21385   0.056   9.013   0.088 -0.0484 -0.2090  0.0469
 3639SOL    HW121386   0.085   9.001  -0.007  1.2888 -0.4602  0.4693
 3639SOL    HW221387  -0.044   9.017   0.093 -0.1133  0.1861 -1.4075
 3640SOL     OW21388   4.546   0.586   3.056  0.3922 -0.1681  0.1563
 3640SOL    HW121389   4.617   0.545   3.000  2.1498  0.9853  1.4773
 3640SOL    HW221390   4.485   0.515   3.092 -0.3242 -0.9771 -2.5833
 3641SOL     OW21391   2.544   0.144   0.800  0.2858  0.1748 -0.3822
 3641SOL    HW121392   2.631   0.095   0.798  0.4020  0.3443  0.4836
 3641SOL    HW221393   2.470   0.081   0.773  0.9795  0.7449 -3.8683
 3642SOL     OW21394   8.870   0.541   1.662 -0.0260  0.2118  0.3889
 3642SOL    HW121395   8.805   0.472   1.629  0.1220 -0.0866  0.7298
 3642SOL    HW221396   8.829   0.631   1.653 -0.6326 -0.0036  0.9361
 3643SOL     OW21397   8.028   8.087   2.503 -0.4168 -0.4711  0.2081
 3643SOL    HW121398   7.928   8.089   2.501 -0.5134 -2.4190  1.8044
 3643SOL    HW221399   8.059   8.005   2.552  1.9831 -0.5731 -1.4084
 3644SOL     OW21400   2.796   2.156   3.621  0.0328  0.0964 -0.1760
 3644SOL    HW121401   2.860   2.217   3.574  0.6294 -0.1683  0.2877
 3644SOL    HW221402   2.703   2.193   3.615  0.1191  0.1442 -1.4348
 3645SOL     OW21403   4.748   7.307   2.316  0.1084  0.6396  0.0272
 3645SOL    HW121404   4.672   7.321   2.379  0.2916 -0.1994  0.4458
 3645SOL    HW221405   4.720   7.242   2.245  0.8045 -0.5839  0.8524
 3646SOL     OW21406   1.776   2.071   0.695  0.0673 -0.2790 -0.5101
 3646SOL    HW121407   1.828   2.146   0.734 -1.2312  0.4648 -0.1786
 3646SOL    HW221408   1.816   2.045   0.607  0.5976  0.7147 -0.5717
 3647SOL     OW21409   7.816   0.761   1.295 -0.1750  0.1528 -0.2167
 3647SOL    HW121410   7.727   0.764   1.249  0.2249  0.5744 -0.9680
 3647SOL    HW221411   7.806   0.715   1.384 -1.2107  0.5313 -0.1328
 3648SOL     OW21412   4.065   0.785   3.988  0.2010 -0.7455 -0.4326
 3648SOL    HW121413   4.070   0.763   4.086 -0.2618  0.0587 -0.2155
 3648SOL    HW221414   3.976   0.757   3.952  0.4114 -1.1352 -0.6422
 3649SOL     OW21415   4.384   9.805   3.839  0.0307  0.0318  0.3607
 3649SOL    HW121416   4.303   9.857   3.813  0.6604  0.5036 -0.6974
 3649SOL    HW221417   4.439   9.859   3.903  1.0769  1.0182 -1.3374
 3650SOL     OW21418   0.429   7.409   1.908  0.0160 -0.0313 -0.0405
 3650SOL    HW121419   0.343   7.361   1.891 -0.1016  0.8334 -2.1091
 3650SOL    HW221420   0.504   7.343   1.907 -0.3798 -0.4872 -0.6647
 3651SOL     OW21421   9.776   2.718   2.245 -0.9056  0.4102 -0.0556
 3651SOL    HW121422   9.806   2.744   2.154  1.3274 -2.9480 -0.3654
 3651SOL    HW221423   9.737   2.625   2.242  0.9457 -0.5275  2.6773
 3652SOL     OW21424   9.158   6.307   1.253 -0.4911 -0.1528 -0.2044
 3652SOL    HW121425   9.107   6.236   1.204 -0.2517  0.2971 -1.1118
 3652SOL    HW221426   9.186   6.379   1.189  0.1530  0.2553  0.5241
 3653SOL     OW21427   8.821   3.069   0.703  1.0083  0.2284  0.1866
 3653SOL    HW121428   8.782   2.978   0.689  1.3082  0.0468  0.5143
 3653SOL    HW221429   8.836   3.084   0.801  2.7115 -0.1033 -0.0030
 3654SOL     OW21430   8.619   2.406   1.883 -0.1376  0.6471  0.0190
 3654SOL    HW121431   8.630   2.463   1.965 -0.7359  0.1025  0.4796
 3654SOL    HW221432   8.708   2.366   1.858  0.0443  0.8120  0.4023
 3655SOL     OW21433   4.927   8.889   1.042  0.0072  0.0840 -0.0663
 3655SOL    HW121434   4.955   8.909   0.948 -0.2905  0.4425 -0.0835
 3655SOL    HW221435   5.007   8.874   1.099  0.1897 -0.0638 -0.3678
 3656SOL     OW21436   9.965   1.661   0.450 -0.1286  0.2726  0.5783
 3656SOL    HW121437   9.935   1.653   0.545 -0.1238 -1.0139  0.4818
 3656SOL    HW221438   9.887   1.678   0.391 -0.3731 -0.7223  0.6067
 3657SOL     OW21439   7.749   3.330   3.988  0.2679  0.2212  0.7055
 3657SOL    HW121440   7.654   3.361   3.988  0.1566 -0.1001 -0.0015
 3657SOL    HW221441   7.757   3.247   4.043  0.1805  0.3879  0.9650
 3658SOL     OW21442   7.200   8.441   2.394 -0.1410  0.0600 -0.0054
 3658SOL    HW121443   7.217   8.539   2.406  0.9567  0.0164 -1.0311
 3658SOL    HW221444   7.121   8.414   2.447  0.1694  1.2984  1.1139
 3659SOL     OW21445   9.061   8.858   0.483  0.1974 -0.1766 -0.1386
 3659SOL    HW121446   9.035   8.763   0.504  0.5220 -0.1605  0.3575
 3659SOL    HW221447   8.979   8.914   0.476 -0.0553 -0.6942 -1.4364
 3660SOL     OW21448   8.051   7.324   1.932  0.1603 -0.2696 -0.1829
 3660SOL    HW121449   8.131   7.264   1.934  1.1315  1.0088 -0.2624
 3660SOL    HW221450   7.999   7.308   1.848  0.2591 -1.1907 -0.0733
 3661SOL     OW21451   9.750   9.813   2.900  0.6761  0.1001 -0.1976
 3661SOL    HW121452   9.695   9.755   2.961  1.3708  1.2977  1.6145
 3661SOL    HW221453   9.695   9.890   2.869 -0.2489 -1.4799 -2.6174
 3662SOL     OW21454   8.654   7.933   1.439  0.0614  0.6947 -0.8368
 3662SOL    HW121455   8.651   7.834   1.423 -0.3541  0.3517  1.3010
 3662SOL    HW221456   8.722   7.953   1.510 -0.5418  1.8452 -0.5849
 3663SOL     OW21457   3.694   1.936   3.398  0.0648  0.6294 -0.7709
 3663SOL    HW121458   3.680   1.849   3.351 -0.5728 -0.5353  1.5240
 3663SOL    HW221459   3.685   1.923   3.497  1.2077  3.0609 -0.3050
 3664SOL     OW21460   9.370   2.469   3.829 -0.4368 -0.1427  0.4620
 3664SOL    HW121461   9.397   2.528   3.905  2.6211 -0.6017 -0.2151
 3664SOL    HW221462   9.355   2.376   3.862 -1.4180  0.1505  0.8677
 3665SOL     OW21463   2.298   2.213   0.036 -0.0769 -0.1738 -0.1737
 3665SOL    HW121464   2.373   2.245  -0.021 -1.5278  0.2340 -1.9220
 3665SOL    HW221465   2.275   2.283   0.104 -0.0196  0.4454 -0.7870
 3666SOL     OW21466   2.377   1.809   2.135  0.0344 -0.0078  0.4816
 3666SOL    HW121467   2.316   1.755   2.078 -0.7248  0.8061  0.5158
 3666SOL    HW221468   2.434   1.868   2.077  1.3087 -1.2758  0.4038
 3667SOL     OW21469   0.862   4.461   0.714 -0.8203  0.1256  0.3273
 3667SOL    HW121470   0.930   4.393   0.740 -2.3352 -1.0933  1.2150
 3667SOL    HW221471   0.786   4.459   0.779 -1.9604  1.0799 -0.9292
 3668SOL     OW21472   1.361   4.796   0.240  0.6669  0.1869 -0.5452
 3668SOL    HW121473   1.425   4.759   0.173  1.4315  0.0011  0.2860
 3668SOL    HW221474   1.407   4.810   0.327 -0.4246  0.0313  0.0732
 3669SOL     OW21475   2.596   7.629   3.002 -0.1094 -0.3690  0.3741
 3669SOL    HW121476   2.563   7.687   2.927 -1.0549 -0.4836  0.7051
 3669SOL    HW221477   2.606   7.685   3.085 -2.4638 -0.9744  1.0946
 3670SOL     OW21478   4.133   9.826   0.996  0.0316  0.2879 -0.1102
 3670SOL    HW121479   4.034   9.818   0.988  0.0673  1.1198 -1.7260
 3670SOL    HW221480   4.172   9.738   1.022 -1.3247  0.5329  2.9671
 3671SOL     OW21481   1.085   9.464   3.271 -0.2392  0.6694 -0.4393
 3671SOL    HW121482   1.179   9.488   3.298 -1.0755  3.8229 -0.0982
 3671SOL    HW221483   1.042   9.412   3.345  1.5185 -1.6638 -1.0010
 3672SOL     OW21484   2.814   3.186   3.448  0.0920  0.3086  0.1500
 3672SOL    HW121485   2.818   3.087   3.442 -0.8438  0.0872  2.6622
 3672SOL    HW221486   2.776   3.223   3.364  1.8937 -1.3327 -1.4272
 3673SOL     OW21487   3.289   9.150   1.813 -0.0091  0.2469 -0.1982
 3673SOL    HW121488   3.243   9.235   1.839 -0.9027 -0.2468 -0.1545
 3673SOL    HW221489   3.234   9.102   1.745  0.3633 -0.4278 -0.0240
 3674SOL     OW21490   0.945   8.951   1.766  0.4320  0.2223 -0.4092
 3674SOL    HW121491   0.950   8.887   1.843 -0.3926 -0.5607 -0.9967
 3674SOL    HW221492   1.028   8.942   1.710  1.4184  1.3835  0.8317
 3675SOL     OW21493   9.968   8.536   1.548 -0.5617 -0.4199 -0.1228
 3675SOL    HW121494   9.956   8.626   1.589 -1.0032 -0.5435  0.0241
 3675SOL    HW221495   9.910   8.528   1.467  0.4380 -0.1159 -0.8729
 3676SOL     OW21496   0.925   4.083   1.378 -0.0646 -0.1674  0.1667
 3676SOL    HW121497   1.014   4.108   1.340 -1.3224  2.2596 -1.2957
 3676SOL    HW221498   0.897   4.151   1.445 -1.3827 -0.2709 -0.2803
 3677SOL     OW21499   9.335   9.410   2.914  0.0394 -0.0425  0.0236
 3677SOL    HW121500   9.431   9.411   2.943  0.4828  0.8383 -1.4587
 3677SOL    HW221501   9.330   9.402   2.814 -1.4670 -3.6506  0.3088
 3678SOL     OW21502   1.424   0.315   2.981 -0.1025  0.4078 -0.5790
 3678SOL    HW121503   1.497   0.369   2.941  0.0072 -0.6091 -1.7975
 3678SOL    HW221504   1.452   0.282   3.071  0.6518  0.6169 -0.7358
 3679SOL     OW21505   0.982   6.208   0.532  0.2217 -0.4661  0.1266
 3679SOL    HW121506   0.902   6.163   0.491  0.6715 -0.2349 -1.0184
 3679SOL    HW221507   1.001   6.166   0.621 -0.7279 -1.0222  0.0820
 3680SOL     OW21508   9.525   3.959   0.415 -0.8587 -0.6332  0.2518
 3680SOL    HW121509   9.442   4.000   0.453 -1.2479  0.9383 -2.1502
 3680SOL    HW221510   9.500   3.877   0.363 -0.6650 -1.2049  1.0498
 3681SOL     OW21511   3.135   0.462   1.460  0.6683 -0.6237 -0.1820
 3681SOL    HW121512   3.164   0.498   1.549  0.4579 -0.4127 -0.1974
 3681SOL    HW221513   3.120   0.364   1.467  0.0704 -0.5149  0.1727
 3682SOL     OW21514   2.058   4.677   0.445 -0.0518  0.1353 -0.0222
 3682SOL    HW121515   2.137   4.703   0.390  0.6227 -0.7214  0.5307
 3682SOL    HW221516   1.979   4.731   0.417  0.2375 -0.3911 -1.9537
 3683SOL     OW21517   1.969   2.076   1.828 -0.1304 -0.3349 -0.2338
 3683SOL    HW121518   2.039   2.010   1.803  0.1423 -1.1587  2.5388
 3683SOL    HW221519   1.994   2.121   1.914 -2.1388  0.6123 -0.1152
 3684SOL     OW21520   5.186   8.883   2.604  0.4924 -0.0606  0.0108
 3684SOL    HW121521   5.137   8.797   2.622  0.0705  0.2585  0.3834
 3684SOL    HW221522   5.154   8.922   2.519  1.7428 -1.0301 -0.9354
 3685SOL     OW21523   9.458   6.520   0.125 -0.6761 -0.1938 -0.2949
 3685SOL    HW121524   9.448   6.485   0.032 -0.8829  0.1545 -0.4050
 3685SOL    HW221525   9.411   6.459   0.189 -0.5315 -0.4363 -0.4197
 3686SOL     OW21526   3.913   1.493   0.721 -0.4115  0.1306 -0.4777
 3686SOL    HW121527   3.981   1.487   0.794 -0.5595 -2.8785 -0.5463
 3686SOL    HW221528   3.830   1.534   0.758 -0.0084 -0.0542  0.6901
 3687SOL     OW21529   9.242   6.656   2.235 -0.1393 -0.3971 -0.6589
 3687SOL    HW121530   9.214   6.602   2.155 -0.6643 -0.3596 -0.4993
 3687SOL    HW221531   9.219   6.752   2.220 -2.2083 -0.6815  0.4169
 3688SOL     OW21532   1.236   8.633   2.161 -0.0262 -0.7034  0.3868
 3688SOL    HW121533   1.235   8.732   2.148 -1.7880 -0.5562  1.5300
 3688SOL    HW221534   1.310   8.609   2.224 -0.0472 -0.0506  0.6626
 3689SOL     OW21535   4.164   0.440   0.429 -0.4807  0.1516  0.2029
 3689SOL    HW121536   4.125   0.479   0.513  0.3019  1.9898 -0.2753
 3689SOL    HW221537   4.237   0.376   0.453 -1.8482 -1.1616  0.9919
 3690SOL     OW21538   4.381   8.759   0.753 -0.0162  0.2084  0.1118
 3690SOL    HW121539   4.436   8.716   0.825  1.2225 -0.4963 -1.2327
 3690SOL    HW221540   4.375   8.697   0.675 -2.3075  0.4927  0.0263
 3691SOL     OW21541   8.044   6.122   2.436  0.4796 -0.2763 -0.1550
 3691SOL    HW121542   8.074   6.174   2.516 -0.0740  0.1610 -0.2314
 3691SOL    HW221543   8.053   6.179   2.354 -0.3157 -0.2356 -0.2119
 3692SOL     OW21544   0.724   8.929   0.500  0.0015 -0.1357 -0.0384
 3692SOL    HW121545   0.767   8.944   0.589 -1.1717 -0.6728  0.6327
 3692SOL    HW221546   0.771   8.983   0.431  1.0710  0.1092  0.8691
 3693SOL     OW21547   9.961   0.679   1.538  0.1183  0.7573  0.2874
 3693SOL    HW121548   9.941   0.592   1.584 -0.1123  0.7528  0.1792
 3693SOL    HW221549   9.909   0.684   1.453 -1.5480  1.9707  1.3616
 3694SOL     OW21550   1.456   6.170   1.455  0.3407  0.1588  0.2859
 3694SOL    HW121551   1.537   6.189   1.511  0.3440  0.2377  0.2548
 3694SOL    HW221552   1.470   6.208   1.364  1.1566 -1.6603 -0.3768
 3695SOL     OW21553   2.505   4.203   1.914  0.3778  0.3048 -0.1674
 3695SOL    HW121554   2.599   4.205   1.881  0.6388  2.3890  0.6371
 3695SOL    HW221555   2.498   4.255   2.000 -1.1143 -1.4783  0.8394
 3696SOL     OW21556   1.517   2.039   2.611  0.3277 -0.5213  0.2724
 3696SOL    HW121557   1.541   2.013   2.518  1.0123 -0.2648  0.3702
 3696SOL    HW221558   1.488   1.958   2.663  0.9893 -0.8373  0.1471
 3697SOL     OW21559   0.665   3.086   1.257  0.4151  0.3180  0.1473
 3697SOL    HW121560   0.669   3.164   1.319 -0.7783  0.4404  0.0870
 3697SOL    HW221561   0.644   3.003   1.310  1.9318 -0.0231  0.2486
 3698SOL     OW21562   1.798   9.573   2.801 -0.3946 -0.3574  0.1356
 3698SOL    HW121563   1.865   9.602   2.733 -0.2350  1.0565  0.8784
 3698SOL    HW221564   1.842   9.568   2.891 -1.5747  1.9041  0.8727
 3699SOL     OW21565   4.486   1.418   1.458  0.6874  0.0460 -0.0960
 3699SOL    HW121566   4.546   1.498   1.464  1.9081 -0.8562  0.0650
 3699SOL    HW221567   4.516   1.350   1.525  0.3854 -1.0073 -1.0215
 3700SOL     OW21568   8.162   9.408   3.305  0.1240  0.7637 -0.4068
 3700SOL    HW121569   8.064   9.399   3.290 -0.1111  1.2567  0.7212
 3700SOL    HW221570   8.193   9.496   3.270  0.4966 -0.1039 -2.3001
 3701SOL     OW21571   9.911   9.288   1.171  0.3468  0.6684 -0.1713
 3701SOL    HW121572   9.915   9.193   1.140  0.4776 -0.1314  2.2350
 3701SOL    HW221573   9.871   9.345   1.099  0.0957 -1.2317 -1.5628
 3702SOL     OW21574   2.589   4.725   0.157 -0.2905 -0.0670  0.2473
 3702SOL    HW121575   2.621   4.724   0.251 -0.8319  4.0425  0.5505
 3702SOL    HW221576   2.667   4.729   0.095 -0.0124  0.3973  0.6316
 3703SOL     OW21577   9.694   5.917   3.819 -0.2000  0.0100  0.1921
 3703SOL    HW121578   9.721   5.995   3.876  0.2746  1.6904 -2.2785
 3703SOL    HW221579   9.775   5.864   3.795 -0.0410  0.7698 -1.0024
 3704SOL     OW21580   9.776   8.506   1.354 -0.7114  0.2127  0.2062
 3704SOL    HW121581   9.752   8.588   1.303 -1.0847 -0.4029 -0.6277
 3704SOL    HW221582   9.700   8.441   1.350 -0.6794  0.0883  1.4098
 3705SOL     OW21583   1.680   0.522   2.626  0.5483  0.4345  0.5831
 3705SOL    HW121584   1.709   0.428   2.644 -0.5677 -0.4280 -1.8950
 3705SOL    HW221585   1.599   0.543   2.682 -0.1917 -0.6608 -0.0549
 3706SOL     OW21586   3.998   8.286   3.823 -0.2233 -0.1127  0.0065
 3706SOL    HW121587   4.053   8.227   3.882  0.0993  0.5124  0.3249
 3706SOL    HW221588   3.926   8.329   3.877  0.6169  1.1586  0.1306
 3707SOL     OW21589   0.908   5.331   0.266 -0.2025  0.0037  0.6559
 3707SOL    HW121590   0.833   5.289   0.317  0.1965 -0.6072  0.7278
 3707SOL    HW221591   0.994   5.284   0.286 -0.1213 -0.5488 -0.9236
 3708SOL     OW21592   9.703   7.628   1.006  0.3692 -0.1377 -0.4013
 3708SOL    HW121593   9.605   7.619   1.021  0.5436  0.8045  1.4668
 3708SOL    HW221594   9.728   7.725   1.000  1.3284 -0.3374  0.1838
 3709SOL     OW21595   2.156   0.582   1.667  0.1525  0.3312 -0.1289
 3709SOL    HW121596   2.134   0.615   1.759  2.6547 -0.3229  0.7760
 3709SOL    HW221597   2.116   0.491   1.653 -0.4252  0.5303  0.2531
 3710SOL     OW21598   4.807   9.033   2.111 -0.4791 -0.3024  0.4981
 3710SOL    HW121599   4.746   9.032   2.032 -0.6208 -2.0359  0.5904
 3710SOL    HW221600   4.853   9.121   2.118 -1.3056  0.2448 -0.8677
 3711SOL     OW21601   9.902   9.194   3.026  0.4452  0.3302  1.0207
 3711SOL    HW121602   9.868   9.257   3.097 -0.4088 -0.2081  1.0845
 3711SOL    HW221603   9.829   9.133   2.997  0.7078  0.7575 -0.5674
 3712SOL     OW21604   1.381   0.310   0.997 -0.1359 -0.3893 -0.0144
 3712SOL    HW121605   1.469   0.357   0.988 -0.3332 -0.2945 -1.4761
 3712SOL    HW221606   1.392   0.213   0.976 -0.4157 -0.3495 -0.3466
 3713SOL     OW21607   1.658   7.736   3.447 -0.2957 -0.4019 -0.4029
 3713SOL    HW121608   1.634   7.743   3.351  0.3260 -2.2967 -0.7211
 3713SOL    HW221609   1.752   7.766   3.461 -0.4611  0.0987 -0.3289
 3714SOL     OW21610   9.013   4.225   2.779 -0.4619 -0.3908  0.2511
 3714SOL    HW121611   8.925   4.191   2.813 -1.4228  0.1511 -1.5717
 3714SOL    HW221612   8.996   4.301   2.716  1.3694  0.1409  0.3922
 3715SOL     OW21613   9.257   1.153   0.433 -0.2385  0.0686 -0.2679
 3715SOL    HW121614   9.310   1.149   0.349  1.0562  0.7618  0.4970
 3715SOL    HW221615   9.177   1.212   0.420 -0.9492 -1.1298 -1.4823
 3716SOL     OW21616   1.665   9.767   0.032  0.0913 -0.0097 -0.1539
 3716SOL    HW121617   1.675   9.866   0.046  0.8570 -0.1141  0.0372
 3716SOL    HW221618   1.625   9.726   0.114  1.0094 -0.0479  0.2875
 3717SOL     OW21619   8.780   1.965   3.625 -0.6586  0.0857  0.5537
 3717SOL    HW121620   8.850   1.932   3.563 -1.9997 -2.5780  0.3821
 3717SOL    HW221621   8.818   2.036   3.685  1.5656  0.1584 -0.9208
 3718SOL     OW21622   8.493   5.244   1.504 -0.1134 -0.3536  0.6210
 3718SOL    HW121623   8.469   5.339   1.525 -0.2597 -0.7283  2.2612
 3718SOL    HW221624   8.410   5.191   1.487 -0.0357 -0.2113 -0.2324
 3719SOL     OW21625   9.479   7.100   1.369  0.0834 -0.2283 -0.7246
 3719SOL    HW121626   9.401   7.075   1.313  0.1956  0.1745 -1.0622
 3719SOL    HW221627   9.505   7.194   1.350  0.4987 -0.2828 -0.4329
 3720SOL     OW21628   4.108   3.285   1.185  0.5982 -0.0460  0.1446
 3720SOL    HW121629   4.046   3.291   1.107  1.3078 -0.0585 -0.4268
 3720SOL    HW221630   4.150   3.195   1.189 -0.1105 -0.3427  1.0692
 3721SOL     OW21631   8.183   0.584   2.545  0.2080  0.4285  0.6006
 3721SOL    HW121632   8.203   0.567   2.642  0.0545  0.7003  0.6805
 3721SOL    HW221633   8.255   0.643   2.507 -0.4073  1.3734  0.8779
 3722SOL     OW21634   2.835   9.517   2.733  0.1305 -0.1056  0.0714
 3722SOL    HW121635   2.745   9.543   2.697  0.0426  0.5375  0.7407
 3722SOL    HW221636   2.823   9.448   2.804  0.2805 -1.1296 -0.8843
 3723SOL     OW21637   3.674   7.321   1.758  0.3967 -0.1361  0.2381
 3723SOL    HW121638   3.655   7.406   1.807  0.4583 -0.9043  1.6088
 3723SOL    HW221639   3.627   7.245   1.803  1.3429 -1.0288 -0.2514
 3724SOL     OW21640   8.753   1.105   3.178  0.1377  0.1083 -0.7157
 3724SOL    HW121641   8.695   1.063   3.248  1.0296 -0.1220 -0.1004
 3724SOL    HW221642   8.835   1.142   3.221  0.6120  0.1233 -1.6209
 3725SOL     OW21643   0.732   9.166   2.261 -0.0949  0.1979  0.4296
 3725SOL    HW121644   0.646   9.114   2.258 -0.0468  0.0451  1.6960
 3725SOL    HW221645   0.728   9.240   2.194 -0.1482 -1.4456 -1.4312
 3726SOL     OW21646   6.507   6.790   2.144  0.1106 -0.4823 -0.0930
 3726SOL    HW121647   6.503   6.750   2.236  1.2059 -0.5149 -0.0435
 3726SOL    HW221648   6.436   6.749   2.087 -1.9141  1.0181  1.2885
 3727SOL     OW21649   9.127   8.980   1.784 -0.2359 -0.1969  0.1762
 3727SOL    HW121650   9.094   9.062   1.737 -2.7457 -0.9273  0.5850
 3727SOL    HW221651   9.112   8.989   1.882 -1.3956 -1.4989  0.1399
 3728SOL     OW21652   9.383   9.591   1.041 -0.1277  0.3165  0.0455
 3728SOL    HW121653   9.371   9.654   0.964  0.5823 -0.0510 -0.3747
 3728SOL    HW221654   9.467   9.614   1.090  0.9008 -1.1887 -0.9803
 3729SOL     OW21655   8.137   2.281   0.153  0.1311 -0.1812 -0.0886
 3729SOL    HW121656   8.081   2.299   0.073  0.0752 -0.5748 -0.1392
 3729SOL    HW221657   8.083   2.233   0.222  0.6518 -1.3993 -0.5068
 3730SOL     OW21658   8.652   9.248   0.210  0.2803  0.1280  0.0015
 3730SOL    HW121659   8.584   9.279   0.144 -1.1675  0.3309  1.5554
 3730SOL    HW221660   8.655   9.312   0.287  1.0392 -0.7866  0.7380
 3731SOL     OW21661   5.537   9.126   2.069  0.2658  0.7606  0.3807
 3731SOL    HW121662   5.489   9.078   1.996  0.2809  0.8301  0.3249
 3731SOL    HW221663   5.563   9.217   2.037  1.6445  0.2204 -0.0599
 3732SOL     OW21664   1.720   9.744   2.471 -0.4126  0.3895 -0.7213
 3732SOL    HW121665   1.768   9.831   2.486  2.4542 -1.0815 -1.0674
 3732SOL    HW221666   1.778   9.683   2.416 -3.1835 -1.0438 -2.1428
 3733SOL     OW21667   1.830   9.769   3.485  0.2476  0.0024 -0.1348
 3733SOL    HW121668   1.904   9.825   3.520 -1.3171  1.0837  1.5352
 3733SOL    HW221669   1.822   9.685   3.539 -0.2738  0.2924  0.2499
 3734SOL     OW21670   8.723   7.110   0.470  0.1299 -0.2098 -0.3157
 3734SOL    HW121671   8.794   7.084   0.536  1.4430  1.1343 -1.1670
 3734SOL    HW221672   8.696   7.205   0.487 -1.3891 -0.6674 -0.0901
 3735SOL     OW21673   1.386   0.107   1.956  0.7425  0.2930  0.0393
 3735SOL    HW121674   1.462   0.140   1.900  0.9812  0.0696  0.2290
 3735SOL    HW221675   1.300   0.142   1.920  0.9012  0.2133 -0.4198
 3736SOL     OW21676   9.643   5.269   0.933  0.4681 -0.2001 -0.2703
 3736SOL    HW121677   9.571   5.336   0.916  0.0021 -1.1303 -2.1756
 3736SOL    HW221678   9.604   5.177   0.927  1.5829 -0.6906 -0.0856
 3737SOL     OW21679   2.372   4.989   0.685  0.4903 -0.2231 -0.4740
 3737SOL    HW121680   2.378   5.055   0.611  0.4994 -0.7162 -0.9171
 3737SOL    HW221681   2.332   5.033   0.766  1.4096  0.5840 -0.4504
 3738SOL     OW21682   3.962   1.935   2.787  0.3796 -0.1494  0.6625
 3738SOL    HW121683   3.929   1.869   2.719 -1.3601 -0.7829  2.0906
 3738SOL    HW221684   4.033   1.992   2.746  0.9062 -1.9668 -1.0160
 3739SOL     OW21685   0.843   5.714   1.271  0.1056 -0.0716  0.1097
 3739SOL    HW121686   0.893   5.628   1.266  0.9130  0.4942 -2.4488
 3739SOL    HW221687   0.751   5.702   1.235 -0.3257 -0.2082  1.2271
 3740SOL     OW21688   3.486   5.448   2.823  0.4523 -0.4882  0.4375
 3740SOL    HW121689   3.557   5.444   2.754 -0.0086 -2.1977  0.0463
 3740SOL    HW221690   3.495   5.533   2.876  1.2087  0.5026 -1.2619
 3741SOL     OW21691   6.077   8.066   2.834  0.4646 -0.1016 -0.2129
 3741SOL    HW121692   6.006   8.136   2.821  0.8097  0.3951  0.4937
 3741SOL    HW221693   6.163   8.097   2.793  1.0069  0.5535  1.3824
 3742SOL     OW21694   1.505   6.249   2.181 -0.1192  0.3982  1.0643
 3742SOL    HW121695   1.507   6.284   2.274 -0.7315  0.5656  1.0177
 3742SOL    HW221696   1.411   6.226   2.156  0.3910 -2.2983  1.4627
 3743SOL     OW21697   1.162   4.868   0.932 -0.4483 -0.7396  0.0470
 3743SOL    HW121698   1.253   4.885   0.894 -0.9028  1.3912 -0.1946
 3743SOL    HW221699   1.165   4.879   1.032 -0.8133  1.2942 -0.1410
 3744SOL     OW21700   9.535   7.291   2.550 -0.2754  0.3330 -0.7797
 3744SOL    HW121701   9.457   7.326   2.499 -1.4634 -0.6540  0.3364
 3744SOL    HW221702   9.620   7.330   2.512 -1.0899 -0.5519 -3.6073
 3745SOL     OW21703   8.576   9.642   3.444  0.0088 -0.0833 -0.1085
 3745SOL    HW121704   8.612   9.551   3.466  0.2246  0.1022  0.2885
 3745SOL    HW221705   8.652   9.705   3.429 -0.1029  0.9021  3.0876
 3746SOL     OW21706   5.260   8.046   2.352  0.2177 -0.5382 -0.2815
 3746SOL    HW121707   5.357   8.054   2.331  0.6692 -1.1213  1.4809
 3746SOL    HW221708   5.240   8.093   2.438 -0.8144 -1.5028  0.0228
 3747SOL     OW21709   6.768   7.930   1.995 -0.1663 -0.0068 -0.3574
 3747SOL    HW121710   6.741   7.900   1.903  0.4690 -1.5832 -0.0420
 3747SOL    HW221711   6.854   7.887   2.020  0.3088  1.4005  0.4960
 3748SOL     OW21712   0.576   0.221   3.320 -1.0552 -0.1724 -0.2692
 3748SOL    HW121713   0.658   0.251   3.369  0.5691 -1.4372 -2.1624
 3748SOL    HW221714   0.535   0.142   3.367  1.3386 -2.3224 -1.6843
 3749SOL     OW21715   9.066   2.488   2.029 -0.4788  0.3641  0.4350
 3749SOL    HW121716   8.975   2.519   2.001 -1.4785 -0.8664  2.2200
 3749SOL    HW221717   9.117   2.564   2.067 -0.5249  1.1934 -1.1229
 3750SOL     OW21718   3.557   5.625   3.500  0.2601 -0.3748  0.6444
 3750SOL    HW121719   3.577   5.637   3.597 -1.4697  0.7595  0.8769
 3750SOL    HW221720   3.572   5.529   3.474  1.9056 -0.4302  1.7307
 3751SOL     OW21721   2.076   6.500   2.135 -0.1598 -0.3153 -0.1186
 3751SOL    HW121722   2.135   6.557   2.192  0.1748 -0.1009 -0.6717
 3751SOL    HW221723   2.042   6.554   2.059 -0.1587 -0.7461 -0.4284
 3752SOL     OW21724   3.286   6.873   3.542 -0.4632 -0.4000 -0.0294
 3752SOL    HW121725   3.366   6.885   3.483 -0.7997 -2.1207 -0.8629
 3752SOL    HW221726   3.265   6.775   3.551 -0.5277 -0.1662  2.7971
 3753SOL     OW21727   7.946   0.885   3.496 -0.4248  0.0520  0.2468
 3753SOL    HW121728   7.965   0.860   3.590  0.8340 -0.1749 -0.0563
 3753SOL    HW221729   7.938   0.985   3.489 -0.8384  0.0440  0.6526
 3754SOL     OW21730   0.805   6.232   3.489  0.4985  0.0806 -0.3457
 3754SOL    HW121731   0.845   6.168   3.424  0.9869  0.8600 -0.8206
 3754SOL    HW221732   0.846   6.323   3.477 -2.9527  1.4599 -2.4086
 3755SOL     OW21733   7.604   8.762   3.322  0.5228  0.4200 -0.0942
 3755SOL    HW121734   7.607   8.662   3.326  1.3141  0.4385 -0.0861
 3755SOL    HW221735   7.538   8.790   3.253  0.2317 -0.1087 -0.0363
 3756SOL     OW21736   2.239   4.619   3.544 -0.1893 -0.9827  0.3299
 3756SOL    HW121737   2.202   4.664   3.626 -0.5488 -2.2085  0.8500
 3756SOL    HW221738   2.273   4.529   3.568  0.2308 -1.1262 -0.7719
 3757SOL     OW21739   1.673   7.958   0.915  0.5793 -0.2935  0.0736
 3757SOL    HW121740   1.638   7.980   0.824 -0.0272  0.3548  0.4577
 3757SOL    HW221741   1.715   7.867   0.914  1.0523 -0.0638 -0.9750
 3758SOL     OW21742   1.867   4.098   2.017  0.2149  0.4818  0.1914
 3758SOL    HW121743   1.838   4.077   1.923  0.7239 -1.3680  0.4208
 3758SOL    HW221744   1.934   4.172   2.015  0.8055 -0.0667 -0.9810
 3759SOL     OW21745   8.617   1.513   1.579 -0.8308  0.2946 -0.1995
 3759SOL    HW121746   8.517   1.514   1.578 -0.8730 -0.6846  1.9046
 3759SOL    HW221747   8.651   1.574   1.650  0.0612 -0.0194 -0.3415
 3760SOL     OW21748   5.385   9.572   2.459 -0.4145 -0.6167  0.5291
 3760SOL    HW121749   5.314   9.502   2.457  0.6702 -1.7964  2.2325
 3760SOL    HW221750   5.475   9.529   2.457  0.2718  0.7848  0.2552
 3761SOL     OW21751   0.611   0.823   3.937  0.0653 -0.1166 -0.8595
 3761SOL    HW121752   0.514   0.820   3.961  0.3083  1.4038  0.3650
 3761SOL    HW221753   0.629   0.902   3.879  0.6909 -0.0687 -0.5988
 3762SOL     OW21754   7.826   3.571   3.441 -0.4563  0.4245  0.1454
 3762SOL    HW121755   7.877   3.487   3.458 -0.4685  0.6292  1.3059
 3762SOL    HW221756   7.729   3.550   3.430 -0.1651  0.0537 -1.8879
 3763SOL     OW21757   4.441   7.548   2.708  0.0963  0.1482 -0.0539
 3763SOL    HW121758   4.412   7.524   2.615 -1.8011  1.5706  0.1320
 3763SOL    HW221759   4.390   7.493   2.774  0.6651 -0.1166  0.1590
 3764SOL     OW21760   0.731   8.590   2.049 -0.2410  0.3713 -0.1167
 3764SOL    HW121761   0.721   8.620   2.143  1.6634  0.4310  0.0917
 3764SOL    HW221762   0.822   8.616   2.015 -0.8303  0.1988 -1.9083
 3765SOL     OW21763   1.034   2.065   1.056 -0.0432  0.8225  0.2373
 3765SOL    HW121764   1.066   2.047   1.149 -0.5977 -0.4191  0.2040
 3765SOL    HW221765   1.044   1.982   1.001 -0.9548  1.1585 -0.4515
 3766SOL     OW21766   8.510   3.568   0.482 -0.1550  0.0731 -0.2476
 3766SOL    HW121767   8.543   3.656   0.515 -1.7148  0.4603  0.3015
 3766SOL    HW221768   8.442   3.531   0.545 -0.9640 -0.5878 -1.4769
 3767SOL     OW21769   5.480   9.527   3.168  0.0023 -0.1605  0.6190
 3767SOL    HW121770   5.499   9.444   3.222  0.7110  0.9582  2.1177
 3767SOL    HW221771   5.395   9.515   3.118 -1.0544 -0.9701  2.5371
 3768SOL     OW21772   4.713   4.282   0.930 -0.2571  0.5034  0.2135
 3768SOL    HW121773   4.697   4.278   0.831  0.2473  0.6061  0.1253
 3768SOL    HW221774   4.805   4.251   0.950 -0.3814  0.4206  0.6630
 3769SOL     OW21775   3.073   7.661   3.095 -0.0198  0.3508  0.6232
 3769SOL    HW121776   3.056   7.739   3.155  1.1888  0.1539  1.2301
 3769SOL    HW221777   3.035   7.680   3.005 -0.6080  1.2298  1.0475
 3770SOL     OW21778   0.814   9.252   3.891 -0.4745  0.4435  0.2344
 3770SOL    HW121779   0.731   9.283   3.938  0.2148 -0.9420  2.4232
 3770SOL    HW221780   0.803   9.156   3.864  0.4045  0.2461  0.5553
 3771SOL     OW21781   1.040   4.348   3.781  0.0485  0.2301 -0.4178
 3771SOL    HW121782   1.132   4.380   3.802 -0.0865  0.8310 -0.7503
 3771SOL    HW221783   1.036   4.248   3.792  0.4236  0.3385  0.7630
 3772SOL     OW21784   1.876   1.686   3.559 -0.1652  0.2693 -0.3434
 3772SOL    HW121785   1.953   1.725   3.610 -0.2141  0.3120 -0.3021
 3772SOL    HW221786   1.910   1.637   3.479 -0.0872  0.1882 -0.2600
 3773SOL     OW21787   8.586   4.709   0.266 -0.0022 -0.1058  0.0368
 3773SOL    HW121788   8.551   4.803   0.262  1.0552  0.2547 -0.7605
 3773SOL    HW221789   8.573   4.664   0.178 -1.2156 -0.9762  0.6446
 3774SOL     OW21790   8.452   1.294   1.239  0.2746  0.1880  0.5007
 3774SOL    HW121791   8.384   1.361   1.209 -1.6657 -1.7445  0.4566
 3774SOL    HW221792   8.444   1.280   1.338  1.3944  0.8039  0.6814
 3775SOL     OW21793   8.363   1.472   1.594 -0.2048 -0.4916 -0.2615
 3775SOL    HW121794   8.286   1.409   1.595  0.3844 -1.2151  1.7065
 3775SOL    HW221795   8.342   1.551   1.652 -0.3935  0.4489 -1.6037
 3776SOL     OW21796   6.693   9.649   2.782  0.6323  0.1497  0.4348
 3776SOL    HW121797   6.691   9.554   2.813 -1.6597  0.3724  1.0476
 3776SOL    HW221798   6.680   9.711   2.860 -1.2454  0.8440 -0.4036
 3777SOL     OW21799   3.340   4.637   0.416 -0.5019  0.7034 -0.7666
 3777SOL    HW121800   3.288   4.633   0.501 -0.9541  1.0390 -1.0218
 3777SOL    HW221801   3.353   4.733   0.390  1.2047  0.6617 -0.1314
 3778SOL     OW21802   0.134   5.422   3.323  0.3729 -0.5198 -0.1661
 3778SOL    HW121803   0.123   5.392   3.227  0.6120 -1.7512  0.1798
 3778SOL    HW221804   0.073   5.499   3.340 -1.0399 -1.4576 -0.8222
 3779SOL     OW21805   8.133   7.182   1.438  0.0378  0.5260 -0.0831
 3779SOL    HW121806   8.123   7.085   1.412 -0.6963  0.4791  0.3467
 3779SOL    HW221807   8.202   7.225   1.380  1.7716 -0.7345  0.9784
 3780SOL     OW21808   8.667   5.752   1.623 -0.3865  0.2981 -0.2179
 3780SOL    HW121809   8.675   5.758   1.524 -1.2523 -0.4861 -0.3441
 3780SOL    HW221810   8.719   5.826   1.666  0.1913  0.4860 -1.2439
 3781SOL     OW21811   1.167   5.033   0.556  0.2341  0.2449 -0.7719
 3781SOL    HW121812   1.201   5.004   0.646  0.3846  0.1596 -0.8558
 3781SOL    HW221813   1.088   4.976   0.531  1.2426 -0.8832 -1.4508
 3782SOL     OW21814   8.716   9.226   2.666 -0.7702  0.1420  0.4192
 3782SOL    HW121815   8.658   9.306   2.683 -1.1708  0.2222 -1.2076
 3782SOL    HW221816   8.671   9.144   2.699  0.0753  0.6800  3.0020
 3783SOL     OW21817   2.340   6.131   1.048  0.3051  0.3061 -0.1043
 3783SOL    HW121818   2.273   6.140   1.122  1.6310  0.0704  1.1509
 3783SOL    HW221819   2.422   6.184   1.071  0.2027  1.3920 -2.0652
 3784SOL     OW21820   7.939   7.904   3.766 -0.3762 -0.3093  0.0401
 3784SOL    HW121821   7.947   7.983   3.827 -0.9133 -0.8401  0.7943
 3784SOL    HW221822   7.905   7.935   3.677  0.3914  0.4584  0.0004
 3785SOL     OW21823   9.739   5.230   3.001 -0.1503  0.4674  0.2093
 3785SOL    HW121824   9.809   5.199   3.065  0.5685  1.2501 -0.1928
 3785SOL    HW221825   9.652   5.239   3.050  0.3756  1.0115  1.0681
 3786SOL     OW21826   0.641   6.057   1.936  0.1994 -0.1393 -0.1292
 3786SOL    HW121827   0.723   6.014   1.973 -0.2913 -0.7894  0.2157
 3786SOL    HW221828   0.617   6.137   1.991  0.8951  0.3548 -0.5432
 3787SOL     OW21829   8.450   8.716   0.013  0.2467  0.5366  0.1174
 3787SOL    HW121830   8.408   8.653   0.079 -0.4148  0.3679 -0.4692
 3787SOL    HW221831   8.488   8.664  -0.063  0.3021  0.7963 -0.0325
 3788SOL     OW21832   0.585   1.308   2.902  0.6716 -0.7633 -0.6011
 3788SOL    HW121833   0.541   1.219   2.904 -0.8377 -0.1066 -2.8291
 3788SOL    HW221834   0.634   1.320   2.816  1.5931  0.2168  0.0397
 3789SOL     OW21835   2.214   8.842   0.318 -0.2544 -0.1165 -0.3093
 3789SOL    HW121836   2.309   8.870   0.328 -0.4930  0.8376 -0.7120
 3789SOL    HW221837   2.210   8.744   0.297  0.5933 -0.3645  0.6371
 3790SOL     OW21838   9.481   4.913   3.659  0.6096  0.3790  0.6915
 3790SOL    HW121839   9.468   4.817   3.683  1.1287  0.6008  1.9263
 3790SOL    HW221840   9.559   4.922   3.597 -0.5154 -0.1708 -0.8126
 3791SOL     OW21841   9.706   5.717   1.044  0.2260  0.1216  0.3713
 3791SOL    HW121842   9.726   5.800   1.097 -3.8142  1.0051  0.6569
 3791SOL    HW221843   9.697   5.742   0.947 -1.3461  0.1065  0.5059
 3792SOL     OW21844   2.266   6.456   3.108  0.1505  0.4472  0.0660
 3792SOL    HW121845   2.252   6.428   3.203 -1.1767  1.7402  0.2705
 3792SOL    HW221846   2.361   6.484   3.095  0.0956  1.2577  1.2921
 3793SOL     OW21847   9.375   6.613   3.067  0.0604  0.1874 -0.1982
 3793SOL    HW121848   9.337   6.675   2.999 -0.4256  0.5165  0.3686
 3793SOL    HW221849   9.302   6.580   3.127  0.8337  1.8724  1.7405
 3794SOL     OW21850   0.786   3.374   3.896 -0.7848  0.0808  0.2040
 3794SOL    HW121851   0.784   3.463   3.941 -0.7390  0.3041 -0.2311
 3794SOL    HW221852   0.824   3.306   3.958 -1.6758  0.1791  0.8633
 3795SOL     OW21853   0.860   1.807   3.119 -0.1394 -0.2250  0.4179
 3795SOL    HW121854   0.810   1.888   3.087  0.0514  0.3547  1.5332
 3795SOL    HW221855   0.921   1.775   3.047 -2.1119 -0.9649 -0.9787
 3796SOL     OW21856   4.502   9.179   0.646 -0.2978  0.2182  0.2912
 3796SOL    HW121857   4.534   9.199   0.739  0.1951  0.2882  0.1092
 3796SOL    HW221858   4.404   9.160   0.648 -0.4251  0.9036  0.7268
 3797SOL     OW21859   8.919   8.629   3.584  0.0580  0.1644 -0.9287
 3797SOL    HW121860   8.970   8.550   3.549  2.7242  1.1141  0.5827
 3797SOL    HW221861   8.961   8.714   3.551 -1.3869  0.9902 -0.7071
 3798SOL     OW21862   2.490   4.836   3.673  0.2340 -0.2410  0.2385
 3798SOL    HW121863   2.546   4.914   3.701  1.8634 -1.5788  0.8336
 3798SOL    HW221864   2.395   4.851   3.699  0.7832  0.9300  1.5883
 3799SOL     OW21865   1.330   1.358   1.977  0.0258  0.0612  0.2323
 3799SOL    HW121866   1.289   1.394   2.061  0.5162 -1.5597  1.1866
 3799SOL    HW221867   1.321   1.259   1.976 -0.4175  0.1008 -1.8837
 3800SOL     OW21868   2.186   5.565   4.048  0.6069  0.1200  0.7773
 3800SOL    HW121869   2.216   5.470   4.037 -1.3780 -0.5535  0.9344
 3800SOL    HW221870   2.187   5.589   4.145 -0.4871 -0.3063  0.9047
 3801SOL     OW21871   9.711   1.756   1.115 -0.1081  0.2118  0.5306
 3801SOL    HW121872   9.700   1.854   1.100  0.0725  0.0266 -0.8400
 3801SOL    HW221873   9.794   1.724   1.069 -1.5502 -1.0614 -1.2760
 3802SOL     OW21874   8.622   5.251   2.540  0.0048 -0.2477 -0.2496
 3802SOL    HW121875   8.661   5.237   2.449  0.1871 -0.4473 -0.1401
 3802SOL    HW221876   8.689   5.297   2.599 -0.4043  0.6246 -0.4579
 3803SOL     OW21877   8.081   9.169   0.577 -0.0271  0.5138  0.4043
 3803SOL    HW121878   8.071   9.071   0.560  0.0648  0.5771 -0.0444
 3803SOL    HW221879   8.065   9.189   0.674  1.1612 -0.1107  0.7359
 3804SOL     OW21880   2.108   5.150   0.318 -0.5623  0.2891 -0.0452
 3804SOL    HW121881   2.078   5.205   0.240  0.5749  1.5350  0.3896
 3804SOL    HW221882   2.180   5.088   0.289 -0.8825 -0.0087 -0.2165
 3805SOL     OW21883   0.275   6.769   2.960 -0.7207  0.3368 -0.1565
 3805SOL    HW121884   0.361   6.819   2.972 -0.5515  0.1533 -0.5849
 3805SOL    HW221885   0.199   6.835   2.958 -0.5925  0.4978  0.2289
 3806SOL     OW21886   7.582   3.202   0.257  0.3144  0.7508  0.2143
 3806SOL    HW121887   7.634   3.278   0.295 -0.2463  1.2688 -0.0502
 3806SOL    HW221888   7.626   3.170   0.173 -0.1155  1.5596 -0.3164
 3807SOL     OW21889   9.541   8.247   3.347 -0.1753 -0.3979 -0.1360
 3807SOL    HW121890   9.563   8.235   3.250 -0.1481  1.0625 -0.3114
 3807SOL    HW221891   9.624   8.262   3.399 -0.3034  0.1682 -0.0882
 3808SOL     OW21892   7.891   0.895   2.449  0.3240 -0.5248  0.7427
 3808SOL    HW121893   7.949   0.922   2.526 -0.2967 -1.7339  1.6432
 3808SOL    HW221894   7.799   0.877   2.481 -0.6238  1.5054 -0.7101
 3809SOL     OW21895   1.252   9.317   2.501 -0.5094 -0.6844  0.3134
 3809SOL    HW121896   1.292   9.318   2.592  1.1118  2.5131 -0.3514
 3809SOL    HW221897   1.177   9.384   2.497 -1.3126 -1.6108 -0.3893
 3810SOL     OW21898   0.915   3.049   3.949 -0.1135  0.0363 -0.0143
 3810SOL    HW121899   0.930   2.964   3.897 -1.0050 -0.6750  0.8907
 3810SOL    HW221900   0.820   3.054   3.978  0.8947 -0.7735  3.6576
 3811SOL     OW21901   3.483   9.858   1.775 -0.3430 -0.2744 -0.7018
 3811SOL    HW121902   3.399   9.832   1.729  0.3211 -2.4964 -0.7155
 3811SOL    HW221903   3.560   9.808   1.735  0.8398  0.9614 -0.0116
 3812SOL     OW21904   1.270   6.787   4.034  0.1277  0.5914 -0.4861
 3812SOL    HW121905   1.295   6.803   3.938 -0.1262  3.6487 -0.0905
 3812SOL    HW221906   1.178   6.822   4.051 -0.6639 -1.8532  0.3959
 3813SOL     OW21907   0.510   8.492   1.067  0.7513 -0.4940  0.0336
 3813SOL    HW121908   0.452   8.411   1.062 -1.7758  1.3142 -1.1884
 3813SOL    HW221909   0.507   8.530   1.159 -1.0282  0.2783 -0.3263
 3814SOL     OW21910   0.715   8.240   2.035 -0.4835 -0.0536  0.1066
 3814SOL    HW121911   0.656   8.316   2.006  1.0704  2.0217  2.2290
 3814SOL    HW221912   0.794   8.233   1.973  0.4117  1.3611  1.0835
 3815SOL     OW21913   9.366   7.637   0.428 -0.2492  0.3309 -0.5025
 3815SOL    HW121914   9.463   7.650   0.406  0.0148 -1.7277 -0.6528
 3815SOL    HW221915   9.358   7.606   0.523 -0.7599  0.3905 -0.5265
 3816SOL     OW21916   1.057   9.373   1.472  0.2449  0.4855  0.1422
 3816SOL    HW121917   1.063   9.319   1.388 -0.6190  0.6076 -0.0044
 3816SOL    HW221918   1.035   9.312   1.548  1.1175  0.3608  0.3042
 3817SOL     OW21919   9.511   5.771   1.478 -0.4633  0.0975  0.1642
 3817SOL    HW121920   9.415   5.796   1.482 -0.6026 -0.4774  0.4177
 3817SOL    HW221921   9.529   5.716   1.397 -0.5949 -0.8212  0.7487
 3818SOL     OW21922   2.441   7.076   3.187 -0.3510  0.1197  0.1474
 3818SOL    HW121923   2.443   6.996   3.247  1.5420 -2.1271 -2.8037
 3818SOL    HW221924   2.357   7.074   3.132  0.0538 -0.2250 -0.4543
 3819SOL     OW21925   9.579   0.073   2.820 -0.0678 -0.0060  0.3225
 3819SOL    HW121926   9.605   0.094   2.726  1.9850 -1.0913  0.6235
 3819SOL    HW221927   9.480   0.081   2.830 -0.2873  0.2395 -1.8886
 3820SOL     OW21928   8.604   9.810   3.682 -0.4348  0.4748  0.2929
 3820SOL    HW121929   8.652   9.811   3.594 -0.4793 -0.3094  0.2600
 3820SOL    HW221930   8.628   9.727   3.732 -1.1663  0.4524  0.6086
 3821SOL     OW21931   8.440   9.929   3.126  0.2674 -0.4106  0.7228
 3821SOL    HW121932   8.378   9.878   3.067  0.2535 -0.2032  0.5603
 3821SOL    HW221933   8.441   9.887   3.217  1.7034 -1.8683  0.0765
 3822SOL     OW21934   0.461   6.058   3.881 -0.4635 -0.0421 -0.5335
 3822SOL    HW121935   0.485   6.039   3.976 -2.0507  0.1767 -0.0658
 3822SOL    HW221936   0.534   6.112   3.838  0.4952 -0.5827  0.4040
 3823SOL     OW21937   1.347   8.106   1.470  0.4953  0.4331 -0.4293
 3823SOL    HW121938   1.343   8.010   1.444 -0.0267  0.4370 -0.3607
 3823SOL    HW221939   1.264   8.131   1.520  1.1986  0.6027  0.6523
 3824SOL     OW21940   8.113   6.591   1.673  0.1588  0.2995 -0.1079
 3824SOL    HW121941   8.168   6.608   1.755 -1.1229  1.6327  0.4826
 3824SOL    HW221942   8.089   6.494   1.669 -0.2162  0.3284  1.3672
 3825SOL     OW21943   4.571   7.689   2.906  0.2078 -0.3739  0.5012
 3825SOL    HW121944   4.532   7.666   2.817 -0.7251  2.5324  0.1254
 3825SOL    HW221945   4.543   7.621   2.974 -0.9133 -1.3693 -0.9477
 3826SOL     OW21946   1.493   6.967   2.506  0.3646 -0.2346 -0.2378
 3826SOL    HW121947   1.487   7.020   2.421 -2.4844 -1.0926 -0.6377
 3826SOL    HW221948   1.510   6.871   2.484  1.6290 -0.1396  0.2852
 3827SOL     OW21949   3.346   3.972   1.154 -0.1531  0.2949  0.3880
 3827SOL    HW121950   3.393   3.891   1.191 -0.1856  0.9981  2.0255
 3827SOL    HW221951   3.406   4.017   1.088  0.0479 -0.8116 -0.1951
 3828SOL     OW21952   2.160   1.763   3.377  0.0273 -0.2327 -0.8431
 3828SOL    HW121953   2.161   1.666   3.402 -1.1941 -1.1135 -3.9142
 3828SOL    HW221954   2.159   1.819   3.459 -0.0661 -2.8387  0.9912
 3829SOL     OW21955   1.898   6.922   1.720  0.0004  0.1346  0.1388
 3829SOL    HW121956   1.986   6.931   1.674  0.3201 -0.4885  0.6145
 3829SOL    HW221957   1.855   6.836   1.695 -0.1747  0.1400  0.4122
 3830SOL     OW21958   9.245   7.888   2.523 -0.8758 -0.2275  0.1027
 3830SOL    HW121959   9.300   7.821   2.573 -0.2995 -0.2939 -0.6116
 3830SOL    HW221960   9.305   7.956   2.482 -1.4543  0.7113  0.7755
 3831SOL     OW21961   0.288   4.535   1.594  0.3683  0.3837  0.2552
 3831SOL    HW121962   0.215   4.516   1.528  1.2073  1.1252 -0.9015
 3831SOL    HW221963   0.272   4.482   1.677 -0.4511 -0.9449 -0.7292
 3832SOL     OW21964   0.237   1.057   1.884  0.5471  0.0706 -0.1196
 3832SOL    HW121965   0.283   0.977   1.845 -2.6490 -1.3612 -1.0736
 3832SOL    HW221966   0.248   1.056   1.983  0.4955 -1.5829 -0.1203
 3833SOL     OW21967   4.192   8.664   2.681  0.6118 -0.3776 -0.0824
 3833SOL    HW121968   4.177   8.646   2.778  1.2695 -0.3978  0.0200
 3833SOL    HW221969   4.254   8.595   2.644 -0.2319 -0.8070 -0.6913
 3834SOL     OW21970   1.031   4.526   2.121  0.2804 -0.3127 -0.1540
 3834SOL    HW121971   1.070   4.608   2.079  1.8024 -1.3196 -0.7435
 3834SOL    HW221972   1.083   4.446   2.092 -1.0975 -1.4746  0.5420
 3835SOL     OW21973   5.259   6.451   2.067 -0.1354 -0.4542  0.3877
 3835SOL    HW121974   5.334   6.508   2.102 -0.2319 -0.8752  1.2925
 3835SOL    HW221975   5.206   6.503   2.000  0.6251  0.0406  0.1639
 3836SOL     OW21976   1.833   1.192   1.272 -0.6487  0.0194 -0.1640
 3836SOL    HW121977   1.769   1.118   1.253 -0.6269  0.6508 -2.8855
 3836SOL    HW221978   1.783   1.279   1.277 -0.4946  0.0298  1.6912
 3837SOL     OW21979   3.979   0.640   3.045  0.3810  0.1546 -0.1460
 3837SOL    HW121980   4.043   0.566   3.027  1.4589  1.5618 -2.3867
 3837SOL    HW221981   3.895   0.626   2.993  0.6907  0.5972 -0.7848
 3838SOL     OW21982   9.027   3.891   2.119  0.2141 -0.5256  0.7981
 3838SOL    HW121983   9.067   3.948   2.191 -1.5762  2.1074 -0.1965
 3838SOL    HW221984   8.928   3.905   2.116 -0.0363 -2.3101 -0.7100
 3839SOL     OW21985   0.947   4.822   0.599  0.3119 -0.1405 -0.3941
 3839SOL    HW121986   0.851   4.802   0.580  0.1467 -0.7740  1.0662
 3839SOL    HW221987   0.955   4.862   0.690  1.5419 -1.1153 -0.0609
 3840SOL     OW21988   8.110   3.727   0.278  0.6510  0.2331  0.4859
 3840SOL    HW121989   8.149   3.635   0.279  0.2325  0.0614  1.1789
 3840SOL    HW221990   8.079   3.749   0.186  3.4518  0.8388 -0.3568
 3841SOL     OW21991   3.199   4.550   3.878  0.2632  0.6152  0.4216
 3841SOL    HW121992   3.280   4.588   3.923  0.9981  2.3752 -2.2407
 3841SOL    HW221993   3.208   4.450   3.872  1.8015  0.7068  0.9430
 3842SOL     OW21994   5.705   8.184   1.887  0.2807 -0.0439  0.0656
 3842SOL    HW121995   5.736   8.225   1.801 -0.0407  0.4950  0.2085
 3842SOL    HW221996   5.776   8.194   1.957 -0.0836  0.9084  0.3039
 3843SOL     OW21997   1.738   5.089   2.217  0.6113  0.1970  0.2277
 3843SOL    HW121998   1.722   5.056   2.124  3.7159  0.0524 -0.3382
 3843SOL    HW221999   1.716   5.186   2.222  0.6535  0.2638 -0.7595
 3844SOL     OW22000   9.321   8.824   1.554 -0.6693  0.7965  0.0043
 3844SOL    HW122001   9.405   8.783   1.518 -0.7826  0.5991 -0.0372
 3844SOL    HW222002   9.327   8.829   1.654  1.2655  4.9228 -0.2489
 3845SOL     OW22003   5.082   7.712   1.805  0.2880  0.2777 -0.0551
 3845SOL    HW122004   5.034   7.638   1.852 -0.3015  2.1996  2.4094
 3845SOL    HW222005   5.111   7.679   1.715  0.8731 -3.2553  1.3319
 3846SOL     OW22006   2.011   4.119   3.949  0.1249 -0.1961  0.3229
 3846SOL    HW122007   1.912   4.110   3.957  0.1101  0.1451  0.5704
 3846SOL    HW222008   2.054   4.091   4.035  0.2665 -0.6836  0.0924
 3847SOL     OW22009   1.924   3.837   2.834 -0.5992  0.1264 -0.1573
 3847SOL    HW122010   1.845   3.798   2.881  1.6520 -2.4350  1.6613
 3847SOL    HW222011   1.968   3.905   2.892 -0.9350  0.8773 -0.7834
 3848SOL     OW22012   8.694   2.920   1.958 -0.1207 -1.3207 -0.6729
 3848SOL    HW122013   8.608   2.900   2.005 -1.5148  1.9444 -1.6703
 3848SOL    HW222014   8.690   2.885   1.865 -0.9491 -0.0136 -1.1463
 3849SOL     OW22015   0.851   7.948   3.748  0.6375  0.2019  0.5246
 3849SOL    HW122016   0.810   7.860   3.722 -0.0873  0.9145 -0.8220
 3849SOL    HW222017   0.839   7.962   3.846 -0.9934 -0.3227  0.4216
 3850SOL     OW22018   7.841   1.045   1.961  0.0349 -1.6279 -0.6595
 3850SOL    HW122019   7.761   1.097   1.930 -0.1553 -2.3754 -1.4324
 3850SOL    HW222020   7.856   1.061   2.058  1.3219  1.7035 -1.3253
 3851SOL     OW22021   0.092   2.356   2.623  0.3106  0.2970 -0.1431
 3851SOL    HW122022   0.061   2.445   2.590  3.1867  0.4656 -2.6671
 3851SOL    HW222023   0.163   2.369   2.692  0.0186 -0.0278  0.2172
 3852SOL     OW22024   7.992   2.186   2.413 -0.6949 -0.0326  0.3294
 3852SOL    HW122025   8.001   2.105   2.472  1.7759  0.3280  0.5005
 3852SOL    HW222026   8.039   2.263   2.455  0.8453  0.3188 -1.9346
 3853SOL     OW22027   2.278   9.514   2.892 -0.1527 -0.0835  0.2237
 3853SOL    HW122028   2.289   9.430   2.945 -1.1180 -0.6885 -0.5117
 3853SOL    HW222029   2.304   9.498   2.797 -0.9536  0.2603 -0.0679
 3854SOL     OW22030   0.714   3.311   1.375 -0.1321  0.5374  0.0609
 3854SOL    HW122031   0.772   3.312   1.294  0.4036 -0.6812  0.4206
 3854SOL    HW222032   0.733   3.392   1.430 -1.3842  2.0296 -1.6270
 3855SOL     OW22033   1.347   6.464   0.759  0.0096  0.7163  0.1456
 3855SOL    HW122034   1.266   6.432   0.808  0.0248 -0.7290 -0.7534
 3855SOL    HW222035   1.320   6.526   0.686 -0.3900 -0.7026 -0.9148
 3856SOL     OW22036   1.995   6.978   2.452  0.1230  0.0265 -0.9068
 3856SOL    HW122037   1.979   7.017   2.361  0.5481  0.5099 -0.7727
 3856SOL    HW222038   2.063   7.033   2.501 -0.2548 -0.1224 -0.2160
 3857SOL     OW22039   8.358   0.906   3.780  0.6181  0.3179 -0.6857
 3857SOL    HW122040   8.401   0.867   3.699  0.5741 -1.4835  0.1285
 3857SOL    HW222041   8.424   0.965   3.827  1.5402 -0.7866 -0.5665
 3858SOL     OW22042   3.941   4.475   2.039 -0.0144 -0.6084 -0.1188
 3858SOL    HW122043   3.907   4.467   1.945 -2.4217  1.3330  0.5252
 3858SOL    HW222044   4.007   4.550   2.044  0.2151 -0.7991 -0.2781
 3859SOL     OW22045   1.686   6.870   1.178  0.4404  0.0359 -0.5030
 3859SOL    HW122046   1.637   6.915   1.103 -1.5807 -0.4455  0.5064
 3859SOL    HW222047   1.756   6.932   1.214 -0.8838  1.5839 -0.5212
 3860SOL     OW22048   4.597   9.810   1.038  0.1792 -0.6365 -0.1110
 3860SOL    HW122049   4.688   9.781   1.068  0.3568 -0.8653 -0.8544
 3860SOL    HW222050   4.538   9.731   1.029  0.0911 -0.5573 -0.2361
 3861SOL     OW22051   8.387   2.121   3.374  0.4992 -0.0906  0.0093
 3861SOL    HW122052   8.338   2.057   3.315  0.1649  0.8450 -0.7387
 3861SOL    HW222053   8.341   2.128   3.462  0.5499 -0.8940  0.0991
 3862SOL     OW22054   9.023   7.348   3.414 -0.5456  0.4104 -0.1176
 3862SOL    HW122055   8.959   7.280   3.452  0.8201 -0.7912  0.0836
 3862SOL    HW222056   9.004   7.361   3.317  0.1422 -1.4157 -0.5161
 3863SOL     OW22057   8.376   1.033   2.362  0.3989 -0.4690 -0.3656
 3863SOL    HW122058   8.379   0.943   2.319 -0.4135 -0.2074 -0.9866
 3863SOL    HW222059   8.455   1.044   2.422  2.3928 -0.2944 -2.8884
 3864SOL     OW22060   7.912   9.968   1.599  0.1155 -0.1233 -0.3253
 3864SOL    HW122061   7.885   9.995   1.691 -1.7863  2.3128 -1.5710
 3864SOL    HW222062   7.831   9.955   1.543  1.2981 -0.6156 -1.9496
 3865SOL     OW22063   8.497   5.853   1.976 -0.2040 -0.2443  0.3766
 3865SOL    HW122064   8.551   5.934   2.000  0.4934 -0.5808 -0.0567
 3865SOL    HW222065   8.446   5.823   2.056 -1.9627  1.7562  0.0588
 3866SOL     OW22066   3.975   1.360   0.503  0.3737  0.1324 -0.6106
 3866SOL    HW122067   3.952   1.427   0.573 -1.2616  0.8601 -1.8112
 3866SOL    HW222068   3.967   1.402   0.413 -2.0797 -2.0334 -1.4736
 3867SOL     OW22069   9.007   2.417   0.225 -0.0607 -0.0730  0.1994
 3867SOL    HW122070   9.059   2.410   0.310  2.0778  1.6795 -0.9105
 3867SOL    HW222071   9.068   2.396   0.148 -2.1723 -2.4768 -0.8889
 3868SOL     OW22072   8.379   3.948   1.694 -0.5236  0.4335  0.1101
 3868SOL    HW122073   8.475   3.922   1.681  0.3818  2.6359  2.0955
 3868SOL    HW222074   8.330   3.872   1.736  0.6880 -0.2372  0.3445
 3869SOL     OW22075   3.885   1.564   3.420 -0.0317 -0.4921 -0.2941
 3869SOL    HW122076   3.819   1.527   3.485 -0.5071 -3.2644 -2.3285
 3869SOL    HW222077   3.850   1.649   3.382 -1.4526 -0.8514  0.1983
 3870SOL     OW22078   3.238   7.738   2.272 -0.3845 -0.0768 -0.4640
 3870SOL    HW122079   3.184   7.655   2.288 -2.2879  0.7469 -2.3356
 3870SOL    HW222080   3.318   7.715   2.217 -0.6466 -0.7505 -0.5693
 3871SOL     OW22081   0.047   9.719   3.600 -0.3779  0.0763  0.0560
 3871SOL    HW122082   0.005   9.735   3.689 -2.0075 -1.5496 -0.3892
 3871SOL    HW222083   0.005   9.779   3.531 -1.6193 -1.1536 -0.2801
 3872SOL     OW22084   9.945   8.314   2.260  0.0206 -0.4922 -0.5437
 3872SOL    HW122085   9.960   8.319   2.161  0.0084 -2.3777 -0.6610
 3872SOL    HW222086   9.979   8.397   2.303  0.7497  0.0091 -2.0536
 3873SOL     OW22087   1.639   3.964   2.153  0.3564  0.1896  0.1807
 3873SOL    HW122088   1.712   4.013   2.106  0.7860 -0.9931 -0.3992
 3873SOL    HW222089   1.550   3.998   2.120  0.6500 -0.4796 -1.3699
 3874SOL     OW22090   3.736   7.921   3.626 -0.2781 -0.7234  0.2187
 3874SOL    HW122091   3.664   7.989   3.608 -0.5714 -0.6829  1.5389
 3874SOL    HW222092   3.817   7.945   3.572 -0.6285  0.2649  0.1115
 3875SOL     OW22093   8.711   6.205   1.442 -0.1761 -0.4764 -0.0866
 3875SOL    HW122094   8.628   6.155   1.467 -0.2504 -0.8996 -1.1428
 3875SOL    HW222095   8.689   6.275   1.375  0.3779 -0.8079 -0.6164
 3876SOL     OW22096   4.671   3.103   3.548 -0.7301  0.4253  0.2441
 3876SOL    HW122097   4.576   3.079   3.527 -1.2445  1.9843  0.7065
 3876SOL    HW222098   4.723   3.112   3.463 -1.1855  0.3311 -0.0434
 3877SOL     OW22099   9.878   9.828   0.082 -0.1366  0.1272  1.0401
 3877SOL    HW122100   9.893   9.927   0.090  0.5365  0.3315 -2.0874
 3877SOL    HW222101   9.783   9.807   0.103 -1.0089  1.8476 -1.0312
 3878SOL     OW22102   0.527   2.611   2.035 -0.0416  0.2992 -0.3814
 3878SOL    HW122103   0.550   2.673   1.960 -0.9565 -0.5331 -1.3741
 3878SOL    HW222104   0.528   2.660   2.121 -0.4523  1.6175 -1.1206
 3879SOL     OW22105   9.051   1.368   0.443  0.4561 -0.4763  0.2372
 3879SOL    HW122106   9.065   1.438   0.374 -0.9992 -0.1241  0.3008
 3879SOL    HW222107   9.051   1.410   0.534 -1.2263 -0.4442  0.2255
 3880SOL     OW22108   2.364   2.627   2.990 -0.9188  0.3689  0.0424
 3880SOL    HW122109   2.308   2.565   2.934 -1.2149 -1.0112  1.8236
 3880SOL    HW222110   2.434   2.575   3.039 -0.8163  1.5164  1.1583
 3881SOL     OW22111   1.858   4.689   0.817  0.3494 -0.1732 -0.2357
 3881SOL    HW122112   1.926   4.618   0.834  1.7338  1.2322  0.2235
 3881SOL    HW222113   1.903   4.770   0.780 -0.7193  1.5214  2.0284
 3882SOL     OW22114   1.194   5.659   2.953 -0.4080  0.4422  0.1913
 3882SOL    HW122115   1.232   5.729   3.013 -0.4154  1.4535 -0.9763
 3882SOL    HW222116   1.097   5.675   2.940 -0.5176 -0.0936  0.3427
 3883SOL     OW22117   7.744   1.693   0.392  0.3623 -0.1566  0.0630
 3883SOL    HW122118   7.714   1.730   0.480 -0.4056 -0.8710  0.1045
 3883SOL    HW222119   7.671   1.706   0.324  1.5282  1.7977 -0.8765
 3884SOL     OW22120   2.916   7.098   3.098  0.1388 -0.0279 -0.0474
 3884SOL    HW122121   2.989   7.117   3.032 -0.9233  0.7838 -0.9983
 3884SOL    HW222122   2.827   7.108   3.054 -0.5728 -0.3109  1.2924
 3885SOL     OW22123   0.244   0.526   1.864 -0.0877  0.2453 -0.1602
 3885SOL    HW122124   0.328   0.475   1.846  0.9108  1.5773  0.5884
 3885SOL    HW222125   0.231   0.594   1.792  0.1367  0.8492  0.3619
 3886SOL     OW22126   1.645   6.796   2.805  0.2683 -0.2488 -0.2289
 3886SOL    HW122127   1.716   6.803   2.736  1.7437  0.7212  1.3382
 3886SOL    HW222128   1.680   6.830   2.893 -2.4559  1.2768  0.3379
 3887SOL     OW22129   0.866   8.372   1.774 -0.4676 -0.1242  0.4943
 3887SOL    HW122130   0.880   8.348   1.678  0.7407  1.7541  0.1721
 3887SOL    HW222131   0.940   8.334   1.829  0.0918  0.7170  0.3372
 3888SOL     OW22132   9.288   7.733   1.717  0.2110  0.0042  0.4120
 3888SOL    HW122133   9.257   7.684   1.635  0.1999 -1.5315  1.3178
 3888SOL    HW222134   9.211   7.744   1.780 -0.0050  2.0141 -0.1588
 3889SOL     OW22135   3.774   7.235   1.065 -0.2061 -0.3048  0.0180
 3889SOL    HW122136   3.785   7.252   0.967 -0.8978  0.0395 -0.0001
 3889SOL    HW222137   3.814   7.311   1.117 -0.1153 -0.3389 -0.0033
 3890SOL     OW22138   1.543   5.735   2.054 -0.1435 -0.0429  0.0328
 3890SOL    HW122139   1.558   5.828   2.087 -1.0782  0.0947  0.0709
 3890SOL    HW222140   1.449   5.707   2.074 -0.5890 -0.1218 -2.0885
 3891SOL     OW22141   7.798   9.584   0.669  0.6124  0.2579  0.3493
 3891SOL    HW122142   7.778   9.492   0.702  0.3949 -0.8067 -2.5538
 3891SOL    HW222143   7.712   9.632   0.651  0.7110  0.4342  0.3502
 3892SOL     OW22144   6.306   7.465   2.473  0.2173  0.3316 -0.0120
 3892SOL    HW122145   6.317   7.429   2.566  2.5629  4.7315  1.5792
 3892SOL    HW222146   6.392   7.454   2.423 -0.1920  0.3558 -0.7210
 3893SOL     OW22147   8.702   1.565   2.745  0.1065  0.2778 -0.0407
 3893SOL    HW122148   8.632   1.633   2.767  0.5506  0.9179 -0.5693
 3893SOL    HW222149   8.759   1.600   2.671 -0.9522 -1.5281 -1.7501
 3894SOL     OW22150   3.451   1.674   2.642  0.1963 -0.3766 -0.2541
 3894SOL    HW122151   3.424   1.766   2.669 -0.5379 -0.9210  0.9338
 3894SOL    HW222152   3.512   1.636   2.711  1.1889 -0.4583 -1.1791
 3895SOL     OW22153   1.779   5.415   0.333  0.2822 -0.0451 -0.4083
 3895SOL    HW122154   1.765   5.504   0.377 -0.1108  0.7114 -2.0327
 3895SOL    HW222155   1.720   5.347   0.377 -0.5156  0.8111 -0.1322
 3896SOL     OW22156   7.402   2.460   3.882 -0.1690  0.2653  0.0179
 3896SOL    HW122157   7.426   2.457   3.785  1.2345 -1.5156  0.4041
 3896SOL    HW222158   7.398   2.555   3.913 -0.8383  0.8533 -1.8193
 3897SOL     OW22159   8.964   8.309   1.915 -0.2510 -0.7733  0.5081
 3897SOL    HW122160   8.994   8.287   1.822  3.0894  1.4325  0.9506
 3897SOL    HW222161   8.883   8.368   1.911 -0.3812 -1.0363 -1.0160
 3898SOL     OW22162   0.883   1.091   2.937  0.1685  0.5846  0.2721
 3898SOL    HW122163   0.912   0.996   2.923  0.1233  0.5257  0.5718
 3898SOL    HW222164   0.919   1.148   2.863 -1.9859 -0.1237 -1.3693
 3899SOL     OW22165   2.588   3.274   3.096 -0.6752 -0.2973  0.3063
 3899SOL    HW122166   2.569   3.329   3.177 -0.3851  0.7714 -0.3545
 3899SOL    HW222167   2.502   3.234   3.062 -0.9549  0.1693  0.4657
 3900SOL     OW22168   2.140   5.377   2.393  0.0397  0.1708 -0.3786
 3900SOL    HW122169   2.172   5.285   2.371 -1.1937  0.3011 -2.7910
 3900SOL    HW222170   2.215   5.442   2.380  1.5057 -0.6343  3.1745
 3901SOL     OW22171   3.408   4.001   1.853 -0.9016 -0.4182  0.1411
 3901SOL    HW122172   3.393   4.043   1.763 -1.6516 -1.3773 -0.1995
 3901SOL    HW222173   3.341   3.929   1.867 -1.7536  0.7032  2.1088
 3902SOL     OW22174   3.680   2.328   2.742 -0.0121  0.2627  0.1127
 3902SOL    HW122175   3.740   2.319   2.663 -0.1936 -0.1956  0.0265
 3902SOL    HW222176   3.671   2.425   2.766 -0.1176  0.4231 -0.5523
 3903SOL     OW22177   4.681   8.047   3.355  0.4480  0.1574  0.0166
 3903SOL    HW122178   4.630   7.979   3.303 -0.2610  2.7944 -2.8874
 3903SOL    HW222179   4.777   8.043   3.329  0.3836  0.3506 -0.2525
 3904SOL     OW22180   1.048   2.380   0.122 -0.9067 -0.2720  0.2297
 3904SOL    HW122181   1.106   2.389   0.041 -0.9534  0.6116  0.2915
 3904SOL    HW222182   1.061   2.289   0.162 -0.4083 -0.4838 -0.3996
 3905SOL     OW22183   2.895   2.917   3.461  0.1197 -0.2918  0.2139
 3905SOL    HW122184   2.846   2.865   3.391  0.5862 -0.6005  0.1171
 3905SOL    HW222185   2.986   2.879   3.474  0.9225  1.2701 -0.7497
 3906SOL     OW22186   9.848   6.904   0.669  0.4974  0.3469  0.0320
 3906SOL    HW122187   9.780   6.887   0.598 -0.9169  0.4027  1.3554
 3906SOL    HW222188   9.878   6.818   0.709  0.3995  0.3911  0.2000
 3907SOL     OW22189   4.001   8.756   3.678  0.0775  0.6180 -0.1577
 3907SOL    HW122190   4.045   8.667   3.693 -1.1927 -0.0066 -0.0696
 3907SOL    HW222191   3.904   8.742   3.659 -0.3038  2.0527  0.7236
 3908SOL     OW22192   7.769   7.055   2.455 -0.2088 -0.2076  0.0354
 3908SOL    HW122193   7.729   7.037   2.545  2.3908 -1.6328  0.9853
 3908SOL    HW222194   7.811   6.971   2.420 -0.4722  0.5335 -2.1486
 3909SOL     OW22195   1.950   1.145   1.676 -0.4512  0.4960 -0.1379
 3909SOL    HW122196   1.881   1.213   1.653 -1.0111 -0.0289 -0.0098
 3909SOL    HW222197   1.922   1.055   1.642 -0.0006  0.2203  0.2090
 3910SOL     OW22198   3.610   8.731   1.050 -0.2062 -0.1763 -0.2738
 3910SOL    HW122199   3.556   8.690   1.123  1.1516 -1.1417  0.2057
 3910SOL    HW222200   3.575   8.822   1.030 -0.2421  0.3233  1.9529
 3911SOL     OW22201   2.837   2.986   2.149  0.2000  0.1398  0.0324
 3911SOL    HW122202   2.922   3.038   2.152 -0.5651  1.3917  0.7894
 3911SOL    HW222203   2.835   2.920   2.224  0.8889 -0.5165 -0.5272
 3912SOL     OW22204   3.323   4.988   1.120  0.0178 -0.1736  0.2350
 3912SOL    HW122205   3.248   5.027   1.174 -1.4444  0.2882 -2.0575
 3912SOL    HW222206   3.398   5.054   1.115 -0.1279  0.0603  1.1098
 3913SOL     OW22207   2.274   8.318   0.574 -0.2092 -0.3273  0.2023
 3913SOL    HW122208   2.260   8.395   0.635 -1.3436  0.6329 -1.2414
 3913SOL    HW222209   2.192   8.261   0.572  0.4825 -1.3759  0.9621
 3914SOL     OW22210   1.076   6.100   3.348  0.3001 -0.4932  0.0212
 3914SOL    HW122211   1.038   6.084   3.256  1.9113 -0.3203 -0.6859
 3914SOL    HW222212   1.124   6.187   3.350 -1.3250  0.4122  1.5848
 3915SOL     OW22213   9.588   2.482   2.680  0.3628 -0.7032  0.5939
 3915SOL    HW122214   9.611   2.559   2.741 -1.6416 -0.9605  1.7293
 3915SOL    HW222215   9.500   2.501   2.636 -1.3080 -3.3332  2.6583
 3916SOL     OW22216   9.401   0.372   1.572 -0.0128 -0.1930 -0.4024
 3916SOL    HW122217   9.471   0.338   1.634 -0.6157 -0.5195  0.1108
 3916SOL    HW222218   9.310   0.354   1.612 -0.4132 -0.7455 -1.5621
 3917SOL     OW22219   2.988   6.878   1.461  0.1786 -0.1278 -0.1970
 3917SOL    HW122220   3.022   6.802   1.516 -0.6811 -1.4828 -1.4936
 3917SOL    HW222221   3.065   6.932   1.427  0.9326 -1.8178 -1.2165
 3918SOL     OW22222   0.632   4.193   0.557  0.3918  0.3276  0.5523
 3918SOL    HW122223   0.700   4.246   0.506  0.5059  0.5651  0.9497
 3918SOL    HW222224   0.633   4.098   0.524 -0.7769  0.8778 -1.1018
 3919SOL     OW22225   5.567   7.986   3.196  0.5872 -0.6660  0.3830
 3919SOL    HW122226   5.648   8.024   3.151  2.8221 -4.4094  0.9586
 3919SOL    HW222227   5.492   7.978   3.130  1.6134  0.2413 -0.9088
 3920SOL     OW22228   3.933   8.350   0.946 -0.0721 -0.2604  0.4447
 3920SOL    HW122229   3.961   8.287   0.873 -0.0606 -0.1030  0.3126
 3920SOL    HW222230   3.859   8.408   0.913 -1.4896 -1.5726  1.2166
 3921SOL     OW22231   8.698   8.233   1.711  0.4874 -0.0406 -0.4921
 3921SOL    HW122232   8.669   8.166   1.778  1.3284 -0.5799 -0.6641
 3921SOL    HW222233   8.651   8.216   1.624 -0.1984  0.3320 -0.2021
 3922SOL     OW22234   3.595   0.369   2.429  0.1920  0.9670 -0.3839
 3922SOL    HW122235   3.659   0.432   2.473  1.7610 -1.1935  0.5150
 3922SOL    HW222236   3.645   0.292   2.391 -1.9908 -1.6386  1.8249
 3923SOL     OW22237   1.272   2.994   2.104 -0.2295  0.2200 -0.1903
 3923SOL    HW122238   1.329   3.036   2.174 -0.4686 -2.5231  1.7278
 3923SOL    HW222239   1.309   3.016   2.013  2.3902  0.5641  0.9159
 3924SOL     OW22240   3.532   3.071   0.324 -0.5742  0.2342 -0.0453
 3924SOL    HW122241   3.493   2.988   0.364 -0.6540 -0.2444 -1.0958
 3924SOL    HW222242   3.474   3.149   0.344 -0.3005  0.1127  1.2888
 3925SOL     OW22243   3.709   7.302   0.397  0.3641 -0.3194  0.1047
 3925SOL    HW122244   3.656   7.220   0.420 -0.7116  0.4473  0.3627
 3925SOL    HW222245   3.648   7.381   0.391  1.5290  0.6569  0.8392
 3926SOL     OW22246   4.038   8.929   0.855 -0.0055 -0.3820 -0.3813
 3926SOL    HW122247   4.129   8.969   0.844 -0.3110  0.5717  0.4940
 3926SOL    HW222248   4.029   8.889   0.946 -1.1855  1.4707  0.3507
 3927SOL     OW22249   3.590   9.670   0.595  0.1183  0.1935 -0.4225
 3927SOL    HW122250   3.669   9.723   0.562 -0.0932  0.0244 -1.2218
 3927SOL    HW222251   3.528   9.730   0.645  0.0059  0.6508 -1.1043
 3928SOL     OW22252   2.986   5.876   0.985 -0.4157 -0.2647  0.1471
 3928SOL    HW122253   3.072   5.862   0.934 -1.0410  0.9171 -1.2732
 3928SOL    HW222254   2.920   5.807   0.956 -0.4611 -0.1848  0.0602
 3929SOL     OW22255   0.849   9.059   0.287 -0.6943 -0.3596  0.0665
 3929SOL    HW122256   0.947   9.036   0.292 -0.4346  0.6961 -0.1644
 3929SOL    HW222257   0.838   9.154   0.258 -1.8016 -0.5837 -0.2692
 3930SOL     OW22258   8.067   2.629   0.880 -0.0453 -0.1135 -0.2180
 3930SOL    HW122259   8.065   2.663   0.974 -5.0666  1.8276 -0.8945
 3930SOL    HW222260   8.112   2.695   0.821  0.0612  0.2505  0.2693
 3931SOL     OW22261   9.400   9.272   3.676 -0.0905 -0.1191 -0.4024
 3931SOL    HW122262   9.345   9.199   3.637 -0.2708 -0.6781  0.8691
 3931SOL    HW222263   9.340   9.336   3.725  0.1154  0.6374 -1.1344
 3932SOL     OW22264   6.565   9.759   2.013  0.1035  0.1188 -0.0301
 3932SOL    HW122265   6.508   9.827   2.057 -0.9327 -0.1552 -0.9135
 3932SOL    HW222266   6.519   9.725   1.930  0.2707 -2.1524  0.7657
 3933SOL     OW22267   0.242   8.055   2.642  0.3198  0.5956  0.2681
 3933SOL    HW122268   0.164   8.081   2.698 -0.1836 -1.2754  0.4745
 3933SOL    HW222269   0.216   7.977   2.584  1.3014  1.4923 -1.4207
 3934SOL     OW22270   0.987   5.889   1.106 -0.5098 -0.2426  0.4599
 3934SOL    HW122271   1.079   5.856   1.086  1.1113  2.9224  2.4157
 3934SOL    HW222272   0.940   5.821   1.164  0.9573 -1.4102  0.3166
 3935SOL     OW22273   3.583   9.860   3.670 -0.0090 -0.0361  0.0022
 3935SOL    HW122274   3.526   9.779   3.676 -0.9641  0.6600  0.5202
 3935SOL    HW222275   3.573   9.914   3.754  2.5702 -0.6498  0.7604
 3936SOL     OW22276   0.059   9.619   4.026 -0.1848 -0.6990 -0.2345
 3936SOL    HW122277   0.110   9.652   3.947 -0.2219  1.0974  0.4654
 3936SOL    HW222278  -0.019   9.679   4.043 -0.3359 -1.2254  0.9911
 3937SOL     OW22279   0.601   9.046   1.414  0.2135 -0.0076 -0.5495
 3937SOL    HW122280   0.595   9.146   1.410  1.2936  0.1252  1.0647
 3937SOL    HW222281   0.622   9.017   1.507 -2.3544 -1.8677 -0.4744
 3938SOL     OW22282   8.842   6.530   2.194  0.0825  0.0545 -0.1801
 3938SOL    HW122283   8.806   6.513   2.102  0.0680  1.2198 -0.3916
 3938SOL    HW222284   8.812   6.620   2.226  3.0845  1.2106 -0.4805
 3939SOL     OW22285   3.129   7.986   1.406  0.4545 -0.1837 -0.2859
 3939SOL    HW122286   3.097   7.902   1.362  0.1730  0.1856 -0.7939
 3939SOL    HW222287   3.050   8.037   1.442  0.5772  0.1064 -0.4202
 3940SOL     OW22288   9.270   3.182   1.049  0.0481 -0.0689  0.1183
 3940SOL    HW122289   9.286   3.263   1.105 -0.3517 -0.6657  1.1217
 3940SOL    HW222290   9.304   3.101   1.098 -1.2782 -0.7249 -0.0345
 3941SOL     OW22291   4.262   9.187   1.376  0.4611  0.3171 -0.5785
 3941SOL    HW122292   4.198   9.181   1.453 -0.3573  2.1537 -1.0967
 3941SOL    HW222293   4.241   9.114   1.310 -0.1050 -0.0467 -0.0051
 3942SOL     OW22294   2.393   8.833   2.652  0.0519 -0.5701  0.0438
 3942SOL    HW122295   2.478   8.861   2.698  0.1129  0.7792 -0.8895
 3942SOL    HW222296   2.320   8.828   2.720  0.7890 -1.4173  0.8001
 3943SOL     OW22297   3.009   2.443   1.611  0.0764 -0.1534 -0.1737
 3943SOL    HW122298   2.961   2.454   1.524  2.4996  0.8765 -1.4286
 3943SOL    HW222299   3.049   2.530   1.639  1.1474 -0.9534  0.8756
 3944SOL     OW22300   2.839   4.463   1.841  0.0815  0.3353  0.5325
 3944SOL    HW122301   2.899   4.536   1.808 -0.0592  1.0348  1.7708
 3944SOL    HW222302   2.855   4.450   1.939  0.2152 -1.4184  0.2824
 3945SOL     OW22303   4.313   3.700   2.992 -0.2909 -0.4040 -0.4824
 3945SOL    HW122304   4.342   3.778   2.936 -0.0411 -0.2457 -0.1296
 3945SOL    HW222305   4.256   3.639   2.936 -0.0029 -0.2688 -0.9254
 3946SOL     OW22306   4.716   8.946   3.572 -0.3161  0.7102 -0.3768
 3946SOL    HW122307   4.627   8.923   3.611  0.5118  0.4921  1.4687
 3946SOL    HW222308   4.708   9.029   3.517 -1.4955  1.1954  0.4999
 3947SOL     OW22309   2.488   6.312   2.430 -0.6450  0.1936 -0.7402
 3947SOL    HW122310   2.395   6.297   2.464 -1.1438 -0.9743 -2.5352
 3947SOL    HW222311   2.516   6.234   2.373  1.0093  1.0356 -1.1098
 3948SOL     OW22312   0.375   7.208   2.733  0.0424  0.0751  0.2978
 3948SOL    HW122313   0.412   7.125   2.774  1.1048  0.4276  0.0698
 3948SOL    HW222314   0.357   7.275   2.805  0.1331  0.0139  0.3767
 3949SOL     OW22315   4.512   7.875   0.603 -0.5263  0.0381 -0.2551
 3949SOL    HW122316   4.566   7.799   0.567  0.1699  0.4824 -0.1536
 3949SOL    HW222317   4.526   7.956   0.546 -3.7167 -0.7344 -2.2665
 3950SOL     OW22318   1.579   2.201   1.086 -0.0682  0.0551  0.3310
 3950SOL    HW122319   1.505   2.243   1.139  0.3008  0.2322  0.7036
 3950SOL    HW222320   1.667   2.223   1.127  0.2440  0.4725 -0.5441
 3951SOL     OW22321   1.844   2.276   0.293 -0.0564 -0.1081  0.0944
 3951SOL    HW122322   1.917   2.324   0.341  0.8145  1.3157 -2.5648
 3951SOL    HW222323   1.865   2.178   0.289  1.7057  0.2770 -0.5532
 3952SOL     OW22324   0.420   8.099   0.676  0.2849 -0.1369  0.2345
 3952SOL    HW122325   0.459   8.062   0.592  0.9236  0.3155  0.3264
 3952SOL    HW222326   0.487   8.157   0.721 -0.3585  0.3243  0.6102
 3953SOL     OW22327   8.792   0.830   1.336 -0.4823  0.3586  0.2840
 3953SOL    HW122328   8.754   0.915   1.372 -0.5836  0.6594 -0.5288
 3953SOL    HW222329   8.729   0.755   1.355 -1.5031  0.8597 -1.0722
 3954SOL     OW22330   1.255   4.265   3.207  0.3938 -0.4503 -0.1583
 3954SOL    HW122331   1.351   4.242   3.224  1.0011  0.8899 -1.6360
 3954SOL    HW222332   1.200   4.183   3.211  1.9310 -1.5833 -1.4268
 3955SOL     OW22333   9.908   4.163   1.771 -0.2323 -0.2375  0.5540
 3955SOL    HW122334   9.903   4.216   1.856  1.5687  0.5435  0.2025
 3955SOL    HW222335   9.889   4.067   1.791  0.8510 -0.1737  1.9803
 3956SOL     OW22336   3.292   9.318   1.491 -0.0238  0.9262 -0.1043
 3956SOL    HW122337   3.358   9.285   1.424 -0.4756 -0.4367  0.0989
 3956SOL    HW222338   3.208   9.345   1.444 -0.8610 -1.3688  0.0135
 3957SOL     OW22339   0.884   9.743   1.206 -0.0335 -0.0028  0.5648
 3957SOL    HW122340   0.849   9.794   1.284 -0.5038  1.0032 -0.2941
 3957SOL    HW222341   0.854   9.786   1.121 -1.5967 -2.4512 -0.1933
 3958SOL     OW22342   1.863   4.838   2.399  0.1481 -0.6068 -0.0025
 3958SOL    HW122343   1.826   4.752   2.363  0.2371 -0.1483 -1.2190
 3958SOL    HW222344   1.955   4.822   2.434 -0.3883 -1.3087  1.1183
 3959SOL     OW22345   9.939   0.242   2.891 -0.4431 -0.0561  0.5712
 3959SOL    HW122346   9.976   0.317   2.836  0.5048 -0.3595  0.7947
 3959SOL    HW222347   9.945   0.157   2.840 -0.3103 -0.1999  0.8234
 3960SOL     OW22348   2.522   0.305   1.048 -0.4935 -0.3124  0.6558
 3960SOL    HW122349   2.544   0.270   0.957  0.1496  0.2273  0.6048
 3960SOL    HW222350   2.590   0.372   1.076 -0.4269 -0.8254  1.7403
 3961SOL     OW22351   9.099   3.215   2.173  0.2166  0.1808  0.0788
 3961SOL    HW122352   9.042   3.297   2.179  2.8432  1.9432  1.8110
 3961SOL    HW222353   9.099   3.168   2.261  1.3508  0.1180  0.0439
 3962SOL     OW22354   1.107   3.465   0.254  0.0809 -0.0593 -0.0175
 3962SOL    HW122355   1.194   3.514   0.245 -0.0932  0.1692 -0.4905
 3962SOL    HW222356   1.055   3.505   0.329  1.6050 -2.0693  2.1798
 3963SOL     OW22357   9.962   1.561   2.470 -0.3175  0.3961  0.2381
 3963SOL    HW122358  10.041   1.501   2.457  0.0407  1.0171 -0.4756
 3963SOL    HW222359   9.881   1.506   2.490 -0.1325 -0.3696 -1.0884
 3964SOL     OW22360   3.909   0.560   1.046 -0.3980  0.2755  0.0902
 3964SOL    HW122361   3.824   0.612   1.052 -0.4316  0.3322 -0.7363
 3964SOL    HW222362   3.903   0.480   1.105 -0.8218  0.5555  0.4366
 3965SOL     OW22363   8.823   8.612   2.548 -0.0234 -0.6358  0.2836
 3965SOL    HW122364   8.782   8.585   2.636  0.2711 -0.9582  0.3196
 3965SOL    HW222365   8.898   8.551   2.525 -0.7672 -1.1897 -0.7030
 3966SOL     OW22366   3.215   3.800   1.885  0.4084 -0.0514  0.4108
 3966SOL    HW122367   3.173   3.835   1.969  1.5755 -0.4482  1.1713
 3966SOL    HW222368   3.278   3.726   1.908 -0.0905 -0.9142 -0.9374
 3967SOL     OW22369   0.092   8.888   1.205 -0.0152  0.6600 -0.4834
 3967SOL    HW122370   0.145   8.920   1.283 -0.4025  0.7941 -0.2698
 3967SOL    HW222371   0.066   8.966   1.148 -0.9144  0.7264  0.0089
 3968SOL     OW22372   8.782   8.624   0.029  0.4465  0.2694 -0.6496
 3968SOL    HW122373   8.811   8.714  -0.003 -0.8690  0.4913 -1.2336
 3968SOL    HW222374   8.824   8.553  -0.027 -1.4820  0.6402 -2.6158
 3969SOL     OW22375   3.342   4.908   0.367 -0.1998 -0.1632 -0.7150
 3969SOL    HW122376   3.386   4.906   0.457 -0.5266  0.4733 -0.5419
 3969SOL    HW222377   3.257   4.960   0.372 -1.5124 -2.2348 -0.8179
 3970SOL     OW22378   3.899   0.059   0.781  0.2697 -0.1033  0.3288
 3970SOL    HW122379   3.908   0.021   0.689  0.4381 -0.1174  0.3523
 3970SOL    HW222380   3.881  -0.014   0.846 -1.2970  0.0504  0.0985
 3971SOL     OW22381   3.524   8.397   0.899  0.2523  0.0406 -0.7356
 3971SOL    HW122382   3.548   8.342   0.979  1.3271 -0.0117 -1.0892
 3971SOL    HW222383   3.605   8.410   0.842 -0.3832  0.5564 -1.5272
 3972SOL     OW22384   3.808   0.426   1.303 -0.7222 -0.1030 -0.6187
 3972SOL    HW122385   3.717   0.425   1.261 -0.9742  0.3549 -0.0942
 3972SOL    HW222386   3.800   0.459   1.397  0.4155  2.7677 -1.5059
 3973SOL     OW22387   8.855   4.843   0.123  0.0676  0.3212 -0.2889
 3973SOL    HW122388   8.800   4.854   0.206  0.6280  1.2897 -0.0350
 3973SOL    HW222389   8.943   4.888   0.135  0.5286 -0.3705 -1.0600
 3974SOL     OW22390   3.564   3.111   2.538 -0.2339  0.0615 -0.0655
 3974SOL    HW122391   3.537   3.030   2.487 -1.4533  0.1506  0.4168
 3974SOL    HW222392   3.482   3.161   2.568  0.4673  0.5422  1.1074
 3975SOL     OW22393   8.883   7.671   1.693  0.1063 -0.0828  0.2595
 3975SOL    HW122394   8.894   7.594   1.630  0.0516 -0.3923  0.6247
 3975SOL    HW222395   8.917   7.645   1.783 -0.3441  0.1614  0.5020
 3976SOL     OW22396   9.085   2.515   3.774 -0.0770 -0.1689  0.3981
 3976SOL    HW122397   9.090   2.599   3.720 -1.7570  0.8347  1.7619
 3976SOL    HW222398   9.173   2.469   3.772  0.7971  1.4885 -0.5549
 3977SOL     OW22399   9.801   3.632   0.658 -0.3192  0.2244 -0.3330
 3977SOL    HW122400   9.849   3.573   0.593  0.3661  1.3021 -0.8207
 3977SOL    HW222401   9.716   3.664   0.617 -0.9401 -0.8313  0.1267
 3978SOL     OW22402   3.892   0.157   2.093 -0.0980  0.2105 -0.5429
 3978SOL    HW122403   3.952   0.230   2.059  0.0624  0.2671 -0.1451
 3978SOL    HW222404   3.943   0.071   2.097  0.4428  0.6014  1.3554
 3979SOL     OW22405   0.526   9.377   3.824 -0.0179  0.4066 -0.4331
 3979SOL    HW122406   0.461   9.452   3.811  0.6344  0.8990 -0.8461
 3979SOL    HW222407   0.543   9.364   3.922 -1.5565 -0.4264 -0.2594
 3980SOL     OW22408   9.473   5.501   0.841 -0.5122  0.6935  0.1177
 3980SOL    HW122409   9.413   5.548   0.906 -1.1697 -1.2515  0.9311
 3980SOL    HW222410   9.546   5.563   0.813 -2.1445  2.6731  0.1122
 3981SOL     OW22411   9.161   3.534   1.770 -0.2651 -0.7307  0.3537
 3981SOL    HW122412   9.161   3.441   1.804  1.7494 -0.7799  0.2783
 3981SOL    HW222413   9.127   3.535   1.675  1.2553 -1.6225 -0.2137
 3982SOL     OW22414   2.565   7.229   1.515 -0.1651  0.0183 -0.2166
 3982SOL    HW122415   2.554   7.327   1.501  1.7620  0.6106  2.1506
 3982SOL    HW222416   2.539   7.180   1.431 -1.0899  2.5119 -1.4357
 3983SOL     OW22417   2.412   4.413   3.641  0.3345  0.4096  0.3174
 3983SOL    HW122418   2.443   4.396   3.548 -1.0039 -0.7666  0.0757
 3983SOL    HW222419   2.490   4.437   3.699  1.1693  1.1691 -1.0990
 3984SOL     OW22420   7.610   1.985   0.838  0.4504  0.1521  0.9769
 3984SOL    HW122421   7.564   2.072   0.823 -1.3452 -0.9877 -0.3758
 3984SOL    HW222422   7.666   1.990   0.921  1.6827  3.0787  0.0155
 3985SOL     OW22423   8.604   5.243   3.724  0.3445 -0.0945 -0.0114
 3985SOL    HW122424   8.506   5.243   3.741  0.4718  0.1418  0.7222
 3985SOL    HW222425   8.623   5.293   3.639 -0.0059  1.3734  0.7659
 3986SOL     OW22426   2.587   5.004   3.993  0.4836  0.5171 -0.6682
 3986SOL    HW122427   2.640   4.928   4.031 -0.7647 -0.8683 -1.6673
 3986SOL    HW222428   2.605   5.011   3.895 -0.5123  0.5741 -0.8520
 3987SOL     OW22429   7.217   8.673   1.162 -0.7485  0.0276  0.7099
 3987SOL    HW122430   7.191   8.724   1.079 -1.1566  0.8397  1.3313
 3987SOL    HW222431   7.279   8.599   1.137 -1.2310 -0.0150 -0.3872
 3988SOL     OW22432   4.412   0.135   3.339  0.1079  0.2165 -0.6653
 3988SOL    HW122433   4.446   0.118   3.247  1.0312  3.6320 -1.0260
 3988SOL    HW222434   4.486   0.125   3.405 -0.3800 -1.4983 -0.3719
 3989SOL     OW22435   3.763   4.893   0.394 -0.4568  0.1259  0.3508
 3989SOL    HW122436   3.770   4.846   0.482  1.6885 -0.6127 -0.1793
 3989SOL    HW222437   3.839   4.956   0.383 -1.7230  1.6040 -0.2094
 3990SOL     OW22438   4.604   8.260   3.900 -0.5736  0.5303 -0.9130
 3990SOL    HW122439   4.545   8.341   3.889 -0.2245  0.9231  0.0856
 3990SOL    HW222440   4.640   8.233   3.811 -1.8859  0.5786 -1.4692
 3991SOL     OW22441   3.010   1.782   4.029  0.0390  0.0666 -0.2384
 3991SOL    HW122442   3.100   1.757   3.993 -0.9859 -3.0688 -0.7499
 3991SOL    HW222443   3.021   1.836   4.112  2.3861  1.4077 -1.3876
 3992SOL     OW22444   3.462   3.598   1.366  0.2452 -0.3500 -0.1207
 3992SOL    HW122445   3.536   3.595   1.299  0.9836  0.4607  0.6465
 3992SOL    HW222446   3.468   3.517   1.426  0.5759 -0.2322  0.0054
 3993SOL     OW22447   8.734   1.678   3.652 -0.4997 -0.3864  0.4821
 3993SOL    HW122448   8.722   1.775   3.631  0.0401 -0.7100 -1.3762
 3993SOL    HW222449   8.715   1.624   3.570  1.8464 -1.6756  0.7776
 3994SOL     OW22450   2.419   1.140   3.876  0.0526  0.2999  0.0135
 3994SOL    HW122451   2.508   1.096   3.862  0.0641  0.7933 -1.5475
 3994SOL    HW222452   2.406   1.160   3.973  0.7952 -1.5679  0.5241
 3995SOL     OW22453   9.842   3.773   1.117 -0.5795  0.1176  0.5940
 3995SOL    HW122454   9.865   3.809   1.026 -1.7278 -0.2645  0.1455
 3995SOL    HW222455   9.803   3.682   1.107  1.7535 -1.0534  1.6734
 3996SOL     OW22456   7.893   5.487   2.499  0.3804 -0.2787  0.5180
 3996SOL    HW122457   7.928   5.564   2.445 -0.6116  0.2412  0.5990
 3996SOL    HW222458   7.862   5.415   2.437 -1.2025  0.5156  0.3665
 3997SOL     OW22459   2.753   8.789   2.650 -0.0337 -0.5235  0.1757
 3997SOL    HW122460   2.703   8.746   2.726  0.5438 -2.2827 -0.4151
 3997SOL    HW222461   2.832   8.838   2.686 -0.5940 -0.0908  0.8428
 3998SOL     OW22462   9.609   9.034   2.640 -0.4438 -0.5587 -0.1164
 3998SOL    HW122463   9.654   8.984   2.714  0.5907 -0.9980 -1.0296
 3998SOL    HW222464   9.656   9.015   2.553 -0.8615  0.9354 -0.6883
 3999SOL     OW22465   0.480   5.794   0.352  0.5290 -1.1226  0.5704
 3999SOL    HW122466   0.410   5.866   0.348 -0.2724 -1.8264  1.8058
 3999SOL    HW222467   0.567   5.831   0.319 -0.4467 -0.2822 -1.1242
 4000SOL     OW22468   8.559   4.673   1.694 -0.1839 -0.1334 -0.3647
 4000SOL    HW122469   8.505   4.592   1.676 -2.3632  0.9458  1.0921
 4000SOL    HW222470   8.564   4.729   1.611  0.5428 -1.2671 -1.1035
 4001SOL     OW22471   9.531   9.639   0.352  0.1947 -0.0198 -0.0972
 4001SOL    HW122472   9.453   9.587   0.318 -0.3222  0.1058  0.8805
 4001SOL    HW222473   9.512   9.670   0.445  0.2681  2.3488 -0.8216
 4002SOL     OW22474   2.981   4.003   2.384  0.4680 -0.1298 -0.1191
 4002SOL    HW122475   3.024   3.985   2.296  0.7643 -1.6120  0.3183
 4002SOL    HW222476   2.884   3.979   2.380  0.3957  0.1588 -0.1427
 4003SOL     OW22477   5.069   8.204   1.747 -0.7824  0.2841 -0.2967
 4003SOL    HW122478   5.073   8.126   1.684 -1.3361  0.9543 -1.1867
 4003SOL    HW222479   5.120   8.183   1.830 -1.0560 -1.0860 -0.4604
 4004SOL     OW22480   4.243   0.519   0.976 -0.0802  0.0417 -0.5887
 4004SOL    HW122481   4.192   0.604   0.959 -0.7581  0.1600  1.7416
 4004SOL    HW222482   4.329   0.521   0.926 -0.0897  2.1199 -0.5745
 4005SOL     OW22483   3.655   1.064   4.041 -0.5826  0.1693 -0.1270
 4005SOL    HW122484   3.673   1.102   3.950 -0.3939 -0.3059 -0.2873
 4005SOL    HW222485   3.556   1.058   4.056 -0.6268  1.7345  0.3199
 4006SOL     OW22486   0.317   3.792   1.035  0.4981 -0.5356  0.3987
 4006SOL    HW122487   0.357   3.819   0.947  2.5426 -1.0870  1.1178
 4006SOL    HW222488   0.369   3.716   1.073  0.4532  0.5384  2.7047
 4007SOL     OW22489   8.759   8.515   1.959  0.7078  0.2345  0.2530
 4007SOL    HW122490   8.666   8.487   1.984  0.4892  1.1537  0.4858
 4007SOL    HW222491   8.810   8.539   2.042  0.6035  1.3815  0.0003
 4008SOL     OW22492   9.408   1.224   2.627  0.1608  0.1445 -0.0081
 4008SOL    HW122493   9.330   1.263   2.675 -1.5207 -2.3255 -0.6228
 4008SOL    HW222494   9.466   1.175   2.691 -0.6666 -0.9333 -0.0738
 4009SOL     OW22495   3.079   2.781   2.068  0.3508  0.0562  0.0318
 4009SOL    HW122496   3.168   2.741   2.087  0.5959 -0.2010 -1.5731
 4009SOL    HW222497   3.088   2.849   1.996 -0.9024 -0.6656 -0.8247
 4010SOL     OW22498   3.790   5.177   2.283 -0.6989  0.0074  0.3238
 4010SOL    HW122499   3.700   5.202   2.318 -0.1915 -0.4712  1.9889
 4010SOL    HW222500   3.810   5.082   2.307  0.5040  0.2921  0.4593
 4011SOL     OW22501   8.805   3.908   1.961 -0.0675  0.5621  0.3754
 4011SOL    HW122502   8.729   3.971   1.946 -0.7562 -0.3844 -0.1471
 4011SOL    HW222503   8.772   3.827   2.010  0.7640  0.5057  0.8501
 4012SOL     OW22504   2.726   8.443   1.751 -0.1851  0.2513  0.1824
 4012SOL    HW122505   2.816   8.399   1.749 -0.7304 -1.0254  2.0431
 4012SOL    HW222506   2.655   8.372   1.751 -1.1082  1.1220  2.2937
 4013SOL     OW22507   5.089   2.854   0.451 -0.1002 -0.0529 -0.3773
 4013SOL    HW122508   4.990   2.861   0.448 -0.1075 -0.1718 -0.3975
 4013SOL    HW222509   5.116   2.802   0.532 -0.0768 -0.4596 -0.6448
 4014SOL     OW22510   9.252   7.589   3.646  0.1289  0.2904 -0.1621
 4014SOL    HW122511   9.192   7.660   3.680 -0.3531 -2.0690  4.2745
 4014SOL    HW222512   9.346   7.622   3.644 -0.4215  1.8473 -0.7176
 4015SOL     OW22513   3.460   3.275   3.333  0.3478 -0.0599 -0.5317
 4015SOL    HW122514   3.378   3.326   3.360  0.5666 -0.0678  0.1620
 4015SOL    HW222515   3.536   3.301   3.392  0.9258  0.1761 -1.3789
 4016SOL     OW22516   9.215   4.829   1.643 -0.3451 -0.5099 -0.4952
 4016SOL    HW122517   9.192   4.743   1.689 -0.1334 -0.9439 -1.1973
 4016SOL    HW222518   9.279   4.811   1.568 -0.2575  0.2671 -0.6085
 4017SOL     OW22519   1.062   0.201   3.395 -0.6594  0.1883  0.3495
 4017SOL    HW122520   1.030   0.242   3.309 -1.4837 -0.8832  0.1343
 4017SOL    HW222521   1.013   0.116   3.411  0.1064 -0.0493  1.4619
 4018SOL     OW22522   3.933   0.156   1.427 -0.0487 -0.4761 -0.0906
 4018SOL    HW122523   3.966   0.149   1.521 -1.1405 -2.9006  0.1633
 4018SOL    HW222524   4.005   0.191   1.368  1.0866 -0.2479  1.4095
 4019SOL     OW22525   5.216   8.627   1.535 -0.1192  0.9680 -0.1869
 4019SOL    HW122526   5.187   8.532   1.550  0.2820  0.8378 -0.2424
 4019SOL    HW222527   5.141   8.688   1.560 -0.5298  0.6176 -0.5619
 4020SOL     OW22528   1.661   2.304   2.928 -0.7079 -0.3456  0.5994
 4020SOL    HW122529   1.717   2.227   2.896 -1.8336 -1.8840  2.2416
 4020SOL    HW222530   1.564   2.283   2.912 -0.9673  1.2034  0.0965
 4021SOL     OW22531   0.214   1.766   1.216  0.2075  0.2019 -0.0889
 4021SOL    HW122532   0.276   1.799   1.286  0.1164 -1.3037  0.7283
 4021SOL    HW222533   0.121   1.757   1.254 -0.0640  0.4289 -0.6968
 4022SOL     OW22534   2.838   3.806   3.634  0.7034 -0.2281 -0.3118
 4022SOL    HW122535   2.749   3.849   3.647 -0.2784 -2.1614 -0.3520
 4022SOL    HW222536   2.908   3.876   3.621 -0.5351  1.3614  1.3995
 4023SOL     OW22537   9.281   1.435   3.888 -0.2521 -0.2618 -0.1072
 4023SOL    HW122538   9.198   1.418   3.835 -1.1048 -0.2104  1.1938
 4023SOL    HW222539   9.273   1.391   3.978  0.6257  0.7496  0.4797
 4024SOL     OW22540   1.933   8.635   3.603 -0.2002  0.6082 -0.0452
 4024SOL    HW122541   1.940   8.640   3.503 -1.9979  1.2644 -0.1633
 4024SOL    HW222542   1.932   8.728   3.641  0.9900  0.3519  0.6321
 4025SOL     OW22543   1.596   8.222   1.381 -0.1880 -0.3626 -0.3789
 4025SOL    HW122544   1.513   8.187   1.425 -1.6277  0.4322 -2.3770
 4025SOL    HW222545   1.633   8.152   1.320  0.8574 -0.8608  0.8129
 4026SOL     OW22546   0.684   9.374   2.526 -0.6937  0.6038 -0.3213
 4026SOL    HW122547   0.739   9.458   2.526 -0.3515  0.3855 -0.6971
 4026SOL    HW222548   0.745   9.295   2.520 -1.0189  0.3290 -0.0260
 4027SOL     OW22549   1.083   4.748   1.352  0.2304  0.1169  0.3834
 4027SOL    HW122550   1.141   4.729   1.431  1.4203 -0.5088 -0.6256
 4027SOL    HW222551   1.135   4.800   1.284 -0.9840  1.2354  0.2832
 4028SOL     OW22552   9.190   0.867   0.208  0.4528  0.4448 -0.1381
 4028SOL    HW122553   9.269   0.860   0.269  1.5535 -1.4302 -1.7248
 4028SOL    HW222554   9.220   0.864   0.113 -1.5091 -0.1232 -0.7677
 4029SOL     OW22555   1.936   6.796   0.645  0.2908  0.3415 -0.2730
 4029SOL    HW122556   1.997   6.866   0.682  1.2277  0.1492 -1.4117
 4029SOL    HW222557   1.866   6.840   0.588  0.4096  0.4263 -0.3554
 4030SOL     OW22558   9.665   0.182   3.532  0.9748  0.1172 -0.1444
 4030SOL    HW122559   9.757   0.189   3.572  0.9174  3.0605 -0.4062
 4030SOL    HW222560   9.600   0.229   3.592  0.0238  0.0248 -1.1001
 4031SOL     OW22561   1.650   6.445   3.292  0.5864 -0.0479 -0.2239
 4031SOL    HW122562   1.714   6.475   3.363 -1.3217 -0.7608  1.8677
 4031SOL    HW222563   1.669   6.351   3.267  1.4088  0.2769 -0.8195
 4032SOL     OW22564   0.604   0.379   0.809  0.2834 -0.1461  0.2357
 4032SOL    HW122565   0.636   0.294   0.766  1.2082  0.3349 -0.0435
 4032SOL    HW222566   0.606   0.369   0.908  1.4355 -0.0855  0.2263
 4033SOL     OW22567   4.464   8.414   0.155  1.2082 -0.3918 -0.6490
 4033SOL    HW122568   4.438   8.331   0.107  1.9425  1.0817 -3.6996
 4033SOL    HW222569   4.463   8.492   0.092  2.9881  1.4943  1.5177
 4034SOL     OW22570   3.824   3.410   0.827 -0.3736  0.0510 -0.2551
 4034SOL    HW122571   3.852   3.498   0.866  1.8620 -0.6568 -0.1763
 4034SOL    HW222572   3.850   3.336   0.889  0.0172 -0.8447 -1.4680
 4035SOL     OW22573   7.964   0.139   2.421 -0.5600  0.5229 -0.5654
 4035SOL    HW122574   7.912   0.137   2.507 -0.2533  0.8224 -0.3705
 4035SOL    HW222575   7.956   0.230   2.380 -0.1130  0.6035 -0.4821
 4036SOL     OW22576   2.796   6.373   3.720 -0.1173 -0.4392 -0.1435
 4036SOL    HW122577   2.784   6.324   3.806  0.0944  0.1372  0.2117
 4036SOL    HW222578   2.781   6.471   3.734  0.4234 -0.2777 -0.6578
 4037SOL     OW22579   8.689   2.047   1.318 -0.5008  0.1066 -0.6406
 4037SOL    HW122580   8.656   1.984   1.247 -2.0404  0.4740 -0.2779
 4037SOL    HW222581   8.667   2.009   1.408 -1.0773  0.9626 -0.4138
 4038SOL     OW22582   0.163   8.191   3.121  0.3815 -0.5798  0.1635
 4038SOL    HW122583   0.099   8.264   3.145 -0.9952 -1.5046 -0.6292
 4038SOL    HW222584   0.112   8.106   3.107  1.9053 -1.5782  0.5534
 4039SOL     OW22585   3.054   1.144   1.885 -0.1402  0.5149 -0.0481
 4039SOL    HW122586   3.106   1.229   1.891  1.2793 -0.2764 -0.8107
 4039SOL    HW222587   3.026   1.129   1.790  0.4889 -0.3615 -0.1043
 4040SOL     OW22588   0.404   2.737   1.159  0.2302  0.2788  0.2808
 4040SOL    HW122589   0.364   2.826   1.182 -2.1685 -1.0031  1.1872
 4040SOL    HW222590   0.355   2.697   1.082  0.2889 -0.9751  0.8868
 4041SOL     OW22591   0.974   8.900   0.996  0.3069 -0.1247 -0.6069
 4041SOL    HW122592   0.916   8.959   1.052 -0.6735  0.1666 -1.9006
 4041SOL    HW222593   1.001   8.820   1.049 -0.7158  0.0822  0.2489
 4042SOL     OW22594   9.242   0.050   2.235 -0.2129 -0.2502  0.5079
 4042SOL    HW122595   9.306   0.070   2.161  0.0491  1.1306  1.0844
 4042SOL    HW222596   9.190  -0.032   2.213  0.5507 -0.4141 -0.7520
 4043SOL     OW22597   3.628   5.627   3.781  0.2051 -0.9171 -0.2512
 4043SOL    HW122598   3.715   5.676   3.791  0.2205 -1.1914  1.0471
 4043SOL    HW222599   3.555   5.680   3.823 -0.4729 -0.1461 -2.3474
 4044SOL     OW22600   2.975   8.499   0.761 -0.4665 -0.5152 -0.0134
 4044SOL    HW122601   2.931   8.444   0.832  0.9476 -2.0498 -0.2873
 4044SOL    HW222602   3.074   8.502   0.777 -0.3421  0.6257 -0.9218
 4045SOL     OW22603   1.498   0.512   3.285  0.4595  0.4296 -0.2076
 4045SOL    HW122604   1.528   0.417   3.299  0.2731  0.6388  1.7510
 4045SOL    HW222605   1.524   0.567   3.364 -3.4688  1.0047  0.7864
 4046SOL     OW22606   7.406   9.501   3.261  0.0263 -0.5840 -0.2095
 4046SOL    HW122607   7.313   9.466   3.269  0.0822 -0.8265 -0.6025
 4046SOL    HW222608   7.431   9.507   3.165  0.0886  0.3475 -0.1358
 4047SOL     OW22609   0.948   1.903   1.538  0.1090  0.3563  0.1832
 4047SOL    HW122610   0.996   1.815   1.530  1.0876  0.9092 -0.1209
 4047SOL    HW222611   0.888   1.901   1.618  1.5342  0.0651  1.2706
 4048SOL     OW22612   8.562   8.823   2.875  0.3203 -0.6010  0.3464
 4048SOL    HW122613   8.536   8.895   2.939 -0.0000 -0.6901  0.3178
 4048SOL    HW222614   8.661   8.822   2.864  0.5012 -1.5078  1.9408
 4049SOL     OW22615   3.128   5.994   1.590  0.0523 -0.1638 -0.1607
 4049SOL    HW122616   3.037   6.023   1.620  0.3880 -0.3682  1.1165
 4049SOL    HW222617   3.120   5.924   1.520 -0.7779 -0.6495  0.4182
 4050SOL     OW22618   1.027   3.559   1.524 -0.1267  0.3289 -0.3735
 4050SOL    HW122619   1.103   3.616   1.555 -0.1134  0.1430 -0.0588
 4050SOL    HW222620   1.008   3.578   1.428  1.0652 -0.4487 -0.7741
 4051SOL     OW22621   2.721   6.084   1.945  0.7773  0.0809  0.3823
 4051SOL    HW122622   2.667   6.108   1.865  1.2196  0.0354  0.0711
 4051SOL    HW222623   2.779   6.161   1.971  2.0099 -0.5381 -0.4643
 4052SOL     OW22624   0.183   3.520   3.479 -0.0580 -0.1848 -0.5901
 4052SOL    HW122625   0.150   3.595   3.421  1.9759  0.5059 -0.8983
 4052SOL    HW222626   0.214   3.556   3.567 -0.1021 -0.8041 -0.3191
 4053SOL     OW22627   2.776   4.237   0.478  0.1968  0.4232  0.1290
 4053SOL    HW122628   2.823   4.326   0.478 -1.1643  1.1606 -0.3103
 4053SOL    HW222629   2.751   4.213   0.385  0.3615 -0.3273  0.2761
 4054SOL     OW22630   9.954   4.617   0.858  0.3097  0.1029  0.1295
 4054SOL    HW122631   9.969   4.533   0.910  0.8219 -0.8574 -1.5411
 4054SOL    HW222632   9.914   4.595   0.769  0.5980  1.6096 -0.3966
 4055SOL     OW22633   3.100   4.125   2.771  0.0351  0.3774 -0.3191
 4055SOL    HW122634   3.167   4.139   2.844  1.3561 -0.1792 -1.3738
 4055SOL    HW222635   3.010   4.107   2.810  1.2939 -2.8545  1.2258
 4056SOL     OW22636   1.703   3.441   0.446 -0.0340  0.1684 -0.4994
 4056SOL    HW122637   1.630   3.419   0.382 -1.5339 -0.5056  1.3863
 4056SOL    HW222638   1.664   3.487   0.526  1.4139 -1.4356  1.1646
 4057SOL     OW22639   3.395   4.087   2.387 -0.3577  0.4062  0.6813
 4057SOL    HW122640   3.314   4.043   2.425 -0.3082 -0.3101 -0.0269
 4057SOL    HW222641   3.473   4.072   2.447 -1.1959  2.9383  2.4851
 4058SOL     OW22642   4.155   6.791   1.601 -0.2164  0.3016  0.4926
 4058SOL    HW122643   4.242   6.742   1.586 -0.1198  0.8470 -0.8277
 4058SOL    HW222644   4.087   6.727   1.637  0.2591 -0.5328 -0.0520
 4059SOL     OW22645   4.819   2.418   1.463 -0.0370 -0.1917  0.2297
 4059SOL    HW122646   4.890   2.382   1.402 -0.9998 -1.3309 -0.2130
 4059SOL    HW222647   4.841   2.514   1.484 -0.2943  0.6147 -2.8506
 4060SOL     OW22648   8.653   6.423   3.164 -0.1100  0.0833 -0.5103
 4060SOL    HW122649   8.619   6.511   3.197  2.5148  1.0280 -0.1923
 4060SOL    HW222650   8.634   6.352   3.232  0.7810  1.0588  0.7793
 4061SOL     OW22651   2.481   0.866   1.106  0.0397  0.0122 -0.5351
 4061SOL    HW122652   2.385   0.839   1.107  0.0608 -0.0626 -0.4092
 4061SOL    HW222653   2.520   0.848   1.015 -0.2727  0.8022 -0.8256
 4062SOL     OW22654   1.221   5.991   3.545  0.2851  0.4548  0.0907
 4062SOL    HW122655   1.185   6.027   3.459 -0.8645 -2.2694 -0.6119
 4062SOL    HW222656   1.308   5.944   3.528  0.3934  0.4998  0.5240
 4063SOL     OW22657   0.925   7.946   1.175  0.2340 -0.1219  0.2006
 4063SOL    HW122658   0.926   7.856   1.219  2.2760 -0.2539 -0.0605
 4063SOL    HW222659   0.897   8.015   1.242 -1.4482 -0.9413  0.3740
 4064SOL     OW22660   4.805   2.650   0.637 -0.5046 -0.9720 -0.4633
 4064SOL    HW122661   4.877   2.653   0.706 -0.2743 -2.4481 -0.6279
 4064SOL    HW222662   4.798   2.739   0.592 -1.0459  0.1784  1.8437
 4065SOL     OW22663   8.031   8.544   3.175  0.3956 -0.7151  0.0599
 4065SOL    HW122664   7.956   8.556   3.110 -0.1021 -0.4467  0.6716
 4065SOL    HW222665   8.073   8.454   3.162  1.7986  0.2296 -2.1510
 4066SOL     OW22666   1.929   9.519   3.701 -0.7093  0.0958  0.2082
 4066SOL    HW122667   1.872   9.548   3.778 -0.3400 -0.9479  0.8887
 4066SOL    HW222668   1.961   9.425   3.717  1.4263  0.7629 -0.0067
 4067SOL     OW22669   4.668   9.220   0.318 -0.0663 -0.3822 -0.2385
 4067SOL    HW122670   4.617   9.294   0.274 -0.7416 -2.0409 -2.3557
 4067SOL    HW222671   4.611   9.137   0.319  1.1358 -1.2095  0.9558
 4068SOL     OW22672   2.819   5.669   0.907 -0.4558 -0.2314  0.4670
 4068SOL    HW122673   2.731   5.687   0.864 -0.6051 -2.1272 -0.0622
 4068SOL    HW222674   2.852   5.578   0.879  1.6272  0.4187  0.7084
 4069SOL     OW22675   9.607   4.409   2.808 -0.2531 -0.0192 -0.4689
 4069SOL    HW122676   9.522   4.378   2.764  0.2064  0.7725 -1.9357
 4069SOL    HW222677   9.680   4.414   2.740  0.7002  0.3683  0.5683
 4070SOL     OW22678   0.525   3.230   2.753  0.9782  0.9820  0.4186
 4070SOL    HW122679   0.458   3.300   2.776  0.8207  1.6351 -1.8905
 4070SOL    HW222680   0.617   3.269   2.760  0.8285  2.0065 -2.5454
 4071SOL     OW22681   2.604   4.376   2.665  0.3281 -0.2361 -0.7066
 4071SOL    HW122682   2.546   4.451   2.635  1.3379  0.6447 -0.5144
 4071SOL    HW222683   2.580   4.350   2.759  1.6140  1.5390  0.1401
 4072SOL     OW22684   9.798   6.819   0.142  0.1521  0.0989 -0.7906
 4072SOL    HW122685   9.800   6.914   0.110  0.8076  0.1647 -0.5475
 4072SOL    HW222686   9.703   6.794   0.164  0.4693  2.0522  3.1736
 4073SOL     OW22687   9.065   7.867   1.201  0.2409 -0.6198 -0.3888
 4073SOL    HW122688   9.147   7.913   1.166  0.4378 -0.0167  0.8573
 4073SOL    HW222689   9.087   7.772   1.222  0.9667 -0.1147  1.1778
 4074SOL     OW22690   0.142   5.276   3.849 -0.3277 -0.1429  0.4264
 4074SOL    HW122691   0.147   5.240   3.942 -0.5760  0.9444  0.8702
 4074SOL    HW222692   0.053   5.319   3.835  0.0388  0.4654 -0.0349
 4075SOL     OW22693   3.173   8.700   2.567 -0.9187  0.1434  0.3928
 4075SOL    HW122694   3.097   8.639   2.591 -0.6565 -0.7967 -1.0956
 4075SOL    HW222695   3.140   8.773   2.507 -1.4635  2.1744  3.0687
 4076SOL     OW22696   3.991   7.430   3.003 -0.2931  0.0013 -0.4622
 4076SOL    HW122697   4.021   7.349   3.054 -2.1577 -0.9042 -0.7538
 4076SOL    HW222698   3.919   7.476   3.054  0.7569  1.4888 -0.3048
 4077SOL     OW22699   2.867   7.485   2.664 -0.3267  0.6012  0.8247
 4077SOL    HW122700   2.845   7.463   2.759 -0.0476 -0.6962  0.5963
 4077SOL    HW222701   2.950   7.435   2.637  0.4885  2.1543  0.3776
 4078SOL     OW22702   3.335   4.994   1.818 -0.2797 -0.6013  0.4371
 4078SOL    HW122703   3.277   4.923   1.859 -0.7100 -1.1479 -1.0664
 4078SOL    HW222704   3.283   5.043   1.748  0.5221  0.1335  0.3420
 4079SOL     OW22705   9.184   9.994   1.468  0.2435 -1.0704  0.2044
 4079SOL    HW122706   9.178   9.960   1.374  0.6044 -1.1791  0.2186
 4079SOL    HW222707   9.248  10.071   1.472 -1.5861  0.5155 -0.0738
 4080SOL     OW22708   2.881   6.582   2.905  0.4621 -0.4869  0.5599
 4080SOL    HW122709   2.822   6.516   2.951 -0.1711  0.6581  1.4171
 4080SOL    HW222710   2.931   6.536   2.831 -4.1128 -0.8248 -2.5205
 4081SOL     OW22711   0.274   2.677   3.073 -0.3496 -0.4324 -0.3398
 4081SOL    HW122712   0.242   2.614   3.003  1.1212  0.4642 -1.8726
 4081SOL    HW222713   0.313   2.759   3.029  0.2422  0.3247  1.5257
 4082SOL     OW22714   2.401   9.173   3.875 -0.1519 -0.1651 -0.1114
 4082SOL    HW122715   2.376   9.080   3.902 -0.6469 -0.1231 -0.4122
 4082SOL    HW222716   2.493   9.173   3.836 -0.8753 -0.8496 -1.8416
 4083SOL     OW22717   2.468   0.383   3.680  0.5197  0.0765  0.1953
 4083SOL    HW122718   2.436   0.293   3.710 -1.0063  0.6518  0.3410
 4083SOL    HW222719   2.458   0.448   3.755  1.7055  0.3459  0.1162
 4084SOL     OW22720   4.438   9.032   2.574  0.1488 -0.4393 -0.1075
 4084SOL    HW122721   4.474   9.030   2.667  1.3112  0.0701 -0.5332
 4084SOL    HW222722   4.346   8.993   2.573 -0.4842  0.9587  1.5009
 4085SOL     OW22723   9.953   1.799   2.632 -0.1821  0.0329 -0.0039
 4085SOL    HW122724   9.907   1.873   2.582  0.2689  0.4468  0.1953
 4085SOL    HW222725   9.956   1.718   2.574 -0.5008  0.2258 -0.3017
 4086SOL     OW22726   2.493   1.693   1.530  0.3749  0.0864 -0.1457
 4086SOL    HW122727   2.510   1.778   1.580 -0.5406 -0.4141  1.0458
 4086SOL    HW222728   2.523   1.704   1.435  1.5041  1.2819  0.3316
 4087SOL     OW22729   1.467   3.024   3.647 -0.6423 -0.8501 -0.6357
 4087SOL    HW122730   1.403   3.001   3.574  0.7529 -1.9553 -1.5437
 4087SOL    HW222731   1.559   3.032   3.610 -0.2401  0.7176  0.6541
 4088SOL     OW22732   7.736   8.089   2.467 -0.5319 -0.4094 -0.6116
 4088SOL    HW122733   7.703   8.110   2.375 -1.3056 -1.1957 -0.5234
 4088SOL    HW222734   7.685   8.011   2.504  2.2992 -2.5319 -0.9755
 4089SOL     OW22735   0.556   0.202   1.797 -0.4293  0.1090 -0.6684
 4089SOL    HW122736   0.462   0.237   1.800 -0.1456  0.8969 -0.8182
 4089SOL    HW222737   0.555   0.106   1.769 -1.0477  0.7133 -2.8326
 4090SOL     OW22738   0.215   0.028   2.560  0.7923 -0.1883  0.4311
 4090SOL    HW122739   0.158   0.040   2.641  2.2418  0.2802  1.3974
 4090SOL    HW222740   0.294  -0.029   2.582  0.4428 -1.2811 -1.0310
 4091SOL     OW22741   9.585   0.738   2.908  0.1339 -0.2668  0.1969
 4091SOL    HW122742   9.529   0.821   2.909 -2.0669 -1.7132 -0.4425
 4091SOL    HW222743   9.605   0.712   2.814  1.6666  0.0743  0.4175
 4092SOL     OW22744   3.791   5.591   1.931 -0.2310  0.2343 -0.1752
 4092SOL    HW122745   3.782   5.672   1.990 -0.0750  0.0353  0.1217
 4092SOL    HW222746   3.737   5.516   1.968 -1.9607  0.7779 -1.5064
 4093SOL     OW22747   8.521   3.332   3.433 -0.0388  0.1396  0.6415
 4093SOL    HW122748   8.612   3.335   3.476 -0.0035 -0.7023  0.6473
 4093SOL    HW222749   8.451   3.351   3.502  0.0809 -0.1868  0.8577
 4094SOL     OW22750   0.946   4.360   2.581  0.2493 -1.0128  0.2692
 4094SOL    HW122751   1.010   4.365   2.504  1.4995  0.5212  1.3918
 4094SOL    HW222752   0.991   4.392   2.664 -1.6467 -0.9571  1.2955
 4095SOL     OW22753   1.040   9.424   0.837 -1.0696 -0.3827  0.6448
 4095SOL    HW122754   1.058   9.522   0.850  0.2558 -0.5735  0.3132
 4095SOL    HW222755   1.045   9.378   0.926 -0.7488 -0.2917  0.6780
 4096SOL     OW22756   4.185   7.993   0.561 -0.4181  0.3037  0.2255
 4096SOL    HW122757   4.205   7.896   0.573 -1.0046  0.1368 -0.1452
 4096SOL    HW222758   4.141   8.007   0.472 -1.1043  0.8023  0.6445
 4097SOL     OW22759   1.538   4.451   1.593  0.5449 -0.2603  0.1801
 4097SOL    HW122760   1.589   4.489   1.516  1.3740 -1.1547  0.2820
 4097SOL    HW222761   1.600   4.435   1.670  0.4191 -2.7587 -0.1941
 4098SOL     OW22762   4.350   8.996   2.891  0.4734 -0.0119 -0.6003
 4098SOL    HW122763   4.287   9.073   2.881 -0.6567 -0.9388 -0.7014
 4098SOL    HW222764   4.444   9.029   2.886  0.0304  1.6340  1.2140
 4099SOL     OW22765   2.026   9.722   0.372  0.6647  0.6742  0.9501
 4099SOL    HW122766   2.117   9.696   0.339 -0.1834 -1.8671  0.5047
 4099SOL    HW222767   2.003   9.813   0.337  2.6119  0.9248  0.2484
 4100SOL     OW22768   8.856   3.024   3.603 -0.3367  0.5641 -0.7060
 4100SOL    HW122769   8.820   2.969   3.679 -0.4589  0.9477 -0.4869
 4100SOL    HW222770   8.812   2.994   3.518 -0.7812  0.6632 -0.5156
 4101SOL     OW22771   0.371   3.561   0.360 -0.3164 -0.5317  0.7597
 4101SOL    HW122772   0.303   3.561   0.288  0.6444  1.4678 -0.1727
 4101SOL    HW222773   0.462   3.542   0.321  0.1719  0.3120  1.4537
 4102SOL     OW22774   1.119   3.150   0.866 -0.7644  0.1951  0.0730
 4102SOL    HW122775   1.144   3.131   0.961  0.1638 -1.4514 -0.4646
 4102SOL    HW222776   1.199   3.184   0.817 -1.4598  1.8435  0.0811
 4103SOL     OW22777   9.467   5.277   4.000  0.0113  0.3139  0.2209
 4103SOL    HW122778   9.390   5.265   3.936  1.6401  1.5004 -2.0275
 4103SOL    HW222779   9.530   5.200   3.990 -0.4375 -0.2101  1.4243
 4104SOL     OW22780   9.146   5.973   2.982 -0.4992  0.4372 -0.3173
 4104SOL    HW122781   9.155   6.005   2.888  1.7092  1.0672  0.0588
 4104SOL    HW222782   9.134   6.052   3.043 -0.8362  0.1224  0.0231
 4105SOL     OW22783   1.972   4.348   0.123 -0.3683  0.0513 -0.2130
 4105SOL    HW122784   1.931   4.434   0.094 -0.4745 -0.1933 -0.7994
 4105SOL    HW222785   2.053   4.329   0.067 -0.0786 -0.0083  0.2167
 4106SOL     OW22786   1.806   2.819   0.630  0.1177 -0.1829  0.0667
 4106SOL    HW122787   1.813   2.723   0.656  0.0443  0.1967  1.5426
 4106SOL    HW222788   1.725   2.859   0.672  0.0496  0.4740 -0.6890
 4107SOL     OW22789   1.564   7.434   1.097  0.6918 -0.6601 -0.0013
 4107SOL    HW122790   1.535   7.356   1.153 -0.8063  0.7401  1.2292
 4107SOL    HW222791   1.656   7.417   1.061  1.3013 -2.0109  2.1143
 4108SOL     OW22792   2.881   9.764   0.334 -0.1641 -0.3132 -0.1897
 4108SOL    HW122793   2.912   9.837   0.394  1.9533  0.1700 -1.8157
 4108SOL    HW222794   2.821   9.802   0.264  1.3852  0.0100 -1.3751
 4109SOL     OW22795   0.290   4.837   1.492  0.2140  0.3541  0.4835
 4109SOL    HW122796   0.260   4.742   1.482 -0.2128  0.6216 -0.9032
 4109SOL    HW222797   0.387   4.838   1.516  0.0732 -0.4413  1.1139
 4110SOL     OW22798   8.749   1.089   2.899  0.0813 -0.2242  0.8192
 4110SOL    HW122799   8.760   1.075   2.997  0.8272 -0.8370  0.6562
 4110SOL    HW222800   8.685   1.163   2.882  0.4156  0.2835  1.7763
 4111SOL     OW22801   0.096   4.761   0.447 -0.1574 -0.4930  0.1205
 4111SOL    HW122802   0.067   4.792   0.537 -0.0217  0.3800 -0.1311
 4111SOL    HW222803   0.017   4.755   0.387 -0.1345 -0.2859  0.0690
 4112SOL     OW22804   8.181   6.028   3.622 -0.0807  0.1725 -0.5266
 4112SOL    HW122805   8.273   6.054   3.651 -0.7383  0.8919  0.9621
 4112SOL    HW222806   8.166   5.931   3.643 -0.4461  0.6118  1.3092
 4113SOL     OW22807   9.325   3.106   1.720  0.1875 -0.0584 -0.3712
 4113SOL    HW122808   9.350   3.028   1.777 -0.7424  1.1754  1.8078
 4113SOL    HW222809   9.309   3.075   1.626  3.0054 -1.9328 -0.2937
 4114SOL     OW22810   0.387   1.890   1.390 -0.4095 -0.6661  0.2622
 4114SOL    HW122811   0.377   1.967   1.453  1.3958  0.1415 -0.4387
 4114SOL    HW222812   0.476   1.893   1.346 -1.4900 -1.4541 -2.0607
 4115SOL     OW22813   0.683   1.138   3.291  0.4114 -0.1323 -0.2521
 4115SOL    HW122814   0.618   1.111   3.362 -0.8959  1.1866 -0.9178
 4115SOL    HW222815   0.727   1.057   3.253 -1.2334 -1.0990 -0.1305
 4116SOL     OW22816   0.200   0.483   3.635  0.1397 -0.1333 -0.4100
 4116SOL    HW122817   0.253   0.468   3.552  1.9336  1.3068  0.4400
 4116SOL    HW222818   0.239   0.559   3.686 -3.3351  1.6113 -0.2071
 4117SOL     OW22819   9.095   2.332   2.694 -0.1387 -0.0969  0.3198
 4117SOL    HW122820   9.032   2.401   2.658  0.9029  1.3090  1.1402
 4117SOL    HW222821   9.082   2.246   2.645 -1.6888  0.5875 -0.4914
 4118SOL     OW22822   4.790   2.933   0.520 -0.4393 -0.2391 -0.1208
 4118SOL    HW122823   4.690   2.933   0.526 -0.6846  0.2189 -3.0932
 4118SOL    HW222824   4.823   3.027   0.512  0.2415 -0.3881  0.8514
 4119SOL     OW22825   2.832   4.438   2.526  0.2304 -0.0356  0.1174
 4119SOL    HW122826   2.749   4.407   2.573 -0.7080  0.5528 -1.1292
 4119SOL    HW222827   2.904   4.368   2.536 -1.4919 -2.1400 -1.7182
 4120SOL     OW22828   7.282   2.108   0.417  0.1664  0.6656  0.6195
 4120SOL    HW122829   7.317   2.201   0.432  0.9997  0.6453 -1.1601
 4120SOL    HW222830   7.352   2.042   0.442 -0.1385  0.5252  1.1124
 4121SOL     OW22831   3.597   8.381   0.524 -0.3114  0.0694 -0.2033
 4121SOL    HW122832   3.528   8.445   0.488 -0.1001  1.4365  1.7141
 4121SOL    HW222833   3.552   8.308   0.574 -0.4437  0.2279 -0.0890
 4122SOL     OW22834   6.574   8.827   1.992  0.2936  0.2612  0.0852
 4122SOL    HW122835   6.483   8.832   2.032  1.2853 -1.6678  2.7863
 4122SOL    HW222836   6.572   8.774   1.908 -1.0746  0.1620  0.1792
 4123SOL     OW22837   2.767   0.659   3.229 -0.9008 -0.4217 -0.3139
 4123SOL    HW122838   2.848   0.717   3.233 -0.6638 -0.6926 -1.0335
 4123SOL    HW222839   2.685   0.716   3.235 -0.6620 -0.0719 -0.3597
 4124SOL     OW22840   8.697   6.249   0.991  0.4067 -0.1358 -0.1774
 4124SOL    HW122841   8.736   6.331   0.950 -0.1014 -0.2611 -0.9242
 4124SOL    HW222842   8.690   6.177   0.922 -0.6513 -0.2883  0.0754
 4125SOL     OW22843   4.086   9.163   2.104  0.1719 -0.0351 -0.0762
 4125SOL    HW122844   4.041   9.235   2.157  0.3401 -0.1909  0.2850
 4125SOL    HW222845   4.050   9.074   2.132  1.0485 -0.1981  0.5753
 4126SOL     OW22846   0.452   9.092   3.790 -0.4425  0.1373 -0.2601
 4126SOL    HW122847   0.473   9.190   3.789 -0.7671  0.2649  2.5284
 4126SOL    HW222848   0.505   9.046   3.718 -0.0124  2.2863 -1.3503
 4127SOL     OW22849   2.397   0.512   0.134  0.3120 -0.4048  0.5295
 4127SOL    HW122850   2.442   0.466   0.057 -1.7739  0.8947 -1.5427
 4127SOL    HW222851   2.418   0.610   0.131 -1.5077 -0.0013  0.3256
 4128SOL     OW22852   8.714   5.085   0.992 -0.0522 -0.3094 -0.3899
 4128SOL    HW122853   8.648   5.051   0.925 -2.0749  0.3493  1.2364
 4128SOL    HW222854   8.666   5.115   1.074  2.0324  2.5522 -0.1420
 4129SOL     OW22855   3.065   2.048   1.916  0.4963 -0.0879 -0.2735
 4129SOL    HW122856   3.098   2.039   2.010 -0.1674  1.1306  0.0971
 4129SOL    HW222857   3.079   2.142   1.885 -4.3132  1.0422  0.6085
 4130SOL     OW22858   8.134   9.684   2.538 -0.0459 -0.0049 -0.1363
 4130SOL    HW122859   8.150   9.778   2.567  2.2062 -0.7884  1.3263
 4130SOL    HW222860   8.149   9.677   2.439 -0.7393  1.2606 -0.3413
 4131SOL     OW22861   6.848   9.221   1.065 -0.0049  0.6714  0.1580
 4131SOL    HW122862   6.757   9.224   1.106  0.4164 -0.3959  1.1995
 4131SOL    HW222863   6.906   9.289   1.109 -0.6149  2.1911 -1.3314
 4132SOL     OW22864   9.423   4.988   2.226 -0.6216 -0.4475 -0.0373
 4132SOL    HW122865   9.425   4.993   2.126  2.4127 -0.5764 -0.0377
 4132SOL    HW222866   9.438   4.893   2.254 -2.5313 -0.5951  0.5609
 4133SOL     OW22867   6.172   9.062   2.158  0.2228 -0.1815 -0.0488
 4133SOL    HW122868   6.084   9.102   2.184  1.2741  2.6267 -0.6054
 4133SOL    HW222869   6.166   9.024   2.066 -1.0793 -2.2901  0.8758
 4134SOL     OW22870   1.672   8.871   0.244 -0.0348  0.2017 -0.8182
 4134SOL    HW122871   1.584   8.898   0.204 -0.4466 -1.8723 -1.3850
 4134SOL    HW222872   1.662   8.859   0.342 -0.6576 -0.9551 -1.0068
 4135SOL     OW22873   1.706   6.011   2.554  0.2343  0.5054  0.4138
 4135SOL    HW122874   1.732   6.012   2.458 -2.6475 -1.2039 -0.4523
 4135SOL    HW222875   1.698   6.105   2.588  1.6306  1.1115 -0.8608
 4136SOL     OW22876   1.437   3.891   2.947  0.0037 -0.0427  0.0969
 4136SOL    HW122877   1.350   3.901   2.994  0.2374 -0.0192  0.5284
 4136SOL    HW222878   1.421   3.873   2.850 -0.4680  0.4606  0.0827
 4137SOL     OW22879   3.447   8.223   0.688  0.0141  0.3433 -0.3929
 4137SOL    HW122880   3.434   8.300   0.750  0.0335 -0.1454  0.2291
 4137SOL    HW222881   3.482   8.144   0.740 -3.3773 -1.1966 -0.2663
 4138SOL     OW22882   3.509   0.256   0.956 -0.0651 -0.2533  0.3750
 4138SOL    HW122883   3.571   0.276   0.880  0.5239 -0.4691  0.8047
 4138SOL    HW222884   3.501   0.157   0.968 -0.5227 -0.2295  0.3021
 4139SOL     OW22885   1.680   5.552   2.213  0.0352 -0.9752  0.0639
 4139SOL    HW122886   1.640   5.610   2.142  0.8282  0.3041  0.6573
 4139SOL    HW222887   1.722   5.471   2.170  0.0713 -0.4594 -0.8811
 4140SOL     OW22888   3.807   9.312   1.826 -0.1318 -0.4935 -0.5260
 4140SOL    HW122889   3.831   9.220   1.795  0.7725  0.1236 -1.6832
 4140SOL    HW222890   3.711   9.330   1.805  0.1409 -0.5455 -1.8850
 4141SOL     OW22891   8.845   0.291   3.805 -0.0222 -0.2073 -0.2116
 4141SOL    HW122892   8.824   0.200   3.770  0.4064 -0.2156 -0.4467
 4141SOL    HW222893   8.937   0.292   3.844  0.4563  0.4500 -1.3379
 4142SOL     OW22894   2.697   9.976   3.668  0.1572 -0.4760  0.6890
 4142SOL    HW122895   2.642  10.055   3.697 -0.1306  0.3063 -1.8248
 4142SOL    HW222896   2.639   9.912   3.618  1.2702 -0.1792 -1.0309
 4143SOL     OW22897   4.719   4.151   0.655  0.1739  0.3496  0.6728
 4143SOL    HW122898   4.811   4.120   0.627 -0.3134 -1.8376  1.3599
 4143SOL    HW222899   4.658   4.148   0.576  0.8091  2.3813  0.0756
 4144SOL     OW22900   2.163   7.158   3.939  0.1506 -0.1130  0.2037
 4144SOL    HW122901   2.129   7.143   4.032 -0.0201 -1.7461 -0.1004
 4144SOL    HW222902   2.095   7.209   3.886 -0.7043 -1.0695  0.3644
 4145SOL     OW22903   8.340   3.224   3.268  0.0870  0.2585 -0.2051
 4145SOL    HW122904   8.422   3.255   3.316  0.0341  1.5143 -0.9019
 4145SOL    HW222905   8.264   3.286   3.288 -0.4729 -0.4031 -0.2497
 4146SOL     OW22906   7.244   0.115   2.681 -0.3489 -0.0850 -0.2270
 4146SOL    HW122907   7.263   0.070   2.593  0.5203 -2.3781  1.0917
 4146SOL    HW222908   7.209   0.047   2.746  0.2769  1.2987  1.5909
 4147SOL     OW22909   2.864   1.326   4.041 -0.6995  0.0910  0.6215
 4147SOL    HW122910   2.785   1.332   3.981  0.0740 -0.9598 -0.5195
 4147SOL    HW222911   2.857   1.395   4.112 -2.0769  0.7473 -0.1398
 4148SOL     OW22912   7.364   0.108   0.022 -0.2368 -0.3768  0.5307
 4148SOL    HW122913   7.287   0.089  -0.039  0.8242  0.7080 -1.2192
 4148SOL    HW222914   7.434   0.158  -0.029  0.7017  0.5312  2.6713
 4149SOL     OW22915   1.657   5.659   0.190  0.0377  0.0012  0.1930
 4149SOL    HW122916   1.705   5.613   0.115  0.2218 -1.9244  1.4395
 4149SOL    HW222917   1.560   5.670   0.166  0.2771  0.2051 -0.6894
 4150SOL     OW22918   6.213   0.086   1.971 -0.1745 -0.1254  0.3394
 4150SOL    HW122919   6.142   0.153   1.988 -0.3170 -0.4584  1.0661
 4150SOL    HW222920   6.219   0.022   2.048 -0.4962 -1.3550 -0.6377
 4151SOL     OW22921   1.662   2.849   2.161 -0.4862 -0.2794  0.3719
 4151SOL    HW122922   1.577   2.809   2.127 -0.2113 -0.8174  0.3093
 4151SOL    HW222923   1.723   2.870   2.085  0.9999 -3.4423  0.5869
 4152SOL     OW22924   3.650   0.584   0.417 -0.1157  0.2496  0.6015
 4152SOL    HW122925   3.580   0.634   0.366  0.0666  1.2184  1.2853
 4152SOL    HW222926   3.658   0.621   0.509  0.6981 -0.4150  0.8125
 4153SOL     OW22927   0.183   1.550   0.945 -0.3813  0.0357  0.5369
 4153SOL    HW122928   0.261   1.503   0.985  0.7302  0.2115 -1.3849
 4153SOL    HW222929   0.205   1.647   0.933 -1.1765  0.2388  0.6753
 4154SOL     OW22930   2.570   3.165   2.398 -0.1196 -0.9977 -0.7554
 4154SOL    HW122931   2.569   3.160   2.298  1.1170 -0.3442 -0.8049
 4154SOL    HW222932   2.477   3.151   2.432 -0.4672 -1.7371 -1.9668
 4155SOL     OW22933   3.474   5.746   2.771 -0.0930  0.3526  0.1874
 4155SOL    HW122934   3.498   5.842   2.789  1.4409 -0.3456  2.0413
 4155SOL    HW222935   3.388   5.723   2.816  0.1395  0.5461  0.7340
 4156SOL     OW22936   3.556   5.761   1.325  0.2944 -0.0670 -0.1567
 4156SOL    HW122937   3.544   5.735   1.421  1.8903 -1.7442 -0.3834
 4156SOL    HW222938   3.623   5.700   1.282 -2.4057 -1.0736 -3.0879
 4157SOL     OW22939   3.520   9.008   2.376 -0.2984 -0.4171 -0.1147
 4157SOL    HW122940   3.611   9.021   2.415  0.9526 -2.2629 -2.2755
 4157SOL    HW222941   3.459   8.966   2.444  0.6183  0.2886  1.1511
 4158SOL     OW22942   3.518   9.458   2.495 -0.2640 -0.1922  0.0815
 4158SOL    HW122943   3.605   9.432   2.453 -0.5508  0.0131 -0.6537
 4158SOL    HW222944   3.533   9.534   2.558  0.0421  0.0233 -0.2479
 4159SOL     OW22945   3.599   1.432   0.066 -0.2131  0.3613 -0.4098
 4159SOL    HW122946   3.620   1.373   0.143 -0.2641  0.4494 -0.3280
 4159SOL    HW222947   3.663   1.415  -0.008 -0.8042 -0.4618 -0.7392
 4160SOL     OW22948   1.898   2.533   1.235  0.3537  0.1479  0.2736
 4160SOL    HW122949   1.827   2.465   1.217  1.7238 -1.3098  0.2694
 4160SOL    HW222950   1.865   2.598   1.303 -1.4838  0.3072 -0.7250
 4161SOL     OW22951   5.241   6.889   2.576  0.2425 -0.7548 -0.5977
 4161SOL    HW122952   5.218   6.811   2.518  0.0833 -1.5458  0.5109
 4161SOL    HW222953   5.260   6.857   2.669 -1.2490  0.6524  0.2248
 4162SOL     OW22954   1.668   0.881   2.645 -0.2249 -0.0614  0.3320
 4162SOL    HW122955   1.608   0.815   2.600  0.2679  0.9842 -1.9563
 4162SOL    HW222956   1.645   0.887   2.742 -3.0962 -0.4713 -0.2748
 4163SOL     OW22957   8.186   2.329   2.176 -0.6584  0.0631  0.3062
 4163SOL    HW122958   8.168   2.367   2.266  0.1480 -2.0405  1.4038
 4163SOL    HW222959   8.112   2.266   2.150 -2.3290  2.7739 -1.7796
 4164SOL     OW22960   1.551   0.588   3.024 -0.7173 -0.1199 -0.2130
 4164SOL    HW122961   1.516   0.594   3.117 -0.6927  0.1843 -0.2232
 4164SOL    HW222962   1.605   0.505   3.014 -2.1633 -1.0582 -0.4415
 4165SOL     OW22963   1.335   1.165   0.823  0.8772  0.0841 -0.0044
 4165SOL    HW122964   1.357   1.070   0.805 -0.2486 -0.3631  0.9261
 4165SOL    HW222965   1.256   1.193   0.769  1.4375  0.6092 -0.5649
 4166SOL     OW22966   3.797   3.336   1.700  0.6023 -0.4753 -0.2152
 4166SOL    HW122967   3.708   3.363   1.738 -0.4206 -3.8140 -0.0562
 4166SOL    HW222968   3.866   3.341   1.772  0.2439  0.6114  0.0739
 4167SOL     OW22969   8.743   7.409   0.114 -0.0902 -0.1536  0.0468
 4167SOL    HW122970   8.829   7.449   0.084 -0.9563 -0.0060 -2.3159
 4167SOL    HW222971   8.761   7.329   0.172  1.6117  0.5662  0.5217
 4168SOL     OW22972   9.830   2.069   1.279 -0.4330  0.0295  0.6016
 4168SOL    HW122973   9.895   2.044   1.207  0.4736 -0.9051  1.7136
 4168SOL    HW222974   9.846   2.163   1.307 -0.1866  0.1086  0.2035
 4169SOL     OW22975   2.023   5.867   3.957  0.0370 -0.4314 -0.2208
 4169SOL    HW122976   2.011   5.817   4.043 -0.5837 -1.0006 -0.6367
 4169SOL    HW222977   1.943   5.854   3.899  0.3734  0.1031 -0.8123
 4170SOL     OW22978   0.499   6.606   0.376 -0.6480 -0.0045 -0.0096
 4170SOL    HW122979   0.542   6.573   0.292 -3.4721 -0.7828 -1.2290
 4170SOL    HW222980   0.548   6.685   0.411  1.5228 -0.6620 -1.4931
 4171SOL     OW22981   3.079   4.886   0.582 -0.3442  0.5346 -0.6478
 4171SOL    HW122982   3.014   4.898   0.507  0.5701 -0.7426 -1.6766
 4171SOL    HW222983   3.039   4.826   0.651 -1.3709  2.0854  0.1420
 4172SOL     OW22984   8.745   0.235   0.704 -0.3962 -0.0577 -0.2650
 4172SOL    HW122985   8.839   0.269   0.710 -1.6518  3.8139 -1.6126
 4172SOL    HW222986   8.692   0.271   0.780 -1.6346  0.6186 -1.4399
 4173SOL     OW22987   9.762   0.910   0.909  0.6432 -0.3312  0.1752
 4173SOL    HW122988   9.726   1.003   0.909  0.2710 -0.4739 -0.1177
 4173SOL    HW222989   9.855   0.910   0.945  0.6408  0.1520  0.1812
 4174SOL     OW22990   7.922   2.322   4.049 -0.1330 -0.5576  0.2792
 4174SOL    HW122991   7.981   2.351   3.973 -0.2252 -0.7269  0.1434
 4174SOL    HW222992   7.828   2.348   4.030 -0.0617 -0.0462  0.6204
 4175SOL     OW22993   1.096   9.021   3.890 -0.1471 -0.1244  0.0953
 4175SOL    HW122994   1.113   9.119   3.899 -1.5049  0.0631  0.7228
 4175SOL    HW222995   1.007   9.006   3.847  0.5076 -1.0879 -0.9507
 4176SOL     OW22996   9.555   7.567   0.050  0.1784 -0.0127 -0.2068
 4176SOL    HW122997   9.600   7.626  -0.017  1.3881 -0.9812 -0.2381
 4176SOL    HW222998   9.456   7.574   0.038  0.2976  2.0813 -0.1565
 4177SOL     OW22999   8.102   6.578   3.304  0.3146 -0.0171  0.1348
 4177SOL    HW123000   8.109   6.651   3.373 -1.8800 -1.0104  1.4605
 4177SOL    HW223001   8.189   6.530   3.298  0.3042 -0.4551  2.8656
 4178SOL     OW23002   2.487   2.561   0.112 -0.4875  0.6355 -0.4488
 4178SOL    HW123003   2.418   2.519   0.053  0.3847  0.4806 -1.3604
 4178SOL    HW223004   2.458   2.654   0.135 -1.7434  0.0484  0.4341
 4179SOL     OW23005   3.415   8.587   2.609  0.4729 -0.1841  0.3252
 4179SOL    HW123006   3.322   8.608   2.581  1.1466  2.7309  0.1420
 4179SOL    HW223007   3.476   8.593   2.530  0.7643 -2.7451  0.3037
 4180SOL     OW23008   2.405   0.416   1.625 -0.4551  0.5989 -0.2355
 4180SOL    HW123009   2.349   0.363   1.562  0.8048 -0.9505 -0.0866
 4180SOL    HW223010   2.371   0.510   1.629 -1.8019  0.1938 -1.6445
 4181SOL     OW23011   9.722   3.017   2.250  0.1347 -0.1608  0.1147
 4181SOL    HW123012   9.794   3.073   2.211  1.7566 -0.5749  2.4234
 4181SOL    HW223013   9.741   2.920   2.232 -0.0069 -0.2559  0.4693
 4182SOL     OW23014   3.639   8.931   3.158  0.3976 -0.4342 -0.2591
 4182SOL    HW123015   3.558   8.886   3.196  0.4681  0.0169  0.4473
 4182SOL    HW223016   3.626   9.030   3.159  0.1913 -0.4318 -1.9231
 4183SOL     OW23017   1.508   8.731   0.524 -0.4923  0.3229  0.3030
 4183SOL    HW123018   1.578   8.669   0.560 -0.5751  0.3469  0.5099
 4183SOL    HW223019   1.447   8.681   0.463 -1.9495 -0.3734  2.2478
 4184SOL     OW23020   3.851   4.198   1.546 -0.0515  0.2138  0.1925
 4184SOL    HW123021   3.932   4.208   1.605 -0.3553 -2.7210  1.2189
 4184SOL    HW223022   3.798   4.119   1.576 -2.6267  1.3182 -1.3028
 4185SOL     OW23023   9.621   8.946   1.199  0.4888 -0.0256 -0.1255
 4185SOL    HW123024   9.622   8.926   1.101  1.7638  2.1049 -0.5684
 4185SOL    HW223025   9.570   9.030   1.217 -0.3483 -0.7777  1.1319
 4186SOL     OW23026   2.606   7.781   2.148  0.0148  0.7053 -0.2160
 4186SOL    HW123027   2.507   7.778   2.160  0.0552 -0.0741 -0.0038
 4186SOL    HW223028   2.630   7.854   2.085 -0.7638  0.4149 -0.8578
 4187SOL     OW23029   2.507   7.113   2.763 -0.0147 -0.0942 -0.5505
 4187SOL    HW123030   2.429   7.052   2.779  0.4944 -0.1417  2.0316
 4187SOL    HW223031   2.476   7.207   2.758 -0.4872 -0.3060 -1.8555
 4188SOL     OW23032   3.210   5.182   3.053 -0.0879  0.0779  0.9470
 4188SOL    HW123033   3.193   5.128   2.971 -1.7786  0.9474  0.7147
 4188SOL    HW223034   3.307   5.177   3.076  0.3196 -0.5425 -0.8297
 4189SOL     OW23035   1.663   4.058   2.930 -1.0193  0.0135 -0.1714
 4189SOL    HW123036   1.686   4.062   2.833 -0.4333 -0.4478 -0.0576
 4189SOL    HW223037   1.588   3.993   2.944  0.2855 -1.5021 -0.0766
 4190SOL     OW23038   7.614   8.203   2.848 -0.0799  0.2044  0.3389
 4190SOL    HW123039   7.687   8.219   2.782 -0.7569  2.6088  0.1009
 4190SOL    HW223040   7.537   8.158   2.802  0.3729 -0.2957  0.0658
 4191SOL     OW23041   1.517   1.604   1.627 -0.6367  0.5994  0.5368
 4191SOL    HW123042   1.484   1.666   1.556 -1.2902  1.4183  1.5566
 4191SOL    HW223043   1.617   1.600   1.623 -0.5464  2.1982  0.8527
 4192SOL     OW23044   3.763   8.509   2.048 -0.0511 -0.1738 -0.1691
 4192SOL    HW123045   3.857   8.480   2.033  0.2068  0.6129 -0.0968
 4192SOL    HW223046   3.717   8.444   2.109  0.2376 -0.9291 -0.7492
 4193SOL     OW23047   1.399   9.188   0.193  0.0677 -0.4404  0.6884
 4193SOL    HW123048   1.323   9.250   0.173  0.3387 -0.3826 -0.1756
 4193SOL    HW223049   1.436   9.152   0.108  0.8430 -0.6719  1.1186
 4194SOL     OW23050   1.821   1.241   2.104  0.7810  0.7319 -0.1450
 4194SOL    HW123051   1.778   1.189   2.177  0.6533  0.7588 -0.2008
 4194SOL    HW223052   1.920   1.229   2.108  0.8823  1.9051  0.9333
 4195SOL     OW23053   3.114   1.812   0.259  0.2846 -0.3349  0.0488
 4195SOL    HW123054   3.170   1.733   0.286  1.9383  0.9723  0.5344
 4195SOL    HW223055   3.173   1.893   0.252 -1.6851  1.2164  1.2054
 4196SOL     OW23056   1.183   0.373   3.603  0.6657 -0.5982  0.0417
 4196SOL    HW123057   1.123   0.360   3.524  1.8835  1.8226 -1.3514
 4196SOL    HW223058   1.250   0.298   3.606 -0.1789 -1.3856 -0.4953
 4197SOL     OW23059   6.789   9.141   2.561 -0.3682  0.7708  0.6527
 4197SOL    HW123060   6.692   9.138   2.583 -0.4232  0.6222  0.3857
 4197SOL    HW223061   6.820   9.236   2.555 -0.3369  0.8163  1.4554
 4198SOL     OW23062   3.989   2.377   0.731  0.2618  0.5761  0.1528
 4198SOL    HW123063   4.059   2.375   0.802  0.5620  0.1668 -0.1505
 4198SOL    HW223064   4.033   2.375   0.641 -0.1528 -0.5612 -0.0326
 4199SOL     OW23065   3.851   4.350   0.155  0.4891 -0.2065  0.1224
 4199SOL    HW123066   3.903   4.389   0.078 -0.7991 -0.2542 -0.7893
 4199SOL    HW223067   3.827   4.423   0.219 -0.3667  0.2139 -0.6661
 4200SOL     OW23068   1.056   3.421   0.852  0.4213 -0.0171 -0.0773
 4200SOL    HW123069   1.101   3.334   0.873  1.1751  0.3283 -0.2646
 4200SOL    HW223070   0.972   3.429   0.906  0.0885 -1.0852 -0.4318
 4201SOL     OW23071   5.005   7.478   1.237  0.7190  0.5408 -0.5064
 4201SOL    HW123072   4.976   7.531   1.316 -0.2840 -0.8820  0.1085
 4201SOL    HW223073   5.031   7.540   1.163 -1.0506  1.8818 -0.0370
 4202SOL     OW23074   3.552   8.211   3.075 -0.0448 -0.1215  0.2970
 4202SOL    HW123075   3.575   8.260   2.991  1.4938 -1.2506  0.0479
 4202SOL    HW223076   3.596   8.122   3.075 -0.4152 -0.3281  2.1066
 4203SOL     OW23077   9.937   9.880   0.405 -0.0535 -0.3610 -0.4507
 4203SOL    HW123078   9.851   9.846   0.444 -0.3790  1.3171  0.3374
 4203SOL    HW223079   9.962   9.823   0.327 -1.3438 -1.5001 -0.0668
 4204SOL     OW23080   0.493   2.476   1.049  0.0910 -0.4736 -0.1518
 4204SOL    HW123081   0.461   2.458   1.142 -1.7064  0.8490 -0.4876
 4204SOL    HW223082   0.430   2.539   1.003  1.5131 -0.2874 -1.9237
 4205SOL     OW23083   1.591   1.458   3.661 -0.4765 -0.5303 -0.3277
 4205SOL    HW123084   1.536   1.391   3.710 -2.1876  0.8978 -0.2596
 4205SOL    HW223085   1.578   1.549   3.701  1.5118 -0.0568 -0.6580
 4206SOL     OW23086   1.378   8.884   2.751 -0.3617 -0.6025 -0.2556
 4206SOL    HW123087   1.399   8.904   2.847 -1.3079 -1.8709  0.2363
 4206SOL    HW223088   1.447   8.822   2.714  0.0169 -0.0934 -0.4115
 4207SOL     OW23089   2.292   2.287   1.822  0.1660  0.2069 -0.8888
 4207SOL    HW123090   2.297   2.282   1.922 -1.3351  3.1544 -0.6128
 4207SOL    HW223091   2.375   2.248   1.783  0.4817 -1.5842  1.4842
 4208SOL     OW23092   4.792   9.437   1.565  0.3574  0.2605  0.1740
 4208SOL    HW123093   4.713   9.430   1.505  1.2685 -0.6925 -0.9143
 4208SOL    HW223094   4.792   9.527   1.609 -1.6139  0.0733  0.6029
 4209SOL     OW23095   8.567   8.767   2.125  0.0780  0.5132 -0.1596
 4209SOL    HW123096   8.556   8.758   2.026  0.5836 -1.4258 -0.0646
 4209SOL    HW223097   8.655   8.729   2.152 -1.0178 -1.0816  1.2901
 4210SOL     OW23098   2.890   7.717   1.572  0.1776  0.0973 -0.3365
 4210SOL    HW123099   2.849   7.798   1.614 -0.1441 -0.5939  0.7381
 4210SOL    HW223100   2.867   7.714   1.475 -0.1361  1.0857 -0.2970
 4211SOL     OW23101   2.482   7.198   1.050  0.4746 -0.1237  0.1059
 4211SOL    HW123102   2.518   7.132   1.115  1.3677  1.0246  0.7992
 4211SOL    HW223103   2.555   7.225   0.987 -0.1182 -0.4629 -0.7370
 4212SOL     OW23104   8.874   9.353   1.011 -0.5754 -0.8303 -0.0593
 4212SOL    HW123105   8.844   9.399   0.928  2.6340  0.6495 -0.4982
 4212SOL    HW223106   8.955   9.298   0.991  0.6827  0.1347  2.1847
 4213SOL     OW23107   5.852   8.765   1.571 -0.1559  0.2698 -0.0116
 4213SOL    HW123108   5.796   8.692   1.533 -0.3179  0.0226  0.6938
 4213SOL    HW223109   5.877   8.742   1.665 -0.1081  1.0700  0.1715
 4214SOL     OW23110   3.871   3.660   1.866 -0.0592 -0.0233 -0.4496
 4214SOL    HW123111   3.964   3.623   1.859 -0.3265 -1.2744  2.0551
 4214SOL    HW223112   3.858   3.703   1.955 -1.9974 -0.1869 -0.6269
 4215SOL     OW23113   8.247   1.655   3.527 -0.4672 -0.3864  0.2599
 4215SOL    HW123114   8.320   1.703   3.575  0.4373 -1.3921 -0.0947
 4215SOL    HW223115   8.171   1.638   3.589 -0.1828  0.1866  0.7700
 4216SOL     OW23116   9.664   4.972   3.237  0.1197  0.1658 -0.1778
 4216SOL    HW123117   9.740   5.024   3.198 -0.8004  2.9643  1.6135
 4216SOL    HW223118   9.689   4.939   3.328 -0.3944  0.0905 -0.0605
 4217SOL     OW23119   9.506   9.430   0.008  0.1841  0.1821  0.0703
 4217SOL    HW123120   9.496   9.471  -0.083  0.7582 -2.2793 -1.1540
 4217SOL    HW223121   9.425   9.451   0.063 -1.0752  0.0703 -1.6821
 4218SOL     OW23122   9.299   6.310   2.627  0.2950 -0.0675  0.4289
 4218SOL    HW123123   9.231   6.378   2.600  0.1918 -0.9727 -1.6750
 4218SOL    HW223124   9.369   6.303   2.555 -0.2852 -2.9575  0.0812
 4219SOL     OW23125   1.260   2.891   0.788  0.0576  0.9278 -0.2382
 4219SOL    HW123126   1.188   2.961   0.792 -0.2400  0.6211 -0.2419
 4219SOL    HW223127   1.259   2.847   0.698 -0.4502  0.1782  0.1375
 4220SOL     OW23128   0.134   8.069   0.184  0.3405 -0.2706 -0.1457
 4220SOL    HW123129   0.200   8.018   0.238 -1.6838 -1.8898  0.8946
 4220SOL    HW223130   0.150   8.053   0.086  2.0328  0.0950  0.0709
 4221SOL     OW23131   3.623   4.705   0.748  0.1024 -0.1136  0.2198
 4221SOL    HW123132   3.606   4.768   0.824 -0.6702  0.2641 -0.2627
 4221SOL    HW223133   3.713   4.722   0.709  0.8483 -0.8470  1.5687
 4222SOL     OW23134   0.616   7.612   2.873 -0.2338  0.9801 -0.3082
 4222SOL    HW123135   0.554   7.566   2.938  0.8859  1.2611  0.9820
 4222SOL    HW223136   0.643   7.701   2.910  1.6307  0.4903 -0.4336
 4223SOL     OW23137   5.138   9.856   2.301  0.2754  0.2981 -0.1745
 4223SOL    HW123138   5.045   9.868   2.266 -0.4932 -0.1537  1.6240
 4223SOL    HW223139   5.189   9.793   2.242 -1.0231 -0.5449 -0.4142
 4224SOL     OW23140   1.046   6.233   2.116 -0.1319  0.1611 -0.0177
 4224SOL    HW123141   1.022   6.162   2.049  0.7267 -0.2087  0.0678
 4224SOL    HW223142   1.141   6.223   2.143 -0.7414 -0.3250  2.0247
 4225SOL     OW23143   1.726   5.946   3.030  0.2846 -0.0998 -0.2535
 4225SOL    HW123144   1.817   5.959   2.990  0.8883 -2.8343  0.1140
 4225SOL    HW223145   1.660   5.927   2.957  0.8044 -2.0885 -0.2291
 4226SOL     OW23146   8.671   9.478   3.952  0.2296 -0.8563  0.2680
 4226SOL    HW123147   8.682   9.550   4.020  2.0451 -0.7341 -0.1328
 4226SOL    HW223148   8.590   9.423   3.974  0.0031  0.0380  1.7184
 4227SOL     OW23149   1.008   6.673   0.563  0.3654 -0.3948  0.2584
 4227SOL    HW123150   0.971   6.676   0.470  0.0460 -1.0381  0.3589
 4227SOL    HW223151   1.045   6.762   0.587 -0.7884  0.1620  0.0083
 4228SOL     OW23152   2.548   7.999   1.088 -0.2078 -0.2966  0.2716
 4228SOL    HW123153   2.500   8.037   1.009  0.7328  3.2542  1.2897
 4228SOL    HW223154   2.483   7.984   1.163 -0.5947 -0.7416 -0.1505
 4229SOL     OW23155   9.873   7.445   1.120 -0.2678 -0.1015 -0.0058
 4229SOL    HW123156   9.835   7.354   1.139  0.2094 -0.4066 -0.5080
 4229SOL    HW223157   9.802   7.501   1.077 -0.8674  0.0865  1.2023
 4230SOL     OW23158   3.823   8.251   1.293 -0.5546  0.5897  0.2537
 4230SOL    HW123159   3.806   8.349   1.283  0.1899  0.6889 -0.0344
 4230SOL    HW223160   3.843   8.231   1.389 -1.3371  0.6144  0.4305
 4231SOL     OW23161   2.313   6.892   1.786  0.2287  0.2391  0.0645
 4231SOL    HW123162   2.408   6.916   1.769  0.0279  1.7283  0.9159
 4231SOL    HW223163   2.307   6.830   1.864  0.4476  0.6972  0.4439
 4232SOL     OW23164   3.972   1.774   1.511 -0.2455  0.0727  0.4355
 4232SOL    HW123165   3.880   1.812   1.518  0.2830  1.5860 -0.5789
 4232SOL    HW223166   3.981   1.723   1.425 -0.0005  0.3010  0.3250
 4233SOL     OW23167   9.297   0.317   0.154  0.1173 -0.0315 -0.2974
 4233SOL    HW123168   9.249   0.404   0.162 -1.4905 -0.7857 -1.5255
 4233SOL    HW223169   9.274   0.259   0.233  0.7141  0.4037  0.2071
 4234SOL     OW23170   0.678   4.102   2.681  0.3005 -0.0910 -0.1096
 4234SOL    HW123171   0.698   4.037   2.608 -0.5730  0.0976 -0.5139
 4234SOL    HW223172   0.642   4.187   2.642 -1.2211 -0.3997  0.6096
 4235SOL     OW23173   8.935   0.567   3.179  0.4834 -0.1109  0.0876
 4235SOL    HW123174   8.927   0.477   3.136  3.2244 -0.3651  0.0085
 4235SOL    HW223175   8.855   0.584   3.237 -0.0175 -2.6255  0.1797
 4236SOL     OW23176   9.177   9.652   2.464 -0.1081  0.2336 -0.3975
 4236SOL    HW123177   9.197   9.693   2.553 -0.8352 -0.0292 -0.1079
 4236SOL    HW223178   9.263   9.632   2.417  0.2610  1.5049 -0.2826
 4237SOL     OW23179   7.715   8.462   2.271  0.0655 -0.1318 -0.3799
 4237SOL    HW123180   7.637   8.524   2.279 -0.3893 -0.7092 -0.2548
 4237SOL    HW223181   7.763   8.458   2.358  1.7315  2.1433 -1.1525
 4238SOL     OW23182   7.112   7.203   2.450  0.0306  0.3496 -0.7145
 4238SOL    HW123183   7.104   7.109   2.418  1.0069 -0.0654  0.2505
 4238SOL    HW223184   7.028   7.229   2.497  0.4597 -0.6582  0.6209
 4239SOL     OW23185   1.436   1.988   2.343 -0.1106  0.4150 -0.0803
 4239SOL    HW123186   1.385   1.904   2.323  0.3431 -0.5490  2.6166
 4239SOL    HW223187   1.374   2.059   2.373 -0.6260  1.4365 -3.3408
 4240SOL     OW23188   2.128   5.427   3.641  0.7229 -0.2496 -0.0487
 4240SOL    HW123189   2.154   5.507   3.696 -0.8348  0.7458 -0.7591
 4240SOL    HW223190   2.173   5.346   3.679 -0.9323  0.2851  3.1900
 4241SOL     OW23191   1.808   8.379   3.337  0.9052 -0.0753  0.3205
 4241SOL    HW123192   1.723   8.421   3.370  0.0124  1.1664 -3.3622
 4241SOL    HW223193   1.879   8.449   3.331  0.4336  0.2064 -2.3882
 4242SOL     OW23194   3.625   7.926   2.943 -0.2096  0.0862 -0.2188
 4242SOL    HW123195   3.710   7.878   2.923  0.3422  1.0755 -0.2565
 4242SOL    HW223196   3.577   7.948   2.858 -0.9869 -1.3208 -0.1610
 4243SOL     OW23197   4.297   8.318   2.965 -0.2643 -0.2098 -0.0608
 4243SOL    HW123198   4.392   8.328   2.936  0.0376 -1.2676  0.5605
 4243SOL    HW223199   4.291   8.325   3.065 -0.9994  1.0606 -0.1750
 4244SOL     OW23200   1.150   7.095   0.218  0.1046 -0.3990  0.6036
 4244SOL    HW123201   1.244   7.126   0.209  0.3175 -1.3574 -0.5889
 4244SOL    HW223202   1.092   7.172   0.245  0.8344  0.7466 -1.0094
 4245SOL     OW23203   8.205   2.965   2.278  0.8813 -0.6724 -0.4675
 4245SOL    HW123204   8.219   3.064   2.270 -0.7640 -0.4089 -0.2857
 4245SOL    HW223205   8.292   2.918   2.263  1.6365  0.7870 -0.7956
 4246SOL     OW23206   1.128   9.444   0.516  0.0174 -0.0285 -0.0942
 4246SOL    HW123207   1.081   9.493   0.589  1.1796  0.2840  0.4561
 4246SOL    HW223208   1.162   9.510   0.449  1.4865 -0.0563  0.5916
 4247SOL     OW23209   3.001   6.141   2.984 -0.0440 -0.6840  0.1696
 4247SOL    HW123210   2.924   6.126   3.047 -1.9862 -2.3254 -2.4854
 4247SOL    HW223211   3.069   6.069   2.999 -0.1063 -0.5955  0.9319
 4248SOL     OW23212   2.725   3.422   0.023 -0.0957  0.2181  0.1283
 4248SOL    HW123213   2.642   3.435   0.077 -1.2639 -1.0696 -1.3133
 4248SOL    HW223214   2.730   3.491  -0.048  0.1793  0.4103  0.3307
 4249SOL     OW23215   7.149   8.537   1.870 -0.2262  0.2442 -0.2160
 4249SOL    HW123216   7.158   8.502   1.963 -1.5587 -0.5932 -0.3950
 4249SOL    HW223217   7.155   8.636   1.871  2.6645  0.1101  0.4121
 4250SOL     OW23218   0.176   0.232   3.443 -0.2952 -0.4469 -0.1683
 4250SOL    HW123219   0.159   0.319   3.396  3.9493  1.0261  0.7872
 4250SOL    HW223220   0.220   0.169   3.379 -0.5548 -0.8137  0.0161
 4251SOL     OW23221   0.651   0.317   2.542  0.2809 -0.1693 -0.5962
 4251SOL    HW123222   0.553   0.321   2.561  0.1284  2.1720 -1.6740
 4251SOL    HW223223   0.666   0.314   2.443  1.3295  1.5274 -0.5026
 4252SOL     OW23224   9.793   3.902   1.807  0.4300 -0.5486 -0.7767
 4252SOL    HW123225   9.819   3.883   1.712 -2.3460 -2.2251 -1.2334
 4252SOL    HW223226   9.714   3.846   1.832 -1.9982  3.4805  0.9700
 4253SOL     OW23227   3.953  10.000   0.491  0.3270  0.2403  0.5010
 4253SOL    HW123228   4.046   9.970   0.469 -0.7341 -2.0223 -1.1911
 4253SOL    HW223229   3.928  10.078   0.434  1.4374  1.3292  1.4933
 4254SOL     OW23230   8.102   0.051   3.994  0.0584  0.2990 -0.7999
 4254SOL    HW123231   8.130  -0.044   3.978  1.1005  0.7742 -1.8652
 4254SOL    HW223232   8.155   0.089   4.070 -1.6385 -0.5197  0.8307
 4255SOL     OW23233   3.383   0.921   2.749  0.6447  0.1545 -0.6172
 4255SOL    HW123234   3.346   0.995   2.693  1.6625  1.0282 -0.1637
 4255SOL    HW223235   3.458   0.876   2.700  0.6897  0.0778 -0.4787
 4256SOL     OW23236   8.234   8.181   1.916 -0.7391  0.8172  0.0152
 4256SOL    HW123237   8.231   8.270   1.870 -2.6773 -0.1950 -1.9257
 4256SOL    HW223238   8.193   8.188   2.007 -2.3501  1.5736 -0.7545
 4257SOL     OW23239   5.282   9.151   2.244  0.6850  0.0964  0.3753
 4257SOL    HW123240   5.371   9.148   2.199  0.3290  0.8376 -0.3855
 4257SOL    HW223241   5.223   9.217   2.197  0.5773  1.4965  2.4515
 4258SOL     OW23242   8.537   7.389   3.035  0.1800  0.2264  0.3108
 4258SOL    HW123243   8.496   7.435   2.957  0.4285 -0.8298 -0.4557
 4258SOL    HW223244   8.615   7.334   3.004  0.0289 -0.5242  1.2417
 4259SOL     OW23245   6.359   7.830   2.188 -0.7765 -0.3943  0.3044
 4259SOL    HW123246   6.326   7.915   2.229 -1.8255 -0.7608  0.2581
 4259SOL    HW223247   6.300   7.754   2.218 -0.8848 -0.8401 -0.9967
 4260SOL     OW23248   8.619   8.455   2.418 -0.2211 -0.7464  0.2527
 4260SOL    HW123249   8.648   8.385   2.483  0.7404  0.7366  1.4659
 4260SOL    HW223250   8.591   8.537   2.467 -1.0081 -0.1504 -1.1558
 4261SOL     OW23251   1.565   8.481   1.846 -0.5768  0.1785  0.1489
 4261SOL    HW123252   1.607   8.414   1.907  0.1468 -0.7128 -1.2969
 4261SOL    HW223253   1.482   8.442   1.805 -0.9570  0.6998  0.4183
 4262SOL     OW23254   9.179   9.117   3.550  0.2836  0.0697  0.1230
 4262SOL    HW123255   9.169   9.029   3.503  1.3009 -1.0649  1.9692
 4262SOL    HW223256   9.129   9.115   3.637 -0.5109  1.6870 -0.2645
 4263SOL     OW23257   8.064   8.203   0.181 -0.0570  0.7966  0.1856
 4263SOL    HW123258   8.055   8.114   0.226  0.5354 -0.5690 -2.2560
 4263SOL    HW223259   8.031   8.275   0.242  0.3866 -0.9795  2.6052
 4264SOL     OW23260   3.298   9.328   0.631  0.0854 -0.1777 -0.4457
 4264SOL    HW123261   3.350   9.372   0.558  0.9949 -1.9934 -0.9023
 4264SOL    HW223262   3.202   9.323   0.605  0.5682 -1.7284 -1.9741
 4265SOL     OW23263   8.439   2.068   2.776  0.0841  0.2984 -0.0969
 4265SOL    HW123264   8.397   2.044   2.689  0.5167 -1.0290  0.0374
 4265SOL    HW223265   8.538   2.069   2.766  0.1808 -0.9013  0.6149
 4266SOL     OW23266   1.342   2.418   2.735 -0.1053  0.1338 -0.2823
 4266SOL    HW123267   1.261   2.442   2.788 -0.5799 -1.3696 -0.3126
 4266SOL    HW223268   1.401   2.499   2.725 -0.2226  0.5460  2.1217
 4267SOL     OW23269   2.579   3.408   3.317 -0.1367  0.2341  0.2776
 4267SOL    HW123270   2.537   3.388   3.406 -2.2654  1.0613 -0.5182
 4267SOL    HW223271   2.656   3.471   3.330  0.8819 -1.2494  1.7401
 4268SOL     OW23272   3.608   4.098   0.524 -0.2718  0.3705  0.2684
 4268SOL    HW123273   3.525   4.090   0.469 -0.7849 -1.0310  1.2099
 4268SOL    HW223274   3.687   4.115   0.464 -1.1422  1.1407 -0.6765
 4269SOL     OW23275   9.858   7.220   2.464  0.2081  0.5535 -0.6326
 4269SOL    HW123276   9.890   7.288   2.529 -0.9743 -0.5671  1.1676
 4269SOL    HW223277   9.895   7.130   2.489 -3.6256 -0.6456  1.0817
 4270SOL     OW23278   7.448   8.936   1.024  0.0650  0.4652  0.0127
 4270SOL    HW123279   7.367   8.975   1.068  0.7161 -0.3386  1.9889
 4270SOL    HW223280   7.511   8.904   1.095  1.8424  0.5545 -1.5217
 4271SOL     OW23281   8.022   7.298   3.487 -0.6201  0.7003  0.4387
 4271SOL    HW123282   7.943   7.359   3.492 -1.3484 -0.1447 -0.7564
 4271SOL    HW223283   8.071   7.313   3.401 -0.6022 -0.1553  0.2982
 4272SOL     OW23284   2.345   3.789   3.974  0.2270  0.3426 -0.0715
 4272SOL    HW123285   2.439   3.811   3.947  0.4060  0.2430  0.4678
 4272SOL    HW223286   2.282   3.825   3.905  0.6865 -0.0609 -0.7114
 4273SOL     OW23287   3.132   4.489   3.105  0.2517  0.0539 -0.4153
 4273SOL    HW123288   3.161   4.450   3.193 -0.3586  1.2319  0.3288
 4273SOL    HW223289   3.062   4.431   3.064  0.1400 -0.2118  0.1505
 4274SOL     OW23290   9.008   6.219   0.024  0.0919 -0.4163 -0.0959
 4274SOL    HW123291   9.058   6.195   0.107 -1.9330 -0.0724  1.2237
 4274SOL    HW223292   9.004   6.138  -0.036  0.7048 -0.9343  0.5506
 4275SOL     OW23293   1.380   3.031   2.534  0.4368  0.4076 -0.8251
 4275SOL    HW123294   1.360   2.945   2.487  0.8717  0.2923 -0.8016
 4275SOL    HW223295   1.298   3.088   2.536 -0.2836 -0.6497  0.5179
 4276SOL     OW23296   8.737   9.555   3.705 -0.0202 -0.4604  0.3188
 4276SOL    HW123297   8.735   9.525   3.801  1.2822  0.6032  0.6911
 4276SOL    HW223298   8.701   9.482   3.647  0.5511 -1.6909  1.4716
 4277SOL     OW23299   1.317   4.446   1.236 -0.4149 -0.2794 -0.0868
 4277SOL    HW123300   1.259   4.506   1.182  0.4211  0.7820  0.1796
 4277SOL    HW223301   1.287   4.447   1.332 -0.9295 -0.9482 -0.2417
 4278SOL     OW23302   0.503   9.802   1.966 -0.4169  0.1727 -0.1317
 4278SOL    HW123303   0.544   9.723   2.013 -0.5751 -0.1799 -0.5861
 4278SOL    HW223304   0.417   9.827   2.012 -0.6692 -0.2933 -0.3438
 4279SOL     OW23305   9.681   4.674   3.003 -0.0906 -0.1340  0.1988
 4279SOL    HW123306   9.591   4.701   2.968 -0.1131  0.3122  0.6044
 4279SOL    HW223307   9.686   4.574   3.007 -0.6785 -0.1556  0.4721
 4280SOL     OW23308   2.365   6.165   2.874 -0.2487  0.0859  0.0665
 4280SOL    HW123309   2.284   6.182   2.929 -0.5555  0.5542 -0.5275
 4280SOL    HW223310   2.373   6.067   2.856  0.9890 -0.3463  2.6795
 4281SOL     OW23311   8.010   4.037   0.184  0.0168 -0.1328  0.2592
 4281SOL    HW123312   8.005   4.103   0.109  1.0672 -0.7127 -0.3328
 4281SOL    HW223313   8.045   4.082   0.266 -1.2232  0.5289  0.4474
 4282SOL     OW23314   0.065   3.113   3.287  0.3006 -0.1514  0.2426
 4282SOL    HW123315  -0.019   3.102   3.234  0.5082 -3.8435  0.5563
 4282SOL    HW223316   0.043   3.113   3.384  0.6840 -1.9099  0.3500
 4283SOL     OW23317   8.677   3.750   2.160 -0.3508 -0.3096  0.1552
 4283SOL    HW123318   8.679   3.658   2.201 -0.3709  0.1522  1.2148
 4283SOL    HW223319   8.698   3.818   2.230  2.0288  0.3399 -1.1233
 4284SOL     OW23320   9.562   2.353   2.156  0.0767  0.1410  0.0018
 4284SOL    HW123321   9.629   2.382   2.224 -0.6902  1.4969  0.2053
 4284SOL    HW223322   9.605   2.346   2.066  1.0418 -1.4399  0.5826
 4285SOL     OW23323   0.525   7.838   3.959 -0.3977  0.0500  0.0958
 4285SOL    HW123324   0.606   7.891   3.984 -0.3034  0.0088 -0.1199
 4285SOL    HW223325   0.528   7.817   3.861 -1.5440  1.5583 -0.2880
 4286SOL     OW23326   2.104   0.894   0.990 -0.0430  0.8751 -0.5149
 4286SOL    HW123327   2.186   0.927   0.942 -0.4008  0.5874 -1.3477
 4286SOL    HW223328   2.033   0.964   0.985  0.1258  1.0962  0.1469
 4287SOL     OW23329   7.016   9.732   2.296  0.1220 -0.3298  0.1790
 4287SOL    HW123330   6.976   9.723   2.387  0.5034  0.8121  0.4686
 4287SOL    HW223331   6.943   9.736   2.227 -0.2568  1.2765  0.6575
 4288SOL     OW23332   7.403   8.880   1.628  0.0805  0.3911 -0.1059
 4288SOL    HW123333   7.381   8.852   1.535  2.3247  0.1515 -0.5736
 4288SOL    HW223334   7.318   8.903   1.677 -1.1409  0.0221 -2.0268
 4289SOL     OW23335   3.942   4.623   1.285  0.5541 -0.2779 -0.2170
 4289SOL    HW123336   4.011   4.688   1.318  0.2310 -0.5634  1.0309
 4289SOL    HW223337   3.953   4.536   1.333  0.9441 -1.1424 -1.8323
 4290SOL     OW23338   2.695   2.355   1.213 -0.2910  0.0038  0.4802
 4290SOL    HW123339   2.684   2.416   1.135 -3.0279  0.8494  1.4914
 4290SOL    HW223340   2.694   2.260   1.181 -0.3719  0.3725 -0.6254
 4291SOL     OW23341   9.696   7.174   1.194  0.1773  0.5593  0.7251
 4291SOL    HW123342   9.615   7.186   1.137  0.2552 -0.5055  0.3837
 4291SOL    HW223343   9.766   7.126   1.143  1.3118  2.1141  0.7735
 4292SOL     OW23344   8.809   6.471   0.841 -0.3154 -0.4215 -0.4400
 4292SOL    HW123345   8.803   6.569   0.826 -2.3684 -0.3207  0.8494
 4292SOL    HW223346   8.729   6.426   0.801  0.8731 -1.6420 -1.5030
 4293SOL     OW23347   8.959   2.003   2.729 -0.1663 -0.6467 -0.4418
 4293SOL    HW123348   9.041   1.974   2.778 -0.7970 -1.7388 -0.0127
 4293SOL    HW223349   8.984   2.069   2.658  0.9565 -0.2760  0.2839
 4294SOL     OW23350   8.131   7.691   0.231  0.3958 -0.0649 -0.3439
 4294SOL    HW123351   8.229   7.708   0.238  0.5197 -0.2140 -1.5622
 4294SOL    HW223352   8.107   7.676   0.135 -0.4984 -1.9455  0.1504
 4295SOL     OW23353   9.112   0.071   1.893 -0.2531  0.0195  0.4619
 4295SOL    HW123354   9.092   0.007   1.818  1.7286 -0.4771  0.3083
 4295SOL    HW223355   9.027   0.101   1.936 -1.3549 -0.6570 -1.1905
 4296SOL     OW23356   3.997   9.688   0.124  0.0898 -0.8502  0.3064
 4296SOL    HW123357   3.915   9.680   0.181 -0.9955  0.4652 -1.0172
 4296SOL    HW223358   4.075   9.713   0.180 -1.1007  1.1277  1.1170
 4297SOL     OW23359   8.788   8.591   2.228  0.2900 -0.2869 -0.4990
 4297SOL    HW123360   8.874   8.629   2.262  0.4191  0.3766 -1.5229
 4297SOL    HW223361   8.748   8.530   2.296  1.4639 -0.4244  0.0714
 4298SOL     OW23362   3.411   8.142   1.254 -0.2740 -0.3534 -0.1822
 4298SOL    HW123363   3.438   8.063   1.309 -2.6961 -2.0267 -1.2728
 4298SOL    HW223364   3.363   8.208   1.312 -2.8520 -2.1213 -0.2397
 4299SOL     OW23365   9.692   8.394   0.531 -0.7800  0.3703 -0.1905
 4299SOL    HW123366   9.740   8.380   0.618  0.5940 -0.1188 -1.0131
 4299SOL    HW223367   9.609   8.339   0.531 -0.2994 -0.3799  0.4404
 4300SOL     OW23368   7.741   1.675   2.205  0.1765 -0.2218 -0.6071
 4300SOL    HW123369   7.691   1.606   2.256  0.3713 -0.8020 -1.1933
 4300SOL    HW223370   7.830   1.638   2.176  0.6936  0.5931 -0.0909
 4301SOL     OW23371   5.850   8.861   1.097 -0.0414 -0.1375  0.0720
 4301SOL    HW123372   5.899   8.930   1.150  0.0103  0.8955 -1.2901
 4301SOL    HW223373   5.874   8.870   1.000 -0.3618 -1.7981 -0.1829
 4302SOL     OW23374   8.768   6.792   1.773  0.3256  0.1430  0.3331
 4302SOL    HW123375   8.861   6.766   1.801  0.5082  0.7540  0.2995
 4302SOL    HW223376   8.745   6.746   1.688  1.4102  1.6113 -0.7868
 4303SOL     OW23377   8.434   0.500   1.745 -0.3245  0.3883  0.3944
 4303SOL    HW123378   8.429   0.558   1.664  2.9491 -1.3339 -1.1312
 4303SOL    HW223379   8.366   0.427   1.737  0.5443 -0.2820 -1.2759
 4304SOL     OW23380   4.393   7.426   2.953  0.9694 -0.8601  0.5718
 4304SOL    HW123381   4.395   7.351   3.019  0.2951 -0.1147  1.4429
 4304SOL    HW223382   4.317   7.487   2.974  1.5752  0.1251 -0.0753
 4305SOL     OW23383   4.659   2.633   2.119  0.2697 -0.2448 -0.2225
 4305SOL    HW123384   4.579   2.629   2.059 -0.0897 -1.0951  0.3025
 4305SOL    HW223385   4.707   2.720   2.106 -0.9576  0.4324 -0.2746
 4306SOL     OW23386   1.002   6.107   0.776 -0.2711 -0.5005 -0.4775
 4306SOL    HW123387   1.031   6.162   0.855 -0.7610 -0.8983 -0.0204
 4306SOL    HW223388   0.933   6.041   0.805  0.3380 -1.3827 -1.0171
 4307SOL     OW23389   7.722   7.450   2.704  0.1554  0.1469 -0.1698
 4307SOL    HW123390   7.644   7.390   2.687 -0.2898  1.1169 -1.6424
 4307SOL    HW223391   7.788   7.403   2.763 -1.7623 -0.4987  1.5405
 4308SOL     OW23392   2.674   7.677   0.713  0.1744 -0.4915  0.0226
 4308SOL    HW123393   2.735   7.600   0.699 -1.2967 -1.4533 -1.1975
 4308SOL    HW223394   2.688   7.745   0.641  1.5137  0.4585  1.1305
 4309SOL     OW23395   9.667   8.878   0.372 -0.3538 -0.0689 -0.4644
 4309SOL    HW123396   9.700   8.927   0.452 -1.3490 -1.1361  0.6098
 4309SOL    HW223397   9.663   8.780   0.391  0.2452 -0.4457 -2.1129
 4310SOL     OW23398   0.337   1.887   1.917  0.1055  0.3876  0.0690
 4310SOL    HW123399   0.325   1.967   1.975  1.2003  0.1347  0.6674
 4310SOL    HW223400   0.248   1.859   1.880 -0.0417  2.9449 -1.6265
 4311SOL     OW23401   0.268   3.887   2.860  0.5173 -0.2845  0.1029
 4311SOL    HW123402   0.289   3.959   2.794  1.9332  0.2056  1.0729
 4311SOL    HW223403   0.241   3.927   2.947 -2.3550 -0.9183 -0.4110
 4312SOL     OW23404   7.799   3.406   0.376 -0.0539  0.1813  0.1525
 4312SOL    HW123405   7.763   3.463   0.449 -2.4850 -0.2335 -0.6845
 4312SOL    HW223406   7.867   3.458   0.324 -1.6914  2.0799 -0.1433
 4313SOL     OW23407   6.559   8.659   1.781 -0.2458  0.3762  0.2017
 4313SOL    HW123408   6.609   8.584   1.825 -0.2134  1.2957  1.7803
 4313SOL    HW223409   6.563   8.648   1.681  0.9641 -0.9322  0.3781
 4314SOL     OW23410   0.519   0.889   0.352 -0.2067  0.1011  0.0121
 4314SOL    HW123411   0.530   0.969   0.410 -1.3771 -0.4512  1.0260
 4314SOL    HW223412   0.425   0.855   0.359 -0.1923 -0.3674 -1.7046
 4315SOL     OW23413   8.253   4.864   0.471 -0.0047  0.8382  0.4277
 4315SOL    HW123414   8.256   4.847   0.373  0.9214  0.5938  0.4972
 4315SOL    HW223415   8.162   4.842   0.506 -0.1275  0.2633 -0.2482
 4316SOL     OW23416   9.035   6.155   1.075  0.1015  0.1362  0.3530
 4316SOL    HW123417   9.006   6.060   1.074  2.9829 -0.8198 -2.9037
 4316SOL    HW223418   8.981   6.207   1.008 -0.0385  0.3165  0.6055
 4317SOL     OW23419   8.814   5.783   0.882  0.1474 -0.4465 -0.1387
 4317SOL    HW123420   8.716   5.764   0.874  0.6186 -2.6983 -1.0241
 4317SOL    HW223421   8.842   5.842   0.806 -0.2992 -0.7854 -0.5723
 4318SOL     OW23422   9.690   2.836   3.354 -0.4075  0.1060  0.4787
 4318SOL    HW123423   9.678   2.751   3.303 -0.6931 -0.9572  2.2708
 4318SOL    HW223424   9.631   2.907   3.316 -0.8329 -0.7508 -0.4742
 4319SOL     OW23425   4.535   9.529   3.497 -0.1897  0.5063 -0.4312
 4319SOL    HW123426   4.488   9.444   3.475  0.1248 -0.1761  1.3964
 4319SOL    HW223427   4.533   9.543   3.596  0.5615  2.1585 -0.6326
 4320SOL     OW23428   1.625   5.920   0.344 -0.5481 -0.1981  0.3355
 4320SOL    HW123429   1.660   5.933   0.437  0.9176  0.6498 -0.3215
 4320SOL    HW223430   1.648   5.828   0.313  0.6645  0.1798  0.0980
 4321SOL     OW23431   0.294   0.141   3.075 -0.3982  0.3108  0.3641
 4321SOL    HW123432   0.195   0.149   3.084 -0.6047 -0.5689 -0.9731
 4321SOL    HW223433   0.322   0.050   3.107 -0.1762  0.1228 -0.3578
 4322SOL     OW23434   8.580   9.286   2.380 -0.2341  0.5040  0.2925
 4322SOL    HW123435   8.585   9.212   2.313 -3.0672  0.9834 -0.5095
 4322SOL    HW223436   8.609   9.252   2.469  0.6973 -0.9516 -0.5523
 4323SOL     OW23437   7.542   9.134   0.705 -0.6905  0.5714 -0.5024
 4323SOL    HW123438   7.522   9.144   0.608  1.5906  0.1537 -1.0537
 4323SOL    HW223439   7.548   9.037   0.728  0.4540  0.6775 -0.3278
 4324SOL     OW23440   1.068   3.906   2.756  0.1236 -0.1870 -0.2489
 4324SOL    HW123441   1.151   3.858   2.727  0.0918 -0.7770  0.6231
 4324SOL    HW223442   1.091   3.999   2.784  0.3030  0.0607 -1.1920
 4325SOL     OW23443   8.935   5.849   3.248 -0.1143 -0.0883 -0.0987
 4325SOL    HW123444   8.988   5.771   3.280  0.4963  0.6438  0.7130
 4325SOL    HW223445   8.901   5.832   3.156 -0.5367 -1.5766  0.3212
 4326SOL     OW23446   2.110   2.205   0.622  0.1001 -0.2709 -0.2748
 4326SOL    HW123447   2.202   2.242   0.636 -0.3843  1.1828 -0.7929
 4326SOL    HW223448   2.061   2.205   0.709  0.3158 -0.2761 -0.1520
 4327SOL     OW23449   0.713   0.216   4.021 -0.3812 -0.1229 -0.1860
 4327SOL    HW123450   0.691   0.196   3.926  1.2719 -0.5088 -0.5037
 4327SOL    HW223451   0.630   0.212   4.076 -1.2080 -0.8128 -1.4586
 4328SOL     OW23452   2.462   1.660   3.614 -0.6499 -0.2557 -0.5642
 4328SOL    HW123453   2.473   1.760   3.611  1.4299 -0.4612 -0.5387
 4328SOL    HW223454   2.386   1.637   3.674 -0.5982  1.2980  0.1215
 4329SOL     OW23455   4.367   9.232   3.138  0.5224  0.6955  0.1609
 4329SOL    HW123456   4.301   9.236   3.063 -0.8897  3.4087  1.4791
 4329SOL    HW223457   4.436   9.303   3.127  1.0942  0.2448  0.7575
 4330SOL     OW23458   8.031   9.716   1.734 -0.0066 -0.4125 -0.3476
 4330SOL    HW123459   7.990   9.805   1.755 -0.7361 -1.1687  1.5795
 4330SOL    HW223460   8.072   9.719   1.643  0.7675  2.1658  0.0337
 4331SOL     OW23461   8.871   9.111   2.932 -0.2695  0.9939 -0.3000
 4331SOL    HW123462   8.962   9.069   2.930 -0.0689  1.4837 -1.3546
 4331SOL    HW223463   8.878   9.207   2.957 -0.4270  1.2008 -1.0287
 4332SOL     OW23464   9.283   6.140   0.909 -0.6183 -0.1045 -0.5199
 4332SOL    HW123465   9.287   6.040   0.909  0.2429 -0.0907  1.2613
 4332SOL    HW223466   9.193   6.170   0.942 -0.2564 -0.2959  0.6626
 4333SOL     OW23467   1.044   4.231   0.311 -0.4449 -0.1225 -0.3253
 4333SOL    HW123468   1.090   4.267   0.230  1.3832 -0.3870  0.5582
 4333SOL    HW223469   0.986   4.303   0.351  0.9800  0.9849 -0.1866
 4334SOL     OW23470   7.818   0.679   1.672 -0.2202  0.2592 -0.1185
 4334SOL    HW123471   7.739   0.648   1.725 -0.5467  0.7299 -0.3288
 4334SOL    HW223472   7.833   0.616   1.595  0.3347 -0.4979  0.6046
 4335SOL     OW23473   7.487   2.412   0.209 -0.5090  0.1731 -0.5225
 4335SOL    HW123474   7.495   2.510   0.223  0.1865  0.2023 -1.1004
 4335SOL    HW223475   7.550   2.364   0.271 -0.0933  0.1407 -0.9677
 4336SOL     OW23476   3.776   0.143   2.335 -0.2857  0.1740  0.3867
 4336SOL    HW123477   3.750   0.047   2.331 -0.5290  0.1653  1.8701
 4336SOL    HW223478   3.820   0.169   2.249  3.0109 -2.1966  1.2333
 4337SOL     OW23479   6.345   7.117   2.787  0.5225  0.2180 -0.1072
 4337SOL    HW123480   6.370   7.203   2.742  0.1751  0.7637  0.7282
 4337SOL    HW223481   6.344   7.043   2.720 -1.7191  1.3359 -1.3827
 4338SOL     OW23482   4.805   0.944   0.979 -0.5329  0.2766 -0.9495
 4338SOL    HW123483   4.852   0.986   0.901 -0.6286  0.7153 -0.7746
 4338SOL    HW223484   4.742   0.874   0.946 -0.7425  0.6174 -1.2883
 4339SOL     OW23485   3.917   2.345   3.192  0.4883 -0.3249 -0.0714
 4339SOL    HW123486   3.983   2.398   3.245  0.2383  0.6265 -0.7055
 4339SOL    HW223487   3.953   2.252   3.179  0.3507 -0.7213  2.1259
 4340SOL     OW23488   9.094   1.949   1.729  0.1066 -0.0767 -0.1614
 4340SOL    HW123489   9.159   1.969   1.656 -0.4527  0.1958 -0.5866
 4340SOL    HW223490   9.004   1.982   1.703 -0.2109 -0.4960  0.4097
 4341SOL     OW23491   7.922   2.040   0.658 -0.6718  0.2690  0.2432
 4341SOL    HW123492   7.875   1.951   0.660 -2.8391  1.3947  0.9035
 4341SOL    HW223493   7.900   2.091   0.741  0.2212  1.6010 -0.3220
 4342SOL     OW23494   8.329   2.004   2.524 -0.6098  0.4329  0.6755
 4342SOL    HW123495   8.291   1.916   2.496 -2.7250  1.3745  0.5348
 4342SOL    HW223496   8.329   2.066   2.446  2.0712  0.2091  0.4314
 4343SOL     OW23497   3.019   9.329   1.400  0.9884 -0.5138  0.3242
 4343SOL    HW123498   2.971   9.409   1.435  1.5230 -0.0712  0.0612
 4343SOL    HW223499   2.976   9.246   1.435 -1.1492 -0.1874 -1.3989
 4344SOL     OW23500   3.852   7.850   2.109 -0.5882 -0.3651 -0.0143
 4344SOL    HW123501   3.900   7.765   2.086 -0.6693 -0.5048  0.3304
 4344SOL    HW223502   3.754   7.838   2.095 -0.7220 -0.7088  1.1640
 4345SOL     OW23503   4.734   8.003   3.965  0.1017  0.5073  0.2965
 4345SOL    HW123504   4.707   7.937   4.035  0.1674 -0.3425 -0.4658
 4345SOL    HW223505   4.653   8.044   3.924  0.0706  1.2713  1.1123
 4346SOL     OW23506   7.890   0.675   3.739 -0.0067  0.2251 -0.0183
 4346SOL    HW123507   7.969   0.720   3.780  1.0363 -0.0715 -1.6710
 4346SOL    HW223508   7.857   0.603   3.800  1.2348  0.0964  0.5128
 4347SOL     OW23509   0.220   7.125   3.876 -0.4577  0.0819  0.0142
 4347SOL    HW123510   0.138   7.183   3.873 -0.7966 -0.3574  0.6215
 4347SOL    HW223511   0.270   7.133   3.789  0.3566  2.5131  0.6542
 4348SOL     OW23512   9.251   6.897   1.410 -0.0169 -0.3684 -0.4656
 4348SOL    HW123513   9.289   6.892   1.502 -1.2030 -0.6925  0.0128
 4348SOL    HW223514   9.299   6.832   1.350  1.6200  0.7538 -0.4046
 4349SOL     OW23515   1.482   6.196   0.675 -0.0031 -0.1262  0.1869
 4349SOL    HW123516   1.479   6.218   0.577 -0.2100  1.9225  0.6451
 4349SOL    HW223517   1.437   6.269   0.727  1.3541 -0.5193  1.9314
 4350SOL     OW23518   2.486   7.018   0.196 -0.1281 -0.2609  0.1526
 4350SOL    HW123519   2.401   6.995   0.149 -0.0053 -1.0736  0.3194
 4350SOL    HW223520   2.564   6.998   0.136 -0.1280  2.9621 -1.0248
 4351SOL     OW23521   0.241   1.176   1.073 -0.4157  0.5472  0.3028
 4351SOL    HW123522   0.300   1.242   1.028 -2.2902  2.2581  0.2728
 4351SOL    HW223523   0.262   1.174   1.171  0.2209  0.5655  0.1665
 4352SOL     OW23524   1.276   5.231   0.086  0.7371 -0.4525 -0.0931
 4352SOL    HW123525   1.243   5.238  -0.008  0.6813 -1.5532 -0.1639
 4352SOL    HW223526   1.270   5.320   0.130 -1.0058 -0.3148 -0.5464
 4353SOL     OW23527   2.738   9.012   1.783 -0.3186  0.6351  0.0290
 4353SOL    HW123528   2.744   8.917   1.755 -0.5464  1.2513 -2.2162
 4353SOL    HW223529   2.760   9.020   1.880  1.3446 -1.4739 -0.1464
 4354SOL     OW23530   8.501   6.028   1.469 -0.7421 -0.0124 -0.3476
 4354SOL    HW123531   8.514   5.948   1.411  0.8594 -0.2930  0.3649
 4354SOL    HW223532   8.457   6.001   1.555  1.1086 -0.3835  0.4958
 4355SOL     OW23533   2.271   0.234   1.464  0.4710  0.1568 -0.3101
 4355SOL    HW123534   2.219   0.169   1.520  0.2172  1.3300  0.8318
 4355SOL    HW223535   2.212   0.268   1.391  0.6115 -0.8918 -0.9340
 4356SOL     OW23536   9.717   6.114   0.349 -0.6793 -0.2943 -0.6155
 4356SOL    HW123537   9.662   6.196   0.363 -1.5675 -0.7378 -1.4639
 4356SOL    HW223538   9.805   6.139   0.309 -0.5831  0.3360 -0.0229
 4357SOL     OW23539   2.534   7.957   3.678  0.1244  0.1342  0.3187
 4357SOL    HW123540   2.478   7.875   3.664  1.6645 -0.5506 -2.1561
 4357SOL    HW223541   2.476   8.038   3.674 -1.1465 -0.7209  1.0048
 4358SOL     OW23542   4.031   4.205   2.094 -0.3955  0.4529 -0.5360
 4358SOL    HW123543   3.990   4.139   2.032 -0.7068 -0.9391  1.1340
 4358SOL    HW223544   4.028   4.296   2.052 -2.2903 -0.1522 -1.7661
 4359SOL     OW23545   9.246   0.654   2.521 -0.2654  0.0336  0.0354
 4359SOL    HW123546   9.190   0.662   2.604 -2.2460 -1.3346 -1.1384
 4359SOL    HW223547   9.301   0.571   2.527 -0.5764 -0.1847 -0.1150
 4360SOL     OW23548   4.864   9.925   1.672 -0.2323 -0.1839 -0.1882
 4360SOL    HW123549   4.861   9.825   1.662 -1.3437  0.0575 -2.5903
 4360SOL    HW223550   4.777   9.957   1.709 -0.7739  0.1071 -1.6914
 4361SOL     OW23551   1.700   3.844   1.287 -0.0454 -0.2166 -0.0430
 4361SOL    HW123552   1.747   3.915   1.235  0.4517 -0.1747  0.4660
 4361SOL    HW223553   1.639   3.793   1.226 -0.6912  0.8864 -0.3310
 4362SOL     OW23554   3.051   4.623   1.758  0.2435 -0.3140  0.4147
 4362SOL    HW123555   3.090   4.678   1.684  0.1757 -0.3340  0.3645
 4362SOL    HW223556   3.020   4.683   1.832 -0.0726 -0.2707  0.2450
 4363SOL     OW23557   8.672   1.197   0.677  0.0842  0.5791  0.1380
 4363SOL    HW123558   8.572   1.206   0.682  0.1898  1.3267  1.2029
 4363SOL    HW223559   8.696   1.106   0.647 -0.9177  0.0223  0.9705
 4364SOL     OW23560   4.067   8.681   3.968 -0.2453  0.1312 -0.0319
 4364SOL    HW123561   4.131   8.753   3.939 -0.0003 -0.2846 -0.5290
 4364SOL    HW223562   4.035   8.631   3.888 -2.3132  1.2510  0.0572
 4365SOL     OW23563   8.721   1.555   3.340 -0.1892 -0.3979  0.4749
 4365SOL    HW123564   8.663   1.635   3.328 -0.4620 -0.7500 -0.6089
 4365SOL    HW223565   8.664   1.473   3.343  0.2712 -0.7762 -0.9604
 4366SOL     OW23566   1.528   6.610   2.617  0.1212 -0.0261 -0.5886
 4366SOL    HW123567   1.546   6.675   2.690 -2.1704  0.6159 -0.5589
 4366SOL    HW223568   1.520   6.658   2.530 -2.7458 -0.0428 -0.3955
 4367SOL     OW23569   4.959   8.353   3.556 -0.1718 -0.1801  0.1773
 4367SOL    HW123570   5.026   8.414   3.599 -0.8155 -0.1694  1.1677
 4367SOL    HW223571   5.007   8.276   3.513  0.5540  0.3782 -0.0302
 4368SOL     OW23572   4.435   1.050   0.624 -0.1594 -0.8940  0.5883
 4368SOL    HW123573   4.388   1.015   0.543  0.5292 -1.2679  0.3418
 4368SOL    HW223574   4.374   1.047   0.703 -1.1325  0.2906 -0.0985
 4369SOL     OW23575   2.170   2.600   0.379  0.3805  0.3062  0.6679
 4369SOL    HW123576   2.109   2.677   0.361  0.5038  0.6925  1.9147
 4369SOL    HW223577   2.263   2.622   0.347 -0.0015 -0.1018 -0.7927
 4370SOL     OW23578   2.991   0.169   3.849 -0.1300  0.7121 -0.3253
 4370SOL    HW123579   3.049   0.250   3.849 -0.2040  0.7865  1.1960
 4370SOL    HW223580   3.022   0.105   3.920 -1.7760  0.6867  0.4228
 4371SOL     OW23581   8.363   2.875   1.618 -0.1146  0.2103  0.6861
 4371SOL    HW123582   8.311   2.822   1.684 -0.2800  1.9836  2.0093
 4371SOL    HW223583   8.443   2.822   1.588 -1.0515 -1.3268  0.8828
 4372SOL     OW23584   9.847   5.028   0.445 -0.9228 -0.3152 -0.5498
 4372SOL    HW123585   9.884   4.987   0.529 -0.1361  0.0790 -0.7046
 4372SOL    HW223586   9.830   4.956   0.378 -1.7563 -0.6625  0.0139
 4373SOL     OW23587   9.702   4.768   3.902 -0.0717  0.2444 -0.2491
 4373SOL    HW123588   9.743   4.767   3.811 -0.4124 -0.3721 -0.3985
 4373SOL    HW223589   9.676   4.675   3.928  1.3241  0.2035  1.0625
 4374SOL     OW23590   1.401   6.478   3.453 -0.1689 -0.3776 -0.0984
 4374SOL    HW123591   1.429   6.392   3.494  0.5536  0.4551  1.2048
 4374SOL    HW223592   1.462   6.501   3.378  0.9371  0.0337  0.9183
 4375SOL     OW23593   9.755   2.589   0.474 -0.0863 -0.0203 -0.6764
 4375SOL    HW123594   9.767   2.586   0.574 -0.2911 -1.4140 -0.6856
 4375SOL    HW223595   9.833   2.637   0.433  0.5302 -0.3639  0.0755
 4376SOL     OW23596   1.278   0.242   0.170 -0.7656 -0.6686  0.3185
 4376SOL    HW123597   1.265   0.279   0.263 -2.5551 -0.8108  0.1311
 4376SOL    HW223598   1.193   0.201   0.138 -1.1263  2.1794 -2.6315
 4377SOL     OW23599   1.030   2.090   3.206 -0.1834 -0.6347 -0.6170
 4377SOL    HW123600   1.048   1.992   3.213 -2.3391 -0.9923  0.4522
 4377SOL    HW223601   0.995   2.110   3.114  2.1239 -0.5048 -1.5066
 4378SOL     OW23602   4.205   8.519   1.784  0.6210  0.1260  0.2998
 4378SOL    HW123603   4.241   8.493   1.694  1.3174  2.1393 -0.0358
 4378SOL    HW223604   4.162   8.440   1.827  3.5631 -1.8363 -0.2084
 4379SOL     OW23605   7.575   3.492   3.433 -0.2726 -0.0673  0.1968
 4379SOL    HW123606   7.571   3.445   3.345  0.6663 -0.4972  0.3818
 4379SOL    HW223607   7.543   3.431   3.505  1.4027 -0.6044  0.5030
 4380SOL     OW23608   9.374   5.380   0.415  0.7220 -0.4794 -0.2726
 4380SOL    HW123609   9.297   5.404   0.475 -0.6452 -1.6840 -1.5161
 4380SOL    HW223610   9.410   5.463   0.372 -0.3622  0.0099 -0.2553
 4381SOL     OW23611   7.441   6.960   2.311 -0.3668  0.3450  0.6661
 4381SOL    HW123612   7.355   6.944   2.263  1.3459 -1.2268 -2.0046
 4381SOL    HW223613   7.461   7.058   2.313 -0.6862  0.4650 -1.4661
 4382SOL     OW23614   3.530   7.704   0.145 -0.1910  0.7289  0.3805
 4382SOL    HW123615   3.517   7.802   0.156 -0.5851  0.8280 -0.8911
 4382SOL    HW223616   3.611   7.687   0.090  0.0180  0.3281  0.8047
 4383SOL     OW23617   9.895   5.090   0.934  0.4222  0.7401 -0.3881
 4383SOL    HW123618   9.918   5.166   0.873  2.1435  0.6444  0.0983
 4383SOL    HW223619   9.845   5.125   1.014  1.1375  1.3627 -0.2011
 4384SOL     OW23620   8.397   1.489   0.433 -0.7578  0.3232  0.4954
 4384SOL    HW123621   8.428   1.516   0.524 -0.3694  1.3600  0.0660
 4384SOL    HW223622   8.477   1.463   0.377 -1.0048 -0.4143  0.4749
 4385SOL     OW23623   2.534   2.805   1.059 -0.0221 -0.5968 -0.1849
 4385SOL    HW123624   2.590   2.823   1.139  1.2868 -1.6749 -0.8259
 4385SOL    HW223625   2.438   2.816   1.082  0.3551 -0.6502  1.4587
 4386SOL     OW23626   1.499   1.616   0.246  0.0737 -0.3930 -0.9795
 4386SOL    HW123627   1.511   1.518   0.236 -0.9777 -0.6822  0.4072
 4386SOL    HW223628   1.490   1.659   0.156 -1.5518 -1.8333 -1.5258
 4387SOL     OW23629   1.359   9.694   2.852  0.3014  0.7687 -0.0591
 4387SOL    HW123630   1.295   9.647   2.791  0.2770  0.8916 -0.1258
 4387SOL    HW223631   1.309   9.748   2.919  0.3388  1.0373 -0.2466
 4388SOL     OW23632   8.140   2.729   3.524  0.7610 -0.1726 -0.0713
 4388SOL    HW123633   8.120   2.746   3.428  0.2285  0.3298  0.1287
 4388SOL    HW223634   8.137   2.815   3.575 -0.8157 -0.6863  0.7327
 4389SOL     OW23635   4.517   4.700   1.451 -0.9126 -0.2808  0.4068
 4389SOL    HW123636   4.551   4.606   1.447  1.4412  0.5807 -0.5798
 4389SOL    HW223637   4.492   4.731   1.360 -1.0385  0.2740  0.6245
 4390SOL     OW23638   4.215   9.877   3.347  0.5348 -0.0303 -0.2339
 4390SOL    HW123639   4.264   9.801   3.304 -0.0098  0.0545 -1.0088
 4390SOL    HW223640   4.262   9.963   3.326 -0.5328  0.1730 -1.8900
 4391SOL     OW23641   8.761   8.945   1.208 -0.4489  0.1836 -0.1058
 4391SOL    HW123642   8.846   8.948   1.156 -1.7417 -1.9670 -2.4348
 4391SOL    HW223643   8.780   8.966   1.304  2.7155 -0.4130 -0.5570
 4392SOL     OW23644   8.217   1.326   0.520 -0.0891  0.1156 -0.3885
 4392SOL    HW123645   8.123   1.360   0.516 -0.3056 -0.3039  0.7790
 4392SOL    HW223646   8.280   1.395   0.484 -0.5557  1.6196  1.5603
 4393SOL     OW23647   9.656   3.018   0.324  0.0035  0.2763 -0.4806
 4393SOL    HW123648   9.722   3.028   0.249  1.8186  1.2662  1.1969
 4393SOL    HW223649   9.596   2.941   0.305  0.0323  0.8500 -3.2237
 4394SOL     OW23650   8.012   0.162   1.902  0.1066 -0.3505 -0.1626
 4394SOL    HW123651   8.074   0.232   1.937  0.7556  0.4249 -2.7464
 4394SOL    HW223652   7.983   0.186   1.810 -2.3913 -1.7836  0.2011
 4395SOL     OW23653   8.683   1.114   2.044 -0.0450 -0.8566 -0.1846
 4395SOL    HW123654   8.687   1.137   2.141  0.2926 -1.1942 -0.1144
 4395SOL    HW223655   8.775   1.124   2.004 -0.8700  2.8328 -1.3116
 4396SOL     OW23656   0.852   7.761   1.622 -0.9094  0.2129 -1.0211
 4396SOL    HW123657   0.812   7.671   1.641  0.1151  0.1022  0.7422
 4396SOL    HW223658   0.916   7.753   1.545 -1.9451 -0.2449 -1.8429
 4397SOL     OW23659   3.552   4.879   3.999  0.8945  0.2225  0.4016
 4397SOL    HW123660   3.567   4.961   3.944 -2.1231  0.5901  0.0634
 4397SOL    HW223661   3.523   4.905   4.091  0.4281 -0.4560  0.4474
 4398SOL     OW23662   4.306   0.401   3.145 -0.3444  0.2116 -0.0464
 4398SOL    HW123663   4.241   0.450   3.087 -0.0686 -0.6388 -1.0902
 4398SOL    HW223664   4.259   0.366   3.226 -0.7122  1.4882  0.3063
 4399SOL     OW23665   8.766   6.277   2.928  0.1733  0.5983  0.4153
 4399SOL    HW123666   8.732   6.332   3.004 -0.0507 -0.4052  1.0506
 4399SOL    HW223667   8.728   6.184   2.934  1.9813 -0.1571  0.3981
 4400SOL     OW23668   7.901   0.533   1.476  0.8414  0.1071 -0.5050
 4400SOL    HW123669   7.995   0.521   1.443  0.8621 -0.6617 -0.1885
 4400SOL    HW223670   7.847   0.452   1.451  0.5678  0.0303  0.3269
 4401SOL     OW23671   0.798   1.607   2.756 -0.5560 -0.1874  0.3991
 4401SOL    HW123672   0.829   1.701   2.739 -0.2179  0.0562  2.2475
 4401SOL    HW223673   0.735   1.579   2.683 -0.0347  1.1718 -0.6057
 4402SOL     OW23674   3.630   1.750   3.854  0.0694 -0.0430  0.0939
 4402SOL    HW123675   3.648   1.722   3.760  0.9146 -1.6841  0.7151
 4402SOL    HW223676   3.707   1.723   3.912 -1.2295 -0.6666  1.5629
 4403SOL     OW23677   4.021   9.015   2.814  0.0957 -0.5256 -0.1853
 4403SOL    HW123678   4.023   9.093   2.876 -2.5005 -0.9620  0.5114
 4403SOL    HW223679   4.018   8.930   2.866 -2.5020 -0.8855 -0.8295
 4404SOL     OW23680   3.140   6.497   2.332 -0.4947 -0.1752 -0.3216
 4404SOL    HW123681   3.197   6.574   2.305 -1.1275 -0.1442 -1.6029
 4404SOL    HW223682   3.192   6.436   2.391 -0.0356  1.3075  0.8272
 4405SOL     OW23683   2.917   9.863   1.205 -0.6575  0.2463  0.2623
 4405SOL    HW123684   2.976   9.787   1.178 -2.3301 -1.2689  0.7688
 4405SOL    HW223685   2.915   9.871   1.304 -3.6543 -1.6932  0.4158
 4406SOL     OW23686   8.582   1.036   0.249 -0.2274  0.1773  0.1325
 4406SOL    HW123687   8.502   0.983   0.220 -0.4915  0.1493  0.8904
 4406SOL    HW223688   8.563   1.078   0.338  0.5558  0.2665  0.2587
 4407SOL     OW23689   6.905   7.074   2.050  0.1598 -1.1534  0.0914
 4407SOL    HW123690   6.972   7.023   2.103 -0.4040 -3.5655 -1.4580
 4407SOL    HW223691   6.815   7.067   2.094 -0.2306 -2.8353 -0.9286
 4408SOL     OW23692   0.111   0.456   0.667 -0.2683  0.2679  0.0583
 4408SOL    HW123693   0.048   0.429   0.739  1.6782 -0.2515  1.6331
 4408SOL    HW223694   0.198   0.407   0.679  0.5979  1.2925 -1.7674
 4409SOL     OW23695   9.362   9.135   2.753 -0.2417 -1.0899 -0.2649
 4409SOL    HW123696   9.452   9.101   2.725 -0.1699 -1.1058 -0.0182
 4409SOL    HW223697   9.368   9.170   2.847  0.2204  1.6523 -1.2850
 4410SOL     OW23698   0.982   0.959   0.704  0.0605 -0.3522  0.0597
 4410SOL    HW123699   0.915   0.913   0.646  0.3676  1.3695 -1.7098
 4410SOL    HW223700   1.048   0.892   0.738 -1.4603 -1.7565  0.3018
 4411SOL     OW23701   3.637   4.533   1.613 -0.3525 -0.6525 -0.1206
 4411SOL    HW123702   3.559   4.595   1.624 -1.4848 -1.9405 -0.6362
 4411SOL    HW223703   3.652   4.516   1.515  0.2195 -0.8310 -0.0010
 4412SOL     OW23704   9.076   4.113   3.425  0.1499  0.1156 -0.0329
 4412SOL    HW123705   9.039   4.086   3.336 -0.6068 -0.9772  0.5913
 4412SOL    HW223706   9.118   4.033   3.469 -0.0154  0.4960  0.8340
 4413SOL     OW23707   5.122   0.008   1.761 -0.2940 -0.8458 -0.1366
 4413SOL    HW123708   5.094   0.024   1.855  1.6422 -4.1225  1.1135
 4413SOL    HW223709   5.047  -0.035   1.710 -1.0684  0.1913  0.1194
 4414SOL     OW23710   9.561   8.502   3.606  0.2078 -0.1356 -0.5520
 4414SOL    HW123711   9.555   8.590   3.559 -0.8418  0.3727  0.5053
 4414SOL    HW223712   9.471   8.479   3.644  0.9075 -0.8188  0.7099
 4415SOL     OW23713   3.364   1.611   2.925 -0.0711 -0.2545  0.0860
 4415SOL    HW123714   3.374   1.513   2.942 -0.3111 -0.5490 -1.4290
 4415SOL    HW223715   3.268   1.637   2.930 -0.3960 -0.7531 -2.8680
 4416SOL     OW23716   9.743   3.406   2.546  0.5345 -0.3004 -0.3038
 4416SOL    HW123717   9.789   3.317   2.547  2.1850  0.5475  0.9904
 4416SOL    HW223718   9.741   3.441   2.452  2.7841 -0.2671 -0.3784
 4417SOL     OW23719   0.718   3.160   1.849  0.3586  0.1150  0.5926
 4417SOL    HW123720   0.689   3.129   1.759  0.4364 -0.7751  0.8742
 4417SOL    HW223721   0.712   3.260   1.853 -0.1147  0.1229 -0.2299
 4418SOL     OW23722   3.537   3.373   1.769 -0.3078  0.1617 -0.2629
 4418SOL    HW123723   3.546   3.319   1.853 -0.6203  0.1759 -0.2221
 4418SOL    HW223724   3.553   3.470   1.789  0.4092  0.0688 -0.3640
 4419SOL     OW23725   6.273   9.311   1.951 -0.0849  0.4191  0.0663
 4419SOL    HW123726   6.317   9.239   1.898  0.7390  0.2925  0.9074
 4419SOL    HW223727   6.342   9.359   2.005 -1.0951 -0.4658  2.1918
 4420SOL     OW23728   3.686   1.964   3.699 -0.5615 -0.1961  0.4673
 4420SOL    HW123729   3.688   1.921   3.789 -0.6738  2.1870  1.6600
 4420SOL    HW223730   3.763   2.028   3.691  0.7364 -1.9559 -1.9828
 4421SOL     OW23731   0.571   2.507   3.326  0.0733 -0.2353  0.6814
 4421SOL    HW123732   0.576   2.461   3.238 -0.7893 -3.3733  2.2066
 4421SOL    HW223733   0.653   2.486   3.380  1.0851  2.4939  0.2999
 4422SOL     OW23734   8.280   7.892   1.855 -0.1125 -0.1315  0.3514
 4422SOL    HW123735   8.356   7.942   1.813  0.3278 -0.0178  1.2474
 4422SOL    HW223736   8.261   7.933   1.945 -1.3776 -0.0251  0.0349
 4423SOL     OW23737   2.800   4.932   0.967 -0.2831  0.2934 -0.0242
 4423SOL    HW123738   2.806   4.913   0.869 -1.4993  1.7926 -0.4178
 4423SOL    HW223739   2.868   5.002   0.991  0.3484 -0.4300  0.3031
 4424SOL     OW23740   0.539   6.935   1.770  1.0208  0.4396  0.1816
 4424SOL    HW123741   0.614   6.968   1.713  0.7377 -0.5630 -0.7820
 4424SOL    HW223742   0.502   6.850   1.732  0.6797 -0.1283  1.7367
 4425SOL     OW23743   2.763   1.719   1.877 -0.1357 -0.6153 -0.7368
 4425SOL    HW123744   2.734   1.643   1.934 -0.2744  0.8331  1.1693
 4425SOL    HW223745   2.857   1.744   1.899  0.2126 -0.7750 -1.9745
 4426SOL     OW23746   3.776   3.437   1.324 -0.1429 -0.5361 -0.6610
 4426SOL    HW123747   3.718   3.472   1.250 -1.8398  1.6774  1.5900
 4426SOL    HW223748   3.768   3.338   1.329 -0.6244 -0.6302 -2.9277
 4427SOL     OW23749   1.308   3.395   2.336  0.0751  0.2203  0.3625
 4427SOL    HW123750   1.386   3.353   2.290  0.1340 -0.7400  1.3298
 4427SOL    HW223751   1.248   3.437   2.268 -0.4233 -2.1742 -0.7267
 4428SOL     OW23752   7.677   8.848   2.277  0.1633 -0.3090 -0.1428
 4428SOL    HW123753   7.606   8.917   2.294  0.1756 -0.2882 -0.1768
 4428SOL    HW223754   7.765   8.893   2.266  0.6375 -0.4894  2.4989
 4429SOL     OW23755   8.588   2.524   0.683 -1.0097 -0.0114  0.3643
 4429SOL    HW123756   8.642   2.577   0.617 -1.6318  0.4269  0.2061
 4429SOL    HW223757   8.548   2.444   0.637 -0.2627 -0.4975  0.5493
 4430SOL     OW23758   2.295   9.262   0.073  0.1983  0.1373  0.1383
 4430SOL    HW123759   2.305   9.362   0.075  0.3431  0.1328 -0.3213
 4430SOL    HW223760   2.363   9.223   0.012  1.3239 -0.4015  1.7218
 4431SOL     OW23761   0.950   9.251   2.868 -0.4036  0.4356 -0.0587
 4431SOL    HW123762   0.975   9.338   2.825  2.4738  1.5432  3.5853
 4431SOL    HW223763   1.008   9.179   2.831  1.2990  1.1859  1.0637
 4432SOL     OW23764   0.755   5.699   0.820 -0.3162 -0.4577  0.3687
 4432SOL    HW123765   0.685   5.660   0.761 -0.7429  0.9033 -0.0501
 4432SOL    HW223766   0.829   5.633   0.832 -0.7137 -1.1458 -0.8492
 4433SOL     OW23767   2.990   5.601   0.277 -0.0577  0.4631 -0.0698
 4433SOL    HW123768   3.001   5.681   0.218  0.4042  0.7492  0.3968
 4433SOL    HW223769   3.052   5.528   0.245 -1.6017 -0.2752 -1.4446
 4434SOL     OW23770   1.897   6.487   0.618 -0.1781  0.4184  0.3134
 4434SOL    HW123771   1.810   6.477   0.570 -0.4821 -1.1001  1.1567
 4434SOL    HW223772   1.928   6.582   0.610 -1.9618  1.0136  0.1028
 4435SOL     OW23773   0.383   1.123   3.441 -0.1526  0.5640  0.6420
 4435SOL    HW123774   0.355   1.218   3.456 -1.3145  0.2108  0.7256
 4435SOL    HW223775   0.306   1.070   3.406  1.4865  0.5468 -3.1983
 4436SOL     OW23776   9.928   0.583   0.468  0.5581 -0.0024 -0.2226
 4436SOL    HW123777   9.921   0.672   0.515 -1.8355 -0.2624 -0.0289
 4436SOL    HW223778   9.976   0.518   0.527  1.8754  1.0203 -0.1543
 4437SOL     OW23779   9.439   6.114   3.431  0.4891  0.6375  0.2899
 4437SOL    HW123780   9.354   6.088   3.385  0.7369  0.2009  0.0805
 4437SOL    HW223781   9.514   6.117   3.364  0.7840  0.3090  0.6021
 4438SOL     OW23782   7.796   8.791   0.763  0.4904 -0.3690  0.1573
 4438SOL    HW123783   7.823   8.886   0.782 -0.4175 -0.4396  2.0016
 4438SOL    HW223784   7.822   8.734   0.841 -0.5566 -1.3114 -0.1803
 4439SOL     OW23785   0.234   9.637   2.676 -0.8995  0.2344 -0.3574
 4439SOL    HW123786   0.171   9.671   2.607 -0.1321 -1.3140 -1.8703
 4439SOL    HW223787   0.287   9.562   2.638 -1.0104 -1.1864  2.1882
 4440SOL     OW23788   4.370   4.304   0.476 -0.1181 -0.0211 -0.1810
 4440SOL    HW123789   4.432   4.253   0.417  0.6457 -0.4154  0.9327
 4440SOL    HW223790   4.324   4.240   0.538  0.0373  0.5148  0.4946
 4441SOL     OW23791   5.150   9.411   1.828 -0.1590 -0.4457 -0.5407
 4441SOL    HW123792   5.194   9.406   1.917  0.9903  1.7053 -0.9667
 4441SOL    HW223793   5.201   9.474   1.769 -1.6057 -0.9006 -2.3074
 4442SOL     OW23794   8.230   8.624   2.558  0.3716 -0.2456  0.9515
 4442SOL    HW123795   8.258   8.664   2.645 -1.7661 -1.1451  2.0993
 4442SOL    HW223796   8.131   8.633   2.547  0.5702 -0.3819 -1.2824
 4443SOL     OW23797   4.221   0.057   0.607 -0.3308  0.4824 -0.7687
 4443SOL    HW123798   4.150   0.118   0.643  0.2685  1.5227 -1.3155
 4443SOL    HW223799   4.231  -0.022   0.667 -0.7917  1.1641  0.2134
 4444SOL     OW23800   2.186   2.562   2.231 -0.4894  0.3207 -0.1060
 4444SOL    HW123801   2.182   2.481   2.289 -0.5625  0.5615  0.2288
 4444SOL    HW223802   2.282   2.590   2.219 -0.5672  1.2345  1.2597
 4445SOL     OW23803   8.474   4.027   3.117 -0.3414 -0.4764 -1.0164
 4445SOL    HW123804   8.418   3.946   3.133 -0.1605 -0.6784 -1.4134
 4445SOL    HW223805   8.415   4.108   3.111 -0.5167 -0.5698 -0.5785
 4446SOL     OW23806   8.033   7.951   3.454  0.0327  0.2207 -0.2993
 4446SOL    HW123807   7.952   7.996   3.493 -1.6945 -1.2424 -2.0739
 4446SOL    HW223808   8.084   8.016   3.398 -0.4233  0.9186  0.0871
 4447SOL     OW23809   3.727   9.945   1.493  0.2709  0.1866 -0.2024
 4447SOL    HW123810   3.645  10.000   1.476 -0.5134 -0.0413  2.6523
 4447SOL    HW223811   3.808  10.003   1.486 -0.2640  0.8445 -1.0670
 4448SOL     OW23812   6.677   8.495   1.949  0.3513  0.0363 -0.4238
 4448SOL    HW123813   6.745   8.422   1.941  1.1398  0.8018 -0.8469
 4448SOL    HW223814   6.597   8.461   1.998  1.7033 -0.4025  1.5343
 4449SOL     OW23815   0.065   6.517   2.877  0.3230  0.5891 -0.1285
 4449SOL    HW123816   0.165   6.519   2.882  0.3723 -2.0683  0.8687
 4449SOL    HW223817   0.036   6.507   2.782  1.0168  1.1302 -0.3982
 4450SOL     OW23818   8.245   3.508   3.823 -0.5857  0.5168 -0.3110
 4450SOL    HW123819   8.209   3.600   3.836 -1.0049  0.3969 -0.6268
 4450SOL    HW223820   8.195   3.444   3.882  0.6209  0.6999  0.9474
 4451SOL     OW23821   9.659   7.897   2.054  0.6348 -0.3554 -0.1388
 4451SOL    HW123822   9.659   7.997   2.051 -0.9829 -0.3169  0.6112
 4451SOL    HW223823   9.631   7.862   1.965  0.0237 -0.1127 -0.0466
 4452SOL     OW23824   0.241   8.420   0.847  0.3512 -0.8310  0.4147
 4452SOL    HW123825   0.263   8.329   0.880  1.8484 -0.5054  0.3421
 4452SOL    HW223826   0.267   8.428   0.751 -0.2135 -0.4732  0.2875
 4453SOL     OW23827   8.374   9.862   1.093 -0.3670  0.1875 -0.2169
 4453SOL    HW123828   8.414   9.860   1.185  0.9969  0.6717 -0.7922
 4453SOL    HW223829   8.435   9.911   1.031 -1.0601 -0.5450 -1.4979
 4454SOL     OW23830   2.749   0.941   2.290 -0.2535  0.1955 -0.1580
 4454SOL    HW123831   2.712   0.952   2.197  1.5084  0.2572 -0.8792
 4454SOL    HW223832   2.813   1.016   2.308 -0.2236 -0.0964  0.9279
 4455SOL     OW23833   4.021   4.526   0.428  0.1936 -0.0364  0.2071
 4455SOL    HW123834   4.059   4.477   0.350  2.8510 -0.1867  1.5431
 4455SOL    HW223835   4.094   4.572   0.478 -1.6988  1.6079  1.5531
 4456SOL     OW23836   8.187   2.301   3.241 -0.0158 -0.7880  0.5074
 4456SOL    HW123837   8.123   2.273   3.170 -0.4089 -0.2223  0.6387
 4456SOL    HW223838   8.142   2.300   3.330 -0.4213  1.5236  0.3495
 4457SOL     OW23839   0.072   7.851   2.864  0.2022 -0.1793 -0.1283
 4457SOL    HW123840   0.063   7.950   2.871 -1.4454 -0.3140 -0.0235
 4457SOL    HW223841   0.058   7.823   2.769  0.1942 -0.3499 -0.0773
 4458SOL     OW23842   9.560   0.654   2.656 -0.2427 -0.2043  0.0143
 4458SOL    HW123843   9.643   0.663   2.600 -0.3683 -2.5120 -0.5836
 4458SOL    HW223844   9.547   0.558   2.681 -1.6053  0.4357  1.8697
 4459SOL     OW23845   8.333   4.754   3.687 -0.1718  0.0612  0.1882
 4459SOL    HW123846   8.309   4.671   3.638 -1.5203 -0.4845  1.7200
 4459SOL    HW223847   8.409   4.799   3.641 -1.1314 -0.6265 -2.1521
 4460SOL     OW23848   2.596   0.442   0.726  0.4613  0.0533  0.3647
 4460SOL    HW123849   2.615   0.396   0.639  1.2236 -0.1800  0.6459
 4460SOL    HW223850   2.508   0.412   0.762  0.8742 -1.0630  0.4598
 4461SOL     OW23851   8.904   8.597   1.008  0.4917  0.9945  0.2631
 4461SOL    HW123852   8.934   8.581   1.102  0.6094 -1.0914 -0.0975
 4461SOL    HW223853   8.886   8.694   0.995  1.0963  1.4030  2.2526
 4462SOL     OW23854   7.977   4.210   4.012  0.2948 -0.2893  0.2863
 4462SOL    HW123855   7.933   4.180   3.927 -0.0204 -0.9095  0.6645
 4462SOL    HW223856   8.065   4.252   3.991  0.5374 -1.0739 -0.2992
 4463SOL     OW23857   2.382   3.531   3.096 -0.3596 -0.0408  0.2006
 4463SOL    HW123858   2.357   3.593   3.171  0.1726 -0.4882  0.7510
 4463SOL    HW223859   2.475   3.552   3.066 -0.4111 -0.1561 -0.0363
 4464SOL     OW23860   7.871   9.527   3.825 -0.1492  0.0058 -0.2162
 4464SOL    HW123861   7.934   9.467   3.775 -0.3695 -0.9309  0.6129
 4464SOL    HW223862   7.879   9.620   3.790 -0.4417 -0.6585 -2.1594
 4465SOL     OW23863   3.232   3.897   2.927  0.1063  0.3306  0.2454
 4465SOL    HW123864   3.145   3.888   2.878  0.3777  0.0817 -0.1918
 4465SOL    HW223865   3.224   3.857   3.018  0.5872 -2.2403 -0.7989
 4466SOL     OW23866   0.388   6.060   0.960  0.0399  0.3436 -0.6009
 4466SOL    HW123867   0.375   6.055   0.861  1.4021  1.3164 -0.8419
 4466SOL    HW223868   0.445   6.138   0.982 -0.1709  0.0726  0.9616
 4467SOL     OW23869   3.797   8.467   0.373  0.8134 -0.4196 -0.1028
 4467SOL    HW123870   3.886   8.431   0.402 -0.2233 -1.5197  1.7997
 4467SOL    HW223871   3.724   8.418   0.421 -0.8545  0.0743 -2.0795
 4468SOL     OW23872   2.778   3.923   2.670 -0.4939  0.7011  0.7122
 4468SOL    HW123873   2.717   3.998   2.645 -1.9003 -0.3289  1.0095
 4468SOL    HW223874   2.774   3.852   2.600 -1.2121 -0.2923  1.7541
 4469SOL     OW23875   3.919   3.109   0.406  0.0803  0.0103  0.1822
 4469SOL    HW123876   3.910   3.023   0.357  0.1361 -0.5554  1.1457
 4469SOL    HW223877   3.914   3.185   0.342 -0.8595 -0.6774 -0.5725
 4470SOL     OW23878   0.913   5.445   1.229  0.1132 -0.0256 -0.4784
 4470SOL    HW123879   0.933   5.371   1.165 -2.2874 -1.5156  0.4361
 4470SOL    HW223880   0.826   5.426   1.276  0.6364  2.2116  1.4729
 4471SOL     OW23881   8.852   8.874   2.453 -0.5179  0.4317  0.8770
 4471SOL    HW123882   8.795   8.903   2.376  0.3027  1.2829  0.5705
 4471SOL    HW223883   8.833   8.779   2.476  0.9996 -0.6112 -2.0094
 4472SOL     OW23884   1.969   7.268   1.708  0.4927  0.4732 -0.2996
 4472SOL    HW123885   1.969   7.274   1.608  0.4266  2.2390 -0.2010
 4472SOL    HW223886   2.046   7.212   1.738  0.1129 -0.6513 -1.3645
 4473SOL     OW23887   3.532   2.077   1.737 -0.2501 -0.1072 -0.7094
 4473SOL    HW123888   3.464   2.151   1.745 -0.5762 -0.4096 -0.6580
 4473SOL    HW223889   3.612   2.099   1.791 -0.0692  0.5254 -1.2329
 4474SOL     OW23890   3.775   4.697   2.285 -0.1557 -0.0728  0.4659
 4474SOL    HW123891   3.785   4.675   2.188 -0.9836  0.2592  0.2941
 4474SOL    HW223892   3.795   4.617   2.340  1.3903  0.0322  0.0768
 4475SOL     OW23893   3.405   7.342   2.023 -0.1368 -0.3444 -0.0518
 4475SOL    HW123894   3.490   7.391   2.001  1.4043 -2.7956  0.3173
 4475SOL    HW223895   3.348   7.336   1.941  0.6009  0.2128 -0.6161
 4476SOL     OW23896   1.292   6.092   2.133  0.5318 -0.3850  1.1218
 4476SOL    HW123897   1.254   6.053   2.049  0.7773  0.3045  0.6849
 4476SOL    HW223898   1.305   6.019   2.200 -1.7784 -0.6082  1.3719
 4477SOL     OW23899   2.191   7.112   0.528 -0.4087  0.0559  0.1644
 4477SOL    HW123900   2.270   7.127   0.587 -1.4255 -0.9034  1.8116
 4477SOL    HW223901   2.212   7.040   0.461  0.5022  0.6430 -0.1907
 4478SOL     OW23902   3.324   9.656   0.815  0.5764 -0.2665 -0.6903
 4478SOL    HW123903   3.255   9.587   0.794  0.8057 -1.1350  1.3454
 4478SOL    HW223904   3.403   9.613   0.858  0.7200  1.2675  0.6185
 4479SOL     OW23905   0.379   6.287   3.034  0.0475 -0.2098  0.0307
 4479SOL    HW123906   0.375   6.372   2.981  0.3691 -1.1383 -1.5271
 4479SOL    HW223907   0.446   6.296   3.107  1.3383  0.2957 -1.2044
 4480SOL     OW23908   2.740   1.858   2.898 -0.2589  0.1844 -0.3004
 4480SOL    HW123909   2.759   1.954   2.920  0.7536 -0.6111  2.5010
 4480SOL    HW223910   2.822   1.815   2.861 -0.3772  0.1001 -0.4648
 4481SOL     OW23911   1.522   3.302   1.116  0.1607 -0.1394 -0.2026
 4481SOL    HW123912   1.445   3.362   1.138 -0.3217 -1.3645  1.5708
 4481SOL    HW223913   1.487   3.216   1.079  0.7239 -0.2717 -0.4180
 4482SOL     OW23914   2.299   7.863   2.163  0.6662  0.0321  0.3021
 4482SOL    HW123915   2.247   7.830   2.085  1.5960 -2.0158  0.5118
 4482SOL    HW223916   2.263   7.951   2.193 -0.2390  0.4346 -1.8930
 4483SOL     OW23917   9.284   5.456   3.390  0.0803  0.5307 -0.6793
 4483SOL    HW123918   9.293   5.517   3.312  0.6990 -0.4315 -1.3708
 4483SOL    HW223919   9.311   5.363   3.364 -3.6276 -0.6913 -0.4569
 4484SOL     OW23920   4.784   2.252   0.540  0.1738  0.2965 -0.5047
 4484SOL    HW123921   4.767   2.184   0.469  2.3134  0.9939 -1.7502
 4484SOL    HW223922   4.752   2.341   0.508 -3.0809 -0.1576  1.3240
 4485SOL     OW23923   4.056   2.353   2.698 -0.2512  0.7398  0.3451
 4485SOL    HW123924   4.001   2.334   2.617  0.3306 -0.6326  0.2505
 4485SOL    HW223925   3.996   2.385   2.772 -1.0714  0.0624 -0.0122
 4486SOL     OW23926   9.019   4.029   2.561 -0.0031 -0.4130 -0.2477
 4486SOL    HW123927   9.092   3.969   2.528 -0.7774 -0.8117 -1.2365
 4486SOL    HW223928   9.052   4.079   2.642  1.1070 -1.1408 -0.2357
 4487SOL     OW23929   4.680   2.357   1.018 -0.0837  0.4959 -1.0363
 4487SOL    HW123930   4.735   2.390   0.942 -0.9935  1.1892 -1.3972
 4487SOL    HW223931   4.586   2.390   1.009 -0.4276 -0.1991 -0.1202
 4488SOL     OW23932   7.848   0.249   0.761 -0.4710  0.5750 -0.0273
 4488SOL    HW123933   7.895   0.220   0.678 -1.9961  0.5147 -0.8911
 4488SOL    HW223934   7.847   0.349   0.766  2.5620  0.5652  1.6560
 4489SOL     OW23935   1.063   0.484   1.322 -0.6655  0.2103 -0.1841
 4489SOL    HW123936   1.119   0.411   1.284 -0.5746 -0.1526  0.6447
 4489SOL    HW223937   1.094   0.572   1.285 -0.1683 -0.0775 -0.4601
 4490SOL     OW23938   8.571   2.140   3.625 -0.3121  0.4537  0.8042
 4490SOL    HW123939   8.608   2.233   3.618  1.0225 -0.1586 -0.4426
 4490SOL    HW223940   8.644   2.078   3.654 -1.2848 -0.1638  1.9639
 4491SOL     OW23941   9.257   0.391   1.316  0.1755 -0.1622 -0.5554
 4491SOL    HW123942   9.328   0.376   1.247  0.8375 -0.3818  0.1686
 4491SOL    HW223943   9.295   0.374   1.407 -1.1569 -1.6089 -0.2477
 4492SOL     OW23944   1.123   1.359   4.043 -0.4610 -0.1230 -0.1064
 4492SOL    HW123945   1.187   1.331   3.972 -0.5702 -1.5829  0.3630
 4492SOL    HW223946   1.052   1.290   4.053 -0.7439  0.3266  1.0502
 4493SOL     OW23947   3.842   8.238   3.462  0.2329  0.0189  0.1713
 4493SOL    HW123948   3.857   8.292   3.379 -0.7785  1.3913  0.8644
 4493SOL    HW223949   3.746   8.212   3.468 -0.0627  1.3566  1.7396
 4494SOL     OW23950   0.299   8.149   1.929 -0.0656 -0.5017  0.2878
 4494SOL    HW123951   0.249   8.182   2.009  1.6085  2.5437  0.1684
 4494SOL    HW223952   0.396   8.140   1.951  0.6718  1.8541 -1.7536
 4495SOL     OW23953   4.824   0.904   2.261  0.0254 -0.5529 -0.4357
 4495SOL    HW123954   4.854   0.817   2.299 -2.6409 -1.5190 -0.4459
 4495SOL    HW223955   4.860   0.913   2.168 -0.7889 -2.3264 -0.9630
 4496SOL     OW23956   5.329   9.865   1.675  0.4769 -0.2077  0.1849
 4496SOL    HW123957   5.318   9.855   1.576  1.3796  2.2381 -0.1852
 4496SOL    HW223958   5.264   9.933   1.708  1.5981  0.5055  0.9353
 4497SOL     OW23959   3.340   4.325   2.624 -0.2653 -0.5659  0.0358
 4497SOL    HW123960   3.429   4.327   2.578 -1.2811 -0.7166 -1.9821
 4497SOL    HW223961   3.311   4.418   2.645 -1.8286 -0.1345 -3.7128
 4498SOL     OW23962   1.023   7.733   2.351  0.1199  0.2118 -0.0833
 4498SOL    HW123963   1.116   7.711   2.381 -0.3831 -1.1190  0.5384
 4498SOL    HW223964   1.012   7.708   2.255  0.7395  1.4459 -0.4903
 4499SOL     OW23965   4.778   4.266   1.348 -0.1094  0.1299  0.4344
 4499SOL    HW123966   4.728   4.181   1.334 -0.6691  0.2884  1.4140
 4499SOL    HW223967   4.761   4.328   1.272  0.6726 -0.8075 -0.5131
 4500SOL     OW23968   9.252   4.033   3.715  0.0420 -0.0709 -0.2259
 4500SOL    HW123969   9.269   4.130   3.699  1.7425 -0.6262 -1.9924
 4500SOL    HW223970   9.276   3.981   3.633 -3.2405 -1.7545 -0.1943
 4501SOL     OW23971   0.394   7.222   0.021 -0.3671 -0.1094 -0.0249
 4501SOL    HW123972   0.329   7.175  -0.040 -0.8091 -0.5935  0.8147
 4501SOL    HW223973   0.417   7.311  -0.018 -0.5686 -0.4586 -0.9607
 4502SOL     OW23974   0.229   7.106   2.351  0.6397 -0.1132  0.0194
 4502SOL    HW123975   0.249   7.035   2.418 -1.0781 -0.3897  0.2403
 4502SOL    HW223976   0.245   7.196   2.392 -1.0306 -0.2619  1.0132
 4503SOL     OW23977   3.279   9.052   3.375  0.2518 -0.8643 -0.2364
 4503SOL    HW123978   3.244   9.083   3.464 -2.8368 -2.8184 -0.6867
 4503SOL    HW223979   3.209   9.064   3.305  2.5153  0.2899 -2.3922
 4504SOL     OW23980   9.070   8.331   0.732  0.3887 -0.1696  0.2992
 4504SOL    HW123981   9.036   8.268   0.802  2.4010 -2.0073 -0.3050
 4504SOL    HW223982   9.043   8.297   0.642  2.2389 -0.7235 -0.0845
 4505SOL     OW23983   0.546   9.527   1.921  0.2592  0.2232 -0.0913
 4505SOL    HW123984   0.551   9.443   1.867 -1.9432  0.4982 -0.7754
 4505SOL    HW223985   0.524   9.603   1.860  1.1035  1.1051  0.7044
 4506SOL     OW23986   3.687   2.042   2.781  0.8004  0.1972 -0.0058
 4506SOL    HW123987   3.665   2.138   2.797  2.2007  0.7950 -1.5305
 4506SOL    HW223988   3.782   2.024   2.808  0.4501 -0.8440  0.5751
 4507SOL     OW23989   2.583   2.674   3.658 -0.0090 -0.0913  0.2056
 4507SOL    HW123990   2.592   2.763   3.612  0.2354  0.7268  1.8109
 4507SOL    HW223991   2.604   2.601   3.593 -2.2923  0.9092 -1.7251
 4508SOL     OW23992   3.940   9.193   0.388 -0.2519 -0.0876 -0.9396
 4508SOL    HW123993   3.899   9.103   0.401 -2.8666  1.0901 -0.7571
 4508SOL    HW223994   4.016   9.186   0.323  0.0634 -2.5288 -0.3510
 4509SOL     OW23995   3.980   0.192   3.389 -0.0299 -0.1019  0.6050
 4509SOL    HW123996   3.990   0.095   3.365  0.6321 -0.1046  0.8705
 4509SOL    HW223997   4.070   0.234   3.393 -0.2746  0.3841  1.0728
 4510SOL     OW23998   3.605   5.344   3.692  0.6080  0.0907  0.1287
 4510SOL    HW123999   3.647   5.432   3.713  3.4682 -1.4909  1.3112
 4510SOL    HW224000   3.611   5.326   3.593  0.5667  0.9344 -0.0270
 4511SOL     OW24001   2.236   4.328   4.040  0.0175  0.1587 -0.5878
 4511SOL    HW124002   2.237   4.411   4.097  0.5564 -1.2387  1.5145
 4511SOL    HW224003   2.297   4.260   4.081  0.0957 -1.0482 -2.6575
 4512SOL     OW24004   9.250   7.169   1.176 -0.2691 -0.1360 -0.1921
 4512SOL    HW124005   9.163   7.217   1.164 -0.0712 -0.2550 -2.2623
 4512SOL    HW224006   9.260   7.100   1.104  1.9318  0.4546 -0.4711
 4513SOL     OW24007   3.754   1.262   2.602  0.1539  0.0081 -0.0838
 4513SOL    HW124008   3.854   1.265   2.611 -0.0180  2.2253  1.4424
 4513SOL    HW224009   3.722   1.342   2.553 -1.1241  1.1573  2.5048
 4514SOL     OW24010   9.151   6.544   2.475 -0.5056 -0.2537 -0.8896
 4514SOL    HW124011   9.083   6.605   2.515 -0.9965 -0.9962 -0.5686
 4514SOL    HW224012   9.193   6.588   2.396  0.7394  1.3715  0.6495
 4515SOL     OW24013   2.866   8.342   0.956 -0.2175  0.2990  0.3766
 4515SOL    HW124014   2.778   8.304   0.983  0.1415 -0.5174  0.3896
 4515SOL    HW224015   2.939   8.278   0.977  0.4744  1.3151  1.1247
 4516SOL     OW24016   4.400   8.034   2.480  0.2198  0.3062  0.1500
 4516SOL    HW124017   4.475   8.053   2.544 -0.6988  1.4301  0.9364
 4516SOL    HW224018   4.321   7.999   2.531  0.3499 -1.2720 -0.7266
 4517SOL     OW24019   9.939   2.943   0.125 -0.1740 -0.5058  0.1884
 4517SOL    HW124020  10.007   2.925   0.054  0.2614  0.9973  0.2150
 4517SOL    HW224021   9.860   2.990   0.084 -0.6451 -1.1023  0.4004
 4518SOL     OW24022   2.641   8.278   1.093  0.2228 -0.3475  0.0702
 4518SOL    HW124023   2.593   8.197   1.128 -0.7459  0.3170  0.2885
 4518SOL    HW224024   2.575   8.351   1.075  1.2934  1.1090  1.8338
 4519SOL     OW24025   4.151   1.188   0.772 -0.2566  0.0170  0.2737
 4519SOL    HW124026   4.104   1.225   0.852 -0.0981 -0.2637  0.4968
 4519SOL    HW224027   4.169   1.091   0.786  0.2608  0.0906  0.1288
 4520SOL     OW24028   2.221   2.044   2.703 -0.0809 -0.8304 -0.1276
 4520SOL    HW124029   2.319   2.063   2.696 -0.7236  3.1267  0.1139
 4520SOL    HW224030   2.192   2.056   2.798 -1.0098 -0.7246 -0.4225
 4521SOL     OW24031   3.953   3.019   3.033  0.2604  0.1214  0.0276
 4521SOL    HW124032   3.962   3.046   3.129 -0.0086 -0.8716  0.3376
 4521SOL    HW224033   3.933   3.100   2.977  1.4779  0.8760  0.6576
 4522SOL     OW24034   4.515   7.961   3.543  0.8701  0.0281  0.0287
 4522SOL    HW124035   4.497   7.973   3.640  0.1333  1.6342 -0.2899
 4522SOL    HW224036   4.585   8.026   3.513  0.9063 -0.2841 -0.5746
 4523SOL     OW24037   9.352   7.330   1.700 -0.3850  0.0570  0.5909
 4523SOL    HW124038   9.448   7.349   1.720  0.2116 -0.4732 -1.6342
 4523SOL    HW224039   9.337   7.231   1.702 -0.6957  0.0935  0.1947
 4524SOL     OW24040   3.837   9.843   0.937 -0.0893  0.0265  0.6439
 4524SOL    HW124041   3.835   9.826   1.036 -2.5139  0.5174  0.7072
 4524SOL    HW224042   3.800   9.764   0.889  1.2458 -0.2799  0.0842
 4525SOL     OW24043   7.065   9.189   0.516  0.7455  0.1656 -0.0318
 4525SOL    HW124044   6.967   9.202   0.535  0.7488  3.0380 -1.7536
 4525SOL    HW224045   7.117   9.198   0.601 -0.4514 -1.2377  0.8755
 4526SOL     OW24046   9.530   3.308   2.051  0.2144 -0.4204  0.2383
 4526SOL    HW124047   9.576   3.338   1.967 -2.2940  1.4752 -0.5219
 4526SOL    HW224048   9.549   3.374   2.124  0.5861 -0.8930  0.5737
 4527SOL     OW24049   9.828   6.456   3.944 -0.2979 -0.4258 -0.8767
 4527SOL    HW124050   9.866   6.549   3.948  1.1515 -0.8709 -2.9175
 4527SOL    HW224051   9.900   6.390   3.968 -1.7469 -0.9774  2.1191
 4528SOL     OW24052   2.030   7.516   2.570 -0.3256  0.2353 -0.6870
 4528SOL    HW124053   2.060   7.462   2.648 -2.3946  2.0023  1.4022
 4528SOL    HW224054   1.974   7.459   2.510  0.0224 -0.7438 -0.0887
 4529SOL     OW24055   3.053   3.680   2.221 -0.1902  0.1187  0.9479
 4529SOL    HW124056   2.953   3.681   2.222 -0.2262 -1.6756  1.8414
 4529SOL    HW224057   3.088   3.773   2.214 -1.9200  0.8086  1.3848
 4530SOL     OW24058   3.316   5.301   0.345  0.1353 -0.3283  0.5577
 4530SOL    HW124059   3.227   5.291   0.389  0.3465  1.1394  1.3521
 4530SOL    HW224060   3.388   5.293   0.414  0.6989 -2.7543 -0.2602
 4531SOL     OW24061   0.844   2.564   4.011  0.4052 -0.5297 -0.4610
 4531SOL    HW124062   0.861   2.506   4.090 -0.5287 -1.8467 -1.1939
 4531SOL    HW224063   0.922   2.559   3.949  1.3578  0.9081  0.6039
 4532SOL     OW24064   2.768   7.251   3.756  0.5194  0.0589  0.5576
 4532SOL    HW124065   2.695   7.195   3.794  1.3480 -1.4450 -0.0155
 4532SOL    HW224066   2.729   7.334   3.716 -0.6826  0.0747  1.7250
 4533SOL     OW24067   8.883   2.145   1.627  0.0161  0.2714  0.4306
 4533SOL    HW124068   8.928   2.143   1.537 -0.0853  1.2977  0.3586
 4533SOL    HW224069   8.788   2.114   1.617  0.0106  0.3649  0.1921
 4534SOL     OW24070   2.176   8.416   1.241 -0.9776 -0.1434  0.3525
 4534SOL    HW124071   2.162   8.488   1.309  1.5870 -0.2271  1.0400
 4534SOL    HW224072   2.180   8.456   1.150  1.5278  0.8080  0.8221
 4535SOL     OW24073   1.301   5.232   1.886  0.2022 -0.4417  0.2919
 4535SOL    HW124074   1.251   5.156   1.928  0.1596  0.3036  1.6039
 4535SOL    HW224075   1.237   5.302   1.855  0.2722 -0.7242 -0.5111
 4536SOL     OW24076   9.793   1.291   2.968  0.0071  0.6039 -0.6487
 4536SOL    HW124077   9.707   1.340   2.956 -0.6635 -0.8519 -1.8121
 4536SOL    HW224078   9.869   1.351   2.943 -0.7061  1.6336 -0.3605
 4537SOL     OW24079   2.797   4.869   0.436 -0.0535  0.2736  0.2548
 4537SOL    HW124080   2.731   4.795   0.448  0.6313 -0.5791 -1.1329
 4537SOL    HW224081   2.804   4.891   0.339  0.7756  1.2239  0.5244
 4538SOL     OW24082   6.652   8.801   1.039  0.1993  0.5992  0.2599
 4538SOL    HW124083   6.688   8.719   1.083 -1.3031  0.1130  0.6355
 4538SOL    HW224084   6.676   8.801   0.942  0.3657 -0.1914  0.2992
 4539SOL     OW24085   7.599   1.281   2.140 -0.3716  0.0725  0.0106
 4539SOL    HW124086   7.639   1.316   2.055 -0.0100 -0.3992 -0.0161
 4539SOL    HW224087   7.622   1.341   2.216 -0.0011  0.0544 -0.0867
 4540SOL     OW24088   8.637   9.464   0.374  0.1563 -0.4669 -0.4959
 4540SOL    HW124089   8.710   9.504   0.429  0.3437 -0.2012 -0.9347
 4540SOL    HW224090   8.549   9.476   0.422  0.5898 -2.1878  0.7691
 4541SOL     OW24091   4.066   7.666   0.132 -0.4956 -0.6270  1.0471
 4541SOL    HW124092   4.133   7.670   0.207 -1.0555 -0.2425  1.5334
 4541SOL    HW224093   4.081   7.583   0.079  1.0644 -0.0110  0.4955
 4542SOL     OW24094   6.470   6.979   2.445  0.0341 -0.8223  0.0359
 4542SOL    HW124095   6.523   6.980   2.361 -1.0420  0.6487 -0.6492
 4542SOL    HW224096   6.494   7.058   2.501 -0.6421 -0.7387  0.2134
 4543SOL     OW24097   4.738   0.925   1.848 -0.6840 -0.5572  0.2312
 4543SOL    HW124098   4.718   0.879   1.762  1.8714 -0.6538 -0.3445
 4543SOL    HW224099   4.736   1.024   1.833  1.6898 -0.5854 -0.4368
 4544SOL     OW24100   5.379   7.298   2.181  0.2144  0.5254 -0.0736
 4544SOL    HW124101   5.428   7.294   2.269 -2.0551 -2.0057  1.1308
 4544SOL    HW224102   5.335   7.387   2.172  0.1444  0.6731  1.5496
 4545SOL     OW24103   9.563   1.105   2.830  0.1978 -0.2255 -0.2951
 4545SOL    HW124104   9.656   1.094   2.864  0.8317 -2.2924 -2.5964
 4545SOL    HW224105   9.521   1.015   2.818 -1.7176  0.6546 -0.3323
 4546SOL     OW24106   2.480   2.055   2.960 -0.1380 -0.2977  0.2007
 4546SOL    HW124107   2.488   2.110   2.877 -0.9721 -0.3549  0.0754
 4546SOL    HW224108   2.562   2.066   3.016 -0.1156  0.7361 -0.0279
 4547SOL     OW24109   0.256   5.369   3.581  0.1310  0.1422 -0.2175
 4547SOL    HW124110   0.221   5.446   3.634  1.6017  1.0720 -0.5903
 4547SOL    HW224111   0.224   5.377   3.486 -1.2016 -0.6851  0.1462
 4548SOL     OW24112   8.688   2.403   3.610 -0.6912 -0.0369 -0.0970
 4548SOL    HW124113   8.761   2.374   3.672  0.2955 -1.0355 -1.6990
 4548SOL    HW224114   8.676   2.502   3.618 -0.2736 -0.0864  1.3446
 4549SOL     OW24115   5.918   9.640   1.206 -0.1690 -0.2899  0.5500
 4549SOL    HW124116   5.927   9.632   1.107 -3.1872  0.3828  0.1864
 4549SOL    HW224117   5.990   9.587   1.250  1.6985  0.0350 -1.9878
 4550SOL     OW24118   9.928   4.915   1.435 -0.5286  0.0311  0.1678
 4550SOL    HW124119   9.989   4.952   1.505 -1.2985 -0.1893  0.9595
 4550SOL    HW224120   9.842   4.965   1.436 -0.1150  0.8222 -1.4440
 4551SOL     OW24121   9.324   6.637   0.627  0.1134 -0.0604 -0.6688
 4551SOL    HW124122   9.304   6.665   0.721 -2.0746 -3.1329 -0.1544
 4551SOL    HW224123   9.270   6.692   0.563  2.0022  2.4046 -0.2532
 4552SOL     OW24124   7.598   9.392   0.393 -0.5758 -0.1981 -0.0787
 4552SOL    HW124125   7.568   9.300   0.369 -1.2412 -0.3701  1.3449
 4552SOL    HW224126   7.697   9.391   0.409 -0.2696 -0.2589 -1.8832
 4553SOL     OW24127   2.785   1.174   1.981 -0.2596  0.1085  0.3380
 4553SOL    HW124128   2.725   1.143   1.907 -1.2924 -0.8390  1.5572
 4553SOL    HW224129   2.876   1.193   1.944 -0.7919 -0.2534 -1.1943
 4554SOL     OW24130   1.163   3.279   3.596 -0.0921  0.8074  0.2924
 4554SOL    HW124131   1.071   3.294   3.558 -0.1240  0.1940  0.1229
 4554SOL    HW224132   1.161   3.298   3.694 -0.7566 -0.6079  0.5691
 4555SOL     OW24133   4.611   0.249   3.867 -0.0141  0.2239  0.3695
 4555SOL    HW124134   4.576   0.329   3.818 -3.0310 -1.4510 -0.3321
 4555SOL    HW224135   4.702   0.227   3.833 -0.4991  1.3772 -1.7922
 4556SOL     OW24136   1.611   0.955   0.462 -0.2116  0.8588 -0.0423
 4556SOL    HW124137   1.655   1.030   0.511 -0.1635  0.2497  0.8552
 4556SOL    HW224138   1.526   0.988   0.420  0.5726  1.7800 -0.9099
 4557SOL     OW24139   5.032   8.175   2.543  0.1991 -0.4139 -0.4903
 4557SOL    HW124140   4.975   8.221   2.612 -0.2942 -1.2134 -0.3657
 4557SOL    HW224141   5.128   8.184   2.569 -0.0632 -1.9411  1.0615
 4558SOL     OW24142   0.137   5.389   3.039 -0.5691  0.5577  0.1184
 4558SOL    HW124143   0.066   5.324   3.015 -0.7344  1.1511 -1.0581
 4558SOL    HW224144   0.179   5.425   2.956  1.4293 -0.1210  0.7889
 4559SOL     OW24145   3.511   4.267   3.532  0.0583 -0.8140  0.6084
 4559SOL    HW124146   3.602   4.225   3.543  0.0636 -0.8333  0.4976
 4559SOL    HW224147   3.507   4.351   3.585  0.8142  0.2340 -0.9573
 4560SOL     OW24148   9.368   0.452   1.907 -0.2667  0.1397 -0.5937
 4560SOL    HW124149   9.429   0.487   1.837  0.4126  1.2290  0.5307
 4560SOL    HW224150   9.289   0.408   1.864  0.7515 -0.3053 -2.0358
 4561SOL     OW24151   4.633   9.442   1.963 -0.3995 -0.0307  0.2195
 4561SOL    HW124152   4.589   9.529   1.986 -0.7241  0.2437 -1.3827
 4561SOL    HW224153   4.574   9.389   1.902  0.5361 -0.6145 -0.1989
 4562SOL     OW24154   0.409   0.640   1.419  0.1308 -0.5304 -0.0898
 4562SOL    HW124155   0.500   0.609   1.445  0.5705  1.1280  0.4435
 4562SOL    HW224156   0.404   0.648   1.319  1.7461  2.6311 -0.0006
 4563SOL     OW24157   0.527   9.211   3.266 -0.1713  0.4605  0.6744
 4563SOL    HW124158   0.584   9.288   3.236 -0.5506  1.7043  2.9856
 4563SOL    HW224159   0.456   9.194   3.197 -1.0638  3.2565  0.7985
 4564SOL     OW24160   5.012   7.244   1.764  0.8949  0.5398  0.4722
 4564SOL    HW124161   5.099   7.259   1.810  0.3009  1.6888  1.2707
 4564SOL    HW224162   5.023   7.255   1.666  1.9058 -0.6022  0.4566
 4565SOL     OW24163   0.569   0.057   2.848  0.1705 -0.5484  1.2130
 4565SOL    HW124164   0.527  -0.014   2.792  1.5619 -1.6620  1.5537
 4565SOL    HW224165   0.570   0.028   2.943  1.4858 -0.4231  1.2402
 4566SOL     OW24166   7.455   3.364   0.018  0.3939  0.0020  0.0979
 4566SOL    HW124167   7.427   3.356  -0.078 -1.3376  1.6386  0.4322
 4566SOL    HW224168   7.399   3.303   0.074 -1.3997  2.0155  0.5521
 4567SOL     OW24169   9.178   8.625   1.948 -0.7459  0.6154  0.2221
 4567SOL    HW124170   9.157   8.600   1.854  0.9337 -0.6735  0.1505
 4567SOL    HW224171   9.097   8.616   2.005 -1.2373 -0.7977 -0.6818
 4568SOL     OW24172   1.058   0.714   1.993  0.1852  0.2180 -0.1801
 4568SOL    HW124173   1.011   0.797   1.962 -1.3158 -0.9657 -1.1654
 4568SOL    HW224174   1.134   0.739   2.054  0.1423  2.3280 -0.9572
 4569SOL     OW24175   5.060   7.904   0.734  0.2639  0.1199  0.0768
 4569SOL    HW124176   5.123   7.828   0.718 -0.8466 -0.9984  0.8637
 4569SOL    HW224177   5.012   7.926   0.649 -0.9686 -1.5292  0.3015
 4570SOL     OW24178   5.045   0.099   2.067 -0.6796 -0.3664  0.1299
 4570SOL    HW124179   5.143   0.077   2.072 -1.1265 -2.2831  0.8732
 4570SOL    HW224180   5.021   0.161   2.142  0.5037  2.4241 -1.7118
 4571SOL     OW24181   9.178   6.073   2.733  0.5637 -0.1789  0.2945
 4571SOL    HW124182   9.252   6.104   2.672 -2.0788  0.1380 -2.9025
 4571SOL    HW224183   9.106   6.143   2.735 -0.0428 -0.8412  2.7148
 4572SOL     OW24184   0.356   7.330   0.279  0.1433 -0.7401 -0.4598
 4572SOL    HW124185   0.388   7.283   0.196  0.4419 -0.3456 -0.5668
 4572SOL    HW224186   0.341   7.263   0.351  2.3990 -0.8134 -0.0139
 4573SOL     OW24187   8.841   5.934   0.139  0.4333  0.1837 -0.0547
 4573SOL    HW124188   8.912   5.995   0.174  0.5284  0.1645 -0.2169
 4573SOL    HW224189   8.771   5.920   0.209  0.0590  1.0298 -0.2621
 4574SOL     OW24190   9.905   3.796   0.853  0.5410 -0.2977 -0.2211
 4574SOL    HW124191   9.982   3.839   0.806  1.2800 -0.6383  0.6517
 4574SOL    HW224192   9.857   3.735   0.790  0.9134  0.0049 -0.8047
 4575SOL     OW24193   2.622   7.932   2.576  0.0817  0.3835  0.2421
 4575SOL    HW124194   2.666   7.863   2.518 -0.0668 -0.1341  0.7464
 4575SOL    HW224195   2.690   7.972   2.637 -0.1610 -0.5479  1.1512
 4576SOL     OW24196   9.330   8.192   3.984  0.1688 -0.2598 -1.1708
 4576SOL    HW124197   9.426   8.217   3.968  1.2638 -1.7540  2.4495
 4576SOL    HW224198   9.302   8.122   3.919  2.3537 -1.6268 -0.6791
 4577SOL     OW24199   3.068   0.089   3.133 -0.4438 -0.3230 -0.0757
 4577SOL    HW124200   3.045   0.028   3.208  1.8608 -2.5904 -1.1337
 4577SOL    HW224201   3.092   0.179   3.169 -0.0388 -1.1865  1.8479
 4578SOL     OW24202   2.984   1.138   2.612  0.3767  0.0632 -0.1193
 4578SOL    HW124203   2.927   1.162   2.690 -1.4155 -2.6485 -0.5492
 4578SOL    HW224204   2.937   1.162   2.527 -0.1096 -2.0775 -0.4750
 4579SOL     OW24205   8.137   9.951   1.246 -0.4290  0.5424  0.6053
 4579SOL    HW124206   8.067   9.948   1.174 -0.8756 -0.1963  1.0620
 4579SOL    HW224207   8.224   9.918   1.209 -0.0967  2.2462 -0.1926
 4580SOL     OW24208   7.257   0.106   3.430  0.2426  0.2473 -0.0566
 4580SOL    HW124209   7.352   0.127   3.408 -0.4126  0.3340 -2.9635
 4580SOL    HW224210   7.239   0.009   3.413 -0.2557  0.2666  0.3148
 4581SOL     OW24211   3.398   7.734   1.219  0.2201  0.4637  0.1667
 4581SOL    HW124212   3.451   7.653   1.244 -0.7853 -0.3299 -0.2198
 4581SOL    HW224213   3.309   7.706   1.183  0.0189  1.7334 -0.3664
 4582SOL     OW24214   7.301   0.133   2.313  0.1978  0.0764 -0.0831
 4582SOL    HW124215   7.390   0.123   2.268 -0.2291 -1.6788 -0.5977
 4582SOL    HW224216   7.279   0.048   2.362 -1.0002  0.6430  0.3864
 4583SOL     OW24217   3.771   3.605   2.324  0.5238  0.0012  0.5188
 4583SOL    HW124218   3.699   3.663   2.286  1.1485 -0.0276 -0.7547
 4583SOL    HW224219   3.741   3.567   2.412 -1.4271 -0.8056 -0.4473
 4584SOL     OW24220   7.343   7.094   2.540 -0.0426 -0.1857 -0.3066
 4584SOL    HW124221   7.301   7.005   2.525 -1.9055  0.1501  2.6358
 4584SOL    HW224222   7.276   7.167   2.521  0.3762  0.4742  0.7149
 4585SOL     OW24223   3.500   4.479   2.414  0.1177  0.3207  0.8594
 4585SOL    HW124224   3.599   4.471   2.404  0.2240 -2.0253  3.0905
 4585SOL    HW224225   3.454   4.418   2.349  0.1660  0.9900  0.2030
 4586SOL     OW24226   5.065   0.796   1.455  0.1337  0.1698  0.2043
 4586SOL    HW124227   5.082   0.698   1.452 -0.7444  0.0672 -1.9354
 4586SOL    HW224228   4.976   0.816   1.414 -0.2042  1.7489  1.6629
 4587SOL     OW24229   2.776   3.694   2.194  0.2612 -0.2444 -0.7303
 4587SOL    HW124230   2.700   3.755   2.172  0.7781  0.0630 -1.6699
 4587SOL    HW224231   2.775   3.616   2.132  1.0566  0.0509 -1.1209
 4588SOL     OW24232   1.145   4.244   2.102  0.0900 -0.6100  0.5419
 4588SOL    HW124233   1.124   4.165   2.159 -0.4825  0.2879  1.6124
 4588SOL    HW224234   1.093   4.239   2.017 -1.0151 -0.6964  1.2063
 4589SOL     OW24235   2.671   3.913   3.955 -0.1832  0.1027  0.5189
 4589SOL    HW124236   2.626   3.894   3.868 -0.6087 -3.9186  1.4980
 4589SOL    HW224237   2.603   3.938   4.023 -0.5157 -1.9103  0.9611
 4590SOL     OW24238   1.064   6.002   1.598 -0.0288 -0.2120  0.1127
 4590SOL    HW124239   1.061   5.920   1.655 -1.5198  0.2464  0.7170
 4590SOL    HW224240   0.973   6.021   1.561  0.7218  0.0129 -1.7048
 4591SOL     OW24241   1.992   1.792   1.068 -0.0567  0.0241  0.7142
 4591SOL    HW124242   1.914   1.752   1.116  1.6114 -2.1903  1.6326
 4591SOL    HW224243   2.064   1.815   1.133  1.2628 -0.7156 -0.4540
 4592SOL     OW24244   0.745   6.477   3.001 -0.0326  0.3433 -0.6613
 4592SOL    HW124245   0.723   6.490   3.097  3.6855  0.1606  0.3104
 4592SOL    HW224246   0.754   6.567   2.956 -0.1301  0.4799 -0.4049
 4593SOL     OW24247   0.637   8.764   2.618  0.3554 -0.4739  0.1303
 4593SOL    HW124248   0.546   8.760   2.658  1.0065 -1.5274  1.5429
 4593SOL    HW224249   0.696   8.697   2.663  1.1933 -1.4953 -2.3589
 4594SOL     OW24250   3.502   5.736   2.164 -0.0544  0.6208  0.1860
 4594SOL    HW124251   3.535   5.651   2.121 -0.9864  0.7994 -0.8865
 4594SOL    HW224252   3.431   5.714   2.231  0.4100  0.4688  0.6325
 4595SOL     OW24253   2.869   7.185   1.544 -0.1016  0.5225  0.0382
 4595SOL    HW124254   2.868   7.096   1.590  0.7607  1.2624  1.5201
 4595SOL    HW224255   2.832   7.175   1.452  0.6092 -1.5014 -0.0530
 4596SOL     OW24256   9.955   2.858   3.425  0.0537  0.6276 -0.0895
 4596SOL    HW124257   9.861   2.859   3.391  0.6846  1.9634 -1.8834
 4596SOL    HW224258  10.015   2.819   3.355  0.7330 -1.1298  1.4216
 4597SOL     OW24259   4.179   1.533   2.241 -0.9161  0.1646  0.2073
 4597SOL    HW124260   4.265   1.584   2.244 -0.2469 -0.9251  0.0319
 4597SOL    HW224261   4.199   1.435   2.236 -2.1778 -0.2539  2.5855
 4598SOL     OW24262   4.765   1.559   1.598 -0.0156  0.5405 -0.2161
 4598SOL    HW124263   4.723   1.606   1.520  1.0072  1.4085 -0.2720
 4598SOL    HW224264   4.774   1.623   1.674  1.9322  0.6231 -0.4886
 4599SOL     OW24265   0.041   6.334   3.088 -0.4671 -0.2903  0.2739
 4599SOL    HW124266   0.116   6.341   3.153  1.5279 -4.4303 -1.3770
 4599SOL    HW224267   0.060   6.393   3.009  0.5937 -0.4920  0.3619
 4600SOL     OW24268   3.670   7.292   1.502  0.0114 -0.3883  0.3344
 4600SOL    HW124269   3.676   7.194   1.481 -0.9123 -0.3478 -0.1680
 4600SOL    HW224270   3.676   7.305   1.601  0.1532 -0.9529  0.4041
 4601SOL     OW24271   8.448   0.127   4.021  0.5482 -0.6481  0.0812
 4601SOL    HW124272   8.513   0.121   4.097  0.5492 -0.7030  0.0761
 4601SOL    HW224273   8.430   0.035   3.986 -3.4997 -1.3413  3.4860
 4602SOL     OW24274   1.341   3.280   3.386  0.2494 -0.0044 -0.2337
 4602SOL    HW124275   1.279   3.245   3.456 -1.2606 -0.7206 -1.8892
 4602SOL    HW224276   1.420   3.220   3.379  0.2212 -0.1403  0.5990
 4603SOL     OW24277   9.294   7.608   4.010  0.3000  0.2262  0.2623
 4603SOL    HW124278   9.258   7.701   4.006  1.5939  0.7573  0.5808
 4603SOL    HW224279   9.270   7.560   3.926 -0.5078  0.7971  0.1550
 4604SOL     OW24280   2.637   3.003   3.836  0.4865 -0.3226 -0.3962
 4604SOL    HW124281   2.624   2.907   3.860 -0.2617 -0.3332 -0.8447
 4604SOL    HW224282   2.694   3.046   3.905  0.1121 -0.8813  0.2742
 4605SOL     OW24283   9.536   8.856   0.636 -0.5542 -0.6925 -0.6395
 4605SOL    HW124284   9.564   8.765   0.606  1.4437 -1.1307  2.2786
 4605SOL    HW224285   9.615   8.917   0.637 -0.9066 -0.2084  1.7391
 4606SOL     OW24286   1.281   1.507   2.961 -0.0575  0.3982  0.2025
 4606SOL    HW124287   1.321   1.425   2.921 -1.5797  0.8922 -2.4809
 4606SOL    HW224288   1.354   1.569   2.989  1.0793 -1.2456  0.9246
 4607SOL     OW24289   3.684   7.012   1.544 -0.1433  0.4348  0.2822
 4607SOL    HW124290   3.694   6.920   1.507 -3.6152 -0.4439  1.3382
 4607SOL    HW224291   3.763   7.034   1.601 -0.2082 -2.7734  1.7222
 4608SOL     OW24292   3.570   9.723   3.341  0.3374  0.1798 -0.1410
 4608SOL    HW124293   3.578   9.822   3.348  2.5619 -0.0169  0.3906
 4608SOL    HW224294   3.502   9.700   3.272  0.5887  2.0660 -1.0420
 4609SOL     OW24295   4.507   7.803   2.321  0.3702  0.0099  0.3894
 4609SOL    HW124296   4.506   7.812   2.221  1.7366  1.6834  0.5013
 4609SOL    HW224297   4.460   7.882   2.362  0.9740  0.0017  1.0983
 4610SOL     OW24298   6.467   9.254   1.531  0.0685 -0.4039  0.4060
 4610SOL    HW124299   6.435   9.202   1.611 -0.6802 -2.8537 -1.4382
 4610SOL    HW224300   6.514   9.192   1.468  0.1564  1.3948 -1.3434
 4611SOL     OW24301   8.360   9.315   3.677 -0.0092  0.2168  0.1819
 4611SOL    HW124302   8.300   9.305   3.756 -1.2008 -2.2960 -0.9932
 4611SOL    HW224303   8.328   9.256   3.603  3.2316 -0.3231 -0.8730
 4612SOL     OW24304   1.086   4.854   0.094  0.5851  0.2247  0.2838
 4612SOL    HW124305   1.035   4.769   0.105  0.6160 -0.0418 -1.3845
 4612SOL    HW224306   1.183   4.838   0.113  0.5410 -0.0536  0.2729
 4613SOL     OW24307   1.494   7.322   0.597 -0.6010  0.5760 -0.6145
 4613SOL    HW124308   1.523   7.393   0.662  1.2405 -0.2590 -0.4881
 4613SOL    HW224309   1.425   7.263   0.640 -2.4165  2.4861 -0.8517
 4614SOL     OW24310   7.163   0.063   1.967 -0.5318  0.0682 -0.3309
 4614SOL    HW124311   7.221   0.141   1.992 -0.8799  0.8719 -1.9535
 4614SOL    HW224312   7.216  -0.021   1.970  0.0585  0.4673  0.6526
 4615SOL     OW24313   5.707   8.400   2.167  0.5886  0.1634  0.2860
 4615SOL    HW124314   5.634   8.338   2.196  0.6219  0.9998  2.2388
 4615SOL    HW224315   5.788   8.384   2.224  0.9671  1.2256  0.0599
 4616SOL     OW24316   1.816   8.145   0.796  0.8104 -0.0882  0.0289
 4616SOL    HW124317   1.808   8.074   0.866 -1.5877  0.1959  0.0615
 4616SOL    HW224318   1.876   8.113   0.723  0.4788 -1.7847  0.4856
 4617SOL     OW24319   3.335   3.056   3.779  0.1502  0.0270 -0.2254
 4617SOL    HW124320   3.323   2.983   3.712 -1.8607  0.2449 -0.1584
 4617SOL    HW224321   3.329   3.145   3.732 -0.1980  0.1673  0.0828
 4618SOL     OW24322   8.689   7.759   0.292 -0.3907  0.3071 -0.1940
 4618SOL    HW124323   8.606   7.704   0.299  0.2104 -0.3486  2.3544
 4618SOL    HW224324   8.730   7.769   0.383  1.8912  1.2880 -1.2951
 4619SOL     OW24325   8.075   1.012   2.684  0.2768  0.0942  0.0466
 4619SOL    HW124326   8.152   0.965   2.727  1.3773  3.1109  1.5248
 4619SOL    HW224327   8.110   1.073   2.613 -0.8121  0.9721  0.2618
 4620SOL     OW24328   8.752   3.405   2.100  0.4360  0.4209 -0.3282
 4620SOL    HW124329   8.753   3.428   2.197 -1.3008 -0.2360 -0.1343
 4620SOL    HW224330   8.745   3.305   2.089  2.0335  0.3865 -1.1301
 4621SOL     OW24331   1.575   0.588   3.873  0.3090 -0.2626 -0.0020
 4621SOL    HW124332   1.490   0.586   3.821  0.4998  1.0959 -0.3897
 4621SOL    HW224333   1.569   0.524   3.950 -0.3401 -1.5538 -1.1173
 4622SOL     OW24334   2.028   0.123   0.997 -0.3311 -0.8647 -0.3826
 4622SOL    HW124335   2.118   0.127   1.041  0.0532 -1.3655 -1.1149
 4622SOL    HW224336   2.006   0.028   0.974 -1.6501 -0.9337  1.0058
 4623SOL     OW24337   0.720   3.807   3.048 -0.5463 -0.2103  0.3886
 4623SOL    HW124338   0.647   3.833   2.984 -0.6820 -1.5193  0.0058
 4623SOL    HW224339   0.703   3.716   3.083  0.7548 -0.4087  0.5248
 4624SOL     OW24340   9.029   8.773   0.118  0.1032 -0.0449  0.2073
 4624SOL    HW124341   8.954   8.709   0.135  2.0501 -2.5056 -0.0893
 4624SOL    HW224342   9.092   8.771   0.195 -1.1156  3.5276  1.3757
 4625SOL     OW24343   8.037   9.881   0.941 -0.0529  0.1658 -0.4358
 4625SOL    HW124344   8.093   9.798   0.946 -0.1001  0.1672  0.0983
 4625SOL    HW224345   7.961   9.867   0.877 -0.4676 -0.4427  0.1924
 4626SOL     OW24346   2.844   6.129   3.233 -0.2381  0.3755  0.0443
 4626SOL    HW124347   2.796   6.042   3.240 -2.0848  1.3451 -0.2497
 4626SOL    HW224348   2.783   6.204   3.258  1.8472  1.4909  2.0765
 4627SOL     OW24349   8.714   6.592   1.569 -0.6133  0.2588  0.0057
 4627SOL    HW124350   8.712   6.515   1.632  1.8783 -0.6759 -0.9967
 4627SOL    HW224351   8.653   6.574   1.492 -0.2687 -0.6076 -0.0713
 4628SOL     OW24352   1.559   4.784   3.572  0.0361  0.0532  0.0784
 4628SOL    HW124353   1.547   4.770   3.670  1.7961  1.5415  0.5476
 4628SOL    HW224354   1.469   4.789   3.527 -0.7614 -1.5518  1.4474
 4629SOL     OW24355   1.877   0.774   1.044  0.2572 -0.7102 -0.0273
 4629SOL    HW124356   1.837   0.797   1.132  1.3550  0.1804  0.2469
 4629SOL    HW224357   1.968   0.814   1.037  1.6197 -3.6687 -0.1755
 4630SOL     OW24358   2.303   3.133   2.313 -0.0016 -0.2940 -0.0404
 4630SOL    HW124359   2.292   3.233   2.311 -0.0350 -0.2740  0.9922
 4630SOL    HW224360   2.213   3.090   2.323 -0.2093 -0.5153 -2.3599
 4631SOL     OW24361   8.772   0.172   2.572  0.5842  0.2330  0.4450
 4631SOL    HW124362   8.818   0.196   2.657 -1.0149 -1.0126  1.6931
 4631SOL    HW224363   8.806   0.230   2.498  0.8139  2.4666  2.2465
 4632SOL     OW24364   0.219   8.500   2.125  0.6480 -0.1481 -0.1514
 4632SOL    HW124365   0.258   8.593   2.126 -0.9933  0.5523  0.3136
 4632SOL    HW224366   0.267   8.444   2.193 -1.1330  1.5673  2.6118
 4633SOL     OW24367   4.129   7.646   1.655  0.1323 -0.5582 -0.1833
 4633SOL    HW124368   4.194   7.719   1.678 -1.6991  0.6071  1.4475
 4633SOL    HW224369   4.156   7.604   1.568  1.4059  1.8542 -1.0029
 4634SOL     OW24370   3.618   7.598   1.901  0.3888  0.2406 -0.2948
 4634SOL    HW124371   3.697   7.567   1.953 -0.6227 -1.2847  0.3862
 4634SOL    HW224372   3.634   7.691   1.868  1.4946  0.8332  1.7991
 4635SOL     OW24373   9.113   1.056   0.998 -0.0422 -0.2045  0.1906
 4635SOL    HW124374   9.085   0.966   1.031 -1.7425  0.3656  0.3691
 4635SOL    HW224375   9.199   1.083   1.041 -0.6448 -0.7954  1.7950
 4636SOL     OW24376   9.094   4.595   1.749  0.2230  0.3762 -0.0444
 4636SOL    HW124377   9.022   4.614   1.817  0.4932 -1.1410  0.6967
 4636SOL    HW224378   9.057   4.537   1.677  0.5728 -0.0237  0.0943
 4637SOL     OW24379   8.903   7.030   2.208  0.3823 -0.0870  0.2792
 4637SOL    HW124380   8.849   7.072   2.135  1.2016  0.4340 -0.0366
 4637SOL    HW224381   8.877   7.070   2.296 -1.5524 -1.6731  0.4406
 4638SOL     OW24382   1.488   2.110   3.254  0.1912  0.0886 -0.3429
 4638SOL    HW124383   1.426   2.054   3.310 -0.9937 -0.4282 -2.1466
 4638SOL    HW224384   1.493   2.202   3.294  0.1041 -0.5296  1.1511
 4639SOL     OW24385   3.011   5.957   1.234 -0.0826  0.0785 -0.2590
 4639SOL    HW124386   2.992   5.923   1.141 -0.2858 -0.5365  0.0066
 4639SOL    HW224387   2.947   6.031   1.255  0.5071  0.7902 -0.9240
 4640SOL     OW24388   1.431   9.429   2.313  0.0935 -0.2357 -0.6728
 4640SOL    HW124389   1.375   9.378   2.379 -1.1202 -0.4097 -1.8362
 4640SOL    HW224390   1.388   9.427   2.223  1.1132  1.0755 -1.2071
 4641SOL     OW24391   1.961   7.554   3.990  0.4046  0.0385 -0.7652
 4641SOL    HW124392   1.912   7.511   4.065  1.3212 -1.7098 -1.1401
 4641SOL    HW224393   2.036   7.609   4.027  1.2277 -1.3029 -0.4052
 4642SOL     OW24394   8.435   7.858   3.198  0.1929  0.3939  0.0653
 4642SOL    HW124395   8.433   7.837   3.296  0.0189  1.2704  0.2485
 4642SOL    HW224396   8.369   7.930   3.178  0.6352  0.6129 -0.6024
 4643SOL     OW24397   7.268   9.323   0.010  0.1449  0.0105 -0.5811
 4643SOL    HW124398   7.249   9.273   0.095 -0.5779  0.6481 -0.3613
 4643SOL    HW224399   7.366   9.346   0.006  0.5999 -1.9630 -0.9957
 4644SOL     OW24400   0.326   3.998   0.559 -0.2320  0.3479  0.1156
 4644SOL    HW124401   0.314   4.070   0.490 -2.0814 -1.0724 -1.1020
 4644SOL    HW224402   0.409   3.947   0.539  0.4050  1.3313  0.2262
 4645SOL     OW24403   9.715   1.107   3.797  0.0029  0.1915  0.2081
 4645SOL    HW124404   9.635   1.154   3.836 -1.4293 -2.3800  0.4643
 4645SOL    HW224405   9.767   1.172   3.741 -3.0530  1.5627 -1.1466
 4646SOL     OW24406   0.946   2.822   2.893 -0.2545 -0.2553 -0.3557
 4646SOL    HW124407   1.001   2.885   2.948  0.7656  0.0593 -1.7089
 4646SOL    HW224408   0.850   2.851   2.895  0.0050  0.5901  0.0722
 4647SOL     OW24409   9.478   7.882   1.817  0.2320  0.1618  0.4529
 4647SOL    HW124410   9.407   7.829   1.771  0.4111  0.1718  0.1645
 4647SOL    HW224411   9.508   7.956   1.758  1.8770 -1.0307 -0.2159
 4648SOL     OW24412   3.566   8.950   3.484 -0.3266 -0.5971 -0.0050
 4648SOL    HW124413   3.500   8.879   3.460  0.4577 -0.1140 -4.0980
 4648SOL    HW224414   3.551   9.030   3.425  0.0796  1.8849  3.1445
 4649SOL     OW24415   9.523   9.618   0.636 -0.4217 -0.4951  0.4994
 4649SOL    HW124416   9.553   9.523   0.640 -1.1500 -0.8060 -0.8554
 4649SOL    HW224417   9.463   9.638   0.713 -1.3803 -1.5500  0.0427
 4650SOL     OW24418   0.644   3.318   0.122 -0.3488 -0.1079  0.6441
 4650SOL    HW124419   0.743   3.302   0.127  0.1149  1.9885 -0.8950
 4650SOL    HW224420   0.595   3.231   0.134  1.7023 -1.3307  0.3978
 4651SOL     OW24421   2.805   6.493   3.275  0.3644 -0.1088 -0.3412
 4651SOL    HW124422   2.762   6.538   3.196 -1.1693  2.2648  1.7546
 4651SOL    HW224423   2.739   6.431   3.317  0.3546  0.4502  0.4773
 4652SOL     OW24424   1.794   2.056   2.528 -0.2646 -0.2579 -0.2371
 4652SOL    HW124425   1.728   2.121   2.566  1.2071  0.4987  1.0567
 4652SOL    HW224426   1.786   1.969   2.576  0.5355  0.2269  0.7984
 4653SOL     OW24427   8.130   2.445   3.615 -0.2184 -0.2399  0.0372
 4653SOL    HW124428   8.135   2.543   3.597  2.8891 -0.0925  1.3110
 4653SOL    HW224429   8.110   2.396   3.531  0.2070  1.3634 -1.0165
 4654SOL     OW24430   3.550   3.003   3.258  0.3177 -0.5497  0.3050
 4654SOL    HW124431   3.516   2.962   3.343  2.0290 -1.1825  0.6980
 4654SOL    HW224432   3.564   3.101   3.272  0.2769 -0.5916  0.6575
 4655SOL     OW24433   7.611   0.204   0.917  0.0276 -0.5922  0.1025
 4655SOL    HW124434   7.541   0.140   0.885 -1.7713  0.6058  1.4980
 4655SOL    HW224435   7.692   0.197   0.859 -1.5030 -1.5269 -2.0119
 4656SOL     OW24436   0.840   2.469   3.442 -0.8307 -0.6353  0.5181
 4656SOL    HW124437   0.865   2.413   3.363  2.4507  0.5858  0.6177
 4656SOL    HW224438   0.860   2.418   3.526  2.3835  0.7235  0.6118
 4657SOL     OW24439   8.167   5.680   2.629  0.0436  0.1888 -0.0683
 4657SOL    HW124440   8.239   5.744   2.601 -0.4332  0.7913  0.1038
 4657SOL    HW224441   8.202   5.623   2.704 -0.7730  2.7270  2.3172
 4658SOL     OW24442   4.068   2.867   1.094  0.0261  0.2144 -0.5630
 4658SOL    HW124443   4.079   2.927   1.014 -0.3341 -0.4917 -1.1481
 4658SOL    HW224444   4.045   2.923   1.174  1.7938  1.0656 -0.6317
 4659SOL     OW24445   0.132   9.324   3.048  0.2371  0.0843 -0.0485
 4659SOL    HW124446   0.048   9.270   3.049 -0.5234  1.2170 -1.2736
 4659SOL    HW224447   0.110   9.419   3.027  1.8676  0.3065 -0.8503
 4660SOL     OW24448   9.432   4.179   0.946  0.1978 -0.4328  0.2471
 4660SOL    HW124449   9.443   4.083   0.920 -0.4083 -0.7969  1.3078
 4660SOL    HW224450   9.488   4.198   1.026  0.0097  0.0013  0.2761
 4661SOL     OW24451   0.794   0.297   3.534  0.0766 -0.0205 -0.9389
 4661SOL    HW124452   0.858   0.323   3.607 -2.3488  0.7222  0.9891
 4661SOL    HW224453   0.835   0.226   3.477  1.6591 -1.3262  1.7363
 4662SOL     OW24454   3.062   7.985   3.025  0.2035  0.8267  0.4593
 4662SOL    HW124455   3.122   8.002   2.946 -0.0259 -0.4286  0.0012
 4662SOL    HW224456   2.968   7.972   2.993  0.3561 -1.2008  0.7688
 4663SOL     OW24457   3.053   3.282   3.246 -0.8013 -0.1177  0.0209
 4663SOL    HW124458   2.968   3.233   3.261 -0.7162 -0.7088 -1.3544
 4663SOL    HW224459   3.131   3.221   3.262 -0.6916 -0.3644 -1.3279
 4664SOL     OW24460   9.294   6.490   3.577 -0.3154  0.2682 -0.0654
 4664SOL    HW124461   9.347   6.451   3.502 -1.0597  1.2434 -1.1201
 4664SOL    HW224462   9.269   6.418   3.642  0.7022 -0.5054 -0.5221
 4665SOL     OW24463   7.751   7.843   3.073 -0.3408 -0.3005  0.3946
 4665SOL    HW124464   7.800   7.803   3.151  1.1248 -0.7735 -0.7443
 4665SOL    HW224465   7.814   7.855   2.997 -1.9152 -0.5329 -0.9734
 4666SOL     OW24466   8.404   8.851   0.264  0.1865  0.4573  0.0057
 4666SOL    HW124467   8.426   8.825   0.170 -1.8311  1.6363 -0.8284
 4666SOL    HW224468   8.376   8.769   0.315 -0.5373  0.1002 -0.9560
 4667SOL     OW24469   9.657   2.693   3.899 -0.5931 -0.5623 -0.0982
 4667SOL    HW124470   9.724   2.675   3.971  0.2817 -0.8753 -0.9908
 4667SOL    HW224471   9.630   2.789   3.902  0.2846 -0.3124 -0.0716
 4668SOL     OW24472   2.690   2.496   0.298 -0.0070 -0.1373  0.0354
 4668SOL    HW124473   2.672   2.516   0.394  0.4474  1.2428 -0.1579
 4668SOL    HW224474   2.610   2.519   0.243  0.0717 -0.0170 -0.0304
 4669SOL     OW24475   0.591   4.561   0.394  0.5108  0.8855  0.0368
 4669SOL    HW124476   0.560   4.487   0.334  1.7205 -0.2749  0.8178
 4669SOL    HW224477   0.512   4.615   0.424 -0.4209 -0.2802 -0.2905
 4670SOL     OW24478   9.853   4.728   0.324  0.3259 -0.0673  0.2750
 4670SOL    HW124479   9.771   4.679   0.353  0.4953 -0.7034 -0.3251
 4670SOL    HW224480   9.861   4.725   0.225  1.1142 -0.0669  0.3350
 4671SOL     OW24481   2.743   4.187   0.215 -0.2631 -0.2018 -0.6798
 4671SOL    HW124482   2.819   4.160   0.156 -0.2307 -0.0794 -0.6946
 4671SOL    HW224483   2.670   4.229   0.160 -1.2499 -2.2288 -0.9527
 4672SOL     OW24484   8.929   6.190   2.720 -0.1506 -0.1494 -0.1434
 4672SOL    HW124485   8.847   6.176   2.666 -0.5593 -0.1648  0.4698
 4672SOL    HW224486   8.904   6.219   2.812  0.5053 -0.7372  0.2338
 4673SOL     OW24487   3.327   0.628   2.172 -0.2665  0.0673  0.2396
 4673SOL    HW124488   3.375   0.665   2.252  0.0683  0.8866 -0.3362
 4673SOL    HW224489   3.386   0.561   2.127 -0.1847  0.1152  0.2750
 4674SOL     OW24490   2.412   7.240   2.500  0.4370 -0.2552  0.0317
 4674SOL    HW124491   2.455   7.320   2.541  0.9731 -0.3175 -0.4027
 4674SOL    HW224492   2.478   7.165   2.497  0.0010 -0.6446  0.2437
 4675SOL     OW24493   4.012   3.033   1.393  1.1436 -0.3563 -0.2371
 4675SOL    HW124494   3.995   2.962   1.462  1.9205 -1.4373 -1.1285
 4675SOL    HW224495   4.109   3.057   1.395  1.3935 -1.1856 -1.6788
 4676SOL     OW24496   0.446   2.955   0.699  1.2722 -0.5954  0.2977
 4676SOL    HW124497   0.384   3.002   0.636  0.0471 -1.5137  0.7857
 4676SOL    HW224498   0.538   2.955   0.661  0.9296  0.5731 -0.5660
 4677SOL     OW24499   8.896   5.786   2.359  0.3180  0.2959  0.1776
 4677SOL    HW124500   8.814   5.732   2.372  0.5021 -0.2025 -0.6996
 4677SOL    HW224501   8.902   5.856   2.430 -1.1534  0.6924 -0.0873
 4678SOL     OW24502   0.898   8.360   1.192 -0.0919 -0.3333  0.1323
 4678SOL    HW124503   0.870   8.454   1.212  0.2813 -0.1540 -0.1780
 4678SOL    HW224504   0.975   8.361   1.128 -0.7743 -0.8706 -0.7165
 4679SOL     OW24505   4.976   8.449   1.202  0.6536 -0.2810 -0.0723
 4679SOL    HW124506   4.926   8.533   1.182 -0.0542 -0.9465 -1.1831
 4679SOL    HW224507   5.065   8.472   1.241  0.4991  0.9793 -0.4230
 4680SOL     OW24508   1.043   5.715   1.727  0.1960  0.3903 -0.1080
 4680SOL    HW124509   0.965   5.719   1.790  0.1471  2.8635 -0.2741
 4680SOL    HW224510   1.012   5.681   1.638 -0.1222 -1.2472  0.6081
 4681SOL     OW24511   8.751   5.195   2.871 -0.1785  0.0200  0.2773
 4681SOL    HW124512   8.745   5.100   2.841  0.1058  0.6057 -1.6514
 4681SOL    HW224513   8.836   5.208   2.922  0.8735 -0.2385 -1.3808
 4682SOL     OW24514   1.957   8.201   1.478 -0.2479  0.0287 -0.2966
 4682SOL    HW124515   2.042   8.187   1.528 -0.8395 -0.1474  0.6800
 4682SOL    HW224516   1.920   8.113   1.448 -0.4684  0.0462 -0.0779
 4683SOL     OW24517   8.664   0.720   1.690  0.3524 -0.9485  0.2151
 4683SOL    HW124518   8.666   0.670   1.777 -1.7705 -1.2336  0.1394
 4683SOL    HW224519   8.642   0.816   1.707 -2.0400 -1.4065 -0.1293
 4684SOL     OW24520   8.261   0.815   0.742  0.4067  0.4619 -0.4595
 4684SOL    HW124521   8.296   0.900   0.782 -2.1796  0.6712  1.4604
 4684SOL    HW224522   8.177   0.833   0.692  0.0151 -0.9118 -0.3300
 4685SOL     OW24523   1.361   3.500   0.532  0.3294  0.4748  0.3647
 4685SOL    HW124524   1.296   3.427   0.555  1.2848  0.1639  2.1642
 4685SOL    HW224525   1.342   3.533   0.440  0.1060 -2.3109 -0.6610
 4686SOL     OW24526   1.058   4.009   2.213 -0.2282  0.0951  0.0729
 4686SOL    HW124527   1.001   4.026   2.294 -0.5836  0.0464 -0.1639
 4686SOL    HW224528   1.097   3.918   2.219  2.2526  1.2233  1.6855
 4687SOL     OW24529   3.555   4.464   0.413  0.5217 -0.1341  0.2311
 4687SOL    HW124530   3.630   4.513   0.369 -0.1147  0.9415  0.3327
 4687SOL    HW224531   3.472   4.519   0.409  0.3035 -0.2767  2.2164
 4688SOL     OW24532   1.259   6.819   3.762 -0.5877  0.0609  0.2198
 4688SOL    HW124533   1.222   6.762   3.688 -0.6016 -1.2891  1.2573
 4688SOL    HW224534   1.301   6.901   3.723 -0.2007 -0.8530 -1.3194
 4689SOL     OW24535   0.668   7.532   1.703 -0.2645  0.2954 -0.0908
 4689SOL    HW124536   0.669   7.527   1.803  1.1358  1.0138 -0.0646
 4689SOL    HW224537   0.599   7.599   1.674 -0.1744  0.6096  0.4173
 4690SOL     OW24538   9.475   2.646   1.976  0.1876  0.1605 -0.6754
 4690SOL    HW124539   9.444   2.557   1.941  1.3880 -0.6329  0.1968
 4690SOL    HW224540   9.427   2.666   2.062 -0.8760  0.8790 -1.4303
 4691SOL     OW24541   9.275   1.678   3.012  0.4849 -0.1061  0.1424
 4691SOL    HW124542   9.290   1.681   2.913 -0.2953 -0.1319  0.0228
 4691SOL    HW224543   9.206   1.609   3.033 -0.1517  0.6730  0.6065
 4692SOL     OW24544   2.005   1.035   0.484  0.4553  0.4274 -0.4328
 4692SOL    HW124545   1.914   1.058   0.520  1.2424  1.6354  0.8176
 4692SOL    HW224546   1.995   0.987   0.397 -1.4838 -1.7108  0.8810
 4693SOL     OW24547   1.746   1.658   3.112 -0.0945 -0.1588 -0.3906
 4693SOL    HW124548   1.649   1.649   3.089 -0.2683  0.7867 -0.0387
 4693SOL    HW224549   1.778   1.748   3.084  0.1929  0.2718  1.2707
 4694SOL     OW24550   1.315   8.204   3.068 -0.2127  0.4430  0.1315
 4694SOL    HW124551   1.287   8.144   2.993  1.1781 -0.5367  0.3692
 4694SOL    HW224552   1.364   8.150   3.137 -3.4170  0.8494  2.8934
 4695SOL     OW24553   9.351   1.326   3.241 -0.2384  0.0809 -0.3228
 4695SOL    HW124554   9.301   1.412   3.252  0.2823  0.3827 -0.2569
 4695SOL    HW224555   9.358   1.303   3.144  0.0655  0.3859 -0.3758
 4696SOL     OW24556   8.937   5.549   2.959  0.1789  0.4807 -0.3337
 4696SOL    HW124557   8.857   5.587   2.913 -0.8142 -1.2282 -0.0644
 4696SOL    HW224558   8.946   5.452   2.935  0.7730  0.0590  1.5412
 4697SOL     OW24559   7.867   1.831   3.139 -0.2428  0.8302 -0.7183
 4697SOL    HW124560   7.785   1.862   3.187 -0.5096 -0.3231 -0.4023
 4697SOL    HW224561   7.942   1.819   3.205 -0.4740 -0.2953 -0.6525
 4698SOL     OW24562   9.564   6.798   3.134 -0.9032 -0.1143  0.1008
 4698SOL    HW124563   9.510   6.726   3.091 -0.1916 -0.5251 -0.1127
 4698SOL    HW224564   9.614   6.848   3.063  1.2867 -1.6236  0.5369
 4699SOL     OW24565   8.849   9.046   0.465 -0.0437 -0.2295  0.3051
 4699SOL    HW124566   8.906   9.120   0.429  0.4202 -0.5622  0.3562
 4699SOL    HW224567   8.774   9.028   0.401  0.5070 -0.4998 -0.2643
 4700SOL     OW24568   3.270   5.493   0.167  0.0825  0.4473  0.4516
 4700SOL    HW124569   3.295   5.427   0.237  3.7666  0.1863 -0.9886
 4700SOL    HW224570   3.301   5.461   0.078  0.2254  3.1982 -0.5471
 4701SOL     OW24571   0.508   1.556   2.279  0.2210  0.0428  0.2309
 4701SOL    HW124572   0.421   1.510   2.293  0.1801 -0.1284 -0.5484
 4701SOL    HW224573   0.555   1.516   2.200  1.1502 -0.0777  0.8308
 4702SOL     OW24574   3.425   5.271   0.607  0.4730  0.0255 -0.6792
 4702SOL    HW124575   3.443   5.184   0.654  0.7217 -0.7882 -2.2575
 4702SOL    HW224576   3.425   5.345   0.674  0.2014 -1.1913  0.7019
 4703SOL     OW24577   6.900   9.830   3.592 -0.5586 -0.2270  0.1867
 4703SOL    HW124578   6.948   9.821   3.680  1.2364 -0.4396 -0.7963
 4703SOL    HW224579   6.858   9.920   3.587  1.9548  0.9846  0.0083
 4704SOL     OW24580   9.014   7.995   2.452  0.3096  0.1701 -0.2111
 4704SOL    HW124581   8.950   7.919   2.462 -1.5919  1.9281  1.5554
 4704SOL    HW224582   9.107   7.965   2.474 -0.1607 -2.0132 -1.1535
 4705SOL     OW24583   2.353   3.284   0.949  0.2419 -0.2158  0.5108
 4705SOL    HW124584   2.417   3.352   0.986 -2.1548  2.0732  0.5759
 4705SOL    HW224585   2.275   3.331   0.907 -0.2789 -2.9183 -1.6152
 4706SOL     OW24586   8.278   3.085   1.470  0.0250  0.3002 -0.1787
 4706SOL    HW124587   8.342   3.160   1.487 -0.2537  0.6368 -0.6171
 4706SOL    HW224588   8.309   3.003   1.519  1.1274  0.2919 -0.8616
 4707SOL     OW24589   9.348   6.992   0.916 -0.7532  0.0668  0.4018
 4707SOL    HW124590   9.405   7.061   0.962 -1.3707  0.2386  0.9108
 4707SOL    HW224591   9.319   7.027   0.827  1.1247 -0.5881 -0.4976
 4708SOL     OW24592   1.320   1.929   3.362 -0.0851  0.0790 -0.5405
 4708SOL    HW124593   1.304   1.991   3.439  1.5155 -1.9485  1.4802
 4708SOL    HW224594   1.235   1.917   3.311 -1.0357  1.9081  0.5448
 4709SOL     OW24595   2.514   0.811   3.700 -0.3346  0.1219  0.3552
 4709SOL    HW124596   2.567   0.874   3.757 -1.0621  0.9178  0.1538
 4709SOL    HW224597   2.498   0.726   3.750  0.1544  0.3150  0.8395
 4710SOL     OW24598   0.547   5.271   3.304 -0.6784 -0.0444  0.0635
 4710SOL    HW124599   0.524   5.202   3.236 -0.9916 -0.7297  0.8575
 4710SOL    HW224600   0.503   5.249   3.391  0.6216  0.2045  0.8117
 4711SOL     OW24601   1.085   3.026   3.681  0.7152  0.0179  0.6520
 4711SOL    HW124602   1.054   2.994   3.592 -0.3390 -1.3121  1.4708
 4711SOL    HW224603   1.130   3.114   3.671 -0.2839  0.3602 -1.0534
 4712SOL     OW24604   3.486   9.980   2.177 -0.2418  0.3955  0.1037
 4712SOL    HW124605   3.430  10.063   2.173 -0.1264  0.4656 -0.0709
 4712SOL    HW224606   3.430   9.901   2.154 -0.0798  0.5605 -0.8779
 4713SOL     OW24607   1.703   0.372   3.003  0.1382  0.8951  0.2857
 4713SOL    HW124608   1.727   0.315   2.924  2.0870  1.3417  0.5179
 4713SOL    HW224609   1.771   0.360   3.075 -2.4762 -0.6921  2.5696
 4714SOL     OW24610   9.592   7.267   0.059  0.4005  0.1382 -0.3604
 4714SOL    HW124611   9.501   7.251   0.097  1.5801 -2.4401  1.4717
 4714SOL    HW224612   9.615   7.364   0.069 -1.6746  0.6082  0.1720
 4715SOL     OW24613   9.545   4.890   0.778  0.7120 -0.4498  0.0599
 4715SOL    HW124614   9.599   4.872   0.861  0.7444  0.5104  0.2632
 4715SOL    HW224615   9.487   4.812   0.758  1.2478 -0.9898  0.5716
 4716SOL     OW24616   4.040   2.156   1.285  0.2467 -0.5609  0.7841
 4716SOL    HW124617   3.960   2.097   1.275 -0.6378  0.3812  2.2558
 4716SOL    HW224618   4.027   2.239   1.230  0.5213 -0.7087  0.4904
 4717SOL     OW24619   7.877   8.354   0.690 -0.4228  0.0102  0.5518
 4717SOL    HW124620   7.913   8.262   0.705 -2.3179 -0.2878  3.8246
 4717SOL    HW224621   7.794   8.349   0.635  0.8887  0.0598 -1.4730
 4718SOL     OW24622   0.376   8.354   2.301  0.1501 -0.1250  0.1931
 4718SOL    HW124623   0.476   8.350   2.307  0.0798 -3.4480 -0.1366
 4718SOL    HW224624   0.337   8.342   2.392  0.0197  0.7254  0.2550
 4719SOL     OW24625   8.971   9.461   2.451 -0.1051  0.1024 -0.6016
 4719SOL    HW124626   8.997   9.392   2.384 -0.4580  2.1092 -2.8830
 4719SOL    HW224627   9.045   9.528   2.459  0.9312 -1.3766  2.8041
 4720SOL     OW24628   0.273   8.744   1.010  0.2287 -0.0091  0.2298
 4720SOL    HW124629   0.205   8.798   1.060 -0.5322  0.0871 -0.8887
 4720SOL    HW224630   0.281   8.654   1.051  0.0330  0.2656  0.8760
 4721SOL     OW24631   2.630   0.909   0.847  0.0033 -0.1077 -0.1560
 4721SOL    HW124632   2.689   0.957   0.913 -0.2185  1.0958 -0.8081
 4721SOL    HW224633   2.651   0.942   0.755 -0.0602 -1.3928 -0.6408
 4722SOL     OW24634   8.403   4.280   0.263  0.2813  0.0651 -0.2385
 4722SOL    HW124635   8.455   4.362   0.288 -0.0884  0.4228 -0.6366
 4722SOL    HW224636   8.376   4.230   0.345  0.6173  0.2747 -0.0003
 4723SOL     OW24637   0.335   7.909   0.837 -0.1710 -0.0957  0.0191
 4723SOL    HW124638   0.280   7.925   0.919  1.2177  0.0774  0.9353
 4723SOL    HW224639   0.347   7.995   0.787  0.0906  0.0638  0.3525
 4724SOL     OW24640   1.149   5.430   1.639 -0.0915 -0.2497 -0.0783
 4724SOL    HW124641   1.088   5.502   1.606  0.0546 -0.0975 -0.0161
 4724SOL    HW224642   1.238   5.470   1.662 -0.2754 -0.3126  0.7462
 4725SOL     OW24643   5.055   0.801   3.779  0.2759  0.0835  0.4088
 4725SOL    HW124644   5.125   0.824   3.846  1.7051 -2.2261 -0.2454
 4725SOL    HW224645   4.979   0.755   3.826  0.9408 -0.8676  0.5698
 4726SOL     OW24646   1.428   1.725   3.506  0.2720  0.3533  0.5291
 4726SOL    HW124647   1.367   1.791   3.461  0.9980  0.3672 -0.4558
 4726SOL    HW224648   1.434   1.746   3.603 -3.6634 -1.4395  1.2450
 4727SOL     OW24649   8.869   2.224   3.778  1.0792  0.0932 -0.1059
 4727SOL    HW124650   8.918   2.193   3.859  1.2548 -0.2136 -0.3259
 4727SOL    HW224651   8.929   2.217   3.698  1.2385  1.3203 -0.1120
 4728SOL     OW24652   3.887   9.331   2.773 -0.3464 -0.3801  0.0183
 4728SOL    HW124653   3.870   9.408   2.834 -1.5087 -0.7702  0.1891
 4728SOL    HW224654   3.804   9.276   2.763 -0.0262 -0.6321 -1.4785
 4729SOL     OW24655   4.827   0.796   2.790  0.5678 -0.5442 -0.3101
 4729SOL    HW124656   4.796   0.889   2.772  0.9074 -0.3570  0.0665
 4729SOL    HW224657   4.835   0.782   2.888  0.4469 -0.9950 -0.3629
 4730SOL     OW24658   7.294   8.246   1.933  0.3226 -0.4561  0.0394
 4730SOL    HW124659   7.224   8.175   1.923 -0.9283  1.0052 -1.8540
 4730SOL    HW224660   7.382   8.203   1.955 -0.4609 -2.5586 -0.7810
 4731SOL     OW24661   3.086   1.812   2.992 -0.0132  0.0199  0.0601
 4731SOL    HW124662   3.152   1.877   2.953  2.2949 -3.2909 -1.8459
 4731SOL    HW224663   3.110   1.793   3.087  0.0970  0.9166  0.2191
 4732SOL     OW24664   9.247   7.409   1.470 -0.2291  0.0677  0.0808
 4732SOL    HW124665   9.296   7.381   1.553  0.7433 -1.6385 -1.0299
 4732SOL    HW224666   9.297   7.377   1.390 -1.4109  1.2821 -1.1611
 4733SOL     OW24667   1.918   7.737   3.029  0.0479  0.2082 -0.8874
 4733SOL    HW124668   1.941   7.640   3.036 -2.3302 -0.2345  1.6729
 4733SOL    HW224669   1.829   7.746   2.985 -0.4144  1.1221  0.2196
 4734SOL     OW24670   8.271   3.378   3.569  0.3921  0.6380 -0.3467
 4734SOL    HW124671   8.232   3.447   3.509 -2.0767  0.7364  1.3223
 4734SOL    HW224672   8.287   3.417   3.660  0.7517 -0.4635  0.0765
 4735SOL     OW24673   2.088   9.090   0.547 -0.3970 -0.5806 -0.7057
 4735SOL    HW124674   1.999   9.111   0.588  0.6627  0.8672  0.8853
 4735SOL    HW224675   2.092   9.129   0.455 -0.5215  1.3896  0.1152
 4736SOL     OW24676   4.326   0.362   3.642 -0.2582 -0.5893  0.0301
 4736SOL    HW124677   4.401   0.415   3.683 -0.3326  1.3771 -2.2452
 4736SOL    HW224678   4.251   0.355   3.708  0.9772 -0.5460  1.4859
 4737SOL     OW24679   4.171   9.635   3.700  0.7005  0.4955 -0.1812
 4737SOL    HW124680   4.259   9.637   3.747 -0.1223  2.2333  1.3564
 4737SOL    HW224681   4.106   9.580   3.752  0.5527  0.1782 -0.6982
 4738SOL     OW24682   9.587   5.885   2.087 -0.5797  0.6136 -0.0903
 4738SOL    HW124683   9.584   5.931   1.999 -1.6397  1.4260  0.3708
 4738SOL    HW224684   9.512   5.819   2.093  0.1294 -0.2193 -0.2112
 4739SOL     OW24685   6.972   3.099   0.250 -0.5008  0.2623 -0.1174
 4739SOL    HW124686   7.006   3.005   0.256 -3.2787 -0.8217 -0.8899
 4739SOL    HW224687   7.007   3.142   0.167 -0.5158 -0.6269 -0.5859
 4740SOL     OW24688   4.016   7.002   3.493  0.3303 -0.3413 -0.3474
 4740SOL    HW124689   3.916   7.012   3.497  0.2208 -1.3315 -0.5363
 4740SOL    HW224690   4.057   7.051   3.569 -0.2319  0.9829 -0.8698
 4741SOL     OW24691   2.646   2.723   3.908  0.1793  0.4227 -0.9797
 4741SOL    HW124692   2.638   2.667   3.825  2.0583 -1.4169  0.0340
 4741SOL    HW224693   2.631   2.666   3.988 -0.2828  1.9042  0.0057
 4742SOL     OW24694   0.068   1.644   4.025  0.2636  0.2551  0.2285
 4742SOL    HW124695   0.037   1.553   4.000 -1.1951  0.4271  1.3397
 4742SOL    HW224696   0.053   1.707   3.948 -3.3811  0.6009  1.1376
 4743SOL     OW24697   9.280   8.822   2.407  0.9612  0.6577 -0.7035
 4743SOL    HW124698   9.377   8.798   2.403  0.9289  0.2932  0.4673
 4743SOL    HW224699   9.249   8.820   2.502  0.2421  2.4953 -0.8676
 4744SOL     OW24700   4.316   3.085   1.187  0.0425 -0.0285 -0.1248
 4744SOL    HW124701   4.313   3.023   1.108 -1.1914  0.5020 -0.5173
 4744SOL    HW224702   4.340   3.034   1.269 -0.9262 -1.0389 -0.4531
 4745SOL     OW24703   2.181   8.583   0.715  0.2121  0.2511 -0.4056
 4745SOL    HW124704   2.182   8.683   0.710 -0.2045  0.3330  0.9157
 4745SOL    HW224705   2.089   8.552   0.739  0.6022 -0.3791  0.3043
 4746SOL     OW24706   1.503   3.245   2.894 -0.5629 -0.0790 -0.2623
 4746SOL    HW124707   1.546   3.335   2.885 -2.9180  1.0477 -0.6141
 4746SOL    HW224708   1.552   3.192   2.964  0.5541  1.6578  0.3146
 4747SOL     OW24709   1.157   6.718   2.473  0.3751  0.5174  0.3453
 4747SOL    HW124710   1.230   6.785   2.489  2.0824 -1.1588 -0.1387
 4747SOL    HW224711   1.168   6.678   2.382  0.4687 -1.6921  1.2907
 4748SOL     OW24712   1.895   5.364   2.253 -0.0420 -0.1573 -0.4204
 4748SOL    HW124713   1.982   5.367   2.303  1.4868  0.8705 -3.0551
 4748SOL    HW224714   1.898   5.290   2.186 -1.7355 -0.9703  0.3836
 4749SOL     OW24715   2.400   4.422   0.418  0.0821 -0.1205  0.2818
 4749SOL    HW124716   2.459   4.468   0.485  0.1328  0.8586 -0.4335
 4749SOL    HW224717   2.305   4.428   0.448  0.0962  0.3928  0.2294
 4750SOL     OW24718   3.417   8.744   2.849 -0.6349 -0.3899  0.1806
 4750SOL    HW124719   3.493   8.722   2.910 -0.1224 -1.3708 -0.7781
 4750SOL    HW224720   3.423   8.686   2.767 -1.2578  0.9376 -0.8178
 4751SOL     OW24721   1.497   3.501   0.016  0.1949 -0.3066 -0.2586
 4751SOL    HW124722   1.559   3.579   0.010  1.0114 -0.7081  2.3655
 4751SOL    HW224723   1.454   3.486  -0.073  2.2279  1.3137 -1.5683
 4752SOL     OW24724   0.479   4.913   1.779  0.2013 -0.2148  0.7455
 4752SOL    HW124725   0.405   4.980   1.791  0.5584 -0.0617  2.2253
 4752SOL    HW224726   0.536   4.940   1.701 -1.5235 -0.5600 -0.6668
 4753SOL     OW24727   2.692   2.109   0.255 -0.6067  0.8857  0.4015
 4753SOL    HW124728   2.657   2.107   0.161 -1.6626 -1.1725  0.8062
 4753SOL    HW224729   2.756   2.185   0.265  1.9604 -0.6954 -2.8658
 4754SOL     OW24730   2.134   7.950   2.498  0.0136 -0.1347 -0.5916
 4754SOL    HW124731   2.116   7.852   2.494 -0.7646 -0.0681  0.7963
 4754SOL    HW224732   2.068   7.993   2.560  1.1758  1.0619 -0.1759
 4755SOL     OW24733   9.443   8.969   0.238  0.0653 -0.7237  0.0530
 4755SOL    HW124734   9.378   8.937   0.307 -0.2488  1.4237  0.8184
 4755SOL    HW224735   9.536   8.943   0.265 -0.1033 -0.3271  1.0625
 4756SOL     OW24736   3.109   6.827   2.871  0.5237  0.4991 -0.2126
 4756SOL    HW124737   3.137   6.918   2.903  2.6606 -0.6771  1.3638
 4756SOL    HW224738   3.153   6.757   2.926 -4.3086 -1.5348  1.3779
 4757SOL     OW24739   1.900   4.541   2.714  0.1513 -0.7031 -0.4142
 4757SOL    HW124740   1.898   4.443   2.731 -2.0875 -0.7604 -0.8590
 4757SOL    HW224741   1.936   4.588   2.795  1.5782 -1.9026 -0.3421
 4758SOL     OW24742   0.804   1.732   0.526 -0.9445  0.3142 -0.0315
 4758SOL    HW124743   0.791   1.757   0.430 -0.6566 -1.6673 -0.6191
 4758SOL    HW224744   0.720   1.691   0.562  0.0478 -2.3565 -0.5824
 4759SOL     OW24745   4.709   8.846   1.627  0.0277  0.2575  0.2697
 4759SOL    HW124746   4.662   8.758   1.627 -1.0935  0.8570  0.8358
 4759SOL    HW224747   4.650   8.916   1.588  0.7246  0.8619  0.2864
 4760SOL     OW24748   2.861   6.944   3.326  0.2807 -1.1928  0.2383
 4760SOL    HW124749   2.909   6.863   3.359  1.4609 -0.8614 -0.6427
 4760SOL    HW224750   2.903   6.976   3.241  0.1687  0.6497  0.8494
 4761SOL     OW24751   8.068   9.024   0.867  0.1685 -0.5424  0.0342
 4761SOL    HW124752   7.975   9.004   0.898  0.3626 -0.2448  0.8045
 4761SOL    HW224753   8.071   9.115   0.826 -0.2079 -1.1509 -1.3840
 4762SOL     OW24754   3.775   0.849   3.846  0.2549  0.2285 -0.2811
 4762SOL    HW124755   3.728   0.936   3.828 -0.2784  0.0687  0.3054
 4762SOL    HW224756   3.765   0.789   3.767  0.3762  0.5983 -0.5756
 4763SOL     OW24757   1.581   3.907   3.584  0.2041  0.3710 -0.1395
 4763SOL    HW124758   1.530   3.872   3.505 -0.8329 -0.4074  0.8773
 4763SOL    HW224759   1.607   4.002   3.567 -0.9650  0.5525 -0.9487
 4764SOL     OW24760   1.760   9.385   1.529  0.7555 -0.1122 -0.0770
 4764SOL    HW124761   1.698   9.340   1.464 -0.2149  1.5679 -0.3529
 4764SOL    HW224762   1.854   9.362   1.507  0.4002 -0.1537 -1.6537
 4765SOL     OW24763   2.287   9.808   3.633 -0.4852 -0.1887  0.4636
 4765SOL    HW124764   2.284   9.876   3.707  1.3400 -2.3421  2.5811
 4765SOL    HW224765   2.259   9.719   3.668  1.0613 -1.3994 -1.2866
 4766SOL     OW24766   7.583   2.871   0.569  0.4767 -0.3229  0.0703
 4766SOL    HW124767   7.491   2.902   0.593  0.2983  0.2714 -1.3654
 4766SOL    HW224768   7.648   2.907   0.636  0.0139  1.5041 -0.4214
 4767SOL     OW24769   2.150   8.775   3.891 -0.0551 -0.2262 -0.1700
 4767SOL    HW124770   2.244   8.794   3.864 -0.2849 -0.3851 -1.0873
 4767SOL    HW224771   2.130   8.824   3.976  0.9328 -0.4062  0.1757
 4768SOL     OW24772   8.319   8.912   0.771  0.0864 -0.1770 -0.0185
 4768SOL    HW124773   8.232   8.946   0.806  0.3612 -0.1078  0.6076
 4768SOL    HW224774   8.354   8.841   0.832  0.2164 -0.5788 -0.5499
 4769SOL     OW24775   3.812   0.809   0.844 -0.2684 -0.2107 -0.0781
 4769SOL    HW124776   3.899   0.781   0.886 -0.4065  1.8908  1.6709
 4769SOL    HW224777   3.805   0.908   0.844 -3.0743 -0.3664  0.6095
 4770SOL     OW24778   7.793   8.056   3.577 -0.3259  0.0692  0.6177
 4770SOL    HW124779   7.727   8.080   3.506 -0.1916  0.2505  0.5524
 4770SOL    HW224780   7.818   8.139   3.628  1.8581  0.4889 -1.0508
 4771SOL     OW24781   9.627   4.245   0.326  0.0452  0.1531 -0.0395
 4771SOL    HW124782   9.723   4.269   0.340 -0.8570  2.6427  2.4980
 4771SOL    HW224783   9.611   4.152   0.359  1.5905 -0.3541 -0.6449
 4772SOL     OW24784   5.737   7.674   1.982  0.6069  0.5079 -0.4236
 4772SOL    HW124785   5.718   7.584   2.023 -0.1685  0.5504 -0.6942
 4772SOL    HW224786   5.715   7.672   1.884  0.8663  0.9130 -0.4943
 4773SOL     OW24787   1.542   5.668   0.605  0.5088 -0.0928  0.0940
 4773SOL    HW124788   1.469   5.604   0.580  0.8312 -0.8020  0.9420
 4773SOL    HW224789   1.502   5.756   0.629 -0.0531 -0.3917  0.2778
 4774SOL     OW24790   9.464   5.809   3.647  0.1507 -0.5264  0.7485
 4774SOL    HW124791   9.489   5.731   3.589 -0.9833 -0.7249  0.5029
 4774SOL    HW224792   9.545   5.865   3.665  0.8544 -1.4236  0.4161
 4775SOL     OW24793   2.202   5.406   0.754  0.1799  0.6269  0.4740
 4775SOL    HW124794   2.136   5.410   0.679  1.4564 -0.0662 -0.7172
 4775SOL    HW224795   2.282   5.462   0.732  3.0570 -3.8161 -1.2560
 4776SOL     OW24796   6.531   7.095   2.130  0.1721  0.4483 -0.5495
 4776SOL    HW124797   6.546   7.009   2.082 -0.7991 -0.6263  1.0146
 4776SOL    HW224798   6.595   7.102   2.207 -1.7836 -0.3365  1.1866
 4777SOL     OW24799   2.478   3.833   1.865  0.1174 -0.0078 -0.1438
 4777SOL    HW124800   2.576   3.835   1.849  0.1635 -0.6166  0.0466
 4777SOL    HW224801   2.431   3.890   1.797  0.3602 -2.0661 -2.0798
 4778SOL     OW24802   9.707   7.192   3.453 -0.6748  0.0681  0.0781
 4778SOL    HW124803   9.679   7.173   3.359 -0.5907 -0.3137  0.1272
 4778SOL    HW224804   9.627   7.188   3.513 -0.5835 -0.6261  0.1597
 4779SOL     OW24805   2.400   4.487   0.969  0.6004 -0.4269  0.7465
 4779SOL    HW124806   2.384   4.398   0.927  3.0671 -0.9073  0.7675
 4779SOL    HW224807   2.447   4.475   1.056  1.3834  0.9185  0.5279
 4780SOL     OW24808   8.325   4.221   1.671 -0.2813 -0.1358 -0.1223
 4780SOL    HW124809   8.347   4.125   1.689 -1.5198 -0.7967 -1.9534
 4780SOL    HW224810   8.230   4.239   1.698 -0.6676  0.0682 -1.6027
 4781SOL     OW24811   9.519   6.427   3.891 -0.4253 -0.5650  0.2014
 4781SOL    HW124812   9.612   6.411   3.925 -0.5462  1.1324  1.3800
 4781SOL    HW224813   9.523   6.484   3.809 -0.5242  1.2807  1.4573
 4782SOL     OW24814   2.082   4.968   3.502 -0.0767  0.0268  0.5833
 4782SOL    HW124815   2.060   5.001   3.411  1.8749 -1.6221 -0.5205
 4782SOL    HW224816   2.010   4.905   3.533 -1.0186  1.0175  0.4471
 4783SOL     OW24817   0.289   5.073   1.360 -0.3455 -0.2104 -0.5832
 4783SOL    HW124818   0.270   4.989   1.410  2.9113 -2.1156 -2.3758
 4783SOL    HW224819   0.341   5.136   1.418  1.0618 -1.2991 -0.6437
 4784SOL     OW24820   0.919   3.293   0.135 -0.0080  0.2958  0.5317
 4784SOL    HW124821   0.985   3.356   0.177  0.4644 -0.8998  1.6202
 4784SOL    HW224822   0.952   3.199   0.144 -0.7031 -0.1230 -1.0859
 4785SOL     OW24823   4.515   0.943   2.002  0.1696 -0.2041  0.2182
 4785SOL    HW124824   4.576   0.919   1.927 -0.3463 -1.1514  0.0984
 4785SOL    HW224825   4.563   0.932   2.089  1.0374  1.7097 -0.0019
 4786SOL     OW24826   2.950   6.132   3.624 -0.4263  0.0514  0.1007
 4786SOL    HW124827   2.928   6.229   3.635  1.3872  0.4439  0.5777
 4786SOL    HW224828   2.867   6.080   3.605 -1.2687  1.8395 -1.1791
 4787SOL     OW24829   0.949   0.053   1.178  0.2460  0.2300  0.0265
 4787SOL    HW124830   0.931  -0.012   1.104 -0.0630  0.3060  0.0361
 4787SOL    HW224831   1.033   0.025   1.226 -0.0737 -0.3663  0.2489
 4788SOL     OW24832   0.264   8.120   1.655  0.6064  0.2317  0.9364
 4788SOL    HW124833   0.198   8.048   1.636  0.0332  0.9238  0.2191
 4788SOL    HW224834   0.268   8.138   1.753 -2.1593  1.8971  0.8075
 4789SOL     OW24835   9.049   5.019   3.032 -0.3271 -0.1460 -0.1238
 4789SOL    HW124836   8.980   4.947   3.026 -0.1446 -0.3065 -0.2753
 4789SOL    HW224837   9.131   4.984   3.078  0.2114 -0.3724 -1.2608
 4790SOL     OW24838   0.774   1.536   1.074  0.4398 -0.1343 -0.1714
 4790SOL    HW124839   0.818   1.503   0.990  1.3476 -0.5469  0.4583
 4790SOL    HW224840   0.699   1.475   1.099  1.2566 -0.9630  0.2513
 4791SOL     OW24841   3.051   7.464   0.281  0.3843 -0.0456 -0.2390
 4791SOL    HW124842   3.124   7.515   0.327  0.4341 -0.3990  0.0751
 4791SOL    HW224843   3.092   7.394   0.221  0.2981 -0.6916  0.4489
 4792SOL     OW24844   5.057   9.160   0.317  0.2747  0.0615 -1.1472
 4792SOL    HW124845   5.007   9.103   0.252  1.2712 -0.6139 -1.3228
 4792SOL    HW224846   5.155   9.153   0.300  0.5277  0.1472  0.2052
 4793SOL     OW24847   3.866   4.271   3.668 -0.0157 -0.4603  0.1557
 4793SOL    HW124848   3.798   4.322   3.720  0.0355  0.9823 -1.1852
 4793SOL    HW224849   3.956   4.313   3.680  0.1086 -0.5189 -0.5707
 4794SOL     OW24850   7.986   4.765   0.034 -0.0919 -0.3232 -0.4172
 4794SOL    HW124851   7.997   4.692  -0.033 -1.1035 -1.0586  0.1966
 4794SOL    HW224852   8.063   4.765   0.097 -1.4627 -2.7982  1.3798
 4795SOL     OW24853   3.375   2.975   2.239 -0.6002 -0.7485 -0.1067
 4795SOL    HW124854   3.393   2.926   2.325  0.6766  2.4639  1.5228
 4795SOL    HW224855   3.293   3.030   2.249 -1.5023 -1.7732 -1.6250
 4796SOL     OW24856   9.434   3.641   1.343  0.0683 -0.1099 -0.0210
 4796SOL    HW124857   9.500   3.703   1.301 -0.9332  0.8609 -0.1852
 4796SOL    HW224858   9.346   3.688   1.353 -0.3650 -1.1143  0.9639
 4797SOL     OW24859   0.234   5.752   1.430  0.1428 -0.2206 -0.6445
 4797SOL    HW124860   0.319   5.745   1.481  0.8145  0.3285 -1.6718
 4797SOL    HW224861   0.156   5.747   1.493  0.8746 -2.4456  0.1348
 4798SOL     OW24862   0.116   7.886   3.255 -0.2983  0.1120 -0.0538
 4798SOL    HW124863   0.086   7.833   3.176 -2.2709  1.1854 -0.0490
 4798SOL    HW224864   0.124   7.825   3.334 -0.8075 -0.5104 -0.4730
 4799SOL     OW24865   2.228   8.641   3.183 -0.0965  0.1372 -0.2712
 4799SOL    HW124866   2.196   8.727   3.221  1.7998  0.1185  1.4709
 4799SOL    HW224867   2.324   8.651   3.155 -0.0422 -1.2395 -0.6099
 4800SOL     OW24868   0.025   8.120   2.818 -0.2136  1.0144  0.0070
 4800SOL    HW124869  -0.066   8.104   2.779 -0.7007  0.2237  1.4642
 4800SOL    HW224870   0.038   8.219   2.833 -0.8564  1.1202 -0.1187
 4801SOL     OW24871   2.346   0.947   1.867 -0.0011 -0.3687 -0.2718
 4801SOL    HW124872   2.341   0.982   1.961 -0.0297 -1.3372  0.0992
 4801SOL    HW224873   2.412   0.872   1.863  0.1079 -0.2354 -1.0610
 4802SOL     OW24874   2.212   4.770   3.821 -0.0285 -0.6607 -0.9222
 4802SOL    HW124875   2.135   4.708   3.833 -1.7387  1.7880  1.2940
 4802SOL    HW224876   2.286   4.743   3.882 -0.6859 -0.6527 -0.1149
 4803SOL     OW24877   1.163   9.593   1.358  0.0703 -0.5788 -0.0340
 4803SOL    HW124878   1.146   9.518   1.423 -0.2499 -0.0455  0.5001
 4803SOL    HW224879   1.197   9.555   1.272  0.8837 -1.2676  0.5829
 4804SOL     OW24880   1.486   6.295   0.120  0.5324 -0.0132 -0.3170
 4804SOL    HW124881   1.518   6.372   0.064  1.0701 -1.7257 -2.4159
 4804SOL    HW224882   1.541   6.214   0.100 -0.9537 -1.3376  0.8187
 4805SOL     OW24883   9.629   8.099   1.639  0.8188 -0.0255 -0.3575
 4805SOL    HW124884   9.717   8.075   1.680 -0.7453 -0.5148  2.8235
 4805SOL    HW224885   9.614   8.197   1.648  1.0772  0.0822 -1.0403
 4806SOL     OW24886   1.744   9.197   3.651  0.0237 -0.0081  0.3427
 4806SOL    HW124887   1.696   9.110   3.660  0.6563 -0.2266  1.7648
 4806SOL    HW224888   1.723   9.238   3.562 -1.5115 -0.8521  0.3028
 4807SOL     OW24889   0.897   6.494   1.324  0.4788 -0.5668 -0.1758
 4807SOL    HW124890   0.912   6.574   1.267  2.9181 -0.5964  0.3802
 4807SOL    HW224891   0.818   6.510   1.384  1.2828  1.6566  0.3302
 4808SOL     OW24892   2.073   2.067   3.486  0.3289  0.1804 -0.2005
 4808SOL    HW124893   2.134   2.080   3.564  1.5910  0.7044 -1.2602
 4808SOL    HW224894   2.110   2.115   3.406 -1.4754  0.4906 -0.8583
 4809SOL     OW24895   9.973   6.111   1.266  0.8808 -0.4106 -0.5372
 4809SOL    HW124896  10.047   6.049   1.240  0.8967 -0.1216 -1.1907
 4809SOL    HW224897  10.005   6.173   1.338  0.4581 -2.0130  1.0850
 4810SOL     OW24898   8.254   9.758   0.660  0.5230 -0.1589  1.1649
 4810SOL    HW124899   8.261   9.666   0.697  1.0979 -0.4779  0.2864
 4810SOL    HW224900   8.232   9.753   0.562  0.0379  0.6426  1.2306
 4811SOL     OW24901   8.770   7.432   2.793 -0.5461  0.5165 -0.4069
 4811SOL    HW124902   8.781   7.390   2.883 -1.5239 -0.6737 -0.8374
 4811SOL    HW224903   8.677   7.416   2.760  0.5758 -1.3664 -2.8172
 4812SOL     OW24904   2.499   9.655   1.708  0.0628  0.0432 -0.2354
 4812SOL    HW124905   2.531   9.584   1.645  0.5201 -0.0244  0.0672
 4812SOL    HW224906   2.401   9.671   1.693  0.1320 -0.0863 -0.8464
 4813SOL     OW24907   3.309   8.301   2.340 -0.2291  0.0284 -0.0445
 4813SOL    HW124908   3.291   8.386   2.291 -0.5728  0.0609  0.1379
 4813SOL    HW224909   3.251   8.296   2.422  0.8316  0.2846  0.7356
 4814SOL     OW24910   9.294   8.539   1.501 -0.0053  0.0607 -0.1552
 4814SOL    HW124911   9.209   8.489   1.517  0.9584 -0.5496  3.6218
 4814SOL    HW224912   9.275   8.638   1.505 -0.2187 -0.0456  3.3039
 4815SOL     OW24913   0.361   6.767   3.642  0.2919 -0.3159 -0.4293
 4815SOL    HW124914   0.341   6.842   3.706  2.3884 -1.0622  1.1636
 4815SOL    HW224915   0.459   6.747   3.644  0.1907 -1.2491 -2.9370
 4816SOL     OW24916   9.408   1.032   3.599  1.0039 -0.4550  0.1356
 4816SOL    HW124917   9.491   0.979   3.615  0.7943 -0.4129  1.4203
 4816SOL    HW224918   9.329   0.979   3.630  0.4764 -0.8339 -1.8388
 4817SOL     OW24919   9.770   1.156   1.837  0.4642 -0.2571  0.3255
 4817SOL    HW124920   9.733   1.109   1.918  1.7916 -0.2931  0.9263
 4817SOL    HW224921   9.757   1.254   1.847 -3.4428 -0.5300 -1.4999
 4818SOL     OW24922   0.619   9.510   2.799  0.6739 -0.1221 -0.0887
 4818SOL    HW124923   0.632   9.488   2.703 -0.8542  0.6814 -0.4963
 4818SOL    HW224924   0.708   9.512   2.846  1.3327 -1.4784 -1.2527
 4819SOL     OW24925   8.668   6.017   2.114  0.5883  0.6584  0.1395
 4819SOL    HW124926   8.763   5.987   2.113 -0.1691 -1.7817 -0.7859
 4819SOL    HW224927   8.632   6.011   2.207  0.7216 -0.4013  0.1233
 4820SOL     OW24928   9.667   0.004   1.713 -0.1739  0.4906  0.1518
 4820SOL    HW124929   9.656  -0.061   1.788 -0.3351  0.6747  0.2877
 4820SOL    HW224930   9.764   0.013   1.691  0.0213  1.6033  1.3765
 4821SOL     OW24931   0.829   3.014   2.637 -0.2640  0.0333  0.2373
 4821SOL    HW124932   0.756   2.988   2.700 -1.4726  0.8650 -0.8014
 4821SOL    HW224933   0.894   3.073   2.685 -0.8620  0.1816  0.8756
 4822SOL     OW24934   2.216   2.894   3.306  0.0248 -0.1180 -0.0854
 4822SOL    HW124935   2.205   2.818   3.242 -1.3266  0.7511 -0.9080
 4822SOL    HW224936   2.126   2.932   3.329  0.7542  2.0495 -0.7000
 4823SOL     OW24937   1.978   2.569   2.018 -0.3427 -0.3603  0.2637
 4823SOL    HW124938   2.053   2.549   1.955 -0.5162  2.2624 -0.8297
 4823SOL    HW224939   2.015   2.596   2.107 -0.0235 -0.7546  0.2481
 4824SOL     OW24940   8.497   9.456   1.824  0.1025  0.2383  0.0805
 4824SOL    HW124941   8.469   9.497   1.911  2.9353 -0.3157  1.3129
 4824SOL    HW224942   8.549   9.523   1.771 -3.8603  1.4645 -2.4566
 4825SOL     OW24943   8.914   0.813   2.124 -0.0019  0.1803  0.5436
 4825SOL    HW124944   8.919   0.902   2.077 -0.7227  0.3238  0.7424
 4825SOL    HW224945   8.952   0.742   2.065 -2.2189  0.1173 -0.8635
 4826SOL     OW24946   1.637   5.050   4.014 -0.0848 -0.3370  0.1607
 4826SOL    HW124947   1.727   5.014   4.034  0.4019  0.7826  0.0307
 4826SOL    HW224948   1.630   5.144   4.047 -1.3970 -0.5989  0.6786
 4827SOL     OW24949   8.693   5.892   0.377  0.0785  0.1210  0.4378
 4827SOL    HW124950   8.596   5.872   0.364 -0.0877  0.9621  0.3981
 4827SOL    HW224951   8.742   5.806   0.392 -0.3087 -0.5653 -1.9465
 4828SOL     OW24952   1.816   3.560   3.404  0.5504 -0.3902 -0.1934
 4828SOL    HW124953   1.835   3.474   3.452  1.3135  0.1227  0.4192
 4828SOL    HW224954   1.869   3.634   3.445  2.2474 -0.1871 -2.6880
 4829SOL     OW24955   4.025   8.639   1.431 -0.6283  0.0201 -0.1530
 4829SOL    HW124956   4.093   8.626   1.360 -1.0146 -2.8583 -0.0759
 4829SOL    HW224957   3.934   8.641   1.390 -0.5801  4.2118 -0.2988
 4830SOL     OW24958   3.324   7.640   4.023 -0.4055 -0.0519 -0.0030
 4830SOL    HW124959   3.387   7.610   3.951  0.4792  0.6060  0.4819
 4830SOL    HW224960   3.376   7.663   4.105 -1.2338  1.0821  0.2096
 4831SOL     OW24961   3.625   1.214   0.689 -0.0838 -0.0825 -0.0021
 4831SOL    HW124962   3.669   1.267   0.616 -1.0413  1.3364  0.4367
 4831SOL    HW224963   3.550   1.160   0.650 -1.2456  1.4399  0.0478
 4832SOL     OW24964   0.286   6.936   1.497 -0.1830 -0.2641  1.1425
 4832SOL    HW124965   0.265   7.003   1.569  0.8285  1.4520 -0.1372
 4832SOL    HW224966   0.347   6.977   1.430 -0.9732 -1.9285 -0.6231
 4833SOL     OW24967   3.150   6.394   1.087 -0.3844  0.1855 -0.2234
 4833SOL    HW124968   3.068   6.342   1.114  0.3145  0.0160  1.6746
 4833SOL    HW224969   3.228   6.332   1.082  0.1217  0.7629  0.4352
 4834SOL     OW24970   3.505   1.334   2.100 -0.0267  1.0640  0.6047
 4834SOL    HW124971   3.457   1.345   2.186 -0.4232  2.8427  0.1660
 4834SOL    HW224972   3.569   1.257   2.107 -1.2375  0.1597  1.9371
 4835SOL     OW24973   8.366   1.245   0.015  0.3282 -0.2839  0.4232
 4835SOL    HW124974   8.432   1.250   0.089  0.1948 -0.0609  0.5292
 4835SOL    HW224975   8.300   1.172   0.033 -0.5966  0.7410  1.2695
 4836SOL     OW24976   0.731   9.378   2.098  0.6384  0.1320  0.3175
 4836SOL    HW124977   0.683   9.443   2.039  2.2253 -0.8508 -2.1607
 4836SOL    HW224978   0.824   9.411   2.115  1.4530 -1.4113 -0.9469
 4837SOL     OW24979   4.627   9.563   0.448  0.0804 -0.3734  0.1185
 4837SOL    HW124980   4.651   9.580   0.353  0.5058 -2.1229 -0.0968
 4837SOL    HW224981   4.711   9.546   0.501 -0.3614 -3.0047  0.0579
 4838SOL     OW24982   1.771   4.418   1.763  0.1051 -0.2084 -0.1695
 4838SOL    HW124983   1.744   4.404   1.858  2.2468 -0.7361  0.3936
 4838SOL    HW224984   1.853   4.476   1.759  0.6341 -1.0180 -1.6081
 4839SOL     OW24985   2.758   5.082   2.227 -0.2641 -0.0463  0.0367
 4839SOL    HW124986   2.772   4.989   2.263 -0.1118 -0.0345  0.0095
 4839SOL    HW224987   2.843   5.114   2.185 -0.7644 -0.5075 -1.3731
 4840SOL     OW24988   1.381   2.317   1.200  0.5316 -0.1633  0.0940
 4840SOL    HW124989   1.314   2.345   1.131  1.2464 -0.0387 -0.5639
 4840SOL    HW224990   1.368   2.370   1.283 -0.2316 -0.1894 -0.0072
 4841SOL     OW24991   8.208   8.978   2.596 -0.1134  0.1633  0.2775
 4841SOL    HW124992   8.179   9.069   2.624  1.0930  0.9781 -1.0430
 4841SOL    HW224993   8.135   8.913   2.613 -1.8813  1.7873 -0.9777
 4842SOL     OW24994   3.684   1.586   2.781  0.3262 -0.2325  0.2689
 4842SOL    HW124995   3.642   1.531   2.708  0.2223  2.3982 -1.7126
 4842SOL    HW224996   3.772   1.622   2.750  2.5237 -2.8009  3.1481
 4843SOL     OW24997   8.016   6.883   2.582  0.1447  0.6274 -0.4307
 4843SOL    HW124998   8.061   6.959   2.535  0.5052 -0.0701 -1.2209
 4843SOL    HW224999   8.082   6.835   2.639 -0.2974  1.4843  0.8373
 4844SOL     OW25000   1.242   8.509   2.661  0.0171 -0.3276  0.3289
 4844SOL    HW125001   1.210   8.452   2.737 -1.8765 -0.9636 -0.8973
 4844SOL    HW225002   1.218   8.604   2.678 -1.0343 -0.5671  0.2163
 4845SOL     OW25003   1.285   5.303   3.354  0.2820  0.5713 -0.2135
 4845SOL    HW125004   1.235   5.353   3.284  0.8272  4.2727  1.8925
 4845SOL    HW225005   1.222   5.276   3.427  0.2040 -0.8284 -0.7824
 4846SOL     OW25006   8.640   6.029   2.980 -0.2642 -0.0812  0.8068
 4846SOL    HW125007   8.685   5.944   2.954 -1.1624  0.2377 -1.9899
 4846SOL    HW225008   8.588   6.015   3.064 -2.0226 -2.9157 -0.6531
 4847SOL     OW25009   3.497   8.292   3.746 -0.0103  0.1043  0.2513
 4847SOL    HW125010   3.399   8.293   3.724 -0.1192 -0.0914  0.7183
 4847SOL    HW225011   3.509   8.312   3.843  0.2803 -2.0934  0.6855
 4848SOL     OW25012   6.307   7.079   1.989 -0.1904 -0.3755  0.0384
 4848SOL    HW125013   6.360   7.068   2.074 -1.0607  0.6810  0.7402
 4848SOL    HW225014   6.231   7.014   1.989 -0.4390 -0.0932  0.2878
 4849SOL     OW25015   8.599   8.929   3.238  0.0125 -0.6148 -0.3432
 4849SOL    HW125016   8.588   8.996   3.164  0.4685 -0.5143 -0.3178
 4849SOL    HW225017   8.510   8.912   3.281  0.0029  0.4109  0.0378
 4850SOL     OW25018   2.322   6.780   2.021 -0.6981  0.5068  0.2206
 4850SOL    HW125019   2.329   6.846   2.095  2.9730  0.9942 -0.4335
 4850SOL    HW225020   2.401   6.718   2.025 -1.5205 -0.7275 -2.0575
 4851SOL     OW25021   2.399   7.243   3.694 -0.1452  0.4512 -0.2478
 4851SOL    HW125022   2.415   7.162   3.750 -0.5145  0.4269 -0.1731
 4851SOL    HW225023   2.353   7.216   3.609  0.2907  0.5043 -0.4999
 4852SOL     OW25024   4.331   6.997   2.081  0.3153  0.7415  0.3489
 4852SOL    HW125025   4.243   6.951   2.095  1.3204 -1.6918 -1.0153
 4852SOL    HW225026   4.330   7.043   1.991 -1.0023  4.2559  2.0675
 4853SOL     OW25027   2.528   9.963   1.577  0.3140 -0.1094  0.1972
 4853SOL    HW125028   2.430   9.964   1.559  0.4682  2.1074 -0.6996
 4853SOL    HW225029   2.577   9.946   1.492  0.7199 -0.8475  0.5777
 4854SOL     OW25030   0.536   3.135   2.304  0.3625  0.2269  0.2107
 4854SOL    HW125031   0.634   3.121   2.317  0.5345 -0.0628 -1.2279
 4854SOL    HW225032   0.522   3.195   2.225 -0.6018  0.9290  0.9126
 4855SOL     OW25033   7.525   9.869   3.290  0.7333 -0.1573  0.4227
 4855SOL    HW125034   7.575   9.946   3.329  1.9029  0.1196 -1.5446
 4855SOL    HW225035   7.579   9.829   3.216 -1.0099 -1.2467 -0.2866
 4856SOL     OW25036   3.469   2.929   3.507  0.7116  0.3064 -0.2660
 4856SOL    HW125037   3.415   2.859   3.554  0.4474  0.9779  0.4548
 4856SOL    HW225038   3.565   2.903   3.509  0.3813 -1.1130 -1.9343
 4857SOL     OW25039   9.862   5.107   3.723 -0.1607 -0.5803 -0.6258
 4857SOL    HW125040   9.927   5.134   3.652 -0.8145 -3.8176 -2.5539
 4857SOL    HW225041   9.911   5.059   3.796  0.5209  2.8065  1.2863
 4858SOL     OW25042   9.623   9.666   3.077 -0.3208  0.1321  0.1753
 4858SOL    HW125043   9.523   9.674   3.073 -0.4813 -1.8095  0.0031
 4858SOL    HW225044   9.655   9.698   3.166 -1.1940 -0.1287  0.5885
 4859SOL     OW25045   3.797   8.606   0.168 -0.0094 -0.0355 -0.0234
 4859SOL    HW125046   3.772   8.541   0.239 -0.3139  0.0459 -0.0551
 4859SOL    HW225047   3.896   8.605   0.156 -0.2245 -2.6728 -2.0876
 4860SOL     OW25048   3.420   1.487   1.099  0.3519 -0.0108  0.2053
 4860SOL    HW125049   3.365   1.565   1.128  0.3619 -0.5272  1.6781
 4860SOL    HW225050   3.499   1.478   1.160  0.7683 -0.7039 -0.4310
 4861SOL     OW25051   8.378   8.227   3.929  0.0675 -0.4279 -0.4916
 4861SOL    HW125052   8.351   8.133   3.906 -1.8434  0.2559 -1.1111
 4861SOL    HW225053   8.365   8.242   4.027 -0.6053 -0.4982 -0.5690
 4862SOL     OW25054   4.296   7.446   1.118  0.0896  0.0933  0.2125
 4862SOL    HW125055   4.371   7.467   1.182  0.1880  0.3540  0.0104
 4862SOL    HW225056   4.332   7.444   1.025  0.2490 -1.7564  0.2990
 4863SOL     OW25057   3.480   9.223   3.809 -0.0158 -0.8330 -0.2714
 4863SOL    HW125058   3.470   9.124   3.796  0.0232 -0.7268 -1.1926
 4863SOL    HW225059   3.485   9.267   3.719 -0.8078  0.0780  0.1203
 4864SOL     OW25060   1.815   5.122   1.572 -0.2550  0.1670  0.2474
 4864SOL    HW125061   1.746   5.137   1.502 -0.3565  0.7520  0.4707
 4864SOL    HW225062   1.828   5.024   1.585  0.9424  0.0199 -1.7549
 4865SOL     OW25063   7.909   2.485   1.245 -0.4465 -0.2744 -0.1048
 4865SOL    HW125064   7.898   2.521   1.337 -1.5763 -0.3974 -0.1780
 4865SOL    HW225065   7.909   2.385   1.249 -3.9264 -0.3713 -0.5447
 4866SOL     OW25066   3.389   5.419   0.881 -0.5156  0.0510  0.3270
 4866SOL    HW125067   3.312   5.463   0.926 -0.1305  0.1169  0.9217
 4866SOL    HW225068   3.439   5.363   0.947  1.3968  1.9458  0.5458
 4867SOL     OW25069   0.108   7.095   0.320 -0.5361 -0.0193 -0.5346
 4867SOL    HW125070   0.068   7.005   0.304 -0.9120  0.2198 -0.9531
 4867SOL    HW225071   0.041   7.155   0.363 -0.0173 -0.1904  0.5356
 4868SOL     OW25072   2.273   0.819   1.592  0.0673  0.0023 -0.0202
 4868SOL    HW125073   2.304   0.860   1.677 -0.2771 -2.7731  1.5148
 4868SOL    HW225074   2.226   0.733   1.611 -2.3829  0.6223 -2.8250
 4869SOL     OW25075   3.760   8.422   0.739  0.2712  0.4487 -0.0444
 4869SOL    HW125076   3.710   8.391   0.659  0.5658 -1.4953  0.4883
 4869SOL    HW225077   3.841   8.474   0.710 -0.6996  1.4796 -0.9413
 4870SOL     OW25078   8.642   4.030   0.747 -0.3759 -0.1913 -0.5014
 4870SOL    HW125079   8.549   4.041   0.781 -0.9628 -1.7756 -1.5117
 4870SOL    HW225080   8.697   4.109   0.772 -1.9277  0.6363  0.3359
 4871SOL     OW25081   3.000   8.880   3.434 -0.6595  0.2391  0.3046
 4871SOL    HW125082   3.088   8.833   3.429  0.3969  2.1346  0.3742
 4871SOL    HW225083   3.015   8.974   3.465 -2.8507  0.2503  1.4101
 4872SOL     OW25084   8.350   9.843   1.522  0.3286 -0.4498  0.4403
 4872SOL    HW125085   8.253   9.866   1.528  0.4484  0.0833  0.3375
 4872SOL    HW225086   8.403   9.925   1.500  0.8796 -0.5965  1.2001
 4873SOL     OW25087   2.474   1.414   2.614  0.1320  0.4012 -0.5654
 4873SOL    HW125088   2.390   1.463   2.588  0.1485  0.6811 -0.0891
 4873SOL    HW225089   2.496   1.434   2.709  0.0939 -0.6100 -0.3423
 4874SOL     OW25090   7.002   7.796   2.102 -0.2985 -0.3849 -0.0659
 4874SOL    HW125091   6.986   7.711   2.051 -0.4813  0.2116 -0.9989
 4874SOL    HW225092   7.074   7.781   2.169  0.2659 -1.0426 -0.8131
 4875SOL     OW25093   0.601   2.851   0.957 -0.0399 -0.3272  0.0071
 4875SOL    HW125094   0.521   2.859   1.017  0.7549 -1.5642  1.2774
 4875SOL    HW225095   0.580   2.789   0.881 -0.2535 -0.7636  0.4180
 4876SOL     OW25096   0.216   6.213   3.837 -0.0548 -0.0495  0.0590
 4876SOL    HW125097   0.238   6.297   3.787  0.0898 -0.0400  0.1386
 4876SOL    HW225098   0.299   6.160   3.852 -0.2228 -0.4593 -0.4423
 4877SOL     OW25099   8.351   6.456   3.835 -0.6361  0.0411  0.3477
 4877SOL    HW125100   8.295   6.381   3.868  0.6225 -1.0096  0.1405
 4877SOL    HW225101   8.317   6.486   3.746  0.1666 -1.7636 -0.5967
 4878SOL     OW25102   8.736   7.972   0.120 -0.2917  0.5054 -0.2873
 4878SOL    HW125103   8.720   8.052   0.177  1.2723 -0.1747  1.1619
 4878SOL    HW225104   8.705   7.890   0.168 -1.0152  0.1438 -1.3600
 4879SOL     OW25105   2.403   3.557   1.029 -0.4985  0.9991  0.5421
 4879SOL    HW125106   2.360   3.559   1.119 -0.5752  0.0743  0.5323
 4879SOL    HW225107   2.502   3.569   1.040 -0.1184 -2.1794  1.0437
 4880SOL     OW25108   4.121   9.477   0.013  0.3491  0.2313  0.1493
 4880SOL    HW125109   4.071   9.462  -0.072  0.2554  0.9859  0.0719
 4880SOL    HW225110   4.094   9.565   0.053  1.0435  0.2845  0.5021
 4881SOL     OW25111   2.357   7.387   1.197 -0.7785 -0.2719 -0.0263
 4881SOL    HW125112   2.412   7.315   1.156  0.5957 -0.1859  1.5980
 4881SOL    HW225113   2.266   7.350   1.220 -0.4073 -1.2316 -0.0605
 4882SOL     OW25114   4.872   0.664   2.366  0.1684  0.2031 -0.4365
 4882SOL    HW125115   4.838   0.638   2.456  1.2911 -0.2811 -0.1354
 4882SOL    HW225116   4.863   0.587   2.303  1.1076 -0.0909 -0.2293
 4883SOL     OW25117   0.373   0.004   3.775 -0.0151  0.5525 -0.2791
 4883SOL    HW125118   0.394  -0.090   3.801 -1.8345  0.1641 -0.1374
 4883SOL    HW225119   0.349   0.056   3.857 -0.5295  0.7272 -0.5359
 4884SOL     OW25120   2.488   4.480   1.224  0.3299 -0.7824  0.0626
 4884SOL    HW125121   2.513   4.558   1.282  0.1129 -1.9259  1.7048
 4884SOL    HW225122   2.428   4.419   1.274 -0.7326 -1.2508 -1.7552
 4885SOL     OW25123   0.617   2.133   0.062 -0.0506  0.4462  0.1700
 4885SOL    HW125124   0.585   2.221   0.028  2.0445  1.5055  0.8407
 4885SOL    HW225125   0.669   2.147   0.147  1.3402 -1.2901 -0.3647
 4886SOL     OW25126   0.220   1.308   3.109  0.1543 -0.2500  0.0077
 4886SOL    HW125127   0.151   1.298   3.181 -0.3126  0.6434 -0.3144
 4886SOL    HW225128   0.295   1.364   3.143 -0.1609  0.3392 -0.2693
 4887SOL     OW25129   3.326   5.807   0.945 -0.2926  0.2293 -0.2493
 4887SOL    HW125130   3.272   5.725   0.928 -0.3229 -0.1973  1.7896
 4887SOL    HW225131   3.333   5.860   0.860 -3.1565 -0.1419 -0.7949
 4888SOL     OW25132   8.339   2.888   0.048 -0.9493 -0.2803  0.1265
 4888SOL    HW125133   8.316   2.807  -0.006  0.4962 -1.4421  1.1771
 4888SOL    HW225134   8.390   2.859   0.129  0.5167  1.7784 -0.0240
 4889SOL     OW25135   9.815   5.222   2.221  0.5220  0.1186  0.0221
 4889SOL    HW125136   9.736   5.232   2.160 -0.4399  0.6074  1.3232
 4889SOL    HW225137   9.882   5.162   2.178 -0.5117 -0.2338 -1.1518
 4890SOL     OW25138   9.241   0.882   1.611  0.6549 -0.1574  0.0831
 4890SOL    HW125139   9.318   0.934   1.648  1.8749 -1.4043 -0.6885
 4890SOL    HW225140   9.263   0.850   1.519 -1.2126  0.3922 -0.5866
 4891SOL     OW25141   1.467   9.393   1.910 -0.3932  0.6054  0.1224
 4891SOL    HW125142   1.399   9.356   1.846  2.1601 -0.0128 -2.3608
 4891SOL    HW225143   1.534   9.446   1.859  0.4322  2.0495  2.6570
 4892SOL     OW25144   3.230   6.421   3.231  0.1349 -0.6397  0.3480
 4892SOL    HW125145   3.157   6.370   3.274 -0.7143  1.3388  1.3204
 4892SOL    HW225146   3.195   6.469   3.151  0.5457 -0.3065  0.3629
 4893SOL     OW25147   0.852   5.946   2.088 -0.3216 -0.1379 -0.4328
 4893SOL    HW125148   0.872   5.982   2.179  0.0838 -2.2160  0.3312
 4893SOL    HW225149   0.928   5.968   2.026 -0.9417  1.9376 -0.4862
 4894SOL     OW25150   8.173   8.933   2.929 -0.1409  0.8230  0.4952
 4894SOL    HW125151   8.209   8.997   2.997 -0.5985  1.4837  0.1215
 4894SOL    HW225152   8.095   8.975   2.882 -0.0180  0.2498 -0.2227
 4895SOL     OW25153   6.727   8.092   1.633  0.3523 -0.5952  0.0368
 4895SOL    HW125154   6.639   8.096   1.681  0.8864  1.0309  0.8954
 4895SOL    HW225155   6.711   8.099   1.534 -0.7345 -3.6824 -0.0655
 4896SOL     OW25156   1.012   4.806   2.697  0.1452 -0.1186  0.0411
 4896SOL    HW125157   0.932   4.749   2.677 -0.7584  1.0685  0.2109
 4896SOL    HW225158   1.000   4.850   2.786  1.0079  0.0448  0.0802
 4897SOL     OW25159   5.211   8.958   1.425  0.3041  0.0465  0.1928
 4897SOL    HW125160   5.226   9.054   1.448 -0.1104 -0.0443  0.8669
 4897SOL    HW225161   5.164   8.913   1.501  0.1082 -0.5843 -0.2990
 4898SOL     OW25162   9.833   5.330   0.086  0.4710 -0.0527 -0.4484
 4898SOL    HW125163   9.814   5.236   0.112  0.7584  0.4141  1.5594
 4898SOL    HW225164   9.747   5.382   0.085  0.6497  0.3344  1.4012
 4899SOL     OW25165   3.594   1.617   0.593  0.4832 -0.3212  0.3091
 4899SOL    HW125166   3.574   1.520   0.580  0.9233 -0.2979 -0.5910
 4899SOL    HW225167   3.639   1.631   0.681 -1.1419 -0.7078  1.2265
 4900SOL     OW25168   9.239   3.721   1.005 -0.0707 -0.6337  0.4328
 4900SOL    HW125169   9.293   3.644   0.970 -0.4568 -1.1267  0.9300
 4900SOL    HW225170   9.159   3.687   1.053  0.4974  0.0428  1.8723
 4901SOL     OW25171   2.354   4.797   3.352 -0.2138  0.1635 -0.4272
 4901SOL    HW125172   2.309   4.744   3.424  0.7618  0.0299  0.0939
 4901SOL    HW225173   2.450   4.771   3.347  0.5134  2.5705  0.5023
 4902SOL     OW25174   9.513   2.441   0.659 -0.4213 -0.4281  0.0051
 4902SOL    HW125175   9.517   2.414   0.563 -0.0672 -0.6147  0.0722
 4902SOL    HW225176   9.604   2.470   0.689 -1.0898  2.3839 -0.5299
 4903SOL     OW25177   0.031   3.738   0.457  0.3961 -0.3386  0.4359
 4903SOL    HW125178   0.054   3.732   0.554 -2.8672 -0.4367  1.2700
 4903SOL    HW225179  -0.006   3.829   0.437 -0.2704 -0.7825 -0.4062
 4904SOL     OW25180   3.235   8.907   0.005  0.3671 -0.1897 -0.2210
 4904SOL    HW125181   3.161   8.974   0.000  1.1929  0.7659  0.2938
 4904SOL    HW225182   3.298   8.931   0.079  1.7223 -0.4367 -1.2608
 4905SOL     OW25183   1.792   1.989   1.077  0.5504  0.4156 -0.9410
 4905SOL    HW125184   1.781   1.893   1.050 -0.9990 -0.1905  1.6650
 4905SOL    HW225185   1.721   2.044   1.032 -0.0778 -0.0653 -0.5500
 4906SOL     OW25186   9.067   8.279   3.776 -0.1525 -0.2527  0.3202
 4906SOL    HW125187   9.064   8.188   3.817 -0.5398 -1.2339 -1.8331
 4906SOL    HW225188   9.024   8.277   3.685  3.7689  1.0624 -1.6672
 4907SOL     OW25189   0.052   6.829   1.392  0.5669 -0.3628  0.6818
 4907SOL    HW125190   0.134   6.876   1.424 -0.4489  1.9968 -0.0808
 4907SOL    HW225191  -0.028   6.885   1.411 -0.5385 -1.1011 -1.6310
 4908SOL     OW25192   2.294   3.678   3.302 -0.3195 -0.2272  0.8250
 4908SOL    HW125193   2.211   3.723   3.268 -0.1762  0.8927  1.9166
 4908SOL    HW225194   2.272   3.625   3.384 -0.1106 -0.6070  0.6381
 4909SOL     OW25195   7.772   4.837   2.609  0.2653  0.1480 -0.0465
 4909SOL    HW125196   7.799   4.883   2.693 -1.4018  0.5912  0.2672
 4909SOL    HW225197   7.793   4.740   2.615 -0.2990  0.0897  1.0850
 4910SOL     OW25198   5.298   8.203   2.859 -0.0363  0.1080  0.5768
 4910SOL    HW125199   5.261   8.115   2.888  0.6734  0.4224  2.5855
 4910SOL    HW225200   5.242   8.277   2.898 -1.4709  0.5631 -2.2625
 4911SOL     OW25201   8.353   4.743   3.212 -0.7061 -0.2876  0.4033
 4911SOL    HW125202   8.409   4.798   3.150 -1.6482  0.0149 -0.1779
 4911SOL    HW225203   8.343   4.792   3.299 -2.4174  0.9601 -0.4757
 4912SOL     OW25204   9.427   1.691   1.050  0.1991 -0.3266 -0.1610
 4912SOL    HW125205   9.526   1.685   1.060  0.1804  1.1858  1.1177
 4912SOL    HW225206   9.386   1.715   1.138 -1.2597 -0.4330 -0.7945
 4913SOL     OW25207   1.161   3.220   1.328  0.6376 -0.9146  0.2477
 4913SOL    HW125208   1.127   3.297   1.274 -0.7962 -0.6034  1.5754
 4913SOL    HW225209   1.252   3.242   1.363  0.5069 -0.0798  0.0742
 4914SOL     OW25210   2.459   8.489   3.437 -0.2364 -0.1513  0.4393
 4914SOL    HW125211   2.392   8.548   3.483 -1.7878 -1.5544  0.0024
 4914SOL    HW225212   2.435   8.393   3.451  1.5291 -0.6732  0.0217
 4915SOL     OW25213   9.380   1.517   2.140 -0.0052 -0.2938 -0.2663
 4915SOL    HW125214   9.433   1.554   2.063  1.0043 -0.6156  0.2570
 4915SOL    HW225215   9.391   1.577   2.219 -2.3265  0.8969 -0.8008
 4916SOL     OW25216   0.274   0.681   2.679  0.1561  0.0326 -0.6516
 4916SOL    HW125217   0.251   0.631   2.595 -1.5530  0.0763 -0.2312
 4916SOL    HW225218   0.257   0.778   2.665  0.2135  0.0812 -0.3738
 4917SOL     OW25219   9.842   5.457   0.965 -0.4715  0.6036  0.2308
 4917SOL    HW125220   9.760   5.407   0.937  0.4723  1.3824 -4.2236
 4917SOL    HW225221   9.819   5.555   0.974 -0.5160  0.5098  1.1857
 4918SOL     OW25222   0.184   9.919   1.817  0.0367  0.0842 -0.3574
 4918SOL    HW125223   0.097   9.965   1.831 -1.1109 -1.6942 -1.5739
 4918SOL    HW225224   0.200   9.904   1.720  1.8131  0.5691 -0.1711
 4919SOL     OW25225   8.206   8.506   1.517  0.3530  0.1909 -0.3821
 4919SOL    HW125226   8.153   8.590   1.532  2.0439  1.1626  0.3429
 4919SOL    HW225227   8.144   8.430   1.499 -1.2306  1.5136 -0.6369
 4920SOL     OW25228   8.182   5.442   2.030  0.0961 -0.5376 -0.0225
 4920SOL    HW125229   8.099   5.454   2.083 -0.4141 -4.2301  0.1422
 4920SOL    HW225230   8.159   5.435   1.933  0.4769  0.7831 -0.2179
 4921SOL     OW25231   1.953   3.156   2.288  0.1305  0.1080 -0.4893
 4921SOL    HW125232   1.913   3.065   2.299 -2.0246  0.9306 -1.2514
 4921SOL    HW225233   1.996   3.162   2.198  0.1132 -0.1076 -0.5133
 4922SOL     OW25234   2.477   2.149   0.431 -0.0423 -0.4834 -0.1789
 4922SOL    HW125235   2.380   2.131   0.416 -0.1400 -1.0107  1.0562
 4922SOL    HW225236   2.531   2.108   0.357 -0.8945  1.6326 -2.0449
 4923SOL     OW25237   1.891   6.200   1.397 -0.1406 -0.8063 -0.7319
 4923SOL    HW125238   1.918   6.255   1.476 -0.6440  1.4930 -2.1235
 4923SOL    HW225239   1.914   6.104   1.414  2.5820  0.0699  0.9423
 4924SOL     OW25240   2.224   6.783   0.798 -0.1642  0.3777  0.0102
 4924SOL    HW125241   2.273   6.834   0.726  0.8100 -0.0911  0.3311
 4924SOL    HW225242   2.214   6.687   0.770  0.3009  0.1735  0.5395
 4925SOL     OW25243   8.907   2.652   3.921  0.0674 -0.0409 -0.6570
 4925SOL    HW125244   8.927   2.647   4.018 -0.3765 -1.5033 -0.6292
 4925SOL    HW225245   8.979   2.607   3.869 -0.6705 -1.0106 -0.8641
 4926SOL     OW25246   8.081   2.381   2.640 -0.5887 -0.5575 -0.3729
 4926SOL    HW125247   8.074   2.463   2.697  0.0894 -2.0683  1.9638
 4926SOL    HW225248   8.177   2.369   2.613 -0.7725 -0.3097 -1.1321
 4927SOL     OW25249   3.905   8.211   3.088 -0.3740  0.0824  0.4605
 4927SOL    HW125250   3.957   8.231   3.005  1.1104  0.2578  1.4073
 4927SOL    HW225251   3.882   8.114   3.091 -0.5322  0.0973 -0.1940
 4928SOL     OW25252   8.870   8.484   3.839  0.5915  0.3652  0.0706
 4928SOL    HW125253   8.936   8.409   3.831  1.0223  0.7173  0.3129
 4928SOL    HW225254   8.907   8.565   3.794  0.9313  0.9668  1.4054
 4929SOL     OW25255   0.469   8.992   0.451 -0.1225  0.0888  0.5360
 4929SOL    HW125256   0.564   8.981   0.479  0.3070  0.4344 -0.7299
 4929SOL    HW225257   0.437   8.908   0.407  0.4184  0.8196 -1.3191
 4930SOL     OW25258   4.233   9.099   3.770 -0.6244 -0.6328  0.4844
 4930SOL    HW125259   4.162   9.082   3.702  0.8710 -0.4625 -1.1670
 4930SOL    HW225260   4.226   9.193   3.803 -0.6665 -0.3644 -0.2821
 4931SOL     OW25261   8.739   9.928   1.809 -0.1993  0.1547 -0.4324
 4931SOL    HW125262   8.687   9.845   1.789 -1.6517  0.7670  0.8160
 4931SOL    HW225263   8.800   9.911   1.886 -0.2486  0.1540 -0.3936
 4932SOL     OW25264   9.857   7.115   2.110  0.4833 -0.0622  0.3964
 4932SOL    HW125265   9.785   7.111   2.040  1.0612  1.3912 -0.2947
 4932SOL    HW225266   9.818   7.089   2.199 -0.7791  0.2294 -0.0584
 4933SOL     OW25267   2.005   4.593   3.818  0.3095  0.1778  0.6710
 4933SOL    HW125268   1.937   4.648   3.866  0.0863  0.3452  0.1631
 4933SOL    HW225269   1.968   4.501   3.801 -0.6939  0.9661 -1.6641
 4934SOL     OW25270   9.185   4.692   1.247  0.3053  0.2689 -0.2085
 4934SOL    HW125271   9.238   4.701   1.163 -0.8596 -0.8292 -1.0704
 4934SOL    HW225272   9.246   4.700   1.326  1.4138  1.2466 -1.1424
 4935SOL     OW25273   1.509   5.411   0.737 -0.4491 -0.1997 -0.9651
 4935SOL    HW125274   1.532   5.361   0.654 -0.3673 -0.8815 -0.5405
 4935SOL    HW225275   1.532   5.507   0.726  0.5856 -0.4855 -1.3376
 4936SOL     OW25276   2.081   4.243   0.923 -0.4228 -0.0326 -0.2399
 4936SOL    HW125277   2.003   4.269   0.980 -1.7635 -0.4203 -1.8472
 4936SOL    HW225278   2.058   4.161   0.871  0.5399  0.6263 -1.7570
 4937SOL     OW25279   8.712   6.630   3.927  0.1975 -0.5810  0.2528
 4937SOL    HW125280   8.768   6.641   3.845 -0.9887  3.5865 -0.1153
 4937SOL    HW225281   8.618   6.610   3.901 -0.5975  2.7025  0.4662
 4938SOL     OW25282   9.893   7.151   0.755  0.3207  0.1098  0.9764
 4938SOL    HW125283   9.910   7.161   0.853 -2.2508 -0.1253  1.4603
 4938SOL    HW225284   9.877   7.055   0.733 -2.1524  0.5165  0.8563
 4939SOL     OW25285   8.771   8.033   3.897 -0.1917  0.7702 -0.4424
 4939SOL    HW125286   8.717   8.115   3.881 -0.0970  1.3393  1.9047
 4939SOL    HW225287   8.754   8.000   3.990  0.5955 -1.2488 -0.9939
 4940SOL     OW25288   3.795   6.276   1.929 -0.1022  0.0151  0.4697
 4940SOL    HW125289   3.706   6.311   1.901 -0.9976 -3.3657 -1.2700
 4940SOL    HW225290   3.846   6.244   1.848  1.7833 -0.0672  1.6499
 4941SOL     OW25291   0.179   3.564   3.811  0.3230 -0.2170 -0.2765
 4941SOL    HW125292   0.163   3.495   3.882 -1.1789 -0.4793 -0.8451
 4941SOL    HW225293   0.274   3.595   3.815 -0.0697  0.6918  2.6315
 4942SOL     OW25294   4.082   1.908   0.013 -0.4664 -0.0720 -0.0249
 4942SOL    HW125295   4.067   1.852  -0.069 -3.0246 -1.5883  1.4258
 4942SOL    HW225296   4.147   1.862   0.073  0.3667  0.3906 -0.5561
 4943SOL     OW25297   3.317   7.961   1.066  0.1966  0.3956  0.1356
 4943SOL    HW125298   3.340   8.033   1.131 -1.5181  0.3898  0.7669
 4943SOL    HW225299   3.317   7.873   1.114  0.4810  0.2000 -0.2248
 4944SOL     OW25300   3.058   9.113   0.003 -0.0615 -0.3214 -0.5881
 4944SOL    HW125301   3.104   9.197  -0.027  1.9578 -0.4560  2.0095
 4944SOL    HW225302   3.017   9.128   0.093 -0.4016 -1.8777 -0.4760
 4945SOL     OW25303   8.484   7.570   3.330  0.9418 -0.4824 -0.0800
 4945SOL    HW125304   8.444   7.622   3.406 -0.1717  0.1580 -1.0892
 4945SOL    HW225305   8.545   7.499   3.367 -0.5397 -0.9890  1.4796
 4946SOL     OW25306   9.024   5.102   0.418 -0.2476 -0.0683  0.4213
 4946SOL    HW125307   8.938   5.052   0.417 -0.2679 -0.0439 -1.7828
 4946SOL    HW225308   9.088   5.057   0.481 -0.7070 -2.1038 -0.5322
 4947SOL     OW25309   9.380   5.850   0.882  0.0870  0.8057  0.4745
 4947SOL    HW125310   9.337   5.884   0.798 -1.3290  1.4215  1.4268
 4947SOL    HW225311   9.479   5.850   0.871 -0.1053 -0.2708 -1.6503
 4948SOL     OW25312   8.048   8.595   0.749 -0.4481 -0.0529 -0.0048
 4948SOL    HW125313   7.986   8.518   0.737 -0.4744 -0.1327  0.6219
 4948SOL    HW225314   8.039   8.632   0.842  2.4951 -1.8704  1.0876
 4949SOL     OW25315   2.182   3.226   1.645  0.1102  0.5131  0.7120
 4949SOL    HW125316   2.254   3.209   1.714 -0.2503 -0.3739  0.8736
 4949SOL    HW225317   2.149   3.320   1.655  0.4140  0.5530  1.4249
 4950SOL     OW25318   3.703   4.003   1.640  0.5135 -0.3646 -0.1610
 4950SOL    HW125319   3.715   4.019   1.738  1.0542  0.2651 -0.3257
 4950SOL    HW225320   3.636   3.930   1.626  0.3510 -0.3813  0.6736
 4951SOL     OW25321   4.764   6.672   2.516  0.2525  0.0802  0.0591
 4951SOL    HW125322   4.678   6.691   2.562  0.0330  1.2557 -0.8349
 4951SOL    HW225323   4.840   6.703   2.573  0.0746 -0.5052  0.6227
 4952SOL     OW25324   2.486   8.632   0.247 -0.0702  0.2062  0.2148
 4952SOL    HW125325   2.450   8.649   0.338 -0.2171 -0.8129  0.3493
 4952SOL    HW225326   2.575   8.587   0.254  1.9498  3.8843 -0.0846
 4953SOL     OW25327   1.626   9.668   0.279  0.1242  0.8162 -0.1318
 4953SOL    HW125328   1.543   9.629   0.320 -0.1736  0.7709 -0.7752
 4953SOL    HW225329   1.674   9.722   0.348  0.4078 -0.4642  0.7070
 4954SOL     OW25330   2.791   2.358   1.834 -0.4694  0.5754  0.4480
 4954SOL    HW125331   2.852   2.368   1.756 -1.7433  2.1138 -0.3724
 4954SOL    HW225332   2.786   2.444   1.884  0.8980 -0.5867  2.6845
 4955SOL     OW25333   2.354   2.915   1.237  0.4815 -0.0372 -0.3619
 4955SOL    HW125334   2.404   2.896   1.322 -0.3313  1.3586  0.4358
 4955SOL    HW225335   2.267   2.866   1.238  0.4735 -0.0232 -0.4021
 4956SOL     OW25336   1.177   6.435   1.406 -0.4871 -0.1328  0.5676
 4956SOL    HW125337   1.220   6.413   1.318  1.1743  0.5764  1.1971
 4956SOL    HW225338   1.081   6.404   1.404 -0.8122  0.8706 -1.8955
 4957SOL     OW25339   0.238   1.631   3.687  0.1001 -0.4111  0.6715
 4957SOL    HW125340   0.289   1.629   3.773  0.9721  2.9871  0.3109
 4957SOL    HW225341   0.298   1.601   3.613 -0.3499 -2.3562  1.0515
 4958SOL     OW25342   2.500   9.786   3.975  0.2192  0.1436  0.1839
 4958SOL    HW125343   2.494   9.865   3.914 -0.4725 -0.2297 -0.2344
 4958SOL    HW225344   2.571   9.724   3.943 -0.0781 -0.0059 -0.1886
 4959SOL     OW25345   9.120   6.692   3.685 -0.0647 -0.4746 -0.0766
 4959SOL    HW125346   9.178   6.655   3.612  0.3906 -0.8681  0.4848
 4959SOL    HW225347   9.127   6.634   3.766 -0.8319 -0.2235  0.1736
 4960SOL     OW25348   2.629   0.970   0.142  0.2489 -0.4586 -0.2140
 4960SOL    HW125349   2.560   1.030   0.183 -0.7047  0.0581 -2.5037
 4960SOL    HW225350   2.640   0.888   0.199 -0.9186  0.2822  1.1338
 4961SOL     OW25351   8.475   7.369   2.458  0.1716 -0.6353 -0.1193
 4961SOL    HW125352   8.396   7.340   2.405 -0.5779  1.6224 -0.2939
 4961SOL    HW225353   8.547   7.399   2.396  0.1029 -0.0426  0.0836
 4962SOL     OW25354   4.323   7.900   1.789 -0.1329 -0.1129 -0.0818
 4962SOL    HW125355   4.366   7.835   1.852  1.0319  1.0758  0.3625
 4962SOL    HW225356   4.392   7.939   1.728 -0.6416  1.4834  0.3493
 4963SOL     OW25357   0.016   5.054   2.162  0.0420  0.2932  0.0797
 4963SOL    HW125358   0.059   4.965   2.180  2.5078  1.6947  1.3886
 4963SOL    HW225359   0.080   5.127   2.185 -2.1010  2.4432 -0.5914
 4964SOL     OW25360   2.562   9.632   3.616  0.1233  0.4265  0.5394
 4964SOL    HW125361   2.499   9.568   3.571  1.8451 -1.4191  0.6653
 4964SOL    HW225362   2.608   9.687   3.546 -4.1480  4.3656  0.5913
 4965SOL     OW25363   7.668   1.800   0.665  0.1759  0.4151 -0.1881
 4965SOL    HW125364   7.754   1.753   0.687 -1.0868 -1.3678  1.1359
 4965SOL    HW225365   7.646   1.865   0.737 -0.5549 -0.5582  0.4867
 4966SOL     OW25366   2.440   3.195   1.758 -0.0562 -0.5309  0.7022
 4966SOL    HW125367   2.515   3.141   1.721  0.1727 -1.4307  2.3983
 4966SOL    HW225368   2.451   3.291   1.732  1.8428 -0.6016  1.1732
 4967SOL     OW25369   3.397   3.668   2.039  0.2911 -0.3696  0.2703
 4967SOL    HW125370   3.389   3.612   2.121  0.2535 -1.5731 -0.5372
 4967SOL    HW225371   3.468   3.631   1.979  0.7198  0.8297  0.0079
 4968SOL     OW25372   2.343   6.370   2.056  0.1996 -0.0619 -0.2032
 4968SOL    HW125373   2.245   6.386   2.056 -0.1145 -1.9394 -0.4236
 4968SOL    HW225374   2.385   6.416   2.134 -0.7029  1.5637 -0.6609
 4969SOL     OW25375   8.985   0.533   2.555  0.3749  0.3738 -0.5120
 4969SOL    HW125376   8.954   0.446   2.517  0.5594  0.3735 -0.6670
 4969SOL    HW225377   9.064   0.566   2.503  1.9934 -0.6970  1.1869
 4970SOL     OW25378   3.655   1.718   0.327  0.0850 -0.3366  0.4342
 4970SOL    HW125379   3.623   1.653   0.397  0.4575 -1.3922 -0.3608
 4970SOL    HW225380   3.753   1.706   0.314 -0.1024 -0.5903 -0.7449
 4971SOL     OW25381   2.725   4.626   3.563  0.7664  0.1052 -0.1597
 4971SOL    HW125382   2.802   4.581   3.519  1.9387  1.8410  0.0786
 4971SOL    HW225383   2.683   4.690   3.498  0.1253 -0.1237  0.0257
 4972SOL     OW25384   7.313   7.141   2.115  0.5595 -0.2807  0.5037
 4972SOL    HW125385   7.280   7.228   2.077 -0.3462  0.0625  2.0405
 4972SOL    HW225386   7.395   7.112   2.065 -1.1363 -0.3606 -2.3502
 4973SOL     OW25387   0.899   9.000   0.733 -0.5926  0.0017  0.3326
 4973SOL    HW125388   0.908   8.980   0.831  0.1221 -1.5768 -0.0414
 4973SOL    HW225389   0.985   8.980   0.687  0.6577  5.3343  0.0934
 4974SOL     OW25390   1.673   9.857   1.521 -0.3486  0.1666 -0.0089
 4974SOL    HW125391   1.762   9.811   1.517 -0.3070  0.1388  1.1018
 4974SOL    HW225392   1.684   9.953   1.496  0.1139  0.3242  0.7831
 4975SOL     OW25393   0.884   0.795   3.983  0.0529 -0.1301 -0.1008
 4975SOL    HW125394   0.786   0.794   3.962  0.2297 -1.2500 -0.8900
 4975SOL    HW225395   0.904   0.724   4.051  0.7339 -1.6957 -1.8916
 4976SOL     OW25396   3.485   1.885   0.611 -0.0156 -0.2186 -0.0567
 4976SOL    HW125397   3.525   1.799   0.580 -2.5625 -1.3154 -0.3891
 4976SOL    HW225398   3.386   1.884   0.596 -0.2647  2.2630  1.1062
 4977SOL     OW25399   9.806   1.717   0.200  0.1444  0.0420  0.2104
 4977SOL    HW125400   9.806   1.632   0.148  0.6116 -1.4190  2.5274
 4977SOL    HW225401   9.714   1.755   0.202 -0.7858 -2.2335  2.0189
 4978SOL     OW25402   3.034   8.632   2.907 -0.5008  0.2535  0.6905
 4978SOL    HW125403   3.055   8.640   3.004  0.8409 -0.0805  0.4325
 4978SOL    HW225404   3.002   8.720   2.872  2.9450  1.5051  0.5179
 4979SOL     OW25405   3.446   3.112   0.874  0.0724  0.1058 -0.0065
 4979SOL    HW125406   3.482   3.047   0.808  0.2959 -1.3149  1.4870
 4979SOL    HW225407   3.368   3.161   0.835  0.7314 -0.1011 -1.6020
 4980SOL     OW25408   1.412   4.194   0.245 -0.4637 -0.3814 -0.6146
 4980SOL    HW125409   1.408   4.098   0.270  0.3697 -0.2992 -0.1445
 4980SOL    HW225410   1.340   4.245   0.293  0.9314 -0.2751  1.4167
 4981SOL     OW25411   7.731   8.503   3.717 -0.2288  0.2712  0.1080
 4981SOL    HW125412   7.638   8.478   3.691 -0.7530  0.3265  1.8709
 4981SOL    HW225413   7.748   8.598   3.693 -1.0311  0.6045  0.8287
 4982SOL     OW25414   3.198   7.981   3.421 -0.1281 -0.1675 -0.1612
 4982SOL    HW125415   3.210   8.055   3.355 -0.1783  0.4433  0.5172
 4982SOL    HW225416   3.266   7.990   3.493  1.0628 -1.8338 -1.0369
 4983SOL     OW25417   6.782   7.989   2.909  0.1805 -0.4764 -0.3344
 4983SOL    HW125418   6.691   7.976   2.870 -0.9647 -1.5701  2.6036
 4983SOL    HW225419   6.815   7.903   2.948  0.2532  1.0533  3.1586
 4984SOL     OW25420   8.659   0.348   1.595 -0.0482  0.1249 -0.0179
 4984SOL    HW125421   8.585   0.396   1.641  0.2811  1.0340 -0.4331
 4984SOL    HW225422   8.645   0.249   1.604 -1.3460  0.2906 -0.1832
 4985SOL     OW25423   4.523   2.852   1.659  0.4614 -0.1080 -0.1834
 4985SOL    HW125424   4.602   2.860   1.720  0.0667 -0.9343  0.4391
 4985SOL    HW225425   4.553   2.812   1.572  0.9634  0.7801 -0.4286
 4986SOL     OW25426   3.844   8.282   2.640  0.0531  0.2979  0.1937
 4986SOL    HW125427   3.828   8.272   2.542 -2.8392 -0.0572  0.6692
 4986SOL    HW225428   3.876   8.375   2.659  0.6403  0.3628 -1.0680
 4987SOL     OW25429   6.833   8.214   2.766 -0.1208 -0.1442 -0.2300
 4987SOL    HW125430   6.796   8.130   2.805  1.5458 -0.9845 -0.3988
 4987SOL    HW225431   6.906   8.250   2.825  0.3733  0.2169 -1.0451
 4988SOL     OW25432   4.179   4.356   0.276 -0.3787 -0.3640 -0.0776
 4988SOL    HW125433   4.242   4.318   0.344 -1.5840 -0.4763  1.0004
 4988SOL    HW225434   4.144   4.282   0.218 -0.9840 -0.5839  0.5608
 4989SOL     OW25435   9.529   5.560   3.541 -0.4795  0.0954 -0.0328
 4989SOL    HW125436   9.616   5.527   3.503 -0.1990  1.6820 -0.7849
 4989SOL    HW225437   9.454   5.530   3.483 -0.2766  0.3394 -0.4197
 4990SOL     OW25438   8.328   3.484   1.764  0.0231 -0.3387 -0.1446
 4990SOL    HW125439   8.410   3.470   1.820  1.3099  1.1685 -1.5823
 4990SOL    HW225440   8.248   3.454   1.815  1.2095  0.4037  2.2755
 4991SOL     OW25441   9.184   9.226   1.936  0.2511 -1.1200 -0.5787
 4991SOL    HW125442   9.166   9.147   1.995 -1.1502 -0.0143  0.5066
 4991SOL    HW225443   9.104   9.244   1.879 -0.0478  0.4585  0.3098
 4992SOL     OW25444   9.670   9.459   1.581  0.1604 -0.2486  0.2024
 4992SOL    HW125445   9.694   9.466   1.677  1.3595 -2.7226  0.1210
 4992SOL    HW225446   9.688   9.546   1.535 -1.9450  1.4534  2.5090
 4993SOL     OW25447   3.237   1.616   3.587  0.2955 -0.5022 -0.3302
 4993SOL    HW125448   3.225   1.697   3.644  0.7821 -0.7470  0.1315
 4993SOL    HW225449   3.149   1.569   3.576  0.0909 -0.1338 -0.2640
 4994SOL     OW25450   1.612   7.145   3.483 -0.2577 -0.2157 -0.4600
 4994SOL    HW125451   1.542   7.129   3.413  0.1872  0.2025 -1.0129
 4994SOL    HW225452   1.676   7.215   3.450 -0.6895  0.8000  0.8348
 4995SOL     OW25453   8.708   5.419   1.445  0.0734 -0.2118  0.1335
 4995SOL    HW125454   8.689   5.322   1.458  0.6208 -0.6614 -2.2061
 4995SOL    HW225455   8.629   5.473   1.474 -0.7485 -1.4369  0.2010
 4996SOL     OW25456   8.600   1.949   3.388  0.1562  0.2380  0.1021
 4996SOL    HW125457   8.614   1.975   3.484  1.7994  0.7684 -0.2681
 4996SOL    HW225458   8.515   1.990   3.354  1.0818  2.4952  0.4684
 4997SOL     OW25459   1.112   5.225   3.583  0.2030 -0.6878  0.3069
 4997SOL    HW125460   1.124   5.127   3.598  0.0512 -0.7905 -0.2411
 4997SOL    HW225461   1.138   5.275   3.666 -0.5624 -1.2462  0.8921
 4998SOL     OW25462   2.790   0.077   1.080 -0.1550 -0.2083 -0.0167
 4998SOL    HW125463   2.849   0.000   1.105  1.5611  0.2639 -2.5060
 4998SOL    HW225464   2.838   0.163   1.098 -0.0513  0.1769 -2.0421
 4999SOL     OW25465   8.666   4.298   2.740 -0.3956 -0.1356  0.1368
 4999SOL    HW125466   8.603   4.352   2.796  0.3039 -1.0890  1.8600
 4999SOL    HW225467   8.623   4.277   2.652 -1.2742  1.8724  0.0523
 5000SOL     OW25468   2.560   4.535   1.606  0.4100  0.5335  0.3331
 5000SOL    HW125469   2.624   4.565   1.677  0.2345  0.1410  0.6595
 5000SOL    HW225470   2.581   4.440   1.580 -0.3759  0.2174  0.8285
 5001SOL     OW25471   8.915   9.650   1.787 -0.3329  0.2967 -0.2557
 5001SOL    HW125472   8.985   9.680   1.853 -0.9244  1.6630 -0.2314
 5001SOL    HW225473   8.830   9.629   1.836  0.0803 -1.4814 -0.2722
 5002SOL     OW25474   9.484   9.179   1.349  0.6502 -0.2441  0.4599
 5002SOL    HW125475   9.507   9.180   1.446 -0.3812  1.2518  0.7022
 5002SOL    HW225476   9.526   9.258   1.304  0.4358 -0.4750 -0.1576
 5003SOL     OW25477   3.793   9.131   4.010 -0.1050 -0.0576 -0.2402
 5003SOL    HW125478   3.720   9.071   3.978  1.2697 -1.1796 -1.3297
 5003SOL    HW225479   3.761   9.226   4.011 -1.1133 -0.3722 -2.1059
 5004SOL     OW25480   9.923   0.013   1.641  0.5483 -0.7078 -0.6906
 5004SOL    HW125481   9.989  -0.059   1.616  0.9730 -0.2184 -0.9903
 5004SOL    HW225482   9.952   0.057   1.726  0.7418 -0.3268 -0.9521
 5005SOL     OW25483   1.690   6.912   3.069 -0.9766  0.7449  0.0910
 5005SOL    HW125484   1.639   6.831   3.098 -1.4509  1.2483  0.6914
 5005SOL    HW225485   1.627   6.980   3.032 -0.6327  1.0059 -0.0169
 5006SOL     OW25486   8.015   1.846   2.138  0.1969  0.5611 -0.0781
 5006SOL    HW125487   7.934   1.901   2.158 -0.8735 -0.5166 -1.3723
 5006SOL    HW225488   7.994   1.749   2.150  2.2695  0.4360  2.8416
 5007SOL     OW25489   5.320   7.689   3.318  0.4048 -0.1794  0.1293
 5007SOL    HW125490   5.407   7.734   3.336 -0.5183  1.4624  0.5402
 5007SOL    HW225491   5.309   7.677   3.220 -0.1050  2.0512 -0.1034
 5008SOL     OW25492   7.580   5.475   2.936 -0.1908 -0.0023  0.1123
 5008SOL    HW125493   7.633   5.507   3.014  0.7559 -0.4217 -0.3510
 5008SOL    HW225494   7.499   5.533   2.925  0.3061  0.8137  0.6621
 5009SOL     OW25495   2.430   1.785   2.951  0.0995 -0.3219  0.4696
 5009SOL    HW125496   2.416   1.751   3.044 -1.9990  0.0435  0.2961
 5009SOL    HW225497   2.453   1.883   2.954  0.9799 -0.5300  0.6495
 5010SOL     OW25498   9.398   0.225   0.490  0.2011  0.2852  0.5385
 5010SOL    HW125499   9.363   0.313   0.523  0.3232  0.6826 -0.3648
 5010SOL    HW225500   9.498   0.229   0.485  0.2841 -0.2788  1.5160
 5011SOL     OW25501   3.713   1.420   3.025 -0.0180 -0.2749 -0.1136
 5011SOL    HW125502   3.706   1.466   2.936 -1.9738 -2.1346 -0.9877
 5011SOL    HW225503   3.622   1.408   3.063  0.6510 -1.3065  1.2008
 5012SOL     OW25504   7.713   0.910   0.738  0.1058  0.4747 -0.7683
 5012SOL    HW125505   7.799   0.900   0.787 -0.1519  1.4624 -0.1007
 5012SOL    HW225506   7.721   0.986   0.673 -0.6071  1.2674  0.0633
 5013SOL     OW25507   0.883   6.773   3.118  0.2730  0.2787  0.4954
 5013SOL    HW125508   0.829   6.770   3.033  1.4022 -2.2594 -0.1777
 5013SOL    HW225509   0.834   6.724   3.190 -0.9288  2.8768  1.5061
 5014SOL     OW25510   9.254   9.156   3.933 -0.3515  0.1329 -0.2478
 5014SOL    HW125511   9.343   9.130   3.896 -0.1428 -0.3990  0.6162
 5014SOL    HW225512   9.181   9.117   3.876 -0.0330 -1.1105  0.1931
 5015SOL     OW25513   0.168   2.880   2.250 -0.6406  0.4696  0.0859
 5015SOL    HW125514   0.244   2.884   2.185  0.3116  2.0187  1.2252
 5015SOL    HW225515   0.203   2.854   2.340 -1.6747 -0.1069  0.3255
 5016SOL     OW25516   2.518   8.675   3.161 -0.4682  0.9208 -0.8348
 5016SOL    HW125517   2.603   8.635   3.129 -1.2444 -0.9187 -0.6765
 5016SOL    HW225518   2.526   8.698   3.258 -1.0806 -2.0837  0.0092
 5017SOL     OW25519   2.043   1.070   1.963  0.2403 -0.1524 -0.7032
 5017SOL    HW125520   2.097   1.028   1.890 -0.2171 -0.2083 -1.0107
 5017SOL    HW225521   1.977   1.133   1.923  0.1089 -0.0480 -0.3233
 5018SOL     OW25522   9.827   3.885   3.613  0.5469  0.2132  0.1922
 5018SOL    HW125523   9.754   3.856   3.675  0.5106 -0.2459 -0.0631
 5018SOL    HW225524   9.825   3.984   3.604  0.2187  0.2386  0.5156
 5019SOL     OW25525   7.027   9.459   2.665  0.4767 -0.3654 -0.2838
 5019SOL    HW125526   6.962   9.531   2.641  0.2773 -0.6222 -0.5062
 5019SOL    HW225527   7.017   9.382   2.602  2.0096  0.2083 -1.2645
 5020SOL     OW25528   0.076   4.276   2.650 -0.5986 -0.2120 -0.5767
 5020SOL    HW125529   0.073   4.376   2.656  1.4425 -0.1046 -0.8750
 5020SOL    HW225530   0.172   4.246   2.646 -1.0559 -2.3986  2.9706
 5021SOL     OW25531   4.190   7.598   3.053 -0.0645 -0.0633  0.2578
 5021SOL    HW125532   4.168   7.591   3.150 -1.5042  2.3751  0.1625
 5021SOL    HW225533   4.119   7.553   2.999 -2.2452  3.3144  0.1665
 5022SOL     OW25534   0.563   1.798   0.102 -0.3880 -0.2095 -0.5877
 5022SOL    HW125535   0.635   1.729   0.089  0.0299  0.2398 -0.7062
 5022SOL    HW225536   0.541   1.840   0.014  0.1008  0.5327 -0.3658
 5023SOL     OW25537   7.637   8.299   1.103  0.4110  0.0497  0.1220
 5023SOL    HW125538   7.639   8.342   1.193  1.5299 -2.1757  1.1991
 5023SOL    HW225539   7.727   8.304   1.061  0.7489 -1.8492  0.5791
 5024SOL     OW25540   2.521   7.572   1.664 -0.1436 -0.3141 -0.1797
 5024SOL    HW125541   2.595   7.507   1.651  0.5866  0.5499 -0.4029
 5024SOL    HW225542   2.450   7.556   1.595  0.5884 -0.0983 -0.9881
 5025SOL     OW25543   8.904   7.207   2.465 -0.2387  0.0716 -0.2353
 5025SOL    HW125544   8.957   7.179   2.546  0.8843  2.2242 -0.1897
 5025SOL    HW225545   8.813   7.165   2.469  0.3287 -1.0652  1.3733
 5026SOL     OW25546   1.676   6.203   1.615  0.3433  0.1962  0.4147
 5026SOL    HW125547   1.733   6.280   1.642 -1.0589  0.9382  1.3103
 5026SOL    HW225548   1.675   6.135   1.688  0.1281  0.1575  0.3769
 5027SOL     OW25549   2.694   5.503   2.346 -0.1734 -0.2496 -0.4436
 5027SOL    HW125550   2.640   5.587   2.345 -2.1593 -1.5105 -1.1889
 5027SOL    HW225551   2.643   5.430   2.301  0.5074 -2.5140  2.3192
 5028SOL     OW25552   4.785   9.331   2.172  0.9950  0.2280 -0.1426
 5028SOL    HW125553   4.747   9.378   2.252  0.1399 -0.2534 -0.2720
 5028SOL    HW225554   4.718   9.330   2.098  0.8617 -1.5349 -0.0108
 5029SOL     OW25555   2.243   5.738   0.889  0.1255  0.6194 -0.1243
 5029SOL    HW125556   2.148   5.764   0.899  0.4391  1.7031  0.0703
 5029SOL    HW225557   2.275   5.693   0.973 -0.3028 -0.0300 -0.3110
 5030SOL     OW25558   1.944   5.563   0.849  0.5793  0.2899 -0.0580
 5030SOL    HW125559   1.926   5.470   0.817 -1.4203  0.1980  1.2463
 5030SOL    HW225560   2.017   5.561   0.918  3.4425  0.2417 -2.9519
 5031SOL     OW25561   5.386   7.851   1.957 -0.3010  0.7590  0.2282
 5031SOL    HW125562   5.332   7.825   2.036 -0.3403 -1.7010 -0.5665
 5031SOL    HW225563   5.330   7.843   1.874  0.6708  0.1667 -0.3790
 5032SOL     OW25564   5.031   8.642   2.620  0.0563  0.3215  0.0445
 5032SOL    HW125565   5.108   8.580   2.639 -0.7486 -0.5682  0.4411
 5032SOL    HW225566   4.945   8.595   2.639 -0.6723  0.5779 -2.4695
 5033SOL     OW25567   3.063   9.969   4.016  0.0689 -0.2563  0.3008
 5033SOL    HW125568   3.128   9.898   4.045 -0.4996 -0.5819  0.7715
 5033SOL    HW225569   2.971   9.930   4.012 -0.1381  0.2751 -0.1223
 5034SOL     OW25570   8.711   2.302   1.331  0.7518  0.0242  0.5077
 5034SOL    HW125571   8.695   2.203   1.324 -0.6298  0.2586  0.1133
 5034SOL    HW225572   8.628   2.347   1.365  0.1372  1.4467 -2.7172
 5035SOL     OW25573   1.523   5.281   3.204  0.5586 -0.2699  0.0808
 5035SOL    HW125574   1.533   5.188   3.167  0.5322 -0.1816 -0.1418
 5035SOL    HW225575   1.434   5.289   3.249  1.4892 -1.0738  2.1268
 5036SOL     OW25576   3.420   7.947   3.865 -0.5410  0.1053 -0.4099
 5036SOL    HW125577   3.325   7.960   3.892 -0.4232  1.1829 -0.4587
 5036SOL    HW225578   3.477   7.940   3.947 -0.6893 -0.7233 -0.3818
 5037SOL     OW25579   7.804   1.090   1.498 -0.0106 -0.1458  0.2130
 5037SOL    HW125580   7.853   1.046   1.422  0.1883 -0.6742  0.6457
 5037SOL    HW225581   7.830   1.047   1.584  0.2395  0.8781  0.6581
 5038SOL     OW25582   1.739   0.735   2.257 -0.1488 -0.1737 -0.0292
 5038SOL    HW125583   1.777   0.767   2.171  0.1834 -0.2968  0.0717
 5038SOL    HW225584   1.660   0.792   2.282 -0.2042 -0.0957 -0.3767
 5039SOL     OW25585   0.966   8.238   2.838 -0.6458  0.3120 -0.1012
 5039SOL    HW125586   0.878   8.218   2.879 -0.3097 -0.7074  0.1438
 5039SOL    HW225587   0.999   8.327   2.869 -1.2615  0.3801  0.3468
 5040SOL     OW25588   2.369   9.939   0.769  0.1204 -0.2007 -0.2621
 5040SOL    HW125589   2.338   9.857   0.722 -1.5880  0.6936 -0.7427
 5040SOL    HW225590   2.361   9.926   0.868 -0.8329 -0.3683 -0.3538
 5041SOL     OW25591   0.451   0.399   0.039  0.1336  0.3791 -0.4490
 5041SOL    HW125592   0.389   0.431   0.111  0.1167 -0.7235  0.0358
 5041SOL    HW225593   0.398   0.375  -0.042 -0.4503 -3.3489  0.9378
 5042SOL     OW25594   2.714   0.823   1.637 -0.5324 -0.1837 -0.2221
 5042SOL    HW125595   2.802   0.776   1.641 -0.7637 -0.5852  0.1608
 5042SOL    HW225596   2.660   0.784   1.562 -0.5088 -0.1488 -0.2575
 5043SOL     OW25597   1.893   0.971   2.948  0.1668  0.4130  0.0743
 5043SOL    HW125598   1.827   0.935   2.882  1.7710 -1.6158 -0.4588
 5043SOL    HW225599   1.935   1.054   2.911 -0.0398  0.1278 -0.8065
 5044SOL     OW25600   5.027   9.178   0.592  0.2513  0.2648 -0.2377
 5044SOL    HW125601   4.928   9.193   0.586  0.0926 -0.7484 -0.2438
 5044SOL    HW225602   5.062   9.153   0.502  0.5109  0.5937 -0.2283
 5045SOL     OW25603   4.927   9.532   1.956  0.0841  0.3892 -0.1295
 5045SOL    HW125604   4.848   9.472   1.965 -1.6253  2.5520 -0.1191
 5045SOL    HW225605   4.997   9.487   1.901 -1.4288 -1.3049 -0.7297
 5046SOL     OW25606   8.908   9.885   2.112 -0.1012 -0.0745 -0.2672
 5046SOL    HW125607   8.918   9.858   2.208  1.4240  2.0903  0.2205
 5046SOL    HW225608   8.963   9.824   2.054 -0.6302 -1.0771  0.2661
 5047SOL     OW25609   1.881   9.985   0.335  0.5247  0.0168  0.0237
 5047SOL    HW125610   1.928  10.029   0.412  0.6942 -0.2657  0.0795
 5047SOL    HW225611   1.782   9.988   0.350  0.5172  0.7201 -0.1501
 5048SOL     OW25612   2.689   8.935   3.884 -0.1056  0.1251  0.4121
 5048SOL    HW125613   2.745   8.888   3.816 -0.0932  0.4205  0.2161
 5048SOL    HW225614   2.723   8.915   3.976 -0.6670 -0.9957  0.3826
 5049SOL     OW25615   2.160   1.493   3.435  0.3900  0.0518  0.3713
 5049SOL    HW125616   2.259   1.487   3.420  0.1359 -0.3456 -1.2596
 5049SOL    HW225617   2.125   1.404   3.463  0.2343 -0.2397 -0.7398
 5050SOL     OW25618   2.383   5.091   0.096 -0.0544  0.3693 -0.4609
 5050SOL    HW125619   2.442   5.126   0.169  0.2767 -1.8563  0.3656
 5050SOL    HW225620   2.439   5.057   0.021 -0.3877  2.1553 -1.5608
 5051SOL     OW25621   2.699   2.113   1.651  0.4798 -0.3169  0.5379
 5051SOL    HW125622   2.759   2.120   1.571 -0.2049 -0.4119  0.0102
 5051SOL    HW225623   2.703   2.199   1.703 -1.2974  0.8751 -1.2042
 5052SOL     OW25624   3.745   4.242   1.222  0.6376 -0.1076  0.2444
 5052SOL    HW125625   3.825   4.276   1.270  0.1710  2.0319 -0.4214
 5052SOL    HW225626   3.766   4.232   1.125 -0.6144  2.9586 -0.3818
 5053SOL     OW25627   1.592   7.682   3.712 -0.0563  0.1972  0.8662
 5053SOL    HW125628   1.613   7.691   3.614  0.2742  1.4897  1.0480
 5053SOL    HW225629   1.677   7.670   3.763 -0.2784 -1.1291  0.9343
 5054SOL     OW25630   1.779   9.575   1.030  0.6436 -0.0766  0.3029
 5054SOL    HW125631   1.776   9.673   1.052  0.1202 -0.6243  2.7335
 5054SOL    HW225632   1.848   9.530   1.086  0.9494 -1.1174 -0.8741
 5055SOL     OW25633   7.051   8.794   2.202 -0.0994  0.4365 -0.3022
 5055SOL    HW125634   7.019   8.743   2.122  3.9379 -0.8064 -1.2426
 5055SOL    HW225635   6.977   8.802   2.269 -2.1813 -2.6556 -2.1381
 5056SOL     OW25636   9.765   0.970   2.527  0.1143 -0.0538  0.1269
 5056SOL    HW125637   9.695   1.039   2.509  0.4513  0.2293 -0.0844
 5056SOL    HW225638   9.810   0.945   2.441 -0.3714 -0.9268  0.1129
 5057SOL     OW25639   4.802   9.987   2.068 -0.0422 -0.1174 -0.0322
 5057SOL    HW125640   4.881  10.047   2.083 -1.5157  0.9321  4.4387
 5057SOL    HW225641   4.755  10.013   1.983  1.4787  2.6409 -0.0645
 5058SOL     OW25642   8.794   8.954   1.494  0.6942  0.2424  0.3863
 5058SOL    HW125643   8.890   8.978   1.480 -0.2326  3.2532 -1.1525
 5058SOL    HW225644   8.767   8.977   1.587  0.9833  1.0912  0.2618
 5059SOL     OW25645   8.544   1.070   1.791  0.3982  0.4302  0.6035
 5059SOL    HW125646   8.571   1.140   1.724 -2.4902  1.7519  0.7429
 5059SOL    HW225647   8.585   1.092   1.879  0.7869  1.0877  0.2683
 5060SOL     OW25648   9.543   0.937   0.718 -0.7792 -0.2196 -0.0527
 5060SOL    HW125649   9.452   0.931   0.761 -0.8799 -1.3149 -0.4116
 5060SOL    HW225650   9.598   0.858   0.745  0.1595  0.5562  0.3441
 5061SOL     OW25651   9.494   7.013   2.627 -0.6978  0.1287 -0.4449
 5061SOL    HW125652   9.515   7.109   2.608  3.3059 -1.0229 -2.2398
 5061SOL    HW225653   9.434   6.977   2.555  1.2582  0.1684 -2.1197
 5062SOL     OW25654   8.841   5.373   0.456 -0.3742 -0.0032 -0.3338
 5062SOL    HW125655   8.833   5.400   0.552 -1.6168  1.0968 -0.7301
 5062SOL    HW225656   8.936   5.350   0.436  0.6962  3.6802  0.1640
 5063SOL     OW25657   8.719   3.213   3.082  0.3499  0.0305  0.1207
 5063SOL    HW125658   8.806   3.168   3.063 -0.1553 -1.3030  0.8479
 5063SOL    HW225659   8.688   3.188   3.173 -2.4309 -2.3084 -1.3546
 5064SOL     OW25660   9.094   0.031   2.472  0.4751 -0.3148 -0.6320
 5064SOL    HW125661   9.164   0.059   2.407  1.8210 -1.5184  0.2828
 5064SOL    HW225662   9.023  -0.021   2.424  0.2348  0.8035 -1.5329
 5065SOL     OW25663   1.737   7.202   1.210 -0.0196  0.1833 -0.0615
 5065SOL    HW125664   1.781   7.265   1.147  1.7481 -0.8143  0.1537
 5065SOL    HW225665   1.661   7.156   1.163  1.9094 -1.2985 -1.8010
 5066SOL     OW25666   7.066   9.644   1.591  0.1170 -0.0131 -0.0582
 5066SOL    HW125667   7.012   9.618   1.511 -0.5058  2.5722 -0.5301
 5066SOL    HW225668   7.163   9.647   1.567  0.2443 -2.1068  0.0972
 5067SOL     OW25669   4.101   3.433   2.595  0.0784 -0.4734  0.6163
 5067SOL    HW125670   4.012   3.422   2.638 -0.2857 -2.1868 -0.5236
 5067SOL    HW225671   4.093   3.494   2.517 -0.4505 -1.8762 -0.4482
 5068SOL     OW25672   8.307   1.398   2.028  0.1553  0.1271 -0.2777
 5068SOL    HW125673   8.262   1.426   1.944 -0.2579  1.7611  0.4617
 5068SOL    HW225674   8.385   1.339   2.006  0.3594  0.9449 -1.8287
 5069SOL     OW25675   9.072   2.466   1.176  0.3585  0.3210  0.2568
 5069SOL    HW125676   9.137   2.452   1.101  0.3900 -1.8492  0.6683
 5069SOL    HW225677   9.122   2.485   1.260  0.4467 -0.5354  0.4027
 5070SOL     OW25678   8.061   3.258   0.327  0.2683  0.1258  0.2910
 5070SOL    HW125679   8.150   3.218   0.348 -0.7314 -1.6482  1.2055
 5070SOL    HW225680   7.993   3.186   0.318 -1.2231  1.5110  0.2367
 5071SOL     OW25681   3.812   0.405   1.741 -0.5326 -0.0230  0.3417
 5071SOL    HW125682   3.763   0.322   1.713 -0.4477 -0.6903  2.1257
 5071SOL    HW225683   3.885   0.425   1.674  0.8540 -2.6211  1.0193
 5072SOL     OW25684   4.578   9.846   2.647 -0.5285 -0.3424  0.0231
 5072SOL    HW125685   4.518   9.887   2.715  0.2713 -1.2352  1.3035
 5072SOL    HW225686   4.662   9.899   2.640 -0.7922 -0.0051 -0.5864
 5073SOL     OW25687   3.097   1.498   2.688  0.1811 -0.2122  0.1162
 5073SOL    HW125688   3.186   1.522   2.649  0.0769 -0.4697 -0.2822
 5073SOL    HW225689   3.067   1.571   2.749  0.5801 -0.0393  0.1125
 5074SOL     OW25690   9.915   9.905   0.791  0.0064 -0.1701 -0.6159
 5074SOL    HW125691   9.868   9.990   0.812  1.2463  0.0634  1.3335
 5074SOL    HW225692  10.012   9.914   0.813  0.2061 -1.9998 -0.6431
 5075SOL     OW25693   0.041   6.484   3.449  0.3939  0.2408 -0.8586
 5075SOL    HW125694   0.004   6.528   3.531  0.8394 -1.0597  0.0585
 5075SOL    HW225695   0.137   6.461   3.463 -0.2232 -2.4143 -0.7149
 5076SOL     OW25696   2.020   4.952   3.837  0.0774  1.4634 -0.0379
 5076SOL    HW125697   1.949   4.945   3.766 -0.7024 -2.4976  0.9655
 5076SOL    HW225698   2.102   4.905   3.806  1.6621  4.3663 -0.4012
 5077SOL     OW25699   5.921   8.340   2.358 -0.0059 -0.1399  0.7133
 5077SOL    HW125700   6.008   8.378   2.327 -0.5063 -0.8408 -1.6084
 5077SOL    HW225701   5.938   8.255   2.408  0.6569 -0.2108  0.3718
 5078SOL     OW25702   7.768   4.488   0.800 -0.1817  0.8622 -0.0532
 5078SOL    HW125703   7.777   4.408   0.741 -0.4188 -0.3087  1.4697
 5078SOL    HW225704   7.710   4.556   0.756 -0.4209 -0.0318 -1.1271
 5079SOL     OW25705   1.211   8.408   2.919 -0.0271  0.3155 -0.3019
 5079SOL    HW125706   1.254   8.336   2.975  1.6596  0.7723 -0.9693
 5079SOL    HW225707   1.239   8.497   2.954 -0.2068  0.6168 -0.9315
 5080SOL     OW25708   3.679   4.666   3.870 -0.2355 -0.6224 -0.2461
 5080SOL    HW125709   3.707   4.739   3.808 -0.3285 -0.0878  0.3382
 5080SOL    HW225710   3.637   4.706   3.952  0.8377 -1.2869  0.6328
 5081SOL     OW25711   5.943   9.096   2.338  0.1414 -0.0352 -0.0018
 5081SOL    HW125712   5.993   9.166   2.388 -0.6520  1.1008 -0.7915
 5081SOL    HW225713   5.845   9.109   2.349 -0.0179 -0.8552 -0.3779
 5082SOL     OW25714   2.442   7.257   2.197 -0.0903 -0.0798 -0.1977
 5082SOL    HW125715   2.357   7.246   2.145  0.5930 -3.0748 -0.7835
 5082SOL    HW225716   2.424   7.234   2.293 -0.5638  2.1177  0.2707
 5083SOL     OW25717   7.640   9.606   2.371  0.4334  0.2917  0.1256
 5083SOL    HW125718   7.663   9.669   2.297 -1.0997  0.2792 -0.3814
 5083SOL    HW225719   7.721   9.554   2.398  1.7906  2.6307  0.6996
 5084SOL     OW25720   6.089   8.350   1.430  0.1234 -0.0114 -0.4033
 5084SOL    HW125721   6.105   8.419   1.359 -1.2923 -0.2878 -0.9988
 5084SOL    HW225722   6.090   8.394   1.520 -0.2441  0.6897 -0.7425
 5085SOL     OW25723   4.392   4.813   1.673  0.3638  0.0340 -0.2013
 5085SOL    HW125724   4.475   4.809   1.617  1.7494 -0.6269  1.8846
 5085SOL    HW225725   4.364   4.721   1.699 -0.5520  0.3108 -0.1921
 5086SOL     OW25726   8.773   0.801   0.119 -0.1220 -0.5515 -0.2262
 5086SOL    HW125727   8.756   0.859   0.040 -0.7183 -1.7574 -1.0083
 5086SOL    HW225728   8.750   0.706   0.096  2.4064 -1.3687  0.4781
 5087SOL     OW25729   3.539   7.036   1.800 -0.2862 -0.1608  0.3822
 5087SOL    HW125730   3.601   7.006   1.728 -0.5757 -0.3012  0.1918
 5087SOL    HW225731   3.452   7.063   1.760  0.0066  1.0406  0.5336
 5088SOL     OW25732   0.537   0.561   2.019 -0.0039  0.2432 -0.0926
 5088SOL    HW125733   0.498   0.528   2.105 -0.3150  0.5691 -0.1040
 5088SOL    HW225734   0.599   0.637   2.037  0.9410 -0.5352 -0.0390
 5089SOL     OW25735   9.081   8.836   3.192  0.0236  0.0843 -0.1796
 5089SOL    HW125736   9.168   8.860   3.150  0.9105 -0.6092  1.2284
 5089SOL    HW225737   9.028   8.778   3.130  1.7032 -1.7008  0.0068
 5090SOL     OW25738   5.140   7.793   0.228  0.5202 -0.4039  0.2240
 5090SOL    HW125739   5.207   7.793   0.302  2.8013  0.2985 -1.8152
 5090SOL    HW225740   5.160   7.718   0.165 -0.0224  0.4028 -0.9225
 5091SOL     OW25741   2.695   0.068   2.745 -0.5476 -0.3617 -0.0227
 5091SOL    HW125742   2.678   0.007   2.668 -1.4444  1.3514 -1.2163
 5091SOL    HW225743   2.792   0.065   2.770 -0.7060 -2.7805  0.4112
 5092SOL     OW25744   5.753   6.797   2.453 -0.0799  0.2534  0.2123
 5092SOL    HW125745   5.809   6.844   2.384  0.7017 -0.7162  0.1812
 5092SOL    HW225746   5.657   6.801   2.426  0.0672  1.1133 -0.2086
 5093SOL     OW25747   2.609   0.960   2.531 -0.0202  0.0026  0.1922
 5093SOL    HW125748   2.646   0.958   2.438  0.6551 -0.8154  0.4666
 5093SOL    HW225749   2.567   0.871   2.551  0.0652  0.0902  0.7610
 5094SOL     OW25750   8.953   5.227   2.590 -0.4484  0.0131 -0.2359
 5094SOL    HW125751   8.906   5.315   2.583  0.8234  0.7038 -0.2005
 5094SOL    HW225752   8.893   5.160   2.635 -0.7617  1.3452  1.3748
 5095SOL     OW25753   9.941   5.485   2.790 -0.2200  0.9215  0.4473
 5095SOL    HW125754  10.011   5.527   2.848 -0.4018 -0.1896  1.5018
 5095SOL    HW225755   9.851   5.517   2.818 -0.2863  0.6011  0.6108
 5096SOL     OW25756   1.338   8.292   2.289 -0.4748 -0.8882 -0.2116
 5096SOL    HW125757   1.380   8.244   2.212  0.2950 -2.5262  1.1862
 5096SOL    HW225758   1.391   8.374   2.311  0.2401 -1.3012 -0.3923
 5097SOL     OW25759   2.678   7.400   1.286  0.3071  0.5696  0.2877
 5097SOL    HW125760   2.590   7.443   1.270  0.4536 -0.0734 -2.4943
 5097SOL    HW225761   2.749   7.470   1.294  0.0251  0.9842 -0.7593
 5098SOL     OW25762   0.254   5.493   3.982 -0.3484  0.8531  0.0487
 5098SOL    HW125763   0.253   5.435   3.901  1.0980  0.0822  0.5810
 5098SOL    HW225764   0.342   5.539   3.989 -0.8125  1.6653  0.6704
 5099SOL     OW25765   0.573   9.608   0.490 -0.1368 -0.5547 -0.4399
 5099SOL    HW125766   0.598   9.511   0.499 -1.4350 -0.8778 -0.1516
 5099SOL    HW225767   0.645   9.665   0.529  0.6810 -1.3994 -0.6870
 5100SOL     OW25768   3.446   5.946   1.478  0.1758  0.6328 -0.1960
 5100SOL    HW125769   3.499   5.888   1.416 -0.7235 -3.0085  2.3231
 5100SOL    HW225770   3.359   5.970   1.434 -0.6112 -2.1932 -0.2955
 5101SOL     OW25771   1.091   0.710   3.814  0.2145 -0.6899 -0.2030
 5101SOL    HW125772   1.015   0.730   3.877  1.3568 -0.3731  1.1004
 5101SOL    HW225773   1.056   0.702   3.721 -1.4392 -0.6476  0.3969
 5102SOL     OW25774   5.064   2.334   0.918  0.0779 -0.1780  0.1439
 5102SOL    HW125775   4.979   2.349   0.868  0.6075 -0.0117 -0.7232
 5102SOL    HW225776   5.126   2.278   0.862  1.9495  2.7101 -0.8005
 5103SOL     OW25777   3.277   3.994   0.109  0.1955  0.7367  0.3074
 5103SOL    HW125778   3.336   3.915   0.125 -1.8478 -1.1370 -0.9803
 5103SOL    HW225779   3.198   3.990   0.171  0.6287  2.3732  0.9811
 5104SOL     OW25780   3.243   8.263   3.986  0.0117  0.0441  0.1414
 5104SOL    HW125781   3.264   8.248   3.889  2.0935 -1.0697  0.7352
 5104SOL    HW225782   3.209   8.179   4.027  1.5633 -0.2087  0.9607
 5105SOL     OW25783   3.977   3.372   3.137 -0.5985  0.6054 -0.4738
 5105SOL    HW125784   4.021   3.295   3.183 -1.2102  0.0334 -0.8328
 5105SOL    HW225785   4.033   3.454   3.149 -1.5946  0.8777  2.7623
 5106SOL     OW25786   2.384   8.188   2.068  0.0070 -0.4672 -0.5887
 5106SOL    HW125787   2.300   8.133   2.081 -0.3105 -0.0757 -0.9877
 5106SOL    HW225788   2.462   8.136   2.102 -0.2923 -1.1763 -0.9630
 5107SOL     OW25789   9.081   1.752   2.051  0.4116  0.2618 -0.3764
 5107SOL    HW125790   9.167   1.771   2.004  0.5603  0.5173 -0.0060
 5107SOL    HW225791   9.080   1.657   2.082  1.0748  0.5934  0.6821
 5108SOL     OW25792   2.938   8.081   3.851  0.5074  0.9647 -0.0273
 5108SOL    HW125793   2.937   8.036   3.941  0.2663 -0.3511 -0.6842
 5108SOL    HW225794   3.019   8.051   3.800  0.0130  0.7793 -0.7118
 5109SOL     OW25795   2.386   2.000   3.595 -0.1656 -0.2364 -0.3424
 5109SOL    HW125796   2.307   2.028   3.649 -0.7539  0.6426 -1.6420
 5109SOL    HW225797   2.381   2.041   3.504  2.1007  0.3034 -0.2444
 5110SOL     OW25798   8.878   2.284   1.853  0.5416  0.3500 -0.0980
 5110SOL    HW125799   8.900   2.212   1.787 -1.6043 -0.5985  0.1970
 5110SOL    HW225800   8.963   2.321   1.891  1.6912 -1.7092 -0.5876
 5111SOL     OW25801   9.982   1.563   3.542 -0.2366 -0.2660 -0.0332
 5111SOL    HW125802  10.007   1.593   3.450 -1.1902  0.2359 -0.1315
 5111SOL    HW225803  10.057   1.583   3.605 -0.2355  0.8896 -0.3894
 5112SOL     OW25804   8.843   0.868   3.388  0.2839 -0.1622  0.1161
 5112SOL    HW125805   8.897   0.858   3.472  0.2531 -0.0721  0.1464
 5112SOL    HW225806   8.882   0.939   3.331  1.1643 -1.2302 -0.6238
 5113SOL     OW25807   9.946   4.030   2.695 -0.0139  0.2842  0.0354
 5113SOL    HW125808  10.020   4.098   2.688  0.6592 -0.5835 -1.3025
 5113SOL    HW225809   9.859   4.077   2.710  0.6243  1.3768  0.3888
 5114SOL     OW25810   4.718   9.509   2.370 -0.2374 -0.2241  0.3607
 5114SOL    HW125811   4.809   9.543   2.392 -0.5677  0.3002  0.9329
 5114SOL    HW225812   4.693   9.437   2.435 -0.3762 -0.1171  0.4261
 5115SOL     OW25813   1.699   5.251   1.061  0.3138  0.4834 -0.1725
 5115SOL    HW125814   1.619   5.194   1.081  0.0350  1.6088  2.0775
 5115SOL    HW225815   1.681   5.345   1.090  2.8818  0.5111  1.5008
 5116SOL     OW25816   9.431   5.662   2.867 -0.4970 -0.1583 -0.2155
 5116SOL    HW125817   9.341   5.693   2.899  0.7553  0.5427  2.8195
 5116SOL    HW225818   9.494   5.739   2.867  1.3565 -1.5764  2.5575
 5117SOL     OW25819   8.039   4.713   2.399 -0.0515 -0.0493 -0.2410
 5117SOL    HW125820   8.041   4.762   2.312  0.4430  2.4490  1.1613
 5117SOL    HW225821   7.959   4.652   2.400 -1.1003  1.2647 -1.6860
 5118SOL     OW25822   3.176   7.354   2.161 -0.1736  0.5329  0.4914
 5118SOL    HW125823   3.153   7.269   2.209 -0.0805 -0.7501 -1.6721
 5118SOL    HW225824   3.257   7.340   2.104 -1.4257  1.4243 -1.5778
 5119SOL     OW25825   2.015   0.103   0.565 -0.1877 -0.3256  0.4203
 5119SOL    HW125826   2.102   0.145   0.593 -0.0605 -1.9009  2.4996
 5119SOL    HW225827   1.939   0.156   0.601 -0.0616 -0.1810  0.4750
 5120SOL     OW25828   2.704   4.766   2.966  0.1535  0.0660  0.1368
 5120SOL    HW125829   2.694   4.765   2.866  1.6375  1.5870 -0.0688
 5120SOL    HW225830   2.677   4.856   3.000 -0.4097 -0.4748  1.1248
 5121SOL     OW25831   2.981   1.771   2.029 -0.2771  0.7823  0.0404
 5121SOL    HW125832   3.061   1.820   2.065  0.1608 -1.3388  2.0604
 5121SOL    HW225833   2.917   1.752   2.104  0.2358 -2.9671 -0.3922
 5122SOL     OW25834   9.709   9.927   1.290  0.3274  0.0783  0.1994
 5122SOL    HW125835   9.710   9.955   1.195  1.8100 -2.7896 -0.6987
 5122SOL    HW225836   9.616   9.900   1.316 -0.0402  0.6686 -0.4870
 5123SOL     OW25837   0.011   3.455   4.021 -0.6509  0.1555  0.4172
 5123SOL    HW125838  -0.001   3.504   3.935 -1.3469  0.3822  0.6394
 5123SOL    HW225839  -0.068   3.471   4.080  0.2711  0.8242  1.4998
 5124SOL     OW25840   1.460   9.795   3.844 -0.0297 -0.1587  0.0631
 5124SOL    HW125841   1.406   9.712   3.826  0.0961 -0.5204  1.2696
 5124SOL    HW225842   1.537   9.772   3.903 -0.3792  0.9502  0.9633
 5125SOL     OW25843   3.388   7.177   3.235  0.2857  0.0995 -0.3338
 5125SOL    HW125844   3.427   7.120   3.307  0.3320  1.2749  0.5789
 5125SOL    HW225845   3.293   7.200   3.258  0.0173 -0.2361 -1.0746
 5126SOL     OW25846   8.827   2.055   3.268 -0.2971  0.7269  0.1057
 5126SOL    HW125847   8.837   2.148   3.303 -1.1974  1.4692 -1.5689
 5126SOL    HW225848   8.761   2.005   3.324  0.9283  0.7502  1.6207
 5127SOL     OW25849   3.432   1.908   1.980 -0.4069  0.3092 -0.3350
 5127SOL    HW125850   3.358   1.942   2.039  0.0116  0.3769  0.1562
 5127SOL    HW225851   3.450   1.974   1.907 -0.2724  0.6782  0.0326
 5128SOL     OW25852   1.042   1.743   0.610  0.3899  0.5492 -0.0813
 5128SOL    HW125853   1.100   1.732   0.530  0.4321  0.1729  0.0032
 5128SOL    HW225854   0.948   1.720   0.587  0.5430 -0.3614  0.1935
 5129SOL     OW25855   5.108   8.942   1.960 -0.3930  0.3242  0.3333
 5129SOL    HW125856   5.015   8.970   1.936  0.1596  1.2033 -0.8532
 5129SOL    HW225857   5.173   9.004   1.915  0.8262 -1.8739 -0.9818
 5130SOL     OW25858   3.753   1.715   3.253  0.8013  0.4467  0.2044
 5130SOL    HW125859   3.673   1.706   3.195  0.4844 -1.1343  0.8799
 5130SOL    HW225860   3.825   1.763   3.202 -1.0036  3.1510  0.0656
 5131SOL     OW25861   1.194   6.419   2.412  0.3447  0.0083  0.6479
 5131SOL    HW125862   1.277   6.371   2.383 -0.0651 -1.2753  1.5686
 5131SOL    HW225863   1.160   6.378   2.496 -1.7512 -0.0952 -0.2255
 5132SOL     OW25864   7.241   6.589   2.325  0.4953 -0.0046 -0.0204
 5132SOL    HW125865   7.144   6.568   2.341  1.0030 -0.7127  2.2125
 5132SOL    HW225866   7.253   6.614   2.229 -1.9020  0.0887 -0.3437
 5133SOL     OW25867   5.010   0.745   3.522  0.1565  0.0029  0.0476
 5133SOL    HW125868   4.923   0.777   3.485 -0.6756 -1.9692  0.2459
 5133SOL    HW225869   5.025   0.786   3.612  0.5946  2.1925 -0.9834
 5134SOL     OW25870   3.569   8.045   0.852  0.3177  0.1798  0.0128
 5134SOL    HW125871   3.625   7.963   0.853 -0.0740 -0.0782  0.6697
 5134SOL    HW225872   3.600   8.107   0.925  0.1748  0.3183 -0.0443
 5135SOL     OW25873   2.638   1.464   1.585 -0.0251 -0.3663 -0.2931
 5135SOL    HW125874   2.668   1.418   1.502  1.1852  0.1216 -0.1477
 5135SOL    HW225875   2.601   1.554   1.562  1.3626  0.2380 -0.2160
 5136SOL     OW25876   2.784   4.505   0.753  0.3710 -0.1180  0.3738
 5136SOL    HW125877   2.820   4.446   0.681  1.5499  0.1252  0.7553
 5136SOL    HW225878   2.850   4.577   0.773 -0.6132  0.7266  0.6318
 5137SOL     OW25879   1.725   5.021   2.523  0.6297  0.3694  0.3368
 5137SOL    HW125880   1.770   5.021   2.612 -0.0794 -0.6269  0.6890
 5137SOL    HW225881   1.771   4.956   2.462 -0.4610 -0.8004  0.7597
 5138SOL     OW25882   0.667   0.298   2.259 -0.1696 -0.5350  0.1897
 5138SOL    HW125883   0.759   0.316   2.223 -0.8718  1.0168 -0.9050
 5138SOL    HW225884   0.629   0.217   2.215  0.2824 -0.5977 -0.0947
 5139SOL     OW25885   3.831   9.755   0.525  0.0792 -0.5736 -0.4716
 5139SOL    HW125886   3.897   9.726   0.595 -0.5201 -0.1816  0.2600
 5139SOL    HW225887   3.858   9.845   0.490 -0.0233 -0.4465 -0.2265
 5140SOL     OW25888   0.649   8.353   2.281 -0.3560  0.2185  0.5234
 5140SOL    HW125889   0.650   8.289   2.357  2.3074  1.0217  1.2106
 5140SOL    HW225890   0.676   8.306   2.197 -1.1127 -0.1668  0.4927
 5141SOL     OW25891   8.864   9.885   2.699  0.2506  0.0636  0.0984
 5141SOL    HW125892   8.799   9.810   2.682  0.6417 -0.4018  0.6666
 5141SOL    HW225893   8.837   9.964   2.644 -0.2093 -0.4654 -0.4544
 5142SOL     OW25894   0.269   2.915   3.298 -0.8659  0.1179  0.1317
 5142SOL    HW125895   0.285   2.931   3.201 -0.8151  0.4087  0.1872
 5142SOL    HW225896   0.253   3.003   3.344 -0.0929  0.0493  0.5321
 5143SOL     OW25897   2.537   3.763   0.242  0.0260  0.7174  0.1417
 5143SOL    HW125898   2.538   3.664   0.226  0.4034  0.8377 -0.6159
 5143SOL    HW225899   2.534   3.781   0.340 -0.3585 -0.0476  0.2756
 5144SOL     OW25900   7.292   3.729   3.604  0.0548 -0.0663 -0.0166
 5144SOL    HW125901   7.307   3.682   3.691  0.8532 -1.5681 -0.9351
 5144SOL    HW225902   7.194   3.729   3.583 -0.3237  1.6964  1.6161
 5145SOL     OW25903   1.180   8.413   0.407  0.0453 -0.0861 -0.7305
 5145SOL    HW125904   1.096   8.439   0.358  0.6315  1.2207 -1.0774
 5145SOL    HW225905   1.241   8.492   0.412 -0.2085 -0.0225  2.5638
 5146SOL     OW25906   1.461   4.735   2.317  0.0536 -0.2406 -0.1824
 5146SOL    HW125907   1.435   4.808   2.254 -1.2138 -1.3503 -0.9947
 5146SOL    HW225908   1.463   4.770   2.411  0.6540  1.1069 -0.6959
 5147SOL     OW25909   2.450   4.738   2.342  0.2484 -0.4078 -0.1798
 5147SOL    HW125910   2.464   4.780   2.253  0.4266 -0.2664 -0.0867
 5147SOL    HW225911   2.426   4.642   2.330 -0.7263 -0.1412 -0.4118
 5148SOL     OW25912   4.266   2.664   1.520  0.0127  0.1242  0.0570
 5148SOL    HW125913   4.334   2.619   1.463 -2.9125 -0.2762 -3.2402
 5148SOL    HW225914   4.196   2.598   1.547  0.2048  0.8136  2.3562
 5149SOL     OW25915   3.000   4.443   0.009  0.2531 -0.0185  0.4765
 5149SOL    HW125916   2.919   4.426  -0.046  0.3698  0.7047  0.0851
 5149SOL    HW225917   3.077   4.465  -0.050 -0.1111  2.8065  1.0073
 5150SOL     OW25918   0.313   3.824   2.321 -0.3603 -0.2821 -0.0172
 5150SOL    HW125919   0.411   3.829   2.299 -0.5232 -2.0393 -1.2848
 5150SOL    HW225920   0.265   3.898   2.274  0.2027 -0.0990 -0.3125
 5151SOL     OW25921   2.018   9.958   2.010  0.4904 -0.0231  0.1531
 5151SOL    HW125922   1.952   9.941   2.082  2.1516  2.6525  2.4170
 5151SOL    HW225923   2.008  10.052   1.977  3.1435  0.4393  0.5629
 5152SOL     OW25924   0.452   2.271   0.836 -0.1967 -0.7308 -0.4621
 5152SOL    HW125925   0.519   2.203   0.868  0.5836  0.0369 -0.4370
 5152SOL    HW225926   0.446   2.345   0.902  0.4381  0.2075 -1.4311
 5153SOL     OW25927   0.293   1.057   1.378 -0.8862 -0.5338 -0.1908
 5153SOL    HW125928   0.212   1.041   1.434 -0.7845  0.6867  0.3093
 5153SOL    HW225929   0.313   1.155   1.375  1.6244 -0.9799  1.1625
 5154SOL     OW25930   4.113   4.480   1.711 -0.5516 -0.4187  0.0119
 5154SOL    HW125931   4.111   4.382   1.689  1.8282 -0.7925  1.2256
 5154SOL    HW225932   4.176   4.526   1.648 -1.9078  0.4105 -0.7602
 5155SOL     OW25933   3.903   0.206   1.041  0.0203 -0.1269  0.3848
 5155SOL    HW125934   3.821   0.184   1.094  1.0769 -0.9707  1.6972
 5155SOL    HW225935   3.897   0.162   0.951 -1.3176  0.4640  0.1717
 5156SOL     OW25936   2.320   4.995   1.814  0.0590 -0.0202 -0.8522
 5156SOL    HW125937   2.392   5.041   1.867  0.8442 -0.7488 -1.2841
 5156SOL    HW225938   2.240   5.055   1.809  0.2465  0.3711  0.5163
 5157SOL     OW25939   1.091   7.466   0.077  0.0480 -0.2727 -0.0512
 5157SOL    HW125940   1.091   7.564   0.100 -1.9385 -0.3873  0.5728
 5157SOL    HW225941   1.058   7.414   0.156  0.3958 -1.3858 -0.6291
 5158SOL     OW25942   0.291   5.492   1.706  0.0331 -0.8205  0.2905
 5158SOL    HW125943   0.239   5.472   1.623  0.7735 -1.0507 -0.1210
 5158SOL    HW225944   0.228   5.505   1.782 -0.7594  1.0908 -0.6613
 5159SOL     OW25945   1.729   4.397   3.696  0.2390 -0.4915  0.3331
 5159SOL    HW125946   1.679   4.313   3.675 -0.9800  0.1738  0.5983
 5159SOL    HW225947   1.820   4.373   3.730  0.1286 -1.6947 -0.1920
 5160SOL     OW25948   1.432   1.779   1.412 -0.1671 -0.1637 -0.3523
 5160SOL    HW125949   1.333   1.779   1.397 -0.2623 -0.6606  0.2192
 5160SOL    HW225950   1.460   1.867   1.449 -0.5422 -0.3209  0.3279
 5161SOL     OW25951   8.756   7.730   2.200 -0.7077  0.5327 -0.0128
 5161SOL    HW125952   8.854   7.713   2.188 -0.8912 -0.5735  0.0272
 5161SOL    HW225953   8.740   7.829   2.199  0.5193  0.7559  0.9524
 5162SOL     OW25954   3.031   4.517   2.085  0.1554  0.4591 -0.4656
 5162SOL    HW125955   3.059   4.591   2.146 -1.0650  1.6807 -1.3430
 5162SOL    HW225956   3.111   4.482   2.036  0.9139  0.4340  0.7741
 5163SOL     OW25957   8.691   8.197   0.260  0.1024 -0.1620 -0.2394
 5163SOL    HW125958   8.737   8.239   0.338  0.0412 -0.1784 -0.1949
 5163SOL    HW225959   8.610   8.147   0.291  0.3301 -0.5469 -0.2583
 5164SOL     OW25960   0.308   8.860   0.166  0.1700 -0.0443  0.5980
 5164SOL    HW125961   0.242   8.913   0.218  0.2879 -0.2866  1.0010
 5164SOL    HW225962   0.365   8.807   0.229 -0.8658 -1.7299  0.1490
 5165SOL     OW25963   0.666   4.673   3.654 -0.3303 -0.5439  0.0001
 5165SOL    HW125964   0.715   4.678   3.567  1.0759  0.9154  0.8652
 5165SOL    HW225965   0.702   4.597   3.709  0.4461  0.0653  0.3284
 5166SOL     OW25966   9.012   6.944   3.539 -0.3294  0.6317 -0.3818
 5166SOL    HW125967   9.018   6.889   3.622  1.6281 -0.3581 -1.1351
 5166SOL    HW225968   8.953   7.023   3.555 -1.5636 -0.5905  1.3430
 5167SOL     OW25969   5.602   9.460   1.427  0.3712 -0.1292  0.1998
 5167SOL    HW125970   5.603   9.456   1.327 -1.3380 -0.2626  0.1819
 5167SOL    HW225971   5.563   9.375   1.463  0.8674 -0.0270  0.9849
 5168SOL     OW25972   1.544   4.588   1.293  1.0857  0.4660  0.2315
 5168SOL    HW125973   1.474   4.518   1.275  2.3635  0.0054 -3.4778
 5168SOL    HW225974   1.500   4.674   1.317 -0.9298  0.5658 -3.4001
 5169SOL     OW25975   2.277   3.882   1.654 -0.3528 -0.0875  0.3525
 5169SOL    HW125976   2.262   3.822   1.576  1.9349 -0.0693 -0.1317
 5169SOL    HW225977   2.217   3.962   1.647 -0.2325 -0.1259 -1.3392
 5170SOL     OW25978   3.111   7.669   1.180 -0.6474  0.3214 -0.2764
 5170SOL    HW125979   3.123   7.594   1.116  1.4629  0.0140  0.4413
 5170SOL    HW225980   3.065   7.745   1.134  0.0045 -0.2382 -1.8885
 5171SOL     OW25981   8.469   0.618   2.651 -0.4618 -0.7675  0.2589
 5171SOL    HW125982   8.516   0.580   2.731  0.5781 -1.3626 -0.6146
 5171SOL    HW225983   8.467   0.550   2.578  0.8249  0.5912 -1.0936
 5172SOL     OW25984   9.421   7.390   1.254 -0.2559 -0.1004 -0.6377
 5172SOL    HW125985   9.435   7.460   1.184  1.1407  0.4606  0.2044
 5172SOL    HW225986   9.364   7.317   1.216 -2.5093  1.9079 -1.2490
 5173SOL     OW25987   4.110   9.252   2.584  0.1343 -0.0097 -0.3272
 5173SOL    HW125988   4.173   9.272   2.659  0.7727 -0.9483 -0.6073
 5173SOL    HW225989   4.026   9.213   2.621  0.3013 -0.1317 -0.0736
 5174SOL     OW25990   3.465   8.763   1.521  0.1773  0.4995  0.0463
 5174SOL    HW125991   3.398   8.824   1.480  0.0333 -0.4009 -1.0826
 5174SOL    HW225992   3.434   8.734   1.611 -0.1475  1.4158  0.2326
 5175SOL     OW25993   7.822   6.467   3.000  0.2982  0.2805  0.1059
 5175SOL    HW125994   7.777   6.416   3.073 -1.8050  0.4292 -1.0499
 5175SOL    HW225995   7.839   6.407   2.922  2.9763  0.0030  0.8535
 5176SOL     OW25996   9.119   3.912   1.843 -0.2027 -0.4639 -0.3124
 5176SOL    HW125997   9.046   3.890   1.778 -1.3405  1.0693  0.4136
 5176SOL    HW225998   9.085   3.900   1.936  0.2594  0.9448  0.0391
 5177SOL     OW25999   3.060   7.856   2.655  0.1432  0.0552  0.0415
 5177SOL    HW126000   3.121   7.907   2.715  2.8712 -1.3747 -1.4188
 5177SOL    HW226001   3.017   7.918   2.589  0.2099  1.0346  0.9222
 5178SOL     OW26002   1.556   1.324   0.852 -0.0134 -0.7812  0.2359
 5178SOL    HW126003   1.550   1.418   0.885  0.3507  0.3411 -2.7591
 5178SOL    HW226004   1.464   1.285   0.847 -0.3175 -0.0476  0.0276
 5179SOL     OW26005   3.229   5.310   2.058  0.3417  0.0298 -0.0998
 5179SOL    HW126006   3.292   5.233   2.064 -0.5454 -0.8248 -1.5516
 5179SOL    HW226007   3.261   5.384   2.117  1.3065 -1.3682  1.1560
 5180SOL     OW26008   8.735   7.731   3.378 -0.2888 -0.0594 -0.1044
 5180SOL    HW126009   8.642   7.768   3.380  0.0020  0.7779 -1.7287
 5180SOL    HW226010   8.746   7.676   3.295  0.7973  0.1836 -0.1162
 5181SOL     OW26011   0.214   5.864   2.813 -0.2117 -0.6071  0.6396
 5181SOL    HW126012   0.155   5.846   2.734 -0.8932 -1.9825  1.4323
 5181SOL    HW226013   0.204   5.959   2.842 -1.9041 -0.7768  0.6458
 5182SOL     OW26014   4.316   7.961   1.473 -0.2604 -0.0782 -0.0135
 5182SOL    HW126015   4.341   7.920   1.386 -1.3056  1.8418 -1.2704
 5182SOL    HW226016   4.399   7.977   1.527  0.7426  1.4577 -1.9326
 5183SOL     OW26017   3.118   0.783   2.232 -0.5185 -0.0664 -0.8111
 5183SOL    HW126018   3.085   0.862   2.181  0.7175  1.2709  0.4130
 5183SOL    HW226019   3.189   0.737   2.180 -1.6870 -0.7741 -1.8130
 5184SOL     OW26020   1.694   9.534   2.216 -0.0334 -0.4173  0.4774
 5184SOL    HW126021   1.762   9.464   2.196 -0.6479 -1.2015  1.1130
 5184SOL    HW226022   1.622   9.496   2.274 -0.9424  0.4430 -0.0619
 5185SOL     OW26023   3.532   5.277   1.066  0.4539  0.6077 -0.3879
 5185SOL    HW126024   3.592   5.356   1.080  0.9901  0.3274 -1.1090
 5185SOL    HW226025   3.501   5.243   1.155  1.2961  0.8041 -0.0146
 5186SOL     OW26026   8.377   1.684   1.745 -0.6443 -0.0458  0.0575
 5186SOL    HW126027   8.466   1.728   1.759 -0.3999 -0.6608  0.4408
 5186SOL    HW226028   8.330   1.676   1.833 -0.8389 -0.2388 -0.0638
 5187SOL     OW26029   3.170   3.235   1.607 -0.7922 -0.0945  0.5121
 5187SOL    HW126030   3.264   3.269   1.612 -1.1533  0.8471  1.1507
 5187SOL    HW226031   3.138   3.213   1.700 -1.8918  1.5374  0.5451
 5188SOL     OW26032   2.722   5.670   1.375 -0.8595 -0.5801 -0.0756
 5188SOL    HW126033   2.723   5.572   1.354  0.2391 -0.3002 -1.4214
 5188SOL    HW226034   2.708   5.722   1.291  2.0810  0.5293  0.0469
 5189SOL     OW26035   1.249   6.326   1.142  0.4040 -0.1887  0.4394
 5189SOL    HW126036   1.221   6.406   1.089  0.2699  0.5156  1.5455
 5189SOL    HW226037   1.204   6.244   1.107  0.7847  0.1666 -0.9044
 5190SOL     OW26038   3.837   3.118   2.579 -0.7286 -0.5498  0.3679
 5190SOL    HW126039   3.848   3.064   2.662 -0.9400 -3.2287 -1.3189
 5190SOL    HW226040   3.740   3.134   2.562 -0.6645  0.5055  0.9129
 5191SOL     OW26041   1.065   8.225   1.920 -0.0105 -0.4909  0.0675
 5191SOL    HW126042   1.107   8.313   1.940 -2.5793  0.6437  0.7008
 5191SOL    HW226043   1.042   8.179   2.006 -2.8845  0.3515 -0.1989
 5192SOL     OW26044   3.938   2.521   3.941 -0.3903 -0.2693 -0.4335
 5192SOL    HW126045   3.986   2.516   4.029  2.8270 -0.3175 -2.0941
 5192SOL    HW226046   3.899   2.432   3.919  0.6554 -0.8404 -0.0145
 5193SOL     OW26047   1.572   4.661   0.092  0.2976 -0.0387 -0.3660
 5193SOL    HW126048   1.581   4.592   0.021  0.8602  0.6525 -0.9605
 5193SOL    HW226049   1.624   4.633   0.173  0.5979 -0.2568 -0.6375
 5194SOL     OW26050   1.372   8.617   0.309 -0.1288 -0.6696  0.1461
 5194SOL    HW126051   1.320   8.656   0.232 -0.9013 -0.4647  0.7704
 5194SOL    HW226052   1.411   8.529   0.281  1.9079  0.6641 -1.3953
 5195SOL     OW26053   2.145   0.590   2.547 -0.2989  0.1563 -0.1628
 5195SOL    HW126054   2.046   0.594   2.531 -0.3076 -0.4263 -0.2703
 5195SOL    HW226055   2.190   0.662   2.495 -1.0517  3.1123  3.0550
 5196SOL     OW26056   8.330   2.391   2.529 -0.4899  0.0133  0.0626
 5196SOL    HW126057   8.429   2.391   2.547 -0.5985 -1.2790  0.7006
 5196SOL    HW226058   8.304   2.477   2.486  0.9605  0.2651 -0.3282
 5197SOL     OW26059   9.387   4.279   3.577  0.0899  0.0106  0.0550
 5197SOL    HW126060   9.333   4.281   3.493  0.8862  1.0093 -0.4409
 5197SOL    HW226061   9.327   4.295   3.655 -0.3471  1.1294 -0.4884
 5198SOL     OW26062   2.921   8.850   3.710 -0.1030 -0.3873  0.7995
 5198SOL    HW126063   2.911   8.756   3.743  1.1702 -0.6113  0.5797
 5198SOL    HW226064   2.909   8.853   3.611 -0.3667 -0.2803  0.8337
 5199SOL     OW26065   9.672   9.584   1.846  0.4882 -0.0935  0.3468
 5199SOL    HW126066   9.673   9.530   1.930  1.7480  0.3903  0.6653
 5199SOL    HW226067   9.693   9.679   1.868 -1.6706  0.5331 -0.2181
 5200SOL     OW26068   3.941   8.825   1.923  0.3541  0.1411 -0.1630
 5200SOL    HW126069   3.973   8.772   1.845  1.7985 -1.5754  1.5521
 5200SOL    HW226070   3.847   8.798   1.945  0.9872 -1.5251  0.5283
 5201SOL     OW26071   2.904   7.927   0.038 -0.6374 -0.1704 -0.8177
 5201SOL    HW126072   2.853   7.939   0.123  1.2986 -0.3685  0.3953
 5201SOL    HW226073   2.891   7.834   0.003  0.8438 -1.0228  0.8182
 5202SOL     OW26074   1.415   7.758   4.014  0.2400 -0.0095  0.0982
 5202SOL    HW126075   1.406   7.659   4.010  0.3940 -0.0603  0.8953
 5202SOL    HW226076   1.365   7.800   3.938 -0.1983 -0.6762  0.0201
 5203SOL     OW26077   9.713   2.117   3.808 -0.1641  0.1556  0.6967
 5203SOL    HW126078   9.758   2.093   3.894  0.1708  0.0942  0.5023
 5203SOL    HW226079   9.764   2.188   3.762 -0.7480  0.7139  0.9007
 5204SOL     OW26080   3.357   7.587   3.063  0.3508  0.8220 -0.2821
 5204SOL    HW126081   3.354   7.586   2.963 -1.0639  0.2232 -0.2450
 5204SOL    HW226082   3.267   7.611   3.099  1.0824  1.9603  0.8434
 5205SOL     OW26083   9.316   4.659   3.397  0.2244 -0.5121  0.4182
 5205SOL    HW126084   9.321   4.592   3.323  0.7903  0.8569 -0.8025
 5205SOL    HW226085   9.404   4.664   3.444 -0.2331 -1.6253  1.4237
 5206SOL     OW26086   8.273   4.866   0.737  0.6776 -0.1092 -0.6465
 5206SOL    HW126087   8.284   4.866   0.637  0.8854  0.7240 -0.6266
 5206SOL    HW226088   8.189   4.914   0.761  1.4174  1.0400 -0.3402
 5207SOL     OW26089   8.578   0.114   1.698  0.2069 -0.0232  0.4695
 5207SOL    HW126090   8.507   0.111   1.769 -0.0957 -3.6956  0.0920
 5207SOL    HW226091   8.644   0.042   1.715  2.1819  1.4072 -0.9612
 5208SOL     OW26092   0.352   1.317   1.379  0.5141  0.1149 -0.3627
 5208SOL    HW126093   0.441   1.331   1.423  0.9904  1.4588 -1.6998
 5208SOL    HW226094   0.281   1.360   1.435  0.6218 -1.3734  0.9535
 5209SOL     OW26095   3.753   4.138   3.476  0.3991 -0.7481  0.0858
 5209SOL    HW126096   3.788   4.177   3.561  0.3312  0.2554 -0.3451
 5209SOL    HW226097   3.827   4.126   3.411  0.0551  0.8563 -0.6248
 5210SOL     OW26098   0.357   8.963   1.797 -0.6534  0.5319 -0.5545
 5210SOL    HW126099   0.417   9.019   1.854  0.4217 -1.3123  0.1827
 5210SOL    HW226100   0.402   8.875   1.778 -3.1029 -0.8834 -0.0240
 5211SOL     OW26101   1.121   0.783   1.667  0.3104 -0.0766 -0.1623
 5211SOL    HW126102   1.057   0.803   1.742  0.3222  0.3091 -0.2546
 5211SOL    HW226103   1.111   0.687   1.639  1.0983 -0.5444  1.0949
 5212SOL     OW26104   1.317   1.019   3.184 -0.4194 -0.3179 -0.2614
 5212SOL    HW126105   1.239   1.080   3.198  0.6857  0.9121  0.6267
 5212SOL    HW226106   1.348   0.984   3.272  0.3289 -0.4220 -0.5648
 5213SOL     OW26107   7.612   7.828   2.236  0.6505 -0.2676  0.0977
 5213SOL    HW126108   7.704   7.810   2.200  0.2377  0.2494 -1.2184
 5213SOL    HW226109   7.588   7.756   2.303  1.2791 -1.4305 -0.9021
 5214SOL     OW26110   8.801   5.484   0.696  0.3025  0.2933  0.1249
 5214SOL    HW126111   8.764   5.553   0.634 -0.0770 -0.4875 -0.5228
 5214SOL    HW226112   8.808   5.523   0.789 -1.1852  0.7652  0.0502
 5215SOL     OW26113   9.838   3.148   2.828  0.7067  0.0893 -0.1333
 5215SOL    HW126114   9.824   3.156   2.729  0.2492 -1.4010 -0.1979
 5215SOL    HW226115   9.754   3.175   2.875 -0.1041 -2.1404 -0.2711
 5216SOL     OW26116   2.771   3.722   2.489 -0.3662 -0.0227  0.2552
 5216SOL    HW126117   2.756   3.710   2.391  1.9746  1.6212 -0.3432
 5216SOL    HW226118   2.795   3.634   2.530 -0.8907 -0.6352 -0.7320
 5217SOL     OW26119   4.111   6.833   2.094 -0.1941 -0.0120  0.3936
 5217SOL    HW126120   4.095   6.764   2.164 -2.2367  1.5224  1.4764
 5217SOL    HW226121   4.069   6.803   2.008 -2.2533  0.4673  1.2067
 5218SOL     OW26122   1.768   5.237   3.780 -0.6558  0.7468 -0.2468
 5218SOL    HW126123   1.725   5.163   3.832 -0.2104 -0.1685 -1.1506
 5218SOL    HW226124   1.833   5.285   3.839 -1.5740  0.9710  0.5938
 5219SOL     OW26125   0.636   2.880   0.293 -0.1808 -0.0297  0.5049
 5219SOL    HW126126   0.659   2.846   0.384  1.1969  0.8496  0.5046
 5219SOL    HW226127   0.719   2.916   0.249 -1.0686  0.7242 -0.5802
 5220SOL     OW26128   2.704   2.104   1.028  0.3149 -0.1808  0.2994
 5220SOL    HW126129   2.746   2.109   0.937  0.2169  1.1265  0.3294
 5220SOL    HW226130   2.615   2.150   1.026  0.9040  1.0161  1.3983
 5221SOL     OW26131   0.553   7.091   1.426 -0.2236 -0.0524 -0.2446
 5221SOL    HW126132   0.581   7.043   1.509  4.6061 -0.6574 -2.0515
 5221SOL    HW226133   0.582   7.186   1.430  1.4339 -0.4748 -1.8538
 5222SOL     OW26134   3.359   6.054   3.426  0.3938  0.4630 -0.8279
 5222SOL    HW126135   3.391   6.148   3.432 -0.4448  0.6747  0.4603
 5222SOL    HW226136   3.260   6.053   3.416  0.4009 -0.2874 -0.8651
 5223SOL     OW26137   2.659   2.068   4.009  0.5015  0.0137  0.0692
 5223SOL    HW126138   2.751   2.072   3.971  0.6045 -0.5849  0.2546
 5223SOL    HW226139   2.641   1.976   4.044  0.4707  0.5808  1.6058
 5224SOL     OW26140   1.715   0.130   3.877  0.0065 -0.0019 -0.6785
 5224SOL    HW126141   1.723   0.156   3.973 -0.8679  0.6943 -0.7880
 5224SOL    HW226142   1.799   0.084   3.848  0.1718 -0.4624  0.4872
 5225SOL     OW26143   8.197   2.658   2.538 -0.0760  0.7132  0.0685
 5225SOL    HW126144   8.184   2.635   2.634 -1.7503 -0.1645 -0.3532
 5225SOL    HW226145   8.254   2.740   2.531  2.0617 -0.5962  1.7135
 5226SOL     OW26146   2.140   7.480   3.700  0.0624 -0.6797 -0.3843
 5226SOL    HW126147   2.070   7.414   3.730  0.9681 -1.0987  0.8282
 5226SOL    HW226148   2.172   7.455   3.609 -0.9841 -0.7908 -0.7334
 5227SOL     OW26149   3.426   3.736   2.503  0.4647 -0.4038  0.2846
 5227SOL    HW126150   3.412   3.637   2.513 -0.1257 -0.3412  0.1002
 5227SOL    HW226151   3.345   3.785   2.535  0.0153 -0.0642 -1.3128
 5228SOL     OW26152   0.398   5.515   3.311 -0.7075  0.5105 -0.2245
 5228SOL    HW126153   0.306   5.482   3.330 -1.3404  1.4531 -1.5906
 5228SOL    HW226154   0.453   5.440   3.274  0.4351 -1.2709  4.5865
 5229SOL     OW26155   9.570   3.395   3.283 -0.3931  0.0476  0.3860
 5229SOL    HW126156   9.647   3.383   3.221  0.0728 -0.5888  1.0719
 5229SOL    HW226157   9.602   3.390   3.378 -1.2686 -0.1575  0.6811
 5230SOL     OW26158   2.472   5.883   1.003 -0.6132 -0.0802  0.3059
 5230SOL    HW126159   2.395   5.839   0.956  0.7179 -0.5829 -1.4468
 5230SOL    HW226160   2.443   5.971   1.038 -2.1194 -0.4568  0.0486
 5231SOL     OW26161   0.257   5.237   0.938  0.3678  0.3891  0.2085
 5231SOL    HW126162   0.174   5.262   0.889  0.5056 -1.7222 -1.1662
 5231SOL    HW226163   0.284   5.144   0.914  2.9287  0.8793  0.9214
 5232SOL     OW26164   3.928   8.525   2.735  0.2317  0.4851 -0.2131
 5232SOL    HW126165   3.886   8.615   2.743 -1.3210 -0.2790  0.3251
 5232SOL    HW226166   3.984   8.508   2.816 -0.9247  0.2329  0.5465
 5233SOL     OW26167   8.999   1.237   2.903 -0.6346 -0.3928 -0.1527
 5233SOL    HW126168   8.928   1.191   2.850 -0.2732 -0.6331 -0.4242
 5233SOL    HW226169   9.041   1.173   2.966  0.2284 -0.5672 -0.9015
 5234SOL     OW26170   7.006   0.229   3.328  0.3885  0.0496 -0.5166
 5234SOL    HW126171   7.043   0.239   3.236  2.3852  0.1359  0.2594
 5234SOL    HW226172   7.081   0.214   3.393 -0.9317  0.5958  1.1897
 5235SOL     OW26173   1.568   6.038   1.120 -0.3583 -0.1923 -0.3730
 5235SOL    HW126174   1.553   6.038   1.021  0.3449 -0.5608 -0.4873
 5235SOL    HW226175   1.558   6.130   1.156  0.9765  0.2288 -1.0433
 5236SOL     OW26176   3.561   1.621   2.046 -0.4817 -0.0036 -0.3057
 5236SOL    HW126177   3.526   1.528   2.033  0.0338 -0.1888 -0.3688
 5236SOL    HW226178   3.505   1.685   1.993 -1.5466 -0.1316  0.6579
 5237SOL     OW26179   7.806   1.113   1.045  0.0462  0.5936 -0.0235
 5237SOL    HW126180   7.707   1.109   1.029 -0.2985  0.2984  2.0441
 5237SOL    HW226181   7.848   1.029   1.010 -0.9412 -0.8584  2.1274
 5238SOL     OW26182   1.391   6.398   2.699  0.0828 -0.1282 -0.2091
 5238SOL    HW126183   1.449   6.361   2.772 -0.3415 -0.7166 -0.1733
 5238SOL    HW226184   1.433   6.482   2.664 -0.1372  0.6226  1.2978
 5239SOL     OW26185   5.059   9.666   3.499 -0.3703  0.1120  0.2163
 5239SOL    HW126186   5.130   9.646   3.432 -1.5718 -1.5063 -0.5861
 5239SOL    HW226187   4.991   9.727   3.458 -0.5339 -0.0028  0.3176
 5240SOL     OW26188   8.355   9.616   3.641 -0.0429  0.0615  0.4725
 5240SOL    HW126189   8.437   9.642   3.590 -1.5115  3.1822 -0.5042
 5240SOL    HW226190   8.359   9.520   3.666  2.8073 -0.4271 -1.6467
 5241SOL     OW26191   9.132   7.979   2.136  0.4622  0.2216  0.3743
 5241SOL    HW126192   9.149   7.943   2.228 -3.5135  0.0182  1.0858
 5241SOL    HW226193   9.089   8.068   2.143 -2.9241 -1.2330 -1.2070
 5242SOL     OW26194   5.093   9.804   2.616  0.3386  0.0654  0.2891
 5242SOL    HW126195   5.117   9.885   2.563 -0.2843 -0.5077 -0.9013
 5242SOL    HW226196   5.174   9.768   2.661  0.8008  0.7926  0.0492
 5243SOL     OW26197   0.083   8.932   0.624  0.2018  0.1529  0.4662
 5243SOL    HW126198   0.105   8.997   0.552 -0.2688  0.7334  0.8409
 5243SOL    HW226199   0.156   8.863   0.631  0.9335  0.9127  0.3938
 5244SOL     OW26200   2.384   2.674   1.916 -0.4293  0.1956  0.0939
 5244SOL    HW126201   2.420   2.687   2.008  2.8492 -1.1781 -0.9106
 5244SOL    HW226202   2.365   2.763   1.875 -3.1273  0.7794  2.5103
 5245SOL     OW26203   5.149   8.790   1.196 -0.2517 -0.0291  0.1616
 5245SOL    HW126204   5.159   8.691   1.207  1.5101 -0.1496 -2.0648
 5245SOL    HW226205   5.202   8.837   1.266 -1.4786 -0.6382  1.5213
 5246SOL     OW26206   0.643   8.157   0.211  0.4605  0.3279  0.2316
 5246SOL    HW126207   0.726   8.142   0.158  0.2918 -2.3118  0.6416
 5246SOL    HW226208   0.563   8.137   0.154  0.2406 -1.0329  0.9858
 5247SOL     OW26209   9.085   6.117   2.108  0.3380 -0.0125 -0.0296
 5247SOL    HW126210   9.113   6.140   2.201 -1.8448  1.5550  0.2790
 5247SOL    HW226211   9.014   6.047   2.111  0.8183 -0.5260 -0.5579
 5248SOL     OW26212   9.215   6.317   3.772  0.4574  0.2832  0.2415
 5248SOL    HW126213   9.149   6.351   3.839 -0.5918 -2.2774  0.5746
 5248SOL    HW226214   9.282   6.258   3.817  1.1269  0.3790 -0.6049
 5249SOL     OW26215   0.284   2.110   2.098 -0.3222 -0.7584 -0.4310
 5249SOL    HW126216   0.284   2.053   2.180  0.4995  0.8494  0.7104
 5249SOL    HW226217   0.195   2.153   2.087 -0.0042  0.1294  0.4141
 5250SOL     OW26218   2.135   4.372   2.327  0.2977 -0.0899 -0.0293
 5250SOL    HW126219   2.093   4.330   2.247 -0.9664  1.2383 -0.0776
 5250SOL    HW226220   2.072   4.439   2.367  1.4901  0.3151  1.2078
 5251SOL     OW26221   4.531   2.791   1.147  0.6708  0.6566 -0.0903
 5251SOL    HW126222   4.601   2.765   1.081 -1.1571 -0.2149 -1.7505
 5251SOL    HW226223   4.449   2.821   1.099 -0.7166  0.0153  1.7877
 5252SOL     OW26224   2.380   7.522   3.782  0.0446 -0.2260 -0.0682
 5252SOL    HW126225   2.291   7.496   3.744  0.6601  1.0739 -2.5049
 5252SOL    HW226226   2.430   7.440   3.808 -2.2457 -0.9497  2.3448
 5253SOL     OW26227   9.143   0.400   2.938  0.2836  0.0369  0.1728
 5253SOL    HW126228   9.221   0.449   2.978  0.5140  0.3655 -0.6715
 5253SOL    HW226229   9.079   0.466   2.900 -0.5930 -0.2174  1.1888
 5254SOL     OW26230   9.934   0.708   2.749  0.1317 -1.2754  0.1597
 5254SOL    HW126231   9.972   0.800   2.746 -1.2703 -0.7073 -1.1121
 5254SOL    HW226232   9.895   0.691   2.839 -1.9499  0.3923 -0.3780
 5255SOL     OW26233   1.025   5.079   3.968  0.1527 -0.2208 -0.4203
 5255SOL    HW126234   1.057   5.017   4.040  0.2143 -1.4590 -1.4852
 5255SOL    HW226235   1.104   5.123   3.925  0.0073  2.1609  1.6658
 5256SOL     OW26236   1.428   1.026   2.640 -0.1285  0.4543  0.0809
 5256SOL    HW126237   1.390   1.003   2.730 -0.1914  1.9845  0.4606
 5256SOL    HW226238   1.511   0.972   2.624 -0.5667 -0.4210  0.7049
 5257SOL     OW26239   8.730   4.486   2.225  0.3502 -0.0729  0.4051
 5257SOL    HW126240   8.824   4.460   2.246  0.9137  0.5732 -1.2533
 5257SOL    HW226241   8.726   4.584   2.205 -0.6485 -0.1304  0.2861
 5258SOL     OW26242   8.616   2.360   2.619  0.1127 -0.2076 -0.3558
 5258SOL    HW126243   8.582   2.395   2.706  0.1703 -1.6597  0.2632
 5258SOL    HW226244   8.716   2.357   2.620  0.1283  0.1490 -0.6294
 5259SOL     OW26245   9.316   0.098   2.814  0.1471  0.7129  0.1732
 5259SOL    HW126246   9.269   0.065   2.897 -0.2113  0.3818 -0.1569
 5259SOL    HW226247   9.253   0.154   2.761 -0.3096 -0.8528 -0.9548
 5260SOL     OW26248   3.383   9.457   2.262  0.5154  0.5471 -0.4617
 5260SOL    HW126249   3.441   9.421   2.189  0.6230  1.1090 -0.6575
 5260SOL    HW226250   3.424   9.437   2.350  0.1967 -0.4652 -0.5394
 5261SOL     OW26251   1.714   0.569   0.154  0.6787  0.3261 -0.0078
 5261SOL    HW126252   1.689   0.630   0.079 -0.5077  0.2586  0.3271
 5261SOL    HW226253   1.681   0.607   0.241 -0.2378 -0.8715  0.1800
 5262SOL     OW26254   3.380   1.468   3.896  0.0330  0.2657 -0.7359
 5262SOL    HW126255   3.373   1.551   3.840 -1.7520  0.4892 -0.2037
 5262SOL    HW226256   3.443   1.484   3.972 -0.7422  1.3380 -0.3039
 5263SOL     OW26257   8.992   7.474   2.023 -0.2150 -0.1827 -0.3726
 5263SOL    HW126258   9.035   7.412   1.957 -0.3953 -0.0917 -0.5761
 5263SOL    HW226259   8.959   7.421   2.102  1.2337 -0.1220  0.2968
 5264SOL     OW26260   0.500   6.539   2.666  0.5546  0.0318  0.7119
 5264SOL    HW126261   0.466   6.566   2.575 -2.1686 -1.1528  1.3260
 5264SOL    HW226262   0.591   6.499   2.656  0.7611  0.9194 -1.3595
 5265SOL     OW26263   6.236   8.067   2.358 -0.2828 -0.3418 -0.6356
 5265SOL    HW126264   6.301   8.118   2.415 -0.8473 -0.4794  0.1397
 5265SOL    HW226265   6.154   8.045   2.412 -0.7246 -0.6765 -1.4333
 5266SOL     OW26266   7.949   0.037   2.138 -0.0116 -0.5102 -0.4527
 5266SOL    HW126267   7.962   0.078   2.229 -1.2552 -1.0581 -0.0117
 5266SOL    HW226268   7.981   0.101   2.068 -0.2198  0.4585  0.3200
 5267SOL     OW26269   9.019   8.602   0.503  0.4169  0.2641  0.3186
 5267SOL    HW126270   8.933   8.551   0.510  1.4961 -1.3243  2.4625
 5267SOL    HW226271   9.063   8.581   0.415 -0.9906  0.4911 -0.4563
 5268SOL     OW26272   3.009   4.696   0.774  0.0466  1.2104 -0.4452
 5268SOL    HW126273   3.098   4.670   0.736 -0.2505 -0.3473 -0.0966
 5268SOL    HW226274   3.011   4.688   0.874  0.5650  4.5008 -0.1449
 5269SOL     OW26275   1.943   6.739   1.111  0.0589  0.0999  0.4258
 5269SOL    HW126276   1.941   6.685   1.027  2.6619 -1.5030  1.3477
 5269SOL    HW226277   1.851   6.772   1.132 -1.3811 -3.0399 -0.7631
 5270SOL     OW26278   2.905   0.943   0.337  0.4617  0.1793  0.1774
 5270SOL    HW126279   2.900   0.932   0.436 -0.0915 -1.3734 -0.0175
 5270SOL    HW226280   2.884   1.038   0.314  0.0904  0.4364  1.5151
 5271SOL     OW26281   7.574   3.674   0.392 -0.0925 -0.6291  0.6990
 5271SOL    HW126282   7.621   3.753   0.352 -1.0054  0.9924  2.7145
 5271SOL    HW226283   7.620   3.646   0.476 -0.6277 -1.3093  0.7688
 5272SOL     OW26284   4.996   9.657   1.398 -0.3019 -0.2561 -0.2642
 5272SOL    HW126285   5.071   9.723   1.395  0.3885 -1.0689 -0.9682
 5272SOL    HW226286   5.032   9.567   1.423 -1.2352 -0.3785  0.6751
 5273SOL     OW26287   0.560   9.338   0.654  0.1261 -0.6213  0.3468
 5273SOL    HW126288   0.637   9.310   0.711  1.5710 -1.5677 -2.0380
 5273SOL    HW226289   0.482   9.277   0.671  0.3699 -0.6111  1.6108
 5274SOL     OW26290   1.766   3.906   0.442 -0.1809  0.2700  0.0814
 5274SOL    HW126291   1.807   3.898   0.532  0.8504 -0.2357 -0.4196
 5274SOL    HW226292   1.819   3.852   0.376  0.6964  2.7573 -1.3277
 5275SOL     OW26293   3.851   3.273   2.925  0.0377  0.0076  0.3305
 5275SOL    HW126294   3.854   3.331   2.844  0.8080 -0.4886  0.0039
 5275SOL    HW226295   3.890   3.323   3.003 -0.7447  0.4997  0.4134
 5276SOL     OW26296   3.807   7.890   3.882 -0.3562  0.6409 -0.1918
 5276SOL    HW126297   3.782   7.906   3.786 -1.4358 -0.1830 -0.0749
 5276SOL    HW226298   3.775   7.966   3.938 -1.5770  0.1573 -0.2139
 5277SOL     OW26299   8.961   9.789   2.365 -0.1897  0.1852 -0.3327
 5277SOL    HW126300   9.052   9.749   2.379  0.2184  1.1472 -0.1914
 5277SOL    HW226301   8.903   9.767   2.444 -0.0742 -0.4276 -0.4219
 5278SOL     OW26302   6.150   8.073   2.074 -0.4972  0.5955  0.0768
 5278SOL    HW126303   6.108   7.984   2.059 -1.7042  1.0848  0.4086
 5278SOL    HW226304   6.182   8.079   2.169  0.8998 -0.0047 -0.3515
 5279SOL     OW26305   8.161   7.337   3.260  0.5851  0.3914 -0.9810
 5279SOL    HW126306   8.253   7.300   3.253 -0.2077 -1.6831 -0.6926
 5279SOL    HW226307   8.120   7.344   3.169 -0.0655 -1.5681 -0.8555
 5280SOL     OW26308   3.029   9.517   0.401 -0.1155  0.0442  0.2970
 5280SOL    HW126309   3.124   9.546   0.400 -0.1141  0.3227  3.4674
 5280SOL    HW226310   2.970   9.596   0.416 -0.6833 -0.4457  0.6814
 5281SOL     OW26311   0.544   3.866   2.862 -0.0953  0.1641  0.4532
 5281SOL    HW126312   0.444   3.858   2.860 -0.1434  0.8375 -0.6818
 5281SOL    HW226313   0.573   3.938   2.798  0.9695  1.6815  2.6073
 5282SOL     OW26314   3.687   7.367   3.920  0.1035  0.0784  0.1530
 5282SOL    HW126315   3.690   7.309   3.838 -0.2057  0.6038 -0.2358
 5282SOL    HW226316   3.622   7.442   3.905 -0.6472 -0.3456  1.2307
 5283SOL     OW26317   2.974   9.918   3.664 -0.1435 -0.0259 -0.6117
 5283SOL    HW126318   2.874   9.920   3.656 -0.2250 -2.5933 -0.6338
 5283SOL    HW226319   3.003   9.983   3.734 -1.9308 -0.0454  0.1754
 5284SOL     OW26320   0.780   7.838   2.442 -0.0089 -0.5013  0.0109
 5284SOL    HW126321   0.865   7.794   2.413  0.2388  0.9150 -1.4337
 5284SOL    HW226322   0.800   7.908   2.510  0.0309  0.1235 -0.6411
 5285SOL     OW26323   1.056   0.166   0.055  0.1589  0.4049 -0.1390
 5285SOL    HW126324   0.975   0.116   0.086  1.1606 -0.8844  0.4269
 5285SOL    HW226325   1.031   0.261   0.037 -1.2981  0.2313  0.8476
 5286SOL     OW26326   2.078   0.546   3.824  0.0276  0.6230  0.0127
 5286SOL    HW126327   2.119   0.637   3.830  1.7406 -0.2086  1.4957
 5286SOL    HW226328   2.032   0.525   3.911 -0.1015 -0.0432 -0.2137
 5287SOL     OW26329   8.106   7.495   2.137 -0.0153 -0.3491  0.2146
 5287SOL    HW126330   8.097   7.451   2.048  2.7932 -4.0542  1.6530
 5287SOL    HW226331   8.017   7.531   2.165 -1.7302 -2.3164 -2.4761
 5288SOL     OW26332   9.092   5.616   1.786  0.2194  0.0750  0.0562
 5288SOL    HW126333   9.128   5.524   1.770 -0.6103 -0.3107  0.3910
 5288SOL    HW226334   9.167   5.677   1.809  0.9522 -0.2083 -1.5154
 5289SOL     OW26335   9.417   7.615   1.063  0.4400  0.4998  0.5099
 5289SOL    HW126336   9.412   7.709   1.097  1.0668  0.0566  1.8920
 5289SOL    HW226337   9.353   7.603   0.987  0.2935  2.0152  0.3783
 5290SOL     OW26338   3.099   6.351   0.074 -0.1319  0.6566 -0.2586
 5290SOL    HW126339   3.168   6.405   0.122  1.8538 -1.0429 -1.1487
 5290SOL    HW226340   3.060   6.405   0.000  1.0260  1.2671 -0.4292
 5291SOL     OW26341   3.169   1.314   3.399 -0.3235 -0.0930 -0.3679
 5291SOL    HW126342   3.146   1.234   3.343  0.5237 -0.9428  0.4857
 5291SOL    HW226343   3.086   1.364   3.422 -0.8350 -0.6050 -1.0748
 5292SOL     OW26344   1.559   8.057   3.947 -0.2297  0.1389  0.2585
 5292SOL    HW126345   1.651   8.031   3.920 -0.0245  2.0239 -0.9685
 5292SOL    HW226346   1.550   8.054   4.047  1.6296  1.4543  0.4796
 5293SOL     OW26347   2.024   3.836   2.420 -0.2457  0.2042 -0.6449
 5293SOL    HW126348   1.939   3.825   2.471 -0.3160  0.6828 -0.6524
 5293SOL    HW226349   2.004   3.843   2.323 -0.1700 -0.0041 -0.6759
 5294SOL     OW26350   3.171   2.340   0.630 -0.5635 -0.4665 -0.1151
 5294SOL    HW126351   3.169   2.429   0.584  1.2079  0.4274  1.4912
 5294SOL    HW226352   3.266   2.309   0.638 -1.0735 -1.9020  0.4962
 5295SOL     OW26353   0.276   4.054   1.503 -0.3374 -0.4553  0.5169
 5295SOL    HW126354   0.222   4.121   1.554 -0.8470 -0.5412  0.0913
 5295SOL    HW226355   0.256   4.062   1.406  0.2611 -0.6318  0.3814
 5296SOL     OW26356   2.022   4.772   2.628  0.0182 -0.9574 -0.8005
 5296SOL    HW126357   1.993   4.677   2.642  0.4825 -1.4354 -2.8492
 5296SOL    HW226358   1.944   4.833   2.642 -0.0534 -1.5490  1.4658
 5297SOL     OW26359   0.742   7.873   2.971 -0.0379  0.4305  0.3789
 5297SOL    HW126360   0.654   7.918   2.956 -0.9454 -1.0608  1.0535
 5297SOL    HW226361   0.783   7.907   3.055  0.3177  1.5578 -0.2437
 5298SOL     OW26362   4.771   0.542   0.107  0.1645  0.1283  0.5279
 5298SOL    HW126363   4.722   0.597   0.175 -0.3741 -0.5590  0.7026
 5298SOL    HW226364   4.730   0.451   0.103 -0.2334  0.3770 -1.2024
 5299SOL     OW26365   4.110   4.197   1.680  0.4866  0.4386  0.5084
 5299SOL    HW126366   4.076   4.119   1.732 -0.3950  1.5494  1.6127
 5299SOL    HW226367   4.204   4.179   1.652  0.1635 -1.1931  0.3930
 5300SOL     OW26368   1.823   4.851   1.413  0.4521  0.0332 -0.5049
 5300SOL    HW126369   1.810   4.752   1.426 -0.6900  0.3536  0.9981
 5300SOL    HW226370   1.870   4.867   1.326 -0.9946 -1.7377 -1.6750
 5301SOL     OW26371   3.554   4.323   1.821  0.3118  0.0023  0.0091
 5301SOL    HW126372   3.578   4.405   1.769 -0.4659  0.8443  0.9615
 5301SOL    HW226373   3.483   4.272   1.772  0.1373  0.3814 -0.1323
 5302SOL     OW26374   2.113   5.018   0.039 -0.1875 -0.9084  0.2986
 5302SOL    HW126375   2.078   5.011  -0.055 -1.1843  1.0354  0.5162
 5302SOL    HW226376   2.211   5.038   0.036 -0.2034 -0.9026 -0.3259
 5303SOL     OW26377   2.404   3.610   1.674  0.0922 -0.1791  0.1267
 5303SOL    HW126378   2.414   3.679   1.747 -1.7548 -0.4246  0.6370
 5303SOL    HW226379   2.331   3.547   1.698  0.1319 -0.8643 -1.5101
 5304SOL     OW26380   1.807   7.210   0.785  0.1950  0.0283  0.3494
 5304SOL    HW126381   1.883   7.146   0.795  0.5841  0.5119  0.4785
 5304SOL    HW226382   1.834   7.286   0.726 -1.0764 -1.1802 -1.8485
 5305SOL     OW26383   4.545   3.152   3.066  0.2064  0.1908  0.9109
 5305SOL    HW126384   4.555   3.249   3.091 -1.8699  0.6860 -0.0677
 5305SOL    HW226385   4.518   3.145   2.970 -0.7287 -1.3137  1.2777
 5306SOL     OW26386   8.750   3.872   3.912 -0.1879 -0.0527  0.0025
 5306SOL    HW126387   8.755   3.778   3.879  0.1332  0.2190 -0.7448
 5306SOL    HW226388   8.654   3.902   3.909 -0.1225  0.0816 -1.0303
 5307SOL     OW26389   8.529   4.854   3.532 -0.0326  0.0731  0.0324
 5307SOL    HW126390   8.603   4.860   3.599  0.3374 -0.2906 -0.3424
 5307SOL    HW226391   8.558   4.796   3.456 -1.1019 -0.9386  0.3961
 5308SOL     OW26392   2.359   6.706   1.280 -0.3947  0.5848  0.4958
 5308SOL    HW126393   2.329   6.633   1.217  0.6703  0.1102  0.5185
 5308SOL    HW226394   2.358   6.671   1.374  0.2267  0.5638  0.4951
 5309SOL     OW26395   0.117   1.534   2.095 -0.4311 -0.0560 -0.4438
 5309SOL    HW126396   0.131   1.471   2.019 -0.9559 -0.1900 -0.4331
 5309SOL    HW226397   0.183   1.515   2.167 -1.3364 -1.3725  0.0609
 5310SOL     OW26398   8.709   2.818   0.675 -0.1605 -0.5552 -0.1237
 5310SOL    HW126399   8.611   2.820   0.692 -0.2697 -2.0217 -0.5445
 5310SOL    HW226400   8.729   2.757   0.598  0.9244  1.0150 -1.1280
 5311SOL     OW26401   2.142   6.201   3.023 -0.7344 -0.0654  0.3024
 5311SOL    HW126402   2.094   6.264   3.084 -0.3767 -2.6292  3.3388
 5311SOL    HW226403   2.078   6.131   2.991 -0.5677  0.4287 -1.1839
 5312SOL     OW26404   3.091   7.491   2.369 -0.0923  0.2291  0.1696
 5312SOL    HW126405   2.994   7.468   2.378 -0.2848  1.0874  0.3601
 5312SOL    HW226406   3.131   7.437   2.295  0.0530 -2.4501  2.1212
 5313SOL     OW26407   0.517   1.334   2.098 -0.4743  0.1389  0.4300
 5313SOL    HW126408   0.442   1.341   2.032 -0.8225 -1.1438  0.6752
 5313SOL    HW226409   0.483   1.292   2.182  0.6512 -0.9725  0.3352
 5314SOL     OW26410   9.088   6.726   1.030  0.3652  0.2952 -0.1687
 5314SOL    HW126411   9.043   6.781   0.960  0.0611  0.7131  0.3472
 5314SOL    HW226412   9.035   6.732   1.116  1.1191  0.3788  0.2940
 5315SOL     OW26413   9.129   2.718   2.192  0.2960  0.2680 -0.4114
 5315SOL    HW126414   9.089   2.710   2.283  2.2095  0.5602  0.4963
 5315SOL    HW226415   9.063   2.760   2.130 -1.3456 -0.7445  0.6091
 5316SOL     OW26416   3.227   4.742   1.061  0.5476 -0.0741  0.4421
 5316SOL    HW126417   3.244   4.834   1.098  0.9675  0.8743 -1.9772
 5316SOL    HW226418   3.132   4.717   1.076  0.4513  0.7202  1.1976
 5317SOL     OW26419   3.490   0.227   2.783 -0.2853  0.5725  0.2326
 5317SOL    HW126420   3.545   0.311   2.772  0.4534  0.2105  1.0979
 5317SOL    HW226421   3.399   0.251   2.816 -0.8770  1.2402 -1.8308
 5318SOL     OW26422   9.710   3.874   3.869  0.3903 -0.0356 -0.0873
 5318SOL    HW126423   9.635   3.937   3.891  0.2195 -1.1382  2.7342
 5318SOL    HW226424   9.773   3.869   3.946  1.0007 -2.4654 -0.7026
 5319SOL     OW26425   4.620   9.470   0.184 -0.1749 -0.1093 -0.2984
 5319SOL    HW126426   4.523   9.462   0.158  0.4880 -2.9179 -2.0884
 5319SOL    HW226427   4.673   9.495   0.103  0.6366  1.4114  0.6787
 5320SOL     OW26428   2.207   3.400   3.770 -0.0073 -0.3748  0.0773
 5320SOL    HW126429   2.291   3.446   3.795 -1.0328  1.3747  0.3625
 5320SOL    HW226430   2.217   3.301   3.784  1.7221 -0.0975  0.8208
 5321SOL     OW26431   4.746   0.182   3.368 -0.4463  0.5604  0.0578
 5321SOL    HW126432   4.764   0.171   3.271 -1.5792 -1.3721  0.0628
 5321SOL    HW226433   4.823   0.146   3.421 -0.5724  0.0947 -0.0818
 5322SOL     OW26434   8.024   5.932   2.073 -0.5002  0.3077  0.3014
 5322SOL    HW126435   8.035   5.862   2.003 -1.5359  1.0191 -0.5880
 5322SOL    HW226436   7.950   5.905   2.136  0.0278 -0.0469  0.7741
 5323SOL     OW26437   1.165   9.367   0.119  0.2746  0.3396 -0.3045
 5323SOL    HW126438   1.132   9.319   0.037 -0.4294  1.1082 -0.4780
 5323SOL    HW226439   1.088   9.382   0.181  0.7301  0.1361  0.3084
 5324SOL     OW26440   8.327   9.221   0.468  0.3662  0.3970 -0.2036
 5324SOL    HW126441   8.242   9.215   0.521 -0.5007 -1.1467 -1.7156
 5324SOL    HW226442   8.400   9.173   0.517 -0.0977  0.1217  0.2216
 5325SOL     OW26443   6.824   8.467   2.363  0.0065 -0.2475 -0.8531
 5325SOL    HW126444   6.862   8.456   2.271 -0.0573 -1.3865 -0.7485
 5325SOL    HW226445   6.897   8.458   2.430  0.0354  0.4862 -0.7743
 5326SOL     OW26446   9.001   7.438   0.545 -0.2266 -0.3645  0.4113
 5326SOL    HW126447   8.903   7.420   0.554 -0.4028 -0.7578 -2.1565
 5326SOL    HW226448   9.019   7.487   0.460  1.7812  0.1279  1.0833
 5327SOL     OW26449   9.380   6.305   2.893 -0.5465 -0.4109 -0.3941
 5327SOL    HW126450   9.353   6.312   2.797 -2.6578 -0.4733  0.1642
 5327SOL    HW226451   9.301   6.276   2.947 -0.3747  3.1489  1.8848
 5328SOL     OW26452   9.135   0.965   3.372  0.1218  0.8276 -0.4410
 5328SOL    HW126453   9.178   0.886   3.415 -0.4471  1.4835  1.3773
 5328SOL    HW226454   9.176   0.981   3.282  1.7989 -0.1642  0.1367
 5329SOL     OW26455   1.047   4.894   1.660 -0.0969 -0.1540  0.5202
 5329SOL    HW126456   0.963   4.883   1.713  0.4469  0.5159  1.5604
 5329SOL    HW226457   1.026   4.940   1.574 -0.7994  0.0418  0.7870
 5330SOL     OW26458   9.257   5.827   1.408 -0.7624  1.0897 -0.0868
 5330SOL    HW126459   9.299   5.869   1.328 -1.3775  0.9493 -0.4821
 5330SOL    HW226460   9.187   5.762   1.379  0.2130 -0.2516  0.5197
 5331SOL     OW26461   8.743   4.383   0.153  0.6421 -0.4696 -0.1500
 5331SOL    HW126462   8.707   4.442   0.080 -0.3589 -1.1101 -0.1876
 5331SOL    HW226463   8.755   4.290   0.118  0.7261 -0.6438  0.3353
 5332SOL     OW26464   0.053   2.651   0.417 -0.3077  0.4319  0.2828
 5332SOL    HW126465   0.046   2.724   0.485 -1.4956 -0.3151  0.9859
 5332SOL    HW226466   0.050   2.562   0.463  2.0872 -0.0696 -0.4789
 5333SOL     OW26467   8.277   7.964   2.145  0.3042 -0.1386 -0.1573
 5333SOL    HW126468   8.277   7.867   2.166 -0.4600 -0.0402  0.3560
 5333SOL    HW226469   8.355   8.008   2.188 -0.8061 -0.0826  1.8606
 5334SOL     OW26470   0.459   6.711   1.623 -0.2215  0.1052 -0.0678
 5334SOL    HW126471   0.413   6.772   1.559 -1.8622  1.6498  2.4837
 5334SOL    HW226472   0.440   6.616   1.598 -1.0321  0.6766 -1.7042
 5335SOL     OW26473   4.808   8.521   4.049  0.1581  0.0357  0.2049
 5335SOL    HW126474   4.799   8.558   4.141  0.1671 -3.0055  1.5041
 5335SOL    HW226475   4.736   8.559   3.990 -0.1546  1.6220  1.5981
 5336SOL     OW26476   9.581   0.153   2.072  0.0027  0.3734 -0.4970
 5336SOL    HW126477   9.498   0.142   2.018 -0.3380 -0.2718  0.1310
 5336SOL    HW226478   9.595   0.070   2.128  0.1266  1.1724  0.6785
 5337SOL     OW26479   0.871   7.496   1.054 -0.1681  0.2097  0.4215
 5337SOL    HW126480   0.925   7.580   1.045  0.3751 -0.1925 -0.0727
 5337SOL    HW226481   0.816   7.502   1.137  0.7774  0.5440  1.0429
 5338SOL     OW26482   3.683   5.725   3.099 -0.2862  0.2122 -0.3457
 5338SOL    HW126483   3.760   5.763   3.048 -0.4375  0.1442 -0.6253
 5338SOL    HW226484   3.677   5.771   3.188  0.7340 -0.5265  0.1211
 5339SOL     OW26485   9.663   1.394   0.351 -0.6466 -0.3666  0.3345
 5339SOL    HW126486   9.711   1.425   0.269 -2.2366  0.1677 -0.3967
 5339SOL    HW226487   9.565   1.396   0.336 -0.9738 -0.1809  2.2803
 5340SOL     OW26488   3.804   3.852   3.641 -0.1206 -0.5088  1.0685
 5340SOL    HW126489   3.739   3.913   3.688  0.7367  0.3879  1.1196
 5340SOL    HW226490   3.796   3.760   3.679 -0.4905 -0.1280  1.9502
 5341SOL     OW26491   3.403   7.943   3.587  0.3376 -0.7730 -0.3228
 5341SOL    HW126492   3.462   7.890   3.526 -1.6716 -2.6684 -0.6745
 5341SOL    HW226493   3.444   7.947   3.678  1.2817 -1.5857 -0.7049
 5342SOL     OW26494   5.512   9.435   1.099  0.3174 -0.2633  0.0146
 5342SOL    HW126495   5.506   9.535   1.098  0.4328 -0.2111  2.6608
 5342SOL    HW226496   5.423   9.396   1.075  0.0643  0.4528 -0.2412
 5343SOL     OW26497   1.520   4.185   3.276 -0.2338 -0.6494 -0.3732
 5343SOL    HW126498   1.530   4.089   3.252 -1.1720 -0.3483 -2.0236
 5343SOL    HW226499   1.581   4.240   3.219 -1.8155 -0.0145 -1.5056
 5344SOL     OW26500   3.527   6.026   3.147  0.6012 -0.6016  0.1516
 5344SOL    HW126501   3.511   6.113   3.193 -4.6759 -1.5931  0.5469
 5344SOL    HW226502   3.589   5.970   3.201  0.6633  1.2550  2.0656
 5345SOL     OW26503   3.941   0.240   0.342  0.3247 -0.0890 -0.1335
 5345SOL    HW126504   4.017   0.302   0.362 -0.3833  0.0732  2.1581
 5345SOL    HW226505   3.854   0.290   0.348 -0.1446 -0.9119  0.0632
 5346SOL     OW26506   8.648   0.546   1.915  0.2784  0.3304 -0.2095
 5346SOL    HW126507   8.558   0.520   1.880  1.1139  0.3393 -2.4100
 5346SOL    HW226508   8.709   0.467   1.911  1.0839  0.9899 -1.1348
 5347SOL     OW26509   6.523   8.787   2.407  0.2890 -0.1599 -0.2885
 5347SOL    HW126510   6.539   8.862   2.343 -0.2189  1.4972  1.4835
 5347SOL    HW226511   6.542   8.818   2.500 -4.2180 -0.7876  0.9927
 5348SOL     OW26512   4.899   8.980   1.783 -0.0973  0.0423 -0.2718
 5348SOL    HW126513   4.864   9.071   1.758 -0.3323 -0.6849 -2.7268
 5348SOL    HW226514   4.838   8.910   1.747  1.0663 -1.1260  0.0101
 5349SOL     OW26515   2.260   9.303   3.698 -0.0453 -0.8772 -0.1317
 5349SOL    HW126516   2.286   9.242   3.773 -0.7377 -0.4037  0.5032
 5349SOL    HW226517   2.185   9.263   3.647  0.4519 -1.2179 -0.6011
 5350SOL     OW26518   7.256   9.875   2.467 -0.5661 -0.7569 -0.7109
 5350SOL    HW126519   7.266   9.821   2.551  2.1823  0.0375 -0.4939
 5350SOL    HW226520   7.247   9.812   2.389  2.1089 -1.5716 -0.4040
 5351SOL     OW26521   3.616   1.697   3.555  0.2029 -0.1028 -0.3540
 5351SOL    HW126522   3.554   1.720   3.480  0.6348  1.3556 -0.2696
 5351SOL    HW226523   3.594   1.605   3.589 -0.8594 -0.2382 -1.3760
 5352SOL     OW26524   1.888   8.753   0.140  0.0290  0.3373  0.3522
 5352SOL    HW126525   1.804   8.800   0.165 -0.9133 -1.4067  0.5881
 5352SOL    HW226526   1.889   8.662   0.182  1.4651 -0.1352 -0.6595
 5353SOL     OW26527   2.309   1.461   1.328 -0.4940 -0.0776  0.6058
 5353SOL    HW126528   2.320   1.473   1.427  0.4716 -0.5534  0.5643
 5353SOL    HW226529   2.214   1.437   1.308 -1.0173  1.3747  1.2756
 5354SOL     OW26530   0.469   7.632   3.416  0.4000 -0.0553 -0.2070
 5354SOL    HW126531   0.509   7.548   3.451  0.7983 -0.3165 -1.2690
 5354SOL    HW226532   0.400   7.610   3.347 -1.0050  0.4185  1.0166
 5355SOL     OW26533   2.589   6.215   3.620  0.0843 -0.3064 -0.2030
 5355SOL    HW126534   2.658   6.148   3.592  0.4030  0.1085 -0.4006
 5355SOL    HW226535   2.633   6.293   3.663 -0.1488  0.6408 -1.6624
 5356SOL     OW26536   9.253   4.046   0.688  0.0807 -0.1162  0.1518
 5356SOL    HW126537   9.306   3.965   0.713  1.1507  0.7983  0.9045
 5356SOL    HW226538   9.315   4.120   0.663 -0.8188  1.0623  1.3248
 5357SOL     OW26539   8.755   2.405   2.311 -0.3536 -0.2989 -0.1883
 5357SOL    HW126540   8.852   2.428   2.317 -1.0716  2.3310  3.5277
 5357SOL    HW226541   8.732   2.340   2.383 -1.1847 -1.6537 -1.6586
 5358SOL     OW26542   2.179   9.321   2.262 -0.3502  0.3274 -0.2401
 5358SOL    HW126543   2.223   9.268   2.190 -1.8420 -0.2690 -0.7367
 5358SOL    HW226544   2.215   9.293   2.351 -0.2924 -0.7109 -0.5796
 5359SOL     OW26545   2.955   0.565   0.977 -0.3339 -0.3818 -0.0761
 5359SOL    HW126546   2.866   0.585   0.936 -0.4428 -0.9427 -0.1249
 5359SOL    HW226547   2.989   0.478   0.940 -0.3740 -0.8289  0.9299
 5360SOL     OW26548   0.837   4.122   0.822 -0.3973  0.1773 -0.0037
 5360SOL    HW126549   0.802   4.133   0.915 -0.5069 -1.7406  0.1895
 5360SOL    HW226550   0.767   4.150   0.756 -0.3767  1.3809  0.4781
 5361SOL     OW26551   1.933   8.503   0.262  0.0459  0.6841 -0.0165
 5361SOL    HW126552   1.888   8.437   0.202 -0.0618  0.9168 -0.1907
 5361SOL    HW226553   1.960   8.457   0.347 -2.3722  0.9671  0.9754
 5362SOL     OW26554   4.670   7.782   1.359  0.8683  0.5684 -0.4167
 5362SOL    HW126555   4.625   7.858   1.311 -0.3079 -0.3745 -0.8166
 5362SOL    HW226556   4.689   7.810   1.453  0.5519  1.3996 -0.5903
 5363SOL     OW26557   2.626   6.496   0.382  0.3744  0.7521 -0.2948
 5363SOL    HW126558   2.539   6.469   0.341  0.2205  1.1279 -0.2199
 5363SOL    HW226559   2.700   6.444   0.339  0.2792  1.5794 -1.5028
 5364SOL     OW26560   9.628   5.492   2.811 -0.4706 -0.3414 -0.1297
 5364SOL    HW126561   9.547   5.549   2.824  0.2217  0.4048  1.0075
 5364SOL    HW226562   9.637   5.430   2.889 -0.4428 -1.0410 -0.6891
 5365SOL     OW26563   2.154   1.346   2.976  0.0269 -0.6129 -0.3171
 5365SOL    HW126564   2.243   1.389   2.959  0.7584 -0.2187  3.9586
 5365SOL    HW226565   2.088   1.416   3.003  0.0271 -1.5106  2.1889
 5366SOL     OW26566   3.013   8.084   1.906  0.3994  0.9820  0.5347
 5366SOL    HW126567   3.086   8.079   1.974 -0.0621  0.0518  0.9649
 5366SOL    HW226568   3.006   7.998   1.857 -0.2500  1.1462  0.3265
 5367SOL     OW26569   2.519   3.333   3.601 -0.7012 -0.1160  0.6839
 5367SOL    HW126570   2.609   3.314   3.639 -0.6844  0.6793  1.0527
 5367SOL    HW226571   2.459   3.253   3.615  0.1747 -0.9619 -0.3069
 5368SOL     OW26572   9.905   6.690   0.808 -0.0902  0.6374  0.1225
 5368SOL    HW126573   9.898   6.594   0.835  0.5419  0.3520 -0.6959
 5368SOL    HW226574   9.891   6.748   0.888 -0.7622 -0.1303  0.5702
 5369SOL     OW26575   0.911   8.835   1.468  0.2777  0.5562  0.1738
 5369SOL    HW126576   0.869   8.909   1.416 -1.3159 -0.8918 -0.6383
 5369SOL    HW226577   0.915   8.860   1.564  0.1190  1.8587 -0.1489
 5370SOL     OW26578   0.487   5.038   3.122  0.1806 -0.9699 -0.6326
 5370SOL    HW126579   0.414   4.977   3.092 -1.6857  0.4688  0.8795
 5370SOL    HW226580   0.517   5.012   3.214 -0.3700  0.1499 -0.1285
 5371SOL     OW26581   2.150   6.338   0.446 -0.0699 -0.3711  0.1726
 5371SOL    HW126582   2.176   6.381   0.533  0.6891 -0.4326 -0.0210
 5371SOL    HW226583   2.095   6.257   0.464 -2.9017  1.5498  0.5237
 5372SOL     OW26584   5.846   7.335   2.723  0.4403  0.2249  0.5378
 5372SOL    HW126585   5.904   7.331   2.805  0.3503 -2.3690  0.5296
 5372SOL    HW226586   5.750   7.339   2.750  0.3629 -1.5747  0.6012
 5373SOL     OW26587   1.646   0.845   1.927  0.0616 -0.0087 -0.1430
 5373SOL    HW126588   1.743   0.831   1.907  0.0417  0.0805 -0.3037
 5373SOL    HW226589   1.615   0.931   1.884 -0.2032 -0.2716 -0.4803
 5374SOL     OW26590   3.596   8.532   3.533  0.0136  0.5676  0.2471
 5374SOL    HW126591   3.555   8.484   3.610  0.7562 -1.3702 -0.5341
 5374SOL    HW226592   3.695   8.515   3.532  0.0771  0.9216 -0.8786
 5375SOL     OW26593   1.318   8.624   3.008  0.3637 -0.3409 -0.2584
 5375SOL    HW126594   1.328   8.720   3.035 -3.2544  0.3112 -0.9667
 5375SOL    HW226595   1.372   8.606   2.926 -1.3838  2.0002 -1.9979
 5376SOL     OW26596   8.649   1.846   0.550  0.4518 -0.0137 -0.4358
 5376SOL    HW126597   8.703   1.777   0.502 -0.5811 -0.8300 -0.4441
 5376SOL    HW226598   8.569   1.870   0.494  0.7621  1.1302 -0.4008
 5377SOL     OW26599   3.675   7.198   2.913 -0.5147  0.7797 -0.2472
 5377SOL    HW126600   3.670   7.270   2.983 -0.4989 -0.8425  1.4665
 5377SOL    HW226601   3.745   7.132   2.939 -2.3501 -1.2871 -0.4167
 5378SOL     OW26602   3.444   0.709   1.747 -0.3847  0.0238 -0.1345
 5378SOL    HW126603   3.394   0.794   1.765  1.5366  1.1327  0.1035
 5378SOL    HW226604   3.518   0.727   1.683 -0.7684 -1.7670 -1.0909
 5379SOL     OW26605   8.945   9.000   4.034  0.2324 -0.0723  0.4190
 5379SOL    HW126606   8.977   8.941   4.108  0.6918  0.7585  0.8894
 5379SOL    HW226607   8.925   9.091   4.071  0.0565  0.2182 -0.4002
 5380SOL     OW26608   2.634   4.123   2.551 -0.5852 -0.6625 -0.5227
 5380SOL    HW126609   2.544   4.089   2.578 -1.0042  0.7434 -0.1054
 5380SOL    HW226610   2.643   4.219   2.578  1.1509 -0.8698 -0.2897
 5381SOL     OW26611   5.306   9.221   2.499 -0.1839 -0.1111  0.5171
 5381SOL    HW126612   5.347   9.144   2.547  1.9266  0.9665  0.5286
 5381SOL    HW226613   5.300   9.200   2.401  0.7915 -0.1330  0.4574
 5382SOL     OW26614   9.132   5.568   0.193  0.4664 -0.3911  0.4130
 5382SOL    HW126615   9.175   5.651   0.158  2.3903 -0.8171  1.6837
 5382SOL    HW226616   9.140   5.495   0.124  0.3444 -0.0152 -0.0006
 5383SOL     OW26617   0.729   7.412   3.103  0.1004  0.2312  0.0138
 5383SOL    HW126618   0.762   7.317   3.098 -0.4595  0.0410 -0.0707
 5383SOL    HW226619   0.635   7.416   3.071  0.6426  1.0873 -1.4870
 5384SOL     OW26620   8.969   4.393   1.525 -0.5272  0.1300  0.6878
 5384SOL    HW126621   9.014   4.365   1.440 -2.5232 -4.3664  0.9867
 5384SOL    HW226622   8.894   4.457   1.502 -0.4324 -0.2745 -0.8347
 5385SOL     OW26623   1.295   7.962   1.776 -0.0055  0.0880  0.4655
 5385SOL    HW126624   1.241   7.927   1.853  1.6600 -0.7036  1.2951
 5385SOL    HW226625   1.239   8.026   1.723 -2.3417 -1.9662  0.3219
 5386SOL     OW26626   1.791   9.829   1.093 -0.5755  0.6343 -0.0698
 5386SOL    HW126627   1.741   9.915   1.082  0.0298  1.3551  2.4264
 5386SOL    HW226628   1.874   9.831   1.037 -0.4405  1.7907  0.1510
 5387SOL     OW26629   5.248   8.510   1.992  0.1613  0.1391 -0.3906
 5387SOL    HW126630   5.259   8.451   2.072  1.3448  0.0512 -0.6030
 5387SOL    HW226631   5.152   8.518   1.968 -0.2932  0.9926  1.6727
 5388SOL     OW26632   4.498   1.351   1.046 -0.3062 -0.4963  0.0571
 5388SOL    HW126633   4.541   1.267   1.079  0.0875 -0.5189 -0.5141
 5388SOL    HW226634   4.409   1.362   1.091 -0.9517 -1.8972 -0.8066
 5389SOL     OW26635   8.084   8.780   1.573 -0.2683 -0.6742 -0.4235
 5389SOL    HW126636   8.120   8.859   1.522  1.4756 -1.0885  0.1537
 5389SOL    HW226637   7.997   8.751   1.532  0.2808  0.0398 -2.1278
 5390SOL     OW26638   2.265   5.863   2.308  0.1242 -0.0955  0.3452
 5390SOL    HW126639   2.231   5.866   2.213  2.1387  0.3609 -0.3760
 5390SOL    HW226640   2.359   5.831   2.309 -1.1774 -4.1083  2.6124
 5391SOL     OW26641   0.381   2.381   1.524  0.1820  0.2841 -0.2889
 5391SOL    HW126642   0.399   2.389   1.425  0.3897  1.1622 -0.1861
 5391SOL    HW226643   0.286   2.404   1.543  0.0351 -0.2709 -0.3236
 5392SOL     OW26644   3.616   1.025   1.143 -0.2470 -0.2828 -0.1977
 5392SOL    HW126645   3.552   1.027   1.066  0.1276 -1.0398 -0.5381
 5392SOL    HW226646   3.566   1.002   1.227 -0.5319 -0.2225 -0.3499
 5393SOL     OW26647   2.099   7.758   1.957 -0.3204 -0.1694 -0.5972
 5393SOL    HW126648   2.056   7.700   2.026 -0.6414  0.3497 -0.3635
 5393SOL    HW226649   2.144   7.700   1.889 -0.3975 -0.6892 -0.2071
 5394SOL     OW26650   8.691   7.156   2.051  0.6885  0.2149  0.0473
 5394SOL    HW126651   8.680   7.191   1.958  0.4502  2.2489  0.8207
 5394SOL    HW226652   8.676   7.230   2.117 -0.3101 -1.4574  1.7493
 5395SOL     OW26653   0.924   8.384   0.216 -0.2345  0.4823 -0.3385
 5395SOL    HW126654   0.919   8.426   0.126  0.1080  1.0766 -0.0796
 5395SOL    HW226655   0.971   8.296   0.208 -0.5843  0.3328 -0.8066
 5396SOL     OW26656   9.689   0.220   0.512  0.0525 -0.4441 -0.5909
 5396SOL    HW126657   9.682   0.231   0.611 -1.0551  0.2896 -0.7474
 5396SOL    HW226658   9.784   0.199   0.488  0.2460 -1.0747  0.6619
 5397SOL     OW26659   9.353   6.370   1.847 -0.8692  0.3851  0.4306
 5397SOL    HW126660   9.312   6.284   1.815  0.2154  0.2913 -0.7917
 5397SOL    HW226661   9.377   6.426   1.767  0.1672  0.9910  1.1607
 5398SOL     OW26662   1.684   8.278   0.606 -0.4435 -0.0199  0.2787
 5398SOL    HW126663   1.663   8.240   0.516  2.7664 -0.7331 -0.2406
 5398SOL    HW226664   1.720   8.206   0.665  0.7473  1.1486  0.9944
 5399SOL     OW26665   8.253   1.923   0.867 -0.3449 -0.2428 -0.0895
 5399SOL    HW126666   8.249   2.009   0.917  0.7760  0.4869 -1.2204
 5399SOL    HW226667   8.252   1.941   0.769  2.2751 -1.3372 -0.3779
 5400SOL     OW26668   1.099   0.508   1.589  0.0596 -0.2602  0.0180
 5400SOL    HW126669   1.103   0.510   1.489 -0.8589  0.6853 -0.0105
 5400SOL    HW226670   1.043   0.431   1.619 -1.7864  0.9554 -0.2766
 5401SOL     OW26671   0.968   0.526   2.855 -0.5167  0.3982 -0.3439
 5401SOL    HW126672   1.031   0.568   2.921  0.1099 -1.2955  0.1549
 5401SOL    HW226673   0.919   0.451   2.899  0.6333 -1.4020 -2.0693
 5402SOL     OW26674   4.728   7.542   2.644  0.3783  0.4850 -0.1810
 5402SOL    HW126675   4.639   7.504   2.668  0.9704 -0.0526  1.2065
 5402SOL    HW226676   4.782   7.556   2.727  2.2560 -0.8515 -1.1326
 5403SOL     OW26677   7.441   8.094   2.631  0.2113 -0.0163 -0.0818
 5403SOL    HW126678   7.490   8.009   2.611  0.5794 -0.0471  0.9308
 5403SOL    HW226679   7.412   8.137   2.545 -1.5161 -2.0571 -0.5646
 5404SOL     OW26680   2.718   1.114   2.753 -0.4547 -0.0931 -0.1781
 5404SOL    HW126681   2.695   1.057   2.674 -2.1336 -0.0759  0.2718
 5404SOL    HW226682   2.725   1.210   2.724 -0.8918 -0.1101 -0.3432
 5405SOL     OW26683   3.420   4.960   1.502  0.3252  0.2104  0.4382
 5405SOL    HW126684   3.430   4.884   1.566 -2.8178  0.1629  0.9437
 5405SOL    HW226685   3.368   5.034   1.546 -0.1522  0.9973 -1.4025
 5406SOL     OW26686   9.659   6.827   2.358 -0.1223  0.5455 -0.1992
 5406SOL    HW126687   9.619   6.749   2.311  0.3927  1.3446 -1.9914
 5406SOL    HW226688   9.642   6.819   2.457 -0.4591 -1.5868 -0.4082
 5407SOL     OW26689   2.985   9.450   0.966  0.3070 -0.7585 -0.2246
 5407SOL    HW126690   3.061   9.409   0.917  1.2008 -1.1187  1.4268
 5407SOL    HW226691   3.019   9.498   1.047 -0.9466  1.4643 -0.9842
 5408SOL     OW26692   3.728   8.780   3.599 -0.3218 -0.0776  0.3600
 5408SOL    HW126693   3.690   8.867   3.566  1.6751  0.5687 -0.3071
 5408SOL    HW226694   3.665   8.706   3.577 -0.8825  0.8767 -1.3393
 5409SOL     OW26695   9.842   8.884   2.839  0.1361 -0.2105 -0.2905
 5409SOL    HW126696   9.914   8.836   2.889 -0.0123 -1.0358 -0.8509
 5409SOL    HW226697   9.882   8.959   2.787  0.4763 -0.1649  0.0375
 5410SOL     OW26698   0.534   0.566   2.658 -0.0559 -0.1465 -0.0694
 5410SOL    HW126699   0.554   0.479   2.703  0.7744 -0.4818 -1.0520
 5410SOL    HW226700   0.445   0.600   2.688 -0.3571 -1.3053  0.3614
 5411SOL     OW26701   9.329   9.147   3.282  0.0477 -0.5799 -0.0879
 5411SOL    HW126702   9.334   9.138   3.381 -2.7307 -1.0756  0.0733
 5411SOL    HW226703   9.356   9.061   3.239 -0.1664 -0.8438  0.3045
 5412SOL     OW26704   9.169   2.309   1.597 -0.2216  0.1625  0.2641
 5412SOL    HW126705   9.232   2.248   1.645  0.3531  0.6001  0.0675
 5412SOL    HW226706   9.130   2.260   1.518 -0.4379 -0.2391  0.6182
 5413SOL     OW26707   3.203   4.260   0.988  0.0882  0.1074  0.1715
 5413SOL    HW126708   3.129   4.206   0.948  0.9716 -0.6918 -0.3979
 5413SOL    HW226709   3.201   4.252   1.088  1.5746 -2.7839 -0.0043
 5414SOL     OW26710   2.874   8.167   2.194 -0.6748  0.6486 -0.0288
 5414SOL    HW126711   2.972   8.164   2.211 -0.8380  1.3201  1.0620
 5414SOL    HW226712   2.833   8.243   2.244 -1.9373 -0.3765  0.5378
 5415SOL     OW26713   1.865   8.880   3.082  0.4956 -0.8037 -0.5483
 5415SOL    HW126714   1.902   8.787   3.074  1.0039 -0.9013  2.4229
 5415SOL    HW226715   1.940   8.946   3.079  0.4614 -0.7037  0.5890
 5416SOL     OW26716   7.415   8.419   1.413  0.8620 -0.3379  0.5703
 5416SOL    HW126717   7.420   8.445   1.509  1.2186  2.0883 -0.0662
 5416SOL    HW226718   7.508   8.414   1.375  0.8602 -3.4187  0.8639
 5417SOL     OW26719   7.532   8.111   1.998 -0.3986  0.6528  0.6834
 5417SOL    HW126720   7.471   8.036   2.024 -0.1646  0.5281  0.8821
 5417SOL    HW226721   7.593   8.132   2.074  1.9048 -1.3323 -0.5361
 5418SOL     OW26722   9.343   7.671   2.690  0.4205 -0.1550  0.2693
 5418SOL    HW126723   9.345   7.581   2.732 -0.1560 -0.5771 -0.5941
 5418SOL    HW226724   9.395   7.669   2.605  0.9684  0.5040  0.5865
 5419SOL     OW26725   3.842   4.454   1.793  0.0011 -0.3756 -0.6659
 5419SOL    HW126726   3.767   4.466   1.728 -0.0403  2.5855 -0.1519
 5419SOL    HW226727   3.926   4.492   1.753  0.3619 -0.1426  0.3009
 5420SOL     OW26728   3.578   2.769   3.831  0.3285 -0.4039  0.1104
 5420SOL    HW126729   3.676   2.790   3.826  0.1543  0.8082  1.3196
 5420SOL    HW226730   3.559   2.724   3.918 -0.0145 -1.6793 -0.6193
 5421SOL     OW26731   2.970   2.761   2.884  0.3298 -0.1380  0.4407
 5421SOL    HW126732   3.004   2.799   2.970  0.2316 -0.0833  0.4556
 5421SOL    HW226733   3.046   2.725   2.831  0.3882 -0.1892  0.5598
 5422SOL     OW26734   1.443   5.613   1.301 -0.3581  0.2895  0.0563
 5422SOL    HW126735   1.430   5.687   1.234 -2.5566 -0.3260 -0.2568
 5422SOL    HW226736   1.452   5.652   1.392  0.4553  1.0343 -0.3313
 5423SOL     OW26737   9.259   7.464   0.192  0.3087  0.0413  0.1504
 5423SOL    HW126738   9.261   7.522   0.110  1.0856  1.0751  0.8823
 5423SOL    HW226739   9.304   7.512   0.268 -0.9855 -0.6210  1.3713
 5424SOL     OW26740   2.433   9.096   0.296  0.8225  0.0429 -0.4977
 5424SOL    HW126741   2.463   9.061   0.384  0.8406 -0.8996 -0.8791
 5424SOL    HW226742   2.374   9.176   0.310  1.4702  0.3848  0.3331
 5425SOL     OW26743   0.733   7.786   3.361  0.2089  0.0722  0.3481
 5425SOL    HW126744   0.639   7.786   3.327  0.2861  0.8182  0.1102
 5425SOL    HW226745   0.792   7.737   3.296  0.0642  0.0281  0.2492
 5426SOL     OW26746   7.354   8.928   2.719  0.2596  0.2132  0.0768
 5426SOL    HW126747   7.337   8.963   2.811  0.2374  0.0872  0.1196
 5426SOL    HW226748   7.398   9.000   2.664 -0.9423  0.7500 -0.2196
 5427SOL     OW26749   1.401   4.665   2.725 -0.2837  0.3179 -0.1905
 5427SOL    HW126750   1.301   4.664   2.723 -0.3509 -1.2930  2.2508
 5427SOL    HW226751   1.435   4.723   2.651 -2.9893  0.1127 -1.6542
 5428SOL     OW26752   0.720   4.454   2.009  0.4324 -0.6026  0.0903
 5428SOL    HW126753   0.802   4.479   2.059  0.9833  0.2667 -1.2345
 5428SOL    HW226754   0.731   4.362   1.970 -0.2448 -1.5459  2.0495
 5429SOL     OW26755   8.614   1.280   2.753  0.0764  0.3674 -0.2738
 5429SOL    HW126756   8.518   1.308   2.766  0.6346  1.1467  2.5433
 5429SOL    HW226757   8.674   1.350   2.789  1.6633 -1.1206  0.0371
 5430SOL     OW26758   3.260   3.258   2.484  0.1207  0.3397 -0.2811
 5430SOL    HW126759   3.209   3.243   2.569 -0.8927  1.1333 -0.7318
 5430SOL    HW226760   3.281   3.355   2.474  1.1098  0.1132 -0.4594
 5431SOL     OW26761   4.270   7.292   2.634 -0.1956  0.0558 -0.1188
 5431SOL    HW126762   4.182   7.323   2.670  0.1695  0.7146  0.2244
 5431SOL    HW226763   4.284   7.197   2.661  0.3548  0.7180  2.1012
 5432SOL     OW26764   8.697   3.615   2.975  0.1263  0.6899  0.1069
 5432SOL    HW126765   8.645   3.644   3.055  1.8535  3.3420  0.3334
 5432SOL    HW226766   8.793   3.643   2.985  0.4809  0.6356 -2.6541
 5433SOL     OW26767   6.358   8.567   2.757 -0.8402  0.4484  0.2495
 5433SOL    HW126768   6.268   8.526   2.771 -0.5293 -0.9741 -1.6914
 5433SOL    HW226769   6.426   8.494   2.746  0.0503  1.4871 -1.2864
 5434SOL     OW26770   8.526   3.352   1.958 -0.2133  0.1081 -0.1206
 5434SOL    HW126771   8.554   3.295   1.880  1.2928 -1.3510  1.4422
 5434SOL    HW226772   8.607   3.390   2.003 -0.9537 -0.5350  1.8145
 5435SOL     OW26773   2.517   9.708   3.147  0.3796 -0.1571 -0.1086
 5435SOL    HW126774   2.463   9.720   3.230  0.2767  0.1963 -0.2231
 5435SOL    HW226775   2.459   9.672   3.074  0.4120 -0.2380 -0.0949
 5436SOL     OW26776   4.522   1.340   0.667  0.2646  0.1789 -0.0017
 5436SOL    HW126777   4.513   1.244   0.639  0.6780  0.9135 -2.8144
 5436SOL    HW226778   4.443   1.391   0.632  0.9473  1.1942 -0.0506
 5437SOL     OW26779   8.026   8.416   0.343 -0.1202 -0.7135 -0.6621
 5437SOL    HW126780   7.929   8.430   0.367 -0.1219 -3.0171  0.8191
 5437SOL    HW226781   8.070   8.505   0.332 -1.7003  0.4144  1.6030
 5438SOL     OW26782   1.135   3.057   2.937 -0.2030  0.0942 -0.1834
 5438SOL    HW126783   1.189   3.010   2.867  0.1999 -0.7953  0.6991
 5438SOL    HW226784   1.194   3.118   2.989 -0.5801  1.0389 -0.8681
 5439SOL     OW26785   9.214   3.912   3.078 -0.0508  0.3011 -0.2990
 5439SOL    HW126786   9.313   3.900   3.081  0.0120  0.7228 -0.5176
 5439SOL    HW226787   9.169   3.826   3.100  0.3645  0.5330  1.5556
 5440SOL     OW26788   3.124   5.129   1.255 -0.1031 -0.1528  0.2408
 5440SOL    HW126789   3.045   5.083   1.296 -1.2344 -0.4212 -2.1597
 5440SOL    HW226790   3.124   5.225   1.283 -1.9379  0.1167 -0.6347
 5441SOL     OW26791   8.525   4.496   0.424 -0.2820  0.5230  0.3848
 5441SOL    HW126792   8.559   4.578   0.377  0.5424  0.7181  1.2956
 5441SOL    HW226793   8.454   4.522   0.488  0.6553  0.6719  1.3793
 5442SOL     OW26794   0.665   5.767   1.704  0.1178  0.0513  0.3356
 5442SOL    HW126795   0.713   5.690   1.663  1.0492  1.0965 -0.5617
 5442SOL    HW226796   0.723   5.808   1.775 -0.1378  0.3045  0.3971
 5443SOL     OW26797   8.954   7.423   2.291  0.8031  0.1208 -0.1531
 5443SOL    HW126798   8.926   7.352   2.354  2.4583  1.2486  1.9176
 5443SOL    HW226799   8.995   7.499   2.342 -1.0881  2.6639 -2.2736
 5444SOL     OW26800   8.328   3.006   2.809  0.3025 -0.1076 -0.0495
 5444SOL    HW126801   8.263   3.061   2.862  0.8296 -1.1813  1.7743
 5444SOL    HW226802   8.356   2.927   2.863  3.6952  0.7112 -0.4732
 5445SOL     OW26803   2.973   9.379   2.498 -0.5563  0.0232  0.3114
 5445SOL    HW126804   2.931   9.377   2.589  0.2879  0.4366  0.7253
 5445SOL    HW226805   3.059   9.431   2.503  0.0027 -0.8134 -0.5030
 5446SOL     OW26806   8.805   2.708   2.820 -0.0226 -0.7448  0.4785
 5446SOL    HW126807   8.885   2.744   2.774 -0.4833  1.5362  1.3541
 5446SOL    HW226808   8.833   2.648   2.895  0.9507  1.5328  1.9759
 5447SOL     OW26809   9.656   9.331   0.684 -0.0586 -0.6945 -0.0017
 5447SOL    HW126810   9.603   9.250   0.709  2.3028 -1.7125  1.7714
 5447SOL    HW226811   9.709   9.312   0.601 -0.2748 -0.6222 -0.1570
 5448SOL     OW26812   8.440   2.409   3.887  0.2923 -0.7145  0.2261
 5448SOL    HW126813   8.538   2.408   3.908  0.2186 -2.9606  0.5811
 5448SOL    HW226814   8.428   2.407   3.788  0.5880 -1.0490  0.1976
 5449SOL     OW26815   0.698   6.162   0.193  0.1663 -0.3596 -0.2768
 5449SOL    HW126816   0.614   6.216   0.188  1.4920  1.7471 -0.2798
 5449SOL    HW226817   0.715   6.136   0.288  0.5349  0.9072  0.0200
 5450SOL     OW26818   8.572   6.427   2.375 -0.3671 -0.2101  0.2585
 5450SOL    HW126819   8.637   6.455   2.304 -1.2842  0.8760 -0.1770
 5450SOL    HW226820   8.621   6.407   2.460  0.6596 -0.6916 -0.4394
 5451SOL     OW26821   3.204   6.493   2.640  0.2325  0.5594  0.2720
 5451SOL    HW126822   3.209   6.448   2.729  0.2618  0.6065  0.2944
 5451SOL    HW226823   3.296   6.501   2.602  0.0780 -0.7914 -0.4335
 5452SOL     OW26824   8.355   6.122   1.923  0.6620  0.6119  0.0812
 5452SOL    HW126825   8.425   6.193   1.924 -0.8798  2.1617  0.1339
 5452SOL    HW226826   8.352   6.076   2.011  2.2384 -0.1167 -0.2244
 5453SOL     OW26827   0.156   9.030   3.836  0.1028 -0.3546  0.2809
 5453SOL    HW126828   0.250   8.996   3.824  0.4935  1.1545 -1.0735
 5453SOL    HW226829   0.131   9.088   3.758 -1.3178  0.6846  1.4760
 5454SOL     OW26830   9.229   5.741   0.012 -0.9199 -0.0198  0.0809
 5454SOL    HW126831   9.207   5.832  -0.022  0.4706 -0.2782 -1.5651
 5454SOL    HW226832   9.171   5.673  -0.033  0.1071 -0.2399 -0.9327
 5455SOL     OW26833   9.416   8.595   2.089 -0.6643 -0.7328  0.5838
 5455SOL    HW126834   9.451   8.684   2.117  1.5693 -1.4646  0.1696
 5455SOL    HW226835   9.320   8.605   2.060 -1.8963  0.7058  4.7962
 5456SOL     OW26836   4.240   4.018   1.134  0.2634  0.2744  0.0041
 5456SOL    HW126837   4.300   4.007   1.212 -2.1423 -1.0815  1.7415
 5456SOL    HW226838   4.274   3.963   1.057  1.2741 -0.3854  0.9190
 5457SOL     OW26839   4.748   1.300   1.374 -0.4641  0.7188  0.4562
 5457SOL    HW126840   4.740   1.394   1.342  1.9948  0.6518 -0.4240
 5457SOL    HW226841   4.794   1.299   1.463 -0.4584  0.3370  0.4515
 5458SOL     OW26842   4.949   7.662   3.667 -0.3082 -0.0633 -0.3688
 5458SOL    HW126843   5.043   7.695   3.657 -0.5106  1.2151  1.5481
 5458SOL    HW226844   4.889   7.740   3.687 -1.1933 -1.2816  1.9318
 5459SOL     OW26845   1.002   7.310   0.314  0.2610 -0.1806 -0.3183
 5459SOL    HW126846   1.044   7.309   0.405  1.5514  0.3508 -0.9015
 5459SOL    HW226847   0.906   7.283   0.322  0.5462 -0.8300  1.1050
 5460SOL     OW26848   2.043   8.039   0.312 -0.0984 -0.0041  0.1918
 5460SOL    HW126849   2.121   8.060   0.253  0.8983 -2.1079  0.6858
 5460SOL    HW226850   1.963   8.019   0.256 -0.4367  2.6316 -0.3135
 5461SOL     OW26851   0.039   7.647   2.294 -0.6617  0.2047 -0.3163
 5461SOL    HW126852  -0.050   7.692   2.291 -0.9045 -0.2893 -0.5385
 5461SOL    HW226853   0.053   7.606   2.384 -1.5156 -1.4390 -0.9183
 5462SOL     OW26854   3.738   1.359   3.894 -0.3134 -0.6440  0.1054
 5462SOL    HW126855   3.831   1.324   3.901  0.0584 -0.3084 -2.5271
 5462SOL    HW226856   3.684   1.298   3.836 -1.3166 -0.0680  0.4302
 5463SOL     OW26857   8.038   7.021   3.548 -0.1432  0.1395 -0.5789
 5463SOL    HW126858   7.994   7.110   3.538  0.9541  0.6140 -1.2703
 5463SOL    HW226859   8.115   7.028   3.611 -0.5721 -0.5069  0.0164
 5464SOL     OW26860   0.943   6.006   0.223 -0.1999  0.7246 -0.2421
 5464SOL    HW126861   0.889   6.084   0.255  0.2471  0.6400  0.7200
 5464SOL    HW226862   1.002   5.973   0.296 -0.6376 -0.7446 -0.5329
 5465SOL     OW26863   2.466   6.068   1.340 -0.1700 -0.2069 -0.3175
 5465SOL    HW126864   2.441   5.979   1.378  1.1380 -0.6780 -0.5365
 5465SOL    HW226865   2.384   6.119   1.316 -0.9084 -1.7431 -1.0884
 5466SOL     OW26866   1.343   6.482   1.959 -0.1809  0.3343  0.1474
 5466SOL    HW126867   1.274   6.460   1.890 -0.0768 -1.1025  0.4887
 5466SOL    HW226868   1.409   6.407   1.965  0.9663  1.3482  0.3804
 5467SOL     OW26869   2.984   2.723   2.335 -0.2585 -0.7455 -0.1156
 5467SOL    HW126870   3.017   2.784   2.406 -0.9584 -0.7228  0.1994
 5467SOL    HW226871   3.033   2.741   2.249 -0.7607  0.5667 -0.1462
 5468SOL     OW26872   8.567   0.091   3.446 -0.1421  0.0527 -0.4465
 5468SOL    HW126873   8.660   0.053   3.452 -0.4752 -0.4824  1.7378
 5468SOL    HW226874   8.506   0.022   3.407  0.3112  0.3139 -1.6462
 5469SOL     OW26875   2.646   2.518   0.557 -0.1397 -0.0925 -0.1290
 5469SOL    HW126876   2.682   2.473   0.638 -0.7895 -1.0472 -0.3691
 5469SOL    HW226877   2.562   2.566   0.580 -0.0419  0.0785 -0.1244
 5470SOL     OW26878   2.831   7.289   0.462 -0.3642  0.6342 -0.4036
 5470SOL    HW126879   2.737   7.261   0.438 -0.7607  0.8539  0.8182
 5470SOL    HW226880   2.876   7.329   0.383 -0.7800 -0.8723 -1.4278
 5471SOL     OW26881   8.752   1.903   2.949  0.1063  0.2201  0.0687
 5471SOL    HW126882   8.842   1.904   2.906  1.1300  1.6786  2.1515
 5471SOL    HW226883   8.701   1.984   2.921  0.6649  1.0233  1.3255
 5472SOL     OW26884   0.086   0.589   3.154  0.5378 -0.1738  0.3814
 5472SOL    HW126885   0.000   0.594   3.103  0.5661 -3.3143 -0.0369
 5472SOL    HW226886   0.163   0.598   3.091  0.5463 -0.2785  0.3772
 5473SOL     OW26887   5.562   7.265   2.401  0.1295  0.5107  0.0790
 5473SOL    HW126888   5.658   7.279   2.425  0.3360  1.6595 -1.3277
 5473SOL    HW226889   5.503   7.298   2.475  0.7923  0.8290  0.4671
 5474SOL     OW26890   2.409   4.904   1.192  0.2321 -0.5806 -0.2373
 5474SOL    HW126891   2.404   4.824   1.252  1.2645  0.1043  0.7755
 5474SOL    HW226892   2.455   4.878   1.107  1.7792 -0.7549  0.6350
 5475SOL     OW26893   9.034   8.517   1.245 -0.3911  0.1830 -0.7427
 5475SOL    HW126894   9.080   8.433   1.272  2.4955  1.4344 -1.5848
 5475SOL    HW226895   9.009   8.570   1.326  0.9460  0.1551 -0.3153
 5476SOL     OW26896   4.075   3.541   0.234 -0.5613  0.1985  0.5137
 5476SOL    HW126897   4.083   3.518   0.137 -1.5155 -1.5589  0.8426
 5476SOL    HW226898   4.020   3.624   0.244 -1.6364 -0.3914 -0.3786
 5477SOL     OW26899   3.498   6.942   0.834  0.6936  0.6782  0.9543
 5477SOL    HW126900   3.562   6.894   0.894  1.0972  0.2126  0.1667
 5477SOL    HW226901   3.424   6.880   0.809  0.8373  0.6831  0.5076
 5478SOL     OW26902   3.178   9.079   3.647  0.0389 -0.4804  0.2887
 5478SOL    HW126903   3.226   9.055   3.731  0.0599 -0.3845  0.3040
 5478SOL    HW226904   3.093   9.127   3.670  0.0148 -0.5081  0.2565
 5479SOL     OW26905   0.209   1.806   0.571  0.0334 -0.0862  0.8069
 5479SOL    HW126906   0.254   1.725   0.607  0.6882  0.4953  1.3287
 5479SOL    HW226907   0.133   1.780   0.512  2.5288 -1.1494 -2.0690
 5480SOL     OW26908   9.268   8.251   3.379  0.5587 -0.1062  0.5257
 5480SOL    HW126909   9.367   8.254   3.369  0.5385  0.2096  0.4243
 5480SOL    HW226910   9.229   8.195   3.305  0.7151 -0.7751  0.9459
 5481SOL     OW26911   2.250   6.879   0.112  0.2184 -0.2179  0.0214
 5481SOL    HW126912   2.240   6.978   0.126  1.0501 -0.1661  0.2911
 5481SOL    HW226913   2.220   6.830   0.194 -0.3122 -0.2002 -0.1581
 5482SOL     OW26914   9.445   3.057   2.146  0.4148 -0.3340  0.0063
 5482SOL    HW126915   9.467   3.139   2.094  1.6198 -0.9792 -0.5314
 5482SOL    HW226916   9.524   3.031   2.202 -0.1544 -0.8096  0.6028
 5483SOL     OW26917   0.821   7.190   1.853 -0.0649 -0.8197  0.1053
 5483SOL    HW126918   0.845   7.095   1.837 -0.8826 -1.2309  1.2190
 5483SOL    HW226919   0.773   7.198   1.941 -1.8715  0.3092 -0.9569
 5484SOL     OW26920   4.327   7.495   3.958 -0.7900 -0.1268 -0.5087
 5484SOL    HW126921   4.236   7.479   3.996 -0.5961 -0.6469 -0.2622
 5484SOL    HW226922   4.335   7.449   3.870  0.3956 -3.0136  1.0457
 5485SOL     OW26923   9.923   4.648   2.130 -0.8283  0.2548  0.0347
 5485SOL    HW126924   9.882   4.662   2.040 -0.2247  0.6674 -0.1848
 5485SOL    HW226925   9.868   4.584   2.183 -0.3935 -1.1455 -1.1688
 5486SOL     OW26926   8.615   3.225   1.738 -0.3563 -0.3621  0.3890
 5486SOL    HW126927   8.570   3.273   1.662  1.0394  0.8991  0.3296
 5486SOL    HW226928   8.641   3.133   1.709 -2.4266 -0.9379  0.2713
 5487SOL     OW26929   1.683   6.892   0.106 -0.7269  0.3098  0.5941
 5487SOL    HW126930   1.606   6.834   0.132 -1.6820  1.5520  0.5734
 5487SOL    HW226931   1.694   6.966   0.172 -1.0934  1.5620 -0.7043
 5488SOL     OW26932   8.968   7.615   2.726 -0.3165 -0.5278 -0.8364
 5488SOL    HW126933   8.902   7.554   2.769 -0.8320  1.5404  1.3907
 5488SOL    HW226934   8.987   7.693   2.786  1.3230  0.8553 -3.0365
 5489SOL     OW26935   9.202   1.987   2.844 -0.4359 -0.3920  0.5585
 5489SOL    HW126936   9.274   1.996   2.775 -1.3266 -1.4817 -0.5478
 5489SOL    HW226937   9.241   2.003   2.935  0.7540  1.0528 -0.1858
 5490SOL     OW26938   8.926   8.310   3.015  0.3646 -0.1168  0.0685
 5490SOL    HW126939   8.885   8.381   3.072  0.7896  0.2042 -0.0251
 5490SOL    HW226940   8.910   8.220   3.056 -1.2485 -0.0820 -0.4453
 5491SOL     OW26941   7.993   8.690   0.990  0.4902  0.2364 -0.4606
 5491SOL    HW126942   7.952   8.664   1.077  0.1776 -0.7717 -0.9070
 5491SOL    HW226943   8.046   8.774   1.002 -0.2606  0.5783  0.5079
 5492SOL     OW26944   0.553   0.090   2.077 -0.7044 -0.7162  0.0643
 5492SOL    HW126945   0.512  -0.001   2.074 -0.6148 -0.7532 -0.0065
 5492SOL    HW226946   0.549   0.132   1.986  0.3038 -1.1056 -0.1579
 5493SOL     OW26947   0.605   0.653   0.820  0.8517  0.0120 -0.5372
 5493SOL    HW126948   0.624   0.672   0.917 -0.6270  2.1220 -0.6271
 5493SOL    HW226949   0.608   0.554   0.805  1.4993 -0.3276  1.5767
 5494SOL     OW26950   0.011   8.080   0.844  0.2001  0.0669  0.2747
 5494SOL    HW126951   0.103   8.057   0.811  0.6162 -0.3267  1.6720
 5494SOL    HW226952   0.018   8.120   0.935 -0.9189  1.2969 -0.1627
 5495SOL     OW26953   4.026   4.780   1.699  0.4771 -0.5097 -0.4699
 5495SOL    HW126954   4.012   4.872   1.734 -0.5890 -0.5308 -0.8354
 5495SOL    HW226955   4.098   4.735   1.752 -1.1125 -0.5595  1.6832
 5496SOL     OW26956   0.021   5.747   1.591 -0.1174 -0.1520  0.4281
 5496SOL    HW126957  -0.028   5.693   1.523  0.8965 -0.4943 -0.0404
 5496SOL    HW226958  -0.010   5.721   1.683  0.7793 -1.9787  0.2464
 5497SOL     OW26959   9.964   2.682   1.847  0.7672 -0.0147 -0.3421
 5497SOL    HW126960   9.954   2.759   1.784 -0.2585  1.9500  2.0970
 5497SOL    HW226961   9.873   2.646   1.870  1.0878 -0.3883  0.3546
 5498SOL     OW26962   8.700   3.041   2.655 -0.6950 -0.6504  0.5265
 5498SOL    HW126963   8.694   3.045   2.555 -0.2486  0.9267  0.5472
 5498SOL    HW226964   8.623   3.091   2.695  0.6004  1.0792  0.9296
 5499SOL     OW26965   1.467   2.314   2.311  0.2183 -0.6705  0.0667
 5499SOL    HW126966   1.546   2.259   2.281  0.3821 -0.9188  0.9564
 5499SOL    HW226967   1.499   2.395   2.360 -0.0987 -1.0770  0.9450
 5500SOL     OW26968   7.450   8.408   1.704  0.6694  0.1084 -0.3415
 5500SOL    HW126969   7.400   8.427   1.788  0.7706  0.2300 -0.3087
 5500SOL    HW226970   7.494   8.318   1.711 -0.5273 -0.5263 -0.8440
 5501SOL     OW26971   3.827   1.970   1.311  0.2054  0.1538 -0.1420
 5501SOL    HW126972   3.747   1.973   1.371  0.2017  3.0858 -0.2188
 5501SOL    HW226973   3.840   1.877   1.276 -1.0781 -1.1142  2.6512
 5502SOL     OW26974   2.222   3.402   2.262 -0.4082  0.2416  0.1608
 5502SOL    HW126975   2.131   3.434   2.288 -0.6594 -0.1841 -0.1740
 5502SOL    HW226976   2.289   3.475   2.275 -0.9036  0.7640 -0.2224
 5503SOL     OW26977   9.128   4.844   3.436  0.6665  0.7780  0.0934
 5503SOL    HW126978   9.203   4.779   3.425 -0.4777 -0.7639  1.1123
 5503SOL    HW226979   9.129   4.880   3.529 -0.5577 -0.1874  0.4999
 5504SOL     OW26980   4.618   8.043   2.695  1.3899  0.2569  0.1948
 5504SOL    HW126981   4.682   7.978   2.652 -1.3723 -2.3404 -0.1873
 5504SOL    HW226982   4.612   8.024   2.793 -0.0013 -0.6392 -0.0447
 5505SOL     OW26983   3.781   6.124   2.775  0.3383  0.2225  0.2517
 5505SOL    HW126984   3.690   6.088   2.798  0.2659 -1.1091 -1.9703
 5505SOL    HW226985   3.801   6.203   2.833 -1.8312 -0.0480  1.4288
 5506SOL     OW26986   9.417   0.803   0.393 -0.6018 -0.0717 -0.1470
 5506SOL    HW126987   9.439   0.785   0.489  0.0790 -0.6456 -0.4034
 5506SOL    HW226988   9.469   0.741   0.334 -0.6105  0.6286 -0.9154
 5507SOL     OW26989   3.469   4.901   0.612  0.1296 -0.3035  0.7514
 5507SOL    HW126990   3.475   4.975   0.679  2.6053 -0.2744  0.5500
 5507SOL    HW226991   3.492   4.814   0.656 -0.9460 -0.6787  0.5670
 5508SOL     OW26992   8.330   4.658   1.184 -0.0087  0.1921 -0.0726
 5508SOL    HW126993   8.331   4.625   1.279 -0.7811  0.2076 -0.0530
 5508SOL    HW226994   8.422   4.687   1.158  0.2489  0.0006  0.6071
 5509SOL     OW26995   1.211   0.692   0.398  0.2817  0.5175  0.5121
 5509SOL    HW126996   1.278   0.761   0.426  1.2491 -0.4018  0.4985
 5509SOL    HW226997   1.251   0.632   0.328 -0.8466  0.4823 -0.1272
 5510SOL     OW26998   2.163   9.113   1.504  0.6209 -0.0769  0.1119
 5510SOL    HW126999   2.109   9.048   1.450  0.0195  0.4487  0.0806
 5510SOL    HW227000   2.175   9.077   1.597 -0.6075  0.2502  0.4045
 5511SOL     OW27001   2.424   0.025   2.377  0.0496  0.5584  0.2174
 5511SOL    HW127002   2.332  -0.013   2.378  0.4564 -0.4577  0.1088
 5511SOL    HW227003   2.470  -0.001   2.291  0.2144  1.6081 -0.0254
 5512SOL     OW27004   2.314   5.043   3.192 -0.0906  0.3766 -0.1341
 5512SOL    HW127005   2.315   4.955   3.239  0.7759  0.7218  0.5134
 5512SOL    HW227006   2.346   5.031   3.098 -0.2547 -0.0429 -0.1362
 5513SOL     OW27007   0.652   3.094   1.580  0.2072  0.3310 -0.3290
 5513SOL    HW127008   0.553   3.085   1.588  0.3698 -0.6434  0.6449
 5513SOL    HW227009   0.674   3.182   1.537 -1.0447  0.9313  0.2319
 5514SOL     OW27010   3.270   4.037   1.441  0.3232 -0.5315  0.0453
 5514SOL    HW127011   3.194   4.005   1.498 -1.6363  1.7331 -1.2022
 5514SOL    HW227012   3.304   3.962   1.386 -4.4551 -0.5654 -3.1526
 5515SOL     OW27013   6.469   0.148   1.973 -0.0428  1.3430  0.4294
 5515SOL    HW127014   6.519   0.156   1.887  0.6750  0.8837  0.8013
 5515SOL    HW227015   6.373   0.127   1.953 -0.0493  1.9845 -0.2750
 5516SOL     OW27016   2.747   3.055   1.001  0.1612 -0.2645 -0.1765
 5516SOL    HW127017   2.648   3.037   1.003  0.3211 -0.9828  2.8816
 5516SOL    HW227018   2.772   3.113   1.079  2.0148  0.8800 -1.5715
 5517SOL     OW27019   8.013   8.465   1.784  0.0278  0.0374 -0.3365
 5517SOL    HW127020   8.108   8.432   1.789 -0.5106 -1.5801 -0.4240
 5517SOL    HW227021   7.966   8.447   1.870 -0.1645  0.9748 -0.2403
 5518SOL     OW27022   2.578   5.996   3.087 -0.4196 -0.5699  0.2387
 5518SOL    HW127023   2.633   5.956   3.160 -0.7830 -0.8441  0.3671
 5518SOL    HW227024   2.515   6.063   3.126 -0.1774 -0.2579  0.0933
 5519SOL     OW27025   2.382   1.245   0.067 -0.1614  0.6634 -0.1711
 5519SOL    HW127026   2.395   1.177   0.139  0.9410 -0.2705 -1.2491
 5519SOL    HW227027   2.380   1.337   0.108 -1.9163 -0.0099  1.3089
 5520SOL     OW27028   8.982   7.264   3.899 -0.6504 -0.3229  0.7083
 5520SOL    HW127029   8.992   7.351   3.947 -0.0076 -0.7897  1.4328
 5520SOL    HW227030   8.891   7.227   3.915 -1.0983  0.4576 -0.0088
 5521SOL     OW27031   7.542   7.686   1.327  0.2967 -0.9810 -0.1508
 5521SOL    HW127032   7.492   7.637   1.255 -0.5952 -1.4477  0.7858
 5521SOL    HW227033   7.631   7.714   1.291 -0.8325  0.3841 -2.0391
 5522SOL     OW27034   4.263   3.236   3.689 -0.4561  0.3660 -0.5528
 5522SOL    HW127035   4.248   3.149   3.736 -0.9435  0.8179  0.1415
 5522SOL    HW227036   4.328   3.292   3.740 -0.1160  0.4009 -1.0166
 5523SOL     OW27037   9.877   7.855   0.938  0.2512 -0.4881  0.3557
 5523SOL    HW127038   9.925   7.771   0.962  0.6480 -0.0885  0.9684
 5523SOL    HW227039   9.942   7.923   0.904  0.1018  0.0152  1.0790
 5524SOL     OW27040   0.985   8.490   3.986  0.0334  0.0491 -0.2142
 5524SOL    HW127041   0.999   8.551   3.908 -1.1695 -0.5914 -0.9676
 5524SOL    HW227042   0.886   8.477   4.000  0.2553 -0.3911  0.9832
 5525SOL     OW27043   3.975   3.961   1.797  0.0474 -0.2116  0.6884
 5525SOL    HW127044   3.919   3.878   1.795 -0.4697  0.1547 -0.6342
 5525SOL    HW227045   3.916   4.041   1.794  0.6159  0.1870  0.0297
 5526SOL     OW27046   3.149   3.696   2.665  0.1416 -0.0810 -0.1469
 5526SOL    HW127047   3.096   3.723   2.746  1.2724  0.6099  0.3666
 5526SOL    HW227048   3.155   3.774   2.603  1.9079  0.3390  0.5295
 5527SOL     OW27049   3.758   4.639   3.026 -0.4894 -0.1154 -0.2424
 5527SOL    HW127050   3.662   4.611   3.020  0.0916 -2.0092 -1.4028
 5527SOL    HW227051   3.812   4.587   2.959  1.3502  0.9086  0.3938
 5528SOL     OW27052   5.545   7.865   2.883  0.0043  0.4102  0.5454
 5528SOL    HW127053   5.459   7.871   2.933  0.0808 -2.2058  1.0413
 5528SOL    HW227054   5.534   7.804   2.804  1.0678  1.0979 -0.1538
 5529SOL     OW27055   4.087   1.503   4.038  0.0483 -0.6666  0.0325
 5529SOL    HW127056   4.039   1.437   3.981 -0.6711  0.5514 -0.7847
 5529SOL    HW227057   4.168   1.537   3.990 -0.2762 -0.0188 -0.0541
 5530SOL     OW27058   4.198   1.863   1.263  0.0011 -0.0401 -0.4553
 5530SOL    HW127059   4.115   1.916   1.246 -0.9601 -1.5505 -0.6010
 5530SOL    HW227060   4.226   1.875   1.358 -0.9237 -0.2508 -0.1499
 5531SOL     OW27061   2.900   7.322   3.979 -0.3575  0.1995 -0.5562
 5531SOL    HW127062   2.845   7.307   3.897 -3.3265  0.9383  1.2334
 5531SOL    HW227063   2.899   7.419   4.003  1.0537  0.0964  0.0166
 5532SOL     OW27064   8.813   3.260   0.972  0.3269 -0.1209  0.0794
 5532SOL    HW127065   8.900   3.305   0.952 -0.0389  0.5806  0.0285
 5532SOL    HW227066   8.769   3.307   1.049 -0.2159 -0.1885 -0.1935
 5533SOL     OW27067   2.351   5.614   1.104 -0.1704 -0.1107  0.4461
 5533SOL    HW127068   2.375   5.656   1.192  0.0120  1.1751 -0.2096
 5533SOL    HW227069   2.380   5.518   1.104 -1.1054 -0.4299  2.1746
 5534SOL     OW27070   4.772   2.852   2.005 -0.5185 -0.2498  0.5616
 5534SOL    HW127071   4.864   2.876   2.034 -0.8253  0.8084  0.6707
 5534SOL    HW227072   4.772   2.830   1.907 -0.5493  1.9055  0.0674
 5535SOL     OW27073   1.430   6.263   0.399 -0.2311 -0.1541  0.6617
 5535SOL    HW127074   1.456   6.273   0.303  1.6555  1.2448  1.2836
 5535SOL    HW227075   1.368   6.337   0.425  0.6654  0.5077  0.9601
 5536SOL     OW27076   3.354   2.582   0.730  0.4132 -0.2472  0.3634
 5536SOL    HW127077   3.348   2.492   0.772  1.2748 -0.8351 -0.7610
 5536SOL    HW227078   3.303   2.583   0.644  1.5529 -0.0791 -0.3221
 5537SOL     OW27079   7.951   3.684   3.785 -0.1530  0.0216  0.1509
 5537SOL    HW127080   7.966   3.701   3.882  1.4927  1.1792 -0.2854
 5537SOL    HW227081   7.947   3.586   3.768 -0.2011 -0.1878  1.3402
 5538SOL     OW27082   2.948   2.218   3.179 -0.1604  0.7408  0.0376
 5538SOL    HW127083   3.002   2.207   3.262 -0.7618  2.2025  0.6418
 5538SOL    HW227084   2.991   2.286   3.119 -1.8325  2.7149  1.0016
 5539SOL     OW27085   0.444   8.146   0.026  0.0634 -0.4641 -0.5241
 5539SOL    HW127086   0.467   8.208  -0.050  1.9171  0.0467  0.4203
 5539SOL    HW227087   0.345   8.134   0.030 -0.3727  2.5642 -0.6624
 5540SOL     OW27088   4.583   3.450   0.162  0.3204  0.0702 -0.5066
 5540SOL    HW127089   4.568   3.519   0.233 -1.3066 -0.9611  0.1889
 5540SOL    HW227090   4.632   3.372   0.201  0.8242  0.1911 -0.9041
 5541SOL     OW27091   3.498   8.405   1.489 -0.5135 -0.1834  0.4196
 5541SOL    HW127092   3.520   8.422   1.585 -1.0201 -1.7702  0.8227
 5541SOL    HW227093   3.457   8.315   1.479 -1.9074  0.5835 -1.0790
 5542SOL     OW27094   3.009   0.362   3.200 -0.0484  0.5457 -0.7210
 5542SOL    HW127095   3.065   0.443   3.182 -0.0837  0.5016 -1.0389
 5542SOL    HW227096   2.992   0.354   3.298  0.3778  0.6396 -0.6378
 5543SOL     OW27097   1.181   1.055   3.837 -0.3234  0.0024  0.1467
 5543SOL    HW127098   1.081   1.058   3.840 -0.3496 -1.1481  0.5309
 5543SOL    HW227099   1.210   1.007   3.754 -0.1518 -2.5355  1.6257
 5544SOL     OW27100   4.085   9.237   0.117 -0.0258 -0.1536 -0.2151
 5544SOL    HW127101   4.142   9.202   0.042  0.8875 -0.9130  0.8079
 5544SOL    HW227102   4.066   9.333   0.102  1.9771  0.2520 -0.3382
 5545SOL     OW27103   8.261   7.985   3.883  0.1159  0.2619  0.4255
 5545SOL    HW127104   8.168   8.012   3.909  0.3924  0.7169  0.9515
 5545SOL    HW227105   8.303   7.933   3.957 -0.6896 -2.3320 -0.8814
 5546SOL     OW27106   2.639   8.475   2.736 -0.1167 -0.4110 -0.2985
 5546SOL    HW127107   2.727   8.438   2.767  0.4571  2.1668  1.3640
 5546SOL    HW227108   2.636   8.476   2.636  1.3160 -1.4916 -0.3621
 5547SOL     OW27109   8.012   6.773   2.154  0.4009 -0.0714 -0.5845
 5547SOL    HW127110   8.098   6.816   2.126  0.8289 -0.4384  0.1444
 5547SOL    HW227111   8.002   6.685   2.108  1.3276 -0.8894  0.7334
 5548SOL     OW27112   7.720   9.327   0.769  0.0446 -0.0110 -0.9454
 5548SOL    HW127113   7.679   9.351   0.858  2.1511  0.9581 -0.1869
 5548SOL    HW227114   7.663   9.259   0.724 -2.0243  0.7737  0.3498
 5549SOL     OW27115   3.247   3.291   1.878  0.2753 -0.2131  0.3786
 5549SOL    HW127116   3.239   3.284   1.977  2.3190 -0.7753  0.5149
 5549SOL    HW227117   3.227   3.385   1.850  1.0270  0.2751  1.4590
 5550SOL     OW27118   0.960   5.754   2.311  0.3365 -0.5665  0.0092
 5550SOL    HW127119   1.049   5.752   2.358  0.1958  0.7484  0.3661
 5550SOL    HW227120   0.974   5.777   2.215  0.3099  0.7878  0.3136
 5551SOL     OW27121   0.085   0.902   3.105  0.1089  0.3600 -0.1831
 5551SOL    HW127122   0.161   0.945   3.057  0.2048  0.5742  0.1592
 5551SOL    HW227123   0.103   0.804   3.117 -0.4342  0.0644 -1.6123
 5552SOL     OW27124   1.957   1.137   1.035  0.1347 -0.2794  0.0419
 5552SOL    HW127125   1.910   1.153   1.121  1.5858 -0.2326  0.8429
 5552SOL    HW227126   2.029   1.206   1.023 -0.3589 -0.0010 -1.4323
 5553SOL     OW27127   9.746   1.486   1.159  0.2195  0.1939  0.2323
 5553SOL    HW127128   9.723   1.581   1.136  1.0278  0.0939 -1.0712
 5553SOL    HW227129   9.834   1.463   1.116 -0.3570 -1.3944 -0.0983
 5554SOL     OW27130   4.572   9.976   3.967 -0.2908  0.4404 -0.1899
 5554SOL    HW127131   4.576   9.966   4.066  0.0844 -0.2344 -0.2665
 5554SOL    HW227132   4.545  10.069   3.943  0.2784  0.7919  0.5354
 5555SOL     OW27133   2.520   2.295   3.940  0.2054  0.8234 -0.1550
 5555SOL    HW127134   2.522   2.271   3.843  2.9377 -0.2411  0.1373
 5555SOL    HW227135   2.590   2.243   3.989  0.0761  2.6923  2.0874
 5556SOL     OW27136   1.141   3.018   0.470 -0.3358 -0.8208 -0.1942
 5556SOL    HW127137   1.220   2.957   0.469 -1.7412 -2.6548 -1.2518
 5556SOL    HW227138   1.057   2.965   0.457 -1.6379  1.2687 -0.5774
 5557SOL     OW27139   8.597   1.036   3.402  0.0312 -0.1825 -0.8886
 5557SOL    HW127140   8.518   0.986   3.366 -0.1917  0.6603 -1.5695
 5557SOL    HW227141   8.621   0.999   3.492 -2.3195  0.8142  0.1697
 5558SOL     OW27142   0.874   7.637   3.192 -0.0762 -0.1124 -0.2368
 5558SOL    HW127143   0.938   7.690   3.136  1.3678 -1.6148 -0.0560
 5558SOL    HW227144   0.831   7.567   3.135  0.8886 -1.2045  0.3472
 5559SOL     OW27145   3.438   5.144   3.223  0.4463  0.4316  0.4137
 5559SOL    HW127146   3.397   5.128   3.313  0.7760 -0.0540  0.4746
 5559SOL    HW227147   3.453   5.057   3.177  2.2697  0.5586  0.7612
 5560SOL     OW27148   0.131   9.602   2.963 -0.1868  0.0579 -0.2036
 5560SOL    HW127149   0.172   9.604   2.872 -1.0549  0.8047 -0.5816
 5560SOL    HW227150   0.076   9.684   2.977 -0.9629 -0.5791  0.5713
 5561SOL     OW27151   2.399   9.551   2.635  0.3642 -0.0390  0.0096
 5561SOL    HW127152   2.444   9.635   2.664  0.5911 -0.1064 -0.1454
 5561SOL    HW227153   2.354   9.565   2.547  0.2489 -0.0279  0.0696
 5562SOL     OW27154   8.656   7.105   2.500 -0.3246  0.0566 -0.0598
 5562SOL    HW127155   8.588   7.177   2.508 -0.0770  0.4388 -1.2665
 5562SOL    HW227156   8.624   7.036   2.435  0.5231  0.3414 -0.7904
 5563SOL     OW27157   0.092   6.748   2.533  0.3434  0.2861  0.0332
 5563SOL    HW127158   0.044   6.661   2.541 -0.3488  0.6166 -0.4639
 5563SOL    HW227159   0.189   6.731   2.515 -0.1993 -0.3924 -2.4846
 5564SOL     OW27160   1.022   2.059   1.934  0.1003 -0.0747  0.4030
 5564SOL    HW127161   0.960   2.056   1.855  0.2868  0.4851  0.2351
 5564SOL    HW227162   1.090   1.986   1.927 -0.4377 -0.5914  0.5044
 5565SOL     OW27163   4.140   0.436   2.949  0.7333  0.3152  0.0478
 5565SOL    HW127164   4.190   0.446   2.863  1.5634 -0.4834  0.4288
 5565SOL    HW227165   4.105   0.342   2.957 -1.4298  1.0435 -0.5294
 5566SOL     OW27166   8.563   8.564   3.841  0.2423 -0.0673 -0.5683
 5566SOL    HW127167   8.642   8.523   3.886  0.1713 -0.4852 -0.8231
 5566SOL    HW227168   8.592   8.642   3.786  0.3137  0.5178  0.2898
 5567SOL     OW27169   0.532   8.434   1.897  0.1003  0.4443 -0.2669
 5567SOL    HW127170   0.455   8.492   1.872 -0.7224  0.0730  1.3711
 5567SOL    HW227171   0.597   8.487   1.951  0.8615  0.6665 -1.3686
 5568SOL     OW27172   3.950   1.015   0.035 -0.2355  0.1572  0.1823
 5568SOL    HW127173   3.996   0.940  -0.013 -0.5147  1.8331 -2.8519
 5568SOL    HW227174   3.853   1.016   0.011 -0.4373  0.8755  0.9953
 5569SOL     OW27175   5.525   8.157   1.562  0.3830  0.1729  0.2450
 5569SOL    HW127176   5.476   8.160   1.649 -1.4558  1.4719 -0.7805
 5569SOL    HW227177   5.601   8.222   1.565  2.5182 -2.3395  2.0895
 5570SOL     OW27178   0.753   6.343   2.617  0.5420 -0.1552  0.2950
 5570SOL    HW127179   0.729   6.310   2.708  0.2184 -1.8841 -0.4007
 5570SOL    HW227180   0.704   6.290   2.548 -1.5191  3.0938 -0.8354
 5571SOL     OW27181   0.342   7.108   2.094  0.1546 -0.2470  0.1127
 5571SOL    HW127182   0.310   7.076   2.183 -1.7748 -0.1260 -0.4961
 5571SOL    HW227183   0.263   7.135   2.038  1.4144  0.9088 -1.1660
 5572SOL     OW27184   2.498   0.705   2.564 -0.6885 -0.6864  0.1554
 5572SOL    HW127185   2.549   0.621   2.544 -1.6283 -0.9274 -1.3090
 5572SOL    HW227186   2.423   0.684   2.627 -2.3349 -1.4483 -1.9705
 5573SOL     OW27187   2.550   7.993   3.367  0.0349 -0.2444 -0.4344
 5573SOL    HW127188   2.586   7.973   3.459  0.6847 -0.4197 -0.7241
 5573SOL    HW227189   2.575   8.086   3.342 -1.5274  0.3663  0.2177
 5574SOL     OW27190   8.901   9.757   1.201 -0.2144  0.6446  0.3429
 5574SOL    HW127191   8.893   9.662   1.233 -1.7936  1.0937  1.3452
 5574SOL    HW227192   8.835   9.772   1.128  1.5001  0.3968 -1.2860
 5575SOL     OW27193   2.414   6.214   3.947 -0.1661 -0.1741  0.6071
 5575SOL    HW127194   2.349   6.147   3.984 -3.2450  1.0706 -2.3755
 5575SOL    HW227195   2.503   6.170   3.935 -1.2208 -2.7683  1.8428
 5576SOL     OW27196   3.402   1.255   1.263  0.0931 -0.0231  0.3440
 5576SOL    HW127197   3.482   1.264   1.323 -0.1867  3.0339  0.3693
 5576SOL    HW227198   3.427   1.283   1.170 -0.8624  0.7526  0.3068
 5577SOL     OW27199   2.447   1.735   3.224  0.3396  0.3244  0.3245
 5577SOL    HW127200   2.367   1.734   3.284  1.6449  1.1032  2.1084
 5577SOL    HW227201   2.512   1.665   3.254  0.1379 -0.6609 -1.4343
 5578SOL     OW27202   0.241   1.812   0.905 -0.1103  0.2078  0.6360
 5578SOL    HW127203   0.235   1.823   1.004 -0.6430  1.2886  0.4887
 5578SOL    HW227204   0.166   1.861   0.861  0.7003  0.5822 -0.3580
 5579SOL     OW27205   3.380   1.398   1.649  0.4138 -0.2602 -0.4545
 5579SOL    HW127206   3.327   1.352   1.721  0.1471  3.6011  1.9722
 5579SOL    HW227207   3.319   1.425   1.575  0.1951 -1.7905 -0.8477
 5580SOL     OW27208   9.145   0.686   2.293 -0.1960  0.1070 -0.2860
 5580SOL    HW127209   9.086   0.767   2.301 -1.5550 -0.9493  0.5974
 5580SOL    HW227210   9.182   0.663   2.383 -0.0163 -0.4020 -0.4906
 5581SOL     OW27211   8.889   2.015   0.507  0.0078  0.5590  0.1817
 5581SOL    HW127212   8.946   1.937   0.533  1.0280  0.9634 -0.8124
 5581SOL    HW227213   8.793   1.994   0.527  0.2464 -1.0300 -0.2678
 5582SOL     OW27214   9.886   4.906   0.699  0.0278 -0.1365 -0.7008
 5582SOL    HW127215   9.860   4.959   0.780  1.1809  0.9057 -0.9948
 5582SOL    HW227216   9.829   4.824   0.693 -0.3524 -0.0064  0.9282
 5583SOL     OW27217   3.046   5.779   0.073 -0.1374 -0.2258  0.0493
 5583SOL    HW127218   3.067   5.876   0.086  1.3371 -0.4032 -0.9259
 5583SOL    HW227219   2.963   5.770   0.018 -1.0224  0.4725  1.2350
 5584SOL     OW27220   1.653   0.980   1.236 -0.1188 -0.5227 -0.0099
 5584SOL    HW127221   1.682   0.893   1.276 -0.6843  0.1324  1.8561
 5584SOL    HW227222   1.568   0.967   1.185 -0.3057 -1.0249  0.4338
 5585SOL     OW27223   8.204   3.843   3.862  0.3480  0.0007  0.1998
 5585SOL    HW127224   8.113   3.871   3.893  1.8771  3.5607  1.7801
 5585SOL    HW227225   8.225   3.889   3.776  1.8947  1.8426  1.5152
 5586SOL     OW27226   9.833   0.237   1.386 -0.1414  0.6957  0.4107
 5586SOL    HW127227   9.793   0.153   1.422  0.2350  0.2857 -0.1356
 5586SOL    HW227228   9.762   0.307   1.379 -0.6113  0.1952  0.1422
 5587SOL     OW27229   9.487   8.858   2.919  0.2137 -0.0076  0.5342
 5587SOL    HW127230   9.561   8.791   2.918  0.8653  0.6975 -2.0388
 5587SOL    HW227231   9.402   8.815   2.890  0.0689 -0.2945  1.3593
 5588SOL     OW27232   3.517   1.322   3.342 -0.0318  0.3774 -0.2992
 5588SOL    HW127233   3.614   1.334   3.323 -0.2270  0.3332 -1.3448
 5588SOL    HW227234   3.495   1.362   3.431  0.6706  1.6053 -0.6679
 5589SOL     OW27235   0.706   1.682   1.499  0.1514 -0.2459  0.3289
 5589SOL    HW127236   0.706   1.751   1.427 -0.0166 -0.5092  0.0747
 5589SOL    HW227237   0.721   1.726   1.587 -1.9770  0.3766  0.4067
 5590SOL     OW27238   1.157   4.339   3.450 -0.0467  0.2551 -0.4329
 5590SOL    HW127239   1.221   4.302   3.517 -0.4482  0.1685 -0.0921
 5590SOL    HW227240   1.193   4.326   3.358  0.0864 -0.4412 -0.2822
 5591SOL     OW27241   1.442   8.701   3.394  0.2160  0.7491 -0.9374
 5591SOL    HW127242   1.462   8.777   3.333  2.5936  0.6755 -0.2982
 5591SOL    HW227243   1.511   8.698   3.467 -1.9482  0.2134  1.1656
 5592SOL     OW27244   2.926   3.050   3.005  0.3943  0.2373 -0.1431
 5592SOL    HW127245   2.833   3.036   3.039  0.4982  0.1851  0.1208
 5592SOL    HW227246   2.923   3.079   2.909  0.1075  0.2224 -0.1374
 5593SOL     OW27247   1.465   8.525   3.788  0.0035 -0.2875  0.1835
 5593SOL    HW127248   1.518   8.593   3.838 -0.1421 -0.3852  0.4712
 5593SOL    HW227249   1.508   8.508   3.699 -1.1020  1.7355 -0.7865
 5594SOL     OW27250   3.334   4.463   1.404 -0.2736  0.1619  0.7750
 5594SOL    HW127251   3.307   4.555   1.376 -1.4208 -1.0891 -2.3576
 5594SOL    HW227252   3.434   4.455   1.399 -0.2321  0.9772  0.2281
 5595SOL     OW27253   3.633   2.819   3.032 -0.0867  0.3031 -0.3776
 5595SOL    HW127254   3.571   2.890   3.067  0.2761  0.8730 -0.8701
 5595SOL    HW227255   3.725   2.835   3.068  0.2788  0.8722 -1.5421
 5596SOL     OW27256   0.628   6.835   0.226 -0.1809 -0.0817  0.0519
 5596SOL    HW127257   0.604   6.930   0.207 -1.8036 -0.3918  0.4550
 5596SOL    HW227258   0.723   6.830   0.257 -0.4104  1.5373  1.0786
 5597SOL     OW27259   2.599   1.963   3.252 -0.7223  0.0610 -0.1942
 5597SOL    HW127260   2.529   1.892   3.249 -1.2164  0.5916 -2.0065
 5597SOL    HW227261   2.689   1.922   3.233 -1.0364 -0.0696 -1.4562
 5598SOL     OW27262   7.869   3.231   0.762  0.3568  0.0601 -0.0591
 5598SOL    HW127263   7.954   3.279   0.781  0.6904 -0.7828  0.6474
 5598SOL    HW227264   7.873   3.139   0.803 -1.0588  0.1783  0.3720
 5599SOL     OW27265   4.381   2.587   2.625  0.1965 -0.1779 -0.5149
 5599SOL    HW127266   4.408   2.647   2.700  0.7493  0.4247 -1.1939
 5599SOL    HW227267   4.335   2.641   2.554 -0.8095 -0.8322 -0.3681
 5600SOL     OW27268   4.016   9.565   3.484 -0.1181 -0.8002  0.1151
 5600SOL    HW127269   4.090   9.571   3.551 -0.0827 -0.0230  0.0127
 5600SOL    HW227270   3.934   9.610   3.521  0.1204  0.2774 -0.6574
 5601SOL     OW27271   4.106   2.207   2.948 -0.5688  0.6354  0.2762
 5601SOL    HW127272   4.095   2.201   2.848  0.3200 -0.5710  0.2409
 5601SOL    HW227273   4.180   2.271   2.969  0.5720 -0.5822  0.0721
 5602SOL     OW27274   7.828   3.809   0.679 -0.3613  0.4411 -0.2672
 5602SOL    HW127275   7.853   3.845   0.769 -1.7495  0.7759 -0.0059
 5602SOL    HW227276   7.882   3.854   0.608  0.0665  0.8508  0.3183
 5603SOL     OW27277   8.813   4.231   0.838 -0.2349 -0.1119  0.0695
 5603SOL    HW127278   8.762   4.316   0.851  0.3546  0.1941  0.4045
 5603SOL    HW227279   8.897   4.250   0.787  1.3696  0.0291  2.6680
 5604SOL     OW27280   1.521   3.465   3.775  0.1407 -0.4758 -0.0742
 5604SOL    HW127281   1.535   3.368   3.794 -2.1553 -0.3749  2.3686
 5604SOL    HW227282   1.451   3.475   3.705  1.2685 -0.5942 -1.2321
 5605SOL     OW27283   1.240   0.762   0.823  0.4887 -0.5198 -0.1333
 5605SOL    HW127284   1.274   0.789   0.913  0.9033 -2.3442  0.2701
 5605SOL    HW227285   1.310   0.781   0.754  1.0277 -1.1361  0.2359
 5606SOL     OW27286   3.749   1.074   0.874 -0.3920 -0.5077  0.6342
 5606SOL    HW127287   3.707   1.126   0.800  0.5495 -1.9975 -1.0007
 5606SOL    HW227288   3.769   1.134   0.951 -0.1301  1.3579 -0.8619
 5607SOL     OW27289   1.260   2.676   3.619 -0.4847 -0.0042  0.6223
 5607SOL    HW127290   1.240   2.750   3.685  0.1886  0.7229  0.0232
 5607SOL    HW227291   1.344   2.629   3.647  1.0740  1.7835 -0.9485
 5608SOL     OW27292   3.208   3.135   0.438 -0.8010  0.1688 -0.4483
 5608SOL    HW127293   3.191   3.104   0.345  0.5113 -0.9576 -0.3250
 5608SOL    HW227294   3.283   3.202   0.438  0.6165 -1.3951  0.0339
 5609SOL     OW27295   1.293   8.731   0.791  0.7186  0.0260  0.1948
 5609SOL    HW127296   1.311   8.751   0.695 -0.5068 -0.5592 -0.1724
 5609SOL    HW227297   1.267   8.815   0.839  2.2219  0.4833  0.2411
 5610SOL     OW27298   1.212   8.983   1.630 -0.0589  0.1415  0.1451
 5610SOL    HW127299   1.268   9.065   1.643  0.6305 -0.1536 -0.8825
 5610SOL    HW227300   1.253   8.925   1.560 -1.1539 -0.5426  0.0504
 5611SOL     OW27301   8.364   0.075   1.865 -0.0247  0.4840 -0.0645
 5611SOL    HW127302   8.393  -0.018   1.888 -2.9345 -0.4678 -0.0065
 5611SOL    HW227303   8.345   0.125   1.949  0.5345  0.7962 -0.1231
 5612SOL     OW27304   0.369   9.948   0.594 -0.4474 -0.0300 -0.0101
 5612SOL    HW127305   0.305   9.873   0.577  1.1844 -1.3296 -0.6989
 5612SOL    HW227306   0.447   9.940   0.531 -0.2384  2.2617 -0.0804
 5613SOL     OW27307   1.068   7.710   0.196  0.6802 -0.1289  0.3465
 5613SOL    HW127308   1.124   7.705   0.278  1.2866  1.8487  0.0580
 5613SOL    HW227309   1.029   7.801   0.187 -3.1223 -1.5856  0.8817
 5614SOL     OW27310   2.566   0.800   0.376  0.2568  0.4797  0.0805
 5614SOL    HW127311   2.477   0.833   0.408 -0.9428 -1.0894 -1.5774
 5614SOL    HW227312   2.573   0.701   0.391  0.3584  0.0114 -2.8621
 5615SOL     OW27313   2.999   5.671   2.336  0.3528  0.0193  0.2648
 5615SOL    HW127314   3.013   5.723   2.252  0.6247  1.0207  0.9241
 5615SOL    HW227315   2.969   5.732   2.409 -2.1149 -1.2154  0.3193
 5616SOL     OW27316   9.543   3.649   1.934 -0.2363  0.0736  0.0800
 5616SOL    HW127317   9.472   3.687   1.874  1.0155  0.4301 -1.2023
 5616SOL    HW227318   9.559   3.553   1.911 -0.4454 -0.0743  0.5291
 5617SOL     OW27319   2.581   2.476   1.430  0.4257  0.1511 -0.4585
 5617SOL    HW127320   2.486   2.507   1.426 -0.0142 -0.7130  2.4011
 5617SOL    HW227321   2.602   2.426   1.346 -1.5066  0.7240 -1.3264
 5618SOL     OW27322   3.106   5.993   3.390 -0.2728 -0.2701  0.5974
 5618SOL    HW127323   3.041   6.062   3.421 -1.4669  0.1831 -2.7233
 5618SOL    HW227324   3.057   5.909   3.366  0.6358 -0.7292  0.3263
 5619SOL     OW27325   7.338   3.095   0.166  0.7228  0.4569 -0.2497
 5619SOL    HW127326   7.415   3.131   0.218  1.0330 -1.1617  0.4458
 5619SOL    HW227327   7.320   3.001   0.195  1.3005 -0.7138 -3.5015
 5620SOL     OW27328   5.208   7.606   2.508 -0.7656  0.3165  0.5074
 5620SOL    HW127329   5.135   7.554   2.464  1.3660  0.6962 -3.7875
 5620SOL    HW227330   5.180   7.701   2.520 -1.5219  0.1223  0.2592
 5621SOL     OW27331   0.682   4.641   4.048  0.9248 -0.9153  0.0491
 5621SOL    HW127332   0.710   4.560   3.996  2.2482 -0.6618  0.3657
 5621SOL    HW227333   0.697   4.625   4.146  0.9601 -0.3716  0.1325
 5622SOL     OW27334   2.918   2.593   3.354 -0.1501  0.1178 -0.1761
 5622SOL    HW127335   3.011   2.585   3.320 -0.1662  0.4940 -0.3021
 5622SOL    HW227336   2.869   2.663   3.303 -0.4197  0.1112  0.0727
 5623SOL     OW27337   2.823   6.609   1.496  0.0330  0.0948  0.0704
 5623SOL    HW127338   2.917   6.602   1.462  0.0532 -0.8221  0.3021
 5623SOL    HW227339   2.760   6.583   1.423 -0.0083  0.0671  0.1163
 5624SOL     OW27340   3.174   1.325   3.062  0.0657 -0.5172 -0.3234
 5624SOL    HW127341   3.179   1.409   3.116  0.6296  0.0405 -1.2361
 5624SOL    HW227342   3.122   1.256   3.112  1.4671 -0.3540  1.4149
 5625SOL     OW27343   9.666   5.817   0.796  0.4233 -1.0177 -0.3822
 5625SOL    HW127344   9.669   5.739   0.734  0.6054 -1.0721 -0.3041
 5625SOL    HW227345   9.680   5.902   0.745 -3.5993 -0.6989 -1.1024
 5626SOL     OW27346   2.298   8.361   2.268  0.5141 -0.5052 -0.7531
 5626SOL    HW127347   2.285   8.326   2.360  1.8277  0.4607 -0.1844
 5626SOL    HW227348   2.326   8.287   2.207 -2.0509 -1.4944 -0.7837
 5627SOL     OW27349   3.596   8.172   3.511  0.4315  0.1876 -0.2635
 5627SOL    HW127350   3.556   8.242   3.452  0.2831 -0.5618 -1.0514
 5627SOL    HW227351   3.581   8.198   3.607 -0.0748  0.9762 -0.5461
 5628SOL     OW27352   3.422   8.631   0.108 -0.1942 -0.1083  0.1655
 5628SOL    HW127353   3.487   8.701   0.139 -1.3032  0.9624  0.0970
 5628SOL    HW227354   3.353   8.616   0.179 -0.7238 -0.1698 -0.3593
 5629SOL     OW27355   8.590   0.301   2.114  0.0713 -0.8326  0.0154
 5629SOL    HW127356   8.664   0.303   2.047 -1.2793 -0.9832 -1.5341
 5629SOL    HW227357   8.560   0.395   2.134 -0.7761 -0.8612 -1.0547
 5630SOL     OW27358   1.672   3.575   1.418  0.0992 -0.0994 -0.6216
 5630SOL    HW127359   1.703   3.514   1.345  0.5556  0.8709 -1.2474
 5630SOL    HW227360   1.710   3.666   1.404 -0.6125  0.3489  0.2823
 5631SOL     OW27361   9.600   1.946   1.400  0.4546  0.3538 -0.4333
 5631SOL    HW127362   9.687   1.947   1.351 -0.0783  0.6934 -1.3961
 5631SOL    HW227363   9.539   2.014   1.359 -1.1109 -1.5685 -1.3487
 5632SOL     OW27364   9.331   8.424   0.487  0.2259 -0.6109  0.2142
 5632SOL    HW127365   9.237   8.439   0.456  0.1804  1.0416  1.1498
 5632SOL    HW227366   9.336   8.429   0.586  1.2906 -0.8116  0.1862
 5633SOL     OW27367   3.736   1.175   2.880  0.0488 -0.7770 -0.0858
 5633SOL    HW127368   3.726   1.204   2.785  1.1414 -1.8506 -0.5435
 5633SOL    HW227369   3.717   1.252   2.941 -1.4208 -0.2919 -1.1474
 5634SOL     OW27370   8.250   9.299   1.666 -0.0816  0.0498  0.2904
 5634SOL    HW127371   8.295   9.264   1.584  1.4370  0.8177  0.7614
 5634SOL    HW227372   8.312   9.362   1.713 -1.3503  0.4670  1.4380
 5635SOL     OW27373   4.176   8.098   3.285  0.0440  0.1835  0.5255
 5635SOL    HW127374   4.078   8.113   3.278  0.1001  0.5115  0.4449
 5635SOL    HW227375   4.195   8.032   3.358 -0.3151 -0.8008 -0.2598
 5636SOL     OW27376   4.706   2.655   1.032  0.2200  0.2148 -0.0187
 5636SOL    HW127377   4.769   2.680   0.959 -1.1388 -1.1435 -1.6855
 5636SOL    HW227378   4.758   2.625   1.112  1.6880 -1.5071 -1.5792
 5637SOL     OW27379   9.959   3.674   2.033  0.0634 -0.7143  0.3139
 5637SOL    HW127380   9.869   3.698   2.069 -0.0122 -0.8516  0.2181
 5637SOL    HW227381  10.025   3.745   2.057 -0.0957 -0.5559  0.2825
 5638SOL     OW27382   0.774   5.807   0.544 -0.3784 -0.4714 -0.3742
 5638SOL    HW127383   0.850   5.748   0.572 -0.1038 -0.0261 -0.1772
 5638SOL    HW227384   0.687   5.765   0.571 -0.1457 -0.3354  0.6238
 5639SOL     OW27385   9.072   1.532   0.229 -0.3101  0.2060 -0.1323
 5639SOL    HW127386   9.144   1.597   0.206  1.1460 -1.6249 -0.9291
 5639SOL    HW227387   9.015   1.515   0.149 -1.4359  1.4101  0.4097
 5640SOL     OW27388   3.104   7.128   2.918 -0.3270  0.2208 -0.0063
 5640SOL    HW127389   3.096   7.124   2.819  0.2128 -0.6079 -0.0202
 5640SOL    HW227390   3.124   7.222   2.946 -0.6145  0.4815 -0.6675
 5641SOL     OW27391   8.899   7.941   1.619  1.0797  0.4081  0.3288
 5641SOL    HW127392   8.970   7.970   1.555  0.5034 -1.1289 -1.0545
 5641SOL    HW227393   8.911   7.844   1.640  0.6430  0.6480  1.7588
 5642SOL     OW27394   4.428   4.076   0.249  0.0179 -0.5121  0.3789
 5642SOL    HW127395   4.494   4.069   0.174 -0.6683  2.2955 -0.5533
 5642SOL    HW227396   4.336   4.064   0.213 -0.3148  0.8355  0.7473
 5643SOL     OW27397   3.015   1.434   1.005  0.7218 -0.2600 -0.4361
 5643SOL    HW127398   3.089   1.373   0.979 -0.2446 -2.1397  1.0352
 5643SOL    HW227399   3.026   1.522   0.961  2.1600 -1.5118 -2.6396
 5644SOL     OW27400   6.962   9.505   2.911  0.4119  0.0357 -0.3547
 5644SOL    HW127401   7.039   9.548   2.958  0.6548 -1.7880  0.9949
 5644SOL    HW227402   6.989   9.475   2.820  0.7042  1.2485 -0.6655
 5645SOL     OW27403   5.151   7.705   1.093 -0.2345 -0.2143 -0.1774
 5645SOL    HW127404   5.148   7.776   1.023  0.5950 -0.0912 -0.0902
 5645SOL    HW227405   5.187   7.743   1.178 -0.8566 -0.4635  0.1993
 5646SOL     OW27406   2.629   1.028   1.314  0.4170 -0.0146  0.0666
 5646SOL    HW127407   2.570   0.951   1.289  0.4415  0.3855 -1.2820
 5646SOL    HW227408   2.575   1.098   1.359  0.5444 -1.1523  2.0633
 5647SOL     OW27409   3.068   5.572   2.039 -0.9847 -0.2172 -0.8554
 5647SOL    HW127410   3.105   5.500   1.981 -1.3860 -0.7785 -0.4299
 5647SOL    HW227411   3.107   5.564   2.131 -1.0393  0.0947 -0.8055
 5648SOL     OW27412   3.273   1.139   2.596 -0.5346  0.3622 -0.1389
 5648SOL    HW127413   3.175   1.117   2.604 -0.7807  1.5472  0.2735
 5648SOL    HW227414   3.284   1.218   2.536  0.2587 -0.4155 -1.0048
 5649SOL     OW27415   1.618   9.922   3.408  0.4856 -0.2728  0.2604
 5649SOL    HW127416   1.699   9.868   3.433  2.1449  2.2716  0.6108
 5649SOL    HW227417   1.582   9.968   3.490 -0.8114 -0.7300 -0.0481
 5650SOL     OW27418   7.233   2.426   0.332 -0.6345 -0.3558 -0.0066
 5650SOL    HW127419   7.163   2.356   0.316 -0.6136 -0.2349 -0.6145
 5650SOL    HW227420   7.295   2.430   0.255 -0.8990  0.6386 -0.1769
 5651SOL     OW27421   8.145   1.154   3.667 -0.1204  0.6025  0.6370
 5651SOL    HW127422   8.208   1.079   3.688 -0.3700 -0.2160 -1.3982
 5651SOL    HW227423   8.190   1.217   3.603 -0.9528  0.6382  0.0883
 5652SOL     OW27424   9.699   4.242   0.024  0.3733 -0.1244  0.4525
 5652SOL    HW127425   9.653   4.160  -0.009  0.0267  0.2104  0.0915
 5652SOL    HW227426   9.660   4.270   0.111 -0.5945  0.5646 -0.1978
 5653SOL     OW27427   9.770   4.651   2.746  0.1536  0.7400  0.0537
 5653SOL    HW127428   9.747   4.671   2.841 -0.2147  1.0271 -0.0917
 5653SOL    HW227429   9.749   4.732   2.690  2.5075  1.4080  0.0753
 5654SOL     OW27430   9.032   0.371   1.538  0.0823 -0.2324 -0.2467
 5654SOL    HW127431   9.018   0.403   1.444  1.3776  3.1938  0.6607
 5654SOL    HW227432   8.972   0.422   1.600  1.0505 -0.6859  1.0942
 5655SOL     OW27433   3.640   7.820   1.743  0.4169  0.3449 -0.1753
 5655SOL    HW127434   3.608   7.915   1.748  0.6831  0.5245 -1.7703
 5655SOL    HW227435   3.575   7.766   1.689 -0.0278 -0.5210  1.1962
 5656SOL     OW27436   5.619   8.853   2.152 -0.6186  0.6748 -0.4266
 5656SOL    HW127437   5.527   8.815   2.158 -0.4209  0.3913  1.0646
 5656SOL    HW227438   5.614   8.953   2.159 -0.8419  0.6942 -0.8146
 5657SOL     OW27439   0.064   7.931   1.646 -0.0187  0.3931  0.5459
 5657SOL    HW127440  -0.016   7.954   1.701 -0.2793 -0.5054  0.5483
 5657SOL    HW227441   0.113   7.854   1.688 -0.3837 -0.4919 -0.6121
 5658SOL     OW27442   6.516   9.501   1.619 -0.1760 -0.8108  0.0431
 5658SOL    HW127443   6.605   9.489   1.662 -0.3322  0.4554  0.7498
 5658SOL    HW227444   6.483   9.413   1.585  0.4306 -1.6367  1.5686
 5659SOL     OW27445   8.850   6.981   2.901  0.4525  0.0675 -0.6641
 5659SOL    HW127446   8.768   6.986   2.844  1.5076 -1.3119 -2.3683
 5659SOL    HW227447   8.845   6.899   2.959 -0.2727  1.0649  0.7070
 5660SOL     OW27448   1.162   2.307   2.342  0.0656  0.2680 -0.4136
 5660SOL    HW127449   1.209   2.268   2.421  0.7761 -0.8740 -1.3880
 5660SOL    HW227450   1.220   2.299   2.261 -1.6274 -0.8299 -1.5521
 5661SOL     OW27451   2.526   5.724   3.302  0.4913  0.3916  0.1471
 5661SOL    HW127452   2.445   5.706   3.358  2.7273 -1.2148  3.0372
 5661SOL    HW227453   2.517   5.676   3.214 -0.5950 -1.9151  1.4481
 5662SOL     OW27454   3.607   8.368   2.863 -0.0418  0.1173 -0.1732
 5662SOL    HW127455   3.678   8.391   2.796  0.1023 -0.2589 -0.1478
 5662SOL    HW227456   3.521   8.353   2.816 -0.1455  0.7294 -0.1912
 5663SOL     OW27457   3.095   7.273   1.449 -0.0664  0.3115  0.6771
 5663SOL    HW127458   3.084   7.370   1.427  0.6903  0.5572  1.3868
 5663SOL    HW227459   3.014   7.240   1.498 -0.2671  0.6064  0.5465
 5664SOL     OW27460   8.983   4.533   0.206 -0.2034 -0.0322 -0.1990
 5664SOL    HW127461   8.889   4.507   0.182  0.1074 -1.0990 -0.2608
 5664SOL    HW227462   9.037   4.541   0.122  0.5055 -2.3140  0.0085
 5665SOL     OW27463   4.368   0.617   3.386  0.3402  1.0027 -0.3571
 5665SOL    HW127464   4.407   0.650   3.472  0.5720  0.1119 -0.1140
 5665SOL    HW227465   4.419   0.536   3.356 -0.5149  0.5997 -0.7141
 5666SOL     OW27466   1.287   2.909   2.771 -0.4075  0.1268 -0.6610
 5666SOL    HW127467   1.330   2.942   2.687 -1.2645 -0.3752 -1.3036
 5666SOL    HW227468   1.212   2.847   2.748  0.1994 -1.0668  0.4964
 5667SOL     OW27469   9.923   5.152   3.205 -0.0305 -0.5026 -0.4919
 5667SOL    HW127470   9.920   5.218   3.280 -2.5045 -1.1631  0.0382
 5667SOL    HW227471  10.000   5.090   3.218  0.4254  0.3008  0.7120
 5668SOL     OW27472   0.326   2.810   2.841  0.2044  0.7580 -0.1215
 5668SOL    HW127473   0.260   2.766   2.780 -0.9256  2.0574  0.1607
 5668SOL    HW227474   0.409   2.832   2.789  0.3681 -0.7213 -0.5140
 5669SOL     OW27475   0.358   7.005   0.351  0.6827  0.2651  0.0938
 5669SOL    HW127476   0.268   7.043   0.328  0.1194  0.3219  2.2090
 5669SOL    HW227477   0.395   6.956   0.272 -0.9921  0.6534 -0.9654
 5670SOL     OW27478   8.736   1.361   3.046  0.3101  0.1343  0.1501
 5670SOL    HW127479   8.796   1.341   2.968 -0.1181  0.1878 -0.1960
 5670SOL    HW227480   8.744   1.287   3.113  0.7667  0.1429  0.1073
 5671SOL     OW27481   2.592   9.733   2.752  0.0730 -0.0466 -0.3376
 5671SOL    HW127482   2.660   9.769   2.816 -1.6658  2.1815  0.3540
 5671SOL    HW227483   2.575   9.801   2.681 -2.6861  0.1971  0.5021
 5672SOL     OW27484   2.191   1.650   0.430  0.6641 -0.4316  0.4657
 5672SOL    HW127485   2.254   1.712   0.382  1.0269  0.1863  1.7334
 5672SOL    HW227486   2.127   1.703   0.484 -1.0834 -1.0528 -0.9444
 5673SOL     OW27487   4.857   1.623   0.784  0.0494  0.4798 -0.0991
 5673SOL    HW127488   4.935   1.562   0.767  0.3901  0.7929  0.3167
 5673SOL    HW227489   4.776   1.570   0.807  0.5802  0.2156  1.2099
 5674SOL     OW27490   0.033   5.996   0.822 -0.5439  0.3179 -0.2927
 5674SOL    HW127491   0.073   5.919   0.773  0.2768  0.5611 -0.0214
 5674SOL    HW227492   0.000   5.965   0.912 -0.2985  0.2690 -0.2204
 5675SOL     OW27493   4.514   6.876   2.455  0.1574 -0.0068  0.1607
 5675SOL    HW127494   4.560   6.836   2.534 -1.0697 -1.8213 -0.0221
 5675SOL    HW227495   4.565   6.854   2.372  0.0156 -0.3357  0.1626
 5676SOL     OW27496   6.058   9.169   1.803 -0.5319 -0.3809  0.0003
 5676SOL    HW127497   6.077   9.249   1.860  0.9655 -0.3426 -0.5418
 5676SOL    HW227498   5.987   9.192   1.736 -1.1127  0.0664  0.7624
 5677SOL     OW27499   8.676   4.261   1.278  0.4081  0.3452  0.2156
 5677SOL    HW127500   8.676   4.163   1.259 -0.3879  0.7638 -2.1284
 5677SOL    HW227501   8.704   4.311   1.196  0.0508  2.1337  1.1478
 5678SOL     OW27502   4.377   2.327   0.355  0.0681  0.2439 -0.0425
 5678SOL    HW127503   4.426   2.325   0.442  0.6723  0.3773 -0.3828
 5678SOL    HW227504   4.314   2.404   0.354 -0.5392 -0.2347  0.6055
 5679SOL     OW27505   1.873   0.346   3.843  0.0722  0.1617  0.4055
 5679SOL    HW127506   1.813   0.267   3.858 -1.3356  0.7697 -1.7752
 5679SOL    HW227507   1.842   0.422   3.900 -0.5529  0.1401  0.0988
 5680SOL     OW27508   1.580   7.508   0.139  0.0232 -0.3542  0.1195
 5680SOL    HW127509   1.494   7.487   0.093  0.0398 -1.0394  0.3820
 5680SOL    HW227510   1.596   7.440   0.211  0.3435  0.2862  0.6576
 5681SOL     OW27511   3.253   0.364   0.016  0.1671  0.2981  0.2953
 5681SOL    HW127512   3.236   0.277   0.063 -2.4955  1.9406  2.5783
 5681SOL    HW227513   3.352   0.375   0.002  0.5312 -3.3056 -0.5941
 5682SOL     OW27514   0.522   5.172   2.372  0.9913  0.5722  0.2966
 5682SOL    HW127515   0.447   5.169   2.439  2.0633  0.0523  1.4904
 5682SOL    HW227516   0.544   5.267   2.351  0.4492  0.7334  0.4551
 5683SOL     OW27517   9.958   1.669   1.664 -0.2799  0.1403 -0.2252
 5683SOL    HW127518   9.868   1.687   1.703 -0.4696 -1.6734  0.2063
 5683SOL    HW227519   9.988   1.577   1.688  1.7329  0.7427 -0.3071
 5684SOL     OW27520   1.735   5.192   2.930 -0.8797 -0.1402  0.1018
 5684SOL    HW127521   1.638   5.169   2.943 -0.8794 -0.3645 -0.2763
 5684SOL    HW227522   1.744   5.289   2.910 -1.2138 -0.4839 -1.8013
 5685SOL     OW27523   0.178   7.498   0.105  0.0428  0.3013  0.1007
 5685SOL    HW127524   0.212   7.419   0.156  1.8314  1.8171  1.3135
 5685SOL    HW227525   0.082   7.483   0.081  0.1696 -1.9535  0.8391
 5686SOL     OW27526   9.971   4.283   0.294  0.6159 -0.3393  0.1597
 5686SOL    HW127527  10.061   4.326   0.299  1.0515 -1.2019 -0.0472
 5686SOL    HW227528   9.961   4.239   0.205  0.6355 -1.6246  0.7836
 5687SOL     OW27529   3.183   2.595   0.504  0.1567  0.4618  0.6242
 5687SOL    HW127530   3.141   2.686   0.506  0.2291  0.5200 -0.6271
 5687SOL    HW227531   3.233   2.582   0.419 -0.4674 -1.0292  0.4641
 5688SOL     OW27532   0.261   3.727   2.028 -0.1815 -0.5091 -0.1249
 5688SOL    HW127533   0.275   3.757   2.122 -1.9076  1.0741 -0.3330
 5688SOL    HW227534   0.342   3.748   1.973  0.9926 -1.8081  1.0626
 5689SOL     OW27535   0.135   1.121   2.497  0.4320 -0.1353  0.3019
 5689SOL    HW127536   0.148   1.081   2.406  1.3027  0.5521  0.1090
 5689SOL    HW227537   0.159   1.054   2.567 -1.8282 -1.2331  0.0821
 5690SOL     OW27538   9.311   6.721   0.867 -0.0045 -0.0906  0.5654
 5690SOL    HW127539   9.354   6.805   0.899  1.3307 -0.3904 -0.4001
 5690SOL    HW227540   9.218   6.715   0.903  0.4775  0.9726  2.0083
 5691SOL     OW27541   9.662   6.445   3.590  0.2249  0.3847 -0.0522
 5691SOL    HW127542   9.673   6.348   3.611  0.7811  0.7434  1.4431
 5691SOL    HW227543   9.575   6.460   3.542  1.6335 -1.2428 -3.2154
 5692SOL     OW27544   0.669   6.736   3.727  0.2959  0.8304 -0.3449
 5692SOL    HW127545   0.762   6.700   3.719  0.0943  0.4956 -1.2424
 5692SOL    HW227546   0.664   6.799   3.805  0.8724 -0.3807  0.6906
 5693SOL     OW27547   6.502   7.366   2.133  0.1064  0.1930 -0.1060
 5693SOL    HW127548   6.438   7.419   2.077 -0.1398 -0.6970 -0.6772
 5693SOL    HW227549   6.487   7.269   2.117  1.6803 -0.0236 -0.3450
 5694SOL     OW27550   2.674   5.836   2.028 -0.8514 -0.1446  0.5596
 5694SOL    HW127551   2.763   5.793   2.044 -0.9958 -0.5168  0.3760
 5694SOL    HW227552   2.687   5.933   2.008 -0.3931 -0.4784 -0.7748
 5695SOL     OW27553   1.908   6.537   2.926  0.0161  0.2663  0.6119
 5695SOL    HW127554   1.846   6.532   2.847  0.6244 -0.2382  0.1658
 5695SOL    HW227555   1.895   6.457   2.984  0.4434  0.0209  0.3721
 5696SOL     OW27556   0.570   4.474   2.273 -0.0261  0.5237  0.1026
 5696SOL    HW127557   0.604   4.462   2.180  0.2970 -0.8096  0.3753
 5696SOL    HW227558   0.630   4.535   2.324  0.1245  0.7858 -0.3872
 5697SOL     OW27559   7.889   3.277   3.537 -0.4904  0.1811  0.3998
 5697SOL    HW127560   7.933   3.250   3.452 -0.6190  0.5200  0.2268
 5697SOL    HW227561   7.822   3.207   3.564 -0.7088  0.2497  0.0374
 5698SOL     OW27562   9.859   9.272   0.497  0.3414  0.1407  0.2664
 5698SOL    HW127563   9.832   9.245   0.405 -1.0176  0.0876  0.6725
 5698SOL    HW227564   9.954   9.304   0.496  0.2008  0.5297 -1.2256
 5699SOL     OW27565   4.958   4.007   1.239 -0.2023 -0.0917 -0.4650
 5699SOL    HW127566   4.977   4.050   1.327 -0.7604  0.7084 -0.7358
 5699SOL    HW227567   4.984   4.069   1.165  2.1531 -1.5218 -0.9113
 5700SOL     OW27568   0.513   5.325   0.266  0.1263  0.3062 -0.4974
 5700SOL    HW127569   0.531   5.318   0.168  1.8581 -0.4027 -0.1327
 5700SOL    HW227570   0.579   5.387   0.308 -0.2957  0.2159  0.3099
 5701SOL     OW27571   7.645   2.351   0.647  0.1280  0.6099  0.6582
 5701SOL    HW127572   7.675   2.324   0.555 -2.9403 -0.0984 -0.1947
 5701SOL    HW227573   7.665   2.448   0.662  0.2336  0.8460 -0.9243
 5702SOL     OW27574   1.284   1.070   1.970 -0.1241 -0.0270 -0.3209
 5702SOL    HW127575   1.299   0.972   1.987 -0.8626 -0.4540 -1.9693
 5702SOL    HW227576   1.369   1.112   1.942  0.3496 -0.0405  1.0599
 5703SOL     OW27577   1.257   8.449   1.697  0.2446 -0.0508 -0.2633
 5703SOL    HW127578   1.266   8.469   1.794  2.6422 -0.7802 -0.3072
 5703SOL    HW227579   1.222   8.356   1.685 -0.7807  0.3020 -0.1298
 5704SOL     OW27580   1.602   0.033   0.460 -0.2213 -0.2282 -0.5498
 5704SOL    HW127581   1.537   0.035   0.384 -2.0086  0.9256  0.9629
 5704SOL    HW227582   1.643   0.123   0.471  0.9114 -0.6944 -0.8542
 5705SOL     OW27583   1.776   2.102   1.638 -0.2198  0.1782  0.7984
 5705SOL    HW127584   1.777   2.195   1.602 -0.4090 -0.1698 -0.1200
 5705SOL    HW227585   1.844   2.094   1.711 -0.4673  1.1315  1.1390
 5706SOL     OW27586   7.630   1.897   1.836  0.3512  0.1963 -0.0903
 5706SOL    HW127587   7.565   1.837   1.789 -0.2700 -1.1758  2.4305
 5706SOL    HW227588   7.720   1.888   1.793  0.1019 -2.0176 -0.2110
 5707SOL     OW27589   3.461   9.122   3.068  0.3956  0.6657 -0.2615
 5707SOL    HW127590   3.435   9.139   3.163 -1.3103  0.4721 -0.6748
 5707SOL    HW227591   3.452   9.206   3.015  1.6329  0.8458 -0.2009
 5708SOL     OW27592   8.159   7.096   2.461 -0.2608  0.3548 -0.0764
 5708SOL    HW127593   8.083   7.157   2.439 -0.1669 -0.0090 -1.4641
 5708SOL    HW227594   8.221   7.090   2.383 -1.1524 -2.8167 -0.6192
 5709SOL     OW27595   7.920   9.394   1.043  0.2536  0.3133  0.0448
 5709SOL    HW127596   7.953   9.422   1.133  0.5474  0.2187 -0.0331
 5709SOL    HW227597   7.821   9.403   1.040  0.2009 -0.1021  0.5256
 5710SOL     OW27598   7.998   0.977   1.272 -0.0914 -0.6807 -0.2041
 5710SOL    HW127599   7.952   0.894   1.303 -1.5924  0.8923  1.9386
 5710SOL    HW227600   7.940   1.027   1.208 -1.4066  1.1976  2.3402
 5711SOL     OW27601   3.133   4.731   2.238 -0.3697  0.6932 -0.5830
 5711SOL    HW127602   3.122   4.711   2.335  2.0072 -0.8193 -0.5879
 5711SOL    HW227603   3.149   4.829   2.226 -0.6651  0.8863  0.5296
 5712SOL     OW27604   0.193   6.624   3.943 -0.3032 -0.5266 -0.3375
 5712SOL    HW127605   0.256   6.679   3.998 -1.5721  0.2866  0.3134
 5712SOL    HW227606   0.112   6.678   3.921 -1.6072 -2.1517  0.3817
 5713SOL     OW27607   8.851   6.603   3.677 -0.4001 -0.6008 -0.4384
 5713SOL    HW127608   8.940   6.644   3.655 -0.7455  0.8130  0.7220
 5713SOL    HW227609   8.835   6.525   3.617  1.2311 -0.3257 -1.2648
 5714SOL     OW27610   3.999   0.477   1.534 -0.0707 -0.0567  0.0884
 5714SOL    HW127611   4.090   0.452   1.567  0.8306  2.7012 -0.1512
 5714SOL    HW227612   3.996   0.472   1.435  0.3452  1.4085 -0.0115
 5715SOL     OW27613   3.384   5.983   0.050  0.5640  0.5120 -0.8877
 5715SOL    HW127614   3.333   6.064   0.080  1.7474  0.5963  0.9744
 5715SOL    HW227615   3.376   5.911   0.119  2.9699  0.5244 -0.5586
 5716SOL     OW27616   8.790   8.389   0.429  0.0301 -0.8746  0.0219
 5716SOL    HW127617   8.739   8.437   0.358  1.6037  1.2496  0.2767
 5716SOL    HW227618   8.732   8.375   0.509 -0.2177  1.4494  0.2899
 5717SOL     OW27619   3.172   7.803   0.626  0.2677  0.1505 -0.2231
 5717SOL    HW127620   3.108   7.758   0.689  0.6131  0.5562  0.4250
 5717SOL    HW227621   3.187   7.745   0.546 -2.2876  0.8022 -1.2572
 5718SOL     OW27622   0.492   9.328   1.762  0.7103  0.2120 -0.1806
 5718SOL    HW127623   0.424   9.310   1.691 -0.8122  0.1174  1.2701
 5718SOL    HW227624   0.497   9.250   1.825  1.3814  0.6771  0.3590
 5719SOL     OW27625   0.757   5.096   3.965  0.4742  1.0340 -0.7151
 5719SOL    HW127626   0.857   5.096   3.968  0.4503  0.1676  0.3412
 5719SOL    HW227627   0.726   5.035   3.892  0.6952 -0.7648  0.6591
 5720SOL     OW27628   3.520   5.667   1.611  0.5354 -0.5479  0.2807
 5720SOL    HW127629   3.518   5.735   1.685 -0.7968 -1.0981  0.7617
 5720SOL    HW227630   3.583   5.593   1.636 -1.4778 -1.7952  1.8455
 5721SOL     OW27631   4.015   8.085   3.597  0.3766  0.5208  0.0999
 5721SOL    HW127632   3.954   8.132   3.533  0.3243 -0.9643 -0.9800
 5721SOL    HW227633   4.011   8.129   3.686 -0.8974  1.5464 -0.4536
 5722SOL     OW27634   1.127   1.928   2.548  0.9384 -0.0787  0.0881
 5722SOL    HW127635   1.117   1.957   2.453  2.6907  0.4140  0.0358
 5722SOL    HW227636   1.197   1.856   2.554 -0.3459 -1.2990  0.7874
 5723SOL     OW27637   1.248   1.874   1.916  0.4010  0.0613  0.2160
 5723SOL    HW127638   1.345   1.861   1.939  0.6355  0.4437 -0.5491
 5723SOL    HW227639   1.240   1.912   1.824 -0.5349 -1.1044 -0.1988
 5724SOL     OW27640   7.680   7.740   2.807 -0.1749  0.8862 -0.1337
 5724SOL    HW127641   7.683   7.751   2.906  1.3475  0.1609 -0.0792
 5724SOL    HW227642   7.668   7.643   2.785  3.0706  0.5673 -0.6608
 5725SOL     OW27643   7.799   8.106   0.961  0.3182 -0.2046  0.6901
 5725SOL    HW127644   7.845   8.191   0.985 -1.5881  1.0688 -0.0510
 5725SOL    HW227645   7.705   8.108   0.997 -0.0011 -1.6517 -0.0292
 5726SOL     OW27646   8.577   4.315   2.482  0.5790 -0.3368 -0.0398
 5726SOL    HW127647   8.543   4.407   2.460 -0.3365 -1.0091 -1.5319
 5726SOL    HW227648   8.665   4.300   2.437  0.9133 -0.0664  0.5155
 5727SOL     OW27649   3.231   1.535   3.258  0.3446 -0.0127  0.3294
 5727SOL    HW127650   3.230   1.439   3.287  3.3385  0.0319  0.7234
 5727SOL    HW227651   3.314   1.579   3.291 -0.0694  2.2251 -1.4904
 5728SOL     OW27652   9.401   2.055   2.689 -0.1202  0.3213 -0.0388
 5728SOL    HW127653   9.403   2.092   2.596 -0.6417 -0.1712 -0.2557
 5728SOL    HW227654   9.475   1.989   2.700  0.7561  1.3511  0.3220
 5729SOL     OW27655   1.392   1.062   1.083 -0.8761 -0.4967 -0.0781
 5729SOL    HW127656   1.314   1.078   1.143 -0.6574 -1.1427  0.3962
 5729SOL    HW227657   1.371   1.094   0.991 -1.1171  0.7463  0.4042
 5730SOL     OW27658   2.471   3.590   3.711  0.1198  0.1132  0.0419
 5730SOL    HW127659   2.507   3.500   3.688 -1.0895 -0.2631 -0.4063
 5730SOL    HW227660   2.386   3.606   3.661 -0.2154  1.0855  0.9004
 5731SOL     OW27661   3.134   0.681   0.043 -0.3801  0.3132  0.0777
 5731SOL    HW127662   3.213   0.643   0.091 -2.3182 -0.4837  2.7516
 5731SOL    HW227663   3.072   0.606   0.016 -0.9066  1.0308 -0.7296
 5732SOL     OW27664   8.704   7.974   2.829  0.5300  0.2368  0.2324
 5732SOL    HW127665   8.709   7.930   2.740  0.3689 -0.5521  0.6071
 5732SOL    HW227666   8.634   8.046   2.827  0.6283  0.3152 -0.3159
 5733SOL     OW27667   2.968   0.122   2.831  0.4331  0.0076  0.3501
 5733SOL    HW127668   2.998   0.141   2.924 -2.5283  1.2607  1.0841
 5733SOL    HW227669   2.987   0.201   2.773  2.1803 -0.7332 -0.1394
 5734SOL     OW27670   0.177   2.393   0.120 -0.6087  0.1371 -0.1143
 5734SOL    HW127671   0.239   2.337   0.175  0.0633 -0.2446 -1.2380
 5734SOL    HW227672   0.160   2.479   0.166  2.9041  1.3842 -0.9982
 5735SOL     OW27673   2.377   6.661   3.918  0.2492  0.0156 -0.2312
 5735SOL    HW127674   2.447   6.713   3.965  1.5366 -1.4614 -0.4781
 5735SOL    HW227675   2.404   6.648   3.822 -0.5287 -0.2608 -0.4157
 5736SOL     OW27676   7.853   0.145   2.676 -0.2652  0.4077 -0.0882
 5736SOL    HW127677   7.852   0.229   2.730 -2.6432  0.5739 -0.3752
 5736SOL    HW227678   7.762   0.103   2.676  1.2929 -3.2900  1.7790
 5737SOL     OW27679   9.924   6.407   0.692 -0.2066 -0.2616  0.2364
 5737SOL    HW127680  10.011   6.363   0.716  0.2302 -0.4668 -1.6407
 5737SOL    HW227681   9.942   6.486   0.633 -1.3493 -0.9245 -1.0186
 5738SOL     OW27682   4.114   7.695   2.607 -0.4580 -0.1303 -0.5018
 5738SOL    HW127683   4.187   7.660   2.548 -0.3445  1.3023 -1.2491
 5738SOL    HW227684   4.028   7.695   2.557 -0.1033  2.3796 -1.1779
 5739SOL     OW27685   1.872   9.318   0.594  0.1905  0.2656  0.0939
 5739SOL    HW127686   1.867   9.289   0.499 -0.3706 -0.6396  0.4022
 5739SOL    HW227687   1.781   9.348   0.625  0.4128  0.7516  0.2886
 5740SOL     OW27688   1.634   2.853   1.010 -0.1252  0.2364 -0.1429
 5740SOL    HW127689   1.567   2.804   0.954 -0.9682  1.4746 -0.2267
 5740SOL    HW227690   1.626   2.823   1.105  0.8765 -1.4038 -0.5572
 5741SOL     OW27691   0.003   0.020   2.730  0.0905 -0.4413  0.1362
 5741SOL    HW127692  -0.059  -0.006   2.656 -0.7196 -0.3776  0.7843
 5741SOL    HW227693   0.006  -0.052   2.798 -0.6068  0.2898  0.9503
 5742SOL     OW27694   2.870   8.926   1.295 -0.1731 -0.6188  0.3146
 5742SOL    HW127695   2.779   8.966   1.294 -0.2163 -0.7416 -0.6849
 5742SOL    HW227696   2.898   8.902   1.202  0.3629 -1.7544  0.7594
 5743SOL     OW27697   3.895   7.566   1.998  0.3165 -0.1705  0.1531
 5743SOL    HW127698   3.974   7.589   1.940 -0.6591  0.5291 -0.9133
 5743SOL    HW227699   3.919   7.489   2.057  1.1485 -1.2943 -1.5978
 5744SOL     OW27700   9.227   8.087   2.855  0.0873 -0.4299  0.2443
 5744SOL    HW127701   9.231   8.086   2.756  2.7168  0.7898  0.3075
 5744SOL    HW227702   9.297   8.025   2.892 -1.5729 -1.7076  1.3605
 5745SOL     OW27703   9.701   6.346   0.120 -0.3777  0.3060 -0.0770
 5745SOL    HW127704   9.670   6.354   0.215  0.3166  0.9121  0.1034
 5745SOL    HW227705   9.709   6.437   0.079 -2.3808 -0.0254 -1.2913
 5746SOL     OW27706   0.454   9.733   3.781  0.4109 -0.3109 -0.2125
 5746SOL    HW127707   0.387   9.659   3.784 -1.5458  1.3557 -1.2287
 5746SOL    HW227708   0.517   9.718   3.704 -0.1252 -0.7847 -0.5606
 5747SOL     OW27709   1.927   8.921   1.133 -1.2240  0.4046  0.2631
 5747SOL    HW127710   1.885   8.863   1.204  1.9262 -1.4932  0.6778
 5747SOL    HW227711   2.023   8.895   1.122 -0.7531  3.0351 -2.2949
 5748SOL     OW27712   3.214   7.647   2.574 -0.6031 -0.0318  0.0040
 5748SOL    HW127713   3.182   7.596   2.494 -0.2293 -1.8423  0.9788
 5748SOL    HW227714   3.148   7.719   2.596 -1.1311 -0.0629 -1.4079
 5749SOL     OW27715   3.046   3.307   0.206  0.4670 -0.3158 -0.1043
 5749SOL    HW127716   3.125   3.251   0.181  0.7952 -1.1445  2.5901
 5749SOL    HW227717   3.021   3.366   0.129  3.6856 -0.0341 -1.0180
 5750SOL     OW27718   4.697   4.971   1.216 -0.4216  0.5665  0.4553
 5750SOL    HW127719   4.642   5.018   1.285 -1.0843  1.3218 -0.5682
 5750SOL    HW227720   4.642   4.957   1.134  0.2972 -0.5095  0.1545
 5751SOL     OW27721   1.201   0.300   0.451  0.0116  0.3089  0.3812
 5751SOL    HW127722   1.157   0.359   0.519  1.8966  0.3166  1.6258
 5751SOL    HW227723   1.138   0.227   0.423 -2.9050  3.6071 -2.1998
 5752SOL     OW27724   2.569   9.604   0.968 -0.0356  0.0316  0.0500
 5752SOL    HW127725   2.618   9.689   0.985  0.4056 -0.2566  0.2310
 5752SOL    HW227726   2.493   9.596   1.032  0.1501  0.1109  0.2841
 5753SOL     OW27727   3.547   4.969   0.210 -0.7254 -0.1137  0.3381
 5753SOL    HW127728   3.471   4.958   0.273 -0.9556  1.2184  0.3244
 5753SOL    HW227729   3.633   4.967   0.262 -0.7197 -2.3970  0.2507
 5754SOL     OW27730   2.996   3.491   0.001  0.1763  0.0249  0.5351
 5754SOL    HW127731   2.909   3.445  -0.017  0.8967 -1.1459  0.0110
 5754SOL    HW227732   2.983   3.590  -0.005 -1.4608 -0.0816  1.9897
 5755SOL     OW27733   2.570   2.218   2.745  0.1063 -0.1241  0.3394
 5755SOL    HW127734   2.531   2.204   2.653 -2.1736  0.5932  1.1524
 5755SOL    HW227735   2.604   2.311   2.753  0.3717 -0.2084  0.2087
 5756SOL     OW27736   0.261   0.802   0.367  0.1061 -0.9083  0.0227
 5756SOL    HW127737   0.191   0.851   0.315  0.9855 -0.9704 -1.2367
 5756SOL    HW227738   0.221   0.767   0.452 -0.9124  0.7132  0.2482
 5757SOL     OW27739   3.179   4.388   1.623  0.4965 -0.9554 -0.3693
 5757SOL    HW127740   3.134   4.463   1.670 -0.9840 -0.7590 -2.0508
 5757SOL    HW227741   3.243   4.425   1.555  0.7033 -1.2226 -0.3215
 5758SOL     OW27742   8.611   4.046   1.490 -0.0401 -0.0575  0.3257
 5758SOL    HW127743   8.655   4.127   1.450  0.6832 -0.3675  0.5035
 5758SOL    HW227744   8.659   3.964   1.461 -1.2410 -0.4919 -0.4810
 5759SOL     OW27745   9.712   6.108   1.768  0.5318  0.0934 -0.3325
 5759SOL    HW127746   9.743   6.129   1.861 -2.1029  1.1017  0.3565
 5759SOL    HW227747   9.784   6.132   1.703  1.4457  1.7964  1.2500
 5760SOL     OW27748   0.943   0.009   0.799  0.1430  0.5614 -0.5944
 5760SOL    HW127749   1.006   0.087   0.796 -0.8500  1.4571  0.9924
 5760SOL    HW227750   0.995  -0.074   0.815  1.0184  1.1911 -0.0941
 5761SOL     OW27751   1.987   3.695   0.700 -0.0743 -0.6341 -0.1428
 5761SOL    HW127752   1.890   3.707   0.722 -0.2246 -1.9254 -0.0242
 5761SOL    HW227753   2.035   3.660   0.780  0.3492 -0.6677 -0.4097
 5762SOL     OW27754   2.981   8.408   3.139  0.8433  0.4219  0.3192
 5762SOL    HW127755   3.072   8.394   3.179 -0.6544 -2.2485  2.9968
 5762SOL    HW227756   2.937   8.319   3.127 -1.5860  1.7196 -0.5764
 5763SOL     OW27757   3.989   0.954   2.405 -0.8881  0.1646  0.0013
 5763SOL    HW127758   4.071   0.899   2.388 -0.4599  0.7213  0.2777
 5763SOL    HW227759   3.928   0.903   2.466 -1.8984 -1.3377 -2.1906
 5764SOL     OW27760   1.970   8.419   2.919  0.5405  0.3029  0.0333
 5764SOL    HW127761   2.031   8.437   2.842  1.3816 -0.0466  0.6191
 5764SOL    HW227762   1.875   8.428   2.888  0.8176 -1.8699 -1.5504
 5765SOL     OW27763   1.886   8.674   1.570 -0.0498  0.5021 -0.2700
 5765SOL    HW127764   1.790   8.651   1.588 -0.3731  1.8259 -0.2630
 5765SOL    HW227765   1.891   8.766   1.530  1.2922  0.8442  0.6685
 5766SOL     OW27766   2.148   5.555   0.283 -0.2168  0.0517 -0.6323
 5766SOL    HW127767   2.204   5.637   0.294  0.6484 -0.6825  0.5757
 5766SOL    HW227768   2.134   5.512   0.372 -1.5296 -0.5500 -1.1180
 5767SOL     OW27769   2.543   4.184   3.965 -0.2302  0.1353  0.7520
 5767SOL    HW127770   2.616   4.115   3.963  1.7708  2.1921 -1.2738
 5767SOL    HW227771   2.462   4.148   3.919 -0.4762 -2.1133  2.8400
 5768SOL     OW27772   3.865   5.296   2.043  0.0334 -0.0205  0.2988
 5768SOL    HW127773   3.946   5.345   2.072 -0.4782  0.5165  0.8278
 5768SOL    HW227774   3.826   5.246   2.121 -2.0478  2.4123  0.8990
 5769SOL     OW27775   9.074   0.351   3.953  0.0488  0.8120 -0.2188
 5769SOL    HW127776   9.143   0.411   3.913  1.7450  0.3385  1.8893
 5769SOL    HW227777   9.049   0.385   4.044  0.0477 -0.9299  0.4463
 5770SOL     OW27778   9.759   7.673   3.971 -0.4216  0.4312 -0.4033
 5770SOL    HW127779   9.794   7.761   4.004  0.3797  0.8215 -2.2072
 5770SOL    HW227780   9.803   7.598   4.021  0.2286  1.0127 -0.0929
 5771SOL     OW27781   7.484   7.756   1.581 -0.5277  0.1560  0.1614
 5771SOL    HW127782   7.532   7.709   1.654 -1.0033  1.0882  1.0964
 5771SOL    HW227783   7.510   7.717   1.493  0.0873 -0.9476  0.8197
 5772SOL     OW27784   9.404   9.546   2.332  0.0139  0.0871  0.2444
 5772SOL    HW127785   9.484   9.577   2.384  0.8671 -0.7150 -0.5689
 5772SOL    HW227786   9.414   9.448   2.311 -0.6211  0.2573 -0.8811
 5773SOL     OW27787   2.503   6.580   0.985  0.1867  0.0469  0.9279
 5773SOL    HW127788   2.558   6.662   0.999  1.2057 -0.1160 -1.9163
 5773SOL    HW227789   2.477   6.573   0.889 -0.6571 -2.4954  1.3072
 5774SOL     OW27790   3.676   1.527   1.350  0.3031  0.1070 -0.3079
 5774SOL    HW127791   3.762   1.529   1.400  0.3936 -0.7886 -0.4244
 5774SOL    HW227792   3.623   1.447   1.377  0.1350 -0.1192 -1.2771
 5775SOL     OW27793   9.931   9.057   1.600  0.3920 -0.2053  0.1503
 5775SOL    HW127794  10.025   9.078   1.626  0.2948  0.1510  0.2147
 5775SOL    HW227795   9.893   9.133   1.547  0.8914 -1.2914 -1.8427
 5776SOL     OW27796   1.438   2.657   1.766 -0.7144 -0.3612 -0.1177
 5776SOL    HW127797   1.344   2.663   1.798  0.3654  1.1640  2.9183
 5776SOL    HW227798   1.485   2.582   1.812  0.3149  0.5838  0.3751
 5777SOL     OW27799   3.078   3.567   1.788  0.4086  0.3147 -0.1477
 5777SOL    HW127800   3.045   3.531   1.701  0.9385 -1.2798  0.2943
 5777SOL    HW227801   3.131   3.651   1.772  2.6439 -1.3376 -1.6459
 5778SOL     OW27802   9.382   2.066   3.307 -0.3362  0.2695  0.2325
 5778SOL    HW127803   9.325   2.042   3.229  0.7627 -0.0852 -0.4796
 5778SOL    HW227804   9.479   2.062   3.280  0.0668 -0.1296  1.6875
 5779SOL     OW27805   1.252   0.906   1.354 -0.3324 -0.3029 -0.1750
 5779SOL    HW127806   1.202   0.993   1.349 -1.1345 -0.7350  0.3075
 5779SOL    HW227807   1.244   0.868   1.446  0.8839 -0.3823 -0.0971
 5780SOL     OW27808   1.506   3.304   2.143  0.5021 -0.1160  0.3544
 5780SOL    HW127809   1.495   3.209   2.171 -0.8864  0.2555  1.0933
 5780SOL    HW227810   1.602   3.321   2.118  0.5327 -2.0059 -0.9292
 5781SOL     OW27811   9.395   9.751   1.345 -0.3697  0.4747  0.6030
 5781SOL    HW127812   9.442   9.669   1.315 -0.2533  0.0534  1.9200
 5781SOL    HW227813   9.301   9.729   1.371 -0.1942  0.6710  1.4107
 5782SOL     OW27814   1.086   5.539   0.369 -0.7912  0.9342 -0.0010
 5782SOL    HW127815   1.019   5.489   0.316 -1.4648  0.8661  0.9025
 5782SOL    HW227816   1.043   5.576   0.452  0.7404 -0.9077  1.6663
 5783SOL     OW27817   8.378   6.361   2.729  0.1918 -0.4502  0.4270
 5783SOL    HW127818   8.438   6.350   2.650  1.8130  1.0370  1.4069
 5783SOL    HW227819   8.399   6.290   2.796  1.3107  0.4222  1.0228
 5784SOL     OW27820   4.858   9.482   0.590  0.2752 -0.3933 -0.5484
 5784SOL    HW127821   4.938   9.476   0.649  1.0059 -1.3312 -1.6153
 5784SOL    HW227822   4.814   9.392   0.585  0.4918 -0.4427 -1.7835
 5785SOL     OW27823   8.001   5.145   0.799 -0.6842  0.8016 -0.5622
 5785SOL    HW127824   7.958   5.075   0.856  1.3656 -0.2113 -0.1972
 5785SOL    HW227825   7.995   5.118   0.703  0.7466 -0.3083 -0.3749
 5786SOL     OW27826   8.359   8.546   0.187  0.0951  0.4821 -0.4279
 5786SOL    HW127827   8.267   8.584   0.188  0.1409  0.6954 -2.1606
 5786SOL    HW227828   8.354   8.447   0.176  0.0334  0.2467  1.6149
 5787SOL     OW27829   4.591   0.858   1.316  0.3997  0.0142  0.4990
 5787SOL    HW127830   4.580   0.933   1.381  0.0939  0.8323 -0.4761
 5787SOL    HW227831   4.568   0.890   1.224  2.0000 -0.7819 -0.2023
 5788SOL     OW27832   3.917   1.739   0.290 -0.2024  0.3524 -0.0596
 5788SOL    HW127833   3.976   1.815   0.318 -0.8709  1.0380 -0.4873
 5788SOL    HW227834   3.955   1.653   0.324  1.4244  0.7029 -0.9228
 5789SOL     OW27835   1.397   5.754   0.161 -0.6278 -0.1707  0.6652
 5789SOL    HW127836   1.369   5.704   0.079  0.1938  1.6449 -0.7610
 5789SOL    HW227837   1.373   5.850   0.150  0.4015  0.2636  2.1557
 5790SOL     OW27838   1.577   8.012   0.663  0.1630  0.2206  0.0756
 5790SOL    HW127839   1.492   8.016   0.715  0.5820  0.1382  0.7793
 5790SOL    HW227840   1.570   8.070   0.581 -0.7231 -0.1443 -0.1081
 5791SOL     OW27841   1.197   2.816   3.837  0.2078 -0.2569  0.1904
 5791SOL    HW127842   1.166   2.907   3.808  2.1567 -0.2871 -2.1857
 5791SOL    HW227843   1.295   2.820   3.858  0.3738 -1.8794 -0.2589
 5792SOL     OW27844   9.973   6.098   2.874 -0.2814 -0.1138  0.2980
 5792SOL    HW127845   9.930   6.117   2.963 -0.1025 -0.3145  0.4291
 5792SOL    HW227846  10.070   6.118   2.880 -0.5213  1.2391 -0.2739
 5793SOL     OW27847   9.330   8.236   1.552 -0.6035 -0.4183 -0.2235
 5793SOL    HW127848   9.400   8.170   1.523  1.6011  1.8773 -0.2145
 5793SOL    HW227849   9.323   8.236   1.652 -0.2665 -0.2744 -0.2015
 5794SOL     OW27850   8.157   0.543   4.028 -0.3606 -0.3021  0.0167
 5794SOL    HW127851   8.141   0.465   3.968  0.0584 -0.6973  0.4141
 5794SOL    HW227852   8.087   0.546   4.099 -0.4572 -0.2331 -0.0807
 5795SOL     OW27853   1.363   9.525   3.344  0.2611 -0.0112  0.0102
 5795SOL    HW127854   1.434   9.532   3.274 -2.2529 -1.1974 -2.7515
 5795SOL    HW227855   1.341   9.616   3.379  0.2256  0.8057 -2.0938
 5796SOL     OW27856   2.660   4.428   3.109 -0.3796  0.4351  0.6373
 5796SOL    HW127857   2.677   4.337   3.147 -1.8136 -0.0317  0.1618
 5796SOL    HW227858   2.741   4.459   3.059  0.1158 -0.5602  0.8193
 5797SOL     OW27859   0.035   6.841   0.269  0.3840 -0.0583  0.0160
 5797SOL    HW127860  -0.043   6.809   0.216  1.9490 -0.1516 -2.2741
 5797SOL    HW227861   0.090   6.763   0.298  2.2183  0.2651 -2.4769
 5798SOL     OW27862   8.768   6.778   2.304 -0.0575  0.1170 -0.4215
 5798SOL    HW127863   8.816   6.827   2.231  0.4259  3.3953  1.9876
 5798SOL    HW227864   8.676   6.815   2.314  0.6773  1.3893  2.1444
 5799SOL     OW27865   1.210   9.395   1.788 -0.5477  0.2564 -0.3226
 5799SOL    HW127866   1.175   9.487   1.809 -1.6004 -0.0708 -0.6132
 5799SOL    HW227867   1.134   9.337   1.757  0.1081 -0.7276 -0.0959
 5800SOL     OW27868   3.420   5.378   1.590  0.6102  0.0981 -0.1029
 5800SOL    HW127869   3.444   5.379   1.687  3.2080  2.2082 -0.7175
 5800SOL    HW227870   3.357   5.453   1.571  1.6009  0.8518 -0.4051
 5801SOL     OW27871   9.879   0.841   0.646 -0.1041 -0.2003 -0.1481
 5801SOL    HW127872   9.818   0.835   0.725  0.0843 -0.0614  0.0083
 5801SOL    HW227873   9.974   0.846   0.678 -0.0200 -0.2985 -0.3867
 5802SOL     OW27874   0.535   5.667   0.586 -0.0720  0.1774  0.4647
 5802SOL    HW127875   0.488   5.591   0.631 -0.9359 -0.1940 -1.0455
 5802SOL    HW227876   0.483   5.695   0.505  3.1249 -1.2974 -2.1945
 5803SOL     OW27877   7.496   0.324   2.527  0.2798  0.2813 -0.2653
 5803SOL    HW127878   7.543   0.412   2.533 -0.3035  0.5739  0.1178
 5803SOL    HW227879   7.397   0.340   2.523  0.0833 -0.4048  1.3301
 5804SOL     OW27880   9.009   9.358   2.973  0.1322 -0.2221  0.1883
 5804SOL    HW127881   9.015   9.388   2.878  0.2370 -0.8704 -0.0122
 5804SOL    HW227882   9.088   9.302   2.995  0.2630  0.1828  0.7494
 5805SOL     OW27883   2.232   7.588   2.374  0.1798  0.1936  0.7690
 5805SOL    HW127884   2.158   7.556   2.434  0.7946 -1.9128  0.4383
 5805SOL    HW227885   2.194   7.653   2.308 -1.7365 -1.8821 -0.2895
 5806SOL     OW27886   7.529   8.486   2.521 -0.5747  0.6961 -0.2940
 5806SOL    HW127887   7.461   8.445   2.461 -0.7791  0.2631  0.2354
 5806SOL    HW227888   7.488   8.564   2.569 -0.2720  1.3493 -1.0708
 5807SOL     OW27889   3.322   6.903   2.424 -0.0525 -0.6366  0.3239
 5807SOL    HW127890   3.246   6.848   2.460 -0.0555 -1.3813 -0.8110
 5807SOL    HW227891   3.390   6.843   2.383 -0.0120  0.2025 -0.8477
 5808SOL     OW27892   1.125   9.179   0.472 -0.2810  0.4575 -0.1474
 5808SOL    HW127893   1.103   9.160   0.376 -3.4869  0.2938  0.5727
 5808SOL    HW227894   1.105   9.275   0.492 -0.5398  0.2499  0.5900
 5809SOL     OW27895   5.111   7.622   1.535 -0.3187 -0.1214 -0.1742
 5809SOL    HW127896   5.019   7.615   1.498 -0.8912  0.0153  1.1965
 5809SOL    HW227897   5.170   7.672   1.471 -0.9828 -0.9367 -1.4214
 5810SOL     OW27898   9.897   6.888   1.814  0.1422 -0.4113 -1.2602
 5810SOL    HW127899   9.811   6.937   1.824 -0.7450 -1.8418 -1.6956
 5810SOL    HW227900   9.969   6.937   1.862 -0.6602  1.4260 -1.8712
 5811SOL     OW27901   1.215   5.748   1.023  0.3713 -0.2265  0.2006
 5811SOL    HW127902   1.289   5.766   1.088  2.7147 -0.0961 -2.4135
 5811SOL    HW227903   1.223   5.654   0.988 -0.8411 -0.2942  0.0915
 5812SOL     OW27904   9.127   1.034   3.036 -0.2230 -0.2291 -0.1521
 5812SOL    HW127905   9.056   0.966   3.017  1.3312 -1.2902 -2.2547
 5812SOL    HW227906   9.217   0.991   3.034  0.6900  1.6219 -0.1555
 5813SOL     OW27907   1.653   3.731   3.988  0.1278 -0.0403  0.0313
 5813SOL    HW127908   1.661   3.740   3.889  0.9123 -0.9727  0.0039
 5813SOL    HW227909   1.743   3.739   4.030 -0.3604  1.7312  0.8037
 5814SOL     OW27910   0.912   2.189   2.957  0.0937  0.7655  0.5955
 5814SOL    HW127911   0.960   2.218   2.874 -0.8608 -1.7767 -0.9287
 5814SOL    HW227912   0.851   2.262   2.988  1.4435  2.2330 -0.1776
 5815SOL     OW27913   1.673   7.129   2.372 -0.2045 -0.1573  0.1708
 5815SOL    HW127914   1.722   7.117   2.285  1.3708  0.7949  0.9103
 5815SOL    HW227915   1.703   7.061   2.438  0.6389  0.8723  0.8521
 5816SOL     OW27916   3.050   6.972   3.718 -0.2923 -0.0974 -0.5195
 5816SOL    HW127917   3.135   6.922   3.699 -0.3385 -0.4397  0.1695
 5816SOL    HW227918   3.038   7.043   3.649  0.8882  0.3769 -0.2511
 5817SOL     OW27919   9.388   6.461   1.552 -0.1656  0.0916 -0.5195
 5817SOL    HW127920   9.312   6.401   1.525 -1.6562  1.3125  0.8777
 5817SOL    HW227921   9.475   6.412   1.538 -1.2990 -2.1708  0.0217
 5818SOL     OW27922   7.807   7.772   1.853 -0.1125  0.3731  0.3329
 5818SOL    HW127923   7.791   7.860   1.897  1.0634  1.6103 -1.6717
 5818SOL    HW227924   7.906   7.754   1.849 -0.3428 -1.0793  0.7836
 5819SOL     OW27925   4.341   2.423   2.892 -0.3728 -0.1664 -0.6540
 5819SOL    HW127926   4.367   2.434   2.796  3.8092 -2.3548  0.0683
 5819SOL    HW227927   4.415   2.458   2.950 -1.4104 -1.7846  1.7297
 5820SOL     OW27928   9.672   5.003   1.993 -0.1605  0.6262  0.2314
 5820SOL    HW127929   9.598   5.069   1.985 -0.2932  0.4650  0.1311
 5820SOL    HW227930   9.749   5.032   1.937 -1.3440 -0.8538 -2.2561
 5821SOL     OW27931   3.171   8.046   0.106  0.4133  0.1294 -0.0268
 5821SOL    HW127932   3.074   8.024   0.099  0.3270 -0.2782  1.9799
 5821SOL    HW227933   3.186   8.110   0.182  1.8090 -0.5782  0.3230
 5822SOL     OW27934   3.257   3.769   1.477  0.3921  0.4589  0.2791
 5822SOL    HW127935   3.329   3.722   1.426  0.4061  1.6201 -0.7776
 5822SOL    HW227936   3.168   3.729   1.455  0.6015 -0.3521  0.8687
 5823SOL     OW27937   0.469   0.876   2.084 -0.4830  0.2272 -0.2487
 5823SOL    HW127938   0.565   0.852   2.080 -0.1327  1.6935 -1.0429
 5823SOL    HW227939   0.425   0.854   1.996 -1.2401 -1.8748  0.6272
 5824SOL     OW27940   8.547   8.198   1.493  0.0283 -0.2641  0.1031
 5824SOL    HW127941   8.489   8.228   1.418  0.4809 -0.4506 -0.3294
 5824SOL    HW227942   8.597   8.116   1.465  0.0291 -0.4658  0.6890
 5825SOL     OW27943   0.353   1.456   1.690 -0.3548 -0.3817 -0.2557
 5825SOL    HW127944   0.356   1.556   1.678 -1.8529 -0.3222 -0.2958
 5825SOL    HW227945   0.429   1.414   1.641  0.9565  0.8296  0.6928
 5826SOL     OW27946   6.593   7.957   2.524  0.3830  0.1101  0.0527
 5826SOL    HW127947   6.619   7.972   2.428  2.4960  1.2030  0.7720
 5826SOL    HW227948   6.552   8.040   2.561 -0.0519 -0.1772  0.2176
 5827SOL     OW27949   3.169   3.175   1.153 -0.1484  0.5033  0.3206
 5827SOL    HW127950   3.135   3.102   1.093  1.1647  0.9199 -0.9484
 5827SOL    HW227951   3.254   3.212   1.115 -0.5228  2.3316  1.2511
 5828SOL     OW27952   1.805   4.880   0.361  0.2385  0.0496  0.4666
 5828SOL    HW127953   1.736   4.811   0.385  1.8311 -0.7092  2.9584
 5828SOL    HW227954   1.812   4.947   0.435  0.8351  1.2136 -0.6320
 5829SOL     OW27955   7.964   0.642   2.898  0.0760  0.1528  0.3291
 5829SOL    HW127956   7.981   0.733   2.936 -0.5581 -0.7076  2.8064
 5829SOL    HW227957   7.875   0.641   2.852  0.1876  0.8611  0.1031
 5830SOL     OW27958   8.507   8.700   0.905 -0.4810  0.2241  0.3989
 5830SOL    HW127959   8.545   8.693   0.997 -1.1620  0.0580  0.6758
 5830SOL    HW227960   8.580   8.717   0.839  0.1306 -0.6404  0.8516
 5831SOL     OW27961   2.511   4.404   3.361 -0.0195  0.2501  0.2195
 5831SOL    HW127962   2.460   4.371   3.282  1.6990 -2.4126  0.1414
 5831SOL    HW227963   2.567   4.483   3.334 -1.9110  1.4309 -0.3568
 5832SOL     OW27964   5.888   9.636   1.916 -0.0324 -0.4804  0.2563
 5832SOL    HW127965   5.955   9.707   1.895  0.9355 -1.5766 -0.4421
 5832SOL    HW227966   5.796   9.674   1.912  0.4277  0.5433 -0.9257
 5833SOL     OW27967   9.402   3.230   4.015  0.5043 -0.3673  0.0153
 5833SOL    HW127968   9.312   3.262   4.045 -0.6367 -2.7639 -0.7175
 5833SOL    HW227969   9.414   3.252   3.918 -0.6494 -2.8095 -0.7240
 5834SOL     OW27970   3.175   5.546   0.532 -0.1894 -0.1621 -0.4832
 5834SOL    HW127971   3.247   5.612   0.511 -0.6616  0.4326 -0.2442
 5834SOL    HW227972   3.199   5.495   0.614 -1.3205  1.9731  1.2346
 5835SOL     OW27973   6.405   9.786   2.989  0.0370  0.0169  0.7469
 5835SOL    HW127974   6.394   9.699   2.941  0.1995  0.6176 -0.3897
 5835SOL    HW227975   6.501   9.797   3.016  0.0072 -0.1809  0.9325
 5836SOL     OW27976   8.499   4.862   2.763  0.1821 -0.1601 -0.4801
 5836SOL    HW127977   8.591   4.865   2.722  0.2512  3.2191 -0.2434
 5836SOL    HW227978   8.431   4.870   2.690  0.1886  0.6961 -0.4029
 5837SOL     OW27979   8.877   5.931   1.724 -1.0610 -0.5846  0.2918
 5837SOL    HW127980   8.852   6.028   1.728  0.2464 -0.3148  2.4792
 5837SOL    HW227981   8.964   5.921   1.675 -0.2944 -0.4519  1.6063
 5838SOL     OW27982   2.216   7.820   2.772 -0.1429 -0.1081 -0.1770
 5838SOL    HW127983   2.180   7.846   2.862  0.6679 -0.8894  0.3808
 5838SOL    HW227984   2.304   7.774   2.783 -1.4503 -2.9153 -1.1639
 5839SOL     OW27985   3.758   5.213   3.092  0.3866  0.0643 -0.0996
 5839SOL    HW127986   3.682   5.254   3.142 -0.2235 -0.7824 -0.3349
 5839SOL    HW227987   3.727   5.183   3.002  0.9235 -0.5730 -0.0782
 5840SOL     OW27988   1.460   1.948   1.054 -0.2876  0.2666 -0.5417
 5840SOL    HW127989   1.486   2.040   1.082  1.6572  0.3156 -2.4017
 5840SOL    HW227990   1.534   1.884   1.074  0.1934 -0.0999 -3.2748
 5841SOL     OW27991   8.055   3.010   3.567  0.3007  0.3976 -0.1556
 5841SOL    HW127992   8.123   3.057   3.511  2.2646 -0.8553  1.1124
 5841SOL    HW227993   8.037   3.063   3.650 -0.1149  0.6228 -0.3882
 5842SOL     OW27994   9.289   0.803   3.977 -0.2879 -0.0187  0.0619
 5842SOL    HW127995   9.299   0.708   3.949 -3.4900 -0.8627  1.5404
 5842SOL    HW227996   9.242   0.855   3.905  0.0530  0.0994 -0.0793
 5843SOL     OW27997   0.475   9.389   3.014 -0.1232 -0.4277 -0.3619
 5843SOL    HW127998   0.466   9.437   2.927 -1.9804 -3.7114 -2.0851
 5843SOL    HW227999   0.563   9.341   3.016  0.1472  0.0712 -0.1909
 5844SOL     OW28000   3.177   3.940   2.548 -0.8634  0.2537  0.4077
 5844SOL    HW128001   3.093   3.957   2.497 -1.8417 -1.0240  1.5188
 5844SOL    HW228002   3.182   4.003   2.626 -0.3328  0.9402 -0.1847
 5845SOL     OW28003   2.393   2.522   3.844  0.1385  0.3399 -0.0769
 5845SOL    HW128004   2.446   2.437   3.845 -1.1251 -0.4654 -0.2262
 5845SOL    HW228005   2.446   2.594   3.799  1.1907 -0.3881 -0.0131
 5846SOL     OW28006   0.768   9.919   3.801 -0.1474 -0.0608 -0.4447
 5846SOL    HW128007   0.737  10.005   3.842  2.5481  1.2759 -1.0972
 5846SOL    HW228008   0.720   9.903   3.715 -0.3415  1.0309 -0.5409
 5847SOL     OW28009   1.331   0.595   3.703  0.1642  0.3933 -0.3286
 5847SOL    HW128010   1.266   0.658   3.746  0.3602  0.6256 -0.3670
 5847SOL    HW228011   1.281   0.525   3.652 -0.0590  0.3555 -0.0534
 5848SOL     OW28012   2.957   4.393   1.215 -0.2994  0.0526  0.2211
 5848SOL    HW128013   3.035   4.331   1.205 -1.5515 -1.6396  0.7573
 5848SOL    HW228014   2.933   4.400   1.312 -0.0432  1.5610  0.1882
 5849SOL     OW28015   5.019   9.032   2.769 -0.1730 -0.1055 -0.2390
 5849SOL    HW128016   5.095   8.980   2.730  0.8679  1.6299 -0.6198
 5849SOL    HW228017   5.041   9.055   2.864 -1.2124 -1.4657  0.3414
 5850SOL     OW28018   8.983   7.772   0.887  0.5932 -0.3203 -0.1516
 5850SOL    HW128019   8.985   7.863   0.845  1.5504  0.1629  0.9161
 5850SOL    HW228020   8.942   7.778   0.978  2.0338 -0.6957  0.5254
 5851SOL     OW28021   8.833   2.670   3.313  0.2477 -0.3811 -0.2309
 5851SOL    HW128022   8.800   2.631   3.228  0.6608 -1.2613  0.0105
 5851SOL    HW228023   8.933   2.671   3.312  0.2559 -0.8202  0.4414
 5852SOL     OW28024   7.566   5.705   2.168 -0.1328  0.0904  0.4220
 5852SOL    HW128025   7.634   5.775   2.189  1.0421 -0.8421 -0.2277
 5852SOL    HW228026   7.481   5.726   2.217  0.7277  1.0681  1.5399
 5853SOL     OW28027   8.106   0.260   0.440 -0.1717  0.6165  0.1652
 5853SOL    HW128028   8.200   0.225   0.440  0.3421  1.9260  0.2990
 5853SOL    HW228029   8.076   0.273   0.345 -1.1250 -2.0746  0.0677
 5854SOL     OW28030   2.315   0.999   0.859  0.2725 -0.5589 -0.1372
 5854SOL    HW128031   2.330   1.067   0.787 -0.6829 -1.1849 -0.9505
 5854SOL    HW228032   2.378   0.922   0.846  1.5338  0.2870  0.9392
 5855SOL     OW28033   1.879   7.341   0.421  0.2126  0.6765  0.0004
 5855SOL    HW128034   1.970   7.344   0.381  0.8601 -0.9559  1.3092
 5855SOL    HW228035   1.878   7.394   0.506  0.5171 -0.9459  1.0507
 5856SOL     OW28036   1.870   1.874   2.991 -0.0719 -0.0983 -0.1401
 5856SOL    HW128037   1.964   1.853   3.019 -0.2570  0.3054  0.8056
 5856SOL    HW228038   1.821   1.915   3.068 -0.8562  0.2166 -0.8046
 5857SOL     OW28039   9.849   3.068   3.084 -0.1023 -0.0596 -0.7228
 5857SOL    HW128040   9.859   3.080   2.986  0.4244 -1.2514 -0.8259
 5857SOL    HW228041   9.813   2.976   3.103  3.0344 -1.1320  0.3428
 5858SOL     OW28042   9.641   6.365   1.527  0.0221 -0.0607  0.3096
 5858SOL    HW128043   9.647   6.267   1.547 -2.4588 -0.1482  0.7713
 5858SOL    HW228044   9.671   6.381   1.433  2.8170 -0.8930  0.9957
 5859SOL     OW28045   2.078   0.182   3.901 -0.2423  0.1559  0.1903
 5859SOL    HW128046   2.094   0.198   3.998  0.7092  1.2184 -0.1299
 5859SOL    HW228047   2.022   0.257   3.864 -1.8412 -0.9880  0.2224
 5860SOL     OW28048   4.040   6.944   2.852  0.2175 -0.0926  0.6697
 5860SOL    HW128049   4.005   6.852   2.866 -3.0969  0.7683 -1.3752
 5860SOL    HW228050   4.010   7.003   2.927 -0.3431  0.0056  0.3722
 5861SOL     OW28051   2.852   4.039   2.034  0.3766 -0.8046  0.1275
 5861SOL    HW128052   2.803   4.022   2.120  0.1963 -0.9365 -0.0005
 5861SOL    HW228053   2.799   4.103   1.978  2.0273  1.8497  1.4781
 5862SOL     OW28054   8.395   6.595   2.862  0.4067 -0.2354 -0.4348
 5862SOL    HW128055   8.342   6.607   2.946 -1.4145 -0.6035 -1.5029
 5862SOL    HW228056   8.366   6.512   2.816  2.5977 -0.9385 -0.5854
 5863SOL     OW28057   8.530   8.150   1.924 -0.0647 -0.5833 -0.3283
 5863SOL    HW128058   8.564   8.244   1.931  0.5441 -0.7760 -0.6435
 5863SOL    HW228059   8.430   8.151   1.922 -0.0588  0.0755 -0.5429
 5864SOL     OW28060   2.938   3.140   0.539  0.2737 -0.1049 -0.2837
 5864SOL    HW128061   2.904   3.157   0.631 -0.1145  2.3030 -0.8287
 5864SOL    HW228062   3.033   3.111   0.542 -0.4750 -2.5517  1.0007
 5865SOL     OW28063   9.701   7.437   3.295 -0.3895  0.6293  0.1378
 5865SOL    HW128064   9.755   7.392   3.366 -0.6040  0.0543 -0.0578
 5865SOL    HW228065   9.625   7.487   3.337 -1.3438 -0.8616  0.2322
 5866SOL     OW28066   4.811   3.084   3.019  0.3770 -0.5242  0.8235
 5866SOL    HW128067   4.724   3.104   3.064  0.5441  1.8059  0.1773
 5866SOL    HW228068   4.794   3.046   2.928 -0.0091  0.9639  0.2520
 5867SOL     OW28069   0.623   7.250   1.655  0.4734  0.3950  0.0274
 5867SOL    HW128070   0.605   7.347   1.669  0.5162  0.2207  1.3798
 5867SOL    HW228071   0.693   7.220   1.720  0.6352 -0.4899 -0.5434
 5868SOL     OW28072   1.616   6.059   0.106 -0.1738 -0.1068  0.8941
 5868SOL    HW128073   1.709   6.056   0.072 -0.6040  0.4459 -0.3400
 5868SOL    HW228074   1.614   6.026   0.201  1.0472 -1.5199  0.4484
 5869SOL     OW28075   8.032   0.228   1.612 -0.1543 -0.0145 -0.3340
 5869SOL    HW128076   7.972   0.298   1.574  0.3539 -0.1248 -1.3727
 5869SOL    HW228077   8.029   0.147   1.553  0.6215 -0.2002 -0.1221
 5870SOL     OW28078   2.588   5.822   0.404 -0.2973  0.3802 -0.1464
 5870SOL    HW128079   2.659   5.759   0.437  1.4295  0.9886 -2.5568
 5870SOL    HW228080   2.580   5.899   0.467  0.1554 -0.4338  0.9190
 5871SOL     OW28081   1.061   0.893   3.262 -0.4708  0.5893  0.1783
 5871SOL    HW128082   1.085   0.891   3.359 -0.6212  0.3329  0.2104
 5871SOL    HW228083   1.022   0.982   3.238  1.5509  1.4293 -0.1192
 5872SOL     OW28084   3.777   7.505   3.179  0.1780 -0.2081 -0.4149
 5872SOL    HW128085   3.761   7.604   3.182  0.4940 -0.0986 -1.8504
 5872SOL    HW228086   3.692   7.458   3.157 -0.4161 -0.4355  2.1165
 5873SOL     OW28087   6.150   9.539   1.321 -0.4322 -0.5800  0.0580
 5873SOL    HW128088   6.197   9.582   1.398  1.4319  0.6089 -1.7218
 5873SOL    HW228089   6.203   9.461   1.289 -0.6289 -0.3845 -0.7441
 5874SOL     OW28090   0.940   8.353   3.443 -0.3825 -0.4812 -0.2849
 5874SOL    HW128091   0.923   8.260   3.409  1.9599 -1.3039  0.7360
 5874SOL    HW228092   1.019   8.353   3.504 -1.2354  1.9509  0.8859
 5875SOL     OW28093   8.424   9.474   1.375  0.3437  0.0274  0.3486
 5875SOL    HW128094   8.393   9.531   1.450  0.4203  0.1395  0.2963
 5875SOL    HW228095   8.376   9.499   1.291 -0.6985 -0.9782  0.6286
 5876SOL     OW28096   8.880   8.088   3.162  0.0055 -0.4148  0.0157
 5876SOL    HW128097   8.978   8.075   3.149  0.3825  1.0537  1.3090
 5876SOL    HW228098   8.842   8.007   3.208  0.7270 -0.6899  0.1409
 5877SOL     OW28099   2.517   0.723   1.787 -0.6118 -0.0825 -0.1028
 5877SOL    HW128100   2.520   0.623   1.782  1.1481 -0.2045  2.2388
 5877SOL    HW228101   2.578   0.761   1.718 -0.8291 -0.6591 -0.6130
 5878SOL     OW28102   9.247   0.998   1.903  0.5749  0.3235  0.8379
 5878SOL    HW128103   9.287   0.939   1.973  1.1662  0.0189  0.2562
 5878SOL    HW228104   9.198   0.942   1.836  0.0441  0.6075  0.9876
 5879SOL     OW28105   3.756   9.474   3.319  0.2220  0.9772  0.4937
 5879SOL    HW128106   3.700   9.542   3.366 -0.3260  0.4587  0.5955
 5879SOL    HW228107   3.825   9.438   3.382 -1.1580 -0.4563  1.2369
 5880SOL     OW28108   1.297   2.817   3.194 -0.6485 -0.0871  0.1612
 5880SOL    HW128109   1.200   2.796   3.175 -0.6076  0.2488 -0.4373
 5880SOL    HW228110   1.340   2.853   3.111 -0.0540 -0.0628  0.4778
 5881SOL     OW28111   2.371   0.700   0.868 -0.0910 -0.0374 -0.3097
 5881SOL    HW128112   2.282   0.662   0.893  0.2694 -0.3184  0.5981
 5881SOL    HW228113   2.398   0.666   0.778 -0.4147 -0.8111 -0.1225
 5882SOL     OW28114   2.282   6.922   2.766 -0.0361 -0.3191  0.0954
 5882SOL    HW128115   2.235   6.978   2.698  1.4203 -0.3771 -0.9860
 5882SOL    HW228116   2.266   6.825   2.745  1.6478 -0.3685 -1.1054
 5883SOL     OW28117   0.600   3.352   2.127 -0.3348 -0.0813  0.1649
 5883SOL    HW128118   0.567   3.366   2.034 -1.2994 -0.3785  0.4615
 5883SOL    HW228119   0.699   3.337   2.125 -0.1415  1.2873 -0.6683
 5884SOL     OW28120   3.015   0.648   1.228 -0.4091 -0.1221 -0.4199
 5884SOL    HW128121   2.998   0.630   1.131  0.0744  0.1793 -0.5624
 5884SOL    HW228122   3.080   0.580   1.263  0.2811  0.4356 -0.5920
 5885SOL     OW28123   9.728   9.790   0.568 -0.1809  0.1420 -0.2749
 5885SOL    HW128124   9.647   9.747   0.609  0.1751  1.2241  1.5829
 5885SOL    HW228125   9.777   9.843   0.637  1.2072  0.8630 -1.7799
 5886SOL     OW28126   2.348   0.630   0.595 -0.7646 -0.1741 -0.3025
 5886SOL    HW128127   2.414   0.571   0.548  0.6256  1.0024  0.1541
 5886SOL    HW228128   2.283   0.665   0.528 -1.2349 -1.7173 -0.6823
 5887SOL     OW28129   2.844   0.098   0.820  0.4262 -0.2638  0.6436
 5887SOL    HW128130   2.810   0.015   0.777 -0.0060  0.3382 -0.2001
 5887SOL    HW228131   2.836   0.091   0.919 -1.3198 -0.4966  0.5047
 5888SOL     OW28132   4.015   7.125   1.263 -0.2222 -0.2284 -0.6476
 5888SOL    HW128133   3.994   7.133   1.165 -3.2850  2.9007  0.1471
 5888SOL    HW228134   4.071   7.203   1.291  0.2533 -0.8676  0.1757
 5889SOL     OW28135   5.897   8.188   1.525 -0.0060 -0.2674 -0.1031
 5889SOL    HW128136   5.955   8.256   1.481 -0.4271  1.5439  2.0228
 5889SOL    HW228137   5.825   8.235   1.577 -0.1756 -2.3361  1.5766
 5890SOL     OW28138   3.303   1.553   0.708 -0.4677 -0.0694  0.8078
 5890SOL    HW128139   3.388   1.541   0.759  0.4584  1.5331 -0.3007
 5890SOL    HW228140   3.262   1.641   0.732 -0.7471  0.0721 -0.1562
 5891SOL     OW28141   3.441   5.777   1.898  0.6655  0.0086  0.6828
 5891SOL    HW128142   3.425   5.749   1.993  3.7299  1.4365  1.6738
 5891SOL    HW228143   3.396   5.865   1.882  1.2921  0.4399  1.2428
 5892SOL     OW28144   7.930   0.895   0.931 -0.2359 -0.1547  0.1526
 5892SOL    HW128145   8.005   0.913   0.867  0.5567 -0.8161  0.8829
 5892SOL    HW228146   7.936   0.801   0.964 -0.7478  0.1142  1.0366
 5893SOL     OW28147   1.841   9.254   1.988 -0.0964 -0.4176 -0.0947
 5893SOL    HW128148   1.867   9.348   1.969 -0.9076  0.1385  1.4687
 5893SOL    HW228149   1.907   9.212   2.050 -1.0094 -0.1071  1.1097
 5894SOL     OW28150   0.191   5.205   2.321  0.0882  0.1074  0.2967
 5894SOL    HW128151   0.261   5.251   2.267 -0.0993  0.8896  0.7098
 5894SOL    HW228152   0.175   5.256   2.406 -0.8768 -0.1314  0.2709
 5895SOL     OW28153   1.678   3.565   1.849 -0.4382 -0.0073 -0.6111
 5895SOL    HW128154   1.580   3.572   1.831  0.0416  1.2248 -2.8282
 5895SOL    HW228155   1.705   3.469   1.849 -1.6872 -0.3748  0.3614
 5896SOL     OW28156   8.824   7.228   1.499 -0.5166 -0.1718  0.5424
 5896SOL    HW128157   8.888   7.162   1.461 -1.9990  0.0074 -2.4705
 5896SOL    HW228158   8.778   7.189   1.579  1.7941 -1.0749  1.4531
 5897SOL     OW28159   0.634   3.432   1.865  0.3437 -0.8257  0.2323
 5897SOL    HW128160   0.718   3.483   1.850 -0.6597  0.4495 -1.2117
 5897SOL    HW228161   0.565   3.461   1.799 -1.0869 -2.1891  1.0830
 5898SOL     OW28162   0.023   4.216   1.350 -0.2457  0.5211  0.3520
 5898SOL    HW128163   0.086   4.158   1.299 -1.8143 -2.0070  1.1877
 5898SOL    HW228164   0.058   4.230   1.443 -0.8816 -0.8875  0.8185
 5899SOL     OW28165   3.944   8.027   2.339  0.9591 -0.1062 -0.0788
 5899SOL    HW128166   3.865   8.026   2.400  1.7215 -0.8967  0.9101
 5899SOL    HW228167   3.921   7.982   2.253 -0.1313  1.0420 -0.4049
 5900SOL     OW28168   0.918   1.876   0.879 -0.0359  0.1533  0.3008
 5900SOL    HW128169   0.982   1.814   0.834  1.8791  2.7414 -0.6483
 5900SOL    HW228170   0.868   1.928   0.810 -0.0836  1.1848  1.0935
 5901SOL     OW28171   3.733   8.123   4.045 -0.1459  0.2457  0.1826
 5901SOL    HW128172   3.725   8.211   3.998 -3.1275  0.3932  0.8472
 5901SOL    HW228173   3.744   8.139   4.143  1.6155 -0.1262  0.0618
 5902SOL     OW28174   2.083   3.978   0.772  0.2886 -0.3062 -0.5361
 5902SOL    HW128175   1.998   3.926   0.775 -0.9243  1.5391 -2.3274
 5902SOL    HW228176   2.129   3.963   0.684  1.1058 -0.1421 -0.1471
 5903SOL     OW28177   0.935   6.432   0.692 -0.5597  0.3626 -0.6667
 5903SOL    HW128178   0.938   6.348   0.637  0.8138  0.2918 -0.5079
 5903SOL    HW228179   0.965   6.509   0.636 -2.1148  0.8097 -0.9005
 5904SOL     OW28180   2.179   9.493   0.838 -0.5234 -0.1984  0.4982
 5904SOL    HW128181   2.237   9.425   0.884  0.5454 -0.6748 -1.5059
 5904SOL    HW228182   2.091   9.452   0.817 -0.9530 -0.0375  1.9081
 5905SOL     OW28183   0.499   0.433   0.360 -0.6281 -0.0006 -0.3008
 5905SOL    HW128184   0.567   0.504   0.380 -0.4936  0.1056 -1.1149
 5905SOL    HW228185   0.431   0.469   0.296 -0.7888 -0.4816 -0.4038
 5906SOL     OW28186   0.342   9.615   1.354  0.2781  0.3167  0.4601
 5906SOL    HW128187   0.354   9.678   1.278  0.5679 -0.8406 -0.4667
 5906SOL    HW228188   0.428   9.567   1.372  0.2320  0.6250  1.5608
 5907SOL     OW28189   3.670   6.706   2.671  0.4560 -0.1337 -0.1315
 5907SOL    HW128190   3.731   6.650   2.616  1.0948  0.1746  0.2505
 5907SOL    HW228191   3.676   6.802   2.642  0.9268  0.0596  0.5726
 5908SOL     OW28192   6.235   7.433   1.820 -0.1716 -0.6383  0.4826
 5908SOL    HW128193   6.268   7.419   1.727  3.2964 -0.8906  1.6688
 5908SOL    HW228194   6.280   7.513   1.860 -2.5200  0.1878  1.5581
 5909SOL     OW28195   1.569   4.258   0.051  0.1441 -0.1731  0.3146
 5909SOL    HW128196   1.660   4.229   0.081  0.4425  0.8856  0.4688
 5909SOL    HW228197   1.504   4.251   0.127  0.0008 -1.3135  0.0942
 5910SOL     OW28198   1.584   1.091   1.804 -0.3135 -0.6029  0.1895
 5910SOL    HW128199   1.563   1.074   1.708 -0.9181  0.9543  0.0426
 5910SOL    HW228200   1.610   1.186   1.817  1.4002 -1.1951  1.2952
 5911SOL     OW28201   4.486   8.729   2.364  0.3828 -0.3504  0.2478
 5911SOL    HW128202   4.510   8.824   2.349  0.0820 -0.0346  1.6523
 5911SOL    HW228203   4.408   8.704   2.306  1.1408 -0.0649 -0.9089
 5912SOL     OW28204   0.137   2.101   0.595  0.2547 -0.0101  0.2091
 5912SOL    HW128205   0.154   2.003   0.608  0.7009 -0.0746 -0.7950
 5912SOL    HW228206   0.096   2.115   0.504  0.0235  0.7149  0.4254
 5913SOL     OW28207   0.811   5.072   1.390  0.0342  0.3549 -0.0678
 5913SOL    HW128208   0.812   4.972   1.392 -0.3741  0.3691  0.8161
 5913SOL    HW228209   0.885   5.108   1.447  0.3998  0.5592 -0.6622
 5914SOL     OW28210   9.678   1.741   2.225 -0.0273  0.0848  0.3958
 5914SOL    HW128211   9.595   1.742   2.280 -1.3715 -0.5941 -1.5703
 5914SOL    HW228212   9.716   1.648   2.222 -0.2704  0.0010 -0.2585
 5915SOL     OW28213   2.718   2.030   0.524 -0.3777 -0.1343 -0.1287
 5915SOL    HW128214   2.672   2.094   0.462 -1.4460 -0.3759  0.4083
 5915SOL    HW228215   2.816   2.051   0.527 -0.5223  0.6819 -0.9186
 5916SOL     OW28216   3.149   0.616   3.688 -0.7846  0.4696  0.1757
 5916SOL    HW128217   3.195   0.694   3.731  0.3489 -0.3851  0.5136
 5916SOL    HW228218   3.139   0.633   3.590  0.9152  0.3501 -0.0334
 5917SOL     OW28219   2.664   7.005   3.509  0.0872  0.2457  0.1328
 5917SOL    HW128220   2.663   6.961   3.598 -0.3027  1.0267  0.5216
 5917SOL    HW228221   2.742   6.972   3.456  0.8969  0.5182  1.1349
 5918SOL     OW28222   0.935   8.085   1.508 -0.4191 -0.0324 -0.2405
 5918SOL    HW128223   0.926   8.175   1.465  2.4821  0.8110  0.8197
 5918SOL    HW228224   0.849   8.061   1.554 -1.8248  1.3427 -2.0780
 5919SOL     OW28225   1.542   8.844   1.729  0.4767 -0.3543 -0.3884
 5919SOL    HW128226   1.564   8.754   1.694  2.4395 -0.1901  0.4032
 5919SOL    HW228227   1.561   8.849   1.827 -1.4773  0.3297 -0.0030
 5920SOL     OW28228   5.478   6.535   2.236  1.0080  0.0612 -0.0112
 5920SOL    HW128229   5.474   6.463   2.305  0.6685 -0.0471 -0.1394
 5920SOL    HW228230   5.564   6.529   2.186  0.0512 -1.6717 -1.5251
 5921SOL     OW28231   0.803   0.514   2.462 -0.3817  0.5311  0.1536
 5921SOL    HW128232   0.756   0.597   2.432  0.2080  1.2007  1.0655
 5921SOL    HW228233   0.744   0.461   2.523 -0.4192  0.7366  0.2942
 5922SOL     OW28234   9.790   7.341   1.377 -0.2476 -0.3193 -0.2003
 5922SOL    HW128235   9.833   7.417   1.329  1.4192 -0.4558  0.9975
 5922SOL    HW228236   9.748   7.279   1.311  0.9479  0.1073 -1.3896
 5923SOL     OW28237   8.529   2.558   2.369  0.0841 -0.2044 -0.2880
 5923SOL    HW128238   8.560   2.627   2.435 -1.5662  0.5157 -0.2464
 5923SOL    HW228239   8.607   2.505   2.337  1.8681  3.3787 -2.2592
 5924SOL     OW28240   9.508   0.622   3.686 -0.2659 -0.1736 -0.5453
 5924SOL    HW128241   9.533   0.568   3.605  0.4161  0.6752 -0.9146
 5924SOL    HW228242   9.552   0.712   3.680 -0.7673  0.1379  0.4392
 5925SOL     OW28243   4.414   0.753   1.738  0.7994  0.1675  0.2189
 5925SOL    HW128244   4.338   0.761   1.674  0.4194  0.1103  0.6591
 5925SOL    HW228245   4.394   0.682   1.805  1.0137  0.5116  0.6479
 5926SOL     OW28246   4.467   2.304   0.672 -0.6545 -0.4267 -0.2874
 5926SOL    HW128247   4.466   2.402   0.654 -0.1849 -0.4048 -0.2131
 5926SOL    HW228248   4.508   2.287   0.762  0.6683 -0.7838 -0.9467
 5927SOL     OW28249   0.532   7.040   3.495 -0.1973 -0.2139 -0.3106
 5927SOL    HW128250   0.542   7.100   3.416  0.1339 -1.0593 -0.9252
 5927SOL    HW228251   0.606   7.057   3.560  0.0189 -0.1104 -0.5856
 5928SOL     OW28252   1.357   5.863   3.852  0.2243 -0.0837 -0.4462
 5928SOL    HW128253   1.344   5.937   3.786 -2.8219  0.7090  0.9359
 5928SOL    HW228254   1.364   5.902   3.944  2.6238 -1.2950 -0.0846
 5929SOL     OW28255   4.398   5.259   1.680  0.7275  0.2664  0.3442
 5929SOL    HW128256   4.458   5.317   1.625  1.4145 -0.3110  0.4677
 5929SOL    HW228257   4.358   5.188   1.622  1.1175 -0.0835  0.5016
 5930SOL     OW28258   2.586   3.335   0.621 -0.2257  0.4798 -0.7471
 5930SOL    HW128259   2.578   3.277   0.540 -0.9813  1.2144 -1.2062
 5930SOL    HW228260   2.497   3.339   0.667  0.3643 -0.4750  0.4924
 5931SOL     OW28261   3.228   1.987   3.859  0.3102 -0.4045  0.1428
 5931SOL    HW128262   3.281   1.934   3.925  1.7238 -0.8593 -1.3074
 5931SOL    HW228263   3.164   1.926   3.811  0.9871 -0.5397 -0.5885
 5932SOL     OW28264   2.315   3.415   0.355  0.1204  0.4349  0.1037
 5932SOL    HW128265   2.320   3.368   0.442  0.4341  1.1702  0.4914
 5932SOL    HW228266   2.249   3.490   0.361 -0.2864  0.1253 -0.4663
 5933SOL     OW28267   3.177   9.654   2.971  0.1639  0.1070  0.2785
 5933SOL    HW128268   3.204   9.602   2.889  1.1790 -0.5684  1.0303
 5933SOL    HW228269   3.078   9.661   2.974  0.1154  0.3318 -1.1362
 5934SOL     OW28270   0.620   6.541   0.623  0.0662  0.6631 -0.2463
 5934SOL    HW128271   0.669   6.628   0.628 -0.0033  0.7208 -0.6057
 5934SOL    HW228272   0.580   6.530   0.532  1.1740 -0.3463 -0.6234
 5935SOL     OW28273   9.594   9.587   1.235  0.3564 -0.7566 -0.4104
 5935SOL    HW128274   9.610   9.490   1.215  1.0690 -0.4918 -1.1703
 5935SOL    HW228275   9.673   9.624   1.284 -0.4617 -0.8631  1.0073
 5936SOL     OW28276   9.673   5.100   2.759 -0.2028  0.3411  0.6318
 5936SOL    HW128277   9.713   5.156   2.686 -1.1399  0.4722  0.2109
 5936SOL    HW228278   9.698   5.139   2.848 -0.8260  1.4269  0.3423
 5937SOL     OW28279   0.382   4.645   3.022 -0.1401  0.9080 -0.7364
 5937SOL    HW128280   0.407   4.681   2.932 -2.4275  0.3580 -1.6136
 5937SOL    HW228281   0.352   4.720   3.081 -0.1956  1.0616 -0.9590
 5938SOL     OW28282   3.006   1.917   1.643 -0.4707  0.1742  0.8221
 5938SOL    HW128283   2.969   1.994   1.593  1.3564  1.3745  1.2594
 5938SOL    HW228284   3.028   1.944   1.737  0.2473 -0.8436  0.9672
 5939SOL     OW28285   9.687   8.167   2.006 -0.6311  0.5683  0.0250
 5939SOL    HW128286   9.641   8.247   1.967  2.2813  0.3715 -4.1510
 5939SOL    HW228287   9.769   8.196   2.055 -0.9918  0.3347  0.7689
 5940SOL     OW28288   9.165   6.110   2.376  0.1643  0.2249 -0.7816
 5940SOL    HW128289   9.090   6.177   2.373 -1.5288 -1.5682  0.3408
 5940SOL    HW228290   9.238   6.145   2.434 -1.4284  0.4246  1.1507
 5941SOL     OW28291   8.137   8.401   3.611  0.0314 -0.2111 -0.6035
 5941SOL    HW128292   8.176   8.435   3.696 -1.1078 -1.2912  0.3809
 5941SOL    HW228293   8.182   8.316   3.585 -1.1584 -1.0961  0.1677
 5942SOL     OW28294   1.593   8.423   3.573  0.7214  0.6764 -0.0708
 5942SOL    HW128295   1.652   8.348   3.604 -0.2567 -0.1149 -0.0786
 5942SOL    HW228296   1.541   8.393   3.493 -0.6634  0.8960  0.7318
 5943SOL     OW28297   4.897   7.915   3.767  0.4004  0.2937 -0.1058
 5943SOL    HW128298   4.841   7.959   3.837 -0.1379 -2.1275  1.0608
 5943SOL    HW228299   4.992   7.909   3.799 -0.0733 -1.8810  0.9875
 5944SOL     OW28300   9.865   0.439   1.667 -0.1467 -0.5189  0.4877
 5944SOL    HW128301   9.940   0.373   1.666 -0.4668 -0.8826 -1.1105
 5944SOL    HW228302   9.793   0.408   1.605 -0.2169  1.4139 -0.4294
 5945SOL     OW28303   3.249   8.442   1.154  0.0312 -0.2294  0.4527
 5945SOL    HW128304   3.347   8.431   1.172 -0.1703 -0.7492  1.2360
 5945SOL    HW228305   3.236   8.474   1.060  1.0334  1.6193  0.9220
 5946SOL     OW28306   0.627   3.937   3.657 -0.2469  0.6520  0.3213
 5946SOL    HW128307   0.557   3.882   3.611 -0.2091 -0.3240  1.3948
 5946SOL    HW228308   0.692   3.973   3.590 -0.1895 -0.7414 -0.3839
 5947SOL     OW28309   0.585   9.334   0.031  0.3505  0.4862 -0.5721
 5947SOL    HW128310   0.607   9.420   0.078 -2.2528  0.4283  0.7987
 5947SOL    HW228311   0.527   9.278   0.089 -0.1252 -1.0880 -2.5211
 5948SOL     OW28312   1.714   4.266   3.131 -0.1523 -0.0823 -0.1702
 5948SOL    HW128313   1.699   4.209   3.050  1.7631 -1.9313  0.7291
 5948SOL    HW228314   1.749   4.356   3.103  1.2846 -0.9941 -1.3681
 5949SOL     OW28315   3.875   9.276   0.645  0.1514 -0.5589 -0.2869
 5949SOL    HW128316   3.895   9.290   0.548 -1.8393  1.4490 -0.4755
 5949SOL    HW228317   3.848   9.181   0.660  0.5843 -0.9216 -1.6814
 5950SOL     OW28318   0.336   8.472   0.067  0.0705  0.6108  0.3398
 5950SOL    HW128319   0.402   8.474   0.142 -1.5876  2.2419  1.7795
 5950SOL    HW228320   0.243   8.468   0.103 -0.7088 -0.0594 -1.6565
 5951SOL     OW28321   9.994   5.212   2.763  0.5020  0.7564 -0.5646
 5951SOL    HW128322   9.933   5.163   2.701  0.9018  0.1912 -0.5067
 5951SOL    HW228323   9.967   5.309   2.767  0.6287  0.8397 -1.7830
 5952SOL     OW28324   1.363   3.565   0.243  0.3586  0.0742  0.4093
 5952SOL    HW128325   1.395   3.660   0.248 -1.3485  0.7508 -1.2773
 5952SOL    HW228326   1.393   3.525   0.157 -0.0734 -0.4877  0.5228
 5953SOL     OW28327   1.237   7.860   1.400 -0.2198 -0.3719 -0.1394
 5953SOL    HW128328   1.304   7.786   1.403  0.8593  0.5770 -0.7476
 5953SOL    HW228329   1.150   7.827   1.439  0.4150 -1.7701  0.1375
 5954SOL     OW28330   1.255   0.267   3.897 -0.3563 -0.1245 -0.0490
 5954SOL    HW128331   1.292   0.353   3.933 -0.2559 -0.7159  1.2577
 5954SOL    HW228332   1.210   0.216   3.970  0.1353 -1.4821 -0.6721
 5955SOL     OW28333   0.019   5.669   0.519  0.0119 -0.0337  0.0760
 5955SOL    HW128334   0.092   5.702   0.579  1.6278 -0.6389 -1.5246
 5955SOL    HW228335  -0.009   5.578   0.547  0.2564 -0.0218  0.3558
 5956SOL     OW28336   2.853   6.222   1.465  0.3269  0.6821 -0.6776
 5956SOL    HW128337   2.884   6.173   1.547 -0.2736 -0.7199 -1.2577
 5956SOL    HW228338   2.756   6.244   1.474  0.1329  0.0795 -1.2034
 5957SOL     OW28339   7.525   2.246   3.617 -0.0225 -0.4122 -0.3697
 5957SOL    HW128340   7.530   2.208   3.710 -0.2130 -1.2618 -0.6994
 5957SOL    HW228341   7.499   2.342   3.622  0.2198 -0.3855  0.4725
 5958SOL     OW28342   0.967   6.403   3.863  0.3884  0.0074  0.0113
 5958SOL    HW128343   1.046   6.422   3.921  0.4209 -1.6017  0.4932
 5958SOL    HW228344   0.934   6.311   3.880 -2.4638  1.1268  0.8254
 5959SOL     OW28345   9.426   4.641   0.249 -0.0159  0.1059 -0.3499
 5959SOL    HW128346   9.327   4.640   0.265 -0.0317  0.7344 -0.3997
 5959SOL    HW228347   9.449   4.711   0.181  0.4972  0.1881 -0.0994
 5960SOL     OW28348   5.217   2.239   1.629 -0.3156 -0.3128 -0.1469
 5960SOL    HW128349   5.287   2.175   1.658 -0.3085  0.1503  0.8639
 5960SOL    HW228350   5.136   2.229   1.687  0.2015  1.5612  0.9183
 5961SOL     OW28351   1.926   5.740   2.194 -0.5061  0.1243  0.0228
 5961SOL    HW128352   1.850   5.682   2.223 -2.1400  1.5683 -1.2625
 5961SOL    HW228353   1.927   5.747   2.094  0.9610  0.6058  0.0486
 5962SOL     OW28354   2.553   6.985   1.662  0.2030  0.2498 -0.3108
 5962SOL    HW128355   2.557   7.029   1.752 -2.5889  0.1916 -0.1263
 5962SOL    HW228356   2.546   7.054   1.591  1.4198  0.2575 -0.4390
 5963SOL     OW28357   8.683   4.092   1.034  0.2611  0.1519  0.0511
 5963SOL    HW128358   8.590   4.129   1.041  0.3313 -0.0115  2.5730
 5963SOL    HW228359   8.737   4.146   0.970 -0.8636  1.7931  0.4699
 5964SOL     OW28360   3.427   2.299   0.568  0.5028  0.5367  0.3124
 5964SOL    HW128361   3.505   2.362   0.563  2.0538 -0.9786  3.4867
 5964SOL    HW228362   3.446   2.218   0.513  0.8032  0.5934  0.3294
 5965SOL     OW28363   9.281   5.917   2.000 -0.5859 -0.5994 -0.0933
 5965SOL    HW128364   9.234   5.986   1.946 -3.7040 -2.2585  0.3878
 5965SOL    HW228365   9.269   5.937   2.097 -0.9898 -1.4539  0.0402
 5966SOL     OW28366   2.026   3.536   3.984  0.3303 -0.1177 -0.3933
 5966SOL    HW128367   2.123   3.540   3.960  0.2638 -1.1796 -0.8545
 5966SOL    HW228368   1.976   3.486   3.914 -0.4578 -0.0956  0.1420
 5967SOL     OW28369   2.765   8.017   0.266  0.2824  0.0201  0.2773
 5967SOL    HW128370   2.674   8.058   0.258  0.0137 -0.6230  0.0110
 5967SOL    HW228371   2.830   8.086   0.298  0.2542  1.1661 -2.0739
 5968SOL     OW28372   1.443   7.787   2.020 -0.2099  0.2115 -0.8763
 5968SOL    HW128373   1.517   7.823   2.077 -0.3884  0.6235 -0.9024
 5968SOL    HW228374   1.480   7.721   1.955 -0.0293 -0.3964 -0.1673
 5969SOL     OW28375   3.563   3.397   2.754  0.1028  0.1790  0.2446
 5969SOL    HW128376   3.464   3.414   2.763 -0.6449 -3.2605 -0.6404
 5969SOL    HW228377   3.592   3.334   2.827  1.1413 -0.6992 -0.9113
 5970SOL     OW28378   3.324   1.497   2.497  0.3909  0.4466 -0.7394
 5970SOL    HW128379   3.377   1.451   2.425 -0.7195 -1.8190 -0.1710
 5970SOL    HW228380   3.386   1.543   2.559  1.4209  1.7489 -2.6791
 5971SOL     OW28381   8.644   5.682   3.569  0.6333 -0.0461 -0.5955
 5971SOL    HW128382   8.695   5.598   3.551  0.7331 -0.3552  1.0268
 5971SOL    HW228383   8.551   5.659   3.599  0.8246  0.3941  0.3565
 5972SOL     OW28384   4.666   3.204   0.651 -0.0225 -0.6230  0.3191
 5972SOL    HW128385   4.719   3.262   0.589 -1.0686 -1.4950 -1.4156
 5972SOL    HW228386   4.612   3.262   0.713  1.5937  0.2526  0.9425
 5973SOL     OW28387   0.777   4.646   2.312 -0.4258  0.6232  0.3399
 5973SOL    HW128388   0.844   4.652   2.238  0.2533 -0.9279  0.7968
 5973SOL    HW228389   0.714   4.723   2.307 -1.3710 -0.2851 -2.7971
 5974SOL     OW28390   3.856   6.114   2.141  0.0382  0.0560  0.2186
 5974SOL    HW128391   3.817   6.169   2.067  1.9065  2.0502  0.6543
 5974SOL    HW228392   3.878   6.173   2.219 -0.1830 -1.7160  1.6572
 5975SOL     OW28393   2.471   5.139   2.705  0.1019 -0.6029  0.3288
 5975SOL    HW128394   2.517   5.158   2.617 -0.2660  2.4421  0.7516
 5975SOL    HW228395   2.387   5.088   2.688  1.3208 -2.3022 -0.8404
 5976SOL     OW28396   1.109   8.934   0.589 -0.4073 -0.0845  0.2367
 5976SOL    HW128397   1.140   9.017   0.543 -0.7683 -0.1038 -0.0482
 5976SOL    HW228398   1.097   8.861   0.522 -1.7655  0.1308  0.2147
 5977SOL     OW28399   0.297   3.567   0.652  0.0290 -0.4728 -0.2276
 5977SOL    HW128400   0.349   3.562   0.567  0.1021  1.6959 -0.3412
 5977SOL    HW228401   0.233   3.491   0.657  0.5251 -1.0104 -1.8937
 5978SOL     OW28402   1.233   7.372   2.547  0.1193 -0.0382  0.4987
 5978SOL    HW128403   1.331   7.384   2.536  0.2707 -1.4383  0.2428
 5978SOL    HW228404   1.208   7.384   2.643  0.4380  0.9241  0.4690
 5979SOL     OW28405   3.452   7.434   1.091  0.4011  0.7272 -0.3909
 5979SOL    HW128406   3.475   7.485   1.008 -3.0796 -0.4481 -2.1722
 5979SOL    HW228407   3.459   7.336   1.073 -1.2726  0.4518  0.4119
 5980SOL     OW28408   9.744   2.840   0.831  0.5373 -0.3224  0.0901
 5980SOL    HW128409   9.666   2.877   0.779  0.4964 -1.0568 -0.3877
 5980SOL    HW228410   9.811   2.912   0.847 -0.6049  0.5278  1.2120
 5981SOL     OW28411   4.077   6.641   2.299 -0.1080  0.3491 -0.0706
 5981SOL    HW128412   4.058   6.639   2.397  0.9217 -0.8916  0.1095
 5981SOL    HW228413   4.044   6.556   2.256  0.2219  0.5143 -0.6601
 5982SOL     OW28414   0.324   1.545   2.574  0.3111 -0.0172  0.0196
 5982SOL    HW128415   0.297   1.639   2.596  0.8300  0.0681  0.2964
 5982SOL    HW228416   0.264   1.482   2.623  0.3687  0.1723  0.3408
 5983SOL     OW28417   1.114   6.795   3.248  0.4947  0.0766  1.0270
 5983SOL    HW128418   1.026   6.791   3.201 -0.1837 -2.8690  2.4262
 5983SOL    HW228419   1.128   6.887   3.285 -2.8801  0.1246  2.3866
 5984SOL     OW28420   7.820   1.816   1.449  0.1588  0.4932  0.1560
 5984SOL    HW128421   7.800   1.912   1.469 -0.1232  0.4622  0.0294
 5984SOL    HW228422   7.915   1.807   1.419  0.0404  0.8079 -0.3209
 5985SOL     OW28423   0.317   1.913   0.157  0.1761  0.1069 -0.2154
 5985SOL    HW128424   0.257   1.834   0.164  0.8484 -0.5226 -1.3560
 5985SOL    HW228425   0.411   1.883   0.146  0.3463  1.0462 -1.5141
 5986SOL     OW28426   5.217   8.105   3.744  0.2952 -0.1531  0.3310
 5986SOL    HW128427   5.243   8.201   3.753 -1.4684  0.5758 -2.0744
 5986SOL    HW228428   5.191   8.070   3.834 -2.4788  2.6606  0.7099
 5987SOL     OW28429   1.818   3.161   0.660 -0.3217 -0.3861  0.4242
 5987SOL    HW128430   1.898   3.196   0.612 -1.1937  0.5892 -0.3558
 5987SOL    HW228431   1.747   3.137   0.594 -0.1624 -2.5947  1.0204
 5988SOL     OW28432   1.708   5.458   2.900 -0.0197 -0.3242  0.1518
 5988SOL    HW128433   1.613   5.485   2.887  0.3418  0.9023 -0.0249
 5988SOL    HW228434   1.767   5.517   2.845  0.7280 -2.1218 -1.0128
 5989SOL     OW28435   2.134   8.610   2.504  0.2527 -0.0317  0.2203
 5989SOL    HW128436   2.072   8.532   2.494 -1.0001  1.0002 -0.2051
 5989SOL    HW228437   2.209   8.600   2.440  0.2982 -1.0665  0.4132
 5990SOL     OW28438   1.371   5.549   0.349  0.5257 -0.2454 -0.3139
 5990SOL    HW128439   1.272   5.547   0.340  0.0822  0.7542  3.3043
 5990SOL    HW228440   1.406   5.638   0.323  0.3869 -0.3911 -0.9905
 5991SOL     OW28441   4.786   3.080   2.752  0.4778  0.3381 -0.0246
 5991SOL    HW128442   4.696   3.107   2.718 -0.2439 -1.5569  0.3014
 5991SOL    HW228443   4.858   3.126   2.699 -0.6702  0.4982 -1.4718
 5992SOL     OW28444   0.007   2.306   2.327  0.5977  0.4660  0.0672
 5992SOL    HW128445  -0.033   2.325   2.417 -1.9499  1.4215 -1.2343
 5992SOL    HW228446  -0.043   2.231   2.284  1.8475 -0.0261 -0.5292
 5993SOL     OW28447   2.972   8.563   2.647  0.2986 -0.3009 -0.6988
 5993SOL    HW128448   2.979   8.553   2.747  1.7751 -1.5717 -0.9079
 5993SOL    HW228449   2.883   8.602   2.624 -0.4717 -0.9576  1.0444
 5994SOL     OW28450   0.727   3.880   2.528 -0.4925  0.5398  0.6960
 5994SOL    HW128451   0.824   3.897   2.512 -0.1816 -3.0039 -1.6967
 5994SOL    HW228452   0.717   3.815   2.604 -0.9492 -0.0041  0.1710
 5995SOL     OW28453   2.236   1.011   0.069  0.1656 -0.0563  0.3712
 5995SOL    HW128454   2.164   1.023   0.000 -1.0465  0.0167  1.6320
 5995SOL    HW228455   2.296   1.091   0.068 -1.5637  1.2938  1.3759
 5996SOL     OW28456   1.684   6.387   0.478 -0.2161 -0.4547 -0.2917
 5996SOL    HW128457   1.594   6.348   0.458  0.3588 -0.7604 -2.4082
 5996SOL    HW228458   1.753   6.340   0.423  0.9339  1.3491 -0.4107
 5997SOL     OW28459   3.858   7.424   2.435  0.2801 -0.1802 -0.1022
 5997SOL    HW128460   3.847   7.390   2.341  1.0794  0.5185 -0.4536
 5997SOL    HW228461   3.886   7.520   2.433 -0.7637  0.1500  0.8718
 5998SOL     OW28462   0.343   0.772   0.817  0.4884  0.2141  0.3091
 5998SOL    HW128463   0.293   0.746   0.899  0.7888 -0.8690  0.1483
 5998SOL    HW228464   0.426   0.717   0.809  0.8157  0.7909 -0.3566
 5999SOL     OW28465   3.563   7.571   0.881 -0.6946 -0.5552 -0.6460
 5999SOL    HW128466   3.646   7.562   0.826 -0.4087 -1.4117 -0.0865
 5999SOL    HW228467   3.505   7.644   0.844  0.2943  0.0202 -1.0506
 6000SOL     OW28468   2.034   2.252   2.037  0.5209  0.0759  0.1868
 6000SOL    HW128469   2.042   2.350   2.021  0.7402 -0.0248 -0.3326
 6000SOL    HW228470   2.119   2.218   2.078 -0.0121  0.3201  1.5207
 6001SOL     OW28471   2.313   0.790   2.377 -0.3172  0.5245  0.0553
 6001SOL    HW128472   2.299   0.888   2.380  1.3454  0.8100 -0.7646
 6001SOL    HW228473   2.382   0.764   2.446  1.6652  0.4226 -1.8920
 6002SOL     OW28474   7.539   7.206   1.793  0.5267 -0.3544  0.5016
 6002SOL    HW128475   7.537   7.274   1.866  0.1618  2.5282 -2.1049
 6002SOL    HW228476   7.566   7.250   1.707  1.1916 -3.7004 -1.0970
 6003SOL     OW28477   7.551   9.107   2.350  1.4054  0.1169  0.0434
 6003SOL    HW128478   7.452   9.117   2.343  1.4038  0.8272  1.0414
 6003SOL    HW228479   7.596   9.159   2.277  0.9904 -1.6190 -1.4842
 6004SOL     OW28480   0.847   8.015   3.225 -0.2093  0.3094 -0.1513
 6004SOL    HW128481   0.781   7.978   3.290 -0.6088 -0.2616 -0.8756
 6004SOL    HW228482   0.938   7.978   3.245 -0.7053 -1.5689 -1.2446
 6005SOL     OW28483   2.076   7.993   3.704 -0.0489  1.0488  0.5513
 6005SOL    HW128484   2.090   7.895   3.698 -0.7281  0.9941 -0.3103
 6005SOL    HW228485   1.993   8.018   3.655  0.5541  2.1555  0.0675
 6006SOL     OW28486   9.677   1.413   1.603  0.0288 -0.1372  0.4695
 6006SOL    HW128487   9.659   1.339   1.539  2.5659 -0.9596  0.6626
 6006SOL    HW228488   9.762   1.396   1.651 -0.9762  1.3084  2.8722
 6007SOL     OW28489   8.265   7.891   1.350  0.6190  0.0794 -0.1218
 6007SOL    HW128490   8.249   7.980   1.308 -0.7452 -0.7497 -1.3862
 6007SOL    HW228491   8.229   7.891   1.443 -2.9038 -0.3274 -1.4018
 6008SOL     OW28492   5.932   9.719   2.494 -0.1156  0.8347  0.2075
 6008SOL    HW128493   5.990   9.753   2.420 -0.5645  0.1293 -0.4774
 6008SOL    HW228494   5.843   9.690   2.456 -0.4204  0.6601  1.0471
 6009SOL     OW28495   4.222   0.321   3.399 -0.0309 -0.2007  0.1848
 6009SOL    HW128496   4.291   0.257   3.363  0.3058  0.8414 -1.0524
 6009SOL    HW228497   4.242   0.340   3.495  1.1113 -0.3128 -0.0196
 6010SOL     OW28498   2.970   5.178   2.081  0.3257  0.1865  0.0538
 6010SOL    HW128499   3.062   5.208   2.057  0.8677 -1.1906  0.4064
 6010SOL    HW228500   2.928   5.132   2.003 -0.7406  2.3299 -0.6915
 6011SOL     OW28501   8.509   5.776   4.005  0.5369  0.5856 -0.2716
 6011SOL    HW128502   8.584   5.836   3.980  0.9631  0.7062  1.2263
 6011SOL    HW228503   8.535   5.681   3.987  0.1070  0.7844 -2.0337
 6012SOL     OW28504   9.016   9.936   0.887 -0.3433  0.6256  0.1668
 6012SOL    HW128505   9.052   9.845   0.910 -0.3433  0.4575 -0.4875
 6012SOL    HW228506   9.087  10.004   0.905  0.9847  0.1177 -2.7571
 6013SOL     OW28507   2.564   6.618   2.791 -0.3314 -0.3995  0.2092
 6013SOL    HW128508   2.608   6.697   2.832 -0.8153 -1.4227  2.8054
 6013SOL    HW228509   2.616   6.588   2.711  1.0299  1.2469  0.4595
 6014SOL     OW28510   4.143   2.412   2.348  0.1176 -0.3351 -0.2789
 6014SOL    HW128511   4.226   2.423   2.292 -0.8526 -0.2613 -1.7316
 6014SOL    HW228512   4.166   2.362   2.432  1.7502  0.2204 -0.3787
 6015SOL     OW28513   2.829   8.436   2.054  0.3815 -0.0976  0.3369
 6015SOL    HW128514   2.796   8.457   1.962 -1.5111  2.6071  1.5635
 6015SOL    HW228515   2.780   8.357   2.090  0.2883 -0.4433 -0.5313
 6016SOL     OW28516   8.847   7.763   0.543 -0.2883 -0.8498 -0.3261
 6016SOL    HW128517   8.925   7.735   0.487 -1.0768  0.1201 -1.9732
 6016SOL    HW228518   8.877   7.831   0.610  0.1724  0.1015 -1.4647
 6017SOL     OW28519   4.533   2.022   0.708  0.0205 -0.2245 -0.0979
 6017SOL    HW128520   4.528   2.121   0.719 -0.5926 -0.3346  0.6082
 6017SOL    HW228521   4.514   1.977   0.795  1.3625 -0.9442 -0.1550
 6018SOL     OW28522   0.029   5.219   3.544 -0.6720 -0.1616 -0.3112
 6018SOL    HW128523   0.109   5.266   3.583 -1.3382  0.8684 -0.1775
 6018SOL    HW228524  -0.038   5.287   3.513 -1.8232 -1.0325  0.2463
 6019SOL     OW28525   0.346   4.305   0.464  0.7675  0.2466 -0.8620
 6019SOL    HW128526   0.423   4.277   0.523  0.4487 -3.3308 -2.0094
 6019SOL    HW228527   0.382   4.351   0.383  1.4123  2.1368  0.4463
 6020SOL     OW28528   4.750   1.146   2.410  0.1223 -0.0438 -0.2314
 6020SOL    HW128529   4.736   1.122   2.506 -1.1761 -1.6090 -0.7826
 6020SOL    HW228530   4.767   1.062   2.358 -0.1058  0.6996 -1.5054
 6021SOL     OW28531   2.380   9.462   3.492 -0.2888  0.3024 -0.5528
 6021SOL    HW128532   2.372   9.397   3.567 -0.6632  0.6871 -0.2523
 6021SOL    HW228533   2.288   9.488   3.461 -0.1417  0.7013 -0.6535
 6022SOL     OW28534   8.551   5.176   2.138  0.6735  0.2233 -0.1125
 6022SOL    HW128535   8.580   5.099   2.193 -0.1717  0.0992  0.1697
 6022SOL    HW228536   8.468   5.216   2.177  0.2168  0.2974 -1.1383
 6023SOL     OW28537   9.381   1.430   0.305 -0.2614 -0.2933 -0.2093
 6023SOL    HW128538   9.382   1.421   0.405  1.4281  1.6724 -0.0140
 6023SOL    HW228539   9.322   1.507   0.280 -0.6617 -0.7726 -0.7330
 6024SOL     OW28540   1.003   3.105   1.518  0.2637  0.5188 -0.1924
 6024SOL    HW128541   1.046   3.125   1.431 -0.5430  0.4088 -0.6247
 6024SOL    HW228542   0.923   3.046   1.503  0.4085  0.0899  0.6638
 6025SOL     OW28543   6.299   9.601   2.739 -0.2810 -0.3665 -0.2097
 6025SOL    HW128544   6.377   9.643   2.695 -1.0557  0.4883 -0.7701
 6025SOL    HW228545   6.223   9.666   2.743 -0.4021 -0.6049  1.8849
 6026SOL     OW28546   2.627   1.373   3.911  0.1128 -0.2790  0.1333
 6026SOL    HW128547   2.551   1.399   3.971  0.2950 -0.4668  0.4469
 6026SOL    HW228548   2.596   1.303   3.848  0.0829 -0.5073  0.4009
 6027SOL     OW28549   1.724   1.202   0.219  0.1718 -0.2783 -0.2714
 6027SOL    HW128550   1.751   1.112   0.253  1.5777  0.2395  0.0202
 6027SOL    HW228551   1.797   1.239   0.161 -0.5784  0.4918 -0.7378
 6028SOL     OW28552   9.645   7.128   1.945 -0.4560 -0.0252  0.1960
 6028SOL    HW128553   9.549   7.122   1.971 -0.9765  2.3776 -1.0021
 6028SOL    HW228554   9.658   7.205   1.882  2.0690 -0.9801 -0.5212
 6029SOL     OW28555   9.812   4.142   3.527  0.1101 -0.5065 -0.7522
 6029SOL    HW128556   9.748   4.217   3.507 -0.0761  0.2212  2.3302
 6029SOL    HW228557   9.897   4.179   3.563  0.1212 -1.7368  0.5562
 6030SOL     OW28558   8.462   3.226   2.688  0.5268 -0.1091  0.2609
 6030SOL    HW128559   8.477   3.293   2.760  0.8970 -0.7884  0.8215
 6030SOL    HW228560   8.414   3.147   2.726 -2.6069  1.0701 -1.0144
 6031SOL     OW28561   8.729   0.409   3.443 -0.3475  0.1191 -0.0559
 6031SOL    HW128562   8.715   0.504   3.416 -1.0003  0.9591  3.0770
 6031SOL    HW228563   8.650   0.354   3.414 -1.1420  1.0330  0.3428
 6032SOL     OW28564   8.835   5.701   2.656 -0.6903  0.7256  0.1727
 6032SOL    HW128565   8.817   5.680   2.560 -0.9991 -1.6308  0.7137
 6032SOL    HW228566   8.923   5.661   2.682 -1.1781  0.3097  1.1907
 6033SOL     OW28567   8.685   0.897   3.643 -0.0464 -0.1824 -0.0673
 6033SOL    HW128568   8.712   0.853   3.729 -0.0932  0.5396  0.3205
 6033SOL    HW228569   8.739   0.980   3.629  0.6598 -0.8143 -1.2332
 6034SOL     OW28570   8.115   6.293   1.658  0.4601 -0.2465 -0.0902
 6034SOL    HW128571   8.170   6.271   1.739 -2.3926 -2.8492  1.2734
 6034SOL    HW228572   8.136   6.229   1.584 -0.0201 -0.6620  0.1239
 6035SOL     OW28573   1.453   7.962   0.163  0.7813 -0.1911  0.6046
 6035SOL    HW128574   1.370   8.013   0.186  0.4269 -1.0850  1.2882
 6035SOL    HW228575   1.436   7.906   0.082  0.8675  0.0028  0.4520
 6036SOL     OW28576   2.337   2.341   0.610  0.2904  0.4351  0.1065
 6036SOL    HW128577   2.415   2.324   0.549  1.0237 -0.9168  1.3599
 6036SOL    HW228578   2.327   2.439   0.625  0.1272  0.7911 -2.1106
 6037SOL     OW28579   4.839   9.766   2.826 -0.2586  0.4667 -0.1389
 6037SOL    HW128580   4.900   9.687   2.816 -1.4471 -0.5409  0.4491
 6037SOL    HW228581   4.833   9.814   2.738 -0.5749 -0.8768 -0.8747
 6038SOL     OW28582   2.214   6.366   0.744 -0.3621 -0.5414  0.1267
 6038SOL    HW128583   2.136   6.403   0.795 -0.0333  0.0739  0.1762
 6038SOL    HW228584   2.226   6.270   0.769 -1.5842 -0.8637 -0.4505
 6039SOL     OW28585   9.849   5.726   1.876  0.0498 -0.0585  0.5479
 6039SOL    HW128586   9.866   5.796   1.945 -1.5047  0.2311  0.6478
 6039SOL    HW228587   9.763   5.744   1.829  0.2623 -1.1881 -0.3174
 6040SOL     OW28588   2.436   2.764   3.408 -0.5473 -0.0684 -0.6763
 6040SOL    HW128589   2.503   2.823   3.453 -1.1353  0.3816 -0.3774
 6040SOL    HW228590   2.362   2.821   3.371 -1.2843 -0.6511 -0.1030
 6041SOL     OW28591   2.123   1.931   0.260 -0.3073  0.5408 -0.1283
 6041SOL    HW128592   2.070   1.862   0.210 -2.1588 -0.1844  2.7036
 6041SOL    HW228593   2.216   1.897   0.275 -0.3982 -0.1745 -1.1698
 6042SOL     OW28594   4.657   0.876   0.615 -0.2024  0.5307  0.8197
 6042SOL    HW128595   4.746   0.921   0.604  0.7392 -1.3714  0.5312
 6042SOL    HW228596   4.585   0.946   0.616  1.4250  2.2521  2.9203
 6043SOL     OW28597   8.483   1.472   3.033  0.3234 -0.1205 -0.2188
 6043SOL    HW128598   8.581   1.452   3.037  0.3178 -0.0424  0.4367
 6043SOL    HW228599   8.459   1.533   3.109 -0.0799  0.5289 -0.8643
 6044SOL     OW28600   1.990   3.852   2.125 -0.3678  0.5450  0.5987
 6044SOL    HW128601   1.931   3.775   2.101  0.0313  0.8744 -1.5372
 6044SOL    HW228602   1.950   3.936   2.090 -1.2361  1.4732  3.6622
 6045SOL     OW28603   2.166   0.798   3.845 -0.1729 -0.3601 -0.4678
 6045SOL    HW128604   2.239   0.848   3.798  0.2412 -0.9687 -0.4812
 6045SOL    HW228605   2.081   0.850   3.841  0.2930  0.4105 -0.3492
 6046SOL     OW28606   2.208   1.021   1.422 -0.2183  0.2003 -0.1937
 6046SOL    HW128607   2.117   1.055   1.446  0.0608  0.7911  0.0211
 6046SOL    HW228608   2.236   0.951   1.488 -0.0334  0.8404  0.4062
 6047SOL     OW28609   4.658   7.565   2.044 -0.1634  0.4957 -0.3670
 6047SOL    HW128610   4.602   7.542   2.124  0.3170  2.5417  0.6053
 6047SOL    HW228611   4.747   7.599   2.075  1.1621 -1.5234 -1.8675
 6048SOL     OW28612   8.508   6.096   2.436 -0.6563 -0.1589 -0.0393
 6048SOL    HW128613   8.525   6.167   2.367 -1.1454  0.7948  0.8012
 6048SOL    HW228614   8.577   6.102   2.508 -0.7158 -0.5113  0.0456
 6049SOL     OW28615   4.562   8.312   3.404  0.4209 -0.5586 -0.1847
 6049SOL    HW128616   4.631   8.382   3.385  0.7403 -0.3965  1.5708
 6049SOL    HW228617   4.604   8.222   3.398  0.6310 -0.4878  0.2170
 6050SOL     OW28618   9.971   0.407   2.470  0.0804 -0.6072 -0.1797
 6050SOL    HW128619  10.009   0.415   2.562  0.0403 -0.3835 -0.1832
 6050SOL    HW228620  10.012   0.328   2.424 -1.6604 -2.1565  0.8889
 6051SOL     OW28621   1.311   8.988   3.276 -0.3155  0.7360 -0.4049
 6051SOL    HW128622   1.323   9.026   3.367 -0.3132  1.9412 -0.8962
 6051SOL    HW228623   1.214   8.991   3.251  0.0176  2.9227 -1.5018
 6052SOL     OW28624   2.497   5.353   3.612  0.0927 -0.3709 -0.0370
 6052SOL    HW128625   2.479   5.451   3.625 -2.5393 -0.8569  0.2301
 6052SOL    HW228626   2.438   5.318   3.539  1.4342 -1.6476 -0.5187
 6053SOL     OW28627   3.184   4.714   1.533  0.0085 -0.7594 -0.1289
 6053SOL    HW128628   3.089   4.710   1.502 -0.1126  1.5859 -0.1816
 6053SOL    HW228629   3.245   4.711   1.454 -0.1669  1.0123 -0.3702
 6054SOL     OW28630   3.591   2.041   1.463  0.4776  0.2179 -0.3598
 6054SOL    HW128631   3.590   2.043   1.563  1.1341 -0.0811 -0.3460
 6054SOL    HW228632   3.535   2.116   1.428  0.4859  0.5071  0.2300
 6055SOL     OW28633   2.759   3.147   0.002 -0.1484  0.1083 -0.2042
 6055SOL    HW128634   2.855   3.129  -0.020 -0.0788 -0.8445  0.8055
 6055SOL    HW228635   2.747   3.243   0.024  0.6044  0.2100 -0.2215
 6056SOL     OW28636   3.762   2.903   0.233 -0.0916 -0.4837 -0.1229
 6056SOL    HW128637   3.719   2.831   0.178 -1.2292 -2.1656  2.8202
 6056SOL    HW228638   3.691   2.963   0.270  0.6227  0.4430 -0.2400
 6057SOL     OW28639   0.808   7.676   3.614 -0.3104 -0.3998  0.5150
 6057SOL    HW128640   0.815   7.675   3.514  1.1025  0.6656  0.5876
 6057SOL    HW228641   0.890   7.636   3.654 -1.4473 -2.0609  1.2603
 6058SOL     OW28642   0.090   4.905   3.246 -0.1069  0.1258  0.0270
 6058SOL    HW128643   0.037   4.892   3.330 -0.1408  2.2951  0.3814
 6058SOL    HW228644   0.042   4.864   3.169 -0.6619 -0.8407  0.8858
 6059SOL     OW28645   3.336   1.187   3.848  0.0964  0.3115  0.5674
 6059SOL    HW128646   3.344   1.287   3.853 -0.2942  0.4587 -1.4164
 6059SOL    HW228647   3.257   1.162   3.793  0.1905 -1.1044  1.0531
 6060SOL     OW28648   0.760   1.839   1.709  0.6690 -0.1495  0.1562
 6060SOL    HW128649   0.702   1.921   1.717  1.3698  0.3953 -0.2289
 6060SOL    HW228650   0.786   1.808   1.800  1.8548  1.1263  0.2766
 6061SOL     OW28651   0.775   7.962   4.018 -0.7214  0.1200 -0.0716
 6061SOL    HW128652   0.800   7.926   4.108  1.0800  1.0626 -0.1640
 6061SOL    HW228653   0.786   8.061   4.017 -0.3280  0.0809 -1.4490
 6062SOL     OW28654   2.449   2.191   1.042 -0.1281  0.0654 -0.0087
 6062SOL    HW128655   2.386   2.115   1.031 -0.0522  0.3528 -2.7326
 6062SOL    HW228656   2.398   2.274   1.066 -0.4528 -0.3273  0.6659
 6063SOL     OW28657   4.777   3.132   3.291 -0.5882  0.0744 -0.5009
 6063SOL    HW128658   4.856   3.105   3.235  0.0165  1.8480 -0.5399
 6063SOL    HW228659   4.761   3.230   3.281 -1.8190  0.0220  0.7699
 6064SOL     OW28660   2.931   5.863   0.666 -0.0473 -0.1990 -0.0464
 6064SOL    HW128661   3.030   5.873   0.651 -0.0093 -0.4901  0.0122
 6064SOL    HW228662   2.903   5.924   0.740  0.5718 -2.0916  1.7851
 6065SOL     OW28663   3.739   3.959   1.327  0.3412  0.3714 -0.5872
 6065SOL    HW128664   3.727   3.978   1.425 -2.0701 -3.4687 -0.0361
 6065SOL    HW228665   3.700   4.034   1.274  0.6288  1.9624  1.3560
 6066SOL     OW28666   3.762   2.566   2.164 -0.4099 -0.5148  0.4043
 6066SOL    HW128667   3.730   2.649   2.118 -1.9217 -1.1360  0.3219
 6066SOL    HW228668   3.701   2.490   2.142  0.2279 -1.3617  1.5259
 6067SOL     OW28669   0.047   0.924   0.994  0.3289  0.2712 -0.2233
 6067SOL    HW128670   0.062   0.841   1.048  2.1009  0.2568 -0.6990
 6067SOL    HW228671   0.080   1.003   1.045  0.3746  0.4661 -0.5554
 6068SOL     OW28672   8.014   7.980   0.330  0.0124 -0.0837 -0.1743
 6068SOL    HW128673   8.073   8.014   0.404  0.7587 -0.8002 -0.4333
 6068SOL    HW228674   8.000   7.882   0.342 -0.9903  0.0523 -0.2195
 6069SOL     OW28675   3.609   2.705   0.804 -0.1521  0.4990 -0.1346
 6069SOL    HW128676   3.534   2.650   0.767  0.2339 -0.2558  0.1744
 6069SOL    HW228677   3.693   2.649   0.806  0.4340  1.3543 -0.5507
 6070SOL     OW28678   9.072   3.126   3.466  0.2700  0.1315 -0.1941
 6070SOL    HW128679   9.158   3.082   3.442 -0.1801 -0.6716 -0.3880
 6070SOL    HW228680   9.026   3.073   3.537 -0.2273  0.3574 -0.3436
 6071SOL     OW28681   8.545   0.516   1.104  0.1604  0.2164 -0.1282
 6071SOL    HW128682   8.496   0.491   1.188  0.8134  0.4217  0.3246
 6071SOL    HW228683   8.515   0.607   1.075  1.4034  1.0268  1.0434
 6072SOL     OW28684   3.427   1.791   0.226 -0.2463 -0.0076 -0.2773
 6072SOL    HW128685   3.513   1.762   0.269 -0.4959 -0.9322 -0.4092
 6072SOL    HW228686   3.412   1.888   0.245 -0.4127 -0.4287  1.8343
 6073SOL     OW28687   3.464   9.991   1.103  0.0291 -0.1673  0.3902
 6073SOL    HW128688   3.541   9.998   1.166  0.5729 -1.5423 -0.1107
 6073SOL    HW228689   3.381  10.025   1.147  1.3916  3.9184  0.0622
 6074SOL     OW28690   7.657   9.331   3.399  0.3913 -0.7614 -0.2046
 6074SOL    HW128691   7.626   9.424   3.420 -1.5443 -1.2667 -0.6743
 6074SOL    HW228692   7.671   9.280   3.484  2.2878  0.2103  0.0742
 6075SOL     OW28693   4.159   9.523   2.362  0.3876 -0.0707 -0.1771
 6075SOL    HW128694   4.220   9.455   2.401 -1.6537 -2.3335 -0.7805
 6075SOL    HW228695   4.085   9.541   2.427  0.2488  0.6376 -0.5328
 6076SOL     OW28696   4.884   8.536   2.900 -0.4273  0.2340  0.0751
 6076SOL    HW128697   4.813   8.577   2.842  0.6095  2.7858  0.5614
 6076SOL    HW228698   4.953   8.604   2.921  1.2727 -1.7550  1.0890
 6077SOL     OW28699   4.124   0.235   1.247  0.8503 -0.1014 -0.5387
 6077SOL    HW128700   4.160   0.327   1.231 -0.9452  0.8376  0.6314
 6077SOL    HW228701   4.051   0.216   1.182  0.0246 -0.0012  0.3510
 6078SOL     OW28702   9.302   9.519   0.166  0.5142  0.4658 -0.1841
 6078SOL    HW128703   9.218   9.489   0.121  0.6833 -0.1110 -0.1320
 6078SOL    HW228704   9.321   9.458   0.243  3.7531 -2.6743 -3.2609
 6079SOL     OW28705   2.395   7.145   0.717 -0.4089  0.3827  0.1481
 6079SOL    HW128706   2.388   7.119   0.813  0.2555 -0.2682  0.0234
 6079SOL    HW228707   2.474   7.100   0.675 -1.2665 -0.1091 -0.9589
 6080SOL     OW28708   9.340   2.413   2.600 -0.1082 -0.0734 -0.0118
 6080SOL    HW128709   9.265   2.412   2.665  1.2531 -0.4101  1.5914
 6080SOL    HW228710   9.331   2.336   2.537  2.4206 -4.2519  4.3953
 6081SOL     OW28711   3.737   4.785   1.702 -0.0687 -0.2319  0.8144
 6081SOL    HW128712   3.688   4.702   1.676  0.4192 -0.3154  0.1610
 6081SOL    HW228713   3.834   4.775   1.682  0.1052  0.2181  1.4156
 6082SOL     OW28714   0.034   8.685   2.953  0.5712 -0.1459 -0.3715
 6082SOL    HW128715   0.041   8.624   3.032 -1.1626  1.4792  1.0913
 6082SOL    HW228716   0.114   8.745   2.951 -0.7928  1.9025  2.0453
 6083SOL     OW28717   3.061   7.551   1.442  0.3018  0.9521  0.1854
 6083SOL    HW128718   3.021   7.600   1.519 -2.0370  1.9517 -1.6192
 6083SOL    HW228719   3.044   7.601   1.357 -0.5057 -2.0279 -1.4835
 6084SOL     OW28720   2.286   9.564   2.394 -0.2429  0.1955  0.2750
 6084SOL    HW128721   2.361   9.607   2.344 -0.0742  0.9880  1.2012
 6084SOL    HW228722   2.236   9.503   2.333 -0.0900  1.2195 -0.8880
 6085SOL     OW28723   8.148   2.513   1.439  0.5371  0.0340  0.5388
 6085SOL    HW128724   8.134   2.604   1.480  2.6781 -0.0176  1.4625
 6085SOL    HW228725   8.142   2.521   1.339 -1.3324  0.7952  0.6860
 6086SOL     OW28726   3.845   2.318   2.514 -0.4546 -0.0814  0.2544
 6086SOL    HW128727   3.857   2.271   2.427 -1.8635 -1.1066  0.6032
 6086SOL    HW228728   3.804   2.408   2.498  0.4539  0.2487 -0.2406
 6087SOL     OW28729   9.632   6.888   1.425  0.3863 -0.3221 -0.4442
 6087SOL    HW128730   9.631   6.852   1.519 -0.8931 -1.7806 -1.0044
 6087SOL    HW228731   9.581   6.974   1.422  1.7902  0.5768  0.5020
 6088SOL     OW28732   8.733   6.891   1.492  0.2606  0.0137 -0.5157
 6088SOL    HW128733   8.723   6.792   1.485 -0.3747 -0.0763  1.3067
 6088SOL    HW228734   8.830   6.914   1.507 -0.1127 -0.7194  3.7248
 6089SOL     OW28735   9.944   9.657   3.258 -0.3850  0.1322 -0.0525
 6089SOL    HW128736   9.909   9.695   3.172  1.4235  0.2596 -0.7619
 6089SOL    HW228737  10.035   9.695   3.276 -0.4861 -0.3791  1.5998
 6090SOL     OW28738   8.983   9.419   2.714 -0.2204 -1.0491 -0.5278
 6090SOL    HW128739   8.915   9.345   2.719 -0.4994 -0.7625 -0.0095
 6090SOL    HW228740   9.030   9.415   2.626  0.6731 -2.6444  0.0060
 6091SOL     OW28741   7.605   7.195   2.288 -0.5303  0.6005 -0.2163
 6091SOL    HW128742   7.667   7.237   2.221 -0.9319  0.1446 -0.8860
 6091SOL    HW228743   7.657   7.163   2.367  0.3058 -1.0716 -1.4005
 6092SOL     OW28744   2.055   2.246   2.936 -0.1640 -0.5056  0.5589
 6092SOL    HW128745   1.971   2.221   2.983 -0.1899  0.4690  1.0393
 6092SOL    HW228746   2.120   2.171   2.942 -1.3220 -1.6285 -0.6061
 6093SOL     OW28747   2.049   0.634   0.348 -0.2099  0.4423  0.5906
 6093SOL    HW128748   1.997   0.656   0.430 -2.2906 -1.3624 -0.1968
 6093SOL    HW228749   2.030   0.702   0.277 -1.4330 -0.1654  0.3329
 6094SOL     OW28750   8.768   3.815   0.923  0.8716 -0.1334  0.0315
 6094SOL    HW128751   8.722   3.865   0.850 -1.4989 -0.9610  0.9426
 6094SOL    HW228752   8.759   3.866   1.009 -0.3437 -1.4367  0.6775
 6095SOL     OW28753   2.533   9.377   1.600  0.4132  0.4691 -0.9697
 6095SOL    HW128754   2.495   9.297   1.556  0.6099  0.0909 -0.4623
 6095SOL    HW228755   2.572   9.438   1.531 -1.7861  1.2376 -1.5660
 6096SOL     OW28756   5.476   7.876   1.534 -0.1841 -0.0385 -0.0483
 6096SOL    HW128757   5.540   7.831   1.596  1.2757  1.4194 -0.4458
 6096SOL    HW228758   5.506   7.970   1.518 -2.3023  0.5985 -0.4550
 6097SOL     OW28759   2.367   3.091   3.021  0.2838 -0.6094 -0.4811
 6097SOL    HW128760   2.385   3.014   2.960  0.0976 -1.8186  0.9533
 6097SOL    HW228761   2.269   3.108   3.027  0.0998 -2.2114  1.5058
 6098SOL     OW28762   2.520   6.702   0.492  0.0222 -0.5131 -0.2539
 6098SOL    HW128763   2.593   6.768   0.478  0.7804 -1.5590 -1.3619
 6098SOL    HW228764   2.541   6.618   0.442 -1.6770 -1.0223 -0.1486
 6099SOL     OW28765   3.510   0.450   4.031 -0.3710  0.0280 -0.3571
 6099SOL    HW128766   3.581   0.380   4.044 -1.0526 -0.1833  2.4207
 6099SOL    HW228767   3.547   0.540   4.054 -0.8105  0.0008  0.4643
 6100SOL     OW28768   0.998   2.363   0.477  0.0458  0.1808  0.2567
 6100SOL    HW128769   0.996   2.269   0.443 -0.1390  0.0202  0.7067
 6100SOL    HW228770   1.047   2.366   0.565  2.1321  0.8787 -0.8894
 6101SOL     OW28771   4.359   0.161   3.010  0.0196  0.1796 -0.2270
 6101SOL    HW128772   4.265   0.128   3.012 -0.0412  0.4049  0.9697
 6101SOL    HW228773   4.361   0.257   3.038  0.2177  1.1894 -3.4669
 6102SOL     OW28774   4.081   0.757   0.960 -0.1429  0.9241 -0.3743
 6102SOL    HW128775   4.125   0.786   1.044 -1.9396  0.0414  0.8986
 6102SOL    HW228776   4.028   0.673   0.977  0.5972 -0.0495 -2.6871
 6103SOL     OW28777   4.519   8.647   0.946 -0.6037 -0.3997 -0.6215
 6103SOL    HW128778   4.518   8.549   0.965  1.4455 -0.0533  1.4167
 6103SOL    HW228779   4.505   8.698   1.031  0.1426  1.0947 -1.3758
 6104SOL     OW28780   2.741   5.885   3.276  0.2965 -0.0902 -0.3423
 6104SOL    HW128781   2.670   5.819   3.302  0.4790 -0.3649 -0.5362
 6104SOL    HW228782   2.825   5.836   3.252  1.2600  0.3298  2.0368
 6105SOL     OW28783   0.139   9.290   0.406 -0.1851 -0.0916 -0.2671
 6105SOL    HW128784   0.169   9.351   0.480 -0.8012 -1.2163  0.9246
 6105SOL    HW228785   0.102   9.345   0.331  3.0696  1.2084 -0.9720
 6106SOL     OW28786   2.661   4.149   3.512 -0.3538  0.0708  0.1830
 6106SOL    HW128787   2.574   4.122   3.553 -0.0937 -1.8464 -0.4828
 6106SOL    HW228788   2.658   4.136   3.413  0.2572  1.2466 -0.0051
 6107SOL     OW28789   8.203   9.679   1.007 -0.2828  0.1218  0.1401
 6107SOL    HW128790   8.267   9.744   1.048 -0.6935 -0.4688  1.7541
 6107SOL    HW228791   8.204   9.594   1.060 -1.6521 -0.2534 -0.4232
 6108SOL     OW28792   0.001   7.158   3.152 -0.2666  0.4208 -0.2302
 6108SOL    HW128793  -0.081   7.211   3.130  0.1954  0.6739 -1.3552
 6108SOL    HW228794  -0.013   7.062   3.125 -0.3458  0.3854 -0.0610
 6109SOL     OW28795   0.026   2.714   3.666 -0.0605  0.1295  0.0957
 6109SOL    HW128796   0.121   2.716   3.637 -0.1309  3.0900 -0.1543
 6109SOL    HW228797  -0.032   2.752   3.594 -1.1225  0.6174  1.1860
 6110SOL     OW28798   0.369   2.776   3.852  0.0935  0.6813  0.1315
 6110SOL    HW128799   0.325   2.845   3.795 -0.8417  1.0110  1.2377
 6110SOL    HW228800   0.465   2.768   3.826  0.0192  1.8208 -0.5428
 6111SOL     OW28801   4.297   6.696   2.579 -0.0333  0.1180 -0.3144
 6111SOL    HW128802   4.357   6.750   2.520 -0.7566  0.7165 -0.5024
 6111SOL    HW228803   4.204   6.730   2.572 -0.8552 -2.3260 -1.8807
 6112SOL     OW28804   3.123   3.105   2.301  0.4204  0.2447 -0.5625
 6112SOL    HW128805   3.055   3.155   2.247 -0.3412 -0.5680 -0.3710
 6112SOL    HW228806   3.171   3.170   2.360 -2.3500  0.4584  1.5906
 6113SOL     OW28807   9.016   6.352   2.359 -0.0697 -0.2073  0.8734
 6113SOL    HW128808   9.077   6.413   2.408  0.0997  2.2491 -2.2459
 6113SOL    HW228809   8.953   6.405   2.302 -0.5001 -2.8730 -1.2894
 6114SOL     OW28810   3.900   7.971   0.891 -0.5037 -0.2719  0.4620
 6114SOL    HW128811   3.927   7.986   0.987 -2.6273  1.3774  0.8385
 6114SOL    HW228812   3.939   8.044   0.834  1.8566 -1.9742 -0.1925
 6115SOL     OW28813   9.587   7.630   1.937  0.5804  0.2987  0.0990
 6115SOL    HW128814   9.512   7.695   1.929  0.5476  0.4123  1.3553
 6115SOL    HW228815   9.572   7.570   2.016  0.1394 -1.8405 -1.5604
 6116SOL     OW28816   4.342   3.053   1.734 -0.3931  0.1898  0.0071
 6116SOL    HW128817   4.279   3.010   1.799  1.8451 -2.5895  0.4249
 6116SOL    HW228818   4.403   2.984   1.696  2.5235  2.8026 -0.2587
 6117SOL     OW28819   9.566   5.142   0.671  0.1354 -0.2977  0.2637
 6117SOL    HW128820   9.493   5.162   0.606 -0.4300  0.2723  1.0624
 6117SOL    HW228821   9.546   5.058   0.720 -0.4397  0.3268  1.1166
 6118SOL     OW28822   4.462   2.610   0.933  0.1800  0.5116 -0.3328
 6118SOL    HW128823   4.392   2.648   0.994  0.6678 -0.3352  0.7589
 6118SOL    HW228824   4.552   2.626   0.971  0.3919 -2.0915  0.3747
 6119SOL     OW28825   4.892   9.360   3.373 -0.6543 -0.9552 -0.0512
 6119SOL    HW128826   4.989   9.379   3.358 -0.4878 -1.2374  0.6948
 6119SOL    HW228827   4.864   9.394   3.462 -1.0832 -1.4775  0.0191
 6120SOL     OW28828   1.747   1.737   3.813  0.3398 -0.1426 -0.2091
 6120SOL    HW128829   1.785   1.746   3.721  0.4196 -2.6288 -0.4632
 6120SOL    HW228830   1.668   1.797   3.822 -0.4924 -0.8572 -2.3816
 6121SOL     OW28831   1.134   5.768   3.347 -0.1373  0.4815  0.3865
 6121SOL    HW128832   1.038   5.747   3.328 -0.2567  0.7094  0.7473
 6121SOL    HW228833   1.141   5.824   3.429  0.3743 -0.3233  0.8912
 6122SOL     OW28834   8.123   8.658   0.257  0.4601 -1.0159 -0.3561
 6122SOL    HW128835   8.042   8.695   0.212  1.2244 -0.5560 -1.3458
 6122SOL    HW228836   8.133   8.701   0.347  0.7881  0.4566 -1.0875
 6123SOL     OW28837   1.916   8.904   3.769 -1.1439  0.1434  0.3155
 6123SOL    HW128838   1.837   8.926   3.826 -2.2041 -0.8529 -0.7471
 6123SOL    HW228839   1.989   8.866   3.826 -1.9858 -0.3426  1.0693
 6124SOL     OW28840   2.126   3.616   0.931  0.4558 -0.1588  0.1260
 6124SOL    HW128841   2.141   3.534   0.876  0.1045 -0.8021  0.9638
 6124SOL    HW228842   2.196   3.622   1.002  0.5473  0.3312 -0.0037
 6125SOL     OW28843   0.414   6.423   1.575 -0.0171 -0.3326 -0.0572
 6125SOL    HW128844   0.420   6.328   1.604  0.8901 -0.5127 -0.8292
 6125SOL    HW228845   0.395   6.428   1.478  0.2771  0.2675 -0.0912
 6126SOL     OW28846   8.381   5.855   2.951 -0.2658  0.2053  0.2768
 6126SOL    HW128847   8.282   5.862   2.942 -0.3854 -1.5171  0.1106
 6126SOL    HW228848   8.412   5.912   3.028 -1.4412  0.3311  0.6629
 6127SOL     OW28849   1.644   0.780   1.628  0.4455  0.8432 -0.1788
 6127SOL    HW128850   1.587   0.764   1.709  1.2006 -0.3681  0.1229
 6127SOL    HW228851   1.591   0.762   1.546 -0.2381  1.7818  0.0583
 6128SOL     OW28852   9.336   5.891   2.297 -0.3990 -0.0123 -0.0374
 6128SOL    HW128853   9.386   5.871   2.381  0.0163 -0.2393 -0.3307
 6128SOL    HW228854   9.265   5.959   2.315 -2.6623 -2.6359  1.2332
 6129SOL     OW28855   8.998   8.141   0.959 -0.5796 -0.1177  0.1613
 6129SOL    HW128856   8.961   8.083   0.887 -1.1775 -0.1364  0.4819
 6129SOL    HW228857   9.094   8.116   0.975 -0.3632  0.0635 -0.7995
 6130SOL     OW28858   3.885   3.110   3.306 -0.0787 -0.9331  0.0726
 6130SOL    HW128859   3.953   3.173   3.345 -1.3423  0.8228 -0.4807
 6130SOL    HW228860   3.903   3.017   3.338  0.9137 -0.0527  2.1821
 6131SOL     OW28861   0.208   5.100   0.037  0.0068 -0.3241  0.8822
 6131SOL    HW128862   0.178   5.091   0.131 -0.8008  0.7344  0.7208
 6131SOL    HW228863   0.308   5.090   0.033  0.3497  2.2492  2.1856
 6132SOL     OW28864   7.879   9.077   0.245 -0.0796 -0.2851 -0.2130
 6132SOL    HW128865   7.928   9.146   0.298  1.7798 -1.2339 -0.6428
 6132SOL    HW228866   7.878   9.103   0.148  1.2462 -1.1688 -0.4843
 6133SOL     OW28867   5.200   7.803   3.784  0.3351  0.0197  0.3063
 6133SOL    HW128868   5.268   7.863   3.826  1.1547 -0.6038 -0.1329
 6133SOL    HW228869   5.180   7.835   3.691  0.6840 -0.3159  0.1150
 6134SOL     OW28870   9.269   4.419   0.986 -0.3752  0.4374  0.1155
 6134SOL    HW128871   9.231   4.424   1.078 -0.6842  1.0358 -0.0424
 6134SOL    HW228872   9.325   4.337   0.978  1.0607  1.2625  1.3566
 6135SOL     OW28873   2.089   6.377   1.513 -0.1971 -0.5440  0.0913
 6135SOL    HW128874   2.063   6.418   1.426  0.3259  0.4053  0.3831
 6135SOL    HW228875   2.113   6.448   1.578 -0.5154 -1.2545  0.9957
 6136SOL     OW28876   8.971   3.159   1.682 -0.4623  0.4456 -0.3007
 6136SOL    HW128877   9.030   3.231   1.719 -0.3231  1.4985 -2.4595
 6136SOL    HW228878   9.017   3.071   1.689  0.6060  0.9926 -0.3028
 6137SOL     OW28879   3.548   5.483   2.092  0.1300  0.1808  0.1768
 6137SOL    HW128880   3.526   5.431   2.010 -3.0512  2.9909 -0.8671
 6137SOL    HW228881   3.526   5.428   2.173 -2.1057 -0.5399 -0.8777
 6138SOL     OW28882   9.497   3.617   0.573 -0.0026 -0.3246  0.4540
 6138SOL    HW128883   9.478   3.645   0.479  0.4887 -0.7904  0.2174
 6138SOL    HW228884   9.417   3.569   0.610  0.5286 -1.9051 -0.4054
 6139SOL     OW28885   0.225   3.535   0.112  0.0662 -0.3014 -0.2052
 6139SOL    HW128886   0.143   3.496   0.071 -0.0802  1.4912 -1.6559
 6139SOL    HW228887   0.306   3.504   0.061  0.1613 -0.6702  0.1620
 6140SOL     OW28888   5.165   7.132   2.038  0.0891  0.2286 -0.2492
 6140SOL    HW128889   5.067   7.151   2.048 -0.1074 -1.6028  1.5892
 6140SOL    HW228890   5.216   7.196   2.095 -0.1692 -0.3025  0.5805
 6141SOL     OW28891   8.718   9.206   3.861  0.2876  0.2016 -0.4242
 6141SOL    HW128892   8.637   9.160   3.897 -0.2266  0.3408 -1.3833
 6141SOL    HW228893   8.748   9.275   3.926 -1.4400  1.3906 -0.8483
 6142SOL     OW28894   8.368   7.622   0.563  0.1871 -0.7538 -0.0743
 6142SOL    HW128895   8.287   7.596   0.617 -0.8196  2.8181  0.2225
 6142SOL    HW228896   8.448   7.624   0.623  0.2774 -2.9638 -0.0806
 6143SOL     OW28897   7.937   9.569   1.939 -0.5685  0.5466  0.2618
 6143SOL    HW128898   7.949   9.637   2.011 -0.9789 -1.0157  1.8411
 6143SOL    HW228899   7.974   9.604   1.853  0.1852  2.3261  1.2947
 6144SOL     OW28900   6.562   7.414   2.394  0.7195 -0.5799 -0.6133
 6144SOL    HW128901   6.608   7.503   2.395  2.2291 -1.3200 -1.5478
 6144SOL    HW228902   6.556   7.381   2.300 -0.4676 -1.1488 -0.3416
 6145SOL     OW28903   2.867   6.180   2.561 -0.2831 -1.1364  0.1064
 6145SOL    HW128904   2.855   6.277   2.580  1.8260 -0.6324 -0.9369
 6145SOL    HW228905   2.779   6.138   2.542 -1.2574  0.4967  0.9275
 6146SOL     OW28906   9.807   9.810   3.859  0.1438  0.0326 -0.4191
 6146SOL    HW128907   9.779   9.906   3.851 -1.5452 -0.4466 -0.4173
 6146SOL    HW228908   9.829   9.789   3.954  2.3356  0.8991 -0.7142
 6147SOL     OW28909   1.340   9.776   3.424 -0.9214  0.1874 -0.2617
 6147SOL    HW128910   1.277   9.834   3.476  0.6595  1.1191  0.7022
 6147SOL    HW228911   1.383   9.831   3.352 -0.3598 -0.1166 -0.1616
 6148SOL     OW28912   4.215   7.876   2.984 -0.2490 -0.1043 -0.5533
 6148SOL    HW128913   4.210   7.777   2.988  2.6554 -0.4475 -3.1378
 6148SOL    HW228914   4.289   7.909   3.043 -0.5655  0.4314 -0.4477
 6149SOL     OW28915   0.254   9.965   1.307  0.3699 -0.0396  0.2259
 6149SOL    HW128916   0.249  10.061   1.278  0.6401  0.0408  0.4345
 6149SOL    HW228917   0.300   9.911   1.236  1.9806  0.3481  0.9377
 6150SOL     OW28918   1.603   9.131   1.118 -0.0269  0.2432  0.1623
 6150SOL    HW128919   1.563   9.048   1.079 -0.6148 -0.4011  2.0950
 6150SOL    HW228920   1.591   9.207   1.054 -0.1956 -0.9670 -1.2780
 6151SOL     OW28921   0.697   7.973   1.674 -0.1099  0.0724  0.1151
 6151SOL    HW128922   0.658   7.951   1.763  0.5612 -1.3048  0.0797
 6151SOL    HW228923   0.763   7.903   1.648 -0.9496 -0.0329 -1.8621
 6152SOL     OW28924   1.777   4.340   0.914  0.1851  0.6160  0.5036
 6152SOL    HW128925   1.700   4.338   0.978 -1.0017 -0.8254 -0.9332
 6152SOL    HW228926   1.762   4.412   0.846 -0.6879 -0.6697 -0.6980
 6153SOL     OW28927   0.524   2.022   3.597  0.1515  0.3660 -1.0157
 6153SOL    HW128928   0.606   1.968   3.579 -0.0055 -0.7893  1.4808
 6153SOL    HW228929   0.458   2.009   3.523  1.2691 -0.6244 -1.8383
 6154SOL     OW28930   1.633   5.909   1.395 -0.0424 -0.7943  0.4626
 6154SOL    HW128931   1.575   5.983   1.361  0.9472 -0.0301  0.4053
 6154SOL    HW228932   1.690   5.875   1.320  0.8449 -0.3425  0.9311
 6155SOL     OW28933   0.116   7.643   1.375 -0.9060 -0.0083 -0.4573
 6155SOL    HW128934   0.100   7.621   1.471 -2.6964 -0.4538 -0.8467
 6155SOL    HW228935   0.172   7.571   1.334 -2.2262 -1.1174 -0.3551
 6156SOL     OW28936   1.725   2.210   2.243 -0.1854 -0.0193  0.8019
 6156SOL    HW128937   1.793   2.169   2.183 -1.5755 -0.6067 -0.4045
 6156SOL    HW228938   1.704   2.147   2.318 -1.3765 -0.9899 -0.3338
 6157SOL     OW28939   0.630   2.610   0.820 -0.1594  0.1421  0.4332
 6157SOL    HW128940   0.602   2.530   0.767  1.5095 -0.0172 -0.2641
 6157SOL    HW228941   0.683   2.580   0.900 -2.8909  0.3657  2.3922
 6158SOL     OW28942   3.446   2.347   1.411 -0.2802  0.0439  0.2343
 6158SOL    HW128943   3.452   2.443   1.383 -0.5560 -0.0626 -0.1974
 6158SOL    HW228944   3.398   2.295   1.341 -1.9781 -0.0311  1.4390
 6159SOL     OW28945   8.241   5.862   3.321 -0.4174 -0.5712  0.1066
 6159SOL    HW128946   8.204   5.770   3.310 -1.5795 -0.3450  1.8796
 6159SOL    HW228947   8.183   5.914   3.384  0.7614  1.0639 -0.1219
 6160SOL     OW28948   8.304   7.636   3.056 -0.7986  0.0260 -0.2159
 6160SOL    HW128949   8.371   7.695   3.100 -0.7205  0.6381 -1.1330
 6160SOL    HW228950   8.314   7.542   3.090 -0.7152  0.4761  1.0105
 6161SOL     OW28951   1.657   6.528   1.153 -0.1623  0.1885  0.3058
 6161SOL    HW128952   1.663   6.573   1.242 -1.2796 -1.7345  1.3673
 6161SOL    HW228953   1.583   6.571   1.100 -0.8793 -0.0364  1.1088
 6162SOL     OW28954   9.657   9.079   3.024 -0.0070  0.5830  0.1066
 6162SOL    HW128955   9.671   9.071   3.123  0.0992  0.2588  0.0659
 6162SOL    HW228956   9.616   8.995   2.989  0.3161  0.5470 -0.1873
 6163SOL     OW28957   8.269   8.061   3.132  0.2471 -0.1407 -0.1712
 6163SOL    HW128958   8.222   8.046   3.045  0.5714  1.2580 -0.6172
 6163SOL    HW228959   8.208   8.109   3.195 -0.2786 -1.9166  0.6922
 6164SOL     OW28960   1.274   6.663   2.209 -0.1350 -0.1707 -0.3386
 6164SOL    HW128961   1.291   6.592   2.140 -4.4011 -0.8462 -0.8431
 6164SOL    HW228962   1.302   6.752   2.173  0.2416 -0.8748 -1.8402
 6165SOL     OW28963   9.047   9.008   2.032  0.5084 -0.5518 -0.4956
 6165SOL    HW128964   8.967   8.961   1.994  1.6405 -2.3320 -0.7152
 6165SOL    HW228965   9.056   8.984   2.129 -1.0442  2.1696  0.3643
 6166SOL     OW28966   2.182   0.339   2.795  0.1770 -0.4263 -0.5293
 6166SOL    HW128967   2.173   0.416   2.732 -0.8393 -1.3482 -1.5446
 6166SOL    HW228968   2.274   0.339   2.835  0.4469  0.8418 -1.1121
 6167SOL     OW28969   8.871   7.909   1.911 -0.4032 -0.2445 -0.2753
 6167SOL    HW128970   8.795   7.936   1.969 -0.2650  0.8000 -0.5606
 6167SOL    HW228971   8.868   7.962   1.826  0.6279 -0.1908 -0.2881
 6168SOL     OW28972   2.132   3.915   0.075 -0.9611  0.3639 -0.1039
 6168SOL    HW128973   2.212   3.865   0.040 -1.5354 -1.2857  0.8527
 6168SOL    HW228974   2.049   3.866   0.049 -1.5907  1.3223  0.0977
 6169SOL     OW28975   1.991   9.855   2.744  0.7666  0.4334  0.0768
 6169SOL    HW128976   2.004   9.858   2.843  2.2479  0.8387 -0.1186
 6169SOL    HW228977   2.061   9.910   2.700  0.0406  0.3428 -1.2004
 6170SOL     OW28978   1.733   6.271   2.425 -0.4704  0.2706 -1.0632
 6170SOL    HW128979   1.807   6.327   2.463  0.2066 -1.3120  0.0337
 6170SOL    HW228980   1.711   6.303   2.333  0.7365  1.5431 -0.9404
 6171SOL     OW28981   9.433   1.147   0.196  0.1809  0.1728 -0.4726
 6171SOL    HW128982   9.499   1.175   0.266 -0.5108 -0.7617  0.5745
 6171SOL    HW228983   9.477   1.083   0.132 -0.0256 -1.4063  0.9366
 6172SOL     OW28984   4.523   8.450   1.396 -0.1222  0.1605 -0.3948
 6172SOL    HW128985   4.520   8.418   1.301 -1.2337 -0.7072 -0.0754
 6172SOL    HW228986   4.597   8.517   1.406  0.8156 -0.6705 -1.5833
 6173SOL     OW28987   9.612   8.948   1.583 -0.1159  0.4019  0.0370
 6173SOL    HW128988   9.551   9.026   1.599  1.2927  1.8515 -1.4166
 6173SOL    HW228989   9.585   8.903   1.498 -0.1837  0.0355  0.2543
 6174SOL     OW28990   0.549   9.118   1.118  0.4694  0.0910  0.2057
 6174SOL    HW128991   0.530   9.026   1.084  1.1913 -0.9118  2.4381
 6174SOL    HW228992   0.590   9.173   1.045  2.2479 -2.0796 -0.4691
 6175SOL     OW28993   8.702   2.758   2.555 -0.9226  0.3870  0.6042
 6175SOL    HW128994   8.704   2.825   2.630  1.9986 -0.7783  1.6331
 6175SOL    HW228995   8.725   2.804   2.469 -0.8960  1.0769  0.9747
 6176SOL     OW28996   1.350   0.933   0.386  0.2960 -0.0895 -0.3843
 6176SOL    HW128997   1.341   1.023   0.428 -1.3123 -0.4820  0.1587
 6176SOL    HW228998   1.332   0.939   0.288  1.5512  0.3995 -0.5938
 6177SOL     OW28999   3.345   0.945   1.841  0.1448  0.4799  0.1570
 6177SOL    HW129000   3.437   0.976   1.867  0.2424  1.0250 -0.7981
 6177SOL    HW229001   3.278   0.983   1.905  0.4397  1.3382 -0.0254
 6178SOL     OW29002   1.768   2.844   2.413  0.2298  0.2336  0.1695
 6178SOL    HW129003   1.720   2.916   2.464 -0.8201 -0.7017  0.5269
 6178SOL    HW229004   1.730   2.836   2.322  0.0963 -0.1208  0.2553
 6179SOL     OW29005   1.574   6.136   3.376 -0.3109  0.0152 -0.1196
 6179SOL    HW129006   1.656   6.090   3.409  0.5113  1.1727 -0.5188
 6179SOL    HW229007   1.519   6.165   3.455  0.1871  0.1744  0.1741
 6180SOL     OW29008   4.186   1.654   0.462 -0.6848 -0.0582 -0.2999
 6180SOL    HW129009   4.259   1.619   0.521 -1.0116  0.0188  0.1491
 6180SOL    HW229010   4.211   1.640   0.366 -0.0025  0.1155 -0.1492
 6181SOL     OW29011   8.192   2.532   1.820 -0.7894  0.1757  0.9154
 6181SOL    HW129012   8.128   2.468   1.779 -2.5643  2.5347 -0.1133
 6181SOL    HW229013   8.174   2.538   1.918 -0.9934 -0.4584  0.9198
 6182SOL     OW29014   3.515   0.412   2.104 -0.1380  0.6612  0.0503
 6182SOL    HW129015   3.545   0.432   2.011 -0.2324 -0.4993 -0.2392
 6182SOL    HW229016   3.442   0.343   2.101  0.6084 -0.1885  1.0385
 6183SOL     OW29017   6.669   9.140   1.864  0.0995 -0.0996 -0.3597
 6183SOL    HW129018   6.722   9.078   1.920 -2.0659 -0.9436  0.8081
 6183SOL    HW229019   6.658   9.227   1.911  2.0417  0.7693 -1.4420
 6184SOL     OW29020   2.772   3.600   3.443  0.3581  0.1166  0.4636
 6184SOL    HW129021   2.858   3.575   3.399 -0.2136 -1.0628  0.0100
 6184SOL    HW229022   2.792   3.654   3.525  1.5321 -0.2853  0.4589
 6185SOL     OW29023   1.969   8.161   2.979 -0.2822 -0.3821  0.1521
 6185SOL    HW129024   1.878   8.143   2.941 -0.1831 -1.2694  0.3067
 6185SOL    HW229025   1.996   8.255   2.961  0.4687 -1.2003 -3.5323
 6186SOL     OW29026   8.617   1.952   0.822  0.1262  0.3906 -0.4931
 6186SOL    HW129027   8.581   1.885   0.887 -0.2691  1.5392  0.5127
 6186SOL    HW229028   8.620   1.912   0.731  1.5808 -1.5737  0.3829
 6187SOL     OW29029   8.091   1.937   1.102 -0.0414 -0.0725 -0.3925
 6187SOL    HW129030   8.117   1.885   1.021 -1.5901  0.7103 -1.4230
 6187SOL    HW229031   8.147   2.020   1.108  0.1750 -0.2028 -0.5876
 6188SOL     OW29032   5.187   7.798   1.342 -0.0363 -0.1360 -0.2075
 6188SOL    HW129033   5.102   7.849   1.337  0.0875 -0.1430 -3.2833
 6188SOL    HW229034   5.261   7.858   1.372 -0.1147  1.2196 -2.6724
 6189SOL     OW29035   7.938   5.549   2.161 -0.1321 -0.1831  1.1118
 6189SOL    HW129036   7.839   5.549   2.168 -0.2741  1.2897 -0.4205
 6189SOL    HW229037   7.976   5.613   2.228 -0.3537  0.7365  0.3710
 6190SOL     OW29038   0.702   8.587   1.591  0.6853  0.3344  0.3011
 6190SOL    HW129039   0.681   8.497   1.627  0.4611  0.1140 -0.3838
 6190SOL    HW229040   0.742   8.579   1.500 -0.7116  1.0084 -0.3762
 6191SOL     OW29041   3.422   0.601   1.019  0.2708 -0.4824  0.1752
 6191SOL    HW129042   3.393   0.519   0.972  0.5359 -0.2601 -0.3835
 6191SOL    HW229043   3.374   0.680   0.982  0.9963 -0.2163 -0.2147
 6192SOL     OW29044   1.945   4.983   1.917 -0.0772 -0.1370  0.0810
 6192SOL    HW129045   1.967   4.942   1.829 -3.0797  0.0832 -0.8278
 6192SOL    HW229046   1.902   4.915   1.977  2.0744 -0.3265  1.4736
 6193SOL     OW29047   2.298   0.563   1.116  0.1919  0.4720  0.4557
 6193SOL    HW129048   2.394   0.579   1.096  0.5822  0.3017  2.1238
 6193SOL    HW229049   2.258   0.646   1.155 -0.3181  0.5163 -0.1592
 6194SOL     OW29050   9.414   1.647   2.389 -0.0114 -0.0371 -0.5581
 6194SOL    HW129051   9.454   1.581   2.452  0.7732  0.6781 -0.2865
 6194SOL    HW229052   9.336   1.692   2.433  1.0244  1.0305  0.2137
 6195SOL     OW29053   3.420   4.187   3.824 -0.1633 -0.7607  0.1812
 6195SOL    HW129054   3.349   4.187   3.754  0.3764  1.4769 -0.4293
 6195SOL    HW229055   3.499   4.135   3.792  0.4450  1.0193 -1.3113
 6196SOL     OW29056   8.929   0.562   2.821  1.2085  0.6115  0.1720
 6196SOL    HW129057   8.956   0.567   2.725 -1.6388  0.6271 -0.7010
 6196SOL    HW229058   8.912   0.655   2.856 -0.0982  0.4846 -0.0753
 6197SOL     OW29059   2.028   2.086   0.033 -0.1447 -0.3595 -0.1245
 6197SOL    HW129060   2.029   2.005   0.092  1.0414 -0.8251 -0.7578
 6197SOL    HW229061   2.115   2.135   0.042  0.5381 -1.0830 -2.3231
 6198SOL     OW29062   1.192   6.235   3.657 -0.5107  0.6833 -0.5656
 6198SOL    HW129063   1.170   6.146   3.616 -0.4014  0.2830  0.2463
 6198SOL    HW229064   1.126   6.257   3.728 -1.4951  2.0045 -1.8481
 6199SOL     OW29065   9.559   8.512   4.046 -0.0176  0.5142  0.3460
 6199SOL    HW129066   9.596   8.475   4.131 -0.7324  0.4118  0.6187
 6199SOL    HW229067   9.627   8.505   3.973  0.0832 -0.7650  0.5513
 6200SOL     OW29068   3.898   0.647   0.628 -0.3682  0.1524  0.1694
 6200SOL    HW129069   3.904   0.560   0.677  0.2825  0.6291  0.9422
 6200SOL    HW229070   3.848   0.713   0.684 -1.9071 -0.0642 -0.9205
 6201SOL     OW29071   8.711   9.675   1.957  0.0716 -0.1763  0.7593
 6201SOL    HW129072   8.746   9.644   2.046 -0.2712  0.3025  1.0642
 6201SOL    HW229073   8.628   9.729   1.971  0.5871  0.7662  0.2308
 6202SOL     OW29074   0.609   0.032   0.426  0.4070 -0.1938 -0.1902
 6202SOL    HW129075   0.616   0.103   0.495 -1.3880 -0.2713  0.0812
 6202SOL    HW229076   0.677  -0.039   0.444 -1.0671 -1.0024  2.4278
 6203SOL     OW29077   1.875   9.168   1.211  0.0204  0.3738  0.4056
 6203SOL    HW129078   1.778   9.170   1.189 -0.0120 -0.8163  0.4159
 6203SOL    HW229079   1.914   9.080   1.184  1.1575  0.9371  0.1578
 6204SOL     OW29080   3.535   8.440   1.787  0.1245  0.3083  0.1842
 6204SOL    HW129081   3.472   8.390   1.846  1.1542  1.6904  2.5221
 6204SOL    HW229082   3.521   8.538   1.798  0.2587  0.6111 -2.0060
 6205SOL     OW29083   4.347   0.498   2.722 -0.2957 -0.1756 -0.7421
 6205SOL    HW129084   4.349   0.598   2.716 -1.6684 -0.0442  0.6842
 6205SOL    HW229085   4.329   0.459   2.632 -1.0080  0.9100 -1.0765
 6206SOL     OW29086   9.081   8.022   1.435  0.1925 -0.4723 -0.0262
 6206SOL    HW129087   9.056   7.967   1.356 -0.4227 -0.0887 -0.0983
 6206SOL    HW229088   9.145   8.094   1.407  0.1731 -0.4941 -0.1247
 6207SOL     OW29089   1.422   5.910   0.626  0.6377 -0.0446  0.9743
 6207SOL    HW129090   1.343   5.913   0.687  0.1118 -1.3042  0.3913
 6207SOL    HW229091   1.394   5.941   0.535  1.2213  1.0729  1.1747
 6208SOL     OW29092   9.965   4.134   2.288 -0.4709 -0.1153  0.2804
 6208SOL    HW129093   9.968   4.060   2.354 -1.8785 -0.0951  0.3743
 6208SOL    HW229094   9.877   4.134   2.240 -0.3720  1.2920  0.0554
 6209SOL     OW29095   4.689   3.205   0.286  0.4027  0.4617  0.1121
 6209SOL    HW129096   4.695   3.131   0.218 -1.4984 -0.3029  0.7520
 6209SOL    HW229097   4.780   3.220   0.326  1.3317  0.2052 -1.8208
 6210SOL     OW29098   2.971   4.245   3.344 -0.3557 -0.1733  0.1186
 6210SOL    HW129099   3.058   4.200   3.365 -0.3172 -0.6294 -0.9535
 6210SOL    HW229100   2.920   4.260   3.428  0.5338 -0.3766  0.7071
 6211SOL     OW29101   9.069   0.643   3.621 -0.3068 -0.0292  0.0246
 6211SOL    HW129102   8.978   0.607   3.641 -0.2730  0.2619  0.7135
 6211SOL    HW229103   9.106   0.597   3.540 -0.9734 -0.3032 -0.1311
 6212SOL     OW29104   0.085   6.996   3.457  0.0132  0.5145 -0.0581
 6212SOL    HW129105   0.001   6.942   3.460  0.7682 -0.5990  1.4531
 6212SOL    HW229106   0.069   7.079   3.403 -1.5474 -0.5236 -1.2259
 6213SOL     OW29107   0.583   9.464   3.383 -0.1234 -0.2538 -0.4870
 6213SOL    HW129108   0.499   9.430   3.340  0.2797  0.0269 -1.5006
 6213SOL    HW229109   0.609   9.403   3.457 -1.8370  0.2340  0.5621
 6214SOL     OW29110   2.511   3.156   0.416  0.2446  0.1137 -0.0906
 6214SOL    HW129111   2.548   3.154   0.323 -1.2518  0.4000 -0.7083
 6214SOL    HW229112   2.530   3.069   0.462  2.4934  0.5942 -0.0433
 6215SOL     OW29113   0.818   9.026   1.252  0.0340  0.4024 -0.8000
 6215SOL    HW129114   0.729   8.993   1.284  0.7400 -1.4179 -0.6743
 6215SOL    HW229115   0.806   9.111   1.200 -1.4759  1.6570  1.5457
 6216SOL     OW29116   3.458   6.131   2.158 -0.9386 -0.0425 -0.2834
 6216SOL    HW129117   3.510   6.062   2.209 -0.2535  0.2029 -0.6408
 6216SOL    HW229118   3.482   6.222   2.192 -0.8854  0.0911 -0.6727
 6217SOL     OW29119   1.922   5.644   1.309 -0.2574  0.3496 -0.1542
 6217SOL    HW129120   1.873   5.707   1.249 -1.7506  0.1752  0.8683
 6217SOL    HW229121   1.977   5.582   1.254 -2.1023 -0.2216 -1.3853
 6218SOL     OW29122   3.971   7.076   2.134 -0.3750 -0.0728  0.3376
 6218SOL    HW129123   4.027   6.998   2.108  0.4178  0.0810  1.5741
 6218SOL    HW229124   3.880   7.066   2.094  0.0022 -1.1711 -0.2608
 6219SOL     OW29125   5.072   0.611   3.265 -0.2887  0.4143 -0.6295
 6219SOL    HW129126   5.061   0.659   3.352 -2.9641 -2.2242  0.5523
 6219SOL    HW229127   5.170   0.609   3.241  0.3291  2.4950  1.4968
 6220SOL     OW29128   2.822   9.091   0.922  0.4347 -0.4366  0.2361
 6220SOL    HW129129   2.748   9.055   0.865  1.8271 -0.5428 -1.5598
 6220SOL    HW229130   2.872   9.015   0.964 -0.1278 -0.3858  1.0005
 6221SOL     OW29131   2.004   3.016   1.568 -0.1169 -0.0843  0.1963
 6221SOL    HW129132   2.058   2.931   1.570  0.8575  0.5349  0.3872
 6221SOL    HW229133   2.066   3.095   1.568 -1.0362  0.6404  0.8834
 6222SOL     OW29134   4.870   8.187   2.321  0.0967 -0.4210  0.3805
 6222SOL    HW129135   4.934   8.166   2.394 -2.3390  1.4191  3.1382
 6222SOL    HW229136   4.890   8.277   2.283  0.5996 -0.8607 -0.4204
 6223SOL     OW29137   7.724   8.825   1.151 -0.2166 -0.5439 -0.2545
 6223SOL    HW129138   7.671   8.844   1.234  0.4315 -1.2438  0.3256
 6223SOL    HW229139   7.669   8.768   1.090 -0.3618 -0.7759  0.0890
 6224SOL     OW29140   0.651   6.213   2.397 -0.2298 -0.1715 -0.6738
 6224SOL    HW129141   0.661   6.296   2.343 -0.0530  0.1876 -0.1007
 6224SOL    HW229142   0.729   6.152   2.380 -0.5887 -0.4159 -1.4313
 6225SOL     OW29143   0.596   4.315   0.019  0.0699  0.0982 -0.0383
 6225SOL    HW129144   0.568   4.285  -0.072  0.6172 -0.0550 -0.1604
 6225SOL    HW229145   0.695   4.304   0.028 -0.2992 -2.1821  1.4217
 6226SOL     OW29146   3.241   5.583   1.797  0.2997 -0.0319 -0.0264
 6226SOL    HW129147   3.182   5.593   1.717  0.1412 -2.0532 -0.2009
 6226SOL    HW229148   3.271   5.673   1.829 -2.0107  0.9653 -0.5817
 6227SOL     OW29149   1.705   5.529   1.453  0.2512  0.4382  0.3177
 6227SOL    HW129150   1.776   5.569   1.396  1.0518  0.8817  1.6130
 6227SOL    HW229151   1.616   5.566   1.427  0.4048 -0.5109 -1.6642
 6228SOL     OW29152   1.665   3.247   3.354 -0.3027  1.0118  0.2162
 6228SOL    HW129153   1.733   3.304   3.309 -0.0129 -0.2056 -0.9253
 6228SOL    HW229154   1.668   3.263   3.453 -0.3765  3.0936 -0.1023
 6229SOL     OW29155   7.353   8.203   2.385  0.1369  0.3824  0.2924
 6229SOL    HW129156   7.308   8.292   2.394 -0.3276  0.2501 -0.6878
 6229SOL    HW229157   7.295   8.141   2.332  0.5589 -0.4353  0.7764
 6230SOL     OW29158   4.360   1.990   1.783  0.0244 -0.0777 -0.3533
 6230SOL    HW129159   4.426   1.944   1.725 -1.8845  0.1033 -2.7315
 6230SOL    HW229160   4.340   1.933   1.863  2.2434 -0.5826 -0.1379
 6231SOL     OW29161   3.257   0.675   2.828 -0.3788 -0.1732  0.6692
 6231SOL    HW129162   3.302   0.752   2.784 -0.2826 -0.9489 -0.6314
 6231SOL    HW229163   3.158   0.682   2.817 -0.3864 -0.0989  0.7831
 6232SOL     OW29164   9.969   7.575   0.609 -0.2063 -0.4453 -0.1449
 6232SOL    HW129165   9.967   7.528   0.521  2.9074  1.2674 -1.1934
 6232SOL    HW229166  10.046   7.541   0.663 -0.7847  0.0880  1.0225
 6233SOL     OW29167   8.977   4.019   3.785  0.2995 -0.0834 -0.5567
 6233SOL    HW129168   9.076   4.008   3.795  0.2325  0.7271  1.3032
 6233SOL    HW229169   8.930   3.952   3.842 -0.2077  0.1152 -0.7368
 6234SOL     OW29170   0.552   1.067   0.563 -0.3444 -0.3108 -0.5124
 6234SOL    HW129171   0.539   1.044   0.659  0.3419  0.3967 -0.2490
 6234SOL    HW229172   0.466   1.098   0.524 -0.2873  0.8673  0.2727
 6235SOL     OW29173   2.719   7.921   1.675 -0.0819  0.2142  0.2232
 6235SOL    HW129174   2.720   7.924   1.775  0.0777  0.5532  0.2109
 6235SOL    HW229175   2.634   7.878   1.644 -0.4428  0.7315  0.4858
 6236SOL     OW29176   2.613   2.924   0.778 -0.3256 -0.5466 -0.0807
 6236SOL    HW129177   2.630   2.859   0.851 -0.2987 -1.4863 -0.9054
 6236SOL    HW229178   2.671   2.902   0.699 -1.6476 -0.6682 -1.0463
 6237SOL     OW29179   7.783   0.095   3.095  0.3001 -0.1426  0.0817
 6237SOL    HW129180   7.771   0.170   3.031  0.4422  0.1157  0.3581
 6237SOL    HW229181   7.795   0.131   3.188  0.4421 -0.5017  0.2052
 6238SOL     OW29182   4.640   1.489   0.850 -0.4690  0.2074 -0.0871
 6238SOL    HW129183   4.614   1.424   0.779  3.9561 -1.6098 -0.1735
 6238SOL    HW229184   4.611   1.454   0.939 -3.1979  0.9626 -0.6330
 6239SOL     OW29185   8.410   1.653   3.278  0.4043 -0.0430 -0.5789
 6239SOL    HW129186   8.351   1.695   3.347  0.5075  1.8827 -1.6256
 6239SOL    HW229187   8.445   1.724   3.216  1.3066 -1.5716 -1.8630
 6240SOL     OW29188   3.389   8.638   3.872  0.6355 -0.2952  0.0303
 6240SOL    HW129189   3.406   8.644   3.971  1.3027  1.0523 -0.1567
 6240SOL    HW229190   3.303   8.684   3.850  0.6896 -0.2477 -0.0767
 6241SOL     OW29191   0.301   6.123   1.470  0.0709  0.1594 -0.8655
 6241SOL    HW129192   0.333   6.105   1.563  0.1366  0.5493 -0.8135
 6241SOL    HW229193   0.347   6.062   1.406 -0.6042 -0.7080 -0.5382
 6242SOL     OW29194   5.756   9.280   1.860  0.4175  0.1746 -0.8583
 6242SOL    HW129195   5.846   9.313   1.889  0.2346  0.0055 -0.0882
 6242SOL    HW229196   5.759   9.181   1.845  0.1288  0.0204  0.0771
 6243SOL     OW29197   0.435   7.679   1.635 -0.1320  0.3932 -0.6018
 6243SOL    HW129198   0.454   7.773   1.606  2.4457  0.0365 -0.1156
 6243SOL    HW229199   0.363   7.680   1.704 -2.0386  1.7553 -2.5365
 6244SOL     OW29200   0.374   8.289   2.555 -0.2126  0.2638  0.1216
 6244SOL    HW129201   0.388   8.358   2.626  3.2914 -1.6728  1.4196
 6244SOL    HW229202   0.332   8.208   2.595  0.2070 -0.1894 -0.3419
 6245SOL     OW29203   1.403   3.520   2.576  0.3641 -0.5774  0.6970
 6245SOL    HW129204   1.501   3.499   2.574  0.1267 -1.6390  0.1164
 6245SOL    HW229205   1.358   3.476   2.498 -0.6285 -0.3382  1.1326
 6246SOL     OW29206   3.136   2.576   3.774 -0.6438 -0.0392  0.2955
 6246SOL    HW129207   3.048   2.585   3.820 -0.2249  1.7555  0.7691
 6246SOL    HW229208   3.120   2.565   3.675 -1.4603 -2.1270  0.6221
 6247SOL     OW29209   3.272   3.956   3.351 -0.2631 -0.2901  0.1635
 6247SOL    HW129210   3.370   3.966   3.334 -0.4726 -0.6838 -1.3689
 6247SOL    HW229211   3.229   3.915   3.271 -1.7891  0.5114  0.5608
 6248SOL     OW29212   8.086   6.277   3.438  0.1673 -0.1191 -0.3439
 6248SOL    HW129213   8.119   6.205   3.499  0.8042 -1.2847 -2.0454
 6248SOL    HW229214   8.116   6.366   3.473  0.1419 -0.7361  1.2741
 6249SOL     OW29215   0.390   5.965   0.703  0.6241  0.3987 -0.4367
 6249SOL    HW129216   0.485   5.935   0.703  0.1568 -1.1177 -1.7525
 6249SOL    HW229217   0.373   6.022   0.622  0.4605  0.8858 -0.0659
 6250SOL     OW29218   7.133   9.914   2.826  0.3470  0.2616  0.1774
 6250SOL    HW129219   7.037   9.896   2.845  0.2307 -0.2337 -0.8671
 6250SOL    HW229220   7.174   9.833   2.783  1.0885  0.6689  0.1087
 6251SOL     OW29221   8.479   0.750   3.559  0.5068  0.0723 -0.0522
 6251SOL    HW129222   8.450   0.796   3.475 -0.6592 -0.2986  0.1350
 6251SOL    HW229223   8.569   0.783   3.586  0.3243  1.1618 -0.7365
 6252SOL     OW29224   8.776   2.285   0.568 -0.5037 -0.4597  0.0625
 6252SOL    HW129225   8.843   2.326   0.630 -2.9625 -0.5587  2.9001
 6252SOL    HW229226   8.802   2.190   0.549  0.0241 -0.6005  1.4073
 6253SOL     OW29227   8.959   6.487   1.356  0.2681  0.4420 -0.0750
 6253SOL    HW129228   8.865   6.481   1.321 -0.0033  1.3575  0.4737
 6253SOL    HW229229   9.014   6.415   1.315 -1.0604 -1.0974  0.7743
 6254SOL     OW29230   0.414   4.794   4.044 -0.6440 -0.0106 -1.1653
 6254SOL    HW129231   0.439   4.885   4.011  1.5722 -0.7398 -1.5640
 6254SOL    HW229232   0.496   4.738   4.053 -1.5828 -0.9932  2.1436
 6255SOL     OW29233   8.681   1.753   0.213  0.4068 -0.4629  0.1531
 6255SOL    HW129234   8.694   1.663   0.170 -1.0999 -0.7711  0.2977
 6255SOL    HW229235   8.586   1.761   0.244  0.1200  1.7794 -1.2060
 6256SOL     OW29236   8.606   7.620   0.710 -0.5792  0.3493  0.1080
 6256SOL    HW129237   8.670   7.572   0.770  0.7464  0.4798 -1.1593
 6256SOL    HW229238   8.657   7.683   0.652 -1.9365  0.8499 -0.5469
 6257SOL     OW29239   9.666   0.702   1.306 -0.2966 -0.0111  0.1077
 6257SOL    HW129240   9.603   0.743   1.373  1.3130  0.3609  1.4251
 6257SOL    HW229241   9.739   0.767   1.285  1.5410 -1.6596  1.1883
 6258SOL     OW29242   9.142   9.511   2.175  0.2740 -0.4167 -0.1815
 6258SOL    HW129243   9.239   9.515   2.196  0.3976  2.2080 -1.0355
 6258SOL    HW229244   9.111   9.416   2.179  3.1263 -1.4441 -1.0852
 6259SOL     OW29245   5.243   0.271   2.403  0.3637 -0.0462  0.1411
 6259SOL    HW129246   5.315   0.213   2.364 -0.3309  0.2563 -1.6298
 6259SOL    HW229247   5.282   0.358   2.431  0.7405  0.0249 -0.5875
 6260SOL     OW29248   1.256   2.176   1.410  0.0152  0.0378 -0.1754
 6260SOL    HW129249   1.157   2.170   1.406  0.0780 -0.8569 -0.4160
 6260SOL    HW229250   1.294   2.169   1.318  0.2993  0.4544 -0.0929
 6261SOL     OW29251   8.918   4.665   1.175 -0.2963 -0.1044 -0.0651
 6261SOL    HW129252   9.012   4.677   1.206 -0.7889 -0.5817  1.6624
 6261SOL    HW229253   8.877   4.755   1.159  0.2702  0.1207 -0.2970
 6262SOL     OW29254   2.818   9.517   1.891 -0.4508 -0.1591 -0.1502
 6262SOL    HW129255   2.726   9.553   1.909 -1.2702 -1.4135 -1.6828
 6262SOL    HW229256   2.810   9.426   1.849  1.5153 -0.8139  0.8299
 6263SOL     OW29257   5.792   7.611   2.387 -0.0903  0.6161 -0.2837
 6263SOL    HW129258   5.695   7.632   2.381 -0.4250  0.0095  2.2464
 6263SOL    HW229259   5.805   7.512   2.380  0.0342  0.4326  2.1616
 6264SOL     OW29260   1.857   5.288   0.811 -0.5402  0.1687  0.3137
 6264SOL    HW129261   1.890   5.195   0.795 -1.9022 -0.5690  1.6546
 6264SOL    HW229262   1.793   5.287   0.888  1.9053  2.7360  2.4873
 6265SOL     OW29263   1.751   8.021   1.210  0.3050  0.0335 -0.4385
 6265SOL    HW129264   1.791   8.106   1.174 -0.3781  1.0267  1.1033
 6265SOL    HW229265   1.715   7.967   1.134  0.5306  1.2326 -1.4241
 6266SOL     OW29266   2.206   0.316   0.622 -0.2405  0.1959  0.4603
 6266SOL    HW129267   2.208   0.340   0.720 -0.9711 -1.7738  0.9802
 6266SOL    HW229268   2.248   0.390   0.569 -1.6950  2.2710  2.0653
 6267SOL     OW29269   0.201   4.105   0.939 -0.3982  0.8444 -0.0620
 6267SOL    HW129270   0.285   4.099   0.886 -0.8345 -1.1297 -0.5642
 6267SOL    HW229271   0.125   4.128   0.878 -0.4847  1.0571  0.1257
 6268SOL     OW29272   9.905   1.233   1.290  0.3169  0.2797 -0.2350
 6268SOL    HW129273   9.951   1.276   1.213  1.7157  0.3782  0.6314
 6268SOL    HW229274   9.815   1.274   1.303  0.3733  0.7669 -1.3530
 6269SOL     OW29275   8.323   4.827   2.481  0.4894  0.1540  0.3063
 6269SOL    HW129276   8.224   4.841   2.488  0.2135 -0.9571 -1.2805
 6269SOL    HW229277   8.367   4.914   2.456 -0.0460  0.6886  1.1701
 6270SOL     OW29278   8.261   7.664   2.465  0.0772  0.5088 -0.4242
 6270SOL    HW129279   8.228   7.756   2.482  0.2742  0.3272  0.9660
 6270SOL    HW229280   8.200   7.597   2.508  1.6106  0.1285  1.2195
 6271SOL     OW29281   0.842   1.491   2.288 -0.5437 -0.1535 -0.3417
 6271SOL    HW129282   0.839   1.451   2.196 -1.0197  0.2788 -0.5125
 6271SOL    HW229283   0.831   1.590   2.282 -0.1768 -0.0804  0.1513
 6272SOL     OW29284   8.213   2.482   0.456  0.3091 -0.1279 -0.4013
 6272SOL    HW129285   8.198   2.521   0.365  1.1748 -1.9130 -1.3297
 6272SOL    HW229286   8.301   2.434   0.458  0.0579 -0.5616  1.2211
 6273SOL     OW29287   8.957   3.875   1.231 -0.2422 -0.1569  0.4824
 6273SOL    HW129288   9.031   3.941   1.220 -1.4817  1.2247  0.3165
 6273SOL    HW229289   8.976   3.793   1.176  0.8929  0.3961  0.0435
 6274SOL     OW29290   4.024   1.179   2.551  0.2131 -0.1728 -0.2602
 6274SOL    HW129291   4.022   1.111   2.477  1.2124  0.1113 -0.5418
 6274SOL    HW229292   4.053   1.135   2.636  0.3181 -0.2112 -0.3167
 6275SOL     OW29293   0.277   9.499   0.510 -0.0455  0.2218 -0.2501
 6275SOL    HW129294   0.373   9.485   0.486 -0.4161 -0.9427 -1.0628
 6275SOL    HW229295   0.253   9.595   0.495  0.3394  0.0024 -2.3464
 6276SOL     OW29296   7.771   0.321   2.903  0.2320  0.1393 -0.2465
 6276SOL    HW129297   7.767   0.409   2.855  0.3264 -0.2413 -0.9504
 6276SOL    HW229298   7.679   0.288   2.922  0.1885 -0.0612 -0.8068
 6277SOL     OW29299   7.494   8.569   2.941  0.6473 -0.4387 -0.0588
 6277SOL    HW129300   7.483   8.575   2.841  5.5140 -0.9340 -0.7091
 6277SOL    HW229301   7.490   8.473   2.969 -1.5434 -0.2435  0.3837
 6278SOL     OW29302   9.680   3.667   3.463  0.4158  0.0010  0.0711
 6278SOL    HW129303   9.746   3.613   3.411 -0.7759 -0.7317 -0.6875
 6278SOL    HW229304   9.699   3.764   3.448  0.0729 -0.1979 -1.7712
 6279SOL     OW29305   3.317   4.594   2.733 -0.3301 -0.4893  0.7019
 6279SOL    HW129306   3.349   4.682   2.698 -1.3440 -0.4227 -0.0822
 6279SOL    HW229307   3.332   4.590   2.832 -0.4678  0.6494  0.7794
 6280SOL     OW29308   8.104   4.355   3.465  0.3649  0.0732  0.4240
 6280SOL    HW129309   8.171   4.429   3.480 -1.5148  1.7080  0.9997
 6280SOL    HW229310   8.012   4.394   3.461 -0.4831 -1.9811 -1.6481
 6281SOL     OW29311   2.572   4.281   1.489 -0.0349 -0.3221  0.3109
 6281SOL    HW129312   2.620   4.204   1.531  0.6903 -0.2859 -0.4509
 6281SOL    HW229313   2.559   4.263   1.392 -0.1171  0.3869  0.1887
 6282SOL     OW29314   0.772   4.917   2.007  1.2682  0.0457 -0.0522
 6282SOL    HW129315   0.674   4.903   2.017  1.4378 -0.8864  0.3042
 6282SOL    HW229316   0.796   4.914   1.910  1.3650 -2.7143  0.0025
 6283SOL     OW29317   2.713   4.011   2.281 -0.8735 -0.2799  0.1492
 6283SOL    HW129318   2.645   3.975   2.217 -0.5731 -0.0136 -0.3200
 6283SOL    HW229319   2.673   4.086   2.334  0.1171  2.3873 -2.6924
 6284SOL     OW29320   2.982   2.436   3.571  0.0606  0.3696 -0.0933
 6284SOL    HW129321   2.972   2.488   3.486  3.5662  1.8705  0.3430
 6284SOL    HW229322   3.032   2.351   3.552  0.9930  0.7860  0.5014
 6285SOL     OW29323   3.389   0.881   3.648  0.3758  0.0520  0.8284
 6285SOL    HW129324   3.458   0.822   3.605  1.4765  1.8243  0.1235
 6285SOL    HW229325   3.316   0.898   3.582  0.0329 -0.5451  1.0487
 6286SOL     OW29326   2.383   7.007   3.902  0.0570 -0.1702 -0.1283
 6286SOL    HW129327   2.301   7.060   3.923  0.6331  0.5960  0.2133
 6286SOL    HW229328   2.368   6.955   3.818 -0.7290  0.0623 -0.1392
 6287SOL     OW29329   8.376   6.777   2.183  0.3279 -0.6251 -0.4321
 6287SOL    HW129330   8.304   6.765   2.115 -1.2764  0.9441  0.9334
 6287SOL    HW229331   8.360   6.715   2.260  0.3715 -0.2145 -0.0881
 6288SOL     OW29332   1.662   7.090   2.731 -0.1335 -0.3334  0.9707
 6288SOL    HW129333   1.635   7.088   2.827  0.0000 -0.0653  1.0144
 6288SOL    HW229334   1.599   7.034   2.677 -0.5365 -0.0353  1.1292
 6289SOL     OW29335   1.715   6.672   1.926  0.0119  0.6535  0.1838
 6289SOL    HW129336   1.688   6.576   1.937  0.2043  0.5296 -0.3703
 6289SOL    HW229337   1.777   6.680   1.848 -0.9349  1.3969 -0.5125
 6290SOL     OW29338   4.234   0.344   1.568 -0.1355  0.3118  0.1379
 6290SOL    HW129339   4.310   0.364   1.506 -1.4083  2.6952 -0.7122
 6290SOL    HW229340   4.195   0.254   1.545  2.1493 -0.7526  0.3311
 6291SOL     OW29341   0.225   5.973   3.213 -0.2188 -0.5337 -0.5802
 6291SOL    HW129342   0.243   6.039   3.141  2.2903 -0.2547  0.2524
 6291SOL    HW229343   0.211   6.022   3.300  2.0043 -1.0728  0.1064
 6292SOL     OW29344   1.228   7.353   2.055  0.0445 -0.2613 -0.2118
 6292SOL    HW129345   1.229   7.278   2.120  1.4254  0.5115  0.6895
 6292SOL    HW229346   1.201   7.438   2.101  0.0445  0.0937 -0.8554
 6293SOL     OW29347   0.712   1.800   3.566 -0.0959 -0.4165 -0.5106
 6293SOL    HW129348   0.767   1.765   3.490 -1.6229  1.0685 -2.3484
 6293SOL    HW229349   0.773   1.824   3.642  1.8165  1.1017 -2.4585
 6294SOL     OW29350   2.159   6.002   1.749  0.3546  0.2215 -0.1948
 6294SOL    HW129351   2.218   6.067   1.701  1.6000 -0.9866 -0.3227
 6294SOL    HW229352   2.202   5.976   1.836  0.0457 -0.7123 -0.3183
 6295SOL     OW29353   9.759   0.834   0.019 -0.3745 -0.0825  0.1653
 6295SOL    HW129354   9.729   0.757  -0.036 -1.2461 -0.4675  1.1487
 6295SOL    HW229355   9.680   0.893   0.039  0.3143  1.1842 -0.7531
 6296SOL     OW29356   4.511   4.139   1.051  0.6755 -0.0038  0.4129
 6296SOL    HW129357   4.427   4.182   1.017  1.1704 -0.6363 -1.7023
 6296SOL    HW229358   4.589   4.196   1.026  1.1587 -1.0944 -0.5669
 6297SOL     OW29359   8.602   9.356   3.589 -0.5878  0.1520 -0.5199
 6297SOL    HW129360   8.651   9.275   3.558 -1.4497 -0.3965 -0.4837
 6297SOL    HW229361   8.518   9.328   3.636 -0.1596  1.0219  0.7857
 6298SOL     OW29362   5.606   9.058   3.149 -0.3265  0.1895 -0.2312
 6298SOL    HW129363   5.592   9.139   3.093 -1.5445  0.0367 -0.1716
 6298SOL    HW229364   5.517   9.024   3.181  0.2234 -0.7455  0.3360
 6299SOL     OW29365   5.393   7.597   2.808 -0.3860  0.4308  0.2400
 6299SOL    HW129366   5.473   7.538   2.811 -0.2497  0.4617 -1.9665
 6299SOL    HW229367   5.408   7.671   2.742 -1.0270  2.2475  2.0530
 6300SOL     OW29368   1.972   1.705   1.361  0.2045 -0.3936  0.0813
 6300SOL    HW129369   2.057   1.756   1.347  0.7395 -1.4086 -0.3879
 6300SOL    HW229370   1.910   1.760   1.416 -0.1569  1.7572 -2.3858
 6301SOL     OW29371   2.952   1.952   0.800  0.1392 -0.0942 -0.1965
 6301SOL    HW129372   2.891   1.894   0.853 -0.0080 -2.0283 -2.3916
 6301SOL    HW229373   2.898   2.020   0.750 -0.1067 -0.8745 -1.0055
 6302SOL     OW29374   9.443   3.904   1.012  0.4017  0.1755 -0.2324
 6302SOL    HW129375   9.508   3.895   1.088  0.4940  0.8619 -0.2263
 6302SOL    HW229376   9.379   3.827   1.013  0.7544 -0.1089  0.2094
 6303SOL     OW29377   2.132   3.762   0.476  0.3139 -0.5559  0.6820
 6303SOL    HW129378   2.200   3.825   0.513 -1.3430  1.5490  0.2207
 6303SOL    HW229379   2.066   3.738   0.548 -1.0299  0.9801 -0.0050
 6304SOL     OW29380   8.993   2.119   4.012 -0.1945  0.0258 -0.0920
 6304SOL    HW129381   8.947   2.085   4.094 -0.0985 -0.8088 -0.3794
 6304SOL    HW229382   9.036   2.207   4.032 -0.9550  0.2626  0.4922
 6305SOL     OW29383   4.800   8.665   0.547 -0.5857 -0.0933  0.2020
 6305SOL    HW129384   4.774   8.569   0.551 -1.6340  0.1893  0.3979
 6305SOL    HW229385   4.815   8.700   0.640  0.5269 -0.2545  0.0900
 6306SOL     OW29386   8.070   7.756   1.810 -0.5506  0.7180 -0.6681
 6306SOL    HW129387   8.105   7.669   1.774 -1.1486  0.6984 -1.1966
 6306SOL    HW229388   8.147   7.812   1.842  0.0273  0.9080 -2.3440
 6307SOL     OW29389   2.147   3.039   0.021 -0.3053  0.6411  0.1892
 6307SOL    HW129390   2.198   3.124   0.033 -0.1554  0.6725 -0.6167
 6307SOL    HW229391   2.067   3.040   0.080 -1.2293  2.0850 -1.0570
 6308SOL     OW29392   8.366   5.337   3.842 -0.0649 -0.2087 -0.0097
 6308SOL    HW129393   8.338   5.262   3.783  0.0784 -1.0596  0.9797
 6308SOL    HW229394   8.291   5.360   3.905  0.9154 -1.5559  1.7012
 6309SOL     OW29395   7.280   9.346   1.486  0.3045  0.0285  0.3256
 6309SOL    HW129396   7.308   9.442   1.479  2.2390 -0.5418 -0.1821
 6309SOL    HW229397   7.305   9.311   1.577  0.6309 -0.2920  0.1151
 6310SOL     OW29398   0.411   6.978   1.229  0.6390 -0.1748  0.3860
 6310SOL    HW129399   0.377   7.040   1.159 -2.5603 -0.4173  1.5996
 6310SOL    HW229400   0.481   7.023   1.284  0.6379  1.2193 -0.7461
 6311SOL     OW29401   9.545   5.600   2.414  0.5296  0.3196 -0.1184
 6311SOL    HW129402   9.543   5.501   2.405  0.3668  0.1683  1.4600
 6311SOL    HW229403   9.529   5.625   2.510 -0.3248  1.8950 -0.6579
 6312SOL     OW29404   9.906   3.188   1.167  0.0986  0.0451  0.7018
 6312SOL    HW129405   9.978   3.231   1.220 -0.7450  3.6500 -0.8453
 6312SOL    HW229406   9.889   3.243   1.084 -3.1271 -1.7018  0.1136
 6313SOL     OW29407   1.934   5.782   0.176  0.0282  0.2637  0.1151
 6313SOL    HW129408   1.992   5.729   0.238  0.4453  2.7330  1.9117
 6313SOL    HW229409   1.848   5.734   0.161  0.0565 -0.5327  2.3799
 6314SOL     OW29410   2.959   6.230   0.606  0.4869  0.7114 -0.0037
 6314SOL    HW129411   2.975   6.192   0.697 -1.9443 -1.8672 -0.5694
 6314SOL    HW229412   2.873   6.282   0.607  0.4424  0.6527 -0.8127
 6315SOL     OW29413   4.312   9.279   2.778 -0.1975  0.6568 -0.1935
 6315SOL    HW129414   4.332   9.358   2.719 -0.0131  0.7405 -0.0201
 6315SOL    HW229415   4.396   9.229   2.796 -0.1346  1.0259  0.5619
 6316SOL     OW29416   9.762   0.542   1.096 -0.1230 -0.2292 -0.2490
 6316SOL    HW129417   9.814   0.476   1.151 -0.1376  0.4140  0.5522
 6316SOL    HW229418   9.728   0.615   1.155 -1.4404 -0.3215 -0.8573
 6317SOL     OW29419   2.385   1.805   0.300 -0.6677 -0.1422  0.4261
 6317SOL    HW129420   2.442   1.731   0.337 -2.2275 -1.1919  0.7952
 6317SOL    HW229421   2.426   1.840   0.216  0.6032 -0.7672  0.7803
 6318SOL     OW29422   1.778   1.457   1.331 -0.2699  0.2640  0.5964
 6318SOL    HW129423   1.854   1.522   1.330 -0.4067  0.4954  2.7353
 6318SOL    HW229424   1.691   1.506   1.321 -0.2154  0.1081 -0.7220
 6319SOL     OW29425   8.577   7.274   3.489  0.0839 -0.3083 -0.2280
 6319SOL    HW129426   8.552   7.329   3.568  1.4119  1.6119 -1.0933
 6319SOL    HW229427   8.674   7.249   3.496 -0.0852 -1.0913 -0.6862
 6320SOL     OW29428   0.533   2.833   3.205 -0.0033 -0.0485  0.9428
 6320SOL    HW129429   0.563   2.739   3.223 -1.3003 -0.6421  0.1410
 6320SOL    HW229430   0.440   2.845   3.240  0.1110  0.9025  0.9233
 6321SOL     OW29431   0.542   4.924   3.364  0.3253 -0.0797  0.0293
 6321SOL    HW129432   0.530   4.952   3.459  1.8106  1.3723 -0.1871
 6321SOL    HW229433   0.471   4.858   3.339 -1.1880  0.9412  1.5674
 6322SOL     OW29434   0.597   7.418   1.432  0.2920  0.2624 -0.3558
 6322SOL    HW129435   0.643   7.365   1.502 -1.1543  0.7981  1.0255
 6322SOL    HW229436   0.510   7.452   1.467 -0.2925  0.8473 -2.2820
 6323SOL     OW29437   4.146   1.062   1.576  0.0545  0.1404 -0.1889
 6323SOL    HW129438   4.140   0.964   1.599  0.5187  0.6629  2.3689
 6323SOL    HW229439   4.122   1.115   1.657 -0.3164  2.1711 -1.6092
 6324SOL     OW29440   9.659   6.110   4.022 -0.8837  0.0352  0.2236
 6324SOL    HW129441   9.665   6.028   4.078 -0.1157 -0.0226  0.0627
 6324SOL    HW229442   9.695   6.188   4.073 -0.4663  0.0387 -0.0734
 6325SOL     OW29443   8.890   3.300   0.009 -0.6813 -0.2930 -1.0539
 6325SOL    HW129444   8.855   3.394   0.006 -1.4103 -0.5375 -0.4473
 6325SOL    HW229445   8.813   3.236   0.006 -0.2071 -0.8662 -1.1078
 6326SOL     OW29446   3.500   2.866   1.431 -0.5699  0.2772 -0.2154
 6326SOL    HW129447   3.513   2.785   1.374 -1.9585 -0.5536  0.5993
 6326SOL    HW229448   3.473   2.837   1.524  1.5019  1.6110  0.8220
 6327SOL     OW29449   9.771   2.349   3.107  0.1766  0.1837 -0.4824
 6327SOL    HW129450   9.709   2.336   3.030  0.8283 -1.8072 -0.6966
 6327SOL    HW229451   9.865   2.356   3.074  0.1537  2.5588 -0.1099
 6328SOL     OW29452   1.518   6.677   3.775 -0.2811 -0.5002  0.1626
 6328SOL    HW129453   1.460   6.724   3.708  2.7733  1.4106 -1.2613
 6328SOL    HW229454   1.559   6.596   3.732  1.6480  0.7034 -0.3350
 6329SOL     OW29455   3.589   0.173   0.506 -0.2106 -0.0762  0.4640
 6329SOL    HW129456   3.625   0.200   0.595 -1.3733 -0.0947  0.9538
 6329SOL    HW229457   3.593   0.073   0.497  0.6910 -0.0201  0.1383
 6330SOL     OW29458   3.521   4.098   3.068 -0.1133 -0.0635  0.4357
 6330SOL    HW129459   3.529   4.013   3.016 -0.0049 -0.6003  1.3173
 6330SOL    HW229460   3.472   4.166   3.013  1.4219 -0.0775 -0.9990
 6331SOL     OW29461   7.854   9.918   1.869  1.0015  0.1633  0.5106
 6331SOL    HW129462   7.770   9.901   1.921  0.6336 -0.5006 -0.2999
 6331SOL    HW229463   7.917   9.971   1.925  0.9554 -1.2787  1.9695
 6332SOL     OW29464   0.161   0.724   0.617 -0.0776  0.1401 -0.1416
 6332SOL    HW129465   0.156   0.624   0.612 -0.2706  0.1787 -0.8144
 6332SOL    HW229466   0.234   0.751   0.679  2.4177 -0.4352 -2.7050
 6333SOL     OW29467   4.983   8.164   0.877 -0.4861 -0.1161 -0.2810
 6333SOL    HW129468   5.001   8.073   0.839 -0.0821 -0.0831 -0.1766
 6333SOL    HW229469   5.006   8.233   0.808 -0.6950 -0.0883 -0.3237
 6334SOL     OW29470   2.028   6.423   0.945 -0.5239  0.1180  0.1360
 6334SOL    HW129471   1.996   6.516   0.924  0.0688  0.5642  1.1719
 6334SOL    HW229472   1.957   6.375   0.996 -1.0061 -0.1492 -0.7822
 6335SOL     OW29473   2.787   3.408   2.211  0.5394  0.5279  0.2814
 6335SOL    HW129474   2.747   3.321   2.180 -0.1225  0.5822  0.9657
 6335SOL    HW229475   2.884   3.410   2.187  1.1434 -1.4280  2.2923
 6336SOL     OW29476   3.151   0.835   0.566 -0.0772  0.1682 -0.1704
 6336SOL    HW129477   3.174   0.891   0.488 -0.5201  1.9885  0.9839
 6336SOL    HW229478   3.205   0.862   0.645  1.7533 -2.9061 -0.2658
 6337SOL     OW29479   8.051   1.784   1.338  0.4360 -0.1541 -0.6891
 6337SOL    HW129480   8.139   1.769   1.382  1.0182  1.8132 -1.1241
 6337SOL    HW229481   8.062   1.849   1.262 -1.2854 -0.2886 -1.0772
 6338SOL     OW29482   4.164   3.013   2.836  0.7376  0.1840 -0.4111
 6338SOL    HW129483   4.115   3.049   2.916  0.4840 -0.1045 -0.4355
 6338SOL    HW229484   4.260   3.040   2.841  0.9848 -0.8155  0.6093
 6339SOL     OW29485   6.651   0.179   2.492  0.4625  0.0446 -0.1213
 6339SOL    HW129486   6.669   0.117   2.416 -1.8300 -2.1405  1.0191
 6339SOL    HW229487   6.556   0.209   2.488  1.8466  4.5720 -1.3423
 6340SOL     OW29488   2.612   1.929   2.664 -0.0330 -0.9576  0.3541
 6340SOL    HW129489   2.661   2.013   2.642 -2.1586  0.3603  0.4131
 6340SOL    HW229490   2.631   1.903   2.759  0.9969 -0.7990  0.1873
 6341SOL     OW29491   0.127   4.632   2.451 -0.4365  0.4551  0.5078
 6341SOL    HW129492   0.087   4.561   2.394 -0.2261 -0.6992  1.7705
 6341SOL    HW229493   0.073   4.716   2.442 -0.8737  0.0500 -0.7445
 6342SOL     OW29494   1.344   9.789   0.124  0.6313 -1.1580  0.1084
 6342SOL    HW129495   1.266   9.753   0.072  0.4769 -0.6984  0.0154
 6342SOL    HW229496   1.384   9.866   0.074 -0.7978  0.6334  1.6454
 6343SOL     OW29497   3.357   9.852   0.563  1.0257 -0.1982 -0.3251
 6343SOL    HW129498   3.286   9.923   0.567 -0.1426 -1.3015 -0.9040
 6343SOL    HW229499   3.433   9.884   0.505  0.3718  0.4619 -0.8373
 6344SOL     OW29500   2.015   7.010   3.438 -0.5972 -0.4622  0.3401
 6344SOL    HW129501   1.997   6.957   3.355 -0.0223 -0.9673  0.5278
 6344SOL    HW229502   1.945   6.991   3.506 -0.3505 -1.0473  0.4337
 6345SOL     OW29503   8.378   4.518   1.953  0.3508  0.2688 -0.0588
 6345SOL    HW129504   8.306   4.551   2.013  0.2919  1.9752 -1.0187
 6345SOL    HW229505   8.419   4.435   1.991 -1.7647 -0.4260  0.7340
 6346SOL     OW29506   2.313   6.100   0.778  0.1908 -0.1697  0.1417
 6346SOL    HW129507   2.234   6.038   0.779 -1.2813  1.6362 -0.9057
 6346SOL    HW229508   2.339   6.122   0.873 -1.5970  0.4751  0.5049
 6347SOL     OW29509   1.383   7.026   3.625  0.3239  0.4673  0.0232
 6347SOL    HW129510   1.469   7.068   3.653  0.3052  0.3904  0.1961
 6347SOL    HW229511   1.326   7.094   3.578  0.0144  0.8123  0.8903
 6348SOL     OW29512   8.101   0.791   3.862  0.3337  0.3225 -0.0343
 6348SOL    HW129513   8.134   0.715   3.918 -0.2453 -0.0324 -0.1598
 6348SOL    HW229514   8.178   0.844   3.828  0.6490  1.2195  2.0278
 6349SOL     OW29515   2.150   9.149   1.882 -0.0506 -0.7416  0.0266
 6349SOL    HW129516   2.177   9.243   1.904 -1.0297 -0.5758  0.5688
 6349SOL    HW229517   2.120   9.103   1.966  0.1183 -1.4411 -0.2921
 6350SOL     OW29518   8.306   7.216   1.966 -0.3490 -0.3066 -0.0548
 6350SOL    HW129519   8.374   7.264   1.911 -0.9613 -0.1978 -0.7302
 6350SOL    HW229520   8.296   7.122   1.932 -0.1449 -0.4875  0.3858
 6351SOL     OW29521   7.917   0.620   1.044 -0.4380  0.0938 -0.5447
 6351SOL    HW129522   7.854   0.549   1.012  0.1794 -1.4070  1.5289
 6351SOL    HW229523   7.884   0.657   1.131 -0.2079  1.6714 -1.1008
 6352SOL     OW29524   9.992   5.690   3.396 -0.0325 -0.2930  0.1953
 6352SOL    HW129525  10.047   5.711   3.316  0.9180  1.8209  1.3621
 6352SOL    HW229526  10.050   5.686   3.477 -1.5038  1.9234  1.4435
 6353SOL     OW29527   4.282   7.176   3.407 -0.6810 -0.0551  0.5284
 6353SOL    HW129528   4.243   7.085   3.394 -0.8288 -0.0550  0.9534
 6353SOL    HW229529   4.247   7.215   3.492  0.2674 -0.0585  0.9186
 6354SOL     OW29530   0.120   2.949   2.937  0.1846  0.2292  0.5060
 6354SOL    HW129531   0.201   2.902   2.902  0.3828  0.7677  0.2416
 6354SOL    HW229532   0.124   3.046   2.913 -1.0220  0.0729 -0.3852
 6355SOL     OW29533   7.964   1.471   0.522 -0.4859 -0.3182  0.2884
 6355SOL    HW129534   7.905   1.525   0.462  0.6256  0.6461  0.0405
 6355SOL    HW229535   7.912   1.440   0.602 -1.0352  1.4838  0.6388
 6356SOL     OW29536   1.678   8.939   3.268  0.2835  0.3289  0.3722
 6356SOL    HW129537   1.728   8.923   3.183 -2.1247  1.7823 -1.3999
 6356SOL    HW229538   1.702   9.029   3.305  1.2231 -0.2442  1.1688
 6357SOL     OW29539   4.393   8.596   3.239  0.3002 -0.7426  0.0434
 6357SOL    HW129540   4.350   8.509   3.265 -0.2658 -0.4986 -0.0568
 6357SOL    HW229541   4.425   8.590   3.145  1.9032 -1.4585  0.6239
 6358SOL     OW29542   1.959   8.629   3.110 -0.2157 -0.9254  0.7343
 6358SOL    HW129543   1.954   8.565   3.033  0.0872 -1.2198  0.9584
 6358SOL    HW229544   2.055   8.653   3.127 -0.4780  1.4786 -0.9011
 6359SOL     OW29545   6.609   8.422   2.759 -0.1325 -0.0676  0.2064
 6359SOL    HW129546   6.640   8.512   2.731 -1.5111 -0.2832 -2.1032
 6359SOL    HW229547   6.653   8.351   2.704  1.2206 -0.8689  2.2450
 6360SOL     OW29548   2.970   1.459   2.457 -0.3903  0.0540  0.0662
 6360SOL    HW129549   3.004   1.477   2.549  0.6582 -1.1654 -0.0623
 6360SOL    HW229550   3.044   1.420   2.402 -1.0835  0.5302 -1.2120
 6361SOL     OW29551   2.374   8.477   3.742 -0.0131  0.0531 -0.1187
 6361SOL    HW129552   2.354   8.504   3.837 -0.8021  2.0463 -0.8327
 6361SOL    HW229553   2.474   8.473   3.729  0.1642 -3.3547  1.6218
 6362SOL     OW29554   2.482   3.815   2.550  0.2526  0.4510  0.0276
 6362SOL    HW129555   2.573   3.782   2.575 -0.9233 -2.7773  0.3765
 6362SOL    HW229556   2.425   3.821   2.632 -0.5055  0.2511 -0.4748
 6363SOL     OW29557   1.096   0.788   2.364 -0.0423  0.3309 -0.0615
 6363SOL    HW129558   1.090   0.884   2.391  0.3173  0.4923 -0.5453
 6363SOL    HW229559   1.192   0.766   2.344  0.1324 -0.5749  1.6941
 6364SOL     OW29560   7.176   8.067   2.240 -0.0178 -0.1599 -0.1688
 6364SOL    HW129561   7.081   8.062   2.207  0.1490 -0.8693 -0.5642
 6364SOL    HW229562   7.232   8.004   2.187  0.6027 -0.0275  0.3298
 6365SOL     OW29563   0.174   8.645   1.397 -0.2117  0.0503 -0.1199
 6365SOL    HW129564   0.123   8.625   1.481 -0.6380  0.1304 -0.3588
 6365SOL    HW229565   0.188   8.744   1.390  1.0744 -0.0766  0.5835
 6366SOL     OW29566   8.635   6.200   1.929 -0.3219  0.0493  0.2060
 6366SOL    HW129567   8.645   6.128   1.998 -1.5700 -0.8470 -0.5234
 6366SOL    HW229568   8.703   6.186   1.857 -1.0933 -0.8966 -0.3508
 6367SOL     OW29569   0.762   2.968   3.550  0.4173 -0.4008 -0.6232
 6367SOL    HW129570   0.711   2.887   3.577 -1.9811  0.3244 -2.7364
 6367SOL    HW229571   0.722   3.049   3.594  0.0099  0.1141 -1.9015
 6368SOL     OW29572   1.534   2.598   1.420  0.1668 -0.6050  0.0998
 6368SOL    HW129573   1.626   2.637   1.423  0.5269 -1.3504 -0.9838
 6368SOL    HW229574   1.472   2.664   1.378  0.8479 -1.3013 -2.0617
 6369SOL     OW29575   2.884   1.577   0.130 -0.3488  0.2514 -0.0776
 6369SOL    HW129576   2.950   1.623   0.071 -1.9809  1.5411 -0.9195
 6369SOL    HW229577   2.836   1.645   0.185 -1.5644 -0.6087 -0.0714
 6370SOL     OW29578   8.479   5.646   3.102  0.3035  0.9633  0.0686
 6370SOL    HW129579   8.423   5.721   3.069  0.3413  0.9624  0.0002
 6370SOL    HW229580   8.538   5.678   3.176  1.4884  1.4084 -1.0493
 6371SOL     OW29581   9.376   7.997   1.367  0.9466 -0.0175 -0.2357
 6371SOL    HW129582   9.475   8.003   1.376  0.9189 -0.0694  0.1124
 6371SOL    HW229583   9.337   7.963   1.452  0.8005 -1.9512 -1.0505
 6372SOL     OW29584   0.751   6.439   1.888 -0.2498  0.4582  0.0354
 6372SOL    HW129585   0.766   6.471   1.982  1.0592  1.4777 -0.5039
 6372SOL    HW229586   0.654   6.416   1.876 -0.4343  0.3304  1.6214
 6373SOL     OW29587   1.222   2.456   1.943 -0.4348 -0.2624 -0.2537
 6373SOL    HW129588   1.196   2.369   1.985  1.4746  0.1768  2.0044
 6373SOL    HW229589   1.322   2.465   1.946 -0.5408  1.4945 -1.5173
 6374SOL     OW29590   4.746   7.771   1.624  0.0451 -0.2566 -0.3993
 6374SOL    HW129591   4.796   7.691   1.591 -0.8691  0.0505 -2.6131
 6374SOL    HW229592   4.762   7.782   1.722  0.6526 -2.7943 -0.1781
 6375SOL     OW29593   1.497   2.022   1.504  0.1627 -0.1748 -0.0384
 6375SOL    HW129594   1.588   2.007   1.542  0.8412 -3.1446 -2.6600
 6375SOL    HW229595   1.486   2.119   1.482  2.4005  0.3369  0.9190
 6376SOL     OW29596   8.687   5.200   3.993  0.5510  0.4961  0.0092
 6376SOL    HW129597   8.636   5.253   3.925 -1.1692 -0.2475  0.6770
 6376SOL    HW229598   8.702   5.256   4.074 -2.8924 -0.4947  1.4610
 6377SOL     OW29599   9.274   3.910   3.955 -0.5677 -0.8009  0.1022
 6377SOL    HW129600   9.266   3.965   3.872 -0.9525  0.6515  1.0865
 6377SOL    HW229601   9.261   3.813   3.932  1.0899 -0.5960 -1.7886
 6378SOL     OW29602   7.849   2.639   1.505 -0.1345 -0.4480 -0.4984
 6378SOL    HW129603   7.773   2.691   1.546 -0.0479 -0.2910 -0.5362
 6378SOL    HW229604   7.935   2.671   1.545 -0.0930 -0.6693 -0.4106
 6379SOL     OW29605   3.194   2.072   0.838 -0.2152 -0.3625 -0.1224
 6379SOL    HW129606   3.109   2.025   0.813 -1.6795  1.8816  0.4709
 6379SOL    HW229607   3.209   2.149   0.775  2.6915 -2.1480 -1.7349
 6380SOL     OW29608   4.292   8.714   2.166 -0.5575  0.2961 -0.5519
 6380SOL    HW129609   4.249   8.638   2.117 -0.4204  0.3909 -0.8226
 6380SOL    HW229610   4.370   8.748   2.113  2.1381 -2.2551  1.6720
 6381SOL     OW29611   4.552   9.760   2.366 -0.0624 -0.0365  0.6557
 6381SOL    HW129612   4.620   9.692   2.339  0.6105  0.4571  1.0959
 6381SOL    HW229613   4.532   9.751   2.464 -1.5321 -0.9698  0.2905
 6382SOL     OW29614   1.785   0.189   1.569 -0.2337  0.3092  0.1637
 6382SOL    HW129615   1.723   0.174   1.492 -1.7599 -0.3422  1.5147
 6382SOL    HW229616   1.798   0.288   1.582 -1.4168  0.4598  0.2316
 6383SOL     OW29617   4.196   8.920   2.625  0.1122  0.9749  0.2139
 6383SOL    HW129618   4.123   8.966   2.676 -1.1942 -0.3539 -0.4271
 6383SOL    HW229619   4.206   8.827   2.658 -1.2127 -0.1337 -2.3386
 6384SOL     OW29620   2.977   0.995   0.832  0.1643 -0.0473  0.6011
 6384SOL    HW129621   3.008   0.969   0.924 -1.9858 -0.1926  1.2969
 6384SOL    HW229622   2.999   1.091   0.815 -0.0047  0.1511  1.5043
 6385SOL     OW29623   9.014   3.409   3.452  0.3129 -0.1968  0.2793
 6385SOL    HW129624   8.995   3.422   3.355 -0.5230 -0.5317  0.3935
 6385SOL    HW229625   9.057   3.320   3.465  0.6897 -0.0287  0.1795
 6386SOL     OW29626   3.580   2.153   3.257 -0.0787 -0.0739 -0.2000
 6386SOL    HW129627   3.540   2.223   3.316  2.6025  0.2746  1.2782
 6386SOL    HW229628   3.612   2.077   3.313  1.1579 -0.4119 -1.3442
 6387SOL     OW29629   8.134   0.458   1.343 -0.0217  0.2996  0.3902
 6387SOL    HW129630   8.170   0.365   1.340 -0.5450 -0.0013  2.5840
 6387SOL    HW229631   8.147   0.502   1.254  1.4897 -1.3849 -0.2431
 6388SOL     OW29632   3.720   0.918   2.181 -0.4072 -0.0756  0.1562
 6388SOL    HW129633   3.640   0.871   2.218  1.1738 -1.3196  2.1033
 6388SOL    HW229634   3.775   0.955   2.256  0.5323  1.2772 -1.1764
 6389SOL     OW29635   6.065   8.497   1.667 -0.3697  0.4402  0.1773
 6389SOL    HW129636   5.995   8.560   1.700 -1.0365 -0.5890  0.7707
 6389SOL    HW229637   6.146   8.503   1.727 -0.8216  0.0073  0.8426
 6390SOL     OW29638   4.036   2.011   1.679  0.0089  0.3193  0.1838
 6390SOL    HW129639   3.994   1.939   1.625 -1.1311  0.1042  1.3348
 6390SOL    HW229640   3.986   2.097   1.668 -0.4362  0.1918  1.1463
 6391SOL     OW29641   1.658   3.069   2.566 -0.1461 -0.2514 -0.1639
 6391SOL    HW129642   1.559   3.082   2.564 -0.2102 -0.6480  0.4845
 6391SOL    HW229643   1.691   3.075   2.660  0.3666 -0.7195 -0.3127
 6392SOL     OW29644   3.753   3.105   0.617  0.5887 -0.0259  0.3139
 6392SOL    HW129645   3.806   3.118   0.533 -1.2259 -0.6621 -0.9570
 6392SOL    HW229646   3.716   3.193   0.647  1.1284  0.1824  0.3759
 6393SOL     OW29647   7.602   2.239   2.003 -0.3131  0.5028 -0.7262
 6393SOL    HW129648   7.547   2.322   2.010 -0.7155  0.2562 -0.9463
 6393SOL    HW229649   7.647   2.222   2.091 -1.4742  0.0953 -0.2045
 6394SOL     OW29650   5.021   0.466   1.934 -0.1682 -0.5972  0.6778
 6394SOL    HW129651   5.044   0.398   1.864  0.5061 -1.5472  1.8007
 6394SOL    HW229652   5.005   0.554   1.891 -0.3210 -1.3025 -0.7332
 6395SOL     OW29653   2.331   9.056   3.203 -0.0027 -0.0624  0.3218
 6395SOL    HW129654   2.352   9.149   3.173  0.6487 -0.2399  0.2132
 6395SOL    HW229655   2.411   9.016   3.248 -0.4712 -0.3556  0.9058
 6396SOL     OW29656   9.471   2.578   2.406 -0.2293  0.4159  0.3053
 6396SOL    HW129657   9.417   2.523   2.470 -1.6166  1.2875 -0.0915
 6396SOL    HW229658   9.416   2.654   2.373  1.1511  1.1444 -0.3744
 6397SOL     OW29659   0.950   1.853   0.202  0.4190  0.2868  0.1733
 6397SOL    HW129660   0.915   1.761   0.223 -2.0271  1.8159  3.2756
 6397SOL    HW229661   1.050   1.852   0.204  0.4147 -2.1376  1.1051
 6398SOL     OW29662   9.773   4.087   2.046 -0.2296 -0.0962  0.1627
 6398SOL    HW129663   9.827   4.019   1.996  0.0636 -0.0332  0.3899
 6398SOL    HW229664   9.677   4.078   2.022  0.0761  0.8623 -1.5283
 6399SOL     OW29665   2.177   2.175   3.229  0.4907  0.0713  0.1695
 6399SOL    HW129666   2.086   2.187   3.188  0.7468  2.1940  0.1429
 6399SOL    HW229667   2.233   2.119   3.169  0.3710  1.8918 -1.7224
 6400SOL     OW29668   0.892   6.487   3.415 -0.4390  0.3253 -0.2505
 6400SOL    HW129669   0.976   6.449   3.376 -0.2845  2.9272 -2.6085
 6400SOL    HW229670   0.912   6.530   3.503  0.5837  0.3151 -0.4769
 6401SOL     OW29671   4.149   8.362   1.113 -0.2992  0.0610  0.0675
 6401SOL    HW129672   4.139   8.315   1.201  1.8676  0.9039  0.7794
 6401SOL    HW229673   4.064   8.352   1.061 -0.8709 -2.2591  1.3612
 6402SOL     OW29674   3.472   6.515   2.563  0.5164  0.0577  0.4460
 6402SOL    HW129675   3.482   6.538   2.466  0.4305  1.6781  0.8103
 6402SOL    HW229676   3.522   6.582   2.618  1.8071 -1.7131  1.4629
 6403SOL     OW29677   2.713   0.642   0.879 -0.1302 -0.4737 -0.8391
 6403SOL    HW129678   2.692   0.726   0.828 -1.0944 -1.3328 -1.8814
 6403SOL    HW229679   2.659   0.566   0.842 -0.3613 -1.2641  1.0411
 6404SOL     OW29680   0.544   4.813   2.397 -0.1630 -0.1340  0.5708
 6404SOL    HW129681   0.603   4.866   2.459  0.6071 -0.5784  0.2143
 6404SOL    HW229682   0.461   4.786   2.446 -1.0991  2.3635  0.4465
 6405SOL     OW29683   2.810   7.106   2.263 -0.3523 -0.1966 -0.0798
 6405SOL    HW129684   2.762   7.186   2.227  0.8670  0.9271  0.7636
 6405SOL    HW229685   2.882   7.135   2.326 -1.3964 -2.0357  2.0429
 6406SOL     OW29686   9.713   0.317   3.032  0.3242  0.8632 -0.4302
 6406SOL    HW129687   9.767   0.307   2.949 -0.6303  0.7826 -1.0499
 6406SOL    HW229688   9.667   0.231   3.053 -0.4784  1.2574 -0.5558
 6407SOL     OW29689   2.877   0.567   3.443 -0.0484  0.7959 -0.3096
 6407SOL    HW129690   2.963   0.618   3.444  0.2004  0.3674  0.6056
 6407SOL    HW229691   2.824   0.592   3.362  1.6979 -0.1826 -1.7905
 6408SOL     OW29692   7.713   8.317   2.614  0.0438  0.3864 -0.4575
 6408SOL    HW129693   7.724   8.229   2.568 -0.4244 -0.3498  0.7925
 6408SOL    HW229694   7.656   8.377   2.559 -1.4528 -0.8806 -0.3262
 6409SOL     OW29695   0.157   0.214   2.354  0.1652  0.1150  0.4709
 6409SOL    HW129696   0.226   0.246   2.290  0.4859 -1.0618  0.2198
 6409SOL    HW229697   0.202   0.172   2.433 -0.2210  1.6579  1.5454
 6410SOL     OW29698   0.858   0.989   1.069  0.4404 -0.4491  0.7768
 6410SOL    HW129699   0.847   0.890   1.056  1.9484 -0.5453  0.1404
 6410SOL    HW229700   0.778   1.036   1.032  0.6326 -1.3078 -0.7719
 6411SOL     OW29701   8.789   9.660   1.548 -0.0234  0.0871  0.6721
 6411SOL    HW129702   8.721   9.731   1.564  2.1519  2.2883  0.3657
 6411SOL    HW229703   8.840   9.642   1.632 -0.0662 -0.5706  0.5602
 6412SOL     OW29704   0.460   9.886   1.498  0.1557 -0.0794  0.1120
 6412SOL    HW129705   0.417   9.796   1.494 -1.2647  0.5362  0.7223
 6412SOL    HW229706   0.454   9.930   1.408 -0.4489 -0.0379  0.1647
 6413SOL     OW29707   1.407   3.509   1.933  0.2155  0.2457  0.2058
 6413SOL    HW129708   1.356   3.451   1.869 -2.1855 -0.1513  2.4126
 6413SOL    HW229709   1.455   3.451   2.000 -0.1268  0.7515  0.8893
 6414SOL     OW29710   1.453   2.926   0.287  0.2599 -0.7088  0.4340
 6414SOL    HW129711   1.387   2.885   0.225  1.0585 -1.4797  0.0747
 6414SOL    HW229712   1.536   2.870   0.290  1.3950  0.8945 -0.0884
 6415SOL     OW29713   4.691   9.570   3.270  0.2483 -0.3485 -0.3367
 6415SOL    HW129714   4.652   9.555   3.360  0.1143  0.6196 -0.2334
 6415SOL    HW229715   4.785   9.602   3.279 -0.6547  2.4633 -0.4603
 6416SOL     OW29716   1.883   3.152   3.147  0.2093 -0.5013  0.5695
 6416SOL    HW129717   1.809   3.146   3.080  0.2134 -1.0450  0.6154
 6416SOL    HW229718   1.971   3.140   3.101  0.3310  1.0642  0.3679
 6417SOL     OW29719   2.158   8.431   2.727  0.1835 -0.7222 -0.5475
 6417SOL    HW129720   2.240   8.433   2.785 -1.1886  0.6155  1.4228
 6417SOL    HW229721   2.155   8.514   2.672 -0.2889 -0.3530  0.0313
 6418SOL     OW29722   8.636   4.675   3.346  0.0030 -0.3319 -0.0490
 6418SOL    HW129723   8.617   4.644   3.253 -0.0558 -0.1820 -0.0872
 6418SOL    HW229724   8.661   4.596   3.403 -0.1082 -0.4429 -0.1543
 6419SOL     OW29725   3.354   8.347   2.706 -0.4782  0.2075 -0.2502
 6419SOL    HW129726   3.274   8.359   2.765 -1.2686 -1.1836 -1.0272
 6419SOL    HW229727   3.375   8.434   2.661  0.3873  1.4196  2.3435
 6420SOL     OW29728   4.545   1.976   1.299 -0.0864  0.6535  0.4816
 6420SOL    HW129729   4.580   2.048   1.239 -0.4659  2.2624  2.1284
 6420SOL    HW229730   4.459   2.006   1.339 -1.1364 -1.4557 -0.1245
 6421SOL     OW29731   3.092   2.876   3.144  0.4010 -0.3796 -0.0227
 6421SOL    HW129732   3.019   2.929   3.101 -0.6705 -0.4607  1.6472
 6421SOL    HW229733   3.160   2.939   3.183  0.9821 -0.3005 -1.1319
 6422SOL     OW29734   2.101   9.445   3.460  0.2098 -0.1629  0.6141
 6422SOL    HW129735   2.062   9.365   3.414 -1.6301  0.4394  1.0880
 6422SOL    HW229736   2.033   9.485   3.522  1.2158  1.5749  0.6446
 6423SOL     OW29737   3.421   0.062   0.217 -0.1617 -0.3682 -0.1511
 6423SOL    HW129738   3.482   0.097   0.146 -0.4521  1.3271  0.4058
 6423SOL    HW229739   3.326   0.075   0.188 -0.2856  0.7136  0.7106
 6424SOL     OW29740   3.604   1.774   3.000 -0.9220  0.0900 -0.4042
 6424SOL    HW129741   3.690   1.765   2.951 -0.7901 -1.7140  0.1253
 6424SOL    HW229742   3.535   1.714   2.958 -1.3233 -0.0684  0.4640
 6425SOL     OW29743   4.016   8.166   0.713  0.0272  0.1317 -0.3448
 6425SOL    HW129744   4.056   8.087   0.665  0.9185 -0.0477  0.6743
 6425SOL    HW229745   4.026   8.248   0.656 -0.6753 -0.4336 -1.2980
 6426SOL     OW29746   1.049   4.887   2.971  0.6504 -0.3487  0.3241
 6426SOL    HW129747   1.141   4.860   3.000  1.3754  0.7536 -0.9339
 6426SOL    HW229748   1.024   4.971   3.018  0.3611 -0.5265  0.4893
 6427SOL     OW29749   2.896   5.638   3.489 -0.3049 -0.5550 -0.1358
 6427SOL    HW129750   2.982   5.637   3.540  0.2519  0.9727 -0.9945
 6427SOL    HW229751   2.905   5.577   3.409  0.0376 -0.2964 -0.2988
 6428SOL     OW29752   1.028   8.665   3.746  0.3334 -0.4277 -0.2124
 6428SOL    HW129753   1.014   8.764   3.735 -0.7604 -0.5509  0.0115
 6428SOL    HW229754   1.104   8.636   3.688  0.5423  0.5154 -0.4258
 6429SOL     OW29755   9.957   6.083   2.502  0.2089  0.3902  0.4523
 6429SOL    HW129756   9.881   6.126   2.551 -0.8415 -1.0766  0.1330
 6429SOL    HW229757   9.997   6.011   2.559  0.0975 -0.1539 -0.1508
 6430SOL     OW29758   2.276   8.028   3.371 -0.1717  0.1605 -0.1594
 6430SOL    HW129759   2.245   7.941   3.331  0.6248  0.2845 -1.0608
 6430SOL    HW229760   2.374   8.023   3.390  0.0640  1.2026 -1.0974
 6431SOL     OW29761   1.093   0.988   0.129 -0.2734 -0.4595  0.0745
 6431SOL    HW129762   1.119   0.902   0.084  0.3055  0.3586 -1.1750
 6431SOL    HW229763   1.034   1.041   0.068  2.1672  1.5943 -0.6148
 6432SOL     OW29764   0.636   5.822   2.374 -0.1976 -0.9994 -0.1949
 6432SOL    HW129765   0.612   5.912   2.337 -0.0919 -1.1178 -0.5462
 6432SOL    HW229766   0.633   5.826   2.474  1.0248 -0.2752 -0.1825
 6433SOL     OW29767   1.601   1.177   3.819 -0.5682 -0.2584 -0.1468
 6433SOL    HW129768   1.601   1.140   3.726 -0.9435  0.0693 -0.2817
 6433SOL    HW229769   1.663   1.125   3.877  1.0292  0.6375 -1.0322
 6434SOL     OW29770   7.884   6.352   3.300  0.0730 -0.0017  1.4770
 6434SOL    HW129771   7.945   6.290   3.350 -0.1114 -0.2341  1.4130
 6434SOL    HW229772   7.932   6.437   3.281  1.3667 -1.2285 -1.0450
 6435SOL     OW29773   6.151   7.225   2.335 -0.0337 -0.5428 -0.4812
 6435SOL    HW129774   6.181   7.309   2.382 -0.4091 -0.4671 -0.3658
 6435SOL    HW229775   6.162   7.236   2.237  0.0940 -0.4278 -0.4545
 6436SOL     OW29776   8.012   2.709   3.996 -0.2793 -0.6004  0.1960
 6436SOL    HW129777   7.922   2.667   4.004 -0.4993 -0.3271 -0.7695
 6436SOL    HW229778   8.005   2.808   4.006 -0.0385 -0.6114  0.4821
 6437SOL     OW29779   2.333   8.527   4.018  0.6119  0.0117 -0.0350
 6437SOL    HW129780   2.236   8.518   3.998  0.3673 -0.7777  1.4858
 6437SOL    HW229781   2.347   8.529   4.117  1.9299  2.5448 -0.2553
 6438SOL     OW29782   2.781   1.721   0.913  0.3098  0.3948 -0.1860
 6438SOL    HW129783   2.819   1.658   0.844 -0.8896 -0.7136  0.1571
 6438SOL    HW229784   2.682   1.721   0.907  0.2553  1.3849  0.6066
 6439SOL     OW29785   9.078   5.292   0.013 -0.2143  0.0782 -0.3556
 6439SOL    HW129786   9.086   5.216   0.077 -1.0863  0.8384  0.6855
 6439SOL    HW229787   9.140   5.278  -0.064  0.6096 -1.0258  0.4896
 6440SOL     OW29788   7.665   9.956   3.551 -0.7373  0.8542  0.0662
 6440SOL    HW129789   7.739   9.919   3.495 -0.3427  1.5026  0.1586
 6440SOL    HW229790   7.617   9.881   3.596  0.9421  0.5349  1.3623
 6441SOL     OW29791   3.507   7.503   1.365  0.8586 -0.5069  0.4855
 6441SOL    HW129792   3.544   7.429   1.421 -1.7787 -2.4550 -0.2621
 6441SOL    HW229793   3.496   7.471   1.271  1.0719  1.3321 -0.1946
 6442SOL     OW29794   9.656   8.729   1.919 -0.0065  0.2591  0.6578
 6442SOL    HW129795   9.589   8.691   1.856  1.1411 -0.1938 -0.3027
 6442SOL    HW229796   9.715   8.794   1.871 -0.3386  1.3805  1.7098
 6443SOL     OW29797   8.508   8.296   0.819  0.1179  0.5549 -0.1020
 6443SOL    HW129798   8.428   8.353   0.837  0.0392  0.9624 -1.6653
 6443SOL    HW229799   8.591   8.346   0.845 -0.0556  0.6242  0.3259
 6444SOL     OW29800   2.798   7.437   0.685 -0.2518  0.7411 -0.2429
 6444SOL    HW129801   2.802   7.385   0.600  0.2903  0.7520 -0.2250
 6444SOL    HW229802   2.795   7.373   0.762 -0.1319  0.7293 -0.2466
 6445SOL     OW29803   7.833   7.870   0.567 -0.1342 -0.2739 -0.0395
 6445SOL    HW129804   7.909   7.806   0.564 -1.7970 -2.2826 -0.7107
 6445SOL    HW229805   7.831   7.924   0.483  0.4088 -0.3762 -0.1204
 6446SOL     OW29806   1.490   3.720   0.878 -0.0892 -0.1327 -0.4228
 6446SOL    HW129807   1.467   3.788   0.948  0.9085 -1.0223  0.7948
 6446SOL    HW229808   1.409   3.665   0.857 -0.0342 -0.8307  1.1349
 6447SOL     OW29809   7.611   8.201   2.249  0.4967  0.3679  0.3200
 6447SOL    HW129810   7.524   8.184   2.295  1.0186  0.2730  1.2925
 6447SOL    HW229811   7.631   8.299   2.250  0.1213  0.4489 -0.4110
 6448SOL     OW29812   2.209   0.425   0.881  0.2298 -0.1697  0.3428
 6448SOL    HW129813   2.260   0.465   0.957  1.1358  0.2302 -0.4718
 6448SOL    HW229814   2.133   0.371   0.918  0.1831  0.6531  1.5083
 6449SOL     OW29815   0.841   9.244   1.077 -0.1605 -0.7178  0.4807
 6449SOL    HW129816   0.808   9.301   1.152  0.0763 -0.0827  0.1116
 6449SOL    HW229817   0.791   9.267   0.993  0.0686 -0.9243  0.2862
 6450SOL     OW29818   2.590   6.688   2.058  0.7034  0.1985  0.1763
 6450SOL    HW129819   2.620   6.784   2.056  1.2783  0.0157 -0.0127
 6450SOL    HW229820   2.611   6.648   2.147 -1.3349  0.8113  0.9778
 6451SOL     OW29821   2.479   2.804   1.446  0.7170 -0.1787  0.4141
 6451SOL    HW129822   2.492   2.872   1.517  1.8275  0.9315 -0.8158
 6451SOL    HW229823   2.562   2.749   1.437  0.8758  0.2050 -0.5455
 6452SOL     OW29824   0.711   5.363   2.637  0.1430  0.0453 -0.1588
 6452SOL    HW129825   0.744   5.369   2.543 -0.0550 -0.6990 -0.2797
 6452SOL    HW229826   0.684   5.454   2.668 -0.2505  0.2222 -0.9910
 6453SOL     OW29827   9.866   7.980   1.213 -0.1874 -0.2658  0.4159
 6453SOL    HW129828   9.874   7.908   1.144  1.4446  0.8866 -0.6478
 6453SOL    HW229829   9.941   7.971   1.278  1.9130  2.2858 -1.5310
 6454SOL     OW29830   2.910   1.089   0.095  0.1123  0.3662 -0.5674
 6454SOL    HW129831   2.821   1.054   0.124  0.8663  0.4172  1.9196
 6454SOL    HW229832   2.897   1.177   0.048 -0.9367  2.1493  2.8728
 6455SOL     OW29833   4.972   0.395   2.676 -0.0041  0.4192 -0.5773
 6455SOL    HW129834   5.053   0.448   2.701 -0.0893  0.1524  0.3028
 6455SOL    HW229835   4.899   0.458   2.647 -0.1684  0.8245  0.6505
 6456SOL     OW29836   3.708   7.100   1.988  0.0023  0.4616  0.1440
 6456SOL    HW129837   3.661   7.068   1.905 -0.2078 -2.3726  1.3020
 6456SOL    HW229838   3.643   7.104   2.064  1.0772 -1.0428  1.1601
 6457SOL     OW29839   0.809   1.459   3.002  0.1669  0.0991  0.1332
 6457SOL    HW129840   0.806   1.514   2.918 -0.2651  1.1529  0.8400
 6457SOL    HW229841   0.745   1.383   2.993 -0.6658  0.8181 -0.0760
 6458SOL     OW29842   2.491   0.714   3.335 -0.0959  0.1355  0.1465
 6458SOL    HW129843   2.523   0.628   3.376  0.7525  0.1616 -0.4505
 6458SOL    HW229844   2.397   0.703   3.304  0.5496 -1.1077 -1.4204
 6459SOL     OW29845   3.623   8.226   1.092 -0.0735  1.0868  0.1802
 6459SOL    HW129846   3.551   8.203   1.158  0.0955  0.5821  0.1891
 6459SOL    HW229847   3.710   8.236   1.141  0.4821 -1.4120 -0.2243
 6460SOL     OW29848   3.461   7.946   2.725  0.2432 -0.4251  0.1273
 6460SOL    HW129849   3.487   8.025   2.668  0.2352 -0.4574  0.0778
 6460SOL    HW229850   3.463   7.863   2.669 -0.5747 -0.3379 -0.0344
 6461SOL     OW29851   0.504   2.441   0.635  0.0036 -0.3724  0.3037
 6461SOL    HW129852   0.480   2.378   0.709 -1.1807  0.6574  0.8154
 6461SOL    HW229853   0.492   2.395   0.547  0.0129 -1.1511  0.7080
 6462SOL     OW29854   9.365   4.286   2.681 -0.3460 -0.0395  0.2026
 6462SOL    HW129855   9.347   4.218   2.753  0.1950  0.3495  0.7040
 6462SOL    HW229856   9.306   4.266   2.602 -0.2388 -1.0525  0.3689
 6463SOL     OW29857   1.116   0.951   3.553  0.5868 -0.9607  0.0857
 6463SOL    HW129858   1.205   0.908   3.535  0.0027 -2.2569  0.2418
 6463SOL    HW229859   1.050   0.881   3.580 -0.3501  0.0673  0.4871
 6464SOL     OW29860   1.271   7.769   2.789  0.4717 -0.5385 -0.1669
 6464SOL    HW129861   1.243   7.846   2.732 -0.9965 -2.4597 -2.1520
 6464SOL    HW229862   1.370   7.766   2.795  0.5535  1.3025 -0.3330
 6465SOL     OW29863   1.040   8.732   0.424  0.1705 -0.0433 -0.2507
 6465SOL    HW129864   0.972   8.728   0.351  0.7336 -1.7113 -0.7035
 6465SOL    HW229865   1.016   8.664   0.494  0.6377  0.2866  0.2261
 6466SOL     OW29866   7.999   3.826   4.030 -0.2823 -0.2394  0.3661
 6466SOL    HW129867   7.903   3.819   4.057 -0.0159  0.5290  1.5552
 6466SOL    HW229868   8.044   3.897   4.085  0.6164  0.3882 -1.1437
 6467SOL     OW29869   6.031   9.847   2.284 -0.1475 -0.4858  0.3583
 6467SOL    HW129870   5.976   9.907   2.227 -0.5713 -2.2096 -1.1068
 6467SOL    HW229871   6.066   9.771   2.229  0.9305 -1.2252  2.0061
 6468SOL     OW29872   9.541   2.906   1.025  0.5449  0.6111  0.2180
 6468SOL    HW129873   9.452   2.870   0.998  0.1170  0.5716  1.6493
 6468SOL    HW229874   9.611   2.872   0.962 -0.1954 -0.8184  0.1435
 6469SOL     OW29875   9.386   1.866   1.563 -0.0575 -0.0453  0.4143
 6469SOL    HW129876   9.398   1.866   1.663  1.0487 -2.3585  0.3174
 6469SOL    HW229877   9.470   1.901   1.520 -1.1595  2.5952  0.3056
 6470SOL     OW29878   0.368   6.256   2.332  0.1989  0.8746  0.8628
 6470SOL    HW129879   0.343   6.163   2.304 -1.2319  1.5365 -0.0758
 6470SOL    HW229880   0.458   6.254   2.375  0.0707 -0.9895  1.0733
 6471SOL     OW29881   2.290   4.344   3.176 -0.0440  0.0986  0.1486
 6471SOL    HW129882   2.258   4.342   3.082  1.6110  1.6472 -0.4788
 6471SOL    HW229883   2.225   4.397   3.232 -0.7336 -0.3493 -0.2164
 6472SOL     OW29884   3.383   4.657   4.022  0.3444  1.4427  0.3565
 6472SOL    HW129885   3.416   4.592   4.090  0.2928  2.0680  0.9913
 6472SOL    HW229886   3.458   4.719   3.996  0.3998  1.1248 -0.2576
 6473SOL     OW29887   2.069   9.865   0.678  0.3678 -0.2662  0.0512
 6473SOL    HW129888   2.047   9.957   0.645 -2.8609 -1.0622 -0.1680
 6473SOL    HW229889   2.120   9.816   0.607  1.1347  0.9684 -0.2725
 6474SOL     OW29890   1.480   4.858   2.546  0.3527  0.4756  0.5997
 6474SOL    HW129891   1.394   4.906   2.562  0.0510 -0.4498  1.8652
 6474SOL    HW229892   1.556   4.912   2.582  0.4558  1.8192 -1.5123
 6475SOL     OW29893   0.289   0.112   1.584  0.0715  0.6866 -0.1555
 6475SOL    HW129894   0.334   0.050   1.519 -2.2878 -0.1116 -1.0709
 6475SOL    HW229895   0.343   0.196   1.592  2.2529 -0.6652 -0.4300
 6476SOL     OW29896   2.051   5.451   0.522 -0.0189 -0.0972 -0.5230
 6476SOL    HW129897   1.981   5.517   0.553  0.4150 -0.5124  1.3921
 6476SOL    HW229898   2.007   5.365   0.497 -0.3760  0.2274 -1.0130
 6477SOL     OW29899   2.682   8.280   3.260 -0.1902  0.2905 -0.7908
 6477SOL    HW129900   2.718   8.352   3.318 -1.1239  0.4790 -0.4321
 6477SOL    HW229901   2.584   8.294   3.247 -0.1799 -0.3278 -1.5705
 6478SOL     OW29902   9.592   3.611   1.611  0.6005  0.6538  0.1215
 6478SOL    HW129903   9.526   3.641   1.543 -0.2474  0.2274  0.7494
 6478SOL    HW229904   9.680   3.657   1.595  0.0033  1.6321 -0.3787
 6479SOL     OW29905   8.201   3.072   1.199 -0.6006 -0.0135 -0.6366
 6479SOL    HW129906   8.284   3.036   1.157 -0.4702 -0.4606  0.0065
 6479SOL    HW229907   8.224   3.120   1.283 -0.8146  1.2637 -1.3010
 6480SOL     OW29908   3.353   5.143   0.104 -0.2462 -0.1959 -0.7792
 6480SOL    HW129909   3.329   5.190   0.188 -2.6270  0.7470 -1.9254
 6480SOL    HW229910   3.433   5.086   0.119 -0.7264 -0.1683  2.1453
 6481SOL     OW29911   7.964   3.879   0.452  0.1629 -0.3283  0.1820
 6481SOL    HW129912   8.029   3.820   0.404  0.2840 -1.1125  1.2942
 6481SOL    HW229913   7.938   3.955   0.392  2.0263 -0.0558 -0.3235
 6482SOL     OW29914   2.367   9.767   3.360 -0.1374  0.3495 -0.1338
 6482SOL    HW129915   2.355   9.855   3.315 -1.5321 -0.0382 -0.5293
 6482SOL    HW229916   2.388   9.782   3.457  0.8027  1.1287 -0.4460
 6483SOL     OW29917   9.950   5.413   0.527  0.0812 -0.0898 -0.0814
 6483SOL    HW129918   9.992   5.398   0.438  0.7015 -1.3751  0.4322
 6483SOL    HW229919   9.894   5.334   0.552 -0.3073  0.3781  0.5614
 6484SOL     OW29920   0.830   7.477   2.771 -0.2846 -0.1154 -0.0403
 6484SOL    HW129921   0.753   7.523   2.815 -0.9969 -1.8672  0.6011
 6484SOL    HW229922   0.896   7.545   2.740 -2.5405  1.4740 -1.5005
 6485SOL     OW29923   0.795   7.214   2.477 -0.3784 -0.0819 -0.1029
 6485SOL    HW129924   0.754   7.201   2.568  0.0067  0.9122  0.2123
 6485SOL    HW229925   0.765   7.301   2.439  1.0482  0.4386 -0.0738
 6486SOL     OW29926   1.733   4.099   3.930  0.0632 -0.1245  0.1112
 6486SOL    HW129927   1.671   4.159   3.982 -1.6076 -1.4927 -0.2379
 6486SOL    HW229928   1.698   4.005   3.933  2.0163 -0.8844 -0.3153
 6487SOL     OW29929   9.897   1.262   2.492  0.0632  0.4885 -0.2294
 6487SOL    HW129930   9.970   1.195   2.501 -1.8308 -1.4761  1.3356
 6487SOL    HW229931   9.845   1.244   2.408  0.5000  0.9542 -0.5953
 6488SOL     OW29932   7.748   3.550   0.606  0.1832  0.0350 -0.6410
 6488SOL    HW129933   7.775   3.637   0.646  0.7440 -0.6430  0.4986
 6488SOL    HW229934   7.773   3.475   0.669 -2.3650 -0.7855 -0.5368
 6489SOL     OW29935   0.103   3.256   2.727  0.6394  0.2277 -0.2595
 6489SOL    HW129936   0.030   3.323   2.712  0.9379  0.5208 -0.3870
 6489SOL    HW229937   0.071   3.188   2.794  0.2365  0.3351 -0.3379
 6490SOL     OW29938   2.912   8.604   3.843  0.0370 -0.5743 -0.0379
 6490SOL    HW129939   2.867   8.515   3.852  2.0743 -1.4510  1.9774
 6490SOL    HW229940   2.931   8.641   3.934 -0.5490  1.8235 -0.8574
 6491SOL     OW29941   4.786   2.750   1.753  0.5817  0.1010  0.0457
 6491SOL    HW129942   4.759   2.654   1.755  2.6462 -0.5281 -0.4414
 6491SOL    HW229943   4.844   2.766   1.673  3.8760  0.6930  2.4439
 6492SOL     OW29944   0.139   2.500   1.555  0.7001 -0.2828  0.1366
 6492SOL    HW129945   0.140   2.477   1.652  2.0973  0.9466  0.4181
 6492SOL    HW229946   0.065   2.566   1.537 -0.3364 -1.4201  0.1291
 6493SOL     OW29947   3.622   5.468   3.189 -0.6388 -0.0306  0.0374
 6493SOL    HW129948   3.647   5.561   3.162  1.2202 -1.0339 -1.9012
 6493SOL    HW229949   3.563   5.428   3.119 -1.1866 -0.4188  0.7195
 6494SOL     OW29950   4.566   8.999   1.952  0.5483  0.2061  0.4696
 6494SOL    HW129951   4.544   8.902   1.964  0.4820  0.1905  0.2196
 6494SOL    HW229952   4.489   9.055   1.983  0.6478  0.1834  0.7594
 6495SOL     OW29953   0.510   0.772   3.643  0.2445 -0.2495  0.2270
 6495SOL    HW129954   0.429   0.727   3.679  1.1790 -0.2991  2.3425
 6495SOL    HW229955   0.584   0.706   3.635  1.1901  0.5634  1.9597
 6496SOL     OW29956   3.534   6.912   3.391  0.1909  0.6599 -0.1938
 6496SOL    HW129957   3.606   6.980   3.406  2.3080 -0.8931 -2.7845
 6496SOL    HW229958   3.536   6.883   3.295 -3.2937 -0.1341 -0.0815
 6497SOL     OW29959   2.073   9.764   3.945  0.5382  0.1811  0.1566
 6497SOL    HW129960   2.071   9.766   4.045 -3.9933  0.3013  0.1665
 6497SOL    HW229961   2.124   9.684   3.915  1.1092 -0.4142  2.5679
 6498SOL     OW29962   8.714   0.282   1.235 -0.5028  0.3006  0.2162
 6498SOL    HW129963   8.711   0.210   1.166  1.3466 -0.7266  1.1845
 6498SOL    HW229964   8.621   0.304   1.264 -1.1369 -1.0895 -0.6959
 6499SOL     OW29965   1.605   8.607   1.630 -0.1541  0.0227 -0.1824
 6499SOL    HW129966   1.540   8.565   1.566 -1.2125  1.3627 -0.0080
 6499SOL    HW229967   1.596   8.563   1.720 -1.7010  1.0125  0.1667
 6500SOL     OW29968   7.502   7.412   2.410 -0.5718 -0.1699  0.3703
 6500SOL    HW129969   7.516   7.383   2.504 -0.1161  1.8227  0.9455
 6500SOL    HW229970   7.523   7.336   2.348  0.8669 -0.9693  1.7977
 6501SOL     OW29971   3.173   1.781   0.848  0.1110  0.2127 -0.0071
 6501SOL    HW129972   3.093   1.827   0.810  0.3511  0.2385 -0.4899
 6501SOL    HW229973   3.181   1.802   0.945  0.3559  1.3769 -0.2737
 6502SOL     OW29974   7.845   4.115   2.719 -0.3403 -0.5129  0.3114
 6502SOL    HW129975   7.828   4.151   2.811 -0.5863  0.9114 -0.2848
 6502SOL    HW229976   7.794   4.168   2.652  0.6342 -0.9057 -0.7602
 6503SOL     OW29977   8.845   1.203   0.351 -0.4888 -0.0485  0.0753
 6503SOL    HW129978   8.931   1.245   0.381 -1.4633  2.1247 -0.1156
 6503SOL    HW229979   8.850   1.104   0.366  1.1329  0.3203  2.2615
 6504SOL     OW29980   9.854   2.224   1.970 -0.1684  0.2316  0.2552
 6504SOL    HW129981   9.772   2.202   1.916  1.8800 -3.3957 -1.5021
 6504SOL    HW229982   9.919   2.273   1.913  0.3281  0.0155  0.6335
 6505SOL     OW29983   1.209   7.597   2.166  0.5641  0.4976  0.5351
 6505SOL    HW129984   1.168   7.687   2.152 -0.7981 -0.1830  0.0626
 6505SOL    HW229985   1.303   7.597   2.131  1.0868  2.1458  1.8852
 6506SOL     OW29986   2.416   5.692   1.351  0.3913  0.4684 -0.1027
 6506SOL    HW129987   2.440   5.596   1.367 -0.0155  0.0527 -1.8166
 6506SOL    HW229988   2.394   5.736   1.437 -0.0234 -1.1509  0.6318
 6507SOL     OW29989   4.464   7.110   2.313  0.2965 -0.6953 -0.0031
 6507SOL    HW129990   4.487   7.025   2.361 -0.7097 -0.9052  0.1287
 6507SOL    HW229991   4.425   7.089   2.224  0.2781 -0.3657 -0.0751
 6508SOL     OW29992   9.726   2.019   3.529  0.2492  0.8660  0.0932
 6508SOL    HW129993   9.722   2.065   3.618  0.3886  0.6771  0.1994
 6508SOL    HW229994   9.749   1.922   3.544  2.8109  1.3684 -0.3059
 6509SOL     OW29995   3.326   4.274   0.018  0.0494  0.0942 -0.1624
 6509SOL    HW129996   3.289   4.194   0.064 -1.2507 -0.1766 -1.6324
 6509SOL    HW229997   3.380   4.245  -0.061  0.3156  0.6344 -0.1852
 6510SOL     OW29998   2.590   9.138   2.942 -0.1754 -0.8051  0.4139
 6510SOL    HW129999   2.498   9.175   2.957 -0.5571 -1.5048 -0.1469
 6510SOL    HW230000   2.622   9.164   2.851  1.3197  1.7470  1.5904
 6511SOL     OW30001   8.741   4.119   0.023 -0.0896  0.3199 -0.1066
 6511SOL    HW130002   8.763   4.056  -0.051  2.0124 -1.7870  2.2247
 6511SOL    HW230003   8.642   4.116   0.041 -0.3220 -0.6590 -1.4271
 6512SOL     OW30004   3.973   4.345   1.319 -0.0897 -0.1667 -0.2260
 6512SOL    HW130005   3.971   4.321   1.416 -1.3770 -0.4167 -0.3013
 6512SOL    HW230006   4.037   4.286   1.271  0.4269 -0.1557  0.4320
 6513SOL     OW30007   9.122   5.489   0.844 -0.0789 -0.0144  0.0081
 6513SOL    HW130008   9.104   5.554   0.770 -2.5806 -1.0809 -0.3650
 6513SOL    HW230009   9.083   5.400   0.821  0.3937 -0.7612  1.9805
 6514SOL     OW30010   3.350   9.054   0.626  0.3528 -0.1883 -0.2665
 6514SOL    HW130011   3.308   9.029   0.713  2.4315  0.1426  0.8693
 6514SOL    HW230012   3.349   9.154   0.617  1.8696 -0.1201  0.2805
 6515SOL     OW30013   2.011   8.388   2.365  1.2237 -0.3707 -0.5305
 6515SOL    HW130014   1.928   8.363   2.316  1.5306 -1.9238 -0.2978
 6515SOL    HW230015   2.084   8.409   2.300  0.4169  1.9402 -0.7464
 6516SOL     OW30016   9.184   0.300   1.735 -0.1381 -0.2568  0.4517
 6516SOL    HW130017   9.162   0.219   1.789 -2.8621  0.5328  0.6070
 6516SOL    HW230018   9.119   0.309   1.660  0.1875  1.7291  0.3593
 6517SOL     OW30019   1.090   9.458   2.784 -0.4457 -0.3638 -0.7781
 6517SOL    HW130020   1.012   9.516   2.806 -0.5003 -1.3732  1.8213
 6517SOL    HW230021   1.134   9.492   2.701 -1.6084  2.2337 -0.3820
 6518SOL     OW30022   7.931   9.778   3.686 -0.5555  0.7615  0.3784
 6518SOL    HW130023   7.913   9.857   3.746 -1.4512  0.3102  0.7005
 6518SOL    HW230024   7.917   9.805   3.591  0.6441  1.4175  0.3732
 6519SOL     OW30025   2.453   2.032   2.323 -0.2706  0.2245  0.2038
 6519SOL    HW130026   2.420   1.943   2.290 -1.1537  0.5617  0.1508
 6519SOL    HW230027   2.537   2.057   2.274  0.3797 -0.9089  0.7334
 6520SOL     OW30028   2.280   4.766   0.321  0.5191  0.6794  0.0703
 6520SOL    HW130029   2.352   4.810   0.267  2.1230  0.9526  2.4021
 6520SOL    HW230030   2.316   4.740   0.410 -1.4523 -1.9699  0.1444
 6521SOL     OW30031   8.531   6.148   1.158 -0.0108 -0.5949 -0.4773
 6521SOL    HW130032   8.599   6.186   1.095  0.1749  0.5651  0.4147
 6521SOL    HW230033   8.551   6.051   1.174  0.2076 -0.7895 -1.8268
 6522SOL     OW30034   9.351   1.648   3.308 -0.4154  0.5958 -0.1493
 6522SOL    HW130035   9.309   1.663   3.219 -1.1554 -1.4840 -0.1657
 6522SOL    HW230036   9.304   1.702   3.377  0.4048  2.5217 -1.0513
 6523SOL     OW30037   9.684   2.704   2.790  0.0520 -0.4201 -0.1826
 6523SOL    HW130038   9.710   2.772   2.859  2.3358 -0.4228 -1.0326
 6523SOL    HW230039   9.678   2.748   2.701 -2.3689 -0.5415 -0.1126
 6524SOL     OW30040   3.333   1.060   2.227  0.3336  0.1255  0.5801
 6524SOL    HW130041   3.245   1.026   2.194  0.5108  0.1865  0.0438
 6524SOL    HW230042   3.387   0.983   2.261  0.1319  0.0687  0.7753
 6525SOL     OW30043   1.126   8.659   1.361 -0.5469  0.0451  0.5993
 6525SOL    HW130044   1.094   8.643   1.268 -0.3132  0.8019  0.3867
 6525SOL    HW230045   1.056   8.709   1.413 -0.3523  0.3331  0.5893
 6526SOL     OW30046   0.216   3.096   1.325  1.0226  0.6467  0.2486
 6526SOL    HW130047   0.168   3.183   1.330  0.0939  0.1977 -0.7051
 6526SOL    HW230048   0.261   3.087   1.237  1.4418  0.3367  0.4951
 6527SOL     OW30049   0.957   7.031   0.871  0.1187  0.4740 -0.3690
 6527SOL    HW130050   0.919   7.111   0.824 -1.3867  0.0958  0.2092
 6527SOL    HW230051   0.886   6.963   0.885  1.7989 -1.8462 -2.6298
 6528SOL     OW30052   5.790   9.357   1.064 -0.2953  0.2840  0.2675
 6528SOL    HW130053   5.796   9.292   1.140  1.1566  1.4235  1.1306
 6528SOL    HW230054   5.693   9.375   1.044 -0.7355 -2.2166 -0.0659
 6529SOL     OW30055   8.447   3.763   0.125 -0.7376  0.4935 -0.7302
 6529SOL    HW130056   8.512   3.794   0.194 -2.0759  1.2241  0.2213
 6529SOL    HW230057   8.380   3.702   0.168 -0.5530 -0.4410 -1.7483
 6530SOL     OW30058   1.831   6.308   1.139  0.6162  0.0526 -0.0370
 6530SOL    HW130059   1.841   6.256   1.224  0.8064  1.8693  1.0812
 6530SOL    HW230060   1.766   6.383   1.153 -0.4312 -0.4653 -1.9126
 6531SOL     OW30061   3.154   0.891   3.881 -0.3561  0.2362 -0.0332
 6531SOL    HW130062   3.134   0.842   3.966 -0.8820  0.4217 -0.0463
 6531SOL    HW230063   3.251   0.913   3.877 -0.1977 -0.4059  0.1854
 6532SOL     OW30064   3.168   8.952   1.651  0.4669 -0.5051  0.6140
 6532SOL    HW130065   3.153   8.854   1.637  0.7683 -0.6634  1.3864
 6532SOL    HW230066   3.191   8.995   1.564  1.2411 -1.2856  0.4275
 6533SOL     OW30067   4.251   0.786   0.556  0.0171 -0.0444 -0.1835
 6533SOL    HW130068   4.178   0.731   0.515 -0.7724  0.7666  0.1284
 6533SOL    HW230069   4.306   0.828   0.483  0.2721 -0.7688 -0.4184
 6534SOL     OW30070   1.111   5.775   2.056  0.0734  0.3112 -0.1259
 6534SOL    HW130071   1.089   5.762   1.959 -1.1580  0.0402  0.1841
 6534SOL    HW230072   1.187   5.715   2.081 -0.0907 -0.1631 -0.7394
 6535SOL     OW30073   2.123   6.733   3.973  0.5725  0.6057 -0.4644
 6535SOL    HW130074   2.205   6.687   3.938  1.6424 -0.0780  2.7366
 6535SOL    HW230075   2.149   6.796   4.047 -1.5505  2.1448 -0.9746
 6536SOL     OW30076   4.427   8.908   3.572 -0.1473  0.5716  0.7046
 6536SOL    HW130077   4.343   8.947   3.611 -0.5629  2.0533 -1.5548
 6536SOL    HW230078   4.407   8.871   3.481  1.7958  1.5676 -0.1483
 6537SOL     OW30079   0.384   4.751   2.145 -0.1082  0.2300 -0.3424
 6537SOL    HW130080   0.397   4.682   2.217 -0.0367  0.1445 -0.4370
 6537SOL    HW230081   0.435   4.833   2.168 -0.4101  0.3505 -0.0947
 6538SOL     OW30082   8.960   6.427   1.654  0.0199  0.5041 -0.7181
 6538SOL    HW130083   8.970   6.507   1.712 -1.0551  0.2369 -0.1609
 6538SOL    HW230084   8.954   6.456   1.558 -1.0107  1.1322 -0.4680
 6539SOL     OW30085   9.180   3.470   2.105  0.1822 -0.0775  0.1294
 6539SOL    HW130086   9.217   3.379   2.126  2.3456  0.8484  0.5424
 6539SOL    HW230087   9.210   3.497   2.013 -1.9311 -0.4884 -0.7043
 6540SOL     OW30088   6.684   8.241   2.520 -0.0721  0.7633 -0.0794
 6540SOL    HW130089   6.718   8.323   2.475  3.7199 -2.0004 -2.5407
 6540SOL    HW230090   6.745   8.217   2.595 -0.2396 -0.6474 -0.3842
 6541SOL     OW30091   4.183   8.075   1.972  0.0010 -0.0418  0.1115
 6541SOL    HW130092   4.219   8.087   2.064  1.5438  0.4805 -0.5404
 6541SOL    HW230093   4.238   8.007   1.923 -1.6327 -1.3374  0.0014
 6542SOL     OW30094   8.819   7.801   1.090 -0.8965 -0.2314 -0.3642
 6542SOL    HW130095   8.737   7.856   1.102 -0.2526  0.4689  0.8728
 6542SOL    HW230096   8.887   7.826   1.159  0.4992 -0.5362 -1.5847
 6543SOL     OW30097   0.511   4.827   0.712 -0.3441 -0.3274 -0.8967
 6543SOL    HW130098   0.494   4.821   0.613 -1.2663 -1.7733 -0.6659
 6543SOL    HW230099   0.475   4.746   0.757 -1.8591  1.3066  0.9135
 6544SOL     OW30100   0.858   1.746   1.969  0.0858 -0.2750 -0.0647
 6544SOL    HW130101   0.778   1.730   2.027  1.3927 -2.4839  1.2275
 6544SOL    HW230102   0.941   1.729   2.022  1.3772  0.4141 -1.8320
 6545SOL     OW30103   3.031   4.799   3.873  0.2967  0.4414  0.0739
 6545SOL    HW130104   3.089   4.718   3.879 -0.3888  0.0546  1.8169
 6545SOL    HW230105   3.087   4.881   3.886  0.7963  0.1896 -0.4537
 6546SOL     OW30106   8.933   3.438   0.602  0.0723 -0.1538 -0.1059
 6546SOL    HW130107   9.018   3.490   0.600 -0.5243  0.8052 -0.5595
 6546SOL    HW230108   8.870   3.479   0.669 -0.4323 -0.2324 -0.5290
 6547SOL     OW30109   2.357   3.042   0.810 -0.2713  0.2630  0.9998
 6547SOL    HW130110   2.380   3.119   0.868  0.8418 -1.2969  2.6856
 6547SOL    HW230111   2.436   2.980   0.803 -0.6024  0.0683 -1.6150
 6548SOL     OW30112   8.231   5.453   1.274 -0.0235 -0.3187  0.3064
 6548SOL    HW130113   8.214   5.494   1.184  1.3512  1.6579  0.8981
 6548SOL    HW230114   8.244   5.355   1.265 -0.2465 -0.1813 -1.6133
 6549SOL     OW30115   3.156   8.687   1.574  0.7512 -0.0982  0.1929
 6549SOL    HW130116   3.104   8.675   1.659 -0.5553  1.4060 -0.3704
 6549SOL    HW230117   3.136   8.610   1.513  1.1694 -0.8361  0.9571
 6550SOL     OW30118   1.058   6.490   0.308 -0.2172  0.3013  0.1533
 6550SOL    HW130119   1.087   6.408   0.260 -0.9202  0.0826  0.0896
 6550SOL    HW230120   0.961   6.481   0.334  0.3687  0.0509  2.3378
 6551SOL     OW30121   9.372   4.298   0.274 -0.2212  0.0438  0.1706
 6551SOL    HW130122   9.319   4.245   0.340 -0.6979  1.7385  1.1963
 6551SOL    HW230123   9.469   4.278   0.284 -0.4475 -1.0747  0.1354
 6552SOL     OW30124   8.264   1.140   2.951 -0.2741  0.6356  0.2912
 6552SOL    HW130125   8.307   1.197   2.881 -1.4963  2.4398  0.9552
 6552SOL    HW230126   8.286   1.044   2.934  1.3823  1.2461 -1.1815
 6553SOL     OW30127   1.977   8.028   0.606 -0.4161 -0.2386  0.2054
 6553SOL    HW130128   2.039   7.968   0.657  0.4200  1.0703  0.7426
 6553SOL    HW230129   1.998   8.022   0.509 -0.4736 -0.9595  0.2301
 6554SOL     OW30130   9.859   7.504   0.338  0.4069  0.4026  0.5730
 6554SOL    HW130131   9.772   7.552   0.354  0.4943  1.1218 -1.0392
 6554SOL    HW230132   9.856   7.415   0.383 -0.8902  0.7203  1.1520
 6555SOL     OW30133   8.288   1.735   1.429  0.1598 -0.0074  0.4432
 6555SOL    HW130134   8.377   1.732   1.381 -0.2000 -0.3026 -0.2148
 6555SOL    HW230135   8.283   1.661   1.495  1.0683  1.0088  1.6857
 6556SOL     OW30136   4.397   0.952   2.317 -0.0883  0.1128  0.4831
 6556SOL    HW130137   4.450   0.868   2.309  0.9398  0.7288  0.6457
 6556SOL    HW230138   4.307   0.940   2.276  0.7177 -0.4881 -1.1309
 6557SOL     OW30139   9.165   3.268   1.868  0.3005 -0.3163  0.0501
 6557SOL    HW130140   9.141   3.202   1.940  1.2028  0.6181  1.2290
 6557SOL    HW230141   9.227   3.225   1.803  0.7116 -0.7128  0.6939
 6558SOL     OW30142   8.621   9.081   3.007 -0.7663 -0.2860 -0.7915
 6558SOL    HW130143   8.572   9.167   2.993  0.2183  0.4153  0.0454
 6558SOL    HW230144   8.719   9.095   2.990 -0.3042 -0.7322  1.3634
 6559SOL     OW30145   1.426   5.218   0.957 -0.1029  0.1228  0.1161
 6559SOL    HW130146   1.474   5.290   0.908  0.1487  1.0615  1.7059
 6559SOL    HW230147   1.414   5.139   0.897 -0.9630  1.7153 -1.8348
 6560SOL     OW30148   9.234   2.518   1.426 -0.2245 -0.0541 -0.4789
 6560SOL    HW130149   9.221   2.428   1.466  0.1754  0.2959  0.4569
 6560SOL    HW230150   9.230   2.588   1.497 -1.2363  0.7351 -1.2939
 6561SOL     OW30151   2.907   9.997   0.483 -0.2820  0.3760  0.2041
 6561SOL    HW130152   2.997  10.021   0.519  0.0350 -0.0860 -0.2711
 6561SOL    HW230153   2.849   9.964   0.557  0.5994 -1.2648  0.1854
 6562SOL     OW30154   0.391   1.549   0.284 -0.2320 -0.5057 -0.4118
 6562SOL    HW130155   0.298   1.575   0.258 -0.6218 -1.6054 -0.1196
 6562SOL    HW230156   0.453   1.624   0.260 -1.1456  0.1396 -0.8367
 6563SOL     OW30157   2.214   2.459   2.840 -0.8444 -0.2148 -0.2303
 6563SOL    HW130158   2.166   2.494   2.760  0.0412 -0.4462 -0.8724
 6563SOL    HW230159   2.157   2.390   2.885 -2.0377  1.0671  0.2915
 6564SOL     OW30160   3.723   8.033   2.518 -0.1643 -0.1750  0.2156
 6564SOL    HW130161   3.792   8.040   2.590  0.9049  2.3440 -0.9850
 6564SOL    HW230162   3.650   8.098   2.536 -0.4410 -0.3114 -0.3953
 6565SOL     OW30163   2.807   9.554   1.178 -0.8646  0.8025  0.1016
 6565SOL    HW130164   2.806   9.540   1.079 -1.5027  0.6528  0.1279
 6565SOL    HW230165   2.894   9.596   1.204 -1.1783  1.9848 -0.6880
 6566SOL     OW30166   0.784   0.748   0.647 -0.2236 -0.0812 -0.2563
 6566SOL    HW130167   0.713   0.726   0.715  0.5689  0.6507  0.8300
 6566SOL    HW230168   0.874   0.727   0.685  0.1113 -1.7479 -1.9223
 6567SOL     OW30169   3.070   5.308   0.182 -0.2792  0.1616 -0.3763
 6567SOL    HW130170   3.051   5.333   0.277  1.0814  1.3290 -0.3997
 6567SOL    HW230171   3.157   5.347   0.154 -0.2258 -0.9542 -1.8253
 6568SOL     OW30172   9.600   5.625   1.271 -0.5511  0.3859  0.1853
 6568SOL    HW130173   9.649   5.623   1.184 -1.5096  0.9642 -0.3788
 6568SOL    HW230174   9.514   5.575   1.262 -0.8859  0.8685  0.6546
 6569SOL     OW30175   8.748   8.255   2.558  0.6083  0.2260  0.0626
 6569SOL    HW130176   8.824   8.265   2.622  0.9799  1.7384 -0.5900
 6569SOL    HW230177   8.664   8.232   2.608  1.8285 -3.3857  0.6313
 6570SOL     OW30178   9.047   2.147   2.497  0.9356 -0.1453  0.5484
 6570SOL    HW130179   8.989   2.100   2.430 -0.2082  2.1487 -0.1143
 6570SOL    HW230180   9.142   2.144   2.466  0.8890 -1.9310  0.4962
 6571SOL     OW30181   9.030   8.005   3.867 -0.0289 -0.6295 -0.1957
 6571SOL    HW130182   9.067   7.970   3.953 -1.4318 -0.4380  0.5001
 6571SOL    HW230183   8.931   8.019   3.877  0.0140  0.6169 -1.4294
 6572SOL     OW30184   4.079   4.083   3.416 -0.1354 -0.4642 -0.8765
 6572SOL    HW130185   4.094   4.084   3.515  2.6777 -0.7965 -1.2516
 6572SOL    HW230186   4.029   4.000   3.391  1.3266 -1.6650  0.0333
 6573SOL     OW30187   2.677   3.123   2.658 -0.2959 -0.6811  0.1359
 6573SOL    HW130188   2.587   3.148   2.693 -0.0824 -0.1145  0.3006
 6573SOL    HW230189   2.682   3.145   2.560  0.1441  0.6471  0.4487
 6574SOL     OW30190   5.124   1.396   1.819  0.2457  0.0387  0.0689
 6574SOL    HW130191   5.081   1.407   1.908 -0.1969  0.7964 -0.2316
 6574SOL    HW230192   5.222   1.380   1.831  0.3694  1.1936  0.6595
 6575SOL     OW30193   7.843   3.000   3.873 -0.8894  0.1042  0.2050
 6575SOL    HW130194   7.935   3.038   3.882 -0.4848 -1.0632  1.2421
 6575SOL    HW230195   7.794   3.046   3.799  0.6079  0.5918 -0.4925
 6576SOL     OW30196   1.948   7.345   3.814 -0.0030  0.0938  0.5462
 6576SOL    HW130197   1.959   7.429   3.866  0.7499  0.4646 -0.1888
 6576SOL    HW230198   1.851   7.321   3.807 -0.1540  0.4716  1.4244
 6577SOL     OW30199   9.306   2.170   2.398 -0.1168 -0.2134 -0.2922
 6577SOL    HW130200   9.373   2.100   2.374 -0.4596  0.0807 -2.1568
 6577SOL    HW230201   9.284   2.225   2.317 -1.0541  1.0250  0.7738
 6578SOL     OW30202   3.418   7.828   0.761 -0.2846 -0.5094  0.3231
 6578SOL    HW130203   3.437   7.889   0.839  1.1773  2.5377 -2.2885
 6578SOL    HW230204   3.321   7.832   0.740 -0.5582 -0.7423  1.4775
 6579SOL     OW30205   4.820   0.200   2.791 -0.0364  0.2571 -0.3803
 6579SOL    HW130206   4.865   0.278   2.748  0.8181 -0.1119 -0.1678
 6579SOL    HW230207   4.721   0.209   2.781  0.0711  1.1916 -0.6524
 6580SOL     OW30208   1.056   5.959   2.757  0.0687 -0.2544  0.0364
 6580SOL    HW130209   1.129   5.964   2.825  1.9088 -3.2541 -1.5643
 6580SOL    HW230210   1.087   6.001   2.671 -1.1112  0.8575  0.1468
 6581SOL     OW30211   9.389   9.246   2.301  0.1544 -0.0177 -0.4604
 6581SOL    HW130212   9.459   9.177   2.284  0.6283  0.7530 -1.6572
 6581SOL    HW230213   9.332   9.217   2.378  1.2450 -1.0506 -0.0320
 6582SOL     OW30214   9.276   9.668   2.748  0.4864  0.4960  0.2212
 6582SOL    HW130215   9.303   9.572   2.748 -0.2289  0.2738 -0.7301
 6582SOL    HW230216   9.192   9.679   2.802  2.1419  1.0899  2.7140
 6583SOL     OW30217   5.566   9.272   2.946 -0.4017  0.1774 -0.0532
 6583SOL    HW130218   5.543   9.365   2.917  1.7874  1.3102  1.6457
 6583SOL    HW230219   5.584   9.216   2.865 -1.4478  1.3124 -1.0940
 6584SOL     OW30220   9.099   8.297   0.111 -0.5397 -0.6535  0.1436
 6584SOL    HW130221   9.016   8.333   0.070 -0.8173 -3.4874 -1.9494
 6584SOL    HW230222   9.177   8.318   0.052 -0.1102 -0.0838  0.8996
 6585SOL     OW30223   9.843   7.366   2.223  0.4849  0.3102 -0.0052
 6585SOL    HW130224   9.872   7.312   2.303  3.5124  0.8816 -0.6637
 6585SOL    HW230225   9.862   7.314   2.140  1.8052  1.6400 -0.5541
 6586SOL     OW30226   1.143   8.194   1.664  0.2705  0.6115  0.2505
 6586SOL    HW130227   1.127   8.207   1.762  0.5074  0.0587  0.3620
 6586SOL    HW230228   1.057   8.171   1.619 -0.0271  1.8134  0.1661
 6587SOL     OW30229   4.449   0.163   1.337  0.3813 -0.1614 -0.0435
 6587SOL    HW130230   4.394   0.142   1.257  2.7205  0.5635 -1.8993
 6587SOL    HW230231   4.448   0.262   1.353  1.3975 -0.1019 -0.2992
 6588SOL     OW30232   2.705   9.889   3.041  0.4580 -0.3052  0.3281
 6588SOL    HW130233   2.695   9.982   3.076 -0.0929  0.1524 -1.0002
 6588SOL    HW230234   2.623   9.837   3.061 -0.9755  0.7473 -2.5660
 6589SOL     OW30235   1.468   5.587   2.920  0.0029  0.2133  0.6157
 6589SOL    HW130236   1.385   5.641   2.905 -0.9602 -0.3945  3.4663
 6589SOL    HW230237   1.510   5.613   3.006  2.8135  0.4742 -0.7652
 6590SOL     OW30238   0.381   2.936   2.047 -0.3029 -0.4021 -0.2172
 6590SOL    HW130239   0.349   2.854   1.999  1.4804 -1.7004  0.7407
 6590SOL    HW230240   0.479   2.947   2.031 -0.4332  1.2622  0.0888
 6591SOL     OW30241   0.393   9.264   1.285 -0.2810 -0.5782 -0.0162
 6591SOL    HW130242   0.443   9.191   1.239 -2.3210 -1.2090 -1.3236
 6591SOL    HW230243   0.330   9.307   1.220 -0.1045  1.4319  1.0921
 6592SOL     OW30244   2.970   3.463   1.570 -0.0228  0.1067 -0.2835
 6592SOL    HW130245   2.900   3.447   1.500  1.7392  0.2556 -2.1341
 6592SOL    HW230246   3.044   3.396   1.557  0.8713  0.9051  0.6972
 6593SOL     OW30247   8.946   3.042   3.139  0.3871  0.0712  0.1082
 6593SOL    HW130248   8.981   2.957   3.098  3.2027  0.7124  1.0909
 6593SOL    HW230249   8.942   3.032   3.238  0.2072  0.9000  0.1857
 6594SOL     OW30250   9.972   1.366   4.043 -0.2644  0.5063  0.1613
 6594SOL    HW130251  10.016   1.308   3.974  0.0005  0.2027  0.5825
 6594SOL    HW230252  10.008   1.342   4.134  1.2312  2.5920  0.1464
 6595SOL     OW30253   2.648   7.090   3.009  0.5023  0.1525  0.2028
 6595SOL    HW130254   2.586   7.100   3.087  2.3278 -1.3113  1.9002
 6595SOL    HW230255   2.598   7.107   2.924 -2.0996 -0.5622  1.5468
 6596SOL     OW30256   4.872   7.783   0.096  0.0102  0.2991 -0.2632
 6596SOL    HW130257   4.964   7.801   0.129  0.7140 -0.8143 -1.5442
 6596SOL    HW230258   4.821   7.731   0.165  0.4800  0.5472  0.2741
 6597SOL     OW30259   7.808   1.225   3.802 -0.0970  0.9260 -0.3576
 6597SOL    HW130260   7.806   1.133   3.842  2.3488  0.0527 -2.1021
 6597SOL    HW230261   7.878   1.280   3.847 -1.0219  1.6833  0.1572
 6598SOL     OW30262   9.776   6.287   3.122  0.0622  0.2632 -0.3402
 6598SOL    HW130263   9.758   6.305   3.219  0.9590 -3.4601  0.5724
 6598SOL    HW230264   9.873   6.297   3.103  0.0723 -0.3014 -0.5836
 6599SOL     OW30265   9.224   5.883   3.510  0.3019  0.0206  0.6473
 6599SOL    HW130266   9.224   5.783   3.512  0.3180  0.0202  0.6289
 6599SOL    HW230267   9.306   5.917   3.557 -0.0094  0.0380  1.1818
 6600SOL     OW30268   0.280   6.799   3.372 -0.2521 -0.2824 -0.0881
 6600SOL    HW130269   0.336   6.784   3.453 -0.2252  2.0008  0.3333
 6600SOL    HW230270   0.201   6.856   3.396 -0.1240  0.6007 -1.7124
 6601SOL     OW30271   0.249   1.803   2.654 -0.0187 -0.2406 -0.1887
 6601SOL    HW130272   0.296   1.834   2.571  1.1958  1.2247  1.0246
 6601SOL    HW230273   0.150   1.816   2.642  0.1640  0.2478 -1.2931
 6602SOL     OW30274   6.113   8.434   2.794 -0.3283 -0.1364 -0.4005
 6602SOL    HW130275   6.054   8.499   2.746  1.5952  1.1271 -1.1525
 6602SOL    HW230276   6.076   8.415   2.885 -2.5039 -0.3304 -1.3154
 6603SOL     OW30277   4.189   9.568   1.053 -0.7933 -0.3762  0.4259
 6603SOL    HW130278   4.143   9.496   1.000 -0.5596 -0.7988  0.7986
 6603SOL    HW230279   4.250   9.526   1.121 -0.2500  0.1791  0.2818
 6604SOL     OW30280   2.761   9.326   3.365 -0.0591  0.1894  0.2271
 6604SOL    HW130281   2.683   9.377   3.330 -0.5238 -0.5464  0.1776
 6604SOL    HW230282   2.789   9.364   3.453 -1.0282 -0.1014  0.6640
 6605SOL     OW30283   3.641   1.776   1.494 -0.4355  0.1526  0.0203
 6605SOL    HW130284   3.610   1.705   1.430 -0.3260 -0.3784  0.5497
 6605SOL    HW230285   3.596   1.862   1.472 -1.1530 -0.2590 -0.1533
 6606SOL     OW30286   4.592   2.712   1.427 -0.3864  0.0244 -0.2825
 6606SOL    HW130287   4.560   2.729   1.334 -0.9481  0.8899  0.0610
 6606SOL    HW230288   4.555   2.626   1.460  0.7971 -0.8933 -1.2917
 6607SOL     OW30289   0.505   8.867   1.020 -0.7413  0.3009  0.4801
 6607SOL    HW130290   0.562   8.848   0.940 -2.1333 -0.3324 -0.3806
 6607SOL    HW230291   0.427   8.804   1.021 -0.1612 -0.4217  2.9410
 6608SOL     OW30292   9.397   4.669   3.719 -0.2925  0.2782  0.1220
 6608SOL    HW130293   9.431   4.575   3.721 -1.5015 -0.1793 -0.0905
 6608SOL    HW230294   9.298   4.668   3.702 -0.3525  1.5799  0.3314
 6609SOL     OW30295   7.794   4.399   3.409 -0.4430 -0.2982 -0.2000
 6609SOL    HW130296   7.785   4.433   3.316  0.0314 -1.0048 -0.5103
 6609SOL    HW230297   7.716   4.340   3.431 -0.5052 -0.2100 -0.1865
 6610SOL     OW30298   3.189   6.604   1.301 -0.4011  0.4816  0.5942
 6610SOL    HW130299   3.123   6.543   1.346 -0.5667 -0.9141 -1.4534
 6610SOL    HW230300   3.205   6.572   1.208  2.0421  1.6935  0.5648
 6611SOL     OW30301   1.098   1.171   2.337 -1.0187  0.5670  0.0662
 6611SOL    HW130302   1.085   1.141   2.243 -1.3166 -0.5779  0.4628
 6611SOL    HW230303   1.186   1.136   2.371 -1.5736 -0.2594  0.6783
 6612SOL     OW30304   8.071   6.845   1.603  0.0654  0.2047 -0.2000
 6612SOL    HW130305   8.095   6.755   1.640  0.1616  0.5351  0.5496
 6612SOL    HW230306   7.971   6.856   1.605  0.1447  0.8171  1.4009
 6613SOL     OW30307   9.529   0.392   2.805 -0.2043 -0.5200 -0.3379
 6613SOL    HW130308   9.475   0.314   2.773  0.8339 -0.8394 -1.3577
 6613SOL    HW230309   9.608   0.360   2.856 -0.6223 -0.0778  0.5899
 6614SOL     OW30310   9.592   1.764   3.918 -0.0632  0.2531 -0.4459
 6614SOL    HW130311   9.624   1.685   3.867  0.8761  1.9372 -2.5347
 6614SOL    HW230312   9.492   1.768   3.915 -0.1200 -0.8957 -0.2404
 6615SOL     OW30313   3.662   4.444   0.658 -0.4206  0.0837 -0.4449
 6615SOL    HW130314   3.630   4.531   0.695  0.8854  0.4691 -0.1997
 6615SOL    HW230315   3.641   4.439   0.560 -0.9912  0.4383 -0.3400
 6616SOL     OW30316   1.619   8.951   0.867 -0.2394  0.2822  0.4661
 6616SOL    HW130317   1.537   8.980   0.818  0.1749 -1.1178 -1.1037
 6616SOL    HW230318   1.599   8.867   0.917 -0.3999  1.2109  2.0136
 6617SOL     OW30319   3.531   9.401   1.822 -0.1090 -0.4376 -0.4605
 6617SOL    HW130320   3.526   9.320   1.764 -0.6202 -0.3511 -0.5367
 6617SOL    HW230321   3.547   9.372   1.917 -0.0929 -0.6188 -0.5172
 6618SOL     OW30322   8.435   7.150   1.653  0.9654  0.1635  0.5016
 6618SOL    HW130323   8.418   7.240   1.612  0.3388 -0.3630 -0.4180
 6618SOL    HW230324   8.435   7.081   1.581 -0.0113 -0.7610  1.3698
 6619SOL     OW30325   9.323   1.234   0.855  0.7293 -0.0852  0.5762
 6619SOL    HW130326   9.268   1.178   0.793  0.8369  1.5114 -1.0103
 6619SOL    HW230327   9.346   1.181   0.936  0.0543 -2.0207 -0.4630
 6620SOL     OW30328   0.136   8.919   2.830  0.2087  0.2179 -0.5388
 6620SOL    HW130329   0.116   8.998   2.772 -1.5675 -0.3143 -0.7115
 6620SOL    HW230330   0.227   8.884   2.810  1.0429  2.2728 -0.3909
 6621SOL     OW30331   9.176   0.894   3.749 -0.2144  0.1061 -0.0583
 6621SOL    HW130332   9.160   0.826   3.677 -2.1166  1.1929 -0.7010
 6621SOL    HW230333   9.089   0.919   3.791  0.4848  1.9666  0.3178
 6622SOL     OW30334   6.582   7.395   1.723 -0.1518 -0.3410  0.9461
 6622SOL    HW130335   6.660   7.372   1.781 -1.5370 -1.2641  2.4632
 6622SOL    HW230336   6.517   7.320   1.723 -0.7033  0.1222 -0.9217
 6623SOL     OW30337   9.967   9.696   1.904  0.1053 -0.0561 -0.2975
 6623SOL    HW130338  10.053   9.721   1.859  0.3334 -1.2001 -0.5183
 6623SOL    HW230339   9.978   9.706   2.003  0.1153  0.9206 -0.3901
 6624SOL     OW30340   5.276   0.032   2.809  0.3367 -0.1081  0.1637
 6624SOL    HW130341   5.214  -0.016   2.870  0.3950 -2.0699 -1.2722
 6624SOL    HW230342   5.228   0.054   2.724  0.9257  0.4858 -0.0184
 6625SOL     OW30343   7.960   7.161   2.767 -0.1559  0.5816 -0.1138
 6625SOL    HW130344   7.937   7.064   2.775  2.1987  0.1059  1.4722
 6625SOL    HW230345   7.938   7.194   2.675 -0.3487 -1.6304 -0.8739
 6626SOL     OW30346   9.085   6.755   3.337  0.9945  0.7468  0.0652
 6626SOL    HW130347   9.037   6.800   3.413  0.6642  1.9614 -0.8486
 6626SOL    HW230348   9.184   6.759   3.354  0.8712 -0.0383  1.0024
 6627SOL     OW30349   3.704   5.858   3.338 -0.1651  0.7949  0.1753
 6627SOL    HW130350   3.685   5.788   3.406 -0.1709  1.6760  1.0928
 6627SOL    HW230351   3.700   5.948   3.381  0.3295  1.3294 -0.8822
 6628SOL     OW30352   7.737   3.770   0.054 -0.3204 -0.0615  0.1290
 6628SOL    HW130353   7.694   3.685   0.084  0.5062 -0.0046  1.5135
 6628SOL    HW230354   7.741   3.835   0.131 -1.0016  1.2642 -0.9199
 6629SOL     OW30355   7.557   3.780   3.882 -0.1190 -0.2102  0.2536
 6629SOL    HW130356   7.630   3.769   3.950  0.5706  0.4982 -0.3548
 6629SOL    HW230357   7.502   3.860   3.905 -1.0592 -1.0732  1.0254
 6630SOL     OW30358   0.744   3.360   2.911  0.3431  0.5494  0.0609
 6630SOL    HW130359   0.740   3.275   2.963 -0.7410 -0.4038 -1.5804
 6630SOL    HW230360   0.836   3.371   2.872  0.3387 -0.1094 -0.1339
 6631SOL     OW30361   0.179   2.997   3.824  0.2496 -0.0401  0.1283
 6631SOL    HW130362   0.133   2.917   3.864  0.5561 -0.4692 -0.3547
 6631SOL    HW230363   0.133   3.080   3.854  0.1964 -0.3754  0.9918
 6632SOL     OW30364   2.342   1.474   1.606  0.2886 -0.1895  0.1320
 6632SOL    HW130365   2.325   1.460   1.703  0.0508  1.1815  0.3009
 6632SOL    HW230366   2.400   1.555   1.593 -0.6917  0.3691 -0.9131
 6633SOL     OW30367   4.886   1.022   0.685 -0.0753 -0.4476 -0.0165
 6633SOL    HW130368   4.850   1.101   0.734 -1.0925 -0.5468 -0.5846
 6633SOL    HW230369   4.983   1.037   0.664  0.5619 -0.6877  2.5594
 6634SOL     OW30370   3.061   3.484   2.041  0.1841  0.5046 -0.3148
 6634SOL    HW130371   3.077   3.531   1.954 -0.2328 -0.1854 -0.7718
 6634SOL    HW230372   3.073   3.548   2.117  1.9941  0.7690 -0.7993
 6635SOL     OW30373   0.721   7.285   0.333  0.6971  0.3591 -0.0183
 6635SOL    HW130374   0.712   7.355   0.262 -1.7067  0.7726  0.6584
 6635SOL    HW230375   0.721   7.328   0.423 -0.3278 -0.4822  0.3871
 6636SOL     OW30376   0.988   0.461   1.950 -0.2040  0.5115  0.8383
 6636SOL    HW130377   1.000   0.560   1.957 -1.1495  0.7299 -0.5904
 6636SOL    HW230378   0.973   0.436   1.855  3.0025 -1.3490  0.7502
 6637SOL     OW30379   8.762   4.358   0.448  0.5470 -0.2063  0.0983
 6637SOL    HW130380   8.681   4.416   0.436  1.8327  1.8269  0.9094
 6637SOL    HW230381   8.799   4.334   0.358  1.0305  1.7700 -0.2619
 6638SOL     OW30382   2.517   5.794   4.017 -0.7019  0.4556 -0.4617
 6638SOL    HW130383   2.510   5.700   4.052 -0.5969  0.8764  0.7365
 6638SOL    HW230384   2.425   5.831   4.006 -0.7326  0.4864 -0.1347
 6639SOL     OW30385   1.255   5.978   2.963  0.1275  0.0981 -0.0331
 6639SOL    HW130386   1.305   5.921   3.027 -1.4453  0.1993  1.3119
 6639SOL    HW230387   1.172   6.013   3.006  0.0823  1.8581 -1.4467
 6640SOL     OW30388   2.205   3.959   2.589  1.0671 -0.2227  0.5079
 6640SOL    HW130389   2.237   4.030   2.526 -0.4410  0.0258  0.0080
 6640SOL    HW230390   2.124   3.915   2.550  0.0273  0.0412  2.3427
 6641SOL     OW30391   6.636   8.996   2.233  0.1065 -0.1637  0.1931
 6641SOL    HW130392   6.713   9.052   2.201 -0.2556  0.9564  1.2502
 6641SOL    HW230393   6.575   8.977   2.157  0.6192  0.2549 -0.3323
 6642SOL     OW30394   8.824   4.230   3.756  0.3488 -0.2291  0.3516
 6642SOL    HW130395   8.844   4.280   3.671 -0.2741 -0.5544  0.0038
 6642SOL    HW230396   8.886   4.152   3.765  1.6409  0.8663  1.1368
 6643SOL     OW30397   9.995   8.405   2.010  0.0811  0.1832  1.0117
 6643SOL    HW130398  10.085   8.445   2.027 -0.0499  1.0495 -0.3043
 6643SOL    HW230399   9.925   8.460   2.054  0.1250 -0.0700  1.4009
 6644SOL     OW30400   6.499   7.712   2.635  0.2904  0.0467 -0.6142
 6644SOL    HW130401   6.522   7.806   2.610  0.0755  0.2694  0.0243
 6644SOL    HW230402   6.404   7.708   2.668  0.4467 -0.3106 -0.1996
 6645SOL     OW30403   1.728   9.687   1.994  0.4080 -0.0335  0.3276
 6645SOL    HW130404   1.772   9.646   1.915  1.3387  0.4959  0.5546
 6645SOL    HW230405   1.687   9.616   2.051 -0.0342 -0.4318 -0.4892
 6646SOL     OW30406   4.168   3.506   4.043  0.1177  0.2583 -0.0526
 6646SOL    HW130407   4.222   3.590   4.036  0.1621  0.2417  0.0796
 6646SOL    HW230408   4.137   3.479   3.952  0.0938  0.4236 -0.0942
 6647SOL     OW30409   9.430   0.243   3.975  0.4290 -0.0468  0.4577
 6647SOL    HW130410   9.454   0.148   3.995  1.3005  0.1124  0.1541
 6647SOL    HW230411   9.348   0.268   4.028  0.5287 -0.7848  0.9709
 6648SOL     OW30412   1.439   5.276   2.741  0.0376 -0.1410  0.4550
 6648SOL    HW130413   1.454   5.200   2.804 -0.0258  0.0662  0.7213
 6648SOL    HW230414   1.351   5.319   2.762  1.4963  1.9850  2.3429
 6649SOL     OW30415   1.331   8.021   0.761  0.6671  1.0469 -0.0323
 6649SOL    HW130416   1.279   7.959   0.820 -1.4463  0.8002 -2.0602
 6649SOL    HW230417   1.273   8.098   0.734  0.6676 -0.2306 -3.9026
 6650SOL     OW30418   4.768   9.693   1.744 -0.3833 -0.5486 -0.0884
 6650SOL    HW130419   4.671   9.713   1.759 -0.0651 -0.6502  2.2797
 6650SOL    HW230420   4.808   9.655   1.827  1.9132  0.3098 -0.7467
 6651SOL     OW30421   1.194   8.292   3.557 -0.5851 -0.2579  0.2043
 6651SOL    HW130422   1.204   8.387   3.587 -2.0679 -0.3685  1.1002
 6651SOL    HW230423   1.284   8.255   3.533 -0.1081  1.6320 -1.0090
 6652SOL     OW30424   8.054   3.252   3.315  0.0279 -0.5262 -0.4967
 6652SOL    HW130425   8.106   3.168   3.301 -0.8867 -1.3264  0.8107
 6652SOL    HW230426   8.025   3.288   3.226  2.2403 -0.4040 -1.2005
 6653SOL     OW30427   9.930   2.939   1.698  0.0535 -0.5500  0.0121
 6653SOL    HW130428   9.958   2.897   1.612 -1.2595  0.2665 -0.8330
 6653SOL    HW230429   9.977   3.027   1.709  0.7576 -0.9858  0.4703
 6654SOL     OW30430   8.750   6.158   0.469  1.2312 -0.1159 -0.1644
 6654SOL    HW130431   8.798   6.223   0.410  1.3526 -0.3080 -0.2783
 6654SOL    HW230432   8.744   6.069   0.423  1.4789 -0.3132  0.1807
 6655SOL     OW30433   4.757   9.345   1.224  0.5213 -0.1240  0.1599
 6655SOL    HW130434   4.686   9.402   1.182  1.5611 -0.3473 -1.9318
 6655SOL    HW230435   4.715   9.262   1.260 -0.2880 -0.2725 -1.0836
 6656SOL     OW30436   3.393   4.321   3.291  0.3151 -0.4194 -0.2963
 6656SOL    HW130437   3.456   4.309   3.368 -0.4202 -0.9731  0.2287
 6656SOL    HW230438   3.309   4.366   3.323  0.0774 -0.4885 -0.8084
 6657SOL     OW30439   1.037   7.441   3.315 -0.5622  0.5619 -0.0428
 6657SOL    HW130440   0.999   7.513   3.258 -0.3253  1.2414  0.6484
 6657SOL    HW230441   1.115   7.398   3.268 -0.0636  1.4396 -0.0227
 6658SOL     OW30442   4.900   8.266   0.475 -0.2168  0.3084 -0.1276
 6658SOL    HW130443   4.832   8.251   0.403 -0.5742  1.8424 -0.1227
 6658SOL    HW230444   4.865   8.332   0.541  1.1818  0.9399 -0.0048
 6659SOL     OW30445   2.167   7.537   0.767 -0.3050 -0.2642 -0.0718
 6659SOL    HW130446   2.160   7.626   0.813  0.6574  0.5864 -1.5387
 6659SOL    HW230447   2.260   7.501   0.780  0.1161  0.2010 -1.7199
 6660SOL     OW30448   8.226   4.303   3.925 -0.3331 -0.0446 -0.3015
 6660SOL    HW130449   8.321   4.273   3.918 -0.7101 -1.5708  1.0562
 6660SOL    HW230450   8.174   4.269   3.847 -0.6277 -2.5309  0.9277
 6661SOL     OW30451   8.942   8.310   1.593  0.0325 -0.1622  0.7521
 6661SOL    HW130452   8.996   8.234   1.558  0.9809 -1.0729  4.0167
 6661SOL    HW230453   8.857   8.275   1.633 -0.0827  0.6031  1.1888
 6662SOL     OW30454   9.358   0.061   1.976 -0.3716 -0.0286  0.4883
 6662SOL    HW130455   9.360  -0.032   1.937 -1.7551 -0.8874  2.4096
 6662SOL    HW230456   9.267   0.101   1.961 -0.4271  0.2152  1.4792
 6663SOL     OW30457   3.546   2.949   0.691 -0.0837 -0.5315 -0.7689
 6663SOL    HW130458   3.572   2.865   0.738  1.2971  0.3907  0.1428
 6663SOL    HW230459   3.626   2.989   0.646  0.2253  2.3855  2.1516
 6664SOL     OW30460   8.703   8.752   0.728 -0.1086  0.2381  0.7689
 6664SOL    HW130461   8.751   8.837   0.750  0.3470 -0.0128  0.7513
 6664SOL    HW230462   8.705   8.738   0.629 -2.8614  1.7821  0.4642
 6665SOL     OW30463   3.208   6.147   0.238 -0.5059 -0.0692 -0.4362
 6665SOL    HW130464   3.114   6.133   0.208 -0.4433  0.1845 -0.7595
 6665SOL    HW230465   3.210   6.210   0.316 -0.5414  0.6449 -0.9960
 6666SOL     OW30466   1.057   9.702   0.638  0.0384 -0.5399  0.1751
 6666SOL    HW130467   1.121   9.765   0.683 -1.3050 -0.2054  1.6562
 6666SOL    HW230468   1.061   9.716   0.539 -0.7727  2.4109  0.5218
 6667SOL     OW30469   2.636   9.049   1.276 -0.7504  0.9105  0.6348
 6667SOL    HW130470   2.621   8.980   1.205  2.5636  0.2141  0.5578
 6667SOL    HW230471   2.684   9.127   1.237  0.6442  0.7379  1.9902
 6668SOL     OW30472   2.754   3.837   1.828  0.3508 -0.1790 -0.0875
 6668SOL    HW130473   2.771   3.745   1.865 -3.2091 -0.4978  0.8654
 6668SOL    HW230474   2.801   3.904   1.885  0.1977 -1.1428  1.1926
 6669SOL     OW30475   0.489   3.090   0.180  0.1775  0.2676  0.1454
 6669SOL    HW130476   0.414   3.042   0.133  1.5824 -0.2049 -1.6430
 6669SOL    HW230477   0.548   3.023   0.225 -0.9524  0.6925  2.3610
 6670SOL     OW30478   7.269   9.123   3.236  0.7123  0.3558 -0.0565
 6670SOL    HW130479   7.362   9.117   3.200  0.4035  0.5443 -0.9031
 6670SOL    HW230480   7.215   9.047   3.202  0.4417  0.4835  0.0868
 6671SOL     OW30481   4.651   8.999   1.067  0.2577  0.0704 -0.6277
 6671SOL    HW130482   4.605   8.940   1.000  0.2261  0.7478 -1.2029
 6671SOL    HW230483   4.750   8.986   1.059  0.3825  2.0342 -2.5669
 6672SOL     OW30484   1.812   1.970   0.365 -0.9263 -0.5734  0.1267
 6672SOL    HW130485   1.767   2.011   0.285 -0.1419 -0.0815 -0.0604
 6672SOL    HW230486   1.757   1.893   0.397 -1.1836 -0.8551 -0.9688
 6673SOL     OW30487   3.548   5.292   2.335 -0.4444 -0.7012  1.0014
 6673SOL    HW130488   3.486   5.248   2.270 -1.4475  0.2292  1.3164
 6673SOL    HW230489   3.496   5.328   2.412  0.5351 -0.2332  1.4558
 6674SOL     OW30490   5.942   7.575   2.618 -0.1550  0.4335 -0.1350
 6674SOL    HW130491   5.909   7.494   2.666 -0.8001  0.4026 -0.6129
 6674SOL    HW230492   5.892   7.584   2.531  0.9334  0.5339 -0.7547
 6675SOL     OW30493   2.444   2.697   2.163  0.4564 -0.0883 -0.0202
 6675SOL    HW130494   2.477   2.773   2.219 -1.0441  0.6386 -0.1029
 6675SOL    HW230495   2.508   2.621   2.170 -0.0063 -0.2679  3.2302
 6676SOL     OW30496   9.702   1.209   0.887 -0.3616 -0.5862 -0.4039
 6676SOL    HW130497   9.645   1.265   0.947 -2.7361 -2.6325 -0.6476
 6676SOL    HW230498   9.655   1.195   0.800  0.0052 -3.2256 -0.2189
 6677SOL     OW30499   7.685   9.836   3.959  0.4974  0.5476 -0.1823
 6677SOL    HW130500   7.723   9.905   3.897  2.2789 -0.9215 -0.7824
 6677SOL    HW230501   7.613   9.785   3.912 -0.7969  1.9471  0.2505
 6678SOL     OW30502   7.978   4.624   0.924  0.0723 -0.4902  0.0735
 6678SOL    HW130503   7.977   4.625   1.024  0.4635  0.4887  0.0815
 6678SOL    HW230504   7.908   4.561   0.889  0.8645 -1.8845  0.9723
 6679SOL     OW30505   0.429   3.512   1.690  0.4160  0.3993 -0.2239
 6679SOL    HW130506   0.409   3.465   1.605  1.9504  2.6218 -1.8825
 6679SOL    HW230507   0.356   3.494   1.757 -1.5530 -0.2139 -2.4756
 6680SOL     OW30508   9.284   5.930   0.638 -0.3114  0.2565  0.5542
 6680SOL    HW130509   9.210   5.890   0.583  0.3770  0.8631 -0.8438
 6680SOL    HW230510   9.368   5.932   0.584  0.2012  1.5366  1.3810
 6681SOL     OW30511   0.688   2.078   2.659 -0.1767 -0.1765  0.3624
 6681SOL    HW130512   0.784   2.109   2.655  0.1467 -0.8482  2.2731
 6681SOL    HW230513   0.684   1.991   2.708 -1.6739 -0.6491 -0.5848
 6682SOL     OW30514   9.505   4.042   3.974  0.0897 -0.0305  0.3186
 6682SOL    HW130515   9.437   3.969   3.972  0.3627 -0.2623 -0.6231
 6682SOL    HW230516   9.459   4.130   3.989 -0.6319  0.0450 -2.2090
 6683SOL     OW30517   3.295   8.765   2.032 -0.4495  0.0907  0.3759
 6683SOL    HW130518   3.347   8.848   2.014 -1.6042  0.4255 -1.4966
 6683SOL    HW230519   3.198   8.786   2.033 -0.7661 -1.2878 -0.4644
 6684SOL     OW30520   1.297   0.187   1.599 -0.0756  0.3334  0.0638
 6684SOL    HW130521   1.284   0.088   1.600  1.6496  0.0953  0.1903
 6684SOL    HW230522   1.359   0.213   1.673 -0.7350  1.5436  0.2070
 6685SOL     OW30523   0.782   1.384   2.041  0.0714  0.1990  0.1025
 6685SOL    HW130524   0.814   1.407   1.949 -1.8437  0.2304 -0.5729
 6685SOL    HW230525   0.685   1.360   2.037 -0.6645  2.5800  2.5035
 6686SOL     OW30526   2.940   9.730   2.000  0.6548 -0.0388  0.2191
 6686SOL    HW130527   3.006   9.724   2.075 -0.6719 -0.6612  1.3751
 6686SOL    HW230528   2.901   9.639   1.983  0.3400  0.2604 -0.6626
 6687SOL     OW30529   3.627   3.546   1.124 -0.4966  0.0207 -0.6883
 6687SOL    HW130530   3.593   3.640   1.119  0.2813  0.5059  2.1017
 6687SOL    HW230531   3.707   3.537   1.066  0.5508  1.6532  0.4384
 6688SOL     OW30532   0.900   7.091   3.319  0.1768 -0.9278 -0.1321
 6688SOL    HW130533   0.869   7.182   3.345  0.1235 -0.8141 -0.6004
 6688SOL    HW230534   0.925   7.040   3.402  1.0976 -0.1727  0.0709
 6689SOL     OW30535   9.248   7.324   3.581 -0.1708 -0.5944 -0.2046
 6689SOL    HW130536   9.169   7.306   3.523 -1.1523  0.4248  0.7887
 6689SOL    HW230537   9.240   7.416   3.620  2.4301  0.2715 -1.5628
 6690SOL     OW30538   4.511   9.303   3.776  0.2866 -0.6886 -0.1967
 6690SOL    HW130539   4.538   9.400   3.777  0.2265 -0.6515 -1.7034
 6690SOL    HW230540   4.586   9.248   3.741  0.0278 -1.1015 -0.1046
 6691SOL     OW30541   0.304   7.688   1.094  0.0191  0.0902 -0.5849
 6691SOL    HW130542   0.273   7.612   1.151 -1.4576  0.2247 -1.1928
 6691SOL    HW230543   0.381   7.657   1.038  1.0030 -0.2499  0.9200
 6692SOL     OW30544   6.978   0.087   3.077 -0.1838 -0.4095 -0.3991
 6692SOL    HW130545   6.903   0.150   3.094  0.0333 -0.4679  0.8053
 6692SOL    HW230546   6.967   0.046   2.986 -0.1053  1.6400 -1.3590
 6693SOL     OW30547   9.716   8.516   2.472 -0.1887 -0.6348  0.3222
 6693SOL    HW130548   9.737   8.472   2.560 -0.7850 -0.0940  0.7425
 6693SOL    HW230549   9.801   8.543   2.427  0.1768 -2.1568  0.0893
 6694SOL     OW30550   0.887   6.650   0.003 -0.5021  0.1627 -0.2625
 6694SOL    HW130551   0.806   6.606  -0.034 -1.3702  0.2066  1.5358
 6694SOL    HW230552   0.956   6.581   0.023 -1.4672 -0.3032  1.5698
 6695SOL     OW30553   9.994   5.857   2.649 -0.1190  0.2148 -0.1742
 6695SOL    HW130554   9.965   5.775   2.601 -0.4106  0.1354  0.1357
 6695SOL    HW230555   9.916   5.899   2.695  0.2538 -0.0208  0.6932
 6696SOL     OW30556   2.899   7.026   3.948  0.2357  0.4607 -0.3155
 6696SOL    HW130557   2.884   7.123   3.964  0.1883  0.1996  1.3062
 6696SOL    HW230558   2.951   7.013   3.863 -0.4688  1.8466 -0.9581
 6697SOL     OW30559   1.365   0.464   1.616 -0.4036  0.7889 -0.1829
 6697SOL    HW130560   1.271   0.499   1.615 -0.7433 -0.0657  0.5288
 6697SOL    HW230561   1.363   0.365   1.606  0.3661  0.6688  0.8202
 6698SOL     OW30562   6.971   9.943   2.541  0.4234 -0.3514 -0.1242
 6698SOL    HW130563   6.948  10.035   2.509 -0.6730 -0.0155  1.5673
 6698SOL    HW230564   7.069   9.939   2.561  0.1844  0.9420  1.3668
 6699SOL     OW30565   8.757   2.932   0.292 -0.4614 -0.3125  0.2839
 6699SOL    HW130566   8.840   2.885   0.323 -0.0441  0.9647  1.1574
 6699SOL    HW230567   8.767   2.960   0.197 -0.0619 -0.5398  0.2600
 6700SOL     OW30568   0.519   8.298   1.399  0.0838  0.2248 -0.3072
 6700SOL    HW130569   0.483   8.386   1.368  1.8728  0.9598 -0.3279
 6700SOL    HW230570   0.528   8.298   1.498 -1.2886 -0.4754 -0.1703
 6701SOL     OW30571   9.223   0.694   1.805  0.4762 -0.1095  0.3775
 6701SOL    HW130572   9.220   0.767   1.737 -0.1313 -0.2757  0.2293
 6701SOL    HW230573   9.318   0.664   1.816  0.8242  1.1290  0.8957
 6702SOL     OW30574   1.892   7.930   1.977  0.7650  0.4847 -0.0907
 6702SOL    HW130575   1.879   7.978   1.891  0.0403  1.7750  0.7256
 6702SOL    HW230576   1.975   7.874   1.972  2.0456  2.4028 -0.7955
 6703SOL     OW30577   4.044   2.600   3.711 -0.1904 -0.3121 -0.3049
 6703SOL    HW130578   4.114   2.536   3.679 -0.3808 -1.7642  2.0484
 6703SOL    HW230579   4.003   2.565   3.795 -0.7327  2.6292  0.7171
 6704SOL     OW30580   4.128   0.720   3.473 -0.0965 -0.2532 -0.1613
 6704SOL    HW130581   4.200   0.663   3.434  0.0946  0.0010 -0.1823
 6704SOL    HW230582   4.070   0.665   3.534 -0.4709 -0.6727 -0.8990
 6705SOL     OW30583   9.802   6.027   1.481 -0.5737  0.0702  0.0685
 6705SOL    HW130584   9.837   6.049   1.390 -1.9612 -1.0858 -0.7722
 6705SOL    HW230585   9.877   6.026   1.547  0.8738 -1.7118 -1.5464
 6706SOL     OW30586   0.200   0.941   2.729 -0.6569 -0.0474 -0.8880
 6706SOL    HW130587   0.110   0.944   2.772 -0.7304 -2.2837 -0.8436
 6706SOL    HW230588   0.251   1.024   2.753 -2.2140  0.6325  0.1422
 6707SOL     OW30589   0.725   0.152   0.687 -0.7688 -0.2380  0.3333
 6707SOL    HW130590   0.777   0.206   0.621 -1.1384  0.1804  0.3878
 6707SOL    HW230591   0.779   0.072   0.714 -0.2269  0.1032  0.2543
 6708SOL     OW30592   9.819   5.218   0.635  0.3283 -0.3132 -0.2695
 6708SOL    HW130593   9.832   5.156   0.557 -0.9647  1.2996 -1.8195
 6708SOL    HW230594   9.722   5.226   0.656  0.6069 -0.1224  1.0175
 6709SOL     OW30595   2.873   0.696   1.873 -0.3021 -0.6376  0.2767
 6709SOL    HW130596   2.897   0.709   1.777 -1.4014  0.5927  0.1422
 6709SOL    HW230597   2.849   0.784   1.913  3.7327 -0.5738  2.7220
 6710SOL     OW30598   4.844   1.880   0.880 -0.0505  0.2619  0.1370
 6710SOL    HW130599   4.855   1.794   0.830 -2.0357 -0.4810  0.8880
 6710SOL    HW230600   4.807   1.860   0.971  1.3712  1.7671  1.0632
 6711SOL     OW30601   8.652   2.424   3.222 -0.0455 -0.2559 -0.2053
 6711SOL    HW130602   8.600   2.451   3.303  0.5696 -0.0933  0.1410
 6711SOL    HW230603   8.590   2.387   3.153 -0.6350  0.0701  0.1454
 6712SOL     OW30604   9.598   4.229   3.018 -0.3490 -0.1274  0.1883
 6712SOL    HW130605   9.596   4.304   2.951 -0.1787 -0.6446 -0.3986
 6712SOL    HW230606   9.686   4.228   3.065 -1.1164  1.3779  1.7332
 6713SOL     OW30607   4.555   8.611   1.689 -0.0808 -0.0558  0.9141
 6713SOL    HW130608   4.566   8.519   1.726 -1.0013 -1.2447 -1.6211
 6713SOL    HW230609   4.475   8.614   1.630  0.3562  2.1860  0.3711
 6714SOL     OW30610   0.580   0.371   1.072 -0.2897 -0.2900  0.4388
 6714SOL    HW130611   0.651   0.316   1.116  0.9460  0.3482 -0.7172
 6714SOL    HW230612   0.495   0.362   1.123  0.7573 -0.6308  2.1907
 6715SOL     OW30613   3.911   1.845   3.046  0.7189 -0.5494  0.0413
 6715SOL    HW130614   3.955   1.920   3.094  0.5449  0.4329 -1.3289
 6715SOL    HW230615   3.944   1.840   2.952 -0.5810 -1.0625 -0.4067
 6716SOL     OW30616   9.306   9.040   1.025  0.6918 -0.4357 -0.0202
 6716SOL    HW130617   9.301   8.971   1.097  0.7271 -0.9231 -0.4826
 6716SOL    HW230618   9.338   8.997   0.940  1.4153  0.2883 -0.1201
 6717SOL     OW30619   2.108   2.551   2.557  0.2156  0.0015  0.3015
 6717SOL    HW130620   2.084   2.648   2.550 -2.5597 -0.7798 -2.4931
 6717SOL    HW230621   2.036   2.503   2.608  0.5134 -0.9438 -0.1618
 6718SOL     OW30622   9.958   9.448   3.425  0.4148 -0.1257 -0.0425
 6718SOL    HW130623   9.931   9.480   3.515  0.3923 -0.5724  0.1110
 6718SOL    HW230624   9.921   9.510   3.355 -0.0235 -0.0848  0.2233
 6719SOL     OW30625   3.185   7.029   1.375  0.0621  0.0424 -0.0257
 6719SOL    HW130626   3.243   7.020   1.294  0.5502 -0.4683  0.3743
 6719SOL    HW230627   3.143   7.120   1.376 -1.4015 -0.5903 -1.8046
 6720SOL     OW30628   2.190   9.584   3.769  0.3067 -0.2382 -0.0221
 6720SOL    HW130629   2.092   9.593   3.749  0.1138  1.1384  1.4319
 6720SOL    HW230630   2.228   9.510   3.714 -1.3708 -0.2472 -1.2325
 6721SOL     OW30631   0.933   9.226   3.139 -0.0374 -0.4678 -0.3195
 6721SOL    HW130632   0.976   9.144   3.176 -0.6118 -1.8108 -2.5314
 6721SOL    HW230633   0.949   9.230   3.041 -0.1162  2.0280 -0.2534
 6722SOL     OW30634   9.422   2.044   3.765  0.3927 -0.7316  0.4546
 6722SOL    HW130635   9.430   1.959   3.713 -0.7917 -0.0344 -0.8992
 6722SOL    HW230636   9.510   2.092   3.763  0.2279 -0.4622 -1.3886
 6723SOL     OW30637   3.177   0.019   2.636 -0.2721  0.0217  0.2672
 6723SOL    HW130638   3.245   0.090   2.620  0.4069 -0.2705  1.8248
 6723SOL    HW230639   3.104   0.054   2.694 -1.4142  0.2974 -1.3050
 6724SOL     OW30640   1.475   0.727   1.436 -0.0013 -0.1668  0.0397
 6724SOL    HW130641   1.441   0.788   1.364  1.0266 -0.1838 -0.4812
 6724SOL    HW230642   1.494   0.637   1.396  3.1196  0.5793 -0.2984
 6725SOL     OW30643   2.107   0.503   3.541  0.0347  0.0540  0.2944
 6725SOL    HW130644   2.096   0.466   3.633  0.9920  0.2337  0.4875
 6725SOL    HW230645   2.168   0.444   3.488  1.2702  1.1396  0.4828
 6726SOL     OW30646   1.796   0.268   0.918  0.2337  0.1210  0.0487
 6726SOL    HW130647   1.866   0.212   0.961  0.5503  0.2563 -0.2889
 6726SOL    HW230648   1.761   0.334   0.985 -0.3725 -0.6843  0.5382
 6727SOL     OW30649   1.659   6.243   2.727  0.2521 -0.4133  0.0913
 6727SOL    HW130650   1.617   6.280   2.810  1.1393 -0.9895  0.8053
 6727SOL    HW230651   1.715   6.313   2.683 -0.3225 -0.0685 -0.1106
 6728SOL     OW30652   2.030   0.908   0.215  0.3947  0.0546  0.3583
 6728SOL    HW130653   2.108   0.919   0.154 -0.6570 -1.6281 -1.3578
 6728SOL    HW230654   1.946   0.931   0.166 -0.2889  0.6917  1.8125
 6729SOL     OW30655   1.961   1.421   2.642  0.1071 -0.0851 -0.2213
 6729SOL    HW130656   2.030   1.470   2.588  1.4724 -1.1005  0.5387
 6729SOL    HW230657   1.911   1.358   2.583 -2.0382  2.5524 -1.3120
 6730SOL     OW30658   9.619   7.959   2.441  0.0068 -0.1977 -0.0097
 6730SOL    HW130659   9.664   8.030   2.386 -0.2577  0.2052  0.2905
 6730SOL    HW230660   9.560   7.904   2.382 -1.6747  1.3601  0.1572
 6731SOL     OW30661   9.082   9.204   0.360  0.5002  0.0415 -0.8495
 6731SOL    HW130662   9.147   9.216   0.285  1.2175  2.0392  0.0495
 6731SOL    HW230663   9.109   9.261   0.437 -0.3608 -1.7925  0.8707
 6732SOL     OW30664   4.933   7.930   2.770  0.1397  0.1051 -0.0562
 6732SOL    HW130665   4.969   7.837   2.783 -1.5602 -0.5365  0.2223
 6732SOL    HW230666   4.866   7.929   2.696  0.7062  1.2946 -0.6051
 6733SOL     OW30667   4.369   8.340   0.954 -0.6652  0.2883  0.6524
 6733SOL    HW130668   4.356   8.275   0.879  1.3683  1.9818 -1.2476
 6733SOL    HW230669   4.293   8.332   1.018  0.8074 -5.8542  1.9967
 6734SOL     OW30670   8.186   8.777   3.911 -0.0650  0.3633  0.3599
 6734SOL    HW130671   8.282   8.804   3.909 -0.2654  1.0193 -0.3155
 6734SOL    HW230672   8.174   8.704   3.978  0.8610  0.4492  0.6276
 6735SOL     OW30673   2.600   4.391   0.074 -0.3749  0.1050 -0.2487
 6735SOL    HW130674   2.564   4.318   0.016  1.2324  0.9854 -2.4148
 6735SOL    HW230675   2.567   4.479   0.041 -0.6513  0.5386  1.1252
 6736SOL     OW30676   4.765   9.467   3.981  0.2359 -0.3566 -0.4098
 6736SOL    HW130677   4.840   9.513   3.933  0.7834  0.0998  0.8380
 6736SOL    HW230678   4.799   9.382   4.022  0.6304  0.8609  1.8909
 6737SOL     OW30679   3.498   8.165   2.568  0.3385 -0.0860 -0.4132
 6737SOL    HW130680   3.489   8.252   2.617 -0.0250 -0.3200 -0.0607
 6737SOL    HW230681   3.408   8.130   2.545  0.4787 -0.4099 -0.4800
 6738SOL     OW30682   3.619   1.769   1.091 -0.1758  0.5975  0.6101
 6738SOL    HW130683   3.537   1.733   1.137 -0.9070  1.2791 -0.1555
 6738SOL    HW230684   3.617   1.869   1.093  0.1275  0.6223 -0.3175
 6739SOL     OW30685   8.755   8.540   1.537  0.4382 -0.1701  0.5243
 6739SOL    HW130686   8.797   8.451   1.521 -1.2965 -1.3201  2.1307
 6739SOL    HW230687   8.664   8.543   1.497 -0.2339  0.2064  2.0223
 6740SOL     OW30688   2.217   5.374   3.203  0.1237 -0.1744  0.4865
 6740SOL    HW130689   2.198   5.294   3.147  1.7530  0.6596 -1.3252
 6740SOL    HW230690   2.145   5.442   3.190 -0.9848 -1.1019  1.6277
 6741SOL     OW30691   8.245   7.899   3.607 -0.4139 -0.3287 -0.2461
 6741SOL    HW130692   8.156   7.896   3.560 -0.3706 -0.1799 -0.3390
 6741SOL    HW230693   8.230   7.906   3.705 -0.5171  1.2262 -0.3579
 6742SOL     OW30694   9.651   4.731   1.505  0.4504 -0.0276 -0.2274
 6742SOL    HW130695   9.653   4.813   1.563  1.6580 -1.4572  1.8199
 6742SOL    HW230696   9.740   4.687   1.507 -0.0022 -1.0400 -1.8511
 6743SOL     OW30697   2.309   5.199   0.495 -0.0183 -0.3603 -0.2320
 6743SOL    HW130698   2.303   5.295   0.524 -0.9914 -0.8550  1.2695
 6743SOL    HW230699   2.226   5.173   0.447 -0.6536 -1.0229  1.1950
 6744SOL     OW30700   1.900   5.059   0.531  0.4293 -0.2461  0.1296
 6744SOL    HW130701   1.962   5.095   0.461 -0.2156  0.4007 -0.1087
 6744SOL    HW230702   1.941   4.978   0.573  0.3218 -1.3123 -1.7840
 6745SOL     OW30703   8.099   2.340   3.853 -0.1715 -0.1212  0.3289
 6745SOL    HW130704   8.130   2.383   3.768 -0.5045  0.0608  0.2982
 6745SOL    HW230705   8.146   2.253   3.865 -0.9029 -0.6509 -0.5756
 6746SOL     OW30706   6.068   6.490   2.192 -0.2753 -1.1582  0.7005
 6746SOL    HW130707   6.138   6.449   2.250  2.3536  1.3939 -0.5544
 6746SOL    HW230708   6.026   6.566   2.241  1.5465  0.6339 -0.4360
 6747SOL     OW30709   1.593   7.497   2.219 -0.2402  0.2441 -0.1765
 6747SOL    HW130710   1.537   7.455   2.291 -2.1895  2.3684 -0.4083
 6747SOL    HW230711   1.562   7.465   2.129 -0.6037  0.8172 -0.2627
 6748SOL     OW30712   4.940   8.776   3.664  0.1325  0.6040  0.7076
 6748SOL    HW130713   4.887   8.702   3.706 -0.4354  0.4509 -0.2820
 6748SOL    HW230714   4.881   8.855   3.648  0.3093  0.6067  0.0574
 6749SOL     OW30715   4.245   0.957   2.066  0.3484  0.4642  0.3347
 6749SOL    HW130716   4.199   0.881   2.018 -0.1611 -0.9783  3.0122
 6749SOL    HW230717   4.341   0.960   2.037  0.4994 -1.5192  0.5023
 6750SOL     OW30718   3.795   4.420   2.350 -0.2064  0.1354 -0.5775
 6750SOL    HW130719   3.849   4.391   2.271 -0.1210  0.9647 -0.8280
 6750SOL    HW230720   3.847   4.404   2.434 -0.0132 -0.0941 -0.7419
 6751SOL     OW30721   7.417   8.648   2.199 -0.0325 -0.8925  0.0593
 6751SOL    HW130722   7.375   8.582   2.137  0.2016 -1.1731  0.2014
 6751SOL    HW230723   7.470   8.714   2.147 -1.1688 -0.1596 -0.1752
 6752SOL     OW30724   4.460   4.786   1.182 -0.7441  0.5462 -0.1665
 6752SOL    HW130725   4.408   4.705   1.156 -1.7280  1.2546 -0.4381
 6752SOL    HW230726   4.515   4.817   1.104  0.7598 -0.6985  0.3765
 6753SOL     OW30727   2.112   0.733   3.274  0.9044 -0.3400  0.1412
 6753SOL    HW130728   2.065   0.757   3.359  0.9190  0.4404 -0.0680
 6753SOL    HW230729   2.161   0.647   3.287 -0.6772 -1.2477  0.3290
 6754SOL     OW30730   2.750   4.330   1.030  0.1094 -0.2528  0.2677
 6754SOL    HW130731   2.743   4.397   0.957  1.9234 -1.0039 -0.6197
 6754SOL    HW230732   2.821   4.358   1.095  0.9960 -1.3697 -0.1995
 6755SOL     OW30733   9.699   9.761   3.317  0.0243 -0.0368 -0.2614
 6755SOL    HW130734   9.796   9.768   3.342 -0.2501 -1.7712  1.4195
 6755SOL    HW230735   9.651   9.843   3.346  0.7081  0.1967  0.2247
 6756SOL     OW30736   3.329   5.362   3.976  0.4865 -0.2158 -0.6010
 6756SOL    HW130737   3.368   5.273   4.000  0.5181 -0.0453 -0.0161
 6756SOL    HW230738   3.309   5.364   3.878 -0.3335 -1.1846 -0.4717
 6757SOL     OW30739   8.530   1.132   3.875  0.1511 -0.1321  0.4232
 6757SOL    HW130740   8.476   1.192   3.933 -2.2770 -1.5821 -0.2543
 6757SOL    HW230741   8.547   1.176   3.787 -0.5139  0.0834  0.4008
 6758SOL     OW30742   8.279   2.056   0.316 -0.4076  0.3754 -0.1391
 6758SOL    HW130743   8.313   2.089   0.404 -2.6241 -0.0912  0.9298
 6758SOL    HW230744   8.181   2.075   0.309 -0.0702  1.2502 -2.9162
 6759SOL     OW30745   1.531   9.943   2.659 -0.3349  0.2721 -0.6283
 6759SOL    HW130746   1.530   9.877   2.584 -0.5895 -1.1780  0.6136
 6759SOL    HW230747   1.581   9.903   2.737 -2.4095  0.6374  0.9288
 6760SOL     OW30748   8.017   2.941   0.353 -0.4427 -0.0198 -0.2966
 6760SOL    HW130749   7.918   2.936   0.363 -0.7982  0.8052 -3.0933
 6760SOL    HW230750   8.041   2.953   0.257  2.3473  0.7106  0.4300
 6761SOL     OW30751   8.070   7.673   3.828 -0.0239  0.2597 -0.0597
 6761SOL    HW130752   8.020   7.760   3.830  0.7931  0.7243  0.3858
 6761SOL    HW230753   8.039   7.618   3.751 -1.3048  0.4977  0.2805
 6762SOL     OW30754   8.217   1.665   0.306  0.2673 -0.3720  0.2282
 6762SOL    HW130755   8.169   1.627   0.227  1.7093 -1.1565 -0.2855
 6762SOL    HW230756   8.275   1.595   0.348  1.5791  0.7537  0.3482
 6763SOL     OW30757   0.308   4.790   2.566  0.0380  0.0594 -0.0669
 6763SOL    HW130758   0.258   4.714   2.525  0.4522 -0.1880 -0.1184
 6763SOL    HW230759   0.252   4.872   2.562  0.6823  0.4351 -2.6235
 6764SOL     OW30760   2.045   4.269   3.518 -0.4627 -0.0010  0.1530
 6764SOL    HW130761   2.136   4.243   3.485 -0.2350  1.3954 -0.3494
 6764SOL    HW230762   1.980   4.269   3.442  0.0409  3.1218 -0.3226
 6765SOL     OW30763   9.806   2.018   2.530  0.2110  0.8218 -0.1642
 6765SOL    HW130764   9.822   1.996   2.434 -0.8818 -0.2976 -0.1064
 6765SOL    HW230765   9.747   2.098   2.537 -0.8234  0.0981 -0.4559
 6766SOL     OW30766   9.364   5.482   1.216  0.1670 -0.3686  0.0114
 6766SOL    HW130767   9.326   5.549   1.153  1.2018  1.7341  1.5653
 6766SOL    HW230768   9.296   5.410   1.233 -0.3919 -0.5882 -2.8610
 6767SOL     OW30769   3.826   8.523   1.230  0.1503 -0.3177 -0.0233
 6767SOL    HW130770   3.765   8.602   1.230 -2.6240 -2.3969  0.5451
 6767SOL    HW230771   3.861   8.508   1.137  0.5441  1.4343 -0.1698
 6768SOL     OW30772   1.296   4.471   0.291  0.3075 -0.3357  0.1462
 6768SOL    HW130773   1.364   4.535   0.255  0.1033 -0.1102  0.1616
 6768SOL    HW230774   1.256   4.419   0.215 -0.3706  0.3807  0.0061
 6769SOL     OW30775   2.944   3.464   0.950 -0.8208  0.7489  0.1035
 6769SOL    HW130776   2.991   3.543   0.911 -1.0717  0.7900 -0.1145
 6769SOL    HW230777   2.919   3.401   0.877  0.4329 -0.1014  0.3820
 6770SOL     OW30778   4.010   8.669   1.706 -0.4760 -0.5696 -0.4779
 6770SOL    HW130779   4.093   8.617   1.725  1.0956  1.3566 -1.8845
 6770SOL    HW230780   3.989   8.665   1.608 -0.8012  0.7715 -0.4694
 6771SOL     OW30781   9.735   2.010   1.008 -0.3300 -0.2159 -0.2450
 6771SOL    HW130782   9.729   2.106   0.983  0.9056  0.7224  2.9140
 6771SOL    HW230783   9.830   1.985   1.025 -0.5213 -2.2735 -1.9485
 6772SOL     OW30784   9.843   4.032   1.442  0.4990  0.1658  0.6158
 6772SOL    HW130785   9.759   4.057   1.490 -1.2118 -0.8909 -1.7507
 6772SOL    HW230786   9.887   4.114   1.406 -0.9385  0.4954 -0.4117
 6773SOL     OW30787   3.287   4.426   2.002 -0.4031 -0.0027  0.3952
 6773SOL    HW130788   3.352   4.397   1.932 -0.2282 -0.6382  0.8185
 6773SOL    HW230789   3.331   4.425   2.091 -0.5965  0.9070  0.5054
 6774SOL     OW30790   8.313   5.073   3.222 -0.7460 -0.3678  0.2769
 6774SOL    HW130791   8.403   5.099   3.256 -0.3633  0.3775 -1.2486
 6774SOL    HW230792   8.265   5.020   3.292  0.0155  1.0548  1.9213
 6775SOL     OW30793   8.680   2.542   2.092  0.6694 -0.0733  0.1488
 6775SOL    HW130794   8.590   2.579   2.115  1.3047  1.0500  0.8734
 6775SOL    HW230795   8.716   2.489   2.169  1.7890  1.7416  0.8997
 6776SOL     OW30796   9.498   9.075   1.850 -0.1953  0.3804  1.2608
 6776SOL    HW130797   9.431   9.001   1.862 -0.4334  0.4017  0.1789
 6776SOL    HW230798   9.590   9.038   1.861 -0.3024 -0.1542  0.4058
 6777SOL     OW30799   9.033   2.456   2.350 -0.4725 -0.0681  0.0905
 6777SOL    HW130800   9.062   2.502   2.266  0.1028  1.3842  1.0638
 6777SOL    HW230801   9.076   2.366   2.355  1.0729  0.6495 -0.1964
 6778SOL     OW30802   1.635   5.504   1.143 -0.1484  0.3995  0.1728
 6778SOL    HW130803   1.591   5.558   1.214 -0.4323  0.8167 -0.3173
 6778SOL    HW230804   1.646   5.560   1.061 -1.0832 -0.4890 -0.5710
 6779SOL     OW30805   3.504   5.997   3.687 -0.0219  0.6996  0.4935
 6779SOL    HW130806   3.490   5.916   3.744 -0.1806  0.9807  0.8536
 6779SOL    HW230807   3.434   6.000   3.616 -1.1865  1.5372  1.6476
 6780SOL     OW30808   0.777   8.965   3.898  0.2765 -0.0300 -0.2708
 6780SOL    HW130809   0.738   8.964   3.990  1.0756  0.2915  0.0778
 6780SOL    HW230810   0.737   8.891   3.844  0.2323 -0.5933  0.5250
 6781SOL     OW30811   1.719   7.674   2.581 -0.1963  0.2266 -0.3094
 6781SOL    HW130812   1.733   7.685   2.483  1.9872 -2.9134 -0.4251
 6781SOL    HW230813   1.790   7.722   2.631 -0.5229  0.6964 -0.2924
 6782SOL     OW30814   1.958   3.164   2.568  0.3742 -0.5123  0.2434
 6782SOL    HW130815   1.943   3.169   2.469  1.0908  1.5337  0.2093
 6782SOL    HW230816   1.873   3.138   2.613 -0.7167  1.2040 -0.7161
 6783SOL     OW30817   7.792   4.525   0.501  0.1700 -0.1049 -0.4406
 6783SOL    HW130818   7.796   4.433   0.462  1.7251 -0.2130 -0.0668
 6783SOL    HW230819   7.830   4.590   0.435 -1.2301  0.3308 -0.8361
 6784SOL     OW30820   4.615   0.306   0.081 -0.2621  0.0217  0.2198
 6784SOL    HW130821   4.611   0.232   0.147 -2.7336 -0.4241 -0.3827
 6784SOL    HW230822   4.582   0.274  -0.008 -1.8904  1.9476  0.0763
 6785SOL     OW30823   8.983   6.576   1.903  0.2155 -0.6985 -0.4171
 6785SOL    HW130824   9.034   6.543   1.983 -0.6204  1.1681  0.9269
 6785SOL    HW230825   8.903   6.518   1.888 -0.5408 -0.1026  1.1569
 6786SOL     OW30826   3.538   4.877   2.129 -0.5738  0.6373 -0.3562
 6786SOL    HW130827   3.592   4.793   2.138 -1.3343  0.3297  1.5205
 6786SOL    HW230828   3.581   4.937   2.062  2.8694  0.9757  1.9999
 6787SOL     OW30829   1.515   4.999   2.827 -0.5996  0.0776 -0.0175
 6787SOL    HW130830   1.590   4.949   2.870  0.1500  0.3802 -0.9399
 6787SOL    HW230831   1.471   4.940   2.759 -0.4030  0.3098 -0.3472
 6788SOL     OW30832   1.244   8.676   0.068 -0.3420 -0.6687  0.2802
 6788SOL    HW130833   1.155   8.716   0.047 -0.5268 -0.6451  1.0714
 6788SOL    HW230834   1.254   8.588   0.021 -0.5514 -0.4078 -0.2545
 6789SOL     OW30835   3.494   8.385   4.048  0.2573 -0.5003 -0.1941
 6789SOL    HW130836   3.478   8.473   4.094 -0.8945 -1.0531  0.4800
 6789SOL    HW230837   3.406   8.343   4.026  0.8093 -1.3494 -0.8069
 6790SOL     OW30838   1.779   3.669   2.072  0.7426 -0.0614 -0.0023
 6790SOL    HW130839   1.725   3.749   2.097  0.8307  0.1642 -0.5129
 6790SOL    HW230840   1.735   3.621   1.996  2.1234  1.1083 -1.5830
 6791SOL     OW30841   5.058   7.694   2.815  0.9876  0.1588  0.3174
 6791SOL    HW130842   5.028   7.635   2.890  0.9395  0.2751  0.3896
 6791SOL    HW230843   5.146   7.663   2.780  0.2605 -0.8736 -0.6455
 6792SOL     OW30844   2.037   9.078   2.523  0.4272 -0.4256 -0.4715
 6792SOL    HW130845   2.130   9.101   2.495  1.0545  0.3500  2.1079
 6792SOL    HW230846   2.002   9.149   2.585 -2.1311 -0.3694 -1.9098
 6793SOL     OW30847   2.411   1.084   2.162 -0.1046  0.3388  0.1026
 6793SOL    HW130848   2.351   1.073   2.241 -0.6595 -2.1391 -0.6370
 6793SOL    HW230849   2.477   1.009   2.158 -1.1802 -0.5281 -2.7222
 6794SOL     OW30850   9.498   5.953   0.205 -0.6134 -0.2331  0.2854
 6794SOL    HW130851   9.597   5.964   0.199 -0.7772 -0.0669 -3.3603
 6794SOL    HW230852   9.470   5.951   0.301  2.7161  1.3974  1.3575
 6795SOL     OW30853   2.304   3.276   0.593 -0.3867 -0.0268 -0.2274
 6795SOL    HW130854   2.211   3.242   0.579  0.2708 -1.1886 -2.0372
 6795SOL    HW230855   2.367   3.199   0.595  0.4732  0.7089  1.6975
 6796SOL     OW30856   1.727   3.450   2.829 -0.2104 -0.0867 -1.0737
 6796SOL    HW130857   1.813   3.399   2.840 -1.7250 -2.4293  0.4570
 6796SOL    HW230858   1.741   3.545   2.859  1.1592 -1.1439  1.9174
 6797SOL     OW30859   8.457   5.228   0.207 -0.4428  0.1832  0.1180
 6797SOL    HW130860   8.431   5.313   0.163  0.2115  0.1070 -0.4194
 6797SOL    HW230861   8.378   5.189   0.255 -0.9151  0.7243 -0.2251
 6798SOL     OW30862   0.760   0.885   1.601 -0.1782  0.1813  0.5316
 6798SOL    HW130863   0.670   0.899   1.560  0.0647 -2.2276 -0.9382
 6798SOL    HW230864   0.827   0.942   1.554 -0.7643  1.3101  1.0406
 6799SOL     OW30865   9.583   3.167   1.753 -0.0361  0.2967 -0.6535
 6799SOL    HW130866   9.486   3.143   1.755  0.0769 -0.1098  0.1125
 6799SOL    HW230867   9.637   3.095   1.797  0.2912  1.9924  1.8185
 6800SOL     OW30868   2.806   5.520   2.009 -0.3072 -0.3772 -0.7140
 6800SOL    HW130869   2.781   5.435   2.055  2.1656 -2.0724 -2.4142
 6800SOL    HW230870   2.900   5.545   2.033  0.3433 -0.2522 -3.2335
 6801SOL     OW30871   9.591   5.467   0.085  0.4410 -0.2862  0.8481
 6801SOL    HW130872   9.585   5.560   0.048  0.7029 -0.6550 -0.1241
 6801SOL    HW230873   9.533   5.406   0.031 -2.0818 -0.1515  3.2678
 6802SOL     OW30874   3.123   9.614   2.176  0.7937  0.5146  0.0187
 6802SOL    HW130875   3.168   9.591   2.262 -2.3337  0.1948  1.6473
 6802SOL    HW230876   3.169   9.567   2.101  2.0806 -1.1634  1.8040
 6803SOL     OW30877   8.320   4.146   2.447 -0.6993  0.2284 -0.2018
 6803SOL    HW130878   8.311   4.063   2.502  0.8219 -0.4601 -0.9577
 6803SOL    HW230879   8.404   4.194   2.473 -1.2892  1.2481 -0.1492
 6804SOL     OW30880   1.003   0.121   0.397 -0.6314  0.0677  0.4924
 6804SOL    HW130881   0.960   0.201   0.439  0.5038  1.1863 -0.4556
 6804SOL    HW230882   0.941   0.080   0.331 -0.6040  1.1290 -0.1963
 6805SOL     OW30883   0.350   2.683   0.679 -0.0732 -0.7320  0.3715
 6805SOL    HW130884   0.384   2.598   0.638 -0.8838 -0.3484 -1.1067
 6805SOL    HW230885   0.405   2.760   0.648  0.6682 -0.7038  1.7231
 6806SOL     OW30886   5.041   7.226   2.425 -0.3725 -0.6620 -0.0631
 6806SOL    HW130887   5.020   7.213   2.328  0.3217 -1.3443 -0.1210
 6806SOL    HW230888   4.999   7.311   2.457  0.2459  0.0822 -1.2097
 6807SOL     OW30889   2.982   7.696   2.833  0.3204 -0.1849  0.1321
 6807SOL    HW130890   2.996   7.765   2.763 -1.1441  0.5664  0.5674
 6807SOL    HW230891   2.954   7.610   2.790  0.7882 -0.1236 -0.2992
 6808SOL     OW30892   1.206   6.564   3.168 -0.2576 -0.4713 -0.1769
 6808SOL    HW130893   1.163   6.647   3.205 -0.1420 -0.6556  0.3732
 6808SOL    HW230894   1.296   6.587   3.132 -1.0523  0.0380 -1.8955
 6809SOL     OW30895   8.049   2.706   1.142 -0.0993  0.0130  0.2333
 6809SOL    HW130896   8.002   2.628   1.182  0.6872  0.6073  2.3714
 6809SOL    HW230897   8.062   2.777   1.212  1.3918  1.0386 -1.0435
 6810SOL     OW30898   8.110   7.868   2.623 -0.6807  0.6735 -0.0841
 6810SOL    HW130899   8.040   7.796   2.627 -1.1649  1.2013  1.5386
 6810SOL    HW230900   8.182   7.847   2.689 -1.0753  1.9218  0.7598
 6811SOL     OW30901   4.415   9.202   4.030  0.4108 -0.0594 -0.6910
 6811SOL    HW130902   4.432   9.239   3.939  0.4969  1.1717 -0.1974
 6811SOL    HW230903   4.398   9.278   4.094 -0.6577 -0.9467  0.1065
 6812SOL     OW30904   2.859   9.714   3.997 -0.7557 -0.7167 -0.4572
 6812SOL    HW130905   2.818   9.782   4.058 -0.5378 -1.4243  0.4828
 6812SOL    HW230906   2.787   9.675   3.939 -0.7043  1.1605 -1.8654
 6813SOL     OW30907   7.079   9.412   1.764 -0.3491  0.1373  0.1216
 6813SOL    HW130908   7.022   9.450   1.838 -0.7174  0.4999 -0.3470
 6813SOL    HW230909   7.094   9.482   1.694 -0.6682 -0.4496 -0.5383
 6814SOL     OW30910   2.488   6.019   0.558  0.8343  0.1241  0.6485
 6814SOL    HW130911   2.461   6.082   0.484  0.3230 -0.5708  0.2441
 6814SOL    HW230912   2.427   6.031   0.636 -0.5492 -1.2929 -0.1837
 6815SOL     OW30913   3.489   6.704   2.326  0.2475  0.2201  0.1775
 6815SOL    HW130914   3.576   6.746   2.354  1.5722 -1.8397 -0.6526
 6815SOL    HW230915   3.489   6.692   2.227 -1.3092  0.8418  0.0958
 6816SOL     OW30916   1.781   0.814   3.385 -0.4140  0.5712  0.1904
 6816SOL    HW130917   1.728   0.860   3.314 -0.7255 -1.0765 -0.6748
 6816SOL    HW230918   1.855   0.762   3.343 -0.4918 -0.2726  1.0738
 6817SOL     OW30919   0.946   6.554   2.097 -0.3310  0.0335 -0.0636
 6817SOL    HW130920   0.946   6.458   2.125  0.5724 -0.2873 -1.1170
 6817SOL    HW230921   0.948   6.613   2.178 -0.6533 -0.8392  0.5842
 6818SOL     OW30922   0.351   6.517   2.882  0.3429  0.0871  0.2034
 6818SOL    HW130923   0.405   6.526   2.798  2.8732  0.4691  1.8069
 6818SOL    HW230924   0.346   6.606   2.927  0.3980 -0.4438  1.2707
 6819SOL     OW30925   9.085   9.388   3.448 -0.0593 -0.4055 -0.3719
 6819SOL    HW130926   9.121   9.402   3.356 -0.0992 -2.8431 -0.7850
 6819SOL    HW230927   9.132   9.311   3.491 -1.2778 -0.4110  0.9767
 6820SOL     OW30928   3.797   9.657   3.820 -0.2452  0.2306 -0.0292
 6820SOL    HW130929   3.714   9.633   3.869 -0.6654  1.5330 -0.0923
 6820SOL    HW230930   3.832   9.744   3.854  0.1006  0.5718 -1.2377
 6821SOL     OW30931   0.164   4.732   1.904 -0.8709  0.0772 -0.6382
 6821SOL    HW130932   0.110   4.685   1.975 -0.8594  0.7696 -0.1642
 6821SOL    HW230933   0.261   4.713   1.918 -0.9326 -0.5871 -1.0637
 6822SOL     OW30934   2.673   0.189   3.439 -0.2457 -0.2248 -0.3590
 6822SOL    HW130935   2.721   0.110   3.477 -0.1991  0.2979  0.6883
 6822SOL    HW230936   2.621   0.234   3.512  0.9337  1.6019 -0.6166
 6823SOL     OW30937   1.413   8.517   2.388  0.2597  0.2028  0.3722
 6823SOL    HW130938   1.455   8.608   2.387 -2.2112  1.3557 -1.3052
 6823SOL    HW230939   1.371   8.501   2.477 -0.1223  1.0768  0.3530
 6824SOL     OW30940   4.528   9.874   3.230 -0.6268 -0.2053 -0.0976
 6824SOL    HW130941   4.477   9.799   3.188 -0.2464  0.0289 -0.9951
 6824SOL    HW230942   4.526   9.864   3.329 -0.6891 -1.3420 -0.1999
 6825SOL     OW30943   3.362   2.921   1.086  0.7189 -0.0610 -0.8222
 6825SOL    HW130944   3.408   2.992   1.139  0.9280 -0.1961 -0.8248
 6825SOL    HW230945   3.271   2.954   1.059  0.4819 -0.1174 -0.1033
 6826SOL     OW30946   9.340   9.909   2.546  0.4189  0.0296  0.0835
 6826SOL    HW130947   9.246   9.940   2.555 -0.0669 -1.1387 -0.8200
 6826SOL    HW230948   9.358   9.838   2.615 -0.9256 -3.3303 -2.8641
 6827SOL     OW30949   8.314   0.886   2.903 -0.7884  0.1780 -0.0739
 6827SOL    HW130950   8.375   0.808   2.919 -1.1467  0.1966  1.4758
 6827SOL    HW230951   8.223   0.865   2.938 -0.8475  1.3404  0.5124
 6828SOL     OW30952   8.994   4.833   0.906 -0.0875 -0.4098  0.1203
 6828SOL    HW130953   8.961   4.866   0.995  1.4401  3.5313 -0.6785
 6828SOL    HW230954   9.087   4.798   0.916 -0.9598 -2.6913  0.5684
 6829SOL     OW30955   9.676   0.408   2.121 -0.2923 -0.2763  0.3806
 6829SOL    HW130956   9.746   0.439   2.056 -1.7385  0.4630 -0.8931
 6829SOL    HW230957   9.659   0.310   2.109  0.6176 -0.4828  0.7907
 6830SOL     OW30958   7.401   9.126   1.965 -0.1122 -0.5777 -0.0425
 6830SOL    HW130959   7.350   9.052   2.011 -0.4731 -1.0804 -1.2338
 6830SOL    HW230960   7.343   9.167   1.895  0.1805  0.6823  0.4518
 6831SOL     OW30961   8.968   3.427   2.629 -0.3523  0.6126  0.0818
 6831SOL    HW130962   8.949   3.525   2.629  0.6627  0.8287  1.9157
 6831SOL    HW230963   9.061   3.411   2.596 -0.6969  0.2083 -0.7166
 6832SOL     OW30964   2.027   4.465   0.797 -0.0823  0.3158 -0.4172
 6832SOL    HW130965   2.060   4.450   0.704 -1.5875 -0.4400 -0.8566
 6832SOL    HW230966   2.040   4.382   0.851 -2.7062 -0.5897 -1.0755
 6833SOL     OW30967   4.187   1.609   1.762 -0.1617  0.3969 -0.6669
 6833SOL    HW130968   4.130   1.556   1.824 -0.2233 -1.7762 -2.5411
 6833SOL    HW230969   4.266   1.644   1.812 -1.9757  1.6585  1.4510
 6834SOL     OW30970   0.866   3.525   2.210  0.3519 -0.7070 -0.2445
 6834SOL    HW130971   0.842   3.516   2.306  1.5244 -0.7586  0.0568
 6834SOL    HW230972   0.866   3.435   2.167 -0.3426 -0.6643 -0.3411
 6835SOL     OW30973   1.240   4.133   2.555  0.0699 -0.0118 -0.5393
 6835SOL    HW130974   1.338   4.119   2.563 -0.0921 -2.0508 -1.7393
 6835SOL    HW230975   1.221   4.207   2.490  0.8558  2.9121  2.4243
 6836SOL     OW30976   2.394   4.944   1.504 -0.4764 -0.1619 -0.1640
 6836SOL    HW130977   2.361   4.947   1.598 -1.4859  0.4793 -0.5337
 6836SOL    HW230978   2.328   4.989   1.444 -0.0789 -1.0225 -1.2535
 6837SOL     OW30979   9.175   0.162   0.357 -0.5869  0.3432 -0.3215
 6837SOL    HW130980   9.261   0.182   0.404 -0.9525  2.3792 -0.4940
 6837SOL    HW230981   9.098   0.177   0.419 -0.9163  0.2966 -0.7140
 6838SOL     OW30982   2.026   6.523   1.296  0.0532 -0.3507 -0.0940
 6838SOL    HW130983   2.006   6.455   1.226 -1.7933 -1.2432  1.2519
 6838SOL    HW230984   1.957   6.595   1.293  0.2007 -0.1809  0.5362
 6839SOL     OW30985   4.240   1.851   1.553 -0.2014  0.5314 -0.5444
 6839SOL    HW130986   4.156   1.799   1.537  0.2050 -0.2761 -0.0718
 6839SOL    HW230987   4.226   1.915   1.629 -0.9701  1.7451 -1.6708
 6840SOL     OW30988   4.871   9.258   1.727 -0.1982  0.0660  0.3888
 6840SOL    HW130989   4.842   9.325   1.659  1.0351  1.6459  1.3692
 6840SOL    HW230990   4.965   9.279   1.756 -0.9617 -0.0859  3.1092
 6841SOL     OW30991   7.814   8.770   4.032  0.8972 -0.0525 -0.0510
 6841SOL    HW130992   7.757   8.830   3.976  0.4141  0.2883  0.8040
 6841SOL    HW230993   7.908   8.770   3.996  0.8980  1.2067 -0.0646
 6842SOL     OW30994   8.895   1.630   0.800 -0.2398  0.1588 -0.0403
 6842SOL    HW130995   8.969   1.671   0.854 -0.9012  0.0886  0.9124
 6842SOL    HW230996   8.863   1.547   0.843 -0.1537 -0.3952 -1.0264
 6843SOL     OW30997   1.147   3.506   2.141  0.3022  0.5758 -0.4000
 6843SOL    HW130998   1.050   3.518   2.164  0.1866 -1.7064  0.4388
 6843SOL    HW230999   1.154   3.457   2.054  0.6623 -1.6026  0.8301
 6844SOL     OW31000   8.988   1.174   0.751  0.0021  0.1006  0.2709
 6844SOL    HW131001   8.895   1.166   0.715 -0.0815 -1.3712  0.7773
 6844SOL    HW231002   8.991   1.139   0.845  0.7890  1.4065  0.7665
 6845SOL     OW31003   9.342   1.447   1.343  0.3768 -0.1761  0.2410
 6845SOL    HW131004   9.362   1.543   1.324  0.4523 -0.4869 -1.3374
 6845SOL    HW231005   9.277   1.440   1.419  0.6876  1.0972  0.6300
 6846SOL     OW31006   3.845   5.457   1.672 -0.0352 -0.1550  0.1865
 6846SOL    HW131007   3.821   5.361   1.690  0.7619 -0.1145  1.5446
 6846SOL    HW231008   3.848   5.507   1.759 -0.9707  1.2286 -0.5676
 6847SOL     OW31009   4.359   2.285   1.212  0.0175  0.5730  0.0824
 6847SOL    HW131010   4.334   2.217   1.281 -0.4377 -0.2253 -0.8443
 6847SOL    HW231011   4.441   2.334   1.241  0.5302 -0.5967  0.6328
 6848SOL     OW31012   0.772   7.594   1.955  0.1202  0.2628 -0.3395
 6848SOL    HW131013   0.865   7.624   1.976  0.0736  1.0335 -1.1766
 6848SOL    HW231014   0.707   7.637   2.017  0.3158 -0.2888  0.2566
 6849SOL     OW31015   9.059   3.128   2.427 -0.7703  0.6574  0.3288
 6849SOL    HW131016   9.112   3.211   2.442 -2.2302  1.9414 -1.3173
 6849SOL    HW231017   8.973   3.133   2.477 -1.7929  1.1083 -1.4205
 6850SOL     OW31018   1.050   0.512   0.574 -0.5067 -0.5779  0.2485
 6850SOL    HW131019   1.031   0.569   0.654 -2.3368 -0.8501  0.0139
 6850SOL    HW231020   1.077   0.570   0.497 -1.0195 -0.1401  0.4003
 6851SOL     OW31021   9.242   8.819   1.251 -0.3001  0.2051 -0.3890
 6851SOL    HW131022   9.205   8.744   1.305 -0.1211 -0.9830 -1.8686
 6851SOL    HW231023   9.328   8.851   1.292 -0.6855 -0.0040  0.5782
 6852SOL     OW31024   7.821   1.663   1.201 -0.6040  0.2940  0.2336
 6852SOL    HW131025   7.825   1.740   1.265 -1.0632 -0.6086  1.3566
 6852SOL    HW231026   7.905   1.610   1.208 -1.3356 -0.7374  1.2637
 6853SOL     OW31027   3.884   4.823   1.966 -0.2949  0.0479  0.1789
 6853SOL    HW131028   3.889   4.911   1.919 -1.7317  0.2536  0.4115
 6853SOL    HW231029   3.794   4.782   1.950  0.2093 -1.1752  0.4379
 6854SOL     OW31030   4.696   2.164   1.648  0.1285 -0.2714  0.0617
 6854SOL    HW131031   4.728   2.090   1.589  0.3691 -0.9445  1.0289
 6854SOL    HW231032   4.772   2.226   1.669 -0.2877  0.8384 -1.5657
 6855SOL     OW31033   1.246   2.011   1.678 -0.0515  0.4899  0.3246
 6855SOL    HW131034   1.339   1.983   1.653  0.2484  1.4742  0.3051
 6855SOL    HW231035   1.195   2.035   1.596 -1.1731 -2.4968  0.0810
 6856SOL     OW31036   6.834   9.705   3.238  0.1216  0.0093 -0.0997
 6856SOL    HW131037   6.877   9.615   3.236  0.2285 -0.0168  2.4943
 6856SOL    HW231038   6.893   9.771   3.191  1.7196 -0.5630  1.0874
 6857SOL     OW31039   3.625   0.333   0.295  0.2588 -0.1954  0.0776
 6857SOL    HW131040   3.630   0.426   0.333  1.3517 -0.3712  0.3713
 6857SOL    HW231041   3.601   0.269   0.368  2.4999 -0.5538  0.5335
 6858SOL     OW31042   8.833   0.525   3.670 -0.0612 -0.8892  0.5403
 6858SOL    HW131043   8.851   0.451   3.734  0.3263 -0.7625  0.5834
 6858SOL    HW231044   8.771   0.494   3.599 -0.4094 -1.0591  0.9221
 6859SOL     OW31045   3.109   9.027   0.826 -0.3928 -0.2607  0.3442
 6859SOL    HW131046   3.066   8.937   0.833  0.7266 -0.6516  2.8346
 6859SOL    HW231047   3.055   9.094   0.878 -1.7118  0.7323 -2.2265
 6860SOL     OW31048   0.096   0.257   2.037 -0.2947  0.0328  0.3138
 6860SOL    HW131049   0.068   0.352   2.053 -0.2791  0.2906 -1.0401
 6860SOL    HW231050   0.192   0.246   2.063 -0.3133  0.3810  0.5349
 6861SOL     OW31051   9.169   1.212   2.070 -0.1783  0.3794  0.1526
 6861SOL    HW131052   9.228   1.168   2.002 -1.6158  0.2055 -0.9928
 6861SOL    HW231053   9.224   1.236   2.151  0.9979 -1.8655  0.0542
 6862SOL     OW31054   1.094   8.838   2.394  0.2786  0.1234 -0.4347
 6862SOL    HW131055   1.157   8.915   2.395  0.1320  0.2461 -0.5666
 6862SOL    HW231056   1.017   8.859   2.334  0.6630 -0.4595 -1.1428
 6863SOL     OW31057   8.136   7.523   1.629  0.2230 -0.5959 -0.4270
 6863SOL    HW131058   8.123   7.428   1.656  0.1142 -0.6692 -0.7413
 6863SOL    HW231059   8.218   7.532   1.573 -0.2933 -0.6594 -1.1951
 6864SOL     OW31060   3.637   4.829   2.834 -0.3804  0.4601  0.1260
 6864SOL    HW131061   3.652   4.926   2.815  3.0144 -0.0258  0.1421
 6864SOL    HW231062   3.698   4.800   2.908 -0.5988 -1.9446 -0.6233
 6865SOL     OW31063   3.757   4.964   1.425 -0.8199  0.0520  0.2852
 6865SOL    HW131064   3.798   5.056   1.424 -0.9697  0.1280  0.7129
 6865SOL    HW231065   3.725   4.944   1.518  0.2196 -0.8813  0.4574
 6866SOL     OW31066   9.374   9.432   2.645  0.3185  0.6273  0.0879
 6866SOL    HW131067   9.310   9.399   2.575  0.0567  1.1138  0.0951
 6866SOL    HW231068   9.465   9.395   2.626  0.4862  1.6383 -1.1592
 6867SOL     OW31069   2.180   4.298   2.918  0.6041 -0.6042  0.0501
 6867SOL    HW131070   2.217   4.205   2.911  0.2935 -0.5901 -2.0430
 6867SOL    HW231071   2.087   4.300   2.881  0.8047  0.6640 -0.4052
 6868SOL     OW31072   9.647   6.201   2.874 -0.1868  0.1471 -0.1575
 6868SOL    HW131073   9.550   6.225   2.869 -0.3700 -0.3784  0.6638
 6868SOL    HW231074   9.687   6.244   2.955  0.0023 -0.5055  0.0967
 6869SOL     OW31075   1.203   7.715   0.890 -0.3336 -0.2877 -0.3654
 6869SOL    HW131076   1.182   7.796   0.945 -0.9933  0.3579 -1.5484
 6869SOL    HW231077   1.294   7.681   0.916  0.3232  1.3394 -0.4447
 6870SOL     OW31078   2.878   0.164   2.225  0.3770  0.6329 -0.5178
 6870SOL    HW131079   2.837   0.255   2.224  0.2682  0.6025  0.5266
 6870SOL    HW231080   2.820   0.101   2.173 -3.0176 -0.2815  4.0252
 6871SOL     OW31081   0.690   4.891   0.890 -0.2323 -0.1103  0.0620
 6871SOL    HW131082   0.697   4.825   0.964  1.6699  1.0676  0.9799
 6871SOL    HW231083   0.611   4.869   0.832 -1.4363 -1.3328  2.1304
 6872SOL     OW31084   1.541   4.308   0.576 -0.4578 -0.1538 -1.1241
 6872SOL    HW131085   1.612   4.378   0.569 -0.8389  0.7840  3.2204
 6872SOL    HW231086   1.452   4.350   0.558 -0.4667 -0.0718 -0.8835
 6873SOL     OW31087   6.393   9.121   2.310  0.5125 -0.3698  0.2189
 6873SOL    HW131088   6.479   9.084   2.275  0.2947 -0.9715  0.3163
 6873SOL    HW231089   6.316   9.073   2.267  0.2388 -2.0819  2.4855
 6874SOL     OW31090   3.260   5.949   3.120 -0.2874  0.5189 -0.5150
 6874SOL    HW131091   3.359   5.953   3.133 -0.3765  1.4764 -0.0980
 6874SOL    HW231092   3.215   5.966   3.208 -0.8233 -0.2020 -0.6444
 6875SOL     OW31093   5.626   6.708   2.716  0.2707 -0.2437 -0.5181
 6875SOL    HW131094   5.636   6.612   2.691 -0.7693 -0.4284 -0.2690
 6875SOL    HW231095   5.641   6.765   2.635  0.1913 -0.6609 -0.8295
 6876SOL     OW31096   4.892   9.766   2.195  0.4816 -0.0064  0.4808
 6876SOL    HW131097   4.878   9.850   2.143 -0.1242 -1.0647 -1.0723
 6876SOL    HW231098   4.917   9.692   2.133  0.8435 -1.0215  1.8217
 6877SOL     OW31099   3.256   5.860   1.289  0.0191  0.3773 -0.3028
 6877SOL    HW131100   3.158   5.875   1.276  0.2958  1.6687 -1.0388
 6877SOL    HW231101   3.303   5.870   1.201  0.7527 -0.7787 -0.0551
 6878SOL     OW31102   8.935   4.287   2.064  0.6033  0.1462  0.0014
 6878SOL    HW131103   9.020   4.327   2.030  0.5617  0.2891  0.0668
 6878SOL    HW231104   8.858   4.321   2.009  0.5522  0.2713  0.1516
 6879SOL     OW31105   1.446   2.434   0.405 -0.0523  0.5774 -0.3660
 6879SOL    HW131106   1.421   2.374   0.481 -1.0760 -0.3182 -1.3937
 6879SOL    HW231107   1.467   2.525   0.441 -1.7713  0.5178  0.8639
 6880SOL     OW31108   2.053   7.768   1.213 -0.1563 -0.6006  0.0874
 6880SOL    HW131109   2.133   7.725   1.171  0.1830 -0.0954  0.2062
 6880SOL    HW231110   2.059   7.759   1.313  0.9924  1.5538  0.2408
 6881SOL     OW31111   8.983   2.311   2.954  0.3322  0.0545 -0.1218
 6881SOL    HW131112   9.018   2.236   3.009 -1.0505 -0.7966 -0.3975
 6881SOL    HW231113   9.040   2.322   2.873  0.0412 -1.2605 -0.5144
 6882SOL     OW31114   1.405   6.636   1.057  0.1040  0.1864  0.4191
 6882SOL    HW131115   1.461   6.653   0.976  0.3498 -1.2490  0.2668
 6882SOL    HW231116   1.315   6.603   1.029 -1.0381  3.0182  0.6518
 6883SOL     OW31117   1.159   0.718   1.190 -0.2487 -0.0367 -0.1284
 6883SOL    HW131118   1.195   0.800   1.236 -1.2409 -0.7380  1.9607
 6883SOL    HW231119   1.233   0.673   1.141  1.1427  0.1007  1.7652
 6884SOL     OW31120   7.929   2.424   1.715  0.6295 -0.2094  0.0803
 6884SOL    HW131121   7.879   2.407   1.630  1.0441 -0.7512 -0.0554
 6884SOL    HW231122   7.913   2.350   1.780  1.0726 -0.2719  0.1219
 6885SOL     OW31123   1.023   1.110   0.368 -0.1559  0.3376 -0.1512
 6885SOL    HW131124   1.032   1.062   0.281 -2.3303  1.1145 -0.8145
 6885SOL    HW231125   1.015   1.043   0.442  2.3055 -0.3373 -0.4276
 6886SOL     OW31126   1.734   5.710   0.933  0.6155 -0.1223  0.6900
 6886SOL    HW131127   1.822   5.671   0.906  0.2541  0.7112 -1.7722
 6886SOL    HW231128   1.725   5.802   0.894 -1.0253  0.0975  1.5634
 6887SOL     OW31129   1.427   8.877   1.094 -0.3727 -0.5703 -0.4046
 6887SOL    HW131130   1.363   8.928   1.036 -0.6138  0.5176  0.8182
 6887SOL    HW231131   1.408   8.779   1.085 -0.5778 -0.3985 -1.9664
 6888SOL     OW31132   0.928   8.681   3.410 -0.1537 -0.4452  0.4047
 6888SOL    HW131133   1.026   8.675   3.391 -0.2303 -0.5264  0.0258
 6888SOL    HW231134   0.877   8.680   3.323 -0.6584 -3.7643  0.6780
 6889SOL     OW31135   3.090   1.815   3.721 -0.0640 -0.9762 -0.0939
 6889SOL    HW131136   3.068   1.835   3.625  1.6957  0.1861 -0.2842
 6889SOL    HW231137   3.014   1.766   3.763 -2.3794  1.5623 -1.1342
 6890SOL     OW31138   8.418   3.314   0.170 -0.2255 -0.2508  0.1459
 6890SOL    HW131139   8.502   3.343   0.215  0.6511 -1.1908 -0.8424
 6890SOL    HW231140   8.391   3.224   0.205 -0.5219 -0.1865  0.0835
 6891SOL     OW31141   8.273   0.282   1.734 -0.1040  0.1748 -0.0684
 6891SOL    HW131142   8.296   0.194   1.776 -0.4628  0.1868  0.1585
 6891SOL    HW231143   8.191   0.272   1.678 -0.1706  0.3723 -0.0076
 6892SOL     OW31144   3.469   8.720   1.806 -0.1387 -0.9021  0.2078
 6892SOL    HW131145   3.394   8.717   1.872  1.4111 -0.6628  2.0218
 6892SOL    HW231146   3.554   8.742   1.853  1.4492 -3.1850 -1.4903
 6893SOL     OW31147   8.779   3.971   2.649  0.1215 -0.0100 -0.5646
 6893SOL    HW131148   8.868   4.004   2.616  0.9028 -1.1275  0.3765
 6893SOL    HW231149   8.791   3.929   2.739 -1.0511 -1.7582 -1.2121
 6894SOL     OW31150   5.282   7.611   3.062 -0.3388 -0.4093  0.2230
 6894SOL    HW131151   5.311   7.574   2.974 -0.6764 -1.2991  0.4795
 6894SOL    HW231152   5.183   7.606   3.070 -0.2293 -1.4746  1.1359
 6895SOL     OW31153   7.767   5.831   2.925 -0.0758 -0.0010  0.1745
 6895SOL    HW131154   7.750   5.929   2.939  0.4770  0.2936 -1.0424
 6895SOL    HW231155   7.823   5.820   2.842  1.4408 -1.2268  1.3508
 6896SOL     OW31156   1.034   2.220   2.690  0.2865 -0.1761 -0.0399
 6896SOL    HW131157   0.999   2.286   2.623  0.6390 -0.0747 -0.1219
 6896SOL    HW231158   1.071   2.141   2.642 -1.1742 -0.9544  0.0846
 6897SOL     OW31159   3.309   6.192   1.932  0.8628  0.4721 -0.5743
 6897SOL    HW131160   3.364   6.185   2.015  1.5107 -0.6499 -1.0781
 6897SOL    HW231161   3.280   6.100   1.903  2.1791  0.6586 -2.5888
 6898SOL     OW31162   8.091   5.178   1.877  0.3866  0.1182 -0.0273
 6898SOL    HW131163   8.181   5.134   1.884 -0.8879 -2.4772  0.4738
 6898SOL    HW231164   8.052   5.186   1.969 -0.5201 -0.0919 -0.3969
 6899SOL     OW31165   3.503   3.775   1.602 -0.0499 -0.0043  0.1839
 6899SOL    HW131166   3.549   3.739   1.521  0.7284  0.1092  0.5719
 6899SOL    HW231167   3.404   3.771   1.588  0.0050 -2.3946  0.2483
 6900SOL     OW31168   0.316   7.195   1.628 -0.3189  0.5067  0.3141
 6900SOL    HW131169   0.308   7.283   1.583 -0.5297  0.9582  1.2211
 6900SOL    HW231170   0.402   7.192   1.680  0.0481 -0.1044 -0.3173
 6901SOL     OW31171   2.469   6.523   3.630  0.4805 -0.5959 -0.1026
 6901SOL    HW131172   2.495   6.593   3.563  0.3546 -0.5532 -0.1070
 6901SOL    HW231173   2.441   6.440   3.582 -0.5280 -0.2464 -0.1313
 6902SOL     OW31174   1.866   8.025   1.731 -0.3376 -0.7438 -0.6169
 6902SOL    HW131175   1.771   8.056   1.719  0.2392  1.1073 -0.6130
 6902SOL    HW231176   1.905   8.002   1.642  0.0845  1.1990 -0.9507
 6903SOL     OW31177   8.883   0.161   2.077 -0.3752  0.1723 -0.3407
 6903SOL    HW131178   8.893   0.063   2.097  3.3289  0.2666 -1.2808
 6903SOL    HW231179   8.867   0.211   2.162  1.1381 -0.9290  0.6247
 6904SOL     OW31180   7.366   6.616   2.717  0.2257  0.4655  0.0948
 6904SOL    HW131181   7.328   6.686   2.777 -0.5956  0.5859 -0.5586
 6904SOL    HW231182   7.367   6.651   2.623 -0.8664 -0.6692 -0.3441
 6905SOL     OW31183   7.777   0.467   4.048  0.6565  0.0248 -0.1964
 6905SOL    HW131184   7.819   0.529   4.115 -0.8222  0.4655  0.3488
 6905SOL    HW231185   7.738   0.388   4.096  0.9498 -0.4392 -0.7129
 6906SOL     OW31186   1.852   0.984   3.596 -0.4715  0.5512 -0.4025
 6906SOL    HW131187   1.826   0.931   3.515  3.4366  1.9131 -2.6783
 6906SOL    HW231188   1.836   1.081   3.579 -0.1896  0.7955  0.7124
 6907SOL     OW31189   7.655   8.203   3.363 -0.0009 -0.3772 -0.2170
 6907SOL    HW131190   7.661   8.170   3.268 -0.5947  0.1185 -0.4299
 6907SOL    HW231191   7.739   8.252   3.387  0.4022 -1.0167 -0.2842
 6908SOL     OW31192   1.522   7.232   1.530 -0.5180 -0.2379  0.4719
 6908SOL    HW131193   1.512   7.317   1.581 -1.5649 -0.4473  0.6355
 6908SOL    HW231194   1.586   7.172   1.578  0.1085  0.3904  0.4359
 6909SOL     OW31195   3.398   1.822   3.993  0.7419  0.5037 -0.6688
 6909SOL    HW131196   3.422   1.819   4.090 -1.3304 -1.2050 -0.1624
 6909SOL    HW231197   3.481   1.817   3.938  1.9690  1.8669  1.0056
 6910SOL     OW31198   0.091   3.927   0.675 -0.2663 -0.4904 -0.4814
 6910SOL    HW131199   0.185   3.931   0.640  0.3094 -0.0753  1.0408
 6910SOL    HW231200   0.054   4.020   0.681 -0.0504 -0.4670  0.7447
 6911SOL     OW31201   1.895   8.415   1.658 -0.1477 -0.3089 -0.5439
 6911SOL    HW131202   1.925   8.353   1.586 -0.5848 -0.0206 -0.9785
 6911SOL    HW231203   1.898   8.509   1.624 -0.6634 -0.1995 -0.2937
 6912SOL     OW31204   2.668   9.218   0.561  0.0117 -0.4093  0.5512
 6912SOL    HW131205   2.743   9.163   0.522  1.0315  0.3830  1.3548
 6912SOL    HW231206   2.705   9.279   0.631 -1.0083  1.7205 -0.7320
 6913SOL     OW31207   7.480   2.715   3.974  0.5120  0.5153 -0.2373
 6913SOL    HW131208   7.447   2.806   4.001  1.7011  1.1379 -0.8554
 6913SOL    HW231209   7.564   2.725   3.921  1.3885 -1.0273  0.8292
 6914SOL     OW31210   0.073   0.282   1.539  0.3717 -0.4244 -0.1810
 6914SOL    HW131211   0.138   0.206   1.548  1.3959  0.5237  0.5146
 6914SOL    HW231212  -0.006   0.252   1.485  0.3423 -2.2602  0.8583
 6915SOL     OW31213   9.076   7.662   0.373 -0.2669  0.1938  0.3955
 6915SOL    HW131214   9.058   7.697   0.281 -1.6876 -1.9524 -0.1822
 6915SOL    HW231215   9.173   7.670   0.394  0.4507 -1.2297 -2.1557
 6916SOL     OW31216   8.468   3.301   1.219  0.1169  0.8119 -1.0016
 6916SOL    HW131217   8.461   3.231   1.148 -0.1927  1.3920 -1.5460
 6916SOL    HW231218   8.554   3.351   1.207  1.7849 -1.3999  1.1728
 6917SOL     OW31219   4.557   4.920   0.982  0.4913 -0.5464 -0.0145
 6917SOL    HW131220   4.492   4.994   0.965  0.0096 -1.1945 -0.9822
 6917SOL    HW231221   4.622   4.913   0.906  1.3644 -0.2632  0.6877
 6918SOL     OW31222   9.686   1.937   2.038  0.1596 -0.4665 -0.1483
 6918SOL    HW131223   9.620   2.000   2.078  0.6349 -0.4599  0.6297
 6918SOL    HW231224   9.711   1.867   2.105  0.1808 -1.0621 -0.7677
 6919SOL     OW31225   3.204   5.961   0.694 -0.0530 -0.5836  0.0053
 6919SOL    HW131226   3.254   5.975   0.609  0.1729 -1.7363 -0.0645
 6919SOL    HW231227   3.206   6.044   0.749  2.0752 -0.6721  0.0851
 6920SOL     OW31228   2.714   1.327   1.350 -0.1666 -0.6890 -0.0210
 6920SOL    HW131229   2.681   1.405   1.297  0.5008  1.2141  2.2397
 6920SOL    HW231230   2.668   1.243   1.320 -0.5309  0.4719 -2.8474
 6921SOL     OW31231   9.348   0.970   3.148  0.4218  0.4993  0.2246
 6921SOL    HW131232   9.438   0.929   3.134  0.9229  1.4901  0.5033
 6921SOL    HW231233   9.358   1.067   3.168 -0.4606 -0.0168  3.6394
 6922SOL     OW31234   0.142   3.177   1.767  0.0235 -0.1635 -0.1010
 6922SOL    HW131235   0.205   3.108   1.733  0.2495  0.6338 -1.3374
 6922SOL    HW231236   0.161   3.195   1.864  1.5453 -0.1093 -0.3935
 6923SOL     OW31237   2.381   1.499   0.165  0.1247  0.6784 -0.6249
 6923SOL    HW131238   2.429   1.561   0.227 -0.5683 -0.0886  0.7033
 6923SOL    HW231239   2.304   1.546   0.122  0.3352  1.0800 -0.5585
 6924SOL     OW31240   5.123   2.027   0.827  0.5873 -0.7835 -0.1181
 6924SOL    HW131241   5.161   2.009   0.736  0.7868 -0.8070 -0.0302
 6924SOL    HW231242   5.043   1.970   0.842  0.1492 -0.2901 -0.5460
 6925SOL     OW31243   6.114   7.804   2.926 -0.3810  0.0684  0.4831
 6925SOL    HW131244   6.085   7.895   2.897  1.8650  0.3082 -1.1520
 6925SOL    HW231245   6.195   7.811   2.984 -0.6656 -0.8455  1.0046
 6926SOL     OW31246   3.305   5.870   2.400 -0.0279  0.1165 -0.2290
 6926SOL    HW131247   3.237   5.874   2.326 -0.0947  2.0299 -0.0889
 6926SOL    HW231248   3.258   5.864   2.488 -0.0134  0.6725 -0.1799
 6927SOL     OW31249   0.299   6.483   3.731 -0.1651  0.0541 -0.1475
 6927SOL    HW131250   0.346   6.558   3.684  0.1609 -0.1725 -0.1831
 6927SOL    HW231251   0.249   6.520   3.809  1.1598  0.1193  0.6887
 6928SOL     OW31252   5.092   9.913   2.954 -0.0906  0.0251  0.0925
 6928SOL    HW131253   5.118   9.868   3.040 -1.2866  0.4901  0.7143
 6928SOL    HW231254   5.004   9.877   2.923  0.0223  0.3295 -0.5921
 6929SOL     OW31255   9.805   3.936   0.444 -0.1749 -0.0398  0.1052
 6929SOL    HW131256   9.706   3.931   0.433 -0.1185 -0.8332 -0.1372
 6929SOL    HW231257   9.830   4.020   0.492 -1.1698 -1.0473  2.4853
 6930SOL     OW31258   2.213   8.201   1.627  1.0342  0.0995  0.4818
 6930SOL    HW131259   2.242   8.235   1.537 -1.6205 -0.1088 -0.5159
 6930SOL    HW231260   2.230   8.271   1.696  1.9529  0.7580 -0.3944
 6931SOL     OW31261   5.246   2.479   1.081  0.1306 -0.4830  0.2522
 6931SOL    HW131262   5.179   2.432   1.024  0.0988 -1.9929  1.4935
 6931SOL    HW231263   5.313   2.413   1.116  0.0106  0.3582  2.1437
 6932SOL     OW31264   9.014   0.822   1.078  0.1064 -0.5735 -0.2165
 6932SOL    HW131265   9.054   0.734   1.053 -1.8463 -1.2406 -1.1009
 6932SOL    HW231266   8.962   0.812   1.163  0.5138 -0.0869  0.0924
 6933SOL     OW31267   2.218   1.475   0.831  0.8519  0.4206  0.2054
 6933SOL    HW131268   2.316   1.460   0.822  0.6176 -1.4017  0.3591
 6933SOL    HW231269   2.190   1.458   0.926  0.3212  0.4340  0.0553
 6934SOL     OW31270   9.170   5.694   2.953  0.0962 -0.1629  0.1349
 6934SOL    HW131271   9.083   5.651   2.978 -0.3037  0.0454 -0.8819
 6934SOL    HW231272   9.159   5.793   2.951  0.5808 -0.0971  0.8395
 6935SOL     OW31273   8.858   4.228   2.399 -0.0661 -0.1937  0.2065
 6935SOL    HW131274   8.879   4.132   2.418 -0.3751 -0.4124 -0.5215
 6935SOL    HW231275   8.828   4.237   2.304 -1.7087  0.3530  0.7698
 6936SOL     OW31276   9.572   4.460   1.278  0.4394  0.3863 -0.8420
 6936SOL    HW131277   9.575   4.558   1.298 -0.3037 -0.2672  2.9735
 6936SOL    HW231278   9.477   4.429   1.278  0.6947 -0.4171 -1.6531
 6937SOL     OW31279   0.623   1.576   2.559 -0.2108 -0.1579 -0.8490
 6937SOL    HW131280   0.537   1.628   2.556  0.4866  1.0898  0.2076
 6937SOL    HW231281   0.664   1.573   2.468 -0.9204 -0.0033 -1.1797
 6938SOL     OW31282   7.785   3.893   3.678  0.2490  0.0711  0.3273
 6938SOL    HW131283   7.699   3.854   3.644  0.0299  1.3823 -0.6733
 6938SOL    HW231284   7.851   3.819   3.693 -0.9212 -0.9169  0.7522
 6939SOL     OW31285   2.279   6.649   2.717 -0.6517  0.4055 -0.3925
 6939SOL    HW131286   2.238   6.561   2.741  0.8487 -0.4317 -0.8293
 6939SOL    HW231287   2.376   6.647   2.740 -0.4173  1.6191 -1.2710
 6940SOL     OW31288   8.724   8.412   3.605 -0.5989  0.0726 -0.2629
 6940SOL    HW131289   8.754   8.482   3.670  2.4875 -1.2775 -0.1608
 6940SOL    HW231290   8.768   8.428   3.516  0.0532 -1.6689 -0.2673
 6941SOL     OW31291   2.167   9.931   0.163 -0.1472 -0.0428 -0.2345
 6941SOL    HW131292   2.266   9.929   0.150 -0.1978 -0.7909 -0.5259
 6941SOL    HW231293   2.127  10.003   0.107 -0.1252 -1.8216 -2.6251
 6942SOL     OW31294   1.845   3.333   3.547  0.2059 -0.1692 -0.2103
 6942SOL    HW131295   1.834   3.333   3.646  0.6276 -1.3695 -0.1606
 6942SOL    HW231296   1.932   3.290   3.523  0.0471 -0.0000 -1.1084
 6943SOL     OW31297   0.008   3.210   3.906 -0.0936 -0.3589 -0.2771
 6943SOL    HW131298  -0.049   3.230   3.827 -0.2670 -0.1270 -0.0944
 6943SOL    HW231299  -0.001   3.284   3.973 -2.5639 -2.1048  1.4308
 6944SOL     OW31300   4.246   7.730   0.632  0.1100 -0.0231  0.1316
 6944SOL    HW131301   4.195   7.759   0.713 -0.0800 -1.0696  0.3942
 6944SOL    HW231302   4.342   7.755   0.642  0.0273  0.1254  0.5484
 6945SOL     OW31303   8.814   3.962   3.550 -0.2895  0.0585 -0.3857
 6945SOL    HW131304   8.861   3.979   3.463 -1.8316  1.3629 -0.9930
 6945SOL    HW231305   8.876   3.982   3.626  0.6734  0.1047 -1.1680
 6946SOL     OW31306   9.246   1.372   2.828 -0.3458  0.1673 -0.1767
 6946SOL    HW131307   9.238   1.463   2.787 -0.3775 -0.4049 -1.4495
 6946SOL    HW231308   9.157   1.343   2.863 -0.2022  0.8919  0.8279
 6947SOL     OW31309   4.132   9.992   2.364  0.1458  0.2495 -0.3333
 6947SOL    HW131310   4.061  10.006   2.433 -0.3607  0.4348 -0.8878
 6947SOL    HW231311   4.173   9.901   2.376 -1.0696 -0.3731 -0.7998
 6948SOL     OW31312   9.118   4.516   0.778  0.2524  0.2299  0.0182
 6948SOL    HW131313   9.155   4.491   0.868  1.5233  0.8682 -0.3021
 6948SOL    HW231314   9.078   4.436   0.735 -1.0727  0.0832  1.4775
 6949SOL     OW31315   2.750   4.111   0.870  0.3588 -0.4307  0.3700
 6949SOL    HW131316   2.695   4.037   0.909 -0.1152  0.9236  2.3662
 6949SOL    HW231317   2.744   4.191   0.929  2.2985  0.6371 -0.8286
 6950SOL     OW31318   5.089   9.297   0.883  0.0661 -0.2155  0.9884
 6950SOL    HW131319   5.057   9.252   0.966 -0.5651  0.9586  1.4087
 6950SOL    HW231320   5.065   9.242   0.803  2.9232 -2.6283  1.6897
 6951SOL     OW31321   9.197   4.045   1.178  0.0913  0.0085 -0.1221
 6951SOL    HW131322   9.263   4.094   1.235  0.5270 -0.0056 -0.6126
 6951SOL    HW231323   9.244   4.006   1.098  0.0047 -2.2543  0.8781
 6952SOL     OW31324   9.047   7.234   0.130 -0.1165 -0.2028 -0.2462
 6952SOL    HW131325   9.026   7.200   0.038 -1.7414  2.2770 -0.8535
 6952SOL    HW231326   9.128   7.291   0.127  0.9210 -1.6262  0.2328
 6953SOL     OW31327   2.188   1.992   2.971 -0.2892 -0.2668 -0.6936
 6953SOL    HW131328   2.277   1.949   2.955  0.9236  0.5134  3.2868
 6953SOL    HW231329   2.127   1.926   3.015 -0.8101 -0.0423 -1.0870
 6954SOL     OW31330   9.698   8.304   1.039 -0.5045  0.2125 -0.4397
 6954SOL    HW131331   9.793   8.330   1.057 -0.7778  1.6425 -1.0189
 6954SOL    HW231332   9.689   8.276   0.944 -0.4827 -0.7938 -0.1510
 6955SOL     OW31333   2.470   1.490   3.405 -0.0867 -0.0216  0.2635
 6955SOL    HW131334   2.558   1.441   3.404 -0.3244 -0.4520 -0.0456
 6955SOL    HW231335   2.469   1.556   3.480  1.5031  1.8063 -1.2604
 6956SOL     OW31336   1.090   3.610   3.540  1.0254  0.0344  0.2436
 6956SOL    HW131337   1.013   3.559   3.501  0.2326  0.9381  0.6174
 6956SOL    HW231338   1.080   3.616   3.639  0.3526  2.1288  0.0748
 6957SOL     OW31339   1.789   6.632   0.347 -0.3028 -0.3692  0.1065
 6957SOL    HW131340   1.858   6.624   0.275 -0.4252  0.0333 -0.0559
 6957SOL    HW231341   1.737   6.546   0.354 -0.0288 -0.5458 -0.0165
 6958SOL     OW31342   0.349   0.833   0.009  0.0343 -0.1535 -0.1881
 6958SOL    HW131343   0.268   0.891   0.002 -0.4747 -1.0151 -1.9374
 6958SOL    HW231344   0.346   0.780   0.093  0.0046  1.5875  0.9298
 6959SOL     OW31345   9.897   6.796   1.070 -0.4214 -0.2314  0.1016
 6959SOL    HW131346   9.818   6.772   1.127 -0.8107  0.6542 -0.0665
 6959SOL    HW231347   9.959   6.717   1.065 -0.9310 -0.6863  0.8357
 6960SOL     OW31348   1.228   9.608   2.595 -0.1741  0.2030  0.5473
 6960SOL    HW131349   1.299   9.617   2.524  1.5540  2.6971  2.4900
 6960SOL    HW231350   1.145   9.654   2.565 -0.1534 -0.5328 -0.6882
 6961SOL     OW31351   1.596   4.177   3.541 -0.8009 -0.0154  0.1459
 6961SOL    HW131352   1.523   4.228   3.587 -0.0980  1.0343  0.1083
 6961SOL    HW231353   1.577   4.173   3.443 -1.1961 -0.4115  0.2351
 6962SOL     OW31354   3.525   8.166   2.018  0.1135 -0.9856  0.0593
 6962SOL    HW131355   3.487   8.080   1.983 -0.1500 -0.8584  0.0320
 6962SOL    HW231356   3.581   8.147   2.099  1.9250 -1.4640 -1.2621
 6963SOL     OW31357   3.512   0.086   3.889 -0.1780  0.1033  0.0235
 6963SOL    HW131358   3.602   0.130   3.900  0.0631 -0.2192 -0.6181
 6963SOL    HW231359   3.450   0.150   3.843  0.3148 -0.3728 -1.3578
 6964SOL     OW31360   4.246   9.026   0.685 -0.2753  0.3099  0.1622
 6964SOL    HW131361   4.169   9.000   0.627 -0.0097  0.9510 -0.4819
 6964SOL    HW231362   4.299   8.944   0.707 -2.3397 -0.4918  2.4111
 6965SOL     OW31363   3.062   7.737   3.658 -0.0799  0.3506  0.0406
 6965SOL    HW131364   2.983   7.747   3.598  1.2114  2.1377 -1.4239
 6965SOL    HW231365   3.133   7.683   3.612  0.9766  1.8508 -0.1376
 6966SOL     OW31366   2.000   9.317   1.417 -0.4741 -0.1607 -0.2313
 6966SOL    HW131367   2.060   9.252   1.463 -1.5738  0.5017  2.2396
 6966SOL    HW231368   1.944   9.269   1.351 -1.3538 -1.8080  1.6481
 6967SOL     OW31369   1.874   1.869   1.577  0.1178 -0.2889 -0.5853
 6967SOL    HW131370   1.823   1.954   1.592 -0.5821 -0.6272 -1.0502
 6967SOL    HW231371   1.957   1.870   1.633 -1.3920 -0.5968  1.7201
 6968SOL     OW31372   8.410   7.205   3.202  0.2297 -0.3125 -0.0564
 6968SOL    HW131373   8.447   7.219   3.293 -1.3097  1.1333  0.3662
 6968SOL    HW231374   8.458   7.262   3.136 -0.3428  0.5550  0.2739
 6969SOL     OW31375   9.179   5.981   3.878 -0.5137 -0.1131 -0.5037
 6969SOL    HW131376   9.225   5.918   3.814  0.3278 -0.3370  0.3018
 6969SOL    HW231377   9.239   6.059   3.895 -0.7751 -0.0117 -0.0642
 6970SOL     OW31378   3.518   3.913   2.861 -1.0610  0.5988  0.3347
 6970SOL    HW131379   3.418   3.919   2.862 -1.0572  1.2781 -1.8361
 6970SOL    HW231380   3.546   3.824   2.896 -2.3591  0.8096  2.0191
 6971SOL     OW31381   7.862   2.011   2.920 -0.0932  0.7536  0.2179
 6971SOL    HW131382   7.886   1.949   2.845 -0.8412  0.9931 -0.2242
 6971SOL    HW231383   7.862   1.961   3.006  0.2872  0.3654 -0.0064
 6972SOL     OW31384   9.563   8.243   3.082 -0.2927  0.0836 -0.2500
 6972SOL    HW131385   9.470   8.280   3.085 -0.9590 -1.2246 -2.7432
 6972SOL    HW231386   9.627   8.314   3.052 -0.7799  0.5158 -0.2679
 6973SOL     OW31387   0.683   1.283   1.229 -0.1996  0.4500  0.1378
 6973SOL    HW131388   0.722   1.197   1.262 -1.1961  0.1446  0.5428
 6973SOL    HW231389   0.612   1.264   1.161 -0.0519  0.9749 -0.1632
 6974SOL     OW31390   8.944   5.418   2.227  0.6461 -0.1950  0.2008
 6974SOL    HW131391   9.003   5.346   2.191 -0.5401  0.1880 -2.5701
 6974SOL    HW231392   9.001   5.494   2.260  1.7510  0.0164 -2.0943
 6975SOL     OW31393   2.341   7.553   1.458  0.0129 -0.4198  0.4115
 6975SOL    HW131394   2.262   7.614   1.458  0.6345  0.4036 -0.8605
 6975SOL    HW231395   2.328   7.482   1.389  0.7252  0.1566 -0.3108
 6976SOL     OW31396   9.081   8.656   2.245  0.1780 -0.1246 -0.1944
 6976SOL    HW131397   9.083   8.572   2.300  0.5758 -0.7039 -1.0919
 6976SOL    HW231398   9.163   8.710   2.265 -0.2995  0.2758  0.7240
 6977SOL     OW31399   3.090   1.150   1.136 -0.0310 -0.4154  0.1456
 6977SOL    HW131400   3.149   1.210   1.081  2.2125 -3.1686 -0.5491
 6977SOL    HW231401   3.102   1.171   1.233 -0.0988  0.9703 -0.1361
 6978SOL     OW31402   9.068   9.190   0.950 -0.1550  0.3215  0.3522
 6978SOL    HW131403   9.143   9.153   1.006  0.6494  1.3619 -0.0218
 6978SOL    HW231404   9.038   9.121   0.885  2.3720  0.8078 -1.3839
 6979SOL     OW31405   2.284   5.943   3.992 -0.5694  0.4771  0.5319
 6979SOL    HW131406   2.283   5.960   4.090 -0.3376 -0.8214  0.7553
 6979SOL    HW231407   2.191   5.930   3.959 -0.4492 -1.6482  1.0199
 6980SOL     OW31408   0.318   5.416   0.598 -0.1601 -0.5526 -0.7217
 6980SOL    HW131409   0.314   5.368   0.510 -1.1778  2.2323 -2.2611
 6980SOL    HW231410   0.226   5.444   0.626  0.2410 -0.7756  0.8763
 6981SOL     OW31411   1.210   1.970   0.652  0.2414 -0.2903 -0.4748
 6981SOL    HW131412   1.143   1.904   0.616  0.2329 -1.6461  1.9474
 6981SOL    HW231413   1.263   1.928   0.725  1.7601  1.7235 -0.3698
 6982SOL     OW31414   3.412   3.509   2.244 -1.0318  0.3003 -0.0106
 6982SOL    HW131415   3.445   3.415   2.251 -2.3061 -0.1937 -0.2922
 6982SOL    HW231416   3.350   3.528   2.320 -2.2211  0.2745 -0.9409
 6983SOL     OW31417   3.372   0.937   3.063  0.1388 -0.1244  0.4783
 6983SOL    HW131418   3.390   0.847   3.103 -3.1452 -1.5169 -1.0183
 6983SOL    HW231419   3.384   0.933   2.964  0.8936  1.3715  0.4841
 6984SOL     OW31420   2.050   1.574   1.745  0.1236  0.2503  0.0290
 6984SOL    HW131421   1.963   1.585   1.697  1.9203 -0.0295 -3.4604
 6984SOL    HW231422   2.098   1.494   1.709  2.2644  0.9801  1.1592
 6985SOL     OW31423   8.759   2.527   1.167  0.4313  0.2224  0.4526
 6985SOL    HW131424   8.841   2.528   1.109 -0.8164 -0.3999 -1.3575
 6985SOL    HW231425   8.757   2.443   1.221  0.4407 -0.2510 -0.2871
 6986SOL     OW31426   2.263   8.597   2.147  0.1904 -0.0539  0.0588
 6986SOL    HW131427   2.285   8.598   2.049 -0.1401 -0.3734 -0.0178
 6986SOL    HW231428   2.289   8.510   2.187  0.3509  0.0864  0.2623
 6987SOL     OW31429   2.637   1.006   1.813  0.3202  0.5688 -0.1223
 6987SOL    HW131430   2.598   1.073   1.750  0.8350  2.3479  1.3949
 6987SOL    HW231431   2.670   0.928   1.762  0.9315  2.0744 -2.0920
 6988SOL     OW31432   0.671   6.537   1.490 -0.4509  0.2471  0.1817
 6988SOL    HW131433   0.631   6.606   1.429 -1.5714  0.0311  0.6567
 6988SOL    HW231434   0.605   6.464   1.505 -0.1924  0.3161  1.6912
 6989SOL     OW31435   2.678   5.305   3.823  0.2272 -0.5662 -0.5305
 6989SOL    HW131436   2.719   5.392   3.851  1.0023 -1.1428  0.1407
 6989SOL    HW231437   2.587   5.322   3.787 -0.3339  0.3327  1.2400
 6990SOL     OW31438   2.094   1.523   1.073 -0.2945  0.3383 -0.2524
 6990SOL    HW131439   2.056   1.616   1.065  0.2095  0.6291  0.6438
 6990SOL    HW231440   2.066   1.483   1.160  1.9525  0.8026  0.7185
 6991SOL     OW31441   1.633   0.937   3.170  0.3240 -0.1103 -0.2108
 6991SOL    HW131442   1.535   0.928   3.153  0.2757  1.4131 -0.7608
 6991SOL    HW231443   1.652   1.025   3.212  1.5965  0.0644 -1.1275
 6992SOL     OW31444   3.197   8.488   0.230  0.0538  0.2546  0.5247
 6992SOL    HW131445   3.225   8.393   0.248  0.7562  0.4084  0.2477
 6992SOL    HW231446   3.202   8.506   0.132 -1.3305  0.1904  0.4301
 6993SOL     OW31447   4.703   0.500   1.169  0.1859 -0.0293  0.3431
 6993SOL    HW131448   4.779   0.554   1.134 -0.0609 -0.3150 -0.6535
 6993SOL    HW231449   4.653   0.552   1.238 -0.9489  1.6177 -1.6641
 6994SOL     OW31450   8.090   7.253   2.982 -0.5498  0.2076  0.1918
 6994SOL    HW131451   8.069   7.185   3.052  1.2445  1.0117  1.5433
 6994SOL    HW231452   8.040   7.231   2.898 -0.3633 -2.4871  0.7593
 6995SOL     OW31453   9.048   2.737   1.376 -0.1123  0.1855 -0.0071
 6995SOL    HW131454   8.973   2.796   1.348 -0.1977 -0.0091 -0.1899
 6995SOL    HW231455   9.018   2.678   1.451 -0.4980 -0.7141 -0.8666
 6996SOL     OW31456   3.376   9.684   3.717  0.0660 -0.3670 -0.3945
 6996SOL    HW131457   3.318   9.603   3.709 -1.2232  0.4920  0.0975
 6996SOL    HW231458   3.319   9.765   3.729  1.3817  0.4551  0.4377
 6997SOL     OW31459   5.771   9.018   1.796 -0.2294 -0.2349  0.8134
 6997SOL    HW131460   5.771   9.041   1.699 -0.3925  0.8286  1.0541
 6997SOL    HW231461   5.835   8.943   1.813  0.3292  0.0496 -0.0023
 6998SOL     OW31462   4.240   5.024   1.637  0.8965 -0.1588  0.1623
 6998SOL    HW131463   4.172   5.032   1.710  2.6232  1.3329  1.6542
 6998SOL    HW231464   4.299   4.944   1.655  0.8665 -0.2153  0.0108
 6999SOL     OW31465   4.864   0.875   1.306  0.1206  0.1863  0.2154
 6999SOL    HW131466   4.864   0.971   1.280 -0.3552 -0.7801 -3.5711
 6999SOL    HW231467   4.770   0.844   1.319  0.2101 -0.1117  0.1538
 7000SOL     OW31468   0.953   2.456   0.805 -0.1760  0.4270 -0.4579
 7000SOL    HW131469   0.963   2.368   0.758  0.0713  1.0277 -1.5537
 7000SOL    HW231470   0.890   2.445   0.882  1.8566 -1.2936  1.0100
 7001SOL     OW31471   2.982   7.189   3.577 -0.5570 -0.4500 -0.0062
 7001SOL    HW131472   2.883   7.183   3.578 -0.5548 -0.3789  1.0569
 7001SOL    HW231473   3.011   7.270   3.629 -0.0030  0.4224 -1.6119
 7002SOL     OW31474   2.493   1.178   1.045  0.0086 -0.1983 -0.5554
 7002SOL    HW131475   2.432   1.124   0.986 -0.8090  0.1057 -0.0026
 7002SOL    HW231476   2.552   1.116   1.097 -0.4526 -0.5379 -0.4258
 7003SOL     OW31477   0.301   4.964   0.867  0.2194 -0.0193 -0.6554
 7003SOL    HW131478   0.390   4.950   0.824  0.5754 -1.2869  0.4652
 7003SOL    HW231479   0.310   4.956   0.966 -1.2634 -0.8888 -0.5741
 7004SOL     OW31480   4.609   0.737   0.861  0.3434  0.0882  0.2097
 7004SOL    HW131481   4.639   0.764   0.770  0.8785  0.3897  0.4741
 7004SOL    HW231482   4.532   0.673   0.853  1.0779 -0.7272 -0.4637
 7005SOL     OW31483   0.206   4.385   3.033 -0.2081  0.0022 -0.3968
 7005SOL    HW131484   0.217   4.483   3.020 -0.7864  0.3151  1.3129
 7005SOL    HW231485   0.272   4.336   2.977  2.0557  1.4620  0.8974
 7006SOL     OW31486   0.326   4.093   2.695  0.4595  0.6761  0.3248
 7006SOL    HW131487   0.361   4.155   2.766 -0.6001  1.2541  0.3485
 7006SOL    HW231488   0.339   4.135   2.605 -0.6222  1.1119  0.3689
 7007SOL     OW31489   2.855   4.728   3.176  0.2242 -0.3347  0.0108
 7007SOL    HW131490   2.795   4.733   3.096 -1.3840  2.0534  1.2994
 7007SOL    HW231491   2.947   4.757   3.149 -0.1261 -0.2448 -1.1354
 7008SOL     OW31492   2.655   1.349   0.430  0.1589  0.1545  0.0714
 7008SOL    HW131493   2.654   1.278   0.501  0.9412  0.9684  0.9068
 7008SOL    HW231494   2.749   1.381   0.416 -0.0234  0.1414 -1.1940
 7009SOL     OW31495   9.293   4.726   2.024 -0.3679  0.5634 -0.3664
 7009SOL    HW131496   9.343   4.761   1.945  0.6848  0.7094  0.3536
 7009SOL    HW231497   9.344   4.651   2.066 -0.6951  0.7817  0.4390
 7010SOL     OW31498   7.923   2.721   3.276 -0.0585 -0.3106 -0.0761
 7010SOL    HW131499   8.012   2.677   3.277  0.7077  1.2100  0.2695
 7010SOL    HW231500   7.873   2.694   3.193  0.6608 -1.2599 -0.2049
 7011SOL     OW31501   3.879   0.468   2.448  0.1117  0.0364 -0.2506
 7011SOL    HW131502   3.872   0.456   2.349 -0.8314  0.7847 -0.2855
 7011SOL    HW231503   3.862   0.564   2.471 -3.4938 -0.8058  0.9662
 7012SOL     OW31504   3.113   6.000   3.787  0.4216  0.0002 -0.2388
 7012SOL    HW131505   3.126   5.902   3.772  0.1108  0.0158 -0.6025
 7012SOL    HW231506   3.046   6.036   3.723 -0.2450  0.2496  0.5914
 7013SOL     OW31507   9.146   8.788   2.670  0.1848  0.0022  0.2946
 7013SOL    HW131508   9.058   8.742   2.657  0.5370 -0.1644 -1.6146
 7013SOL    HW231509   9.137   8.858   2.741 -1.0086 -1.2603  1.4124
 7014SOL     OW31510   8.843   9.528   3.124  0.4137 -0.1935 -0.6373
 7014SOL    HW131511   8.837   9.480   3.212 -0.9713 -1.0972 -1.2104
 7014SOL    HW231512   8.927   9.499   3.077 -1.1086 -3.2452 -1.6306
 7015SOL     OW31513   1.312   8.177   1.127 -0.0016  0.6540 -0.1025
 7015SOL    HW131514   1.402   8.191   1.086  0.3822 -0.5930  0.2972
 7015SOL    HW231515   1.323   8.154   1.224 -0.6953 -0.5434 -0.3013
 7016SOL     OW31516   8.570   6.065   0.798 -0.4552  0.3566 -0.6499
 7016SOL    HW131517   8.581   5.975   0.841 -0.6242 -0.2766 -1.9036
 7016SOL    HW231518   8.537   6.053   0.704 -0.5726  1.7360 -0.7911
 7017SOL     OW31519   3.639   4.157   2.205  0.1900  0.0830  0.1641
 7017SOL    HW131520   3.630   4.229   2.274 -0.5856  0.9941 -0.8642
 7017SOL    HW231521   3.570   4.087   2.221 -2.0421  1.8507 -1.5111
 7018SOL     OW31522   3.056   7.847   1.790 -0.5397 -0.1529  1.0940
 7018SOL    HW131523   2.987   7.777   1.775 -0.6074  0.1346 -0.0192
 7018SOL    HW231524   3.144   7.817   1.753 -0.6605  0.4958  0.2498
 7019SOL     OW31525   1.279   4.449   0.583  0.1244  0.0418 -0.2793
 7019SOL    HW131526   1.237   4.478   0.497  1.8186  0.3667 -1.0367
 7019SOL    HW231527   1.266   4.519   0.652  1.7235  1.3681 -1.2816
 7020SOL     OW31528   1.995   1.209   2.818 -0.5739  0.0317 -0.0877
 7020SOL    HW131529   1.989   1.268   2.738  1.9883 -0.4861 -0.7299
 7020SOL    HW231530   2.052   1.253   2.887 -0.8228 -0.5518  0.4934
 7021SOL     OW31531   3.379   4.302   0.537  0.0149 -0.3109 -0.0007
 7021SOL    HW131532   3.458   4.337   0.486  0.2376 -0.9975 -0.1200
 7021SOL    HW231533   3.328   4.238   0.480 -0.7236  0.2526  0.0160
 7022SOL     OW31534   0.210   6.179   2.574  0.2829 -0.3591 -0.3699
 7022SOL    HW131535   0.120   6.162   2.533  0.5796  0.1665 -1.2486
 7022SOL    HW231536   0.273   6.212   2.503  1.0262 -0.2361  0.3471
 7023SOL     OW31537   1.073   7.770   3.062 -0.7047 -0.2721  0.8024
 7023SOL    HW131538   1.096   7.798   2.969 -0.3854 -2.6418  0.1193
 7023SOL    HW231539   1.157   7.745   3.111 -0.9749 -0.0770  1.3695
 7024SOL     OW31540   2.457   6.537   0.710 -0.6860  0.1078  0.5096
 7024SOL    HW131541   2.474   6.596   0.631 -0.8013 -1.0548 -0.3937
 7024SOL    HW231542   2.367   6.495   0.701 -1.6751  1.7326  2.4038
 7025SOL     OW31543   2.864   8.621   0.525 -0.6959  0.9526 -0.4385
 7025SOL    HW131544   2.951   8.651   0.486  0.0688  1.0137  1.2779
 7025SOL    HW231545   2.880   8.570   0.609 -2.1575 -1.7729 -1.7399
 7026SOL     OW31546   4.579   8.310   2.637 -0.0649 -0.1353  0.5987
 7026SOL    HW131547   4.635   8.330   2.556  0.2447  1.8428  1.2553
 7026SOL    HW231548   4.595   8.216   2.667  0.3112 -0.6769 -1.2501
 7027SOL     OW31549   1.518   8.059   3.495 -0.0920 -0.2245  0.7110
 7027SOL    HW131550   1.553   8.153   3.498 -1.1067  0.1964 -0.4712
 7027SOL    HW231551   1.494   8.030   3.588 -0.2986  0.9000  1.0184
 7028SOL     OW31552   7.099   3.111   0.013 -0.3102  0.2694 -0.3939
 7028SOL    HW131553   7.195   3.124   0.037 -0.4422 -1.7620  1.4284
 7028SOL    HW231554   7.088   3.116  -0.086  2.1465 -2.0440 -0.8538
 7029SOL     OW31555   8.789   6.321   3.783  0.7955 -0.1298  0.2788
 7029SOL    HW131556   8.823   6.228   3.769  0.6918 -0.1032 -0.1471
 7029SOL    HW231557   8.866   6.385   3.781  0.7984 -0.1432  0.0072
 7030SOL     OW31558   9.389   9.978   0.736  0.2497  0.0932  0.4214
 7030SOL    HW131559   9.458  10.051   0.732  0.8355 -0.3498  2.0968
 7030SOL    HW231560   9.303  10.016   0.770  1.0778 -0.3385  3.1084
 7031SOL     OW31561   0.078   9.213   3.611 -0.1621  0.2869  0.3530
 7031SOL    HW131562  -0.021   9.209   3.606 -0.1920  1.1315  0.1693
 7031SOL    HW231563   0.107   9.307   3.630  0.5505 -0.1653  1.6137
 7032SOL     OW31564   4.332   1.323   1.260  0.0703 -0.1114  0.2817
 7032SOL    HW131565   4.388   1.365   1.332  2.0211 -1.0210 -0.6761
 7032SOL    HW231566   4.314   1.228   1.283 -0.9198  0.1130  0.4703
 7033SOL     OW31567   2.768   1.058   3.021  0.0829  0.1119  0.5170
 7033SOL    HW131568   2.677   1.028   3.049  0.0468 -0.0146  0.2690
 7033SOL    HW231569   2.764   1.093   2.927  0.2360  0.3673  0.6054
 7034SOL     OW31570   0.763   0.569   1.299  0.2713 -0.3591  0.0607
 7034SOL    HW131571   0.850   0.522   1.318  0.8202 -0.0248 -1.5036
 7034SOL    HW231572   0.713   0.582   1.384  1.1126 -1.8171  0.8128
 7035SOL     OW31573   3.738   2.513   3.345  0.0332  0.2870 -0.0131
 7035SOL    HW131574   3.799   2.455   3.291  0.7096  1.5627 -0.6342
 7035SOL    HW231575   3.764   2.609   3.333 -0.4221  0.6517  1.8245
 7036SOL     OW31576   0.987   0.223   3.127  0.6988 -0.2944  0.1394
 7036SOL    HW131577   1.039   0.152   3.080  0.2322 -0.1979 -0.5196
 7036SOL    HW231578   0.928   0.270   3.062 -1.1889 -1.2502  1.1217
 7037SOL     OW31579   0.347   9.774   0.033  0.3000  0.3577 -0.4462
 7037SOL    HW131580   0.323   9.694  -0.023 -0.1768 -2.4044  3.4883
 7037SOL    HW231581   0.391   9.743   0.117  0.6548  4.3553  0.9229
 7038SOL     OW31582   3.141   6.670   0.985  0.2343 -0.1499  0.6030
 7038SOL    HW131583   3.057   6.711   1.020 -1.3005 -1.8860 -0.9861
 7038SOL    HW231584   3.143   6.573   1.009  2.1508  0.0301  1.2644
 7039SOL     OW31585   8.255   7.275   3.624 -0.3386  0.4267 -0.7493
 7039SOL    HW131586   8.179   7.281   3.558 -1.0321  2.1078  0.1812
 7039SOL    HW231587   8.277   7.366   3.658  1.0053 -0.2614  0.2543
 7040SOL     OW31588   0.649   4.656   1.835  0.1147 -0.0393 -0.1218
 7040SOL    HW131589   0.694   4.586   1.891 -0.5830 -0.2352  0.2056
 7040SOL    HW231590   0.562   4.681   1.877 -0.2902  0.0112 -0.9787
 7041SOL     OW31591   9.584   4.934   0.221 -0.1442 -0.2469 -0.5605
 7041SOL    HW131592   9.524   5.013   0.210 -0.2002 -0.3871 -1.3515
 7041SOL    HW231593   9.554   4.861   0.160 -1.1619 -1.5316  1.4339
 7042SOL     OW31594   0.289   2.533   3.925 -0.3103 -0.3350  0.1847
 7042SOL    HW131595   0.319   2.615   3.876 -0.4817 -0.2752  0.1785
 7042SOL    HW231596   0.233   2.560   4.003 -0.8789 -0.4710 -0.1744
 7043SOL     OW31597   0.899   7.063   1.409  0.2393 -0.2917  0.5805
 7043SOL    HW131598   0.997   7.054   1.390  0.5548  2.3110  0.8183
 7043SOL    HW231599   0.848   7.057   1.323  0.5956 -1.4646  0.4328
 7044SOL     OW31600   3.208   7.074   1.082 -0.1519 -0.0875 -0.0581
 7044SOL    HW131601   3.271   7.149   1.062  1.3105 -0.7096  2.1026
 7044SOL    HW231602   3.254   6.987   1.066 -1.4877 -0.5731 -1.4550
 7045SOL     OW31603   9.550   9.881   2.394 -0.6694  0.6153  0.2866
 7045SOL    HW131604   9.564   9.796   2.445 -0.1168  1.2986  1.2959
 7045SOL    HW231605   9.457   9.915   2.409 -1.1946 -0.2940 -0.8654
 7046SOL     OW31606   5.047   6.446   2.319 -0.2347 -0.0172 -0.0483
 7046SOL    HW131607   5.110   6.447   2.241 -0.0653 -0.0262  0.0872
 7046SOL    HW231608   4.954   6.461   2.287 -0.2229 -0.4815 -0.3078
 7047SOL     OW31609   4.812   3.779   1.134 -0.0981 -0.4106 -0.2814
 7047SOL    HW131610   4.716   3.788   1.161 -0.1814  0.0181 -0.7160
 7047SOL    HW231611   4.865   3.853   1.175 -0.2051  0.1799 -1.2092
 7048SOL     OW31612   3.352   6.621   2.080 -0.2541  0.2937  0.1566
 7048SOL    HW131613   3.274   6.599   2.022 -2.0477  2.4730  1.6507
 7048SOL    HW231614   3.369   6.719   2.077  3.5496 -0.3541 -1.4533
 7049SOL     OW31615   9.769   9.870   2.230  0.1524  0.5737  0.2117
 7049SOL    HW131616   9.832   9.946   2.241 -3.1292  3.8889 -2.6715
 7049SOL    HW231617   9.685   9.888   2.283 -0.8630 -0.8143 -0.8804
 7050SOL     OW31618   4.600   9.219   0.894  0.1180 -0.0366  0.1422
 7050SOL    HW131619   4.641   9.152   0.956  1.2087  1.3570  0.9465
 7050SOL    HW231620   4.510   9.247   0.929 -0.4491 -1.2376 -0.3234
 7051SOL     OW31621   2.812   5.038   2.624  0.1616  0.1649 -0.1409
 7051SOL    HW131622   2.720   5.042   2.586  0.1961 -0.3755 -0.2949
 7051SOL    HW231623   2.821   5.102   2.700 -0.2382  0.4645 -0.3482
 7052SOL     OW31624   0.762   9.348   1.669 -0.1419  0.2005 -0.3542
 7052SOL    HW131625   0.786   9.439   1.634  0.3593 -0.0010 -0.5415
 7052SOL    HW231626   0.667   9.348   1.700 -0.2450  0.6929 -0.6660
 7053SOL     OW31627   9.254   9.132   0.614  0.0062  0.5462 -0.6450
 7053SOL    HW131628   9.301   9.068   0.552  1.8029 -0.3820  1.5935
 7053SOL    HW231629   9.173   9.087   0.651 -0.4014  0.6688 -1.3706
 7054SOL     OW31630   3.182   3.432   1.335  0.2706 -0.1290 -0.3639
 7054SOL    HW131631   3.254   3.428   1.404 -0.4110 -0.2464  0.3410
 7054SOL    HW231632   3.180   3.346   1.284  0.7872 -0.0322 -0.5540
 7055SOL     OW31633   3.773   9.656   0.290 -0.6236  0.2128  0.5310
 7055SOL    HW131634   3.794   9.661   0.388 -1.1359  1.9689  0.5723
 7055SOL    HW231635   3.746   9.562   0.267  2.0371 -0.8612  1.5194
 7056SOL     OW31636   0.198   4.036   1.197  0.7884 -0.0631 -0.1937
 7056SOL    HW131637   0.194   3.936   1.202 -0.7551  0.0486  1.5709
 7056SOL    HW231638   0.203   4.065   1.102 -0.9328 -1.7779 -0.8289
 7057SOL     OW31639   2.303   4.181   2.434  0.3167 -0.4066 -0.5119
 7057SOL    HW131640   2.360   4.152   2.357 -0.0418 -0.1502 -0.8769
 7057SOL    HW231641   2.250   4.261   2.408  1.2450  0.5366  0.4732
 7058SOL     OW31642   0.026   9.441   0.179 -0.5012  0.0755 -0.3900
 7058SOL    HW131643  -0.071   9.419   0.170 -0.9613  1.5454  0.7764
 7058SOL    HW231644   0.053   9.505   0.107 -1.2601  2.3836  1.3251
 7059SOL     OW31645   2.320   2.899   1.778  0.2787  0.1337 -0.5560
 7059SOL    HW131646   2.370   2.972   1.732  0.2500  0.7501  0.3763
 7059SOL    HW231647   2.257   2.939   1.844 -0.0503 -0.7211 -0.3496
 7060SOL     OW31648   8.715   4.770   0.912 -0.4343 -0.1464  0.0923
 7060SOL    HW131649   8.804   4.814   0.924 -0.1747 -0.4355 -0.7280
 7060SOL    HW231650   8.726   4.687   0.857 -1.2503 -0.0369 -0.2415
 7061SOL     OW31651   0.646   7.084   0.905 -0.3218 -0.2234  0.1700
 7061SOL    HW131652   0.549   7.106   0.894 -0.5509 -0.5773  1.4860
 7061SOL    HW231653   0.701   7.158   0.867 -1.0997  1.7769  2.8275
 7062SOL     OW31654   2.357   0.016   3.225  0.1638  0.2588 -0.4962
 7062SOL    HW131655   2.453   0.039   3.204  0.9472 -1.9848  0.5395
 7062SOL    HW231656   2.305   0.008   3.140  0.7035  2.2328 -1.0364
 7063SOL     OW31657   7.575   7.409   1.989  0.0728  0.2837 -0.0517
 7063SOL    HW131658   7.485   7.419   2.031 -0.4125 -0.6913 -0.8245
 7063SOL    HW231659   7.645   7.405   2.060 -0.5480  0.5782  0.5782
 7064SOL     OW31660   0.680   5.456   3.588 -0.3186  0.2339  0.2823
 7064SOL    HW131661   0.604   5.515   3.561 -2.5461 -2.3905  0.5504
 7064SOL    HW231662   0.649   5.361   3.588  3.2164 -0.9646 -0.3059
 7065SOL     OW31663   8.436   1.766   0.990  0.0896  0.5882  0.6034
 7065SOL    HW131664   8.370   1.821   0.939 -0.1571  0.5151  0.8449
 7065SOL    HW231665   8.437   1.673   0.953  1.1384  0.9776 -0.3796
 7066SOL     OW31666   8.110   1.178   1.896  0.1752 -0.0971 -0.1105
 7066SOL    HW131667   8.028   1.122   1.891  0.7408 -0.9177 -0.2597
 7066SOL    HW231668   8.085   1.271   1.922 -0.8724 -0.1805 -0.7771
 7067SOL     OW31669   3.487   0.882   2.365  0.4985 -0.1723 -0.0010
 7067SOL    HW131670   3.547   0.920   2.436 -1.2473  0.7394  1.0081
 7067SOL    HW231671   3.459   0.790   2.391 -0.8399  0.4880  0.9375
 7068SOL     OW31672   0.861   8.915   3.567 -0.4321  0.4140 -0.0644
 7068SOL    HW131673   0.884   8.834   3.514  0.1794  0.7993 -0.3958
 7068SOL    HW231674   0.903   8.995   3.525  0.1360  0.7113  1.0329
 7069SOL     OW31675   1.989   4.853   1.676 -0.9322 -0.0968 -0.1984
 7069SOL    HW131676   2.022   4.770   1.721 -1.7303  0.5407  1.6511
 7069SOL    HW231677   2.051   4.878   1.602  0.7726 -0.8520  0.9431
 7070SOL     OW31678   8.309   2.171   3.907  0.0671 -0.3528 -0.5471
 7070SOL    HW131679   8.364   2.255   3.914 -0.8235  0.0755  1.6020
 7070SOL    HW231680   8.313   2.122   3.994 -3.3841 -0.0472 -0.1830
 7071SOL     OW31681   1.292   4.468   3.891 -0.0844 -0.2449 -0.0592
 7071SOL    HW131682   1.388   4.447   3.876  0.3040 -0.3796  2.3758
 7071SOL    HW231683   1.281   4.567   3.903 -0.4913 -0.0580 -1.8331
 7072SOL     OW31684   1.832   9.097   2.310 -0.4157 -0.1527 -0.0769
 7072SOL    HW131685   1.734   9.078   2.318 -0.5731  0.7052  0.0122
 7072SOL    HW231686   1.882   9.039   2.374 -0.8412 -0.7518 -0.2748
 7073SOL     OW31687   8.845   7.256   2.976  0.2709 -1.0831 -0.1027
 7073SOL    HW131688   8.826   7.162   2.948 -0.9625 -1.3782  1.6093
 7073SOL    HW231689   8.928   7.258   3.032 -0.1092 -1.2990  0.4850
 7074SOL     OW31690   3.454   8.324   3.342 -0.1785 -0.2605 -0.1429
 7074SOL    HW131691   3.501   8.272   3.270 -2.4672 -0.7356 -1.3412
 7074SOL    HW231692   3.394   8.393   3.300 -1.2603 -0.2972  1.3061
 7075SOL     OW31693   0.619   6.966   2.984 -0.3281  0.4285 -0.2216
 7075SOL    HW131694   0.556   6.969   2.907 -0.2024  0.7018 -0.3129
 7075SOL    HW231695   0.571   6.931   3.065  0.1192 -1.9991 -0.9811
 7076SOL     OW31696   0.147   5.739   0.017 -0.4425 -0.1683 -0.7007
 7076SOL    HW131697   0.167   5.643   0.037 -0.3189 -0.5326 -2.4795
 7076SOL    HW231698   0.209   5.772  -0.054  0.9050  1.8571  1.3665
 7077SOL     OW31699   3.779   1.179   1.906 -0.6008  0.0495 -0.0856
 7077SOL    HW131700   3.727   1.242   1.849  1.2370  2.2314  0.5746
 7077SOL    HW231701   3.792   1.219   1.997 -0.8597 -2.0503  0.9110
 7078SOL     OW31702   2.997   9.183   3.368  0.2012  0.9707 -0.8767
 7078SOL    HW131703   3.014   9.150   3.276 -0.1449 -2.1419  0.1076
 7078SOL    HW231704   2.901   9.212   3.376  0.0657  0.6364 -1.3081
 7079SOL     OW31705   6.571   0.005   2.692  0.1687  0.2081  0.0315
 7079SOL    HW131706   6.527   0.065   2.759 -1.4990 -0.0497 -0.7967
 7079SOL    HW231707   6.639   0.055   2.640  0.3586  0.8060  0.8528
 7080SOL     OW31708   4.953   8.026   3.325  0.2343 -0.2505  0.0369
 7080SOL    HW131709   4.944   8.096   3.254  1.2280  1.5995  1.6886
 7080SOL    HW231710   5.007   8.062   3.401 -0.4529 -2.3324  1.5578
 7081SOL     OW31711   9.793   9.306   3.249  0.0447  0.3926 -0.2364
 7081SOL    HW131712   9.732   9.240   3.294 -0.5966  0.4965 -0.9515
 7081SOL    HW231713   9.849   9.352   3.319  2.2377 -2.5976  0.0997
 7082SOL     OW31714   0.248   7.633   2.548 -0.1236 -0.1304 -0.3865
 7082SOL    HW131715   0.345   7.646   2.568  0.3334 -1.9320 -1.2734
 7082SOL    HW231716   0.209   7.719   2.514  1.2222  0.5497 -0.2482
 7083SOL     OW31717   2.861   3.222   1.172  0.6266  0.4141 -1.1337
 7083SOL    HW131718   2.897   3.302   1.123  2.0731 -0.4199 -1.4470
 7083SOL    HW231719   2.920   3.201   1.250 -1.8710  1.9741  1.2653
 7084SOL     OW31720   0.368   0.236   1.240  0.1929  0.0392  0.1100
 7084SOL    HW131721   0.274   0.267   1.223 -0.0732 -0.3789  0.7666
 7084SOL    HW231722   0.397   0.266   1.331  0.5365 -0.2127  0.0847
 7085SOL     OW31723   0.320   3.345   1.142  0.4061 -0.0980  0.5515
 7085SOL    HW131724   0.372   3.397   1.074  0.2599 -0.7543 -0.0671
 7085SOL    HW231725   0.248   3.403   1.180 -0.5825 -0.2327 -1.0740
 7086SOL     OW31726   6.996   8.699   1.325  0.5230  0.4166  0.4108
 7086SOL    HW131727   7.086   8.697   1.282  0.0816  1.9322 -0.6370
 7086SOL    HW231728   6.981   8.788   1.368  0.0236 -0.2722  1.7005
 7087SOL     OW31729   3.249   3.087   3.260 -0.0249  0.9653  0.2940
 7087SOL    HW131730   3.243   3.072   3.359  0.7160  1.7375  0.4573
 7087SOL    HW231731   3.340   3.121   3.237  0.7927 -1.9467 -1.0104
 7088SOL     OW31732   9.894   8.028   3.154  0.3629  0.2910 -0.5312
 7088SOL    HW131733   9.907   8.127   3.147 -0.5346  0.4840  0.4082
 7088SOL    HW231734   9.965   7.989   3.213  0.1266  0.5174 -0.0965
 7089SOL     OW31735   6.331   9.585   2.308 -0.4660  0.0344  0.3603
 7089SOL    HW131736   6.367   9.636   2.386 -0.2037 -0.1740  0.3731
 7089SOL    HW231737   6.236   9.613   2.291 -0.2871  0.6137  0.2986
 7090SOL     OW31738   7.682   1.413   2.797 -0.2680 -0.5605 -0.3363
 7090SOL    HW131739   7.663   1.315   2.787  0.7554 -0.5678 -2.3244
 7090SOL    HW231740   7.703   1.432   2.893  0.8694 -2.5305 -0.1704
 7091SOL     OW31741   9.744   6.723   3.686  0.4038  0.0972  0.2598
 7091SOL    HW131742   9.745   6.641   3.629 -0.0643  2.2216 -2.9116
 7091SOL    HW231743   9.652   6.761   3.689  1.1724  2.0670 -0.6446
 7092SOL     OW31744   9.467   2.023   1.004 -0.0199  0.0200  0.0316
 7092SOL    HW131745   9.409   1.967   0.946 -0.6426  2.5290 -1.8704
 7092SOL    HW231746   9.562   1.991   0.998 -0.0792  0.1713 -2.3563
 7093SOL     OW31747   1.542   3.131   0.556 -0.0506 -0.1438 -0.2416
 7093SOL    HW131748   1.516   3.132   0.460 -1.2353  0.0727  0.0797
 7093SOL    HW231749   1.470   3.172   0.612 -0.0361 -1.6373  0.9095
 7094SOL     OW31750   3.256   1.045   0.406  1.0617 -0.1121  0.0350
 7094SOL    HW131751   3.222   1.139   0.416  3.9744  0.9971  0.1850
 7094SOL    HW231752   3.239   1.013   0.313  2.4072  1.6126 -0.8457
 7095SOL     OW31753   8.900   0.463   2.169  0.1977  0.1335  0.5821
 7095SOL    HW131754   8.830   0.533   2.154  0.4701  0.2152 -0.2987
 7095SOL    HW231755   8.972   0.471   2.100 -0.3797 -1.8013 -0.2626
 7096SOL     OW31756   1.284   3.217   3.094 -0.3152 -0.2024 -0.2597
 7096SOL    HW131757   1.358   3.223   3.027 -1.3529 -0.4580 -1.4552
 7096SOL    HW231758   1.322   3.210   3.186  1.1347 -0.1737 -0.8498
 7097SOL     OW31759   4.760   9.219   0.579 -0.5530  0.2832  0.0241
 7097SOL    HW131760   4.769   9.216   0.479 -0.4417  3.8990 -0.1490
 7097SOL    HW231761   4.672   9.179   0.605 -0.5573 -0.7660 -1.4846
 7098SOL     OW31762   0.109   4.518   1.394 -0.0923  0.2491  0.1414
 7098SOL    HW131763   0.065   4.436   1.358  1.0840 -0.7168  0.8505
 7098SOL    HW231764   0.107   4.590   1.326  0.7648 -1.0662 -1.3205
 7099SOL     OW31765   5.863   8.711   2.138  0.1207  0.1487 -0.0841
 7099SOL    HW131766   5.908   8.751   2.218 -1.5058 -0.5644  1.2058
 7099SOL    HW231767   5.774   8.754   2.124  0.0535 -0.2835 -1.0496
 7100SOL     OW31768   3.908   3.866   3.369 -0.0528 -0.3040 -0.3925
 7100SOL    HW131769   3.852   3.850   3.451  1.1302 -0.5284  0.3878
 7100SOL    HW231770   3.848   3.878   3.290 -1.1924 -0.9050  0.3573
 7101SOL     OW31771   6.049   7.318   2.933  0.4914 -0.1176 -0.4279
 7101SOL    HW131772   6.012   7.398   2.981 -5.0216 -2.1954 -0.8692
 7101SOL    HW231773   6.093   7.257   2.999  0.2243  0.8642  0.6822
 7102SOL     OW31774   9.415   3.699   3.359  0.4051 -1.2881 -0.6793
 7102SOL    HW131775   9.355   3.626   3.327 -1.5141 -0.4272  0.8494
 7102SOL    HW231776   9.502   3.659   3.389 -0.3311 -2.8709 -0.5828
 7103SOL     OW31777   8.728   1.047   4.047  0.1771 -0.5577  0.0209
 7103SOL    HW131778   8.660   1.065   3.975  0.3157  1.2109  0.2917
 7103SOL    HW231779   8.684   1.053   4.136 -0.1949 -3.7096  0.0951
 7104SOL     OW31780   9.926   8.324   1.719  0.0007  0.0701  0.6693
 7104SOL    HW131781   9.936   8.354   1.814 -0.3452  1.8117  0.1536
 7104SOL    HW231782   9.929   8.403   1.658  0.3690 -1.0532 -0.7917
 7105SOL     OW31783   1.757   8.456   2.752 -0.0560 -0.0810  0.1730
 7105SOL    HW131784   1.772   8.453   2.654 -0.6345  0.1041  0.0729
 7105SOL    HW231785   1.667   8.497   2.771 -0.5002 -1.2717  0.7230
 7106SOL     OW31786   8.132   5.863   1.117  0.2894 -0.4170  0.1609
 7106SOL    HW131787   8.168   5.956   1.110 -0.5024 -0.2662 -2.0216
 7106SOL    HW231788   8.071   5.858   1.196  0.5696  0.8363  0.4773
 7107SOL     OW31789   9.551   7.456   2.126 -0.0926  0.5100 -0.1655
 7107SOL    HW131790   9.611   7.378   2.144  0.4157  0.7514 -0.8053
 7107SOL    HW231791   9.456   7.424   2.122  0.0908 -0.0423 -0.1802
 7108SOL     OW31792   9.416   4.262   0.675  0.1388 -0.4296  0.3465
 7108SOL    HW131793   9.409   4.247   0.773  1.2053  0.2768  0.5397
 7108SOL    HW231794   9.359   4.340   0.649  2.0698  1.1703  0.8632
 7109SOL     OW31795   5.273   1.897   1.032 -0.3217 -0.4068  0.5398
 7109SOL    HW131796   5.230   1.958   0.965 -0.4177 -1.2645 -0.1920
 7109SOL    HW231797   5.207   1.828   1.061 -0.1211 -0.3465  1.1327
 7110SOL     OW31798   2.344   3.082   1.994 -0.1078 -0.1277 -0.6485
 7110SOL    HW131799   2.394   3.121   1.917 -2.2673  2.2226 -0.9659
 7110SOL    HW231800   2.401   3.085   2.076  0.9100  0.7690 -1.3744
 7111SOL     OW31801   1.928   1.853   0.810 -0.4392 -0.0077  0.4910
 7111SOL    HW131802   1.980   1.860   0.895 -0.8093 -0.9480  0.8032
 7111SOL    HW231803   1.861   1.927   0.807  0.9675  1.2740  0.0339
 7112SOL     OW31804   3.921   0.416   0.779 -0.4323 -0.7267 -0.1164
 7112SOL    HW131805   3.931   0.455   0.870 -1.9317 -1.8881  0.5585
 7112SOL    HW231806   4.005   0.368   0.753 -0.2580 -1.0002  0.9528
 7113SOL     OW31807   9.906   5.325   1.511 -0.2102  0.5348  0.2606
 7113SOL    HW131808   9.888   5.423   1.500 -2.3075  0.1047 -0.3356
 7113SOL    HW231809   9.948   5.308   1.600  1.4158  2.1253 -0.1780
 7114SOL     OW31810   6.014   8.495   2.087 -0.0657  1.0363  0.7323
 7114SOL    HW131811   5.940   8.563   2.088 -1.0479 -0.0123  3.5051
 7114SOL    HW231812   6.056   8.491   2.177  1.7321 -0.2202 -0.1324
 7115SOL     OW31813   0.334   0.076   0.868  0.2871 -0.4394 -0.2516
 7115SOL    HW131814   0.266   0.008   0.895 -1.8128  1.9221  0.6725
 7115SOL    HW231815   0.341   0.078   0.768  0.4036 -2.0091 -0.2861
 7116SOL     OW31816   3.113   4.759   3.063 -0.0342 -0.3032 -0.4166
 7116SOL    HW131817   3.105   4.668   3.103 -0.3937 -0.7448 -1.4703
 7116SOL    HW231818   3.050   4.767   2.986  0.5364  0.5868 -0.8003
 7117SOL     OW31819   3.083   8.678   0.393  0.3707  0.0331  0.1193
 7117SOL    HW131820   3.167   8.728   0.413  0.0175 -0.0440  1.8556
 7117SOL    HW231821   3.104   8.599   0.335  1.3252  0.6225 -0.3498
 7118SOL     OW31822   9.137   1.878   0.355  0.1958 -0.1584  0.1316
 7118SOL    HW131823   9.049   1.835   0.373  0.2753 -0.4592 -0.2111
 7118SOL    HW231824   9.181   1.834   0.277  0.5117  0.1937  0.1096
 7119SOL     OW31825   0.319   5.828   2.414  0.2588  0.5182  0.1151
 7119SOL    HW131826   0.293   5.733   2.427  0.1157  0.4689 -0.5263
 7119SOL    HW231827   0.364   5.862   2.497  1.3224 -0.4452 -0.0487
 7120SOL     OW31828   9.451   6.869   0.444  0.1829 -0.0438 -0.0198
 7120SOL    HW131829   9.496   6.955   0.469  2.3642 -1.9653  3.0628
 7120SOL    HW231830   9.363   6.863   0.491  0.7387 -0.1660  1.0247
 7121SOL     OW31831   9.806   2.103   1.564  0.2938 -0.0769  0.2663
 7121SOL    HW131832   9.761   2.080   1.478  0.2420 -3.0826  1.0106
 7121SOL    HW231833   9.746   2.077   1.640  1.2192  0.5372  1.2069
 7122SOL     OW31834   4.330   3.376   2.980  0.4276 -0.6075  0.1656
 7122SOL    HW131835   4.416   3.383   2.929  0.8136 -2.3653  0.5267
 7122SOL    HW231836   4.259   3.429   2.934  1.4977  0.1664 -0.6041
 7123SOL     OW31837   6.282   9.038   1.383  0.2452 -0.2083 -0.4124
 7123SOL    HW131838   6.354   8.998   1.327 -0.2292  1.2719 -2.1358
 7123SOL    HW231839   6.222   8.966   1.417  1.4564 -1.2682 -0.5117
 7124SOL     OW31840   9.066   8.833   3.484 -0.1866 -0.2191  0.3161
 7124SOL    HW131841   9.159   8.799   3.495 -0.4707 -0.9150  0.6005
 7124SOL    HW231842   9.045   8.845   3.387 -0.4251 -1.8298  0.1529
 7125SOL     OW31843   7.693   1.812   0.004  0.4254  0.2475  0.3041
 7125SOL    HW131844   7.770   1.868  -0.024  0.6355  0.2634  0.8979
 7125SOL    HW231845   7.663   1.755  -0.072  0.4245  0.9180 -0.1993
 7126SOL     OW31846   3.029   4.001   3.614 -0.2742 -0.0333 -0.0816
 7126SOL    HW131847   3.011   4.099   3.601  0.4306  0.1137  0.0123
 7126SOL    HW231848   3.097   3.989   3.686  1.0311 -0.4893 -1.3654
 7127SOL     OW31849   9.906   6.787   2.245  0.2642 -0.3240  0.1645
 7127SOL    HW131850   9.815   6.821   2.269  0.3626  0.2314 -0.2266
 7127SOL    HW231851   9.975   6.851   2.277  0.4339  0.0421 -0.9183
 7128SOL     OW31852   9.923   8.866   0.823  0.0352  0.3326  0.5252
 7128SOL    HW131853   9.918   8.767   0.819  0.7441  0.3491 -1.6959
 7128SOL    HW231854  10.001   8.898   0.767 -0.7867  2.1717  0.3775
 7129SOL     OW31855   3.076   9.229   2.281 -0.6413  0.4369  0.0137
 7129SOL    HW131856   3.158   9.172   2.280 -1.0365 -0.1313 -1.3435
 7129SOL    HW231857   3.067   9.273   2.370  1.2234  0.6359  0.1188
 7130SOL     OW31858   4.006   9.284   1.048  0.6670  0.1518  0.1641
 7130SOL    HW131859   4.025   9.340   0.967  2.8810  0.9947  1.2365
 7130SOL    HW231860   3.920   9.313   1.089  0.3692  0.8467 -0.9327
 7131SOL     OW31861   8.225   9.868   3.614 -0.0227  0.0163  0.3960
 7131SOL    HW131862   8.292   9.796   3.633  0.2217  0.1427  0.0238
 7131SOL    HW231863   8.141   9.850   3.665 -0.1393 -0.8012 -0.0798
 7132SOL     OW31864   0.045   7.629   1.004 -0.2770  0.8109  0.0258
 7132SOL    HW131865   0.125   7.671   1.047 -0.9606  2.1306  0.0203
 7132SOL    HW231866   0.002   7.564   1.067 -1.5665  3.1053  1.5432
 7133SOL     OW31867   2.903   5.004   1.310  0.1701  0.0413  0.3348
 7133SOL    HW131868   2.876   4.910   1.288 -0.7440  0.5721 -0.9167
 7133SOL    HW231869   2.822   5.057   1.335  0.3397  1.0676 -1.1836
 7134SOL     OW31870   3.363   4.324   2.257 -0.2974  0.2831 -0.3627
 7134SOL    HW131871   3.350   4.227   2.278 -2.0007  0.2016 -1.6513
 7134SOL    HW231872   3.286   4.376   2.293 -0.0825  0.9707 -0.8885
 7135SOL     OW31873   3.261   3.064   2.915  0.2664 -0.2750 -0.2321
 7135SOL    HW131874   3.271   3.147   2.969  1.3936  0.4863 -1.5680
 7135SOL    HW231875   3.338   3.003   2.933  0.7780  0.0924 -1.1574
 7136SOL     OW31876   4.869   1.367   1.065  0.3628  0.1555 -0.2545
 7136SOL    HW131877   4.879   1.464   1.086  0.5944  0.1338 -0.2605
 7136SOL    HW231878   4.942   1.316   1.110  0.0279 -0.0594  0.0463
 7137SOL     OW31879   8.110   8.904   2.095 -0.7048  0.3749 -0.1024
 7137SOL    HW131880   8.202   8.917   2.060 -0.5286  0.0067  0.2206
 7137SOL    HW231881   8.057   8.849   2.030  0.0971 -1.6663  0.9172
 7138SOL     OW31882   1.298   4.187   0.710 -0.6704 -0.0542  0.0214
 7138SOL    HW131883   1.385   4.200   0.662 -0.2097 -0.0901  0.8279
 7138SOL    HW231884   1.232   4.254   0.678 -0.2559  0.1556 -0.3987
 7139SOL     OW31885   4.987   2.666   1.189 -0.6195  0.5448 -0.0828
 7139SOL    HW131886   5.065   2.653   1.250  0.3537  0.6735 -1.2930
 7139SOL    HW231887   4.945   2.755   1.208 -0.3350  0.5747  0.4124
 7140SOL     OW31888   0.966   7.759   2.096 -0.7788  0.1233 -0.1514
 7140SOL    HW131889   0.900   7.822   2.137 -0.6062 -0.0518  0.4027
 7140SOL    HW231890   1.016   7.806   2.024 -1.1086  0.4274 -0.1857
 7141SOL     OW31891   4.664   0.082   1.833 -0.0666 -0.2541 -0.4242
 7141SOL    HW131892   4.683   0.147   1.759 -2.0349  0.8782  0.0079
 7141SOL    HW231893   4.569   0.050   1.825 -0.3588  0.0020  1.6745
 7142SOL     OW31894   9.965   3.904   2.450 -0.1343  0.4447  0.2139
 7142SOL    HW131895   9.973   3.927   2.547 -1.4815 -0.0864  0.4674
 7142SOL    HW231896  10.007   3.815   2.434 -2.4517 -0.8028  0.8856
 7143SOL     OW31897   2.336   6.959   2.254  0.5053 -0.0796  0.4494
 7143SOL    HW131898   2.432   6.978   2.231 -0.3915  3.5767 -0.6027
 7143SOL    HW231899   2.332   6.895   2.331  3.7525 -0.5716  0.2831
 7144SOL     OW31900   7.864   8.141   1.302  0.6115  0.5357 -0.4528
 7144SOL    HW131901   7.940   8.105   1.249 -0.7209 -0.5925 -1.6470
 7144SOL    HW231902   7.841   8.076   1.375  0.6614  0.7866 -0.2096
 7145SOL     OW31903   8.758   2.964   1.044 -0.1098 -0.0809  0.0676
 7145SOL    HW131904   8.751   2.918   1.132  0.9036 -1.8862 -0.7848
 7145SOL    HW231905   8.826   2.919   0.988  0.5114  2.1195 -1.0152
 7146SOL     OW31906   8.718   8.996   3.660  0.8859  0.0227  0.2356
 7146SOL    HW131907   8.761   8.926   3.717  0.0799 -0.2522  0.5162
 7146SOL    HW231908   8.687   9.071   3.719  1.7185  0.5980 -0.0604
 7147SOL     OW31909   0.984   1.212   2.691 -0.3467 -0.0426 -0.3221
 7147SOL    HW131910   1.040   1.137   2.655 -0.0341 -0.3059  0.7015
 7147SOL    HW231911   0.907   1.229   2.629 -0.6567 -1.4764 -0.3515
 7148SOL     OW31912   2.932   8.240   0.285  0.0284  0.2993 -0.1543
 7148SOL    HW131913   2.948   8.303   0.361 -0.0750  0.4139 -0.2271
 7148SOL    HW231914   2.980   8.273   0.204 -1.8096  1.4573 -0.7899
 7149SOL     OW31915   9.144   4.595   4.006  0.2902 -0.4701  0.0460
 7149SOL    HW131916   9.138   4.557   3.913  0.0524  0.0933 -0.1666
 7149SOL    HW231917   9.224   4.654   4.012  0.1958 -0.3531  0.1454
 7150SOL     OW31918   3.468   0.084   1.412  0.2280  0.2374 -0.1795
 7150SOL    HW131919   3.432   0.163   1.460  0.9068  1.3935 -1.5205
 7150SOL    HW231920   3.413   0.003   1.433 -1.3102  1.3484  0.1153
 7151SOL     OW31921   0.318   5.838   3.824  0.6176 -0.1285 -0.5845
 7151SOL    HW131922   0.391   5.885   3.873  0.7853 -1.1053  0.1184
 7151SOL    HW231923   0.304   5.882   3.735 -0.1837  2.1159  0.6067
 7152SOL     OW31924   1.954   0.176   2.791  0.3108  0.6146 -0.0798
 7152SOL    HW131925   1.992   0.100   2.738 -0.9814 -0.9637  1.1850
 7152SOL    HW231926   2.028   0.229   2.832  1.2339 -0.0458 -0.8803
 7153SOL     OW31927   4.888   8.232   0.020  0.4754  0.6512 -0.0329
 7153SOL    HW131928   4.830   8.179  -0.042  0.1682  2.0020 -0.9209
 7153SOL    HW231929   4.875   8.330   0.002  0.7320  1.0521  1.8444
 7154SOL     OW31930   5.289   8.315   3.259  0.2966  0.0410  0.5673
 7154SOL    HW131931   5.212   8.370   3.290  0.8281  0.1659  1.6845
 7154SOL    HW231932   5.265   8.270   3.173 -0.8873  0.3512  0.7252
 7155SOL     OW31933   9.489   8.662   3.202 -0.2210 -0.1490 -0.9505
 7155SOL    HW131934   9.430   8.583   3.215  0.9011 -0.5714  2.1434
 7155SOL    HW231935   9.550   8.647   3.124  0.5480 -2.7461  0.1033
 7156SOL     OW31936   9.737   2.228   0.732  0.4450  0.5585 -0.0610
 7156SOL    HW131937   9.669   2.157   0.714 -1.1442  1.9961  0.1593
 7156SOL    HW231938   9.796   2.238   0.652 -0.5776  0.3596 -0.8509
 7157SOL     OW31939   8.191   1.929   0.571 -0.2436 -0.3912  0.1690
 7157SOL    HW131940   8.186   1.885   0.482  0.5628  3.2000 -1.7669
 7157SOL    HW231941   8.100   1.963   0.597 -0.0030  0.8080 -0.5220
 7158SOL     OW31942   3.273   8.441   0.878 -0.1215  0.5361  0.0946
 7158SOL    HW131943   3.372   8.444   0.890 -0.0510  0.6419 -0.4959
 7158SOL    HW231944   3.244   8.346   0.869 -0.2261  0.4229  1.4537
 7159SOL     OW31945   9.417   7.048   1.648  0.2266  0.1379 -0.3756
 7159SOL    HW131946   9.506   7.029   1.689  0.2044 -0.4285 -0.5779
 7159SOL    HW231947   9.430   7.077   1.553  0.2344  0.7131 -0.2025
 7160SOL     OW31948   4.934   8.640   2.339  0.3457 -0.0803  0.0438
 7160SOL    HW131949   5.020   8.589   2.345  0.6975  0.4566 -0.3558
 7160SOL    HW231950   4.936   8.716   2.403  0.8418  0.8888 -1.0874
 7161SOL     OW31951   9.315   3.021   1.460 -0.3629 -0.3030  0.8736
 7161SOL    HW131952   9.382   2.996   1.390 -0.1445  0.0396  0.9615
 7161SOL    HW231953   9.224   3.025   1.419 -0.4483 -1.5612  0.9215
 7162SOL     OW31954   4.002   9.378   1.477  0.5261  0.0837 -0.0241
 7162SOL    HW131955   4.002   9.437   1.558 -0.7426 -0.7960  0.6232
 7162SOL    HW231956   3.986   9.433   1.396 -2.9823  0.3650  0.7909
 7163SOL     OW31957   3.156   1.540   2.043  0.0314 -0.2004  0.3894
 7163SOL    HW131958   3.066   1.585   2.037  0.1760  0.1074  0.5156
 7163SOL    HW231959   3.221   1.589   1.985 -0.1716 -1.1287 -0.6155
 7164SOL     OW31960   2.874   0.255   1.702 -0.0953  0.3160 -0.0038
 7164SOL    HW131961   2.871   0.314   1.782  2.8104 -1.1574  1.2524
 7164SOL    HW231962   2.963   0.262   1.658  0.7625 -3.9019  0.8204
 7165SOL     OW31963   9.705   9.350   2.320  0.3890 -0.0007 -0.4290
 7165SOL    HW131964   9.797   9.336   2.358  0.7562  1.5201 -0.7289
 7165SOL    HW231965   9.637   9.323   2.389  1.0539 -0.5232  0.0348
 7166SOL     OW31966   0.439   3.768   3.548 -0.1301  0.2933  0.3069
 7166SOL    HW131967   0.436   3.711   3.466 -2.0778 -0.2961  0.7771
 7166SOL    HW231968   0.391   3.854   3.530 -0.4889  0.1966  0.8004
 7167SOL     OW31969   4.815   8.652   1.124 -0.9824  0.0647  0.1017
 7167SOL    HW131970   4.720   8.650   1.154 -1.2922  0.1447 -0.8375
 7167SOL    HW231971   4.844   8.747   1.114 -1.0504  0.0400 -0.3485
 7168SOL     OW31972   9.294   6.979   3.554 -0.7885  0.0106  0.8766
 7168SOL    HW131973   9.321   7.060   3.607  0.2947  0.5190 -0.4307
 7168SOL    HW231974   9.196   6.984   3.534 -0.8147  0.7872  1.1807
 7169SOL     OW31975   1.937   1.330   0.084  0.3032  0.3326 -0.0923
 7169SOL    HW131976   1.897   1.392   0.017  1.1508  1.2751  0.2540
 7169SOL    HW231977   1.992   1.383   0.149  2.6816 -0.9723 -0.9566
 7170SOL     OW31978   0.983   2.838   2.479  0.1804  0.3467  0.1852
 7170SOL    HW131979   0.991   2.753   2.531  0.5697  0.7196  0.7371
 7170SOL    HW231980   0.924   2.902   2.528 -1.1154 -0.0504 -0.8246
 7171SOL     OW31981   9.806   0.968   0.381 -0.1951  0.3211 -0.0312
 7171SOL    HW131982   9.839   0.936   0.470  1.3632  0.9300 -0.3697
 7171SOL    HW231983   9.710   0.996   0.389 -0.8403 -1.9892  0.8567
 7172SOL     OW31984   1.669   8.266   1.633 -0.4039  0.0561  0.1906
 7172SOL    HW131985   1.642   8.257   1.537 -1.1576  0.9212  0.3201
 7172SOL    HW231986   1.739   8.336   1.642 -1.4195  1.0425  0.4722
 7173SOL     OW31987   2.087   9.170   0.287  0.0765  0.0578 -0.0257
 7173SOL    HW131988   1.988   9.167   0.295 -0.1456 -0.8217 -2.5736
 7173SOL    HW231989   2.112   9.214   0.200  1.9426  1.0080  0.9489
 7174SOL     OW31990   3.418   7.079   2.891  0.4805  0.1644 -0.0746
 7174SOL    HW131991   3.503   7.132   2.891 -0.2975  1.4193  0.2324
 7174SOL    HW231992   3.350   7.125   2.947 -0.9880  0.0997 -1.7675
 7175SOL     OW31993   9.200   2.370   0.936 -0.5586 -0.0521  0.1554
 7175SOL    HW131994   9.281   2.317   0.911 -0.4806  0.2278 -0.1921
 7175SOL    HW231995   9.125   2.348   0.873 -0.6194  0.0245  0.1990
 7176SOL     OW31996   7.471   9.710   0.387  0.3689  0.0939 -0.1324
 7176SOL    HW131997   7.457   9.622   0.340 -1.5296  0.6348 -0.5987
 7176SOL    HW231998   7.502   9.778   0.322  1.9459 -0.2279  0.2503
 7177SOL     OW31999   7.639   9.494   2.010  0.0554 -0.1357 -0.3196
 7177SOL    HW132000   7.727   9.504   1.963  1.7897  0.3759  2.8243
 7177SOL    HW232001   7.640   9.408   2.062 -0.5669  0.7539  1.1779
 7178SOL     OW32002   3.165   9.432   3.222 -0.7012 -0.3700  0.1999
 7178SOL    HW132003   3.134   9.396   3.134  1.4169  0.5813 -0.9570
 7178SOL    HW232004   3.134   9.526   3.233  0.2740  0.0039 -0.1937
 7179SOL     OW32005   4.306   2.105   1.412  0.0558  0.1496 -0.3210
 7179SOL    HW132006   4.212   2.114   1.379  0.0864  3.5262  0.2862
 7179SOL    HW232007   4.306   2.061   1.502 -0.8737 -0.4531 -0.6071
 7180SOL     OW32008   0.192   7.968   3.998  0.2444  0.7141 -0.5670
 7180SOL    HW132009   0.244   7.886   4.025 -0.6913  0.2052 -0.3101
 7180SOL    HW232010   0.230   8.004   3.913 -1.1854 -1.7117 -2.3059
 7181SOL     OW32011   1.016   0.021   2.789 -0.0024  0.4958  0.1268
 7181SOL    HW132012   0.936   0.052   2.737  0.5850 -0.8791 -1.6813
 7181SOL    HW232013   1.063   0.100   2.827 -0.0378  1.6470 -2.1009
 7182SOL     OW32014   2.918   9.104   1.532 -0.3707 -0.1177  0.0848
 7182SOL    HW132015   2.927   9.057   1.444  0.2898 -0.0842  0.1293
 7182SOL    HW232016   2.837   9.071   1.580 -0.0851 -0.9743 -0.0232
 7183SOL     OW32017   2.552   3.460   0.234  0.0927 -0.3052 -0.0723
 7183SOL    HW132018   2.464   3.436   0.273  0.5594 -1.9232  0.0131
 7183SOL    HW232019   2.625   3.410   0.282  0.9373  0.0367 -0.9704
 7184SOL     OW32020   9.685   3.980   3.316  0.6380  0.2590  0.0752
 7184SOL    HW132021   9.720   4.009   3.405  1.5344  0.3364 -0.2898
 7184SOL    HW232022   9.601   4.030   3.294  1.2650  1.3739  0.1905
 7185SOL     OW32023   1.652   5.568   3.458 -0.4636 -0.2796 -0.3702
 7185SOL    HW132024   1.686   5.480   3.492 -0.0832  0.2436  0.6236
 7185SOL    HW232025   1.553   5.570   3.464 -0.4268 -0.3632  0.3081
 7186SOL     OW32026   9.993   1.935   0.204 -0.3574  0.0297 -0.7387
 7186SOL    HW132027   9.917   1.870   0.198  0.5835 -1.0703 -0.8924
 7186SOL    HW232028  10.046   1.933   0.119  0.4715 -0.0039 -0.2319
 7187SOL     OW32029   9.388   2.977   0.067 -0.1448  0.0905 -0.2023
 7187SOL    HW132030   9.429   3.066   0.047 -1.8079  0.8468 -0.3442
 7187SOL    HW232031   9.297   2.973   0.025 -0.0390 -1.7116 -0.2745
 7188SOL     OW32032   3.522   9.900   2.991  0.2049 -0.1535 -0.1871
 7188SOL    HW132033   3.587   9.958   3.041  1.9056  0.2706 -2.7882
 7188SOL    HW232034   3.430   9.935   3.005  0.9662  1.8619  0.0933
 7189SOL     OW32035   4.351   6.999   1.784 -0.4138 -0.1567  0.3471
 7189SOL    HW132036   4.262   7.044   1.793 -0.2586  0.0982  0.6172
 7189SOL    HW232037   4.394   7.029   1.699 -1.1820 -1.3302 -0.4600
 7190SOL     OW32038   7.855   1.597   2.720 -0.3159  0.5062 -0.3919
 7190SOL    HW132039   7.846   1.649   2.804  0.3328  1.3343 -0.8236
 7190SOL    HW232040   7.789   1.522   2.719 -0.5522  0.7031  0.6933
 7191SOL     OW32041   9.966   1.706   1.040  0.0824  0.4307 -0.4324
 7191SOL    HW132042   9.999   1.787   1.087 -0.2574  1.8687 -2.6100
 7191SOL    HW232043  10.037   1.635   1.041 -0.0278  0.3292  2.4206
 7192SOL     OW32044   8.323   3.557   0.262  0.3011 -0.6880  0.3430
 7192SOL    HW132045   8.374   3.527   0.342  1.1480 -0.2090 -0.0141
 7192SOL    HW232046   8.342   3.495   0.185 -0.2688 -0.9652  0.4186
 7193SOL     OW32047   0.178   3.495   3.110  0.4332  0.0028 -0.4398
 7193SOL    HW132048   0.088   3.496   3.068 -0.3228 -0.4373  1.1581
 7193SOL    HW232049   0.217   3.403   3.104  0.3391 -0.0522 -0.1885
 7194SOL     OW32050   0.193   8.758   2.581  0.2858 -0.0902 -0.3902
 7194SOL    HW132051   0.263   8.757   2.652 -0.9891 -1.2057  0.8707
 7194SOL    HW232052   0.113   8.809   2.613  0.5498  1.2848 -1.8693
 7195SOL     OW32053   8.995   3.648   2.273  0.1666  0.2117  0.1460
 7195SOL    HW132054   9.015   3.566   2.220 -0.6940  0.2342 -0.2265
 7195SOL    HW232055   9.036   3.728   2.228 -0.2302  0.1778 -0.2845
 7196SOL     OW32056   9.129   6.866   2.658 -0.0002  0.1535 -0.4909
 7196SOL    HW132057   9.194   6.876   2.582  0.5256 -0.1544 -0.0855
 7196SOL    HW232058   9.046   6.821   2.625  0.4314 -0.4397 -0.7723
 7197SOL     OW32059   2.541   9.601   2.241  0.5047  0.3833  0.4069
 7197SOL    HW132060   2.547   9.595   2.142  1.1108 -0.6249  0.5003
 7197SOL    HW232061   2.630   9.629   2.278  0.7419 -0.8225  0.7746
 7198SOL     OW32062   2.746   0.672   2.292  0.4288 -0.4077 -0.3304
 7198SOL    HW132063   2.763   0.770   2.280  1.9639 -0.6205 -0.0546
 7198SOL    HW232064   2.814   0.634   2.354 -2.9500 -0.7715  3.3476
 7199SOL     OW32065   2.655   3.398   1.682 -0.2951 -0.1743  0.5020
 7199SOL    HW132066   2.684   3.392   1.586  1.5104  0.8388  0.9577
 7199SOL    HW232067   2.605   3.484   1.696  0.0028 -0.0176  0.6074
 7200SOL     OW32068   2.133   9.696   2.137  0.1848  0.1943 -0.0062
 7200SOL    HW132069   2.201   9.768   2.124 -0.2096  0.3401 -1.2856
 7200SOL    HW232070   2.071   9.694   2.059 -1.5504  0.3536  1.3239
 7201SOL     OW32071   0.930   3.919   0.296  0.0689 -0.7668 -0.6299
 7201SOL    HW132072   0.925   3.976   0.214  0.6063 -0.7337 -0.6381
 7201SOL    HW232073   1.005   3.950   0.354 -1.0674 -0.0197  0.4598
 7202SOL     OW32074   9.297   4.724   0.972  0.3978  0.3820  0.0202
 7202SOL    HW132075   9.365   4.793   0.997  0.8486  0.4702 -1.4409
 7202SOL    HW232076   9.339   4.655   0.913 -1.0444  1.0652 -1.8624
 7203SOL     OW32077   1.945   7.037   2.974 -0.6591  0.4621  0.3708
 7203SOL    HW132078   1.901   6.998   3.055 -3.4360  0.1646 -1.2174
 7203SOL    HW232079   1.948   6.969   2.901  2.2379  0.5813  0.3227
 7204SOL     OW32080   4.418   8.129   2.233 -0.2370 -0.2472 -0.3596
 7204SOL    HW132081   4.415   8.116   2.332 -1.0922  0.4139 -0.2934
 7204SOL    HW232082   4.492   8.193   2.210 -0.8512  0.5850 -0.0323
 7205SOL     OW32083   8.533   2.997   1.297  0.3284 -0.0077  0.4808
 7205SOL    HW132084   8.453   2.968   1.349 -0.4431  1.9880  0.4718
 7205SOL    HW232085   8.506   3.019   1.203  1.1143 -0.4853  0.1358
 7206SOL     OW32086   2.942   4.467   0.523  0.4415 -0.5405  0.4329
 7206SOL    HW132087   2.959   4.555   0.566 -0.7931 -0.2991  0.4551
 7206SOL    HW232088   2.975   4.468   0.429 -0.0756  0.1464  0.2554
 7207SOL     OW32089   1.125   6.461   2.934 -0.0857  0.3206 -0.1004
 7207SOL    HW132090   1.096   6.543   2.884  0.0507  0.9188  0.7991
 7207SOL    HW232091   1.151   6.486   3.027  0.8006 -0.6182 -0.0918
 7208SOL     OW32092   0.469   7.902   3.460  0.3340  0.2874 -1.1623
 7208SOL    HW132093   0.436   7.952   3.380  0.5593 -0.9857 -2.0559
 7208SOL    HW232094   0.433   7.809   3.459 -1.9294  1.0614  1.6966
 7209SOL     OW32095   3.072   1.048   2.124 -0.3297  0.0367  0.8140
 7209SOL    HW132096   3.068   1.092   2.034 -2.3850 -0.0725  0.8363
 7209SOL    HW232097   3.015   1.099   2.189 -0.4662 -1.0379  1.5501
 7210SOL     OW32098   0.364   5.583   2.725  0.1812  0.0869  0.0607
 7210SOL    HW132099   0.290   5.649   2.710 -0.0826  0.0892  1.3055
 7210SOL    HW232100   0.325   5.496   2.755  0.5183 -0.6898 -1.7527
 7211SOL     OW32101   8.362   7.431   1.163  0.2959 -0.1782 -0.3219
 7211SOL    HW132102   8.386   7.496   1.235 -2.2005  0.8119 -0.3190
 7211SOL    HW232103   8.269   7.451   1.130  0.4290 -2.2200 -2.0333
 7212SOL     OW32104   1.149   7.411   1.259  0.6115  1.1341  0.5465
 7212SOL    HW132105   1.109   7.356   1.185  0.4546  3.9192 -1.5108
 7212SOL    HW232106   1.078   7.431   1.327  0.6379 -1.0587  1.2566
 7213SOL     OW32107   5.065   8.683   3.452 -0.1722 -0.2217  0.3520
 7213SOL    HW132108   5.010   8.743   3.511  2.1716  1.8217  0.5297
 7213SOL    HW232109   5.129   8.631   3.508 -0.4046 -0.9542 -0.0599
 7214SOL     OW32110   1.818   7.108   1.885  0.2335 -0.4513 -0.2654
 7214SOL    HW132111   1.849   7.196   1.847  0.5360 -0.4551 -0.0340
 7214SOL    HW232112   1.846   7.034   1.824  2.5569 -0.6412  0.9805
 7215SOL     OW32113   9.320   1.851   1.841  0.1769 -0.2259  0.2994
 7215SOL    HW132114   9.341   1.754   1.849  0.2649 -0.2700 -0.4467
 7215SOL    HW232115   9.225   1.863   1.811  0.0162 -0.0724  0.8608
 7216SOL     OW32116   0.881   3.836   1.470  0.1936 -0.3439 -0.1053
 7216SOL    HW132117   0.893   3.932   1.448  0.9325 -0.8938 -2.2958
 7216SOL    HW232118   0.933   3.813   1.552  1.8892  0.6313 -0.8785
 7217SOL     OW32119   9.246   8.332   2.205  0.2298  0.2694  0.1903
 7217SOL    HW132120   9.296   8.322   2.119 -0.1826  1.7096 -0.2201
 7217SOL    HW232121   9.153   8.299   2.193  0.8712 -1.8953  0.8039
 7218SOL     OW32122   1.520   2.058   0.796  0.1800  0.4682 -0.1915
 7218SOL    HW132123   1.606   2.040   0.748 -0.5330 -2.2886 -0.5684
 7218SOL    HW232124   1.516   2.002   0.879 -0.3730  2.1214  0.9001
 7219SOL     OW32125   3.467   2.157   3.921 -0.0377 -0.2741  0.0304
 7219SOL    HW132126   3.385   2.103   3.904  0.5053 -1.1558  0.1995
 7219SOL    HW232127   3.478   2.224   3.848 -1.3040  0.3477  0.3889
 7220SOL     OW32128   8.148   4.635   2.640  0.2799  0.2292 -0.1800
 7220SOL    HW132129   8.137   4.687   2.555  0.2146  0.6874  0.1049
 7220SOL    HW232130   8.107   4.686   2.716 -1.0184 -0.8797 -0.1170
 7221SOL     OW32131   0.440   9.704   0.271 -0.3179 -0.3035  0.1109
 7221SOL    HW132132   0.378   9.628   0.251 -0.2950 -0.3744  0.3046
 7221SOL    HW232133   0.486   9.687   0.359 -0.6113  0.1283  0.3489
 7222SOL     OW32134   6.921   8.946   1.916  0.9108  0.7473  0.7327
 7222SOL    HW132135   6.923   8.909   1.823  0.1596  1.0984  0.5720
 7222SOL    HW232136   6.892   8.874   1.980  0.9722  0.6309  0.6294
 7223SOL     OW32137   0.342   1.323   3.797 -0.3583  0.5116 -0.3501
 7223SOL    HW132138   0.375   1.229   3.808 -2.4090 -0.0812  1.2169
 7223SOL    HW232139   0.406   1.387   3.839  1.1238 -0.1638 -1.5483
 7224SOL     OW32140   5.174   7.297   3.049  0.0624 -0.3172  0.4670
 7224SOL    HW132141   5.142   7.264   2.959  0.0669  0.2307  0.2642
 7224SOL    HW232142   5.124   7.380   3.073 -1.1355 -1.3889  1.7408
 7225SOL     OW32143   2.950   9.766   1.707 -0.2247 -0.0086 -0.0143
 7225SOL    HW132144   2.897   9.851   1.703  0.4646  0.4364  0.0960
 7225SOL    HW232145   2.945   9.728   1.799  1.4714  1.2403  0.6351
 7226SOL     OW32146   8.519   1.122   1.055 -0.0290  0.0890 -0.1345
 7226SOL    HW132147   8.606   1.076   1.071 -1.0324 -2.8295 -2.6143
 7226SOL    HW232148   8.500   1.184   1.131  4.4062  1.1983  0.2317
 7227SOL     OW32149   0.633   3.042   4.005  0.3424  0.9486 -0.2417
 7227SOL    HW132150   0.549   3.060   4.055  0.6102  0.4873  0.3690
 7227SOL    HW232151   0.659   2.946   4.014  0.6431  0.9602 -0.8781
 7228SOL     OW32152   8.893   5.267   3.625 -0.4048 -0.0784  0.1412
 7228SOL    HW132153   8.981   5.314   3.634  0.2517 -1.2812  0.0895
 7228SOL    HW232154   8.875   5.214   3.708  0.0286 -1.7078 -0.8077
 7229SOL     OW32155   1.440   0.232   2.587  0.5940 -0.7792 -0.1170
 7229SOL    HW132156   1.523   0.213   2.640  1.1261 -2.4128 -1.5037
 7229SOL    HW232157   1.370   0.165   2.611  0.1997 -0.3503 -0.0797
 7230SOL     OW32158   6.214   8.797   2.758  0.2955  0.1046  0.3801
 7230SOL    HW132159   6.119   8.778   2.780 -0.3940  1.3340 -1.4217
 7230SOL    HW232160   6.268   8.714   2.769 -0.9395 -0.5554  1.5845
 7231SOL     OW32161   3.494   2.928   1.697  0.1519 -0.1701 -0.5725
 7231SOL    HW132162   3.501   2.924   1.797 -0.3088 -0.4414 -0.5533
 7231SOL    HW232163   3.571   2.982   1.661 -0.2986  0.8849  0.0073
 7232SOL     OW32164   0.586   1.533   3.505  0.5455 -0.5414  0.6853
 7232SOL    HW132165   0.593   1.628   3.535  0.7108 -0.7443  1.3058
 7232SOL    HW232166   0.605   1.527   3.407  1.5340 -0.0806  0.8465
 7233SOL     OW32167   0.426   8.694   3.506 -0.2273  0.1229 -0.0161
 7233SOL    HW132168   0.470   8.775   3.466  0.1841  0.4105  0.9916
 7233SOL    HW232169   0.326   8.702   3.496 -0.0765 -0.3996 -2.0576
 7234SOL     OW32170   3.794   9.710   3.516  0.2718  0.3528  0.0552
 7234SOL    HW132171   3.710   9.708   3.461 -0.1274  3.3103  0.4788
 7234SOL    HW232172   3.781   9.773   3.593  1.9353 -1.3157  1.7402
 7235SOL     OW32173   5.182   7.833   3.521  0.6910 -0.2131 -0.2346
 7235SOL    HW132174   5.148   7.910   3.468 -0.8659  0.0881  1.1692
 7235SOL    HW232175   5.210   7.759   3.459  0.9315  0.9443 -1.5295
 7236SOL     OW32176   5.561   9.870   2.157 -0.5787  0.1048  0.1508
 7236SOL    HW132177   5.491   9.879   2.087  0.2847 -1.1204 -0.8771
 7236SOL    HW232178   5.595   9.961   2.182 -0.4808  0.5091 -1.4257
 7237SOL     OW32179   3.825   8.695   2.402  0.3763  0.0513 -0.0161
 7237SOL    HW132180   3.896   8.639   2.443 -0.1709 -0.8642 -0.2863
 7237SOL    HW232181   3.857   8.789   2.391  1.4645 -0.3147  0.0398
 7238SOL     OW32182   2.658   8.426   3.692 -0.3097  0.2201  0.2687
 7238SOL    HW132183   2.719   8.453   3.618  1.1631  2.4763  2.2438
 7238SOL    HW232184   2.680   8.332   3.721  0.4597  0.0745 -0.7879
 7239SOL     OW32185   8.747   3.053   1.562  0.5512  0.6621 -0.0553
 7239SOL    HW132186   8.745   3.067   1.463  0.2243  1.1794  0.0255
 7239SOL    HW232187   8.828   3.099   1.599 -1.6732  4.3388  0.5055
 7240SOL     OW32188   8.437   6.511   1.148  0.3598 -0.0594  0.5940
 7240SOL    HW132189   8.373   6.451   1.100  0.1705  0.8399 -0.2897
 7240SOL    HW232190   8.388   6.561   1.220  0.4474 -0.6888  1.1016
 7241SOL     OW32191   3.129   0.220   1.602  0.6132  0.0978  0.0131
 7241SOL    HW132192   3.225   0.246   1.611  0.3342  0.8957  0.7701
 7241SOL    HW232193   3.106   0.150   1.671  0.8325 -0.6293 -0.6468
 7242SOL     OW32194   1.724   8.338   0.170 -0.1824  0.0053  0.5011
 7242SOL    HW132195   1.759   8.345   0.076 -0.5121 -0.8548  0.3141
 7242SOL    HW232196   1.633   8.379   0.174  0.5219  1.5910  0.8297
 7243SOL     OW32197   3.515   3.250   2.263 -0.1491 -0.1264 -0.3086
 7243SOL    HW132198   3.610   3.232   2.289  0.2063  1.4426 -0.4637
 7243SOL    HW232199   3.456   3.177   2.297  1.0112 -0.7184  0.4498
 7244SOL     OW32200   7.993   2.153   0.359 -0.3707 -0.0684 -0.5149
 7244SOL    HW132201   7.924   2.089   0.325 -0.2058 -0.5678  0.0805
 7244SOL    HW232202   7.996   2.149   0.459 -0.3819  0.8999 -0.4707
 7245SOL     OW32203   9.749   1.491   0.082 -0.1491 -0.3937  0.4540
 7245SOL    HW132204   9.674   1.500   0.017  1.9386  2.8278 -1.6941
 7245SOL    HW232205   9.822   1.435   0.042  0.7822  0.8910  0.3021
 7246SOL     OW32206   3.239   8.059   2.832  0.2646 -0.4221 -0.1879
 7246SOL    HW132207   3.333   8.025   2.834  0.1930 -0.5601  0.8362
 7246SOL    HW232208   3.229   8.124   2.756  0.8638 -1.3302 -1.0505
 7247SOL     OW32209   7.948   9.545   0.428  0.1260  0.0562 -0.5742
 7247SOL    HW132210   7.906   9.568   0.516 -1.3063 -1.6163 -0.7777
 7247SOL    HW232211   7.883   9.564   0.355 -0.9532 -3.9764 -0.7869
 7248SOL     OW32212   6.495   9.203   2.709  0.0174  0.1828  0.1095
 7248SOL    HW132213   6.457   9.215   2.801 -2.3262  2.9828 -1.1255
 7248SOL    HW232214   6.440   9.135   2.659  0.7358 -0.6675  0.4686
 7249SOL     OW32215   1.360   3.505   3.560 -0.1664 -0.4352 -0.2936
 7249SOL    HW132216   1.347   3.418   3.512 -0.5177 -1.2162  1.2074
 7249SOL    HW232217   1.275   3.558   3.557 -0.1161 -0.3717 -0.7210
 7250SOL     OW32218   1.217   3.910   1.536  0.2652  0.1913  0.0945
 7250SOL    HW132219   1.314   3.921   1.512  0.0254  0.1667 -0.8980
 7250SOL    HW232220   1.162   3.910   1.453 -0.7796  2.0454  0.7608
 7251SOL     OW32221   7.949   3.822   3.379  0.2992  0.3451  0.4588
 7251SOL    HW132222   7.900   3.742   3.415  0.2936  0.2930  0.3358
 7251SOL    HW232223   7.883   3.891   3.350  0.2425 -0.4237 -1.3286
 7252SOL     OW32224   1.753   8.574   3.804 -0.0292 -0.0530 -0.5691
 7252SOL    HW132225   1.832   8.584   3.743 -0.1102  0.8872 -0.5259
 7252SOL    HW232226   1.761   8.488   3.855  2.6622  1.5504  1.8551
 7253SOL     OW32227   2.748   6.365   3.007  0.1509  0.1017 -0.2433
 7253SOL    HW132228   2.786   6.273   3.013  1.7969  0.8049  0.2796
 7253SOL    HW232229   2.698   6.375   2.921  0.7028 -1.0150 -0.6985
 7254SOL     OW32230   1.227   8.111   0.198 -0.0467 -0.1833 -0.5482
 7254SOL    HW132231   1.181   8.086   0.113 -1.2882  1.8654 -0.5217
 7254SOL    HW232232   1.162   8.109   0.274  0.5835 -0.0773 -0.0005
 7255SOL     OW32233   0.036   0.544   3.994  0.1432 -0.5123 -0.1818
 7255SOL    HW132234   0.114   0.482   3.991 -0.2849 -1.1713  1.5054
 7255SOL    HW232235   0.035   0.592   4.082 -0.9063  0.0780 -0.5080
 7256SOL     OW32236   0.863   5.430   2.951  0.4810  0.6879  0.0190
 7256SOL    HW132237   0.893   5.521   2.921  0.3745  0.9055  0.5581
 7256SOL    HW232238   0.763   5.430   2.958  0.6022  1.2110  2.1497
 7257SOL     OW32239   8.807   9.569   2.178  0.3771 -0.3207 -0.8695
 7257SOL    HW132240   8.895   9.588   2.221  0.2929  0.0626 -0.8604
 7257SOL    HW232241   8.739   9.549   2.248  0.8575 -2.3335 -0.9571
 7258SOL     OW32242   1.174   4.348   2.411  0.3169  0.7132  0.3386
 7258SOL    HW132243   1.254   4.396   2.448  0.3833  0.7848  0.1010
 7258SOL    HW232244   1.163   4.372   2.315  0.3852  0.2031  0.2027
 7259SOL     OW32245   1.263   2.476   1.433  0.4902  0.3334 -0.4063
 7259SOL    HW132246   1.305   2.417   1.501 -2.1804  1.0392  1.9502
 7259SOL    HW232247   1.264   2.570   1.465 -0.1594  0.7812 -1.6688
 7260SOL     OW32248   1.886   1.444   2.274 -0.2418  0.3606 -0.4142
 7260SOL    HW132249   1.852   1.386   2.200  0.4013  0.3921 -0.7346
 7260SOL    HW232250   1.926   1.387   2.346  1.9702  0.4869 -1.5245
 7261SOL     OW32251   7.926   2.959   1.001 -0.1165  0.5102 -0.0305
 7261SOL    HW132252   7.968   2.883   1.050 -3.2680 -1.6843 -0.5060
 7261SOL    HW232253   7.989   2.995   0.932  1.8167 -0.9843  0.9454
 7262SOL     OW32254   9.518   0.414   3.204 -0.1861  0.0877 -0.3640
 7262SOL    HW132255   9.482   0.459   3.122  0.2293  2.9825  0.9724
 7262SOL    HW232256   9.609   0.377   3.184  0.1231  1.2112 -1.1166
 7263SOL     OW32257   3.889   2.745   3.339  0.0524 -0.1199  0.3998
 7263SOL    HW132258   3.976   2.744   3.388  0.4838 -0.4666 -0.3732
 7263SOL    HW232259   3.905   2.738   3.241 -0.7489  1.9813  0.0902
 7264SOL     OW32260   2.811   9.968   1.984 -0.1324  0.0635 -0.2650
 7264SOL    HW132261   2.777   9.997   1.894  0.0043  0.1288 -0.2959
 7264SOL    HW232262   2.853   9.878   1.976  0.2937  0.2689 -0.3607
 7265SOL     OW32263   9.668   3.191   3.525 -0.5244  0.4323 -0.5622
 7265SOL    HW132264   9.735   3.117   3.514 -0.6155  0.2440  0.1144
 7265SOL    HW232265   9.697   3.250   3.601 -1.5181 -0.0813  0.2261
 7266SOL     OW32266   2.507   2.005   1.331  0.4946  0.1425 -0.1127
 7266SOL    HW132267   2.522   2.083   1.270  1.6742  1.6003  1.9748
 7266SOL    HW232268   2.591   1.950   1.336  0.6116  0.3829  0.6585
 7267SOL     OW32269   1.448   6.788   0.192 -0.0842 -0.1208  0.1441
 7267SOL    HW132270   1.383   6.818   0.123 -0.0394  0.0239  0.1651
 7267SOL    HW232271   1.416   6.703   0.233 -0.8158  0.5311  0.9304
 7268SOL     OW32272   3.253   9.388   0.899 -0.1954  0.1044 -0.4678
 7268SOL    HW132273   3.283   9.358   0.808  1.4634 -0.6223  0.2940
 7268SOL    HW232274   3.333   9.399   0.958 -0.9535  3.5394  0.0540
 7269SOL     OW32275   1.497   2.862   1.586  0.0838 -0.6556  0.4999
 7269SOL    HW132276   1.438   2.914   1.646  0.3524 -0.9220  0.9995
 7269SOL    HW232277   1.490   2.765   1.608  1.1107 -0.6441  0.9331
 7270SOL     OW32278   0.856   7.138   2.166 -0.7106 -0.5466 -0.6136
 7270SOL    HW132279   0.938   7.160   2.218 -0.4004  0.6656 -1.5802
 7270SOL    HW232280   0.789   7.212   2.176 -0.7240 -0.3841 -1.7414
 7271SOL     OW32281   8.079   4.261   0.340 -0.4708  0.0575  0.2169
 7271SOL    HW132282   8.150   4.321   0.304 -0.7486  0.3756  0.1881
 7271SOL    HW232283   8.103   4.233   0.433 -1.3360  1.9375  1.0494
 7272SOL     OW32284   3.325   8.552   2.197 -0.3086  0.2655 -0.0320
 7272SOL    HW132285   3.401   8.574   2.259 -1.2486  1.6060  0.6580
 7272SOL    HW232286   3.321   8.619   2.123 -0.5645 -0.0474 -0.3046
 7273SOL     OW32287   2.225   7.405   2.030 -0.9075  0.3283 -0.6789
 7273SOL    HW132288   2.175   7.397   2.117  0.3738 -0.0708  0.0255
 7273SOL    HW232289   2.312   7.451   2.045  0.8734 -2.7937 -1.1204
 7274SOL     OW32290   5.315   0.325   2.914  0.6719 -0.1106  0.4185
 7274SOL    HW132291   5.261   0.249   2.876 -0.4080  0.8283  0.0387
 7274SOL    HW232292   5.317   0.318   3.014 -0.4552  0.0382  0.4569
 7275SOL     OW32293   1.355   1.955   0.413  0.3353  0.2767 -0.1329
 7275SOL    HW132294   1.331   1.888   0.343  2.4107 -0.7356  0.0905
 7275SOL    HW232295   1.317   1.927   0.501  1.7165 -0.9566  0.0839
 7276SOL     OW32296   7.928   0.664   0.643  0.6871 -0.2892  0.0649
 7276SOL    HW132297   7.835   0.668   0.605  0.1526  2.9005  1.5884
 7276SOL    HW232298   7.958   0.568   0.645 -1.7806 -1.2028 -2.2397
 7277SOL     OW32299   8.084   7.459   2.632  0.1709  0.2986 -0.2108
 7277SOL    HW132300   8.052   7.386   2.572 -2.2247  1.4353 -0.3811
 7277SOL    HW232301   8.144   7.421   2.702 -0.0672 -1.6395 -1.0265
 7278SOL     OW32302   9.738   3.781   0.218 -0.1965  0.2398 -0.0538
 7278SOL    HW132303   9.771   3.768   0.312  1.7361 -0.2514 -0.7721
 7278SOL    HW232304   9.812   3.820   0.163 -1.5262  1.0971 -1.2250
 7279SOL     OW32305   2.452   1.212   1.400  0.0988  0.1949 -0.1942
 7279SOL    HW132306   2.440   1.299   1.352 -0.2475  0.6753  0.7672
 7279SOL    HW232307   2.364   1.164   1.405 -0.5383  1.6105  2.7782
 7280SOL     OW32308   1.475   9.991   1.216 -0.4457 -0.2419  0.3901
 7280SOL    HW132309   1.488   9.893   1.231 -0.3982 -0.0254  1.7995
 7280SOL    HW232310   1.462  10.008   1.118 -1.7279 -1.7996  0.2724
 7281SOL     OW32311   1.071   1.419   3.123 -0.4455  0.3750 -0.0679
 7281SOL    HW132312   0.989   1.447   3.073  0.0589 -1.0911 -1.7369
 7281SOL    HW232313   1.151   1.466   3.085 -0.3541  1.0004  0.8748
 7282SOL     OW32314   9.603   9.410   2.962 -0.0832 -0.1361 -0.0076
 7282SOL    HW132315   9.641   9.334   3.016  2.2858  1.2052  0.2924
 7282SOL    HW232316   9.624   9.496   3.008 -1.1524  0.8126 -1.2892
 7283SOL     OW32317   8.992   9.984   3.868 -0.3767  0.3715  0.3273
 7283SOL    HW132318   9.041   9.918   3.925  0.1817  0.4291 -0.0887
 7283SOL    HW232319   9.057  10.032   3.809 -1.0990 -0.6247 -1.3226
 7284SOL     OW32320   8.439   2.260   1.151 -0.2993  0.3258  0.8695
 7284SOL    HW132321   8.487   2.263   1.239  1.0438 -0.4347  0.1727
 7284SOL    HW232322   8.502   2.286   1.078 -1.0275 -0.4450 -0.0335
 7285SOL     OW32323   3.506   2.933   1.976 -0.2262 -0.5444  0.3816
 7285SOL    HW132324   3.461   2.935   2.065 -1.1877 -1.2619 -0.0892
 7285SOL    HW232325   3.545   3.024   1.957 -1.2785  0.0235  0.8860
 7286SOL     OW32326   8.554   1.800   2.670 -0.5234 -0.0616  0.1786
 7286SOL    HW132327   8.549   1.752   2.583 -1.0078 -1.2779  0.8608
 7286SOL    HW232328   8.579   1.896   2.655 -0.2138 -0.3651 -1.2519
 7287SOL     OW32329   9.840   9.450   0.895 -0.4288 -0.4182  0.0317
 7287SOL    HW132330   9.763   9.400   0.855  0.6883 -0.5343 -2.0343
 7287SOL    HW232331   9.912   9.463   0.826  2.2571 -2.0164  2.3929
 7288SOL     OW32332   2.936   6.490   2.604  0.2911 -0.2613  0.4396
 7288SOL    HW132333   3.033   6.470   2.618  1.2099  0.9910 -3.4147
 7288SOL    HW232334   2.927   6.564   2.537 -3.3355 -1.0341 -0.0140
 7289SOL     OW32335   5.993   9.342   2.909  0.1248  0.5996 -0.1186
 7289SOL    HW132336   5.936   9.425   2.910 -1.1576 -0.2536 -0.7402
 7289SOL    HW232337   6.011   9.313   3.002  0.3481  1.4183  0.0994
 7290SOL     OW32338   4.257   9.284   0.770  0.2627 -0.5263 -0.2596
 7290SOL    HW132339   4.274   9.280   0.869 -2.1954 -1.0002  0.1767
 7290SOL    HW232340   4.248   9.191   0.734 -0.9837 -0.3211 -0.5112
 7291SOL     OW32341   9.004   6.254   0.799 -0.1853  0.8153 -0.2528
 7291SOL    HW132342   9.059   6.250   0.715  1.7864  2.6199  0.8975
 7291SOL    HW232343   8.956   6.341   0.803  0.4501  1.1270  0.9114
 7292SOL     OW32344   9.110   9.394   0.571 -0.3996 -0.4005 -0.2929
 7292SOL    HW132345   9.144   9.314   0.619  1.8825 -1.1716 -3.0586
 7292SOL    HW232346   9.166   9.473   0.593  0.4215 -0.6765 -1.3107
 7293SOL     OW32347   7.635   1.915   3.272  0.3405  0.1942  0.1079
 7293SOL    HW132348   7.642   1.940   3.369  1.0836  0.6021 -0.0490
 7293SOL    HW232349   7.634   1.997   3.216  1.2976 -0.0826 -0.3138
 7294SOL     OW32350   2.702   6.912   0.047  0.0932  0.4922 -0.3857
 7294SOL    HW132351   2.665   6.820   0.038  1.0942  0.2111 -1.7857
 7294SOL    HW232352   2.789   6.918  -0.001  0.4115  1.9682  0.3349
 7295SOL     OW32353   9.488   7.234   0.987  0.0443  0.0296 -0.2185
 7295SOL    HW132354   9.552   7.253   0.913  1.2816  1.1112  1.0925
 7295SOL    HW232355   9.407   7.292   0.977 -0.0271 -0.2084 -1.0139
 7296SOL     OW32356   1.814   8.949   1.520 -0.1267  0.1717  0.2667
 7296SOL    HW132357   1.844   8.971   1.613  0.0954  1.7273 -0.1592
 7296SOL    HW232358   1.719   8.978   1.507 -0.6999 -1.5341  0.5066
 7297SOL     OW32359   8.925   2.321   3.356 -0.0360  0.2423 -0.2643
 7297SOL    HW132360   8.998   2.385   3.333  0.3824  0.2989  1.1973
 7297SOL    HW232361   8.837   2.359   3.325  0.2457  1.3932  0.3271
 7298SOL     OW32362   0.980   8.650   2.005  0.2023  0.4413 -0.6735
 7298SOL    HW132363   1.059   8.648   2.066 -0.5207  0.1862  0.2648
 7298SOL    HW232364   1.011   8.645   1.910  1.3391  1.0058 -0.3367
 7299SOL     OW32365   7.746   8.369   1.381  0.0321 -0.3239  0.4054
 7299SOL    HW132366   7.795   8.282   1.376 -1.3029 -1.0588 -0.2741
 7299SOL    HW232367   7.736   8.396   1.477 -1.4091 -2.0417  0.7691
 7300SOL     OW32368   2.911   6.268   2.101 -0.0960  0.6567 -0.1323
 7300SOL    HW132369   2.918   6.345   2.164 -0.8796  1.1367 -0.6291
 7300SOL    HW232370   2.919   6.300   2.007  0.7648 -0.0208 -0.3014
 7301SOL     OW32371   8.645   6.762   2.890 -0.1609  0.6552  0.2468
 7301SOL    HW132372   8.573   6.695   2.873  1.2927 -0.3351 -2.2168
 7301SOL    HW232373   8.619   6.850   2.853 -1.2372  0.9794  1.7470
 7302SOL     OW32374   5.433   8.265   1.885 -0.0466 -0.5715 -0.3735
 7302SOL    HW132375   5.519   8.221   1.861  0.2390  0.4947 -1.3313
 7302SOL    HW232376   5.424   8.351   1.835 -1.2699 -0.2496  0.3704
 7303SOL     OW32377   3.876   2.401   1.230 -0.5809  0.7787 -0.1904
 7303SOL    HW132378   3.864   2.432   1.325 -1.5039  0.5426 -0.2193
 7303SOL    HW232379   3.792   2.354   1.200  0.2424 -0.4126 -0.6515
 7304SOL     OW32380   3.500   2.335   3.720 -0.5494  0.4310 -0.2632
 7304SOL    HW132381   3.474   2.255   3.665 -1.8694  0.9809 -0.4359
 7304SOL    HW232382   3.568   2.389   3.669  0.7839 -0.8745  0.0966
 7305SOL     OW32383   0.385   8.074   3.279 -0.1778 -0.2343 -0.6607
 7305SOL    HW132384   0.308   8.106   3.223 -0.1010  0.9438 -0.0892
 7305SOL    HW232385   0.429   8.152   3.324 -0.2163 -1.1593  1.0238
 7306SOL     OW32386   4.994   7.959   1.612 -0.4328  0.3477  0.3857
 7306SOL    HW132387   4.920   7.905   1.652  0.2995 -1.2345 -0.3661
 7306SOL    HW232388   4.986   7.957   1.512  1.0874 -0.5161  0.2683
 7307SOL     OW32389   1.785   0.470   1.629  0.1982  0.1240 -0.1145
 7307SOL    HW132390   1.772   0.503   1.723 -2.5290  0.9006 -0.7217
 7307SOL    HW232391   1.790   0.549   1.568  1.4802 -0.4005 -0.6864
 7308SOL     OW32392   5.518   6.808   2.180 -0.5062 -0.4933  0.4804
 7308SOL    HW132393   5.494   6.715   2.210 -0.7831 -0.7706 -0.6011
 7308SOL    HW232394   5.514   6.870   2.259 -2.1976 -1.0395  0.8479
 7309SOL     OW32395   2.800   3.593   3.871  0.4921 -0.2883  0.5163
 7309SOL    HW132396   2.810   3.518   3.806  0.1825  0.0975  0.0160
 7309SOL    HW232397   2.835   3.677   3.831  0.5347 -0.0968  0.9476
 7310SOL     OW32398   2.526   0.976   3.243  0.0412 -0.1925  0.2529
 7310SOL    HW132399   2.481   0.888   3.262 -1.3818  0.8584  1.9338
 7310SOL    HW232400   2.470   1.030   3.181 -0.3030  0.4925  1.1378
 7311SOL     OW32401   5.053   9.097   3.050 -0.2078  0.7410 -0.0739
 7311SOL    HW132402   4.973   9.142   3.089 -1.2896 -0.2521 -1.1027
 7311SOL    HW232403   5.099   9.044   3.121 -2.6603 -1.7674 -0.2312
 7312SOL     OW32404   8.245   8.239   2.377  0.2592  0.3397 -0.1916
 7312SOL    HW132405   8.173   8.185   2.421  0.4569 -0.8055 -1.2247
 7312SOL    HW232406   8.203   8.303   2.312  0.2098 -0.9849 -1.4847
 7313SOL     OW32407   0.766   9.141   1.933  0.0952  0.0505  0.3661
 7313SOL    HW132408   0.771   9.235   1.967  0.7363 -0.1741  0.9275
 7313SOL    HW232409   0.856   9.098   1.943 -0.0878 -0.4855 -0.2826
 7314SOL     OW32410   7.444   2.510   3.620 -0.1289  0.4269  0.1901
 7314SOL    HW132411   7.354   2.553   3.629 -1.1661 -1.2096 -1.7080
 7314SOL    HW232412   7.510   2.577   3.588 -0.2443  2.0647  3.1991
 7315SOL     OW32413   2.901   6.715   2.438 -0.0927  0.0186 -0.0585
 7315SOL    HW132414   2.963   6.755   2.505  1.0748 -2.0622  0.1278
 7315SOL    HW232415   2.930   6.741   2.346  0.1856  0.2329  0.0892
 7316SOL     OW32416   4.211   8.203   1.696 -0.1012  0.0459 -0.2270
 7316SOL    HW132417   4.144   8.171   1.763 -1.1877  0.4632 -1.0959
 7316SOL    HW232418   4.201   8.151   1.611  1.2163 -0.4338 -0.0915
 7317SOL     OW32419   7.736   2.600   0.742  0.7144  0.3144  0.3217
 7317SOL    HW132420   7.755   2.600   0.840 -0.2811 -0.3095  0.5167
 7317SOL    HW232421   7.672   2.674   0.721 -0.1502 -0.4305  0.3494
 7318SOL     OW32422   1.741   2.447   3.148  0.3165 -0.0928  0.2664
 7318SOL    HW132423   1.837   2.472   3.148  0.7261 -1.5617  1.1422
 7318SOL    HW232424   1.716   2.406   3.060  0.6999 -0.4262  0.3120
 7319SOL     OW32425   1.127   8.696   1.775 -0.6004 -0.2772 -0.0032
 7319SOL    HW132426   1.202   8.743   1.821 -0.9016 -1.4763  1.7928
 7319SOL    HW232427   1.163   8.629   1.711 -0.0716 -2.1089  2.1515
 7320SOL     OW32428   6.395   8.388   1.622  0.3019 -0.0334  0.6590
 7320SOL    HW132429   6.416   8.290   1.625  0.1553 -0.1468 -1.1239
 7320SOL    HW232430   6.373   8.421   1.713  0.6879 -1.5967  1.3248
 7321SOL     OW32431   8.397   6.175   2.925  0.2706 -0.0282 -0.3048
 7321SOL    HW132432   8.312   6.137   2.960 -0.1361  0.1737 -1.0467
 7321SOL    HW232433   8.463   6.102   2.909 -0.1312 -0.3076 -0.7113
 7322SOL     OW32434   3.348   4.715   1.314 -0.0938 -0.5857 -0.2976
 7322SOL    HW132435   3.390   4.805   1.323  1.3971 -1.1007 -1.9195
 7322SOL    HW232436   3.321   4.700   1.219  0.2636 -2.1201 -0.1693
 7323SOL     OW32437   1.419   9.313   2.706  0.0921  0.1287 -0.0130
 7323SOL    HW132438   1.415   9.332   2.804  0.1393  0.8283 -0.1417
 7323SOL    HW232439   1.512   9.285   2.681 -0.6196 -3.0498  0.6609
 7324SOL     OW32440   0.033   3.110   2.356  0.5299  0.1751  0.1276
 7324SOL    HW132441  -0.024   3.127   2.276 -0.3148 -0.7315  0.5330
 7324SOL    HW232442   0.076   3.021   2.347  0.7698  0.2558  0.4896
 7325SOL     OW32443   4.299   1.867   2.106  0.0707  0.3711 -0.0107
 7325SOL    HW132444   4.312   1.782   2.157 -0.2748 -1.0696 -2.2786
 7325SOL    HW232445   4.212   1.909   2.133 -0.6558 -0.9639 -0.2635
 7326SOL     OW32446   1.217   9.846   3.119 -0.4608 -0.1789  0.4065
 7326SOL    HW132447   1.255   9.936   3.141 -0.3859 -0.1192  0.0346
 7326SOL    HW232448   1.142   9.826   3.181 -1.6672  0.9218 -0.6639
 7327SOL     OW32449   2.989   3.214   2.050 -0.1070  0.6606 -0.3073
 7327SOL    HW132450   3.013   3.309   2.033  0.1567  0.4674 -1.0212
 7327SOL    HW232451   2.912   3.188   1.992 -0.3940  0.5337  0.1282
 7328SOL     OW32452   4.018   1.262   3.914  0.2134  0.2202  0.0495
 7328SOL    HW132453   4.057   1.218   3.833 -0.0037 -0.4141  0.2867
 7328SOL    HW232454   4.005   1.194   3.986  4.1248  1.4455  2.0664
 7329SOL     OW32455   9.330   8.839   0.831 -0.6026 -0.5778  0.0557
 7329SOL    HW132456   9.247   8.798   0.793 -0.7881  0.1368 -0.3298
 7329SOL    HW232457   9.408   8.821   0.771 -0.4919 -1.1836  0.3780
 7330SOL     OW32458   8.534   2.744   2.818 -0.1255  0.1194 -0.1914
 7330SOL    HW132459   8.492   2.689   2.889 -0.3772  1.4116  0.6653
 7330SOL    HW232460   8.623   2.704   2.793 -1.0790 -1.6405 -0.8148
 7331SOL     OW32461   3.001   1.009   1.657  0.4080  0.5603 -0.0031
 7331SOL    HW132462   3.067   0.952   1.609  1.2771  2.4669 -1.1523
 7331SOL    HW232463   2.923   1.029   1.597 -0.3209 -0.1238  0.6943
 7332SOL     OW32464   5.740   8.813   2.873  0.5156 -0.3846 -0.0622
 7332SOL    HW132465   5.653   8.808   2.922  0.8898 -2.1898  0.4732
 7332SOL    HW232466   5.801   8.876   2.921 -0.1084  0.0277  0.1943
 7333SOL     OW32467   7.985   0.324   2.172  0.1745 -0.0892 -0.3655
 7333SOL    HW132468   8.030   0.373   2.247  2.2138 -2.0845 -0.2183
 7333SOL    HW232469   7.901   0.372   2.147  1.1829  2.4924  0.9164
 7334SOL     OW32470   8.690   6.828   0.462 -0.0871  0.0597  0.3380
 7334SOL    HW132471   8.760   6.824   0.390 -0.4449  1.2702 -0.0863
 7334SOL    HW232472   8.659   6.922   0.473 -2.3038 -0.5942 -0.1087
 7335SOL     OW32473   6.680   9.372   2.834 -0.1145 -0.1734  0.1090
 7335SOL    HW132474   6.762   9.333   2.875 -0.3444 -2.0181 -1.0913
 7335SOL    HW232475   6.601   9.316   2.860 -0.8026  0.8236  0.1873
 7336SOL     OW32476   0.506   9.127   1.953  0.4058 -0.0878  0.1549
 7336SOL    HW132477   0.484   9.085   2.041 -1.3959 -3.1196 -1.6861
 7336SOL    HW232478   0.602   9.108   1.930  0.4442 -0.6154  0.7439
 7337SOL     OW32479   4.144   7.359   1.355  0.3175 -0.0443  0.4410
 7337SOL    HW132480   4.190   7.420   1.290  1.6134 -1.6561 -0.2094
 7337SOL    HW232481   4.212   7.318   1.416 -0.5399 -0.7059  0.9700
 7338SOL     OW32482   2.747   9.278   1.743  0.0206 -0.2180 -0.2748
 7338SOL    HW132483   2.683   9.312   1.673 -0.8374 -0.1621  0.5271
 7338SOL    HW232484   2.731   9.180   1.757  0.3414 -0.2759 -0.3146
 7339SOL     OW32485   4.711   8.256   0.262 -0.4633 -0.2911  0.2719
 7339SOL    HW132486   4.653   8.331   0.229 -0.4483  0.1133  1.1464
 7339SOL    HW232487   4.783   8.239   0.195 -1.1798 -0.3431 -0.5043
 7340SOL     OW32488   0.849   0.746   2.751 -0.3759  0.2634  0.9120
 7340SOL    HW132489   0.912   0.671   2.773  1.8051  1.3586 -1.4054
 7340SOL    HW232490   0.755   0.711   2.750  0.7462 -2.9827 -2.0770
 7341SOL     OW32491   0.579   8.249   2.852 -0.7103  0.2254 -0.2541
 7341SOL    HW132492   0.533   8.167   2.817  0.2055 -0.5000  0.2232
 7341SOL    HW232493   0.639   8.224   2.928 -3.0740  1.8291  2.2557
 7342SOL     OW32494   2.055   2.117   2.457 -0.2300 -0.0821  0.5082
 7342SOL    HW132495   1.958   2.100   2.468 -0.7887  2.5180  0.0030
 7342SOL    HW232496   2.097   2.133   2.547 -0.3223 -0.8641  0.6932
 7343SOL     OW32497   0.044   2.555   0.710  0.0276 -0.1321 -0.2247
 7343SOL    HW132498   0.049   2.499   0.793  0.2845 -2.8429 -2.0100
 7343SOL    HW232499   0.099   2.637   0.721  3.0473 -2.2580  0.9607
 7344SOL     OW32500   2.727   7.972   1.967 -0.1422  0.2942 -0.1461
 7344SOL    HW132501   2.813   8.024   1.960 -0.2926  0.7707  1.3501
 7344SOL    HW232502   2.666   8.017   2.032 -2.1860  0.8233 -2.3818
 7345SOL     OW32503   2.072   3.570   0.292  0.6497  0.2106 -0.4320
 7345SOL    HW132504   2.118   3.640   0.347 -1.4599  0.8182  0.6165
 7345SOL    HW232505   2.034   3.613   0.210  2.7128 -0.4662 -1.7897
 7346SOL     OW32506   1.604   2.366   0.845 -0.1080 -0.3496  0.2188
 7346SOL    HW132507   1.595   2.297   0.774  2.7771 -1.2470  0.6478
 7346SOL    HW232508   1.605   2.321   0.935  0.5763  0.3436  0.5672
 7347SOL     OW32509   4.326   3.776   0.951  0.2774 -0.0076 -0.5612
 7347SOL    HW132510   4.287   3.723   0.876 -0.1141 -1.8167  0.8902
 7347SOL    HW232511   4.293   3.740   1.038  4.5837 -1.0843  0.7175
 7348SOL     OW32512   3.342   2.278   2.685  0.4564  0.3898  0.1988
 7348SOL    HW132513   3.352   2.180   2.703  0.6585 -0.1778 -2.7782
 7348SOL    HW232514   3.431   2.316   2.658  0.5795  1.6165  2.2396
 7349SOL     OW32515   1.761   5.821   1.161 -0.0036 -0.5493 -0.4709
 7349SOL    HW132516   1.737   5.777   1.074  1.6498  0.0164 -1.2285
 7349SOL    HW232517   1.711   5.907   1.170  0.5345 -0.1418 -1.3172
 7350SOL     OW32518   0.283   3.004   1.572  0.7695  0.0470 -0.2406
 7350SOL    HW132519   0.284   3.036   1.477 -2.6444  0.9718  0.0013
 7350SOL    HW232520   0.310   2.908   1.574  2.4992  0.4471 -1.9336
 7351SOL     OW32521   3.063   7.621   0.803  0.3720  0.2119 -0.0492
 7351SOL    HW132522   3.106   7.600   0.890 -0.6371 -1.0165  0.1566
 7351SOL    HW232523   2.998   7.549   0.778  0.5972  0.5731 -1.7845
 7352SOL     OW32524   8.642   4.921   4.007 -0.4140 -0.0934  0.1552
 7352SOL    HW132525   8.676   5.015   4.004  1.4003 -0.7591 -1.9808
 7352SOL    HW232526   8.706   4.864   4.060 -0.6518 -0.4320  0.0801
 7353SOL     OW32527   0.827   2.146   1.749  0.7090  0.3338  0.3964
 7353SOL    HW132528   0.888   2.220   1.775  0.2608  1.1884 -0.9472
 7353SOL    HW232529   0.732   2.179   1.751  0.4625 -0.3658  0.3737
 7354SOL     OW32530   8.941   5.264   0.812 -0.2993  0.0648 -0.1280
 7354SOL    HW132531   8.913   5.171   0.789 -1.9816  0.4689  0.2322
 7354SOL    HW232532   8.872   5.329   0.781  0.3204  1.1069  0.6135
 7355SOL     OW32533   0.954   8.104   3.551 -0.3972  0.3514  0.1684
 7355SOL    HW132534   0.998   8.057   3.475  1.5659  0.7728  0.9937
 7355SOL    HW232535   0.914   8.038   3.614  2.1017 -0.2503  1.1784
 7356SOL     OW32536   0.354   9.650   0.914 -0.2969  0.2878 -0.0156
 7356SOL    HW132537   0.357   9.578   0.983  0.4850  1.9280  1.6938
 7356SOL    HW232538   0.441   9.654   0.865  0.2989  1.2259  1.1059
 7357SOL     OW32539   2.025   9.599   3.015 -0.6041 -0.2798  0.1004
 7357SOL    HW132540   2.119   9.584   2.984 -0.2844 -1.6377  1.6415
 7357SOL    HW232541   2.026   9.633   3.110 -1.5460  3.9217 -1.2740
 7358SOL     OW32542   0.112   3.568   0.943  0.1881  0.0305 -0.0102
 7358SOL    HW132543   0.086   3.650   0.893  2.0623  0.3570 -0.4452
 7358SOL    HW232544   0.208   3.548   0.928 -0.1419 -1.9943  0.4638
 7359SOL     OW32545   5.068   1.976   1.342  0.0278  0.0868 -0.3361
 7359SOL    HW132546   5.047   2.068   1.374 -0.7455 -0.3937  0.5656
 7359SOL    HW232547   5.167   1.961   1.343  0.0114 -0.0270  2.1662
 7360SOL     OW32548   8.618   5.510   2.162  0.6000 -0.3597 -0.0398
 7360SOL    HW132549   8.642   5.529   2.067 -2.4732 -0.9386 -1.0001
 7360SOL    HW232550   8.620   5.411   2.177 -2.3420 -0.5464 -0.5552
 7361SOL     OW32551   3.635   2.372   1.608  0.0729 -0.6977 -0.4589
 7361SOL    HW132552   3.565   2.359   1.537  2.6287 -1.3599 -2.9808
 7361SOL    HW232553   3.711   2.310   1.591  0.7160 -0.9602  3.0195
 7362SOL     OW32554   9.375   0.460   0.613  0.0297  0.1379  0.7310
 7362SOL    HW132555   9.458   0.513   0.630 -0.4926  1.5507 -0.9797
 7362SOL    HW232556   9.300   0.522   0.591 -1.4632 -1.1384  2.0937
 7363SOL     OW32557   0.116   4.451   0.536 -0.6788 -0.3599 -0.3569
 7363SOL    HW132558   0.162   4.526   0.488 -0.3693  0.1840  0.7609
 7363SOL    HW232559   0.179   4.374   0.547 -0.4888 -0.1714 -0.1124
 7364SOL     OW32560   8.481   8.982   2.525  0.1626 -0.5070  0.2790
 7364SOL    HW132561   8.382   8.988   2.522  0.0517 -1.2831  1.6913
 7364SOL    HW232562   8.509   8.886   2.526  0.8302 -0.3131  1.9955
 7365SOL     OW32563   9.955   2.836   2.695  0.1478 -0.2969 -0.3545
 7365SOL    HW132564   9.963   2.856   2.793  3.4075  0.4194 -0.7170
 7365SOL    HW232565   9.874   2.882   2.658  1.0359  2.6739  1.2350
 7366SOL     OW32566   8.574   9.466   2.738  0.1479  0.3326 -0.2876
 7366SOL    HW132567   8.574   9.498   2.833  1.0202 -0.4538 -0.0009
 7366SOL    HW232568   8.484   9.480   2.697 -0.1778  0.8570  0.5973
 7367SOL     OW32569   4.686   7.821   2.552  0.4640  0.3602  0.2380
 7367SOL    HW132570   4.700   7.726   2.581  0.0735  0.5119  0.9385
 7367SOL    HW232571   4.608   7.825   2.490 -0.3790  0.4195  1.2973
 7368SOL     OW32572   0.869   9.140   2.492  0.3557  0.4110 -0.3576
 7368SOL    HW132573   0.929   9.219   2.478 -0.0891  0.9310  0.6007
 7368SOL    HW232574   0.811   9.128   2.411  0.6908  0.8332 -0.6656
 7369SOL     OW32575   3.202   3.473   0.624  0.5697 -0.5719  0.1322
 7369SOL    HW132576   3.112   3.477   0.580  0.9027  2.1912 -0.3818
 7369SOL    HW232577   3.269   3.433   0.560  0.5995  1.4131 -1.1167
 7370SOL     OW32578   3.926   8.097   1.956  0.4801  0.4549  0.0819
 7370SOL    HW132579   3.887   8.029   2.018  0.6845  1.0547  0.8799
 7370SOL    HW232580   4.025   8.085   1.952  0.6577  1.4846  1.1890
 7371SOL     OW32581   2.702   8.714   1.389 -0.3689 -0.4168 -0.0352
 7371SOL    HW132582   2.724   8.621   1.360 -1.0703 -1.2897  2.1172
 7371SOL    HW232583   2.766   8.779   1.346  0.8767 -2.0106 -0.6222
 7372SOL     OW32584   0.247   7.238   3.249 -0.1293  0.9557  0.3301
 7372SOL    HW132585   0.261   7.210   3.344  0.7596  1.6036  0.3973
 7372SOL    HW232586   0.181   7.177   3.206  2.1856 -1.6486  0.2967
 7373SOL     OW32587   5.260   7.958   1.699  0.0191 -0.3901  0.3896
 7373SOL    HW132588   5.338   7.945   1.639  1.4594  1.3416  1.8026
 7373SOL    HW232589   5.177   7.923   1.656  0.9730  0.9785 -2.6692
 7374SOL     OW32590   3.882   3.514   3.597 -0.1385 -0.7237 -0.4382
 7374SOL    HW132591   3.863   3.416   3.593  1.0257 -1.0880  2.1388
 7374SOL    HW232592   3.809   3.560   3.647  0.1739 -0.5272 -0.1607
 7375SOL     OW32593   0.103   6.384   2.106  0.2432  0.0638 -0.1336
 7375SOL    HW132594   0.037   6.311   2.125  0.8517 -0.3813  0.2724
 7375SOL    HW232595   0.147   6.412   2.191  1.1645 -0.2037 -0.5219
 7376SOL     OW32596   4.654   0.692   1.661  0.2861 -0.3459 -0.2839
 7376SOL    HW132597   4.566   0.731   1.688  1.2124  0.6073  1.4863
 7376SOL    HW232598   4.684   0.627   1.731 -0.4413 -3.0409 -2.3817
 7377SOL     OW32599   8.478   3.936   3.938 -0.3521 -0.8392  0.0917
 7377SOL    HW132600   8.462   3.909   4.033 -3.8743  1.0927  0.1164
 7377SOL    HW232601   8.413   3.888   3.879 -2.5086  2.7079 -0.5536
 7378SOL     OW32602   2.778   2.989   1.456  0.0587 -0.1515  0.0274
 7378SOL    HW132603   2.760   2.940   1.371  1.2346 -1.3679  0.4595
 7378SOL    HW232604   2.859   3.047   1.444 -0.5417  0.6755 -0.0708
 7379SOL     OW32605   0.939   1.895   2.730 -0.2699  0.1531  0.2616
 7379SOL    HW132606   0.999   1.889   2.650  1.3617  0.7353  1.4229
 7379SOL    HW232607   0.974   1.964   2.793 -1.5603 -0.2756  1.4707
 7380SOL     OW32608   3.182   7.472   1.019 -0.5560 -0.0716 -0.4532
 7380SOL    HW132609   3.198   7.399   0.952 -0.6542  0.3253 -0.9069
 7380SOL    HW232610   3.261   7.479   1.080 -0.0613  0.1966 -1.1157
 7381SOL     OW32611   9.422   2.112   1.264 -0.1569  0.1894  0.0342
 7381SOL    HW132612   9.420   2.063   1.177  1.3418  0.0637  0.0539
 7381SOL    HW232613   9.458   2.205   1.249 -0.2314  0.2849  0.4541
 7382SOL     OW32614   4.651   1.119   1.139  0.8248 -0.1675  0.0655
 7382SOL    HW132615   4.695   1.195   1.187  0.7413  0.5121 -0.9185
 7382SOL    HW232616   4.715   1.079   1.074 -0.0440  0.9860 -1.5520
 7383SOL     OW32617   2.646   3.015   3.105  0.0261  0.0967  0.7938
 7383SOL    HW132618   2.628   3.112   3.094  0.7877  0.2043  0.4584
 7383SOL    HW232619   2.560   2.965   3.113 -0.4501  0.5014 -1.5200
 7384SOL     OW32620   8.462   8.109   2.270  0.3304 -0.2480 -0.3794
 7384SOL    HW132621   8.523   8.103   2.349 -1.7120  0.0475  1.2499
 7384SOL    HW232622   8.381   8.163   2.294  0.1356  0.6971 -2.9750
 7385SOL     OW32623   9.853   6.587   3.302 -0.2582  0.6226 -0.0281
 7385SOL    HW132624   9.943   6.560   3.339  0.3451  0.9921 -1.2053
 7385SOL    HW232625   9.866   6.631   3.214 -1.6677  0.1132 -0.4926
 7386SOL     OW32626   1.363   8.560   1.485 -0.0778  0.4372  0.1231
 7386SOL    HW132627   1.292   8.594   1.424 -1.7454  3.0801  3.3470
 7386SOL    HW232628   1.320   8.517   1.565  2.0205 -1.2630  0.4039
 7387SOL     OW32629   2.859   5.271   3.318 -0.0304 -0.3365  0.6469
 7387SOL    HW132630   2.821   5.276   3.411  1.5805  0.6780  1.2792
 7387SOL    HW232631   2.915   5.189   3.310  0.0615 -0.2768  0.6764
 7388SOL     OW32632   3.351   9.282   0.198  0.0308  0.7793 -0.2435
 7388SOL    HW132633   3.406   9.303   0.117 -0.0256  1.1693 -0.1807
 7388SOL    HW232634   3.378   9.342   0.273  0.7380 -0.2059  0.3112
 7389SOL     OW32635   0.061   3.463   2.167  0.5598 -0.2912 -0.2258
 7389SOL    HW132636   0.088   3.513   2.249 -2.6407 -0.2500  0.8705
 7389SOL    HW232637   0.011   3.523   2.106 -0.1326 -1.2298 -0.5868
 7390SOL     OW32638   7.106   9.524   0.732  0.6023  0.0087  0.2818
 7390SOL    HW132639   7.178   9.510   0.663  2.0012  0.5152  1.5998
 7390SOL    HW232640   7.024   9.559   0.687  1.5773  0.6000 -1.1076
 7391SOL     OW32641   3.044   5.121   2.521 -0.0536 -0.6592 -0.1727
 7391SOL    HW132642   3.027   5.211   2.479  0.8912 -0.8641 -1.0312
 7391SOL    HW232643   2.962   5.090   2.568 -1.6343 -1.0680 -3.1043
 7392SOL     OW32644   3.378   2.801   2.436 -0.5503  0.5797 -0.4765
 7392SOL    HW132645   3.398   2.758   2.524 -0.2226  0.6091 -0.5348
 7392SOL    HW232646   3.333   2.735   2.376  0.0036  0.2927 -0.5859
 7393SOL     OW32647   8.878   4.680   0.485 -0.0802 -0.3715  0.0786
 7393SOL    HW132648   8.898   4.617   0.410 -3.1989 -0.6954 -0.5345
 7393SOL    HW232649   8.963   4.723   0.515  1.2532 -0.2429 -3.6013
 7394SOL     OW32650   0.354   2.287   2.931 -0.3125  0.1420 -0.1138
 7394SOL    HW132651   0.397   2.289   2.841  0.8392  1.8315  0.4527
 7394SOL    HW232652   0.356   2.194   2.967 -0.4281 -0.4738 -1.6558
 7395SOL     OW32653   0.229   4.524   3.584  0.0597 -0.1807 -0.3175
 7395SOL    HW132654   0.167   4.574   3.523 -0.1001 -0.7939 -0.6653
 7395SOL    HW232655   0.249   4.580   3.664  2.1319  1.6217 -2.0006
 7396SOL     OW32656   9.863   2.090   2.811  0.1198  0.1395  0.3040
 7396SOL    HW132657   9.902   2.072   2.721  0.5572 -0.0464  0.5270
 7396SOL    HW232658   9.854   2.003   2.861 -1.5108  0.0493 -0.1180
 7397SOL     OW32659   6.670   0.054   2.123 -0.3602 -0.0479 -0.4438
 7397SOL    HW132660   6.615   0.098   2.052  0.2647 -0.3256 -1.1017
 7397SOL    HW232661   6.763   0.090   2.120 -0.0604 -0.8217 -0.4498
 7398SOL     OW32662   2.790   3.318   3.669  0.3636  0.1994 -0.3431
 7398SOL    HW132663   2.794   3.258   3.589 -0.1611  1.6639 -1.5063
 7398SOL    HW232664   2.883   3.348   3.693  0.7318 -1.8631  0.8822
 7399SOL     OW32665   8.172   1.183   1.155  0.2684  0.1263  0.4034
 7399SOL    HW132666   8.236   1.126   1.102 -1.1380 -1.1401  0.0356
 7399SOL    HW232667   8.131   1.127   1.227 -0.6247  0.8661  0.4641
 7400SOL     OW32668   4.731   0.194   3.084 -0.1940  0.1917 -0.4298
 7400SOL    HW132669   4.637   0.206   3.052  0.3872 -0.0999 -2.2858
 7400SOL    HW232670   4.758   0.099   3.074  0.4642  0.3670 -0.3510
 7401SOL     OW32671   3.523   6.047   2.857  0.0885 -0.2422  0.1739
 7401SOL    HW132672   3.532   6.147   2.859 -0.5934 -0.1723 -0.1242
 7401SOL    HW232673   3.488   6.016   2.946 -1.9018  0.0194 -0.4798
 7402SOL     OW32674   7.982   2.605   0.555  0.0910 -0.2113  0.1777
 7402SOL    HW132675   7.952   2.555   0.635  0.9100  0.4699  0.9191
 7402SOL    HW232676   8.074   2.576   0.529  0.0909  0.0437 -0.1193
 7403SOL     OW32677   1.030   1.160   3.158  0.4001  0.0330 -0.6111
 7403SOL    HW132678   0.964   1.150   3.084 -0.2324  1.5324 -0.2528
 7403SOL    HW232679   1.059   1.255   3.165  0.9827 -0.2205  0.6279
 7404SOL     OW32680   9.596   7.392   1.788  0.5015  0.0414  0.0533
 7404SOL    HW132681   9.651   7.413   1.707 -1.0984  0.2056 -1.0158
 7404SOL    HW232682   9.608   7.465   1.856  1.4271  0.1802 -0.2535
 7405SOL     OW32683   4.547   9.560   3.809 -0.1648  0.5772 -0.1140
 7405SOL    HW132684   4.603   9.522   3.882 -0.1639  1.4179  0.3406
 7405SOL    HW232685   4.509   9.648   3.839 -0.6118  0.6683 -0.9242
 7406SOL     OW32686   4.266   7.505   2.457 -0.1723 -0.3946 -0.2851
 7406SOL    HW132687   4.233   7.426   2.508 -1.3145 -0.8958 -1.7544
 7406SOL    HW232688   4.255   7.488   2.359  3.1471  0.0159 -0.7970
 7407SOL     OW32689   8.903   3.672   2.534  0.3801  0.3162 -0.1651
 7407SOL    HW132690   8.820   3.728   2.534 -0.2907 -0.6612 -1.1549
 7407SOL    HW232691   8.925   3.644   2.441 -0.0221 -2.1364  0.4338
 7408SOL     OW32692   8.912   3.438   3.756  0.1763 -0.1550 -0.4583
 7408SOL    HW132693   8.846   3.473   3.823  0.0962 -2.6190  0.8036
 7408SOL    HW232694   8.862   3.405   3.676  0.1579  1.2437 -1.0445
 7409SOL     OW32695   7.146   8.973   1.701  0.3622  0.3278  0.1863
 7409SOL    HW132696   7.095   8.943   1.621  1.0605  0.5215 -0.3349
 7409SOL    HW232697   7.121   8.916   1.780 -1.6224  1.2392  0.2542
 7410SOL     OW32698   1.554   4.990   3.273 -0.0429  0.1736  0.2347
 7410SOL    HW132699   1.648   4.986   3.240 -0.0038 -1.6172  0.5301
 7410SOL    HW232700   1.552   5.026   3.366  0.3385  0.3024  0.1912
 7411SOL     OW32701   3.655   2.549   3.598 -0.3334  0.2604 -0.4267
 7411SOL    HW132702   3.677   2.572   3.504 -0.2931  0.3546 -0.3943
 7411SOL    HW232703   3.655   2.632   3.654  0.7368  0.0605 -0.1228
 7412SOL     OW32704   2.244   2.138   2.148  0.6230 -0.3303  0.2652
 7412SOL    HW132705   2.213   2.043   2.157 -1.7937  0.2615 -1.4868
 7412SOL    HW232706   2.333   2.148   2.193  0.7472 -3.3309  0.7888
 7413SOL     OW32707   1.526   8.112   2.656 -0.5335  0.9439 -0.0468
 7413SOL    HW132708   1.426   8.106   2.650 -0.7419  2.6021  1.4394
 7413SOL    HW232709   1.558   8.188   2.600 -0.3315  1.7922  1.1987
 7414SOL     OW32710   2.927   1.660   2.850  0.0673  0.3829 -0.5029
 7414SOL    HW132711   3.000   1.687   2.913 -0.8951  0.3248  0.6513
 7414SOL    HW232712   2.868   1.592   2.893 -1.4955  1.4604 -0.8871
 7415SOL     OW32713   9.425   4.720   2.905 -0.3075  0.1409  0.4288
 7415SOL    HW132714   9.415   4.806   2.854  1.3410  0.5050  0.7017
 7415SOL    HW232715   9.401   4.643   2.845 -0.3878  0.7012 -0.2623
 7416SOL     OW32716   4.049   7.426   2.733  0.0272 -0.5438  0.1647
 7416SOL    HW132717   4.064   7.521   2.704  2.0689 -1.1122 -0.6929
 7416SOL    HW232718   4.013   7.425   2.826  0.7553  1.0392  0.4822
 7417SOL     OW32719   9.144   0.146   3.019  0.1354  0.3684  0.1483
 7417SOL    HW132720   9.136   0.243   2.999  0.4447  0.4454  0.3902
 7417SOL    HW232721   9.123   0.129   3.115  0.9830  0.3307  0.3392
 7418SOL     OW32722   1.721   5.272   3.512 -0.0944  0.2659  0.3165
 7418SOL    HW132723   1.747   5.261   3.608 -1.0845  0.6853  0.6453
 7418SOL    HW232724   1.803   5.274   3.455  0.5201  0.3593  1.1895
 7419SOL     OW32725   0.856   0.025   0.187  0.0588  0.0842  0.2258
 7419SOL    HW132726   0.871  -0.056   0.131  0.4434  0.1579  0.2211
 7419SOL    HW232727   0.791   0.086   0.140  1.1554  0.6157 -0.6284
 7420SOL     OW32728   0.574   0.947   1.238 -0.1434 -0.1237 -0.5527
 7420SOL    HW132729   0.642   0.970   1.308 -1.5644 -0.5677  0.9990
 7420SOL    HW232730   0.483   0.973   1.270 -0.9854 -1.7314 -1.5822
 7421SOL     OW32731   1.938   0.954   3.846  0.3485 -0.1767  0.3151
 7421SOL    HW132732   1.985   1.041   3.862  0.2815  0.0481 -0.6509
 7421SOL    HW232733   1.898   0.955   3.754 -1.0762 -0.5694  0.9125
 7422SOL     OW32734   9.668   8.206   0.289  0.0180 -0.0696  0.0660
 7422SOL    HW132735   9.653   8.299   0.256  0.1315 -0.0203  0.1535
 7422SOL    HW232736   9.746   8.205   0.351 -0.0398 -0.2075  0.1377
 7423SOL     OW32737   8.876   4.595   1.919  0.4419  0.5214 -0.4166
 7423SOL    HW132738   8.844   4.618   2.011  0.1656 -0.6044 -0.2221
 7423SOL    HW232739   8.826   4.515   1.885  0.6781  0.8087 -1.4718
 7424SOL     OW32740   2.796   3.245   0.319 -0.0313 -0.6471  0.4129
 7424SOL    HW132741   2.857   3.291   0.255  0.1471  0.5917  1.4632
 7424SOL    HW232742   2.849   3.200   0.390 -0.3031 -0.2700  0.8590
 7425SOL     OW32743   1.088   9.294   3.890 -0.2271 -0.2106  0.1068
 7425SOL    HW132744   1.116   9.380   3.848 -0.8663 -0.8113 -1.5943
 7425SOL    HW232745   0.990   9.280   3.876 -0.8059  0.3955  3.3223
 7426SOL     OW32746   9.341   9.686   3.077  0.0939  0.2638 -0.0718
 7426SOL    HW132747   9.309   9.685   2.982 -0.9587  0.9064  0.2754
 7426SOL    HW232748   9.321   9.599   3.120  0.0721  0.1669 -0.2773
 7427SOL     OW32749   9.954   6.906   3.128  0.0222  0.2058  0.0488
 7427SOL    HW132750   9.895   6.902   3.208  1.7539 -0.1692  1.3224
 7427SOL    HW232751   9.934   6.829   3.068 -0.9427  0.2154  0.3495
 7428SOL     OW32752   0.047   2.104   3.129 -0.5230 -0.5922  0.1753
 7428SOL    HW132753   0.043   2.187   3.185  0.6001 -0.1105 -0.4517
 7428SOL    HW232754  -0.035   2.049   3.146 -0.9016  0.2602  1.1817
 7429SOL     OW32755   8.910   2.150   0.244 -0.4732  0.3920  0.0206
 7429SOL    HW132756   8.963   2.234   0.254 -1.2593  1.0388 -1.0681
 7429SOL    HW232757   8.925   2.091   0.323 -0.7205  2.0024  1.2849
 7430SOL     OW32758   9.885   9.314   1.459  0.4620  0.2551  0.2906
 7430SOL    HW132759   9.903   9.336   1.363 -0.8058 -0.9506 -0.2431
 7430SOL    HW232760   9.790   9.337   1.481  0.3486 -0.7582  0.8683
 7431SOL     OW32761   0.778   1.413   0.215  0.4940  0.0643  0.5007
 7431SOL    HW132762   0.715   1.407   0.292 -0.9526 -1.9817 -0.7875
 7431SOL    HW232763   0.872   1.403   0.247 -0.1446 -1.5719  1.9184
 7432SOL     OW32764   9.409   2.784   2.222 -0.4286 -0.1154  0.2995
 7432SOL    HW132765   9.313   2.767   2.198 -0.7856  0.3977  1.3192
 7432SOL    HW232766   9.423   2.883   2.234  0.7680  0.0377 -2.0407
 7433SOL     OW32767   9.448   7.103   3.905 -0.0567 -0.0154  0.4491
 7433SOL    HW132768   9.526   7.161   3.927 -0.3503  0.6460 -0.2477
 7433SOL    HW232769   9.452   7.020   3.961  2.2052 -0.8874 -0.9454
 7434SOL     OW32770   0.119   6.281   1.849 -0.4295 -0.2259 -0.3811
 7434SOL    HW132771   0.194   6.312   1.907  0.1442 -0.7308 -0.8479
 7434SOL    HW232772   0.042   6.252   1.906 -0.1853  0.0877  0.1037
 7435SOL     OW32773   8.511   7.679   2.622 -0.2200  0.4300  0.0786
 7435SOL    HW132774   8.430   7.693   2.566 -0.3950  1.7936  0.6387
 7435SOL    HW232775   8.507   7.589   2.666 -0.6077 -0.1933 -1.2128
 7436SOL     OW32776   3.163   0.069   0.606  0.2911  0.2196 -0.1953
 7436SOL    HW132777   3.179   0.160   0.567  2.7459 -0.3033 -0.4932
 7436SOL    HW232778   3.143   0.077   0.704 -1.6683  1.2168 -0.6554
 7437SOL     OW32779   9.177   5.310   1.208  0.3329 -0.0745  0.3112
 7437SOL    HW132780   9.165   5.221   1.164 -1.4670 -0.2760  1.1607
 7437SOL    HW232781   9.087   5.350   1.228  1.1210  1.7549  0.2989
 7438SOL     OW32782   8.504   6.290   0.178 -0.1204 -0.1865 -0.1478
 7438SOL    HW132783   8.537   6.334   0.094  1.3758 -0.8126  0.0944
 7438SOL    HW232784   8.582   6.263   0.234 -1.0695 -1.2571  0.6769
 7439SOL     OW32785   3.142   5.700   3.640  0.0170 -0.4736  0.2399
 7439SOL    HW132786   3.204   5.750   3.580 -1.0520 -0.2432 -0.6710
 7439SOL    HW232787   3.192   5.625   3.684  1.2426  0.4563  0.4611
 7440SOL     OW32788   9.955   7.942   3.766  0.1726 -0.4514 -0.7017
 7440SOL    HW132789  10.014   7.960   3.687  0.4665  0.4073 -0.2945
 7440SOL    HW232790  10.009   7.901   3.839  0.7647  2.1920  0.4252
 7441SOL     OW32791   8.988   1.855   3.477 -0.0547 -0.1088 -0.0133
 7441SOL    HW132792   9.041   1.777   3.512  1.4906  0.8175 -0.2473
 7441SOL    HW232793   8.990   1.854   3.377  0.0792  0.3212 -0.0121
 7442SOL     OW32794   0.317   6.423   0.044  0.0877  0.0601 -0.7386
 7442SOL    HW132795   0.321   6.343  -0.015 -2.9408  0.4368 -1.4983
 7442SOL    HW232796   0.270   6.497  -0.003  0.1190  1.2913  1.1196
 7443SOL     OW32797   3.412   0.491   1.413  0.9285 -0.1514  0.3052
 7443SOL    HW132798   3.364   0.579   1.414  2.3252  0.6118  2.3313
 7443SOL    HW232799   3.460   0.480   1.326 -0.6500  0.2975 -0.6402
 7444SOL     OW32800   0.814   5.389   3.286  0.2040 -0.2295  0.6429
 7444SOL    HW132801   0.861   5.316   3.336 -0.0968 -0.2485  0.8999
 7444SOL    HW232802   0.720   5.360   3.266  1.1690 -1.4542 -2.5444
 7445SOL     OW32803   0.441   1.512   3.147  0.2704  0.0807 -0.0717
 7445SOL    HW132804   0.522   1.465   3.181 -0.5572 -1.8122 -0.6274
 7445SOL    HW232805   0.461   1.552   3.057 -0.0921 -2.5615 -1.3916
 7446SOL     OW32806   3.990   2.896   0.691 -0.0507  0.7386  0.3366
 7446SOL    HW132807   3.937   2.977   0.667 -0.5338  0.3833  0.1947
 7446SOL    HW232808   3.932   2.815   0.683  0.5016  0.3533  0.2214
 7447SOL     OW32809   0.399   6.080   1.723  0.3075 -0.0023 -0.1091
 7447SOL    HW132810   0.472   6.054   1.786  0.9738 -2.5267 -1.8481
 7447SOL    HW232811   0.312   6.041   1.755  0.2820  0.3179  0.2275
 7448SOL     OW32812   3.970   6.422   2.163  0.8382 -0.1001  0.2401
 7448SOL    HW132813   3.884   6.398   2.207  0.9161 -1.3294 -0.2651
 7448SOL    HW232814   3.965   6.398   2.066  1.6563  0.0702  0.1542
 7449SOL     OW32815   8.194   4.925   1.628 -0.1665 -0.6189 -0.6510
 7449SOL    HW132816   8.209   4.832   1.595  0.8111 -0.4922 -0.5685
 7449SOL    HW232817   8.200   4.926   1.728 -1.5979 -0.7213 -0.5472
 7450SOL     OW32818   4.482   9.809   3.493 -0.2615  0.3626 -0.1586
 7450SOL    HW132819   4.477   9.711   3.475 -1.3177  0.2411  0.7258
 7450SOL    HW232820   4.501   9.824   3.590 -1.5989  1.0286  0.0189
 7451SOL     OW32821   1.656   1.614   2.416 -0.1760 -0.6801  0.1299
 7451SOL    HW132822   1.733   1.581   2.362  0.0421  0.0431 -0.0002
 7451SOL    HW232823   1.622   1.699   2.377  0.6026  0.3674  1.6990
 7452SOL     OW32824   9.082   9.687   0.961  0.6750  0.5520  0.0494
 7452SOL    HW132825   9.046   9.723   1.046  1.9653  0.1693  0.7760
 7452SOL    HW232826   9.120   9.596   0.977 -2.2183 -1.0514 -1.6745
 7453SOL     OW32827   2.804   4.380   3.885  0.0039  0.2723 -0.2673
 7453SOL    HW132828   2.756   4.458   3.842  1.3077  1.5656  0.5762
 7453SOL    HW232829   2.746   4.341   3.956  0.2700  1.9681  0.9039
 7454SOL     OW32830   3.030   5.067   3.229 -0.2902 -0.9854 -0.1690
 7454SOL    HW132831   3.100   5.101   3.166  1.2933 -0.4402  1.8585
 7454SOL    HW232832   2.955   5.026   3.176  0.8060 -0.1667 -2.4098
 7455SOL     OW32833   3.596   9.170   3.330  0.0556 -0.2816 -0.1062
 7455SOL    HW132834   3.695   9.176   3.338  0.0408 -0.5392  0.2675
 7455SOL    HW232835   3.560   9.254   3.288  0.3959 -0.0639  0.0446
 7456SOL     OW32836   2.665   6.806   0.958 -0.6186  0.3359 -0.6389
 7456SOL    HW132837   2.673   6.852   0.869  0.1172  1.0452 -0.2056
 7456SOL    HW232838   2.756   6.782   0.991 -0.9347 -0.4912 -0.3647
 7457SOL     OW32839   3.619   0.711   4.042 -0.0001  0.6278  0.2114
 7457SOL    HW132840   3.671   0.771   3.982  1.1413  0.7625  1.3172
 7457SOL    HW232841   3.569   0.766   4.109  0.5455  0.3858  0.8248
 7458SOL     OW32842   4.203   0.146   2.731 -0.1751  0.0089 -0.2251
 7458SOL    HW132843   4.167   0.132   2.823 -0.4651  0.1231 -0.3225
 7458SOL    HW232844   4.196   0.061   2.679 -1.4087  0.3619 -0.6309
 7459SOL     OW32845   3.876   2.811   1.582 -0.7584 -0.2308 -0.0564
 7459SOL    HW132846   3.826   2.883   1.630  1.0050  1.8257 -1.2184
 7459SOL    HW232847   3.944   2.771   1.644 -3.2426 -2.5290  1.2946
 7460SOL     OW32848   9.601   0.615   0.627  0.1576 -0.7146 -0.1652
 7460SOL    HW132849   9.673   0.573   0.571 -0.0466 -4.2293  2.0908
 7460SOL    HW232850   9.636   0.630   0.719 -0.5904  1.9068 -0.2653
 7461SOL     OW32851   8.090   8.196   3.279 -0.0748 -0.3309 -0.2458
 7461SOL    HW132852   8.022   8.267   3.299  0.6766  0.2373  0.3398
 7461SOL    HW232853   8.172   8.212   3.334 -0.8611 -3.1602  1.8944
 7462SOL     OW32854   5.827   7.206   2.483  0.5354  0.1442 -0.7105
 7462SOL    HW132855   5.865   7.113   2.484  1.4936  0.5374 -0.7498
 7462SOL    HW232856   5.844   7.250   2.570 -2.5970 -0.7767  0.4427
 7463SOL     OW32857   3.863   2.431   2.953  0.1199  0.1774  0.6713
 7463SOL    HW132858   3.942   2.492   2.943 -0.3298  0.8610  1.2786
 7463SOL    HW232859   3.865   2.388   3.043  1.4161 -2.1092 -0.3980
 7464SOL     OW32860   8.423   2.256   0.804  0.2036 -0.2200 -0.3673
 7464SOL    HW132861   8.452   2.352   0.807 -0.9665  0.0906  1.9776
 7464SOL    HW232862   8.471   2.204   0.875 -1.3366 -0.7160  0.3392
 7465SOL     OW32863   3.344   9.629   1.318 -0.4927  0.0533  0.4008
 7465SOL    HW132864   3.383   9.579   1.241 -1.4429 -0.2145  0.0940
 7465SOL    HW232865   3.382   9.594   1.404  0.2352  0.0601  0.0804
 7466SOL     OW32866   8.162   1.249   1.601 -0.1226 -0.7549  0.2294
 7466SOL    HW132867   8.166   1.223   1.697  0.2479  0.9045  0.6843
 7466SOL    HW232868   8.069   1.280   1.579 -0.0145 -0.4165  0.2494
 7467SOL     OW32869   0.800   9.899   0.987 -0.4470  0.2180 -0.0104
 7467SOL    HW132870   0.700   9.904   0.983 -0.3248  1.5550 -1.9787
 7467SOL    HW232871   0.839   9.933   0.902  1.6792 -1.2785  0.3112
 7468SOL     OW32872   1.809   2.405   1.654 -0.3859 -0.2823  0.5108
 7468SOL    HW132873   1.788   2.463   1.733  2.5148  2.3940 -0.5342
 7468SOL    HW232874   1.744   2.424   1.581 -1.1330 -0.3696  1.1481
 7469SOL     OW32875   2.698   2.465   2.771 -0.2152  0.1627  0.0350
 7469SOL    HW132876   2.699   2.525   2.851 -0.1802  0.7057 -0.3736
 7469SOL    HW232877   2.616   2.483   2.717 -0.1821 -0.1272 -0.1134
 7470SOL     OW32878   6.893   9.425   3.154 -0.6606  0.3250 -0.6076
 7470SOL    HW132879   6.895   9.461   3.061 -2.0263  1.6592 -0.1641
 7470SOL    HW232880   6.799   9.401   3.178 -0.1026 -1.3546 -0.0610
 7471SOL     OW32881   1.155   8.774   2.656 -0.2707 -0.3495 -1.0053
 7471SOL    HW132882   1.238   8.825   2.679 -1.8709  0.7880  2.6732
 7471SOL    HW232883   1.115   8.812   2.572  1.1363  1.2573 -0.9852
 7472SOL     OW32884   8.920   0.308   3.271 -0.4062 -0.4018  0.1751
 7472SOL    HW132885   8.999   0.265   3.314 -0.7870  0.0136  1.3095
 7472SOL    HW232886   8.853   0.332   3.341 -1.0277  0.3123 -0.6561
 7473SOL     OW32887   8.620   5.217   1.851  0.0638  0.5375  0.1538
 7473SOL    HW132888   8.609   5.221   1.950 -0.6847 -1.0882  0.1546
 7473SOL    HW232889   8.564   5.288   1.808 -0.9854  0.1214  0.8140
 7474SOL     OW32890   2.505   7.817   2.812  0.0828 -0.2068  0.1697
 7474SOL    HW132891   2.504   7.904   2.861 -0.6019 -0.1685  0.0876
 7474SOL    HW232892   2.519   7.834   2.715  1.2862 -0.2739  0.3134
 7475SOL     OW32893   7.489   9.543   1.782 -0.5202 -0.5318  0.1271
 7475SOL    HW132894   7.529   9.501   1.864  0.8765  2.5437  1.0692
 7475SOL    HW232895   7.533   9.505   1.701  2.2073  0.5564  1.0498
 7476SOL     OW32896   9.047   3.650   3.580  0.1512 -0.0229 -0.1114
 7476SOL    HW132897   8.970   3.683   3.633  0.5177 -0.3397  0.6192
 7476SOL    HW232898   9.017   3.574   3.522 -0.4136  0.8082 -0.9128
 7477SOL     OW32899   0.151   3.596   1.222  0.1781 -0.1275  0.2114
 7477SOL    HW132900   0.196   3.669   1.271  0.8610 -0.1534 -0.3609
 7477SOL    HW232901   0.118   3.630   1.134 -2.0277  0.2075  1.1330
 7478SOL     OW32902   6.589   9.218   1.173  0.7208 -0.2952 -0.0638
 7478SOL    HW132903   6.547   9.251   1.088  0.5350 -0.2590  0.0409
 7478SOL    HW232904   6.539   9.138   1.206  0.9126 -0.4258 -0.0925
 7479SOL     OW32905   9.930   4.407   3.075  0.1476  0.0593 -0.3097
 7479SOL    HW132906   9.891   4.334   3.130 -1.8894  0.7076 -0.8689
 7479SOL    HW232907  10.026   4.386   3.055  0.3129 -1.1945  1.6669
 7480SOL     OW32908   7.729   0.456   0.906  0.0654 -0.7580  0.6507
 7480SOL    HW132909   7.671   0.377   0.922 -0.6330 -0.1317  1.2722
 7480SOL    HW232910   7.674   0.533   0.874 -0.0386  0.8320  4.3582
 7481SOL     OW32911   1.857   4.246   1.211  0.5666 -0.6752 -0.5150
 7481SOL    HW132912   1.822   4.215   1.300 -0.2242 -0.7994 -0.8654
 7481SOL    HW232913   1.803   4.205   1.138  0.8499 -0.1188 -1.0402
 7482SOL     OW32914   1.664   5.267   1.411 -0.1239  0.5693  0.2873
 7482SOL    HW132915   1.681   5.362   1.436  4.1164  0.1013 -0.4607
 7482SOL    HW232916   1.679   5.255   1.312 -0.1000 -0.9950  0.4614
 7483SOL     OW32917   4.292   1.119   0.179 -0.2206 -0.4049 -0.5515
 7483SOL    HW132918   4.325   1.096   0.087 -0.5283  1.5711 -1.1784
 7483SOL    HW232919   4.197   1.150   0.173  0.3317  1.4822  0.1598
 7484SOL     OW32920   8.366   5.402   3.145  0.4403 -0.6926 -0.5780
 7484SOL    HW132921   8.421   5.322   3.120  0.5728 -0.3143 -1.4982
 7484SOL    HW232922   8.403   5.483   3.100  0.0112 -0.1882 -0.0300
 7485SOL     OW32923   5.892   7.830   2.660 -0.1134 -0.2049 -0.1114
 7485SOL    HW132924   5.959   7.852   2.731 -0.0654 -0.3449 -0.1136
 7485SOL    HW232925   5.894   7.732   2.641 -1.2725 -0.4293  0.8570
 7486SOL     OW32926   1.241   7.558   3.453 -0.1806 -0.2213 -0.2201
 7486SOL    HW132927   1.151   7.526   3.424 -0.1438 -0.9281  0.4564
 7486SOL    HW232928   1.301   7.480   3.470  0.0946  0.2181  0.8391
 7487SOL     OW32929   9.579   6.307   2.033  0.4631  0.3449  0.3460
 7487SOL    HW132930   9.664   6.331   1.988  0.0286  1.1339 -0.0785
 7487SOL    HW232931   9.504   6.307   1.967 -0.1211  1.1724  0.9858
 7488SOL     OW32932   1.711   7.498   3.017  0.1331  0.5639  0.0003
 7488SOL    HW132933   1.785   7.436   3.043  2.7214  4.1382  1.5499
 7488SOL    HW232934   1.705   7.503   2.917  1.4234 -0.4214 -0.1311
 7489SOL     OW32935   7.920   3.502   0.082  0.3044  0.0460  0.3545
 7489SOL    HW132936   7.859   3.436   0.039  2.3247  0.0502 -2.6163
 7489SOL    HW232937   7.880   3.594   0.077 -0.7380 -0.3629  1.0371
 7490SOL     OW32938   2.881   1.201   2.254 -0.0909  0.1092  0.1056
 7490SOL    HW132939   2.833   1.213   2.167  0.3257 -0.8407 -0.2656
 7490SOL    HW232940   2.877   1.286   2.307 -0.5302  0.6233 -0.7472
 7491SOL     OW32941   0.506   4.480   3.549 -0.9278  0.2471 -0.0322
 7491SOL    HW132942   0.412   4.502   3.574 -1.1265  1.6399 -1.8997
 7491SOL    HW232943   0.564   4.560   3.562 -0.5823  0.2805 -1.6596
 7492SOL     OW32944   0.959   8.657   2.798 -0.1561  0.0788 -0.1344
 7492SOL    HW132945   1.029   8.705   2.746  1.1135 -1.1246  0.4292
 7492SOL    HW232946   0.931   8.574   2.749 -0.1966 -0.1612  0.2852
 7493SOL     OW32947   0.238   5.352   2.772  0.2052 -0.4733 -0.0687
 7493SOL    HW132948   0.328   5.317   2.746  0.7515 -0.9157  2.2978
 7493SOL    HW232949   0.176   5.276   2.788 -0.1194 -0.2096 -0.0638
 7494SOL     OW32950   4.103   2.410   1.621  0.0344  0.3105  0.0019
 7494SOL    HW132951   4.161   2.343   1.667 -1.6638 -0.7193  0.7100
 7494SOL    HW232952   4.133   2.420   1.526  0.6162 -1.1011  0.0162
 7495SOL     OW32953   4.051   0.364   2.660  0.3869 -0.0023  0.0020
 7495SOL    HW132954   3.994   0.384   2.581  0.2918  0.4764  0.1920
 7495SOL    HW232955   4.094   0.274   2.648  0.4717  0.1227 -0.6413
 7496SOL     OW32956   3.042   2.445   3.075 -0.1106 -0.1985  0.1503
 7496SOL    HW132957   3.081   2.425   2.985  1.3953 -0.4160  0.8358
 7496SOL    HW232958   3.109   2.494   3.130 -1.1893  0.3281  1.0075
 7497SOL     OW32959   9.268   0.869   1.308  0.1282  0.5180  0.0489
 7497SOL    HW132960   9.322   0.844   1.228  0.0741 -1.9942  0.7450
 7497SOL    HW232961   9.171   0.853   1.289 -0.0442  1.6130  0.0104
 7498SOL     OW32962   0.555   7.655   0.622  0.0329  0.1249 -1.4290
 7498SOL    HW132963   0.455   7.657   0.608 -0.0789 -0.4917 -0.7394
 7498SOL    HW232964   0.577   7.695   0.710  0.2776 -0.9551 -0.9886
 7499SOL     OW32965   8.852   2.041   2.328  0.1772  0.0930 -0.2103
 7499SOL    HW132966   8.770   2.076   2.373  0.2518 -1.6951  1.3617
 7499SOL    HW232967   8.846   2.059   2.230 -2.3622 -0.4969 -0.1949
 7500SOL     OW32968   9.214   2.779   0.346  0.1514 -0.0040  0.1832
 7500SOL    HW132969   9.181   2.872   0.360  1.8698  0.7084 -0.4222
 7500SOL    HW232970   9.303   2.768   0.390  1.3108 -0.4861 -2.2233
 7501SOL     OW32971   0.260   2.191   2.441 -0.0848 -0.2262  0.1931
 7501SOL    HW132972   0.176   2.236   2.472  0.0718 -0.0689  0.3880
 7501SOL    HW232973   0.236   2.106   2.394 -0.4347  0.5828 -1.1035
 7502SOL     OW32974   9.912   8.322   3.161 -0.1983 -1.2745 -0.9034
 7502SOL    HW132975   9.872   8.376   3.235 -1.2192 -4.1313  0.6960
 7502SOL    HW232976   9.860   8.338   3.077 -0.7030 -0.0555 -0.3731
 7503SOL     OW32977   7.656   6.634   2.442 -0.0412 -0.1497  0.6452
 7503SOL    HW132978   7.574   6.682   2.473  0.0151  0.5317 -0.2310
 7503SOL    HW232979   7.721   6.701   2.404  0.0743 -0.9112 -0.4972
 7504SOL     OW32980   0.445   1.789   2.424  0.2897  0.1339 -0.0946
 7504SOL    HW132981   0.469   1.704   2.377 -0.7100  0.1468 -0.6255
 7504SOL    HW232982   0.521   1.854   2.414 -0.2878  0.4679 -2.4885
 7505SOL     OW32983   9.502   3.393   0.161 -0.1968 -0.2481 -0.1189
 7505SOL    HW132984   9.532   3.350   0.247  2.7260 -1.8901 -1.8835
 7505SOL    HW232985   9.495   3.324   0.090 -1.4794  1.2921 -1.5352
 7506SOL     OW32986   5.920   7.117   2.100 -0.1471 -0.8235  0.4211
 7506SOL    HW132987   5.840   7.088   2.046 -0.5503 -0.1814  0.6596
 7506SOL    HW232988   5.909   7.087   2.194 -0.0658 -0.8048  0.4363
 7507SOL     OW32989   2.932   8.324   3.999 -0.1754 -0.2611  0.5929
 7507SOL    HW132990   2.909   8.264   3.922 -1.7145  1.5458 -0.4069
 7507SOL    HW232991   3.031   8.321   4.014  0.2327 -0.2528 -1.8124
 7508SOL     OW32992   4.909   7.739   3.272  0.6865 -0.1817  0.0854
 7508SOL    HW132993   4.948   7.826   3.304  1.3769 -0.9798  1.4705
 7508SOL    HW232994   4.810   7.739   3.288  1.0158 -0.5642  2.3247
 7509SOL     OW32995   8.572   4.757   1.164 -0.0310  0.2902  0.1390
 7509SOL    HW132996   8.549   4.854   1.159  1.0206  0.6635  2.0015
 7509SOL    HW232997   8.625   4.731   1.083  0.9925  1.6442  0.3553
 7510SOL     OW32998   9.902   2.275   3.703 -0.6283 -0.2648  0.6344
 7510SOL    HW132999   9.887   2.289   3.605 -1.8083  0.8540  0.9573
 7510SOL    HW233000   9.917   2.364   3.747  1.0456 -0.8528  1.2963
 7511SOL     OW33001   8.126   5.347   4.000  0.2782  0.0312 -0.2999
 7511SOL    HW133002   8.104   5.250   3.999 -0.1508  0.0918  1.5814
 7511SOL    HW233003   8.097   5.387   4.087 -0.3391  2.0246 -1.3776
 7512SOL     OW33004   3.018   5.451   1.097  0.2619 -0.6561 -0.6761
 7512SOL    HW133005   2.934   5.404   1.125  0.7638 -0.7334  0.7181
 7512SOL    HW233006   3.092   5.429   1.160  1.1790 -0.0866 -1.5362
 7513SOL     OW33007   4.725   8.150   3.645 -0.3932  0.1205  0.0426
 7513SOL    HW133008   4.776   8.233   3.621  1.9231 -1.5016 -0.7222
 7513SOL    HW233009   4.788   8.073   3.653 -2.1836 -1.1224  3.1170
 7514SOL     OW33010   2.780   2.122   1.964 -0.6285  0.0092  0.4167
 7514SOL    HW133011   2.787   2.207   1.913 -0.4976 -0.0897  0.2696
 7514SOL    HW233012   2.832   2.050   1.917 -2.2283 -0.6124 -0.4109
 7515SOL     OW33013   9.974   8.956   3.226 -0.4582 -0.0600  0.5753
 7515SOL    HW133014   9.987   9.025   3.155  0.9198 -2.0753 -1.2254
 7515SOL    HW233015  10.040   8.970   3.299  0.7346 -0.2617 -0.4475
 7516SOL     OW33016   8.641   0.158   0.162  0.1566 -0.0108  0.1128
 7516SOL    HW133017   8.646   0.150   0.261  0.7427  1.3383  0.2043
 7516SOL    HW233018   8.721   0.117   0.120  1.4960  2.2392  0.3893
 7517SOL     OW33019   1.633   8.757   2.670  0.6273  0.0543  0.0885
 7517SOL    HW133020   1.722   8.786   2.706  1.0202 -1.1807  0.1235
 7517SOL    HW233021   1.641   8.738   2.573  0.2741  0.4506 -0.0182
 7518SOL     OW33022   0.954   6.645   1.846 -1.0019  0.2498 -0.8551
 7518SOL    HW133023   0.860   6.654   1.814 -1.6281  0.2610  0.9219
 7518SOL    HW233024   0.955   6.599   1.935  0.6575  0.3779 -0.7832
 7519SOL     OW33025   0.507   0.679   3.272 -0.2950 -0.4767 -0.5337
 7519SOL    HW133026   0.433   0.614   3.287 -0.6602  0.2298  0.8015
 7519SOL    HW233027   0.487   0.735   3.192  0.4237 -2.5446 -2.2033
 7520SOL     OW33028   9.330   8.617   2.771 -0.2778  0.3225  0.4183
 7520SOL    HW133029   9.285   8.668   2.698  0.9150  1.0987  0.2029
 7520SOL    HW233030   9.395   8.552   2.732 -1.5439 -1.1490  0.7099
 7521SOL     OW33031   7.750   1.926   2.134  0.2231 -0.1861  0.0703
 7521SOL    HW133032   7.695   1.956   2.056  0.0731  0.5992  0.4642
 7521SOL    HW233033   7.746   1.827   2.142  0.6288 -0.3086 -1.2012
 7522SOL     OW33034   9.592   9.656   2.551  0.2700 -0.3186 -0.2970
 7522SOL    HW133035   9.532   9.603   2.612  0.2766  2.8443  2.5815
 7522SOL    HW233036   9.685   9.620   2.557 -0.0652 -1.1262  0.2555
 7523SOL     OW33037   1.145   2.663   1.779  0.1203 -0.4431  0.4309
 7523SOL    HW133038   1.157   2.584   1.840  0.5046 -0.5183  0.2587
 7523SOL    HW233039   1.118   2.742   1.833 -1.2252 -0.9240  0.4841
 7524SOL     OW33040   2.498   1.740   2.519  0.7349 -0.1064  0.0142
 7524SOL    HW133041   2.399   1.754   2.505 -0.0157 -4.0067  0.9148
 7524SOL    HW233042   2.534   1.815   2.575 -1.4905  1.8561 -1.0667
 7525SOL     OW33043   1.285   2.827   0.096 -0.2139  0.2179 -0.0407
 7525SOL    HW133044   1.348   2.841   0.020  0.6543  0.9772  0.8126
 7525SOL    HW233045   1.274   2.729   0.112  0.9730  0.0936  0.0058
 7526SOL     OW33046   9.802   8.371   2.703 -0.2565  0.3775  0.5070
 7526SOL    HW133047   9.891   8.407   2.728  0.0748  0.2000 -0.3904
 7526SOL    HW233048   9.813   8.279   2.664 -0.6035  1.1212 -1.4235
 7527SOL     OW33049   2.948   2.659   3.956  0.3970  0.1152  0.2162
 7527SOL    HW133050   2.930   2.599   4.034 -0.8681  0.8424  0.4974
 7527SOL    HW233051   2.863   2.704   3.929  0.8322 -0.1208 -1.5757
 7528SOL     OW33052   0.891   4.327   1.482  0.2167 -0.1644  0.0773
 7528SOL    HW133053   0.901   4.383   1.564 -1.5938  1.4329 -0.7466
 7528SOL    HW233054   0.840   4.378   1.412  1.0325 -1.7733 -1.7672
 7529SOL     OW33055   8.942   8.246   2.762 -0.1237 -0.3102 -0.3267
 7529SOL    HW133056   8.950   8.258   2.861  0.4124 -2.9236 -0.0092
 7529SOL    HW233057   9.033   8.227   2.725 -0.5201 -0.6155 -1.1323
 7530SOL     OW33058   2.073   2.530   1.443 -0.5562  0.2490 -0.3303
 7530SOL    HW133059   2.002   2.519   1.373 -0.2298 -1.6389 -0.4058
 7530SOL    HW233060   2.080   2.445   1.495  0.7408  0.8887  0.5405
 7531SOL     OW33061   2.575   2.975   1.661 -0.6338 -0.6074 -0.9466
 7531SOL    HW133062   2.640   2.927   1.720 -1.4162 -0.4983  0.0221
 7531SOL    HW233063   2.622   3.008   1.579  0.8312  0.6007  0.3473
 7532SOL     OW33064   1.122   5.381   3.128 -0.5453  0.5812  0.2748
 7532SOL    HW133065   1.033   5.427   3.128  0.7436  3.2268  2.6695
 7532SOL    HW233066   1.166   5.395   3.039 -1.8126  0.6390 -0.3646
 7533SOL     OW33067   2.700   7.705   0.983 -0.1933 -0.3228 -0.6880
 7533SOL    HW133068   2.714   7.674   0.889 -0.9211  0.8790 -1.2022
 7533SOL    HW233069   2.661   7.797   0.982  0.8394  0.1523  0.7975
 7534SOL     OW33070   8.492   1.843   3.108  0.7129 -0.1898 -0.0981
 7534SOL    HW133071   8.579   1.841   3.059  0.5008  1.0813 -0.5266
 7534SOL    HW233072   8.417   1.854   3.043  0.3734  0.6836  0.4415
 7535SOL     OW33073   4.242   7.538   1.896  0.2499 -0.2271 -0.9389
 7535SOL    HW133074   4.239   7.439   1.907  0.3656 -0.2148 -0.8015
 7535SOL    HW233075   4.210   7.563   1.804  2.1506 -0.5206 -1.6940
 7536SOL     OW33076   4.208   7.300   1.796  0.0772  0.0422  0.3677
 7536SOL    HW133077   4.236   7.301   1.700  1.6894 -1.5628  0.7985
 7536SOL    HW233078   4.110   7.316   1.802 -0.2623 -1.1181 -1.6219
 7537SOL     OW33079   0.311   3.428   2.772 -0.7797  0.0114  0.3967
 7537SOL    HW133080   0.240   3.362   2.749 -0.7473 -0.4831  1.6625
 7537SOL    HW233081   0.283   3.482   2.851  0.1143  0.0333  0.7082
 7538SOL     OW33082   7.117   3.440   3.966  0.0858  0.0225  0.4804
 7538SOL    HW133083   7.157   3.465   4.055 -0.2718  0.9352  0.3933
 7538SOL    HW233084   7.018   3.432   3.976 -0.0358  0.8736  0.0017
 7539SOL     OW33085   3.411   6.421   1.261 -0.5122  0.3774 -0.1035
 7539SOL    HW133086   3.447   6.464   1.344  2.3061 -1.4491 -0.3282
 7539SOL    HW233087   3.350   6.346   1.285 -2.7457  2.2581  0.2761
 7540SOL     OW33088   8.860   8.849   2.809  0.5169  0.0757  0.2053
 7540SOL    HW133089   8.835   8.853   2.713 -1.8708 -0.2768  0.7583
 7540SOL    HW233090   8.864   8.941   2.847  2.9330  0.3103 -0.5494
 7541SOL     OW33091   8.944   5.129   3.875  0.6241  0.4879  0.2172
 7541SOL    HW133092   8.846   5.119   3.893  0.2836  0.9134 -1.3240
 7541SOL    HW233093   8.981   5.201   3.934 -0.0336  0.4923  0.6355
 7542SOL     OW33094   8.828   5.105   3.276  0.0633 -0.5081  0.0593
 7542SOL    HW133095   8.845   5.195   3.236  0.1137 -0.1688  0.8386
 7542SOL    HW233096   8.908   5.076   3.329  0.0170 -0.9719 -0.1222
 7543SOL     OW33097   7.176   8.667   0.849  0.0327 -0.2056  0.0647
 7543SOL    HW133098   7.224   8.584   0.877 -0.2435 -0.2210  0.4942
 7543SOL    HW233099   7.231   8.716   0.782  1.9711  1.2326  2.6174
 7544SOL     OW33100   4.069   5.619   1.904  0.4655  0.2687 -0.0778
 7544SOL    HW133101   4.073   5.704   1.852  0.9678  3.1702  4.4682
 7544SOL    HW233102   3.974   5.599   1.929  0.3449 -0.5917 -1.1565
 7545SOL     OW33103   9.331   8.592   0.998 -0.4694  0.0320 -0.0020
 7545SOL    HW133104   9.324   8.688   0.970 -1.8265 -0.3415 -0.9888
 7545SOL    HW233105   9.249   8.565   1.049 -1.0495 -1.1431 -1.4867
 7546SOL     OW33106   9.844   4.699   3.667 -0.5679 -0.9524  0.6245
 7546SOL    HW133107   9.933   4.741   3.686 -0.3481 -0.1415 -1.9635
 7546SOL    HW233108   9.854   4.599   3.665  0.2608 -0.8759  0.5288
 7547SOL     OW33109   3.473   9.448   1.081 -0.0130 -0.0378 -0.4046
 7547SOL    HW133110   3.533   9.528   1.085  1.1477 -0.9261  0.0916
 7547SOL    HW233111   3.525   9.365   1.101 -1.3061 -0.8802 -0.4250
 7548SOL     OW33112   9.645   0.853   3.693  0.0660 -0.8365  0.1385
 7548SOL    HW133113   9.655   0.944   3.734 -1.9495 -0.2277 -0.6855
 7548SOL    HW233114   9.730   0.801   3.707  0.6380  0.5582  2.0861
 7549SOL     OW33115   2.183   2.527   3.606  0.2838 -0.6082 -0.2434
 7549SOL    HW133116   2.268   2.547   3.654 -0.1760 -1.1210  0.7956
 7549SOL    HW233117   2.192   2.553   3.509  1.8126 -1.2356 -0.2744
 7550SOL     OW33118   5.528   7.691   2.345 -0.3657  0.1919 -0.5417
 7550SOL    HW133119   5.543   7.755   2.270  1.5248 -0.7003 -0.9542
 7550SOL    HW233120   5.459   7.623   2.319 -0.7276  0.7193 -0.9479
 7551SOL     OW33121   9.292   5.277   0.747  0.3463 -0.5323  0.4875
 7551SOL    HW133122   9.359   5.351   0.752  0.1948 -0.4160  0.8291
 7551SOL    HW233123   9.272   5.243   0.840  0.8467 -1.3915  0.2906
 7552SOL     OW33124   3.094   0.266   3.469  0.2582 -0.2813 -0.1359
 7552SOL    HW133125   3.077   0.168   3.482 -0.5670 -0.4292 -2.1213
 7552SOL    HW233126   3.063   0.316   3.550  0.3956 -1.6268  0.7648
 7553SOL     OW33127   8.869   4.006   0.233  0.3572 -0.0436 -0.3687
 7553SOL    HW133128   8.966   3.993   0.213  0.4114  0.9789 -0.7593
 7553SOL    HW233129   8.820   4.032   0.150 -0.1610  0.0047 -0.0554
 7554SOL     OW33130   2.928   2.295   2.762 -0.3190 -0.0331 -0.1634
 7554SOL    HW133131   2.843   2.347   2.757 -1.1094 -1.0120  2.4032
 7554SOL    HW233132   3.001   2.354   2.796 -0.6963  0.0020  0.5917
 7555SOL     OW33133   4.500   6.804   2.170 -0.3414  0.3882 -0.0163
 7555SOL    HW133134   4.472   6.893   2.135 -1.4046  0.0722 -0.0084
 7555SOL    HW233135   4.420   6.756   2.206  0.6657  0.5688  2.5692
 7556SOL     OW33136   2.810   3.595   1.924 -0.5648  0.6308 -0.0826
 7556SOL    HW133137   2.752   3.515   1.911  0.1375 -0.3403  2.4891
 7556SOL    HW233138   2.895   3.583   1.872  0.2976 -1.1317  1.6844
 7557SOL     OW33139   0.445   0.407   3.170  0.1561 -0.1128  0.3240
 7557SOL    HW133140   0.514   0.356   3.220  0.8831 -0.6534 -1.2061
 7557SOL    HW233141   0.384   0.344   3.123 -0.8740  0.3776  0.9807
 7558SOL     OW33142   9.564   2.327   1.190 -0.7928 -0.3802  0.1785
 7558SOL    HW133143   9.592   2.319   1.094  2.5843  0.3997  1.0469
 7558SOL    HW233144   9.533   2.421   1.208 -0.3920 -0.2237  0.0773
 7559SOL     OW33145   1.837   7.350   2.167  0.3847  0.5904  0.2176
 7559SOL    HW133146   1.817   7.254   2.147  1.1479  0.5061 -0.1384
 7559SOL    HW233147   1.751   7.402   2.167  0.0038 -0.0343  0.1121
 7560SOL     OW33148   3.268   9.501   1.957  0.3573 -0.3512 -0.1321
 7560SOL    HW133149   3.354   9.493   1.906  0.8253 -3.0287  0.9935
 7560SOL    HW233150   3.195   9.457   1.904  0.4220 -1.2638  0.5268
 7561SOL     OW33151   0.188   5.680   3.602  0.1365  0.1891  0.4330
 7561SOL    HW133152   0.125   5.691   3.679 -0.4857  3.3630 -0.4583
 7561SOL    HW233153   0.281   5.701   3.632  0.1854 -0.5260  0.7876
 7562SOL     OW33154   2.166   7.322   2.300 -0.0463  0.8053 -0.6937
 7562SOL    HW133155   2.236   7.367   2.356  1.5295 -2.4919  0.1622
 7562SOL    HW233156   2.081   7.314   2.352  0.5237  0.3560  0.1919
 7563SOL     OW33157   0.284   0.219   1.837 -0.2455  0.3692 -0.0312
 7563SOL    HW133158   0.211   0.260   1.891 -0.1508  0.9281 -0.3184
 7563SOL    HW233159   0.244   0.157   1.769 -0.4669  0.7930 -0.2908
 7564SOL     OW33160   2.172   9.596   1.366 -0.4518 -0.3557  0.3089
 7564SOL    HW133161   2.150   9.499   1.359 -0.4326 -0.3842  0.6279
 7564SOL    HW233162   2.250   9.609   1.427  1.0619 -0.3329 -1.5932
 7565SOL     OW33163   9.346   2.612   0.833  0.2167 -0.6024  0.3974
 7565SOL    HW133164   9.397   2.563   0.762 -1.9645 -1.3732 -0.7001
 7565SOL    HW233165   9.306   2.546   0.897 -0.1930 -0.0793  0.6864
 7566SOL     OW33166   1.110   7.422   0.575  0.0115  0.3746 -0.3120
 7566SOL    HW133167   1.124   7.474   0.659  0.4366  0.1269 -0.2321
 7566SOL    HW233168   1.182   7.445   0.509 -0.7189  1.1116 -0.8771
 7567SOL     OW33169   1.713   1.976   3.191 -0.4295  0.3856 -0.1737
 7567SOL    HW133170   1.715   1.909   3.265  0.7133 -0.4433 -0.9413
 7567SOL    HW233171   1.628   2.029   3.196 -1.0978 -0.7561  0.7447
 7568SOL     OW33172   2.022   4.321   2.081  0.1690 -0.5192  0.2435
 7568SOL    HW133173   2.087   4.303   2.008  0.5344  0.2870  0.3562
 7568SOL    HW233174   1.993   4.417   2.077 -1.0480 -0.8747  0.1686
 7569SOL     OW33175   9.300   3.447   3.318 -0.1322 -0.2982 -0.3711
 7569SOL    HW133176   9.278   3.428   3.414 -3.7166 -1.0755 -1.2797
 7569SOL    HW233177   9.377   3.390   3.289 -0.7037 -1.9669  1.3177
 7570SOL     OW33178   3.334   1.643   1.877  0.3474  0.5823  0.2557
 7570SOL    HW133179   3.324   1.742   1.894 -3.1475  0.4880 -0.8617
 7570SOL    HW233180   3.309   1.623   1.783 -1.7774 -1.7100  1.2420
 7571SOL     OW33181   1.383   2.627   3.363 -0.6711 -0.3967 -0.1951
 7571SOL    HW133182   1.352   2.687   3.289  0.4020  0.2595 -0.1278
 7571SOL    HW233183   1.341   2.656   3.449  0.6217  0.9097  0.0129
 7572SOL     OW33184   9.459   2.111   0.198  0.3020 -0.1671 -0.2551
 7572SOL    HW133185   9.500   2.196   0.230 -0.4639 -0.2478  0.9709
 7572SOL    HW233186   9.530   2.041   0.188  0.9844  0.7057 -1.6171
 7573SOL     OW33187   0.412   8.438   3.649 -0.2548  0.1999 -0.3455
 7573SOL    HW133188   0.441   8.523   3.606  2.2894 -1.0931 -1.3344
 7573SOL    HW233189   0.444   8.361   3.594 -0.5683 -1.4286  1.6912
 7574SOL     OW33190   2.902   9.937   1.454  0.1482  0.1008  0.4317
 7574SOL    HW133191   2.965   9.990   1.509 -0.5227 -0.6536  1.9430
 7574SOL    HW233192   2.812   9.981   1.453 -0.4334 -1.0287  1.7546
 7575SOL     OW33193   0.252   9.943   3.281  0.4584  0.0921  0.1352
 7575SOL    HW133194   0.164   9.954   3.329  0.0805 -2.0801 -0.0215
 7575SOL    HW233195   0.263   9.848   3.253  3.2955  0.1392  0.9495
 7576SOL     OW33196   1.116   3.554   3.812  0.3001 -0.1422  0.0994
 7576SOL    HW133197   1.097   3.460   3.840 -2.8698  0.3171 -0.3195
 7576SOL    HW233198   1.103   3.615   3.890 -0.4279  0.2564 -0.3365
 7577SOL     OW33199   5.948   7.020   2.845  0.0779  0.0347  0.1591
 7577SOL    HW133200   5.913   6.940   2.894  1.0634 -0.2433  0.4159
 7577SOL    HW233201   5.992   7.083   2.910  1.7789 -0.5394 -0.4000
 7578SOL     OW33202   8.024   1.636   3.011  0.0419 -0.1470  0.1089
 7578SOL    HW133203   7.925   1.641   3.023  0.1584  0.4461  0.8181
 7578SOL    HW233204   8.058   1.722   2.973  0.2592 -0.4434 -0.3850
 7579SOL     OW33205   0.778   0.140   2.706  0.7487 -0.1954  0.2566
 7579SOL    HW133206   0.740   0.199   2.636 -0.8408  1.0408  2.1121
 7579SOL    HW233207   0.706   0.082   2.743  0.8050  1.5554  3.2210
 7580SOL     OW33208   2.749   1.642   3.094 -0.3638 -0.1650 -0.0160
 7580SOL    HW133209   2.747   1.713   3.024  0.9657 -0.5991 -0.5279
 7580SOL    HW233210   2.728   1.554   3.052 -0.7685 -0.2484  0.3667
 7581SOL     OW33211   8.010   0.325   0.187  0.1664  0.0174  0.9821
 7581SOL    HW133212   7.953   0.260   0.136 -0.2474  0.2639  1.1311
 7581SOL    HW233213   8.106   0.311   0.163 -0.0821  0.6022 -0.4222
 7582SOL     OW33214   1.013   9.746   1.772  0.0755 -0.6251  0.2815
 7582SOL    HW133215   0.969   9.800   1.844 -0.7847 -2.0532  0.8626
 7582SOL    HW233216   1.109   9.730   1.795  0.0429 -0.2894  0.6493
 7583SOL     OW33217   4.929   7.496   2.421  0.1928 -0.2586 -0.2774
 7583SOL    HW133218   4.891   7.539   2.503 -0.1033  0.4030 -0.7538
 7583SOL    HW233219   4.854   7.453   2.370  0.0526  1.0978 -1.2496
 7584SOL     OW33220   4.130   3.244   3.308  0.0521 -0.0113 -0.2872
 7584SOL    HW133221   4.170   3.330   3.339 -0.7343  0.8955 -1.7367
 7584SOL    HW233222   4.200   3.173   3.308  0.8762  0.7908  0.2612
 7585SOL     OW33223   8.543   6.630   3.611 -0.0092 -0.4264 -0.5356
 7585SOL    HW133224   8.536   6.699   3.683 -2.8232 -0.2299 -0.9663
 7585SOL    HW233225   8.636   6.591   3.611  0.5599  0.8584  1.9798
 7586SOL     OW33226   9.702   0.094   3.846 -0.1941 -0.2288  0.2468
 7586SOL    HW133227   9.719   0.191   3.868 -0.3924  0.0316 -0.7136
 7586SOL    HW233228   9.622   0.062   3.897 -0.2439  0.1704  0.4244
 7587SOL     OW33229   1.056   2.469   1.256  0.3585 -0.3672  0.1319
 7587SOL    HW133230   1.107   2.442   1.175  0.4192 -0.4645  0.2012
 7587SOL    HW233231   1.119   2.474   1.334  0.1531 -1.1303  0.3556
 7588SOL     OW33232   9.895   8.598   3.412  0.0359 -0.6952  0.2726
 7588SOL    HW133233   9.852   8.658   3.480 -1.3999  1.2124 -2.2106
 7588SOL    HW233234   9.865   8.504   3.428  0.0004 -0.3547  2.4521
 7589SOL     OW33235   2.152   8.090   2.241  0.0874  0.0050  1.0336
 7589SOL    HW133236   2.071   8.127   2.195  0.4388  1.0920  1.2764
 7589SOL    HW233237   2.133   8.078   2.338 -0.4890 -1.8157  0.7172
 7590SOL     OW33238   2.062   1.169   3.951 -0.0483  0.1395 -0.3263
 7590SOL    HW133239   2.123   1.226   3.896  0.4822  1.1190  1.2646
 7590SOL    HW233240   2.032   1.219   4.032  0.7884 -1.9651  1.3514
 7591SOL     OW33241   8.754   5.402   2.716  0.8700  0.1989  0.0328
 7591SOL    HW133242   8.703   5.478   2.757  0.0041  0.8073 -2.0876
 7591SOL    HW233243   8.765   5.329   2.782  1.1030  1.8869  1.9061
 7592SOL     OW33244   2.905   4.249   3.640  0.7119 -0.0232  0.4127
 7592SOL    HW133245   2.868   4.305   3.714 -0.3048 -0.5630  0.3162
 7592SOL    HW233246   2.830   4.204   3.592  1.2360  1.5597 -1.9516
 7593SOL     OW33247   7.803   8.998   0.941  0.1274 -0.1813  0.0105
 7593SOL    HW133248   7.744   9.065   0.896 -0.8959 -0.5159  0.8527
 7593SOL    HW233249   7.807   9.017   1.039  1.6035 -0.0257 -0.0568
 7594SOL     OW33250   3.778   7.747   0.503 -0.7585  0.0200 -0.2081
 7594SOL    HW133251   3.710   7.820   0.496 -0.5520  0.2024 -0.3726
 7594SOL    HW233252   3.789   7.720   0.598 -0.2894  0.7403 -0.0445
 7595SOL     OW33253   8.626   7.367   0.529 -0.0345 -0.4262 -0.6097
 7595SOL    HW133254   8.593   7.453   0.491  1.0932  0.9330  1.3852
 7595SOL    HW233255   8.575   7.346   0.613  2.2912  0.3495  1.0518
 7596SOL     OW33256   5.620   9.078   2.747  0.3454  0.1518 -0.2295
 7596SOL    HW133257   5.547   9.065   2.680 -2.4178  2.2691  2.2186
 7596SOL    HW233258   5.649   8.990   2.782  0.6243 -0.8712 -2.9080
 7597SOL     OW33259   4.742   2.107   1.080  0.6965  0.0004  0.4150
 7597SOL    HW133260   4.732   2.201   1.045 -2.1329 -0.9542 -1.5124
 7597SOL    HW233261   4.815   2.061   1.030  1.4370  0.8871  0.6802
 7598SOL     OW33262   4.060   3.037   2.449 -0.2083  0.1987 -0.0996
 7598SOL    HW133263   3.976   3.068   2.494 -0.9614  0.0557 -1.3731
 7598SOL    HW233264   4.136   3.094   2.478 -0.9577  1.0584  0.2147
 7599SOL     OW33265   7.257   9.772   3.713  0.1705  0.2546 -0.2546
 7599SOL    HW133266   7.248   9.734   3.621 -0.3018 -0.0800 -0.0768
 7599SOL    HW233267   7.228   9.703   3.780  0.8227  0.3840  0.1579
 7600SOL     OW33268   1.414   8.370   0.179 -0.3711  0.6950  0.4025
 7600SOL    HW133269   1.368   8.327   0.257 -0.2604 -1.7172 -0.8266
 7600SOL    HW233270   1.352   8.373   0.101  0.7683 -0.4057 -0.5550
 7601SOL     OW33271   0.380   6.895   3.950  0.0282  0.0192 -0.2244
 7601SOL    HW133272   0.372   6.870   4.046 -0.0030 -0.2994 -0.3086
 7601SOL    HW233273   0.306   6.958   3.925 -0.9116 -1.1478 -0.4416
 7602SOL     OW33274   8.639   1.749   1.730  0.2060  0.0247 -0.2410
 7602SOL    HW133275   8.709   1.789   1.671  0.0818 -0.6352 -0.8427
 7602SOL    HW233276   8.670   1.753   1.825  0.1707  1.5872 -0.2792
 7603SOL     OW33277   1.924   3.336   1.468  0.0564  0.1335 -0.4106
 7603SOL    HW133278   2.008   3.367   1.423  0.2123 -0.8044 -0.7688
 7603SOL    HW233279   1.853   3.322   1.400  0.2527 -1.1518 -0.3621
 7604SOL     OW33280   9.167   3.268   0.082  0.4253 -0.3208  0.3975
 7604SOL    HW133281   9.159   3.288   0.180  2.2631 -2.6565  1.0498
 7604SOL    HW233282   9.076   3.258   0.043 -0.3545  1.6083  1.6460
 7605SOL     OW33283   1.242   8.556   3.620  0.2412  0.1427  0.2812
 7605SOL    HW133284   1.299   8.529   3.698  0.0021  1.5305  0.9513
 7605SOL    HW233285   1.270   8.647   3.589 -1.2096  0.5828  0.2429
 7606SOL     OW33286   1.080   1.607   2.448 -0.4592 -0.3689 -0.1851
 7606SOL    HW133287   1.009   1.568   2.390 -1.6469 -0.5887  1.3980
 7606SOL    HW233288   1.081   1.560   2.536  0.1803  1.0877  0.6086
 7607SOL     OW33289   2.619   3.435   2.419 -0.5037 -0.6435 -0.1242
 7607SOL    HW133290   2.569   3.349   2.413 -2.9592  0.7193  0.2701
 7607SOL    HW233291   2.687   3.438   2.346 -0.4312 -2.8842 -0.1793
 7608SOL     OW33292   9.567   2.804   3.622 -0.2002  0.3218 -0.5570
 7608SOL    HW133293   9.620   2.801   3.537  0.1661  1.2207 -0.3590
 7608SOL    HW233294   9.485   2.748   3.611  0.9451 -1.3425 -0.7432
 7609SOL     OW33295   8.793   6.607   2.733  0.0116  0.3644 -0.1015
 7609SOL    HW133296   8.860   6.567   2.796 -0.2950 -0.1187 -0.0897
 7609SOL    HW233297   8.742   6.679   2.780 -0.0060  0.2114  0.1105
 7610SOL     OW33298   0.619   3.547   3.121 -0.0312 -0.0027  0.0887
 7610SOL    HW133299   0.654   3.471   3.066  1.0950  0.3544  0.3061
 7610SOL    HW233300   0.643   3.534   3.217 -0.9482 -0.0120  0.3233
 7611SOL     OW33301   9.997   5.012   3.938 -0.0750 -0.2079  0.5252
 7611SOL    HW133302   9.942   5.024   4.021  0.4454  3.7450  0.4016
 7611SOL    HW233303  10.094   5.022   3.961  0.0916  0.5941 -0.5265
 7612SOL     OW33304   8.724   1.485   0.102  0.0435  0.2696 -0.0511
 7612SOL    HW133305   8.724   1.445   0.194  0.2699 -0.6186 -0.4394
 7612SOL    HW233306   8.817   1.484   0.065 -0.3347 -0.9722 -0.9835
 7613SOL     OW33307   4.129   0.302   3.823  0.1876 -0.0051  0.0150
 7613SOL    HW133308   4.099   0.363   3.897 -2.0734 -0.7202 -0.2760
 7613SOL    HW233309   4.093   0.210   3.839  0.8805 -0.4984 -1.2435
 7614SOL     OW33310   2.764   5.451   0.128 -0.8909  0.0985  0.6544
 7614SOL    HW133311   2.813   5.508   0.193 -0.9051 -0.1680  0.8992
 7614SOL    HW233312   2.821   5.371   0.104 -1.5482 -0.6661  1.5980
 7615SOL     OW33313   1.568   0.130   3.229 -0.4106 -0.3612 -0.3235
 7615SOL    HW133314   1.615   0.115   3.142 -0.0354 -1.1847  0.0150
 7615SOL    HW233315   1.604   0.067   3.298 -2.9922 -2.0112 -0.4238
 7616SOL     OW33316   3.225   3.217   0.721 -0.3404  0.2237  0.3376
 7616SOL    HW133317   3.235   3.170   0.633  1.4116  0.2573  0.5037
 7616SOL    HW233318   3.198   3.312   0.706 -0.1384  0.2024 -0.1527
 7617SOL     OW33319   8.140   6.571   3.013  0.0243 -0.3530 -0.4954
 7617SOL    HW133320   8.069   6.510   2.975 -2.1676  1.2946  0.8133
 7617SOL    HW233321   8.137   6.566   3.113  1.1017  0.4844 -0.4205
 7618SOL     OW33322   0.360   4.753   3.282  0.3489 -0.3188 -0.2606
 7618SOL    HW133323   0.325   4.663   3.309 -0.1388  0.5317  2.1077
 7618SOL    HW233324   0.283   4.815   3.269  0.8284  0.7218  1.7994
 7619SOL     OW33325   4.186   2.622   1.061 -0.3549 -0.2446 -0.2548
 7619SOL    HW133326   4.108   2.684   1.072 -1.5953 -1.1807 -3.2613
 7619SOL    HW233327   4.163   2.533   1.100  0.1383  0.1767  1.0132
 7620SOL     OW33328   8.190   4.220   3.244 -0.1839 -0.6446  0.4342
 7620SOL    HW133329   8.251   4.294   3.215 -0.9793 -0.2738 -0.3164
 7620SOL    HW233330   8.162   4.235   3.339  2.5477 -1.9333  1.4876
 7621SOL     OW33331   8.063   5.192   2.437  0.0604 -0.6077  0.2504
 7621SOL    HW133332   8.061   5.109   2.492 -0.3596 -1.3346 -0.8335
 7621SOL    HW233333   7.970   5.225   2.422  0.1165 -0.8043 -0.5773
 7622SOL     OW33334   6.733   9.391   1.352 -0.5495 -0.1134  0.3799
 7622SOL    HW133335   6.684   9.320   1.301 -1.0360  1.3521 -1.2452
 7622SOL    HW233336   6.732   9.369   1.449 -1.7535 -1.6978  0.0290
 7623SOL     OW33337   2.524   3.711   0.753  0.0009  0.7594 -0.8851
 7623SOL    HW133338   2.450   3.667   0.803 -0.1246  0.4932 -1.3019
 7623SOL    HW233339   2.573   3.774   0.814 -1.0514  1.5247 -0.8218
 7624SOL     OW33340   1.024   1.097   2.073 -0.2530 -0.2582  0.5923
 7624SOL    HW133341   0.948   1.126   2.014 -1.6702 -1.3293  1.8428
 7624SOL    HW233342   1.108   1.095   2.019 -1.0467  1.1853 -0.7670
 7625SOL     OW33343   8.484   7.514   0.074 -0.8749  0.5495  0.2020
 7625SOL    HW133344   8.437   7.521  -0.013 -0.9910 -0.0035  0.2139
 7625SOL    HW233345   8.575   7.475   0.060 -0.0526  2.4574  0.0664
 7626SOL     OW33346   9.477   9.138   0.768  0.3243 -0.0007  0.0711
 7626SOL    HW133347   9.468   9.216   0.829  0.0775  1.0286 -1.2451
 7626SOL    HW233348   9.386   9.109   0.737  0.5442  0.9266 -1.5421
 7627SOL     OW33349   1.871   9.506   0.261  0.2895 -0.4581  0.5677
 7627SOL    HW133350   1.793   9.568   0.267  1.0043  0.3768  1.3267
 7627SOL    HW233351   1.941   9.533   0.327  1.7646 -0.4533 -0.9675
 7628SOL     OW33352   2.979   5.738   1.377  0.3797  0.0943  0.0221
 7628SOL    HW133353   2.989   5.812   1.310 -1.2196 -0.7071 -1.1190
 7628SOL    HW233354   2.885   5.705   1.377  1.5547 -3.4423 -1.0628
 7629SOL     OW33355   8.447   5.060   2.459  0.0192 -0.1992 -0.1758
 7629SOL    HW133356   8.467   5.144   2.510 -1.1374  0.2799 -0.4944
 7629SOL    HW233357   8.527   5.035   2.403  1.3820 -0.8537  2.0026
 7630SOL     OW33358   9.564   7.117   3.202  0.1187 -0.4327  0.0696
 7630SOL    HW133359   9.556   7.019   3.187  0.4792 -0.3339 -0.8041
 7630SOL    HW233360   9.484   7.150   3.253  0.7968 -1.4538  1.8238
 7631SOL     OW33361   1.485   3.052   2.270  0.1316 -0.3899 -0.4206
 7631SOL    HW133362   1.483   3.055   2.370 -1.2030  2.5138 -0.4895
 7631SOL    HW233363   1.562   2.995   2.240  0.0540 -1.9760  2.2411
 7632SOL     OW33364   3.571   7.734   3.443 -0.1385 -0.3581 -0.5320
 7632SOL    HW133365   3.553   7.772   3.352 -0.1226 -0.0209 -0.3929
 7632SOL    HW233366   3.670   7.736   3.461 -0.0986 -0.8303 -0.6855
 7633SOL     OW33367   0.437   6.917   3.183  0.3642  0.1837 -0.8115
 7633SOL    HW133368   0.460   7.011   3.211  3.0376 -0.4081 -0.8503
 7633SOL    HW233369   0.380   6.874   3.253 -0.5300  1.6893 -0.5945
 7634SOL     OW33370   4.294   7.922   1.161 -0.1976 -0.0659 -0.4763
 7634SOL    HW133371   4.288   7.981   1.081  0.6866 -0.1861 -0.6313
 7634SOL    HW233372   4.228   7.847   1.152 -0.9775  0.6100 -0.5066
 7635SOL     OW33373   9.079   3.000   2.854  0.2478 -0.5853  0.0731
 7635SOL    HW133374   9.090   2.936   2.778  0.2403 -0.1399 -0.3044
 7635SOL    HW233375   9.021   3.077   2.825 -3.0639 -2.3771  1.7174
 7636SOL     OW33376   1.142   8.167   3.794 -0.2228 -0.2223  0.1910
 7636SOL    HW133377   1.238   8.193   3.804 -0.1627 -0.1563 -0.5276
 7636SOL    HW233378   1.110   8.192   3.703 -1.1489  0.4712  0.6965
 7637SOL     OW33379   7.921   1.402   1.593 -0.4193  0.1748  0.2240
 7637SOL    HW133380   7.890   1.492   1.564 -2.0366 -0.9890 -1.8350
 7637SOL    HW233381   7.843   1.341   1.603  0.6592 -1.0307  1.5376
 7638SOL     OW33382   2.854   2.796   0.987  0.3447  0.5687 -0.1142
 7638SOL    HW133383   2.872   2.770   0.892 -0.4915 -1.2409  0.2106
 7638SOL    HW233384   2.790   2.873   0.989 -1.6811 -1.0465 -0.9762
 7639SOL     OW33385   8.611   3.353   0.349  0.2921  0.2446  0.2541
 7639SOL    HW133386   8.614   3.273   0.410  0.2932  1.3243  1.6929
 7639SOL    HW233387   8.602   3.436   0.403  0.1030  1.2234 -1.2468
 7640SOL     OW33388   1.072   1.732   2.948 -0.4808 -0.4134  0.2212
 7640SOL    HW133389   1.157   1.681   2.938 -0.5573 -0.6371  0.7085
 7640SOL    HW233390   1.020   1.727   2.863 -0.0829 -0.4174 -0.0197
 7641SOL     OW33391   1.519   1.769   0.602 -0.2277  0.5444  0.6940
 7641SOL    HW133392   1.563   1.750   0.514  0.3622  0.5465  0.9906
 7641SOL    HW233393   1.528   1.866   0.624 -2.7906  1.1295 -0.5669
 7642SOL     OW33394   3.375   0.258   3.711  0.1377  0.3537  0.3925
 7642SOL    HW133395   3.310   0.324   3.750 -0.2093 -1.4896  3.1057
 7642SOL    HW233396   3.325   0.179   3.676  0.7845 -0.2241  0.7581
 7643SOL     OW33397   9.260   0.358   3.271 -0.1219 -0.1885  0.4989
 7643SOL    HW133398   9.201   0.432   3.302 -0.8535 -0.5051 -0.1021
 7643SOL    HW233399   9.339   0.396   3.223 -0.8026  0.2068 -0.3413
 7644SOL     OW33400   8.995   6.991   1.480  0.4811 -0.5374 -0.6647
 7644SOL    HW133401   9.078   6.983   1.424  1.0941  1.7756 -0.1599
 7644SOL    HW233402   9.021   6.999   1.577 -0.2853  0.5325 -0.5334
 7645SOL     OW33403   2.698   6.078   1.176  0.3179  0.1021  0.0924
 7645SOL    HW133404   2.686   6.000   1.115  0.9406  0.9536 -1.1475
 7645SOL    HW233405   2.645   6.064   1.260 -1.4359 -0.5890 -1.1074
 7646SOL     OW33406   1.298   3.937   0.263 -0.0531  0.1287 -0.1199
 7646SOL    HW133407   1.220   3.952   0.203  1.1358  3.9395 -0.8241
 7646SOL    HW233408   1.278   3.861   0.325 -4.0331  0.5848 -0.7220
 7647SOL     OW33409   9.650   4.867   2.581 -0.1140  0.4095 -0.0675
 7647SOL    HW133410   9.628   4.925   2.659  0.3723  2.0567 -1.1333
 7647SOL    HW233411   9.679   4.924   2.504  0.0900 -1.2324 -1.2309
 7648SOL     OW33412   8.451   2.772   0.634 -0.6046  0.5802 -0.4969
 7648SOL    HW133413   8.367   2.778   0.580 -1.0564 -1.7513 -0.0878
 7648SOL    HW233414   8.460   2.681   0.673  2.2248  0.7212 -0.6741
 7649SOL     OW33415   8.559   4.380   1.616  0.4614  0.2884  0.0294
 7649SOL    HW133416   8.478   4.328   1.645  0.5822  0.4677  0.7057
 7649SOL    HW233417   8.558   4.392   1.517 -2.8159  4.3462  0.4221
 7650SOL     OW33418   9.660   8.015   1.363 -0.4731  0.4748  0.3622
 7650SOL    HW133419   9.699   7.977   1.448 -0.2105 -0.3679 -0.1269
 7650SOL    HW233420   9.727   8.005   1.289 -1.7670 -1.4378 -0.6003
 7651SOL     OW33421   8.793   3.341   1.437 -0.4772 -0.1676 -0.3617
 7651SOL    HW133422   8.804   3.267   1.372  0.5075 -1.0141  0.7447
 7651SOL    HW233423   8.796   3.304   1.530 -0.1840  1.2304  0.1953
 7652SOL     OW33424   9.105   9.365   4.031 -0.4619  0.6036  0.0292
 7652SOL    HW133425   9.158   9.297   3.981  0.5844  0.3630  1.4510
 7652SOL    HW233426   9.017   9.326   4.058  0.8946 -0.8822  2.5161
 7653SOL     OW33427   1.837   0.233   2.185 -0.0777 -0.1955  0.3330
 7653SOL    HW133428   1.751   0.181   2.179 -0.7271  0.8724  0.1835
 7653SOL    HW233429   1.816   0.330   2.195  1.1091  0.2169 -0.9706
 7654SOL     OW33430   4.759   6.936   1.767 -0.2899  0.7843  0.2982
 7654SOL    HW133431   4.681   6.878   1.790  0.3586 -1.4905 -2.9497
 7654SOL    HW233432   4.838   6.908   1.821 -0.8655  0.9678  1.2521
 7655SOL     OW33433   1.983   6.388   2.475  0.1670  0.4010  0.2873
 7655SOL    HW133434   2.071   6.368   2.518  1.6757  0.9557 -2.3899
 7655SOL    HW233435   1.987   6.479   2.432 -1.6155  0.3069 -0.1307
 7656SOL     OW33436   8.615   0.812   2.569 -0.6234 -0.0770 -0.0650
 7656SOL    HW133437   8.541   0.748   2.589 -1.3890  0.5635 -0.7702
 7656SOL    HW233438   8.616   0.831   2.471 -0.2539  0.7944  0.1002
 7657SOL     OW33439   8.882   3.190   2.771 -0.5837 -0.9035 -0.1558
 7657SOL    HW133440   8.811   3.137   2.725 -1.9792 -0.5621  1.5459
 7657SOL    HW233441   8.883   3.283   2.734 -1.6619 -0.6457  0.4508
 7658SOL     OW33442   0.002   9.863   2.977 -0.0065  0.0383 -0.4525
 7658SOL    HW133443   0.016   9.939   3.040  1.1591  0.2396 -0.9281
 7658SOL    HW233444  -0.095   9.843   2.969 -0.1906  0.2825  1.0757
 7659SOL     OW33445   1.722   2.544   1.884 -0.8638  0.1826 -0.2516
 7659SOL    HW133446   1.805   2.551   1.939  0.3818 -2.6694 -1.6525
 7659SOL    HW233447   1.644   2.522   1.943 -0.1252  0.1934  0.7361
 7660SOL     OW33448   8.695   0.647   3.285 -0.4640 -0.0058  0.2175
 7660SOL    HW133449   8.722   0.708   3.360  0.4195 -0.3002  0.1489
 7660SOL    HW233450   8.596   0.647   3.276 -0.4911  1.1455  0.4477
 7661SOL     OW33451   6.889   8.233   2.011  0.5629 -0.5923 -0.5209
 7661SOL    HW133452   6.853   8.153   2.060 -1.8927  0.1704 -0.9972
 7661SOL    HW233453   6.937   8.202   1.929 -1.3920 -1.5774 -1.3438
 7662SOL     OW33454   8.266   6.735   2.643 -0.3480 -0.1219  0.1100
 7662SOL    HW133455   8.188   6.685   2.606 -0.4991 -0.8159  1.3134
 7662SOL    HW233456   8.311   6.678   2.713  0.0927  1.0193  0.7684
 7663SOL     OW33457   1.607   1.455   2.653 -0.3819  0.2704  0.1473
 7663SOL    HW133458   1.649   1.533   2.606  0.4809 -0.7431 -0.8148
 7663SOL    HW233459   1.513   1.477   2.677 -0.1741  1.5749 -0.2006
 7664SOL     OW33460   7.835   3.161   0.482  0.0223  0.3884 -0.2418
 7664SOL    HW133461   7.849   3.255   0.451  1.7041  0.3037  0.1996
 7664SOL    HW233462   7.837   3.158   0.582 -1.2853  0.0580 -0.2117
 7665SOL     OW33463   2.623   7.116   3.952  0.0839 -0.0865  0.0033
 7665SOL    HW133464   2.536   7.083   3.914  0.4301 -0.0240 -0.8419
 7665SOL    HW233465   2.667   7.042   4.003 -0.2712 -0.2387  0.0871
 7666SOL     OW33466   9.298   9.179   0.182  0.3035  0.2910 -0.3613
 7666SOL    HW133467   9.335   9.091   0.209  1.7446  1.0863  0.3105
 7666SOL    HW233468   9.271   9.176   0.086 -0.6002 -1.1755 -0.0649
 7667SOL     OW33469   2.169   7.545   1.797 -0.2786  0.4043 -0.4702
 7667SOL    HW133470   2.207   7.478   1.861  0.2750  0.8499 -0.3270
 7667SOL    HW233471   2.125   7.497   1.720 -0.7327 -0.1282  0.1174
 7668SOL     OW33472   3.292   8.865   0.457 -0.1279 -0.0549  0.4497
 7668SOL    HW133473   3.313   8.920   0.538  1.4134 -0.6887  0.4875
 7668SOL    HW233474   3.330   8.909   0.376 -0.5984 -0.0662  0.2175
 7669SOL     OW33475   9.064   9.697   2.013  0.0151 -0.1965  0.2131
 7669SOL    HW133476   9.084   9.629   2.083  0.0196 -2.8695 -2.3119
 7669SOL    HW233477   9.148   9.744   1.987  0.5065 -1.2042 -0.0324
 7670SOL     OW33478   1.072   7.671   1.195 -0.1999  0.4893 -0.0216
 7670SOL    HW133479   1.118   7.583   1.193 -0.6261  0.2594  0.2733
 7670SOL    HW233480   1.123   7.734   1.255  0.3040  0.5606 -0.5193
 7671SOL     OW33481   4.018   5.055   1.792 -0.8879 -0.5832  0.1084
 7671SOL    HW133482   3.934   5.109   1.782  0.0318  1.0337  0.9418
 7671SOL    HW233483   4.086   5.108   1.843  0.3528 -2.2022  0.1792
 7672SOL     OW33484   0.825   2.760   3.344  0.0720  0.6594 -0.2882
 7672SOL    HW133485   0.843   2.684   3.407 -2.1865  0.2658 -0.0464
 7672SOL    HW233486   0.788   2.837   3.396 -1.2185  0.5566 -1.0255
 7673SOL     OW33487   8.668   0.197   0.432 -0.1961  0.2393  0.1221
 7673SOL    HW133488   8.687   0.217   0.528 -1.2464 -1.8594  0.7958
 7673SOL    HW233489   8.570   0.184   0.420 -0.0218  0.0919 -1.1555
 7674SOL     OW33490   2.520   8.830   2.257 -0.0411 -0.3817  0.2700
 7674SOL    HW133491   2.507   8.823   2.158  0.5430  1.9131  0.0024
 7674SOL    HW233492   2.618   8.829   2.278 -0.1633 -0.8464  0.8132
 7675SOL     OW33493   9.657   1.537   3.741 -0.4111  0.4156  0.6890
 7675SOL    HW133494   9.735   1.474   3.730  0.6324  2.1355 -2.2720
 7675SOL    HW233495   9.584   1.511   3.678  0.0951  2.2428 -0.6812
 7676SOL     OW33496   8.017   5.171   2.121  0.0625 -0.3086 -0.5052
 7676SOL    HW133497   8.031   5.200   2.216  1.8485 -0.2447 -0.7696
 7676SOL    HW233498   7.945   5.102   2.118  0.2944 -0.6382  0.9597
 7677SOL     OW33499   4.239   3.691   1.203 -0.5340  0.2157  0.2881
 7677SOL    HW133500   4.198   3.613   1.251 -0.0202 -0.2966 -0.0932
 7677SOL    HW233501   4.228   3.774   1.258  0.5373 -0.4657  1.5482
 7678SOL     OW33502   1.602   7.333   0.337 -0.0008  0.0671  0.7327
 7678SOL    HW133503   1.694   7.296   0.344 -0.1308  0.0343  2.6518
 7678SOL    HW233504   1.554   7.321   0.424 -1.4875  0.9510  0.0731
 7679SOL     OW33505   0.509   8.280   3.452  0.0433  0.3766 -0.0882
 7679SOL    HW133506   0.550   8.235   3.531 -0.9146  1.2335  0.9199
 7679SOL    HW233507   0.581   8.320   3.394  0.7400 -0.1069  0.4451
 7680SOL     OW33508   4.280   3.760   0.240  0.3686 -0.5517  0.9154
 7680SOL    HW133509   4.232   3.823   0.302  1.3567  0.4283  0.6965
 7680SOL    HW233510   4.232   3.672   0.239 -1.1923  0.2807  1.0040
 7681SOL     OW33511   4.533   2.734   2.827 -0.3512 -0.3567  0.2520
 7681SOL    HW133512   4.596   2.744   2.750  0.2066 -0.4917  0.6856
 7681SOL    HW233513   4.542   2.642   2.865 -0.1086 -0.0570  0.9278
 7682SOL     OW33514   1.531   7.830   2.799  0.4598  0.3127  0.0879
 7682SOL    HW133515   1.594   7.874   2.735  0.6327 -0.5789 -0.3651
 7682SOL    HW233516   1.572   7.829   2.890  0.6789  0.6167 -0.0053
 7683SOL     OW33517   2.279   1.618   3.812 -0.2413  0.5966 -0.0273
 7683SOL    HW133518   2.266   1.519   3.799 -0.4144  0.4747  1.0221
 7683SOL    HW233519   2.231   1.647   3.895  0.0272  1.5158 -0.1931
 7684SOL     OW33520   8.124   3.037   0.831 -0.2486  0.5687  0.2844
 7684SOL    HW133521   8.088   3.013   0.741 -1.3272  1.7767  0.3809
 7684SOL    HW233522   8.222   3.015   0.834  0.4134  2.8361 -2.0896
 7685SOL     OW33523   1.539   4.217   1.390 -0.6112 -0.1919 -0.7408
 7685SOL    HW133524   1.510   4.304   1.430 -1.6784 -1.0703  0.4473
 7685SOL    HW233525   1.623   4.186   1.434 -1.4291 -0.8322  0.4169
 7686SOL     OW33526   2.593   0.454   3.458 -0.1641  0.0061 -0.2389
 7686SOL    HW133527   2.666   0.387   3.443  0.0003 -0.3439  1.9464
 7686SOL    HW233528   2.557   0.444   3.551 -3.1843  0.0257 -1.3580
 7687SOL     OW33529   0.819   9.711   0.759 -0.0542 -0.2685  0.5290
 7687SOL    HW133530   0.861   9.715   0.850 -0.5798 -0.2044  0.7723
 7687SOL    HW233531   0.889   9.694   0.690  0.4141  0.1840  0.8942
 7688SOL     OW33532   1.013   8.825   0.022 -0.2001 -0.3126  0.3398
 7688SOL    HW133533   0.918   8.797   0.006 -0.1854 -0.3921  0.3929
 7688SOL    HW233534   1.045   8.879  -0.056 -0.1445 -0.6609  0.1198
 7689SOL     OW33535   7.998   2.200   3.074 -0.1973  0.1792 -0.7062
 7689SOL    HW133536   7.982   2.139   2.997  0.2380 -0.8288 -0.0045
 7689SOL    HW233537   7.912   2.216   3.124 -0.0942 -0.7644 -0.2255
 7690SOL     OW33538   0.385   6.713   2.432 -0.1321  0.8231 -0.0198
 7690SOL    HW133539   0.439   6.718   2.348 -0.3933 -0.8786 -0.3128
 7690SOL    HW233540   0.418   6.781   2.497 -0.5219  2.7958 -1.8352
 7691SOL     OW33541   8.270   9.581   0.132  0.6519 -0.7898 -0.0373
 7691SOL    HW133542   8.243   9.484   0.125  2.9858 -1.5034  0.4845
 7691SOL    HW233543   8.249   9.614   0.224 -0.5964 -0.6261 -0.3603
 7692SOL     OW33544   8.506   3.251   1.491  0.1086 -0.4826  0.7322
 7692SOL    HW133545   8.527   3.230   1.396 -1.5357 -0.5940  0.3795
 7692SOL    HW233546   8.464   3.341   1.497 -0.5494 -0.8182  1.2515
 7693SOL     OW33547   3.428   0.994   0.949 -0.2818 -0.1266  0.3671
 7693SOL    HW133548   3.514   1.005   0.899  0.3866 -0.1080  1.5083
 7693SOL    HW233549   3.371   0.927   0.902  1.0136 -1.3217  0.4446
 7694SOL     OW33550   5.557   8.484   2.908 -0.0239  0.8071  0.7436
 7694SOL    HW133551   5.509   8.396   2.908  1.2359  0.1065  0.9730
 7694SOL    HW233552   5.651   8.470   2.878  0.2533  2.0466  1.0204
 7695SOL     OW33553   8.473   2.406   3.441  0.3339  0.3708 -0.1211
 7695SOL    HW133554   8.443   2.311   3.430 -0.5983  0.6228  0.2306
 7695SOL    HW233555   8.562   2.407   3.487  1.4017 -0.4215 -2.1258
 7696SOL     OW33556   4.951   8.212   1.318 -0.3577 -0.3751  0.4625
 7696SOL    HW133557   4.957   8.297   1.266 -0.4975 -0.7297 -0.1371
 7696SOL    HW233558   4.861   8.206   1.362  0.4193  0.8177  2.3144
 7697SOL     OW33559   0.070   6.391   0.254 -0.4271  0.1792  0.5887
 7697SOL    HW133560   0.037   6.355   0.167  0.5043  1.2838 -0.2356
 7697SOL    HW233561   0.030   6.338   0.329 -1.2965 -0.7344 -0.4962
 7698SOL     OW33562   3.065   9.334   1.782 -0.1390 -0.1061  0.2204
 7698SOL    HW133563   3.044   9.249   1.733  0.7084 -1.3605  1.9519
 7698SOL    HW233564   3.005   9.407   1.750  0.0816 -1.0056 -2.3101
 7699SOL     OW33565   1.790   1.319   1.568 -0.4939 -0.3524 -0.4518
 7699SOL    HW133566   1.744   1.369   1.642 -0.9145 -1.2358 -0.1026
 7699SOL    HW233567   1.776   1.368   1.482  0.2280  0.8302  0.0786
 7700SOL     OW33568   1.942   5.340   3.955 -0.1958  0.7873 -0.1918
 7700SOL    HW133569   1.975   5.329   4.048 -0.8480 -1.6479 -0.2334
 7700SOL    HW233570   2.018   5.333   3.891 -0.0429  0.4516  0.0299
 7701SOL     OW33571   2.038   5.399   2.657 -0.5736 -0.2726 -0.3223
 7701SOL    HW133572   2.126   5.380   2.701 -0.8839 -0.5169  0.1954
 7701SOL    HW233573   2.054   5.432   2.565  0.0918  0.3768  0.0199
 7702SOL     OW33574   4.680   0.509   1.872  0.3245  0.0741 -1.3673
 7702SOL    HW133575   4.589   0.522   1.909 -0.2213 -2.7141 -1.5900
 7702SOL    HW233576   4.746   0.500   1.947  0.2270  0.8122 -1.1905
 7703SOL     OW33577   3.013   4.189   1.549  0.3915  0.0424  0.4290
 7703SOL    HW133578   3.092   4.249   1.560 -0.4493  1.5617 -1.4390
 7703SOL    HW233579   3.004   4.130   1.629  0.9210  2.8151  2.6368
 7704SOL     OW33580   3.633   4.227   0.782  0.4129 -0.2890  0.0395
 7704SOL    HW133581   3.639   4.322   0.753 -1.7742 -0.4164 -0.9367
 7704SOL    HW233582   3.592   4.172   0.709 -0.0163 -1.6564  1.2754
 7705SOL     OW33583   3.593   7.541   0.396  0.5589  0.1562  0.0130
 7705SOL    HW133584   3.665   7.598   0.436  0.4141  0.2342  0.1654
 7705SOL    HW233585   3.579   7.568   0.301  2.8748 -1.9317 -0.9744
 7706SOL     OW33586   8.752   2.628   0.476 -0.3517 -0.1414  0.1993
 7706SOL    HW133587   8.820   2.683   0.426  0.3993 -0.7456  0.5402
 7706SOL    HW233588   8.719   2.554   0.417  0.7723 -1.0483  0.6865
 7707SOL     OW33589   3.245   7.338   1.779 -0.3920  0.2897  0.0623
 7707SOL    HW133590   3.286   7.289   1.702 -1.8120  1.6869 -1.6569
 7707SOL    HW233591   3.161   7.293   1.806  1.1369 -1.3605  2.1785
 7708SOL     OW33592   2.303   1.409   0.561  0.3920  0.4971 -0.4381
 7708SOL    HW133593   2.303   1.481   0.492  0.2956  0.9867  0.0731
 7708SOL    HW233594   2.267   1.445   0.647  0.2615 -0.1822 -0.2063
 7709SOL     OW33595   0.326   1.303   1.913  0.1853  0.4906 -0.0137
 7709SOL    HW133596   0.311   1.205   1.901  0.8421  0.5153 -1.1824
 7709SOL    HW233597   0.343   1.345   1.823 -1.4492  1.9044  0.3155
 7710SOL     OW33598   0.104   2.953   0.336 -0.3349  0.1415  0.0572
 7710SOL    HW133599   0.017   2.943   0.287  0.0495 -0.4838 -0.5163
 7710SOL    HW233600   0.179   2.962   0.270 -0.0708  1.6528  0.5603
 7711SOL     OW33601   3.999   9.575   1.288  0.0749 -0.0964 -0.0056
 7711SOL    HW133602   4.049   9.569   1.201  0.2002  0.4045  0.0260
 7711SOL    HW233603   4.018   9.664   1.330 -0.9380  0.1433 -0.0431
 7712SOL     OW33604   3.998   7.363   2.174 -0.3161 -0.1482 -0.0496
 7712SOL    HW133605   3.978   7.266   2.166 -1.8545  0.0731  1.0072
 7712SOL    HW233606   4.095   7.375   2.197  0.3346 -1.3386 -2.0896
 7713SOL     OW33607   8.556   9.857   2.230  0.0018  0.2046  0.4296
 7713SOL    HW133608   8.599   9.947   2.235 -0.0319  0.2136  0.5421
 7713SOL    HW233609   8.582   9.803   2.310 -0.7621  0.4580  0.8507
 7714SOL     OW33610   2.959   7.138   2.499  0.1148  0.5782 -0.2080
 7714SOL    HW133611   3.034   7.180   2.551 -0.7863  2.9987 -0.8004
 7714SOL    HW233612   2.893   7.098   2.562  0.4142  1.0598  0.4167
 7715SOL     OW33613   1.469   0.619   2.763  0.1395  0.1775 -0.3140
 7715SOL    HW133614   1.393   0.566   2.726  2.0982 -2.8115 -0.2750
 7715SOL    HW233615   1.467   0.616   2.863  1.4246 -1.7223 -0.3042
 7716SOL     OW33616   8.043   0.889   2.996  0.3887  0.3788 -0.3632
 7716SOL    HW133617   7.994   0.976   2.987  0.3510  0.3895 -0.0446
 7716SOL    HW233618   8.074   0.877   3.090 -0.3393 -0.3395 -0.2063
 7717SOL     OW33619   4.718   3.689   0.858 -0.4979 -0.0775  0.1271
 7717SOL    HW133620   4.776   3.734   0.926  0.2744 -0.5917 -0.1836
 7717SOL    HW233621   4.629   3.734   0.855 -0.1724  0.6156  0.7309
 7718SOL     OW33622   1.335   3.787   1.919  0.0861 -0.2636 -0.5728
 7718SOL    HW133623   1.235   3.779   1.926  0.0298  1.5240  1.2010
 7718SOL    HW233624   1.377   3.700   1.943 -0.9861 -0.3446  1.1074
 7719SOL     OW33625   0.262   6.822   2.008 -0.1925  0.1643  0.3624
 7719SOL    HW133626   0.267   6.724   1.989 -1.1636  0.1303  0.2961
 7719SOL    HW233627   0.348   6.851   2.050  0.8439 -0.3288 -1.3680
 7720SOL     OW33628   7.891   2.467   0.303 -0.0339  0.0743 -0.2832
 7720SOL    HW133629   7.960   2.507   0.363 -0.6110 -2.1201  1.9055
 7720SOL    HW233630   7.936   2.421   0.226  0.7558  1.7850 -0.8688
 7721SOL     OW33631   1.890   8.771   0.699  0.0300  0.1510  0.0688
 7721SOL    HW133632   1.828   8.807   0.629  1.3191  2.1240 -0.1023
 7721SOL    HW233633   1.984   8.794   0.676  0.6400 -0.7961  1.5087
 7722SOL     OW33634   0.268   4.909   3.053 -0.3171 -0.4288 -0.0430
 7722SOL    HW133635   0.211   4.910   3.135 -0.5261  0.6344 -0.1883
 7722SOL    HW233636   0.211   4.926   2.973  0.3016  1.3837 -0.1118
 7723SOL     OW33637   1.484   4.704   0.523 -0.2132  0.2309  0.2481
 7723SOL    HW133638   1.384   4.706   0.524 -0.2516 -1.2939  0.6886
 7723SOL    HW233639   1.518   4.714   0.616 -0.0613 -2.3571  0.5145
 7724SOL     OW33640   0.515   5.045   0.003 -0.1713  0.0769  0.2634
 7724SOL    HW133641   0.516   5.020   0.100  1.0949 -2.0566 -0.2645
 7724SOL    HW233642   0.606   5.075  -0.025 -0.7353  1.5383 -0.0879
 7725SOL     OW33643   0.923   1.079   3.765  0.1952 -0.4970 -0.5492
 7725SOL    HW133644   0.960   1.095   3.673 -2.3824 -0.4996 -1.6302
 7725SOL    HW233645   0.855   1.005   3.761  0.0950 -0.5272  1.3741
 7726SOL     OW33646   1.412   4.431   2.576 -0.6847 -0.1582 -0.3048
 7726SOL    HW133647   1.506   4.399   2.562 -1.5835 -2.2666 -1.8355
 7726SOL    HW233648   1.410   4.499   2.650  1.9372 -0.5244  0.1456
 7727SOL     OW33649   1.109   2.565   3.941 -0.0427  0.0925 -0.3360
 7727SOL    HW133650   1.125   2.661   3.922 -0.0504 -0.1346 -1.4941
 7727SOL    HW233651   1.195   2.515   3.934  0.2299  0.2384  1.6773
 7728SOL     OW33652   7.966   9.548   2.964 -0.4766 -0.6864 -0.0071
 7728SOL    HW133653   7.871   9.524   2.944 -0.9671  1.6181 -0.6980
 7728SOL    HW233654   7.969   9.606   3.046  0.1870  0.1909 -0.6348
 7729SOL     OW33655   1.909   7.479   0.666  0.1683 -0.2424 -0.8449
 7729SOL    HW133656   2.005   7.500   0.687 -0.6534  1.9858  0.9062
 7729SOL    HW233657   1.850   7.524   0.733 -2.1385 -1.3638 -2.0705
 7730SOL     OW33658   9.186   2.236   2.171  0.0458  0.1061 -0.5834
 7730SOL    HW133659   9.226   2.160   2.120  0.8580  0.3690 -0.3485
 7730SOL    HW233660   9.153   2.305   2.106  0.8681  0.3357 -0.7622
 7731SOL     OW33661   3.290   2.101   2.315 -0.0131  0.0553  0.2930
 7731SOL    HW133662   3.372   2.065   2.360 -0.8218 -2.2324  0.0265
 7731SOL    HW233663   3.214   2.101   2.381 -0.3346  0.0586 -0.0773
 7732SOL     OW33664   8.660   4.478   3.518  0.2909 -0.0141  0.1428
 7732SOL    HW133665   8.584   4.419   3.544  0.4202 -0.3390 -0.2184
 7732SOL    HW233666   8.743   4.423   3.507  0.7271  0.4231  1.1660
 7733SOL     OW33667   3.046   9.099   2.656 -1.0660  0.0608 -0.2365
 7733SOL    HW133668   3.057   9.019   2.598 -2.9212 -1.3333  1.2598
 7733SOL    HW233669   3.088   9.178   2.612  2.0192 -1.9626 -1.1596
 7734SOL     OW33670   2.160   9.721   1.113  0.4486  0.1620 -0.0805
 7734SOL    HW133671   2.146   9.695   1.209 -0.5574 -0.7053 -0.4452
 7734SOL    HW233672   2.167   9.639   1.057  1.4556  0.6665 -0.6985
 7735SOL     OW33673   8.709   4.361   1.845  0.2555 -0.2267 -0.1621
 7735SOL    HW133674   8.632   4.355   1.908  1.0375 -1.2590  0.7296
 7735SOL    HW233675   8.676   4.358   1.751 -0.9322  1.4775  0.1886
 7736SOL     OW33676   1.341   2.186   0.009 -0.2747 -0.0194  0.0865
 7736SOL    HW133677   1.249   2.154   0.030 -0.4381  0.3372 -0.0783
 7736SOL    HW233678   1.397   2.182   0.091 -0.9184  1.4024  0.5997
 7737SOL     OW33679   8.327   6.053   2.199 -0.8317  0.9114  0.3339
 7737SOL    HW133680   8.391   5.991   2.245 -0.3924  1.9849  1.1704
 7737SOL    HW233681   8.234   6.017   2.209 -0.6868  0.8818  1.6392
 7738SOL     OW33682   8.123   5.822   2.915 -0.0252 -0.6531 -0.6197
 7738SOL    HW133683   8.069   5.816   2.831  0.5337 -0.6793 -0.9867
 7738SOL    HW233684   8.101   5.745   2.975  0.3084 -1.1988 -1.1915
 7739SOL     OW33685   9.837   8.119   2.602  0.1764 -0.3430  0.2671
 7739SOL    HW133686   9.752   8.075   2.629 -0.5413  0.3971 -0.7319
 7739SOL    HW233687   9.854   8.101   2.505  1.2417 -0.6186  0.5004
 7740SOL     OW33688   2.581   6.697   0.074  0.5364 -0.0567  0.3648
 7740SOL    HW133689   2.615   6.610   0.039  0.7748  0.4951 -0.7858
 7740SOL    HW233690   2.537   6.682   0.163  0.3363 -1.3911  0.0507
 7741SOL     OW33691   4.245   1.387   0.588 -0.3112  0.1477  0.2434
 7741SOL    HW133692   4.241   1.321   0.663 -1.3087 -0.1727 -0.0789
 7741SOL    HW233693   4.155   1.393   0.545  0.2730  0.2908 -0.9658
 7742SOL     OW33694   0.872   3.050   0.804  0.2657  0.3381 -0.1508
 7742SOL    HW133695   0.962   3.091   0.817  0.2866 -0.3960  2.4574
 7742SOL    HW233696   0.866   2.966   0.859 -1.4132 -0.5697 -1.6669
 7743SOL     OW33697   9.798   9.689   1.410 -0.8924 -0.7447  0.0778
 7743SOL    HW133698   9.779   9.787   1.405 -2.0951 -0.8433  2.0360
 7743SOL    HW233699   9.896   9.674   1.407 -0.6894  0.5342 -0.0784
 7744SOL     OW33700   9.120   2.863   1.744  0.2356  0.1014  0.5448
 7744SOL    HW133701   9.064   2.782   1.764 -1.0149  0.4415 -1.3670
 7744SOL    HW233702   9.193   2.871   1.811 -0.3478 -1.9456  1.4618
 7745SOL     OW33703   9.105   9.026   2.812  0.1448 -0.0463  0.2355
 7745SOL    HW133704   9.074   9.080   2.734 -0.7664  1.4438  1.6004
 7745SOL    HW233705   9.200   9.048   2.832  1.0866 -2.0558 -1.7836
 7746SOL     OW33706   3.237   3.539   2.438  0.1752 -0.5401 -0.0249
 7746SOL    HW133707   3.173   3.583   2.374  1.0802  0.0328 -0.5546
 7746SOL    HW233708   3.220   3.574   2.530  1.6134  1.7948 -0.6138
 7747SOL     OW33709   0.474   3.862   0.049 -0.1947  0.3031  0.1654
 7747SOL    HW133710   0.537   3.865   0.127  0.5319 -0.2664 -0.3958
 7747SOL    HW233711   0.381   3.846   0.082  0.0618  0.3828  0.9428
 7748SOL     OW33712   9.119   0.204   1.181  0.6072  0.1860  0.1811
 7748SOL    HW133713   9.169   0.280   1.222 -1.6318  1.4322  0.7254
 7748SOL    HW233714   9.027   0.200   1.222 -1.0019  0.2055 -3.2869
 7749SOL     OW33715   8.978   7.480   1.515 -0.0863  0.2071  0.2190
 7749SOL    HW133716   9.075   7.454   1.507 -0.3740 -0.3709 -1.7115
 7749SOL    HW233717   8.926   7.403   1.549  0.2284  0.7787  2.0796
 7750SOL     OW33718   9.045   8.721   1.467 -0.1818  0.0743 -0.1654
 7750SOL    HW133719   9.095   8.807   1.471 -0.3306  0.1491  0.1289
 7750SOL    HW233720   8.947   8.739   1.472 -0.1704 -0.1886  1.0483
 7751SOL     OW33721   2.733   8.163   3.703 -0.0331  0.4764 -0.0229
 7751SOL    HW133722   2.680   8.088   3.662 -0.4063 -0.1757  1.6111
 7751SOL    HW233723   2.820   8.127   3.737 -0.3725  0.7040  1.0974
 7752SOL     OW33724   0.715   4.794   0.454  0.1210  0.1252  0.5849
 7752SOL    HW133725   0.701   4.695   0.457  1.7310 -0.1099  0.8036
 7752SOL    HW233726   0.759   4.818   0.368 -0.2778  0.6614  0.5316
 7753SOL     OW33727   8.501   5.813   0.883 -0.2531 -0.2555 -0.7523
 7753SOL    HW133728   8.456   5.755   0.951 -1.3044 -0.4816 -1.6178
 7753SOL    HW233729   8.433   5.848   0.818  0.6191  0.5533 -1.2580
 7754SOL     OW33730   2.146   4.449   0.549  0.0002 -0.7260 -0.3593
 7754SOL    HW133731   2.084   4.395   0.493  0.4833  0.4967 -2.1035
 7754SOL    HW233732   2.139   4.545   0.524  1.9593 -0.4578  0.0302
 7755SOL     OW33733   1.322   1.998   3.852  0.3799  0.2897 -0.3171
 7755SOL    HW133734   1.359   2.047   3.931  0.2502  1.1365 -0.7773
 7755SOL    HW233735   1.225   2.017   3.844  0.3379 -0.0156 -0.5271
 7756SOL     OW33736   1.674   9.319   2.937 -0.5935  0.2316  0.4079
 7756SOL    HW133737   1.578   9.332   2.964 -0.7461  2.0398 -0.8925
 7756SOL    HW233738   1.690   9.365   2.849  1.1710 -1.1064  0.0090
 7757SOL     OW33739   8.509   3.287   2.375  0.0015  0.0965 -0.3089
 7757SOL    HW133740   8.443   3.284   2.301 -0.0210 -2.1075 -0.2450
 7757SOL    HW233741   8.462   3.274   2.463  0.2246  1.0521 -0.0417
 7758SOL     OW33742   9.886   5.378   3.875 -0.1876 -0.0995 -0.0717
 7758SOL    HW133743   9.803   5.412   3.832 -0.4804 -0.0933  0.4868
 7758SOL    HW233744   9.866   5.354   3.971  0.7959  1.3182  0.5060
 7759SOL     OW33745   7.614   2.396   4.027 -0.0497  0.0710  0.2285
 7759SOL    HW133746   7.567   2.373   4.112 -0.1934  2.1381  0.7422
 7759SOL    HW233747   7.551   2.445   3.967  0.4514 -0.1864 -0.5114
 7760SOL     OW33748   1.491   5.404   3.860 -0.1950  0.1145 -0.3229
 7760SOL    HW133749   1.476   5.338   3.786  0.9610  0.7357 -1.1295
 7760SOL    HW233750   1.564   5.370   3.919 -2.3898 -1.3020  1.6654
 7761SOL     OW33751   8.628   2.182   2.415  0.1319 -0.1435 -0.0043
 7761SOL    HW133752   8.543   2.149   2.375  0.0592 -0.1882  0.1927
 7761SOL    HW233753   8.609   2.230   2.500  0.2844  0.0120 -0.0577
 7762SOL     OW33754   9.874   4.728   0.060  0.3743 -0.3531 -0.0792
 7762SOL    HW133755   9.947   4.666   0.030 -0.7547 -0.8924 -1.7436
 7762SOL    HW233756   9.806   4.737  -0.013 -1.9105 -0.8837  1.9429
 7763SOL     OW33757   8.062   4.211   3.694  0.3100  0.3545 -0.1812
 7763SOL    HW133758   8.121   4.134   3.669 -0.2939  0.1890 -1.1051
 7763SOL    HW233759   8.059   4.276   3.618  0.1779  0.8991  0.2945
 7764SOL     OW33760   1.828   9.313   2.638 -0.1111  0.4551  0.2688
 7764SOL    HW133761   1.924   9.339   2.642  0.0118 -0.0918  0.8773
 7764SOL    HW233762   1.777   9.382   2.587  0.8948 -0.0900 -1.5114
 7765SOL     OW33763   8.396   1.599   2.207  0.5446  0.3145  0.8739
 7765SOL    HW133764   8.325   1.654   2.251  0.7888  0.7591  0.7116
 7765SOL    HW233765   8.355   1.543   2.135  0.8471  3.0406 -1.5056
 7766SOL     OW33766   0.203   7.036   0.957 -0.3755  0.0600  0.4219
 7766SOL    HW133767   0.177   6.939   0.956 -0.6873  0.1391  0.4661
 7766SOL    HW233768   0.258   7.057   0.877  0.8016 -0.4507  1.0832
 7767SOL     OW33769   0.216   6.779   1.168 -0.6931 -0.5491  0.2447
 7767SOL    HW133770   0.142   6.784   1.235 -0.5273 -1.2295  0.4845
 7767SOL    HW233771   0.282   6.852   1.186 -0.7033 -0.6630  0.7569
 7768SOL     OW33772   0.342   9.328   1.537  0.4104 -0.3183 -0.3670
 7768SOL    HW133773   0.370   9.295   1.447  0.0735  0.4396 -0.7521
 7768SOL    HW233774   0.350   9.428   1.540 -0.7856 -0.2257  0.0330
 7769SOL     OW33775   4.734   0.296   1.678  0.2247  0.5174 -0.3106
 7769SOL    HW133776   4.756   0.314   1.582  0.9347 -0.3520 -0.3236
 7769SOL    HW233777   4.698   0.379   1.720 -0.6268  0.7558 -1.4743
 7770SOL     OW33778   3.177   8.339   3.429  0.1648  0.1458  0.6618
 7770SOL    HW133779   3.238   8.324   3.506  1.8246  1.1231 -0.4353
 7770SOL    HW233780   3.198   8.274   3.356 -2.2534 -1.6332  1.4830
 7771SOL     OW33781   0.293   6.573   3.207 -0.7405  0.0988  0.0138
 7771SOL    HW133782   0.271   6.596   3.112 -3.3191  0.0713  0.5807
 7771SOL    HW233783   0.278   6.652   3.265  0.4677  0.0004  0.4742
 7772SOL     OW33784   9.576   9.104   2.141 -0.1246  0.3356  0.0566
 7772SOL    HW133785   9.652   9.143   2.193  0.1941 -0.8559  0.4888
 7772SOL    HW233786   9.580   9.137   2.047  2.2300 -1.4351 -0.4971
 7773SOL     OW33787   3.263   8.212   1.470 -0.4546  0.1895 -0.5143
 7773SOL    HW133788   3.215   8.124   1.465  0.1224 -0.2402  1.0341
 7773SOL    HW233789   3.199   8.284   1.493 -0.4835 -0.2707  0.8721
 7774SOL     OW33790   0.066   0.445   2.725  0.7451 -0.4813  0.3031
 7774SOL    HW133791   0.040   0.539   2.748  0.4898 -0.2681 -0.8453
 7774SOL    HW233792   0.150   0.421   2.775  2.0025  1.0870 -0.9925
 7775SOL     OW33793   8.283   9.050   2.312  0.1934 -0.2896  0.2710
 7775SOL    HW133794   8.375   9.052   2.273 -0.1332 -0.9257 -0.5373
 7775SOL    HW233795   8.247   8.957   2.308 -0.9434  0.1780 -0.4775
 7776SOL     OW33796   3.583   3.799   2.271 -0.1234  0.2140 -0.0478
 7776SOL    HW133797   3.519   3.827   2.200  0.3407  1.2302 -0.0806
 7776SOL    HW233798   3.534   3.757   2.347 -0.8225  0.9859 -0.0724
 7777SOL     OW33799   3.718   1.271   0.246 -0.2074  0.0499 -0.2780
 7777SOL    HW133800   3.804   1.296   0.291 -0.4324  0.1622  0.0978
 7777SOL    HW233801   3.715   1.172   0.233 -0.4590 -0.0673  0.6313
 7778SOL     OW33802   8.866   5.103   1.372  0.4963  0.3070  0.4204
 7778SOL    HW133803   8.932   5.173   1.398 -1.0217  1.2421  1.8597
 7778SOL    HW233804   8.808   5.081   1.451  0.9124 -2.5518 -0.0080
 7779SOL     OW33805   8.900   5.908   2.130  0.4375  0.2559 -0.1612
 7779SOL    HW133806   8.894   5.842   2.056  1.2147  0.5198 -0.4541
 7779SOL    HW233807   8.898   5.860   2.218 -0.2102 -0.0696 -0.3474
 7780SOL     OW33808   0.086   7.904   1.364 -0.0054  0.5402 -0.1161
 7780SOL    HW133809   0.085   7.805   1.353  1.2734  0.4831  0.2071
 7780SOL    HW233810   0.096   7.927   1.461  3.7095  0.9216 -0.4954
 7781SOL     OW33811   1.622   8.962   3.691  0.3641 -0.5772  0.0227
 7781SOL    HW133812   1.530   8.974   3.731 -1.6036  0.2154 -4.5125
 7781SOL    HW233813   1.629   8.870   3.654  0.9304 -0.1787 -0.8497
 7782SOL     OW33814   8.240   9.630   3.159 -0.2149  0.3142  0.1462
 7782SOL    HW133815   8.283   9.556   3.107  0.1084  1.2500 -0.9369
 7782SOL    HW233816   8.224   9.708   3.098 -0.6608  1.0871  1.2520
 7783SOL     OW33817   0.984   1.300   1.293 -0.2224  0.2623 -0.6362
 7783SOL    HW133818   0.948   1.392   1.304  0.6804  0.6397 -0.8301
 7783SOL    HW233819   0.908   1.236   1.285 -0.8597  0.8548  0.5049
 7784SOL     OW33820   4.358   9.400   0.167  0.5948  0.0279  0.6851
 7784SOL    HW133821   4.332   9.370   0.258  2.9457  2.6194  2.2808
 7784SOL    HW233822   4.278   9.436   0.119 -0.2744  0.4773  2.4525
 7785SOL     OW33823   0.632   0.538   3.887  0.5545 -0.3781 -0.2505
 7785SOL    HW133824   0.569   0.510   3.960 -3.0417 -0.5956 -3.3215
 7785SOL    HW233825   0.657   0.634   3.899 -3.6671  0.9071 -1.2190
 7786SOL     OW33826   3.788   7.225   0.069 -0.3168 -0.4052 -0.2456
 7786SOL    HW133827   3.749   7.290   0.004  3.1039  1.8167 -0.2343
 7786SOL    HW233828   3.750   7.241   0.160 -3.1076 -1.7304 -1.1157
 7787SOL     OW33829   3.267   5.501   2.245  0.2148  0.6483 -0.4571
 7787SOL    HW133830   3.235   5.592   2.271 -2.4504  0.3502 -2.4808
 7787SOL    HW233831   3.304   5.454   2.325 -1.4817  2.2591  1.2959
 7788SOL     OW33832   0.249   3.796   1.359 -0.2574  0.2722 -0.1611
 7788SOL    HW133833   0.279   3.855   1.434  0.0673 -1.6968  1.2915
 7788SOL    HW233834   0.152   3.810   1.342 -0.0447  1.6807 -0.2666
 7789SOL     OW33835   0.410   8.666   3.016  0.4299  0.5901 -0.1985
 7789SOL    HW133836   0.356   8.714   3.085  0.9433  2.4909 -1.0683
 7789SOL    HW233837   0.507   8.679   3.036  0.5837 -1.1967  0.2750
 7790SOL     OW33838   7.911   7.279   2.499 -0.7340 -0.3907 -0.1020
 7790SOL    HW133839   7.847   7.203   2.494  0.5090 -1.3886 -1.1421
 7790SOL    HW233840   7.874   7.356   2.446 -1.9467 -0.2881  0.8742
 7791SOL     OW33841   9.808   9.980   2.523  0.5883  0.1278  0.1443
 7791SOL    HW133842   9.740   9.921   2.482  1.6067 -0.6211 -0.4953
 7791SOL    HW233843   9.811  10.068   2.474  1.0911 -0.3850 -0.7624
 7792SOL     OW33844   9.426   6.661   1.265 -0.0658 -0.1860 -0.0253
 7792SOL    HW133845   9.435   6.581   1.325 -1.0219 -0.7911 -0.6688
 7792SOL    HW233846   9.512   6.677   1.217 -0.5210 -2.1837 -1.5541
 7793SOL     OW33847   1.123   6.299   2.650  0.2610  0.7742  0.3435
 7793SOL    HW133848   1.205   6.348   2.679  0.9473  0.1742 -0.5562
 7793SOL    HW233849   1.071   6.271   2.730  0.6896  1.5777  0.9071
 7794SOL     OW33850   2.777   9.268   1.143 -0.9086  0.4221  0.6342
 7794SOL    HW133851   2.799   9.224   1.056 -1.1107 -0.2396  0.9119
 7794SOL    HW233852   2.767   9.367   1.129  0.6839  0.5340  0.2158
 7795SOL     OW33853   4.044   6.846   2.588  0.5062  0.7110 -0.5146
 7795SOL    HW133854   4.062   6.862   2.685  0.8432  0.9967 -0.6194
 7795SOL    HW233855   4.021   6.933   2.544  2.2050  0.9066 -1.0625
 7796SOL     OW33856   3.748   9.580   0.803  0.0085 -0.2461 -0.1726
 7796SOL    HW133857   3.768   9.486   0.830  1.1374 -0.1797 -0.7280
 7796SOL    HW233858   3.696   9.580   0.717 -0.4309 -0.3755  0.0946
 7797SOL     OW33859   9.718   9.832   1.941 -0.2922 -0.0256  0.4311
 7797SOL    HW133860   9.715   9.826   2.041 -1.2332 -1.3096  0.3358
 7797SOL    HW233861   9.810   9.808   1.910 -0.8568 -2.9219  0.8191
 7798SOL     OW33862   8.501   3.578   3.971  0.4916 -0.3060 -0.0344
 7798SOL    HW133863   8.468   3.661   4.015 -0.3558 -1.9515  2.5026
 7798SOL    HW233864   8.426   3.513   3.962  1.5458 -1.5002 -0.3422
 7799SOL     OW33865   3.498   9.336   3.564 -0.1824  0.6452  0.0839
 7799SOL    HW133866   3.412   9.380   3.537 -1.2677 -1.0536  0.7321
 7799SOL    HW233867   3.543   9.299   3.483 -0.4949  0.7810 -0.1534
 7800SOL     OW33868   4.663   0.856   3.755  0.0528 -0.4799 -0.5691
 7800SOL    HW133869   4.604   0.919   3.805  0.1527 -0.0817 -0.9447
 7800SOL    HW233870   4.737   0.824   3.814 -0.8987 -1.4712  0.0926
 7801SOL     OW33871   2.215   1.099   3.359  0.0243 -0.6586 -0.2289
 7801SOL    HW133872   2.128   1.066   3.322 -0.8948  0.7652  0.5847
 7801SOL    HW233873   2.266   1.023   3.398 -2.8731 -0.9532  3.2939
 7802SOL     OW33874   9.806   0.086   3.286 -0.1309 -0.7234  0.6917
 7802SOL    HW133875   9.744   0.106   3.210  1.8931  0.9268 -0.5942
 7802SOL    HW233876   9.768   0.122   3.371 -0.8203  0.5148 -0.1318
 7803SOL     OW33877   7.952   3.851   2.670  0.0834 -0.3124 -0.2564
 7803SOL    HW133878   7.875   3.787   2.668 -0.1988  0.0116  0.0917
 7803SOL    HW233879   7.917   3.945   2.677  0.4373  0.0102 -2.4593
 7804SOL     OW33880   1.809   4.505   3.042 -0.5997  0.5872 -0.0586
 7804SOL    HW133881   1.900   4.541   3.022  0.6211 -0.7142  2.8501
 7804SOL    HW233882   1.761   4.570   3.101 -0.3196 -0.1914  1.0373
 7805SOL     OW33883   4.223   7.589   3.333 -0.2205 -0.1187  0.1314
 7805SOL    HW133884   4.302   7.528   3.325 -0.1730 -0.1246  0.6372
 7805SOL    HW233885   4.253   7.680   3.360 -0.2411  0.2674 -1.1241
 7806SOL     OW33886   1.202   5.459   2.763  0.3300  0.0910 -0.0112
 7806SOL    HW133887   1.115   5.495   2.730  1.0283  0.1849 -1.8211
 7806SOL    HW233888   1.227   5.503   2.849 -1.4004  0.0690  0.5131
 7807SOL     OW33889   2.724   5.882   3.847 -0.4223  0.1203  0.2102
 7807SOL    HW133890   2.805   5.842   3.890  0.0052  0.2344 -0.4841
 7807SOL    HW233891   2.642   5.843   3.889 -0.0229 -1.8010 -0.7412
 7808SOL     OW33892   4.302   2.968   1.437 -0.1805 -0.3683 -0.1147
 7808SOL    HW133893   4.345   2.985   1.526 -1.8127  1.1784  0.4107
 7808SOL    HW233894   4.287   2.870   1.426  1.3058 -0.6983  0.7170
 7809SOL     OW33895   6.190   6.974   2.396 -0.4437 -0.1999 -0.2948
 7809SOL    HW133896   6.284   6.963   2.428 -0.3520  0.4941 -0.3130
 7809SOL    HW233897   6.173   7.070   2.375 -1.6842 -0.0230  1.3992
 7810SOL     OW33898   1.670   6.709   1.415 -0.3211 -0.0767  0.7237
 7810SOL    HW133899   1.663   6.788   1.354 -1.7412 -0.8244 -0.1122
 7810SOL    HW233900   1.579   6.685   1.449  0.0913 -1.3484  0.9526
 7811SOL     OW33901   1.492   3.901   3.267 -0.3690  0.7387  0.2607
 7811SOL    HW133902   1.394   3.911   3.285 -0.2666  0.0245  1.2832
 7811SOL    HW233903   1.519   3.806   3.280  0.3194  0.7964 -0.7467
 7812SOL     OW33904   1.720   3.189   1.577 -0.4682 -0.7432 -0.0179
 7812SOL    HW133905   1.744   3.107   1.525 -0.3954 -0.2819 -0.7208
 7812SOL    HW233906   1.798   3.251   1.580 -0.6538 -0.5155  0.1546
 7813SOL     OW33907   4.205   2.409   0.905  0.2026 -0.1344 -0.3110
 7813SOL    HW133908   4.290   2.357   0.907  0.3396  0.1276  1.2487
 7813SOL    HW233909   4.222   2.503   0.935 -0.6101 -0.0726 -0.0129
 7814SOL     OW33910   2.154   8.786   1.218 -0.0943  0.1180  0.0623
 7814SOL    HW133911   2.123   8.719   1.285 -0.1860  1.0231  0.9165
 7814SOL    HW233912   2.254   8.788   1.218 -0.0139 -1.5963 -1.5262
 7815SOL     OW33913   3.218   2.512   2.494 -0.4307  0.2182  0.5527
 7815SOL    HW133914   3.316   2.495   2.501 -0.4422  0.4075  1.2420
 7815SOL    HW233915   3.171   2.428   2.465  0.0184  0.3391 -0.5143
 7816SOL     OW33916   1.222   1.829   1.161  0.3971  0.8935 -0.0239
 7816SOL    HW133917   1.211   1.738   1.123  1.4826  0.0969  1.5325
 7816SOL    HW233918   1.298   1.875   1.116  0.4215  0.7043 -0.1773
 7817SOL     OW33919   4.282   0.216   2.004  0.2176 -0.3009 -0.0847
 7817SOL    HW133920   4.323   0.248   2.089 -0.5474  0.1363  0.1255
 7817SOL    HW233921   4.205   0.156   2.024 -1.0995  1.2544 -0.4502
 7818SOL     OW33922   3.715   1.405   3.594 -0.2627 -0.0287 -0.9234
 7818SOL    HW133923   3.762   1.320   3.569 -0.5722 -1.1061  1.9615
 7818SOL    HW233924   3.618   1.387   3.609 -0.3580  0.8491 -0.4137
 7819SOL     OW33925   0.588   9.597   0.814  0.1041  0.2627  0.1156
 7819SOL    HW133926   0.671   9.646   0.784 -1.2508  2.5177 -0.1018
 7819SOL    HW233927   0.560   9.533   0.743  1.9279 -0.8643  0.3961
 7820SOL     OW33928   8.628   9.576   2.976 -0.0132  0.0195 -0.5524
 7820SOL    HW133929   8.619   9.675   2.967  0.2574 -0.0632 -1.8229
 7820SOL    HW233930   8.709   9.555   3.032 -1.8765  0.5517  2.4711
 7821SOL     OW33931   9.481   7.567   3.422 -0.1123 -0.2728  0.2944
 7821SOL    HW133932   9.487   7.619   3.507 -3.0269  1.9126 -0.7505
 7821SOL    HW233933   9.429   7.619   3.355 -0.4498 -3.2627 -1.8605
 7822SOL     OW33934   7.030   3.403   0.251  0.2618 -0.2216  0.2342
 7822SOL    HW133935   7.001   3.315   0.288 -0.7200 -0.2580 -0.6095
 7822SOL    HW233936   7.126   3.420   0.275  0.2295 -1.1668  1.0397
 7823SOL     OW33937   8.988   1.958   1.365  0.1546 -0.2396  0.1204
 7823SOL    HW133938   8.975   2.020   1.288  3.0711 -0.7875 -0.8923
 7823SOL    HW233939   9.071   1.983   1.415  0.3410 -2.1645  0.8399
 7824SOL     OW33940   8.727   6.470   1.965  0.0932 -0.3493 -0.1396
 7824SOL    HW133941   8.681   6.558   1.949  2.2844  0.7016 -0.8591
 7824SOL    HW233942   8.659   6.400   1.986 -1.5648  2.1898  3.6338
 7825SOL     OW33943   3.068   8.424   2.203  0.0949 -0.8127  0.0179
 7825SOL    HW133944   3.132   8.500   2.199 -1.0370  0.2404  1.4657
 7825SOL    HW233945   2.979   8.453   2.167 -0.5450 -1.2083  1.2317
 7826SOL     OW33946   7.590   8.620   1.024  0.1801 -0.4185 -0.7063
 7826SOL    HW133947   7.497   8.596   1.055 -0.2696 -0.1525 -1.8268
 7826SOL    HW233948   7.643   8.537   1.010 -0.1403 -0.6033 -0.8289
 7827SOL     OW33949   2.240   6.167   2.225 -0.0057  0.1453  0.1740
 7827SOL    HW133950   2.251   6.257   2.183 -1.7034 -0.5725 -1.9443
 7827SOL    HW233951   2.320   6.111   2.204  0.8892  1.0281  1.1854
 7828SOL     OW33952   9.772   7.710   3.238  0.3538 -0.6940  0.1385
 7828SOL    HW133953   9.750   7.771   3.314  0.5785 -0.1608 -0.2236
 7828SOL    HW233954   9.741   7.618   3.259  0.5439 -0.5758  0.9419
 7829SOL     OW33955   8.539   2.770   1.029 -0.1595 -0.0211 -0.5709
 7829SOL    HW133956   8.596   2.826   0.969  0.6598 -0.6527 -0.3964
 7829SOL    HW233957   8.518   2.683   0.984  1.5131 -1.0333  0.5078
 7830SOL     OW33958   4.835   7.587   1.430 -0.7953 -0.2104  0.5332
 7830SOL    HW133959   4.784   7.663   1.392 -0.4031 -0.1485  0.1272
 7830SOL    HW233960   4.780   7.503   1.424  0.3918 -0.8405 -2.9998
 7831SOL     OW33961   5.010   8.010   0.450 -0.0016 -0.0941 -0.2602
 7831SOL    HW133962   4.988   8.107   0.455  2.6020  0.4517  1.8357
 7831SOL    HW233963   5.088   7.996   0.389 -0.6469 -0.9346 -0.9063
 7832SOL     OW33964   4.229   8.594   1.240  0.8514  0.0851  0.3475
 7832SOL    HW133965   4.199   8.513   1.190 -0.3582  0.4361  0.5030
 7832SOL    HW233966   4.316   8.574   1.286  1.6019 -0.4618 -1.2982
 7833SOL     OW33967   0.610   4.227   3.518  0.6509 -0.1636 -0.5625
 7833SOL    HW133968   0.709   4.217   3.504  0.5884 -0.7241 -0.6120
 7833SOL    HW233969   0.587   4.324   3.522  1.3264 -0.0298  0.2993
 7834SOL     OW33970   8.136   1.088   0.406  0.1513  0.6514 -0.2653
 7834SOL    HW133971   8.118   1.018   0.476  1.8814 -0.1853 -0.6370
 7834SOL    HW233972   8.182   1.166   0.447  0.1081  0.6725 -0.2561
 7835SOL     OW33973   3.282   3.297   3.670  0.0393  0.0407  0.4882
 7835SOL    HW133974   3.269   3.353   3.752  2.9622 -0.0182  1.0518
 7835SOL    HW233975   3.271   3.354   3.589 -2.4005  0.2062  0.9111
 7836SOL     OW33976   9.337   3.140   3.118  0.4487  0.3308  0.1911
 7836SOL    HW133977   9.269   3.212   3.101 -0.2546 -0.6007 -1.0906
 7836SOL    HW233978   9.290   3.057   3.149  0.9835 -0.3413 -0.7781
 7837SOL     OW33979   1.118   2.106   0.168 -0.3136  0.1507 -0.1088
 7837SOL    HW133980   1.063   2.036   0.123  0.3154  0.0581 -0.7348
 7837SOL    HW233981   1.101   2.104   0.267 -0.5363 -0.6659 -0.1630
 7838SOL     OW33982   8.371   6.383   2.099 -0.2179 -0.5670 -0.2063
 7838SOL    HW133983   8.343   6.303   2.152  0.0706 -2.7628 -3.2275
 7838SOL    HW233984   8.370   6.464   2.158 -1.2559 -2.6287  2.7437
 7839SOL     OW33985   6.216   6.415   2.404 -0.0027  0.4481  0.1631
 7839SOL    HW133986   6.154   6.339   2.427  0.7192 -0.4608 -0.8202
 7839SOL    HW233987   6.191   6.496   2.458 -0.9508 -0.4057  1.0439
 7840SOL     OW33988   9.967   2.721   1.503 -0.0447 -0.2901  0.2548
 7840SOL    HW133989   9.880   2.674   1.484  0.0755 -0.6173  0.4947
 7840SOL    HW233990  10.001   2.763   1.419  1.0643 -2.6788 -0.5375
 7841SOL     OW33991   7.808   0.362   0.399 -0.1900 -0.3348 -0.2718
 7841SOL    HW133992   7.881   0.370   0.331 -0.0859 -0.2363 -0.1490
 7841SOL    HW233993   7.770   0.270   0.397  1.7493 -1.2277  1.5056
 7842SOL     OW33994   8.715   9.807   0.542 -0.3058  0.5203  0.0130
 7842SOL    HW133995   8.786   9.859   0.589 -0.9490  1.6445 -0.2268
 7842SOL    HW233996   8.639   9.789   0.605  0.2556 -0.8217  0.3165
 7843SOL     OW33997   4.655   2.960   0.150  0.0709 -0.6137 -0.4385
 7843SOL    HW133998   4.735   2.901   0.140 -1.3215 -2.4788 -0.8732
 7843SOL    HW233999   4.594   2.922   0.219 -0.7427  0.4497 -0.5564
 7844SOL     OW34000   7.841   7.972   2.018  0.2188  0.2443  0.3136
 7844SOL    HW134001   7.818   8.069   2.005 -0.2710  0.2834  1.4501
 7844SOL    HW234002   7.911   7.964   2.089  0.3566 -0.2341  0.1256
 7845SOL     OW34003   0.136   5.639   2.919  0.2439  0.5538 -0.2067
 7845SOL    HW134004   0.138   5.654   3.018  2.8191  0.3137 -0.1687
 7845SOL    HW234005   0.173   5.720   2.873  0.8204 -0.0719 -0.8504
 7846SOL     OW34006   1.402   3.292   1.394 -0.6919  0.2088  0.7939
 7846SOL    HW134007   1.426   3.372   1.450  0.7792  1.3712 -1.4348
 7846SOL    HW234008   1.472   3.221   1.405 -2.0191 -0.8336  2.8051
 7847SOL     OW34009   3.632   8.523   3.098 -0.3983  0.0199  0.4470
 7847SOL    HW134010   3.652   8.455   3.027  0.6752  1.4744 -0.6794
 7847SOL    HW234011   3.684   8.501   3.180 -0.6540 -0.9631  0.3538
 7848SOL     OW34012   0.744   3.421   2.453  0.7773 -0.1601 -0.6846
 7848SOL    HW134013   0.706   3.341   2.408  0.7188 -0.7162  0.3323
 7848SOL    HW234014   0.670   3.471   2.500  0.6642  0.9874 -2.0426
 7849SOL     OW34015   7.953   1.333   0.949  0.1048  0.3646 -0.0451
 7849SOL    HW134016   7.917   1.246   0.980 -0.7772  0.6594 -0.2084
 7849SOL    HW234017   8.044   1.348   0.987  1.4305 -1.8734 -2.2224
 7850SOL     OW34018   1.725   7.771   0.559 -0.4442 -0.0049 -0.0431
 7850SOL    HW134019   1.671   7.733   0.485 -1.6614 -0.3278  0.9972
 7850SOL    HW234020   1.693   7.863   0.581  1.3142  0.9605 -1.3326
 7851SOL     OW34021   2.324   3.848   2.331  0.0844  0.6270 -0.2286
 7851SOL    HW134022   2.389   3.836   2.406 -2.0737  0.6953  1.6951
 7851SOL    HW234023   2.231   3.850   2.367 -0.9798  1.0953 -2.8762
 7852SOL     OW34024   1.433   6.234   2.473  0.1619  0.3870 -0.6019
 7852SOL    HW134025   1.390   6.309   2.524 -1.3507 -1.6252  1.1389
 7852SOL    HW234026   1.514   6.203   2.522 -0.3995 -0.5084 -0.2463
 7853SOL     OW34027   2.195   7.600   0.482 -0.5099 -0.4340  0.1459
 7853SOL    HW134028   2.206   7.598   0.582  0.1423  0.7598  0.0989
 7853SOL    HW234029   2.104   7.634   0.460  0.0572  1.1993  0.2983
 7854SOL     OW34030   0.877   7.992   2.687 -0.5964 -0.0532 -0.2890
 7854SOL    HW134031   0.864   7.949   2.776 -2.0811 -0.0874 -0.5144
 7854SOL    HW234032   0.904   8.087   2.700  1.9630 -0.8062  0.2009
 7855SOL     OW34033   4.090   4.000   0.377  0.0399 -0.1574 -0.0369
 7855SOL    HW134034   4.122   4.051   0.457 -0.8909  0.1671  0.1354
 7855SOL    HW234035   4.011   3.943   0.402  0.0838 -0.4774 -0.5944
 7856SOL     OW34036   9.330   8.736   0.141 -0.0719  0.2923  0.2865
 7856SOL    HW134037   9.333   8.702   0.048  2.0085 -0.9115  0.7426
 7856SOL    HW234038   9.384   8.820   0.147 -0.7591  0.7399  0.2766
 7857SOL     OW34039   1.572   7.033   1.764  0.2382  0.1550 -0.0372
 7857SOL    HW134040   1.604   6.944   1.732  2.6118  1.1598 -0.5493
 7857SOL    HW234041   1.644   7.078   1.816 -0.3191  2.4746 -1.1692
 7858SOL     OW34042   3.284   5.613   1.487  0.5211 -0.2991 -0.3972
 7858SOL    HW134043   3.360   5.666   1.524 -0.3177 -0.3042  1.3496
 7858SOL    HW234044   3.236   5.667   1.418  1.0408  0.3446 -0.2623
 7859SOL     OW34045   2.201   8.210   0.010 -0.5008 -0.0933  0.1587
 7859SOL    HW134046   2.269   8.254  -0.048  0.1598 -0.4339  0.6630
 7859SOL    HW234047   2.240   8.197   0.102 -1.2674 -0.2335  0.4662
 7860SOL     OW34048   3.279   2.264   1.194 -0.4377  0.2849 -0.6199
 7860SOL    HW134049   3.185   2.231   1.200 -0.7583  1.4962  1.9720
 7860SOL    HW234050   3.279   2.360   1.165  0.0182  0.1799 -0.9719
 7861SOL     OW34051   4.218   7.657   1.400  0.1231 -0.5060  0.1253
 7861SOL    HW134052   4.221   7.755   1.420  0.8239 -0.4593 -0.2176
 7861SOL    HW234053   4.123   7.629   1.386  0.0156  0.3845 -1.0359
 7862SOL     OW34054   3.931   9.532   2.529 -0.0293  0.2991 -0.3552
 7862SOL    HW134055   3.930   9.491   2.620  1.7820  0.5045 -0.2101
 7862SOL    HW234056   3.854   9.595   2.520 -1.6709 -1.6032  0.1224
 7863SOL     OW34057   2.171   3.832   1.382  0.4312  0.5431 -0.5103
 7863SOL    HW134058   2.217   3.755   1.338  1.9763 -0.2801  2.4488
 7863SOL    HW234059   2.090   3.800   1.431  0.4478  1.0001 -0.1785
 7864SOL     OW34060   8.960   1.473   4.030  0.2186 -0.0342 -0.5452
 7864SOL    HW134061   9.011   1.393   3.998  1.4317  0.3568  0.4209
 7864SOL    HW234062   8.988   1.553   3.977 -0.1373 -0.0123 -0.7021
 7865SOL     OW34063   9.547   8.755   3.474  0.5784 -0.0992 -0.1801
 7865SOL    HW134064   9.568   8.756   3.376  1.9417 -0.3672  0.0901
 7865SOL    HW234065   9.626   8.791   3.525  1.1586 -2.8950  1.0126
 7866SOL     OW34066   8.018   7.956   2.238 -0.1138  0.2883 -0.3428
 7866SOL    HW134067   8.107   7.940   2.194 -0.4623  0.0898 -0.9755
 7866SOL    HW234068   8.028   8.027   2.308  0.2740  1.1739 -1.2802
 7867SOL     OW34069   1.314   6.512   0.444 -0.6608 -0.0630  0.0244
 7867SOL    HW134070   1.338   6.605   0.472  1.6240 -0.1014 -1.7285
 7867SOL    HW234071   1.217   6.509   0.419 -0.7862  1.8119  0.2271
 7868SOL     OW34072   9.430   1.070   1.394  0.5460 -0.0158 -0.0068
 7868SOL    HW134073   9.423   1.168   1.411 -1.6118 -0.3646  1.1937
 7868SOL    HW234074   9.344   1.036   1.358  1.2145 -1.5131 -0.2184
 7869SOL     OW34075   9.720   7.980   3.641 -0.2611 -0.5255 -0.2870
 7869SOL    HW134076   9.807   7.979   3.690 -0.7280  1.0653  0.6061
 7869SOL    HW234077   9.736   8.000   3.544  0.2533  1.5655  0.2007
 7870SOL     OW34078   7.444   9.859   2.049 -0.2281  0.3008  0.3609
 7870SOL    HW134079   7.531   9.815   2.073 -0.6660 -0.6749  0.1767
 7870SOL    HW234080   7.373   9.790   2.038 -0.0669  0.6759 -3.6887
 7871SOL     OW34081   1.169   3.762   0.435 -0.0956 -0.8418  0.4452
 7871SOL    HW134082   1.111   3.681   0.443  0.1990 -1.0237  0.7344
 7871SOL    HW234083   1.215   3.779   0.522 -0.5135 -0.0937  0.5268
 7872SOL     OW34084   0.948   2.785   0.435  0.2162  0.1758  0.5306
 7872SOL    HW134085   0.903   2.764   0.521 -2.4196 -1.9531 -1.2834
 7872SOL    HW234086   1.008   2.710   0.409 -0.5357 -0.0959 -0.4489
 7873SOL     OW34087   0.673   0.652   0.388  0.1200  0.8459  0.1168
 7873SOL    HW134088   0.608   0.723   0.362  1.5142  2.1041 -0.0641
 7873SOL    HW234089   0.715   0.676   0.476  0.3952  0.0968  0.1933
 7874SOL     OW34090   0.495   9.843   2.506  0.2398 -0.3081  0.1106
 7874SOL    HW134091   0.576   9.785   2.499 -0.1876 -0.8574 -0.3352
 7874SOL    HW234092   0.459   9.840   2.599  0.1758 -0.8129  0.0675
 7875SOL     OW34093   6.487   9.218   2.995 -0.0099  0.5556  0.0183
 7875SOL    HW134094   6.417   9.161   3.037  1.0865 -0.1076  0.9831
 7875SOL    HW234095   6.508   9.295   3.055  0.9339  0.0883  0.3059
 7876SOL     OW34096   8.136   1.816   2.401 -0.1906 -0.1817  0.2391
 7876SOL    HW134097   8.068   1.860   2.459  1.1083  0.9314  0.9441
 7876SOL    HW234098   8.119   1.840   2.306 -2.2323 -1.8767  0.1379
 7877SOL     OW34099   2.943   6.517   0.541 -0.0973  0.2689 -0.0703
 7877SOL    HW134100   2.934   6.479   0.449  0.0323  0.7008 -0.2622
 7877SOL    HW234101   2.867   6.484   0.597 -0.9708  1.0910 -0.7211
 7878SOL     OW34102   8.480   9.764   0.055 -0.0823  0.6667 -0.5797
 7878SOL    HW134103   8.392   9.727   0.086  0.5053 -1.2347 -1.1581
 7878SOL    HW234104   8.469   9.802  -0.037 -0.5900  1.5834 -0.1477
 7879SOL     OW34105   9.880   5.592   1.408 -0.0155  0.0615  0.1469
 7879SOL    HW134106   9.920   5.543   1.331  0.0812  0.3368  0.0204
 7879SOL    HW234107   9.794   5.635   1.380 -0.1313 -0.0840  0.2730
 7880SOL     OW34108   3.828   4.463   3.308 -0.2360  0.1000  0.2603
 7880SOL    HW134109   3.875   4.550   3.293 -2.5469  1.1989 -0.8160
 7880SOL    HW234110   3.859   4.422   3.393  1.5042  1.5555  0.3449
 7881SOL     OW34111   3.559   9.199   1.661  0.3107 -1.0049  0.4811
 7881SOL    HW134112   3.490   9.131   1.684  0.0214 -0.0651  2.4749
 7881SOL    HW234113   3.568   9.205   1.562 -2.0099 -1.5793  0.2084
 7882SOL     OW34114   0.619   7.910   1.951 -0.5665  0.2574  0.0397
 7882SOL    HW134115   0.647   7.941   2.042 -0.0062  0.7597 -0.2941
 7882SOL    HW234116   0.570   7.824   1.959  0.5769 -0.3446  0.7063
 7883SOL     OW34117   0.797   9.282   0.776 -0.3205  0.0593 -0.4637
 7883SOL    HW134118   0.834   9.207   0.722 -0.3713  0.8266 -1.5909
 7883SOL    HW234119   0.869   9.350   0.792 -0.6598  0.4846 -0.7428
 7884SOL     OW34120   3.027   6.424   1.396  0.0509 -0.4753  0.2770
 7884SOL    HW134121   3.106   6.364   1.384  0.6834  0.3415  0.3151
 7884SOL    HW234122   2.947   6.369   1.420  0.9644 -1.1480  1.8036
 7885SOL     OW34123   9.945   0.415   3.567 -0.3215  0.2448  0.5445
 7885SOL    HW134124   9.910   0.326   3.597  0.1428 -0.3891 -0.7382
 7885SOL    HW234125  10.040   0.426   3.595 -0.3912  0.3605  0.7404
 7886SOL     OW34126   2.322   6.477   0.063  0.1848  0.5789 -0.1324
 7886SOL    HW134127   2.347   6.564   0.021  0.6034  1.1174  1.2325
 7886SOL    HW234128   2.330   6.404  -0.005 -2.7054  1.9595 -2.0415
 7887SOL     OW34129   1.985   9.235   3.317 -0.3837 -0.0427  0.2898
 7887SOL    HW134130   1.979   9.248   3.218 -0.3685 -1.4601  0.0840
 7887SOL    HW234131   2.042   9.155   3.337  0.0996  0.5832  1.4676
 7888SOL     OW34132   1.576   3.071   0.088  0.3487  0.2274 -0.3243
 7888SOL    HW134133   1.645   3.014   0.043  0.8375  1.9892 -1.8916
 7888SOL    HW234134   1.534   3.020   0.163  0.6942 -2.2235 -1.7336
 7889SOL     OW34135   2.434   0.084   3.693  0.3086 -0.0180 -0.1028
 7889SOL    HW134136   2.416   0.043   3.604  0.6151  0.1369 -0.2389
 7889SOL    HW234137   2.376   0.042   3.762 -1.9038  1.7310 -0.8296
 7890SOL     OW34138   5.583   9.490   1.840  0.5616 -0.0397  0.3785
 7890SOL    HW134139   5.639   9.408   1.834  2.6365  1.3357  0.2831
 7890SOL    HW234140   5.557   9.521   1.749 -0.0562 -0.4706  0.4057
 7891SOL     OW34141   1.375   1.531   3.928 -0.1703  0.5277 -0.0217
 7891SOL    HW134142   1.301   1.552   3.992 -1.8352 -1.5655 -1.1666
 7891SOL    HW234143   1.373   1.433   3.907  2.4489  0.5990 -0.6993
 7892SOL     OW34144   2.978   5.789   3.199  0.3961  0.1068  0.4204
 7892SOL    HW134145   2.975   5.689   3.203  1.7877  0.0432  0.1710
 7892SOL    HW234146   3.061   5.818   3.151  0.0325  1.3874  0.5452
 7893SOL     OW34147   4.061   3.435   3.778  0.7313 -0.2393  0.0658
 7893SOL    HW134148   3.999   3.490   3.722  0.3425 -0.3017  0.4383
 7893SOL    HW234149   4.110   3.370   3.720 -1.2630 -1.8064  0.0996
 7894SOL     OW34150   0.286   0.534   0.225  0.0933  0.2391  0.0150
 7894SOL    HW134151   0.206   0.518   0.168 -0.6369 -1.3942  1.4525
 7894SOL    HW234152   0.276   0.620   0.274 -0.8998 -0.0713  0.3667
 7895SOL     OW34153   3.665   0.452   2.827 -0.1183 -0.6066 -0.3345
 7895SOL    HW134154   3.687   0.516   2.754  1.7600  0.7467  1.3271
 7895SOL    HW234155   3.591   0.489   2.883  0.9227  0.1394  0.5867
 7896SOL     OW34156   0.373   6.782   0.131  0.3274 -0.4171 -0.4094
 7896SOL    HW134157   0.467   6.784   0.164  0.5090 -2.0019 -0.7801
 7896SOL    HW234158   0.312   6.752   0.204  0.1061  0.5899 -0.1748
 7897SOL     OW34159   2.974   3.800   2.837  0.4931  0.0771 -0.5982
 7897SOL    HW134160   2.912   3.756   2.903  0.9645  1.2928  0.6929
 7897SOL    HW234161   2.922   3.863   2.780  0.3889  0.4457 -0.1016
 7898SOL     OW34162   7.061   9.182   1.411 -0.9411 -0.1919 -0.3204
 7898SOL    HW134163   7.140   9.228   1.454  0.0387  0.6107 -2.8706
 7898SOL    HW234164   7.028   9.238   1.335 -4.0195 -0.5325  0.7018
 7899SOL     OW34165   9.134   7.365   2.671 -0.3049  0.3481 -0.2608
 7899SOL    HW134166   9.075   7.444   2.688  0.2457  0.7228 -0.0570
 7899SOL    HW234167   9.079   7.283   2.664 -0.7956  0.5899  0.6284
 7900SOL     OW34168   9.321   4.468   0.513  0.0963  0.4268  0.2144
 7900SOL    HW134169   9.222   4.483   0.509  0.1272  0.7400  0.7051
 7900SOL    HW234170   9.355   4.451   0.420 -0.3221  0.9310 -0.0373
 7901SOL     OW34171   3.312   2.419   3.917 -0.2313  0.0576  0.0259
 7901SOL    HW134172   3.382   2.400   3.848  1.1233  0.6389  1.2142
 7901SOL    HW234173   3.238   2.473   3.876 -1.0563 -2.3706 -1.7869
 7902SOL     OW34174   4.334   1.544   0.218  0.1701  0.5209  0.0260
 7902SOL    HW134175   4.279   1.462   0.202  0.4846 -0.0567  1.7801
 7902SOL    HW234176   4.418   1.519   0.265  1.8363  1.4437 -2.3633
 7903SOL     OW34177   2.098   7.925   2.965 -0.5888  0.5149 -0.4223
 7903SOL    HW134178   2.030   7.864   3.007  0.2173  0.0892  0.2910
 7903SOL    HW234179   2.061   8.018   2.961 -0.4274  0.7069  1.8826
 7904SOL     OW34180   4.341   9.444   1.257  0.1529 -0.1040  0.4217
 7904SOL    HW134181   4.399   9.490   1.324  1.1681 -2.3842  1.1539
 7904SOL    HW234182   4.288   9.373   1.303  0.9160 -1.7392 -1.1709
 7905SOL     OW34183   2.602   0.146   3.189 -0.0797 -0.0582  0.3246
 7905SOL    HW134184   2.628   0.168   3.282 -0.8100  0.4954  0.3988
 7905SOL    HW234185   2.663   0.193   3.125  0.0234  0.0681  0.5161
 7906SOL     OW34186   3.306   4.106   3.557 -0.0428  0.0506 -0.5475
 7906SOL    HW134187   3.269   4.057   3.479  1.2268  0.0384 -1.1596
 7906SOL    HW234188   3.393   4.148   3.531 -0.5297  1.6194  0.3135
 7907SOL     OW34189   2.551   1.221   1.648 -0.0990  0.5805 -0.3640
 7907SOL    HW134190   2.501   1.197   1.566 -1.5328  3.0034 -0.2650
 7907SOL    HW234191   2.592   1.312   1.637 -0.4080  0.9961  1.5953
 7908SOL     OW34192   2.384   9.163   0.670 -0.2835  0.0658 -0.2453
 7908SOL    HW134193   2.328   9.139   0.590  0.7776  1.1343 -1.3308
 7908SOL    HW234194   2.479   9.171   0.642  0.2843 -0.7319  1.3931
 7909SOL     OW34195   2.150   0.417   2.168 -0.4668 -0.5445 -0.6710
 7909SOL    HW134196   2.195   0.506   2.168  0.2117 -0.8628 -2.4950
 7909SOL    HW234197   2.169   0.370   2.254  1.5344 -0.0900 -0.8476
 7910SOL     OW34198   9.046   2.795   1.088 -0.6057  0.3840  1.0640
 7910SOL    HW134199   9.024   2.762   1.179 -0.6390 -2.1856  0.1477
 7910SOL    HW234200   8.971   2.773   1.025 -0.6187  2.2003  0.3969
 7911SOL     OW34201   1.158   1.228   1.464  0.5396 -0.4924  0.4139
 7911SOL    HW134202   1.237   1.289   1.464  1.0585 -1.1563  0.7835
 7911SOL    HW234203   1.101   1.247   1.384  1.3001 -0.3062 -0.0826
 7912SOL     OW34204   0.735   3.714   2.116 -0.1724 -0.5016 -0.7918
 7912SOL    HW134205   0.715   3.704   2.019 -1.6231 -2.0856 -0.3533
 7912SOL    HW234206   0.792   3.638   2.146 -0.6684 -0.6251 -0.1583
 7913SOL     OW34207   9.648   6.176   3.596  0.0456  0.1417 -0.5373
 7913SOL    HW134208   9.670   6.109   3.666 -0.2106  1.6902  1.0624
 7913SOL    HW234209   9.558   6.157   3.558 -0.8546  0.6759  1.2721
 7914SOL     OW34210   2.604   8.069   2.192 -0.0723 -0.1945  0.0581
 7914SOL    HW134211   2.696   8.105   2.210 -0.3962  0.5631  0.2048
 7914SOL    HW234212   2.553   8.063   2.277 -0.6582  0.7731 -0.2157
 7915SOL     OW34213   0.713   0.788   2.073 -0.4160 -0.1253 -0.5158
 7915SOL    HW134214   0.770   0.832   2.004  1.1192 -0.5051  0.4920
 7915SOL    HW234215   0.759   0.790   2.162 -2.0854 -0.2128  0.3781
 7916SOL     OW34216   3.547   5.552   2.583  0.5874  0.3608  0.9726
 7916SOL    HW134217   3.503   5.642   2.589 -2.0050 -0.8654  0.7677
 7916SOL    HW234218   3.635   5.561   2.534 -0.0553  2.6203  0.1747
 7917SOL     OW34219   1.852   6.373   1.745 -0.5279  0.2992 -0.6363
 7917SOL    HW134220   1.799   6.399   1.826  0.6751 -0.5520  0.4371
 7917SOL    HW234221   1.933   6.321   1.773  0.3572  0.7280 -2.3210
 7918SOL     OW34222   3.950   4.886   0.912 -0.5351  0.3435 -0.1131
 7918SOL    HW134223   3.897   4.970   0.923 -2.5985 -1.2097  2.2264
 7918SOL    HW234224   4.016   4.879   0.987  0.7412  0.6555 -1.1997
 7919SOL     OW34225   4.107   8.525   2.955  0.3503  0.1836  0.1994
 7919SOL    HW134226   4.089   8.560   3.047  3.0353 -0.2510  0.9197
 7919SOL    HW234227   4.166   8.445   2.961 -0.1581 -0.3711 -1.8700
 7920SOL     OW34228   9.876   0.907   1.297 -0.4488  0.8238 -0.2919
 7920SOL    HW134229   9.955   0.926   1.355 -0.1996 -1.0551  0.0223
 7920SOL    HW234230   9.858   0.986   1.239  1.3953  1.4494 -0.0648
 7921SOL     OW34231   4.191   7.747   3.711 -0.6379  0.5873  0.1822
 7921SOL    HW134232   4.119   7.712   3.650  0.3487 -1.5055  0.2085
 7921SOL    HW234233   4.148   7.788   3.791 -1.9235  2.4097 -1.3685
 7922SOL     OW34234   7.007   8.355   2.565  0.0612  0.0990  0.0917
 7922SOL    HW134235   6.956   8.392   2.642  0.6063  1.9819 -0.4170
 7922SOL    HW234236   7.013   8.256   2.573 -1.6195  0.0868  1.3948
 7923SOL     OW34237   3.423   5.381   1.872  0.6720 -0.1483  0.1151
 7923SOL    HW134238   3.376   5.466   1.849  0.8304 -0.3370 -0.9669
 7923SOL    HW234239   3.357   5.315   1.908  0.7101  0.7417  1.8444
 7924SOL     OW34240   6.272   8.202   2.725  0.2666 -0.3548  0.1494
 7924SOL    HW134241   6.336   8.216   2.649  0.1925 -1.2200 -0.0740
 7924SOL    HW234242   6.230   8.290   2.749  1.4382  0.1897  0.2170
 7925SOL     OW34243   0.238   9.677   3.200 -0.2270  0.0779 -0.3011
 7925SOL    HW134244   0.190   9.653   3.116  0.1482 -0.8134 -0.2664
 7925SOL    HW234245   0.266   9.593   3.248 -0.4494  0.5728  0.7174
 7926SOL     OW34246   6.058   9.215   1.504  0.0096  0.0147 -0.1589
 7926SOL    HW134247   6.046   9.314   1.513  1.4216 -0.0065  2.4356
 7926SOL    HW234248   6.131   9.196   1.438  0.4331  0.7337  0.1038
 7927SOL     OW34249   8.823   6.179   1.713  0.5209 -0.8108 -0.0384
 7927SOL    HW134250   8.781   6.176   1.622  0.3419  0.1832  0.0066
 7927SOL    HW234251   8.890   6.252   1.716 -1.0089  0.5934  1.2746
 7928SOL     OW34252   2.385   4.491   2.349  0.0609 -0.5870 -0.5607
 7928SOL    HW134253   2.409   4.497   2.446 -0.9930 -2.9622 -0.1210
 7928SOL    HW234254   2.286   4.483   2.339  0.1384 -0.1412 -1.8652
 7929SOL     OW34255   1.456   7.686   0.964 -0.0002 -0.6457 -0.1104
 7929SOL    HW134256   1.464   7.607   1.025 -1.8948 -0.3510  0.5244
 7929SOL    HW234257   1.528   7.752   0.986 -0.0381 -1.0018  1.1027
 7930SOL     OW34258   2.764   8.479   0.060  0.3199 -0.3475 -0.0091
 7930SOL    HW134259   2.734   8.537  -0.016  0.2671  1.7634  1.5883
 7930SOL    HW234260   2.822   8.406   0.024 -0.7004 -0.1194 -2.2276
 7931SOL     OW34261   3.336   4.751   1.927  0.0243 -0.4382  0.6341
 7931SOL    HW134262   3.293   4.662   1.937  0.2398 -0.6048  0.0742
 7931SOL    HW234263   3.405   4.763   1.999 -0.1295 -0.6443  0.8181
 7932SOL     OW34264   1.714   9.257   3.376  0.4061 -0.1051 -0.0788
 7932SOL    HW134265   1.814   9.249   3.384  0.4372 -0.0889 -0.4287
 7932SOL    HW234266   1.691   9.333   3.316  0.1338  1.3066  1.7968
 7933SOL     OW34267   2.806   0.468   1.258  0.1177  0.1485  0.1509
 7933SOL    HW134268   2.887   0.525   1.257 -0.9755  1.7240 -1.5548
 7933SOL    HW234269   2.776   0.453   1.352  1.4488  0.8699  0.6895
 7934SOL     OW34270   0.862   9.559   2.929  0.4921 -0.1709 -0.4602
 7934SOL    HW134271   0.830   9.520   3.015  3.1803  0.7191  1.0325
 7934SOL    HW234272   0.929   9.631   2.949  2.2157 -0.9039 -3.3061
 7935SOL     OW34273   9.726   5.831   3.321  0.7985  0.3118  0.4253
 7935SOL    HW134274   9.754   5.846   3.416  0.8179  1.1001  0.3026
 7935SOL    HW234275   9.746   5.737   3.294  0.4095 -0.0396  1.3370
 7936SOL     OW34276   2.069   3.986   3.022  0.2284  0.1213 -0.8600
 7936SOL    HW134277   2.080   3.909   3.086  0.3170 -0.3945 -1.4987
 7936SOL    HW234278   2.014   4.057   3.066 -0.0108 -0.3804 -0.3340
 7937SOL     OW34279   4.019   1.078   0.547 -0.2781 -0.7463  0.3453
 7937SOL    HW134280   4.018   1.053   0.644  0.0932  0.9698  0.8077
 7937SOL    HW234281   3.983   1.170   0.536 -2.4285 -1.7608 -1.4320
 7938SOL     OW34282   1.251   4.738   3.919  0.3101 -0.2381 -0.3832
 7938SOL    HW134283   1.278   4.824   3.961  0.0949  0.0070 -0.7471
 7938SOL    HW234284   1.152   4.739   3.901  0.3899 -0.3593 -0.8414
 7939SOL     OW34285   7.995   0.074   3.365 -0.3275  0.1966 -0.0078
 7939SOL    HW134286   8.085   0.114   3.349 -1.0131  1.8441  0.1137
 7939SOL    HW234287   7.932   0.146   3.395 -1.3834 -1.1539  1.0681
 7940SOL     OW34288   4.438   9.252   3.530 -0.0122  0.1696 -0.1243
 7940SOL    HW134289   4.359   9.204   3.491 -0.3680  0.5270  0.1658
 7940SOL    HW234290   4.429   9.257   3.629 -0.7256  2.1741 -0.2655
 7941SOL     OW34291   0.977   3.921   3.004 -0.2563 -0.0432 -0.8353
 7941SOL    HW134292   1.010   3.915   2.910 -0.0633 -1.4568 -0.6868
 7941SOL    HW234293   0.879   3.902   3.006 -0.5412  1.3828 -0.9226
 7942SOL     OW34294   3.525   7.928   1.376  0.3142  0.4671  0.4549
 7942SOL    HW134295   3.499   7.870   1.454  2.6815 -2.2219 -0.6756
 7942SOL    HW234296   3.491   7.886   1.291  1.1381  1.2958 -0.2904
 7943SOL     OW34297   8.449   0.329   1.308 -0.1045 -0.3645 -0.6061
 7943SOL    HW134298   8.474   0.383   1.389  0.5583  0.9877 -1.6687
 7943SOL    HW234299   8.365   0.279   1.325 -0.6952  0.9647  0.4618
 7944SOL     OW34300   3.329   2.767   3.687  0.0512 -0.1258  0.4561
 7944SOL    HW134301   3.417   2.764   3.734  0.1303 -1.1150  0.2391
 7944SOL    HW234302   3.262   2.711   3.737  0.0099 -0.7870 -0.3402
 7945SOL     OW34303   9.367   7.978   3.551 -0.0731  0.2262 -0.2288
 7945SOL    HW134304   9.402   8.064   3.514  1.3477 -0.0499  0.4473
 7945SOL    HW234305   9.288   7.948   3.498  1.4339  0.2466 -2.5530
 7946SOL     OW34306   0.470   2.376   2.407 -0.2597  0.2314 -0.2851
 7946SOL    HW134307   0.399   2.308   2.389  0.2652 -0.5331  0.4931
 7946SOL    HW234308   0.428   2.465   2.426 -0.9783 -0.0667 -0.4756
 7947SOL     OW34309   1.923   4.856   1.147  0.4282 -0.0270 -0.1087
 7947SOL    HW134310   2.000   4.813   1.099  0.7018 -0.7247  0.9558
 7947SOL    HW234311   1.852   4.880   1.080  1.3140  0.1041 -1.0250
 7948SOL     OW34312   9.838   9.178   3.829 -0.3620  0.5770  0.4273
 7948SOL    HW134313   9.877   9.268   3.807 -0.0152  0.0237 -1.3406
 7948SOL    HW234314   9.826   9.170   3.928  2.1595  1.5223  0.8484
 7949SOL     OW34315   8.198   4.333   2.297 -0.3465  0.1266 -0.3927
 7949SOL    HW134316   8.243   4.263   2.351 -1.9925 -0.4831  0.2196
 7949SOL    HW234317   8.201   4.308   2.200 -1.0085 -0.8429 -0.1655
 7950SOL     OW34318   8.903   7.571   3.535  0.6052  0.0337  0.2034
 7950SOL    HW134319   8.857   7.607   3.454  1.4228 -0.6411 -0.5690
 7950SOL    HW234320   8.958   7.492   3.510  2.3724  0.9502  1.0502
 7951SOL     OW34321   8.073   6.536   2.459  0.1340 -0.0436  0.1680
 7951SOL    HW134322   8.002   6.531   2.388 -0.4461  0.2826  0.7208
 7951SOL    HW234323   8.030   6.549   2.548  0.9044  0.4874  0.4697
 7952SOL     OW34324   7.562   9.128   1.495 -0.5291 -0.2157  0.8301
 7952SOL    HW134325   7.466   9.104   1.504 -1.3183  2.7077  0.7125
 7952SOL    HW234326   7.598   9.156   1.585  0.9400 -3.6950  1.3952
 7953SOL     OW34327   5.095   8.867   3.200 -0.0797  0.5631 -0.1394
 7953SOL    HW134328   5.120   8.793   3.262  0.5277  0.5726 -0.3672
 7953SOL    HW234329   5.012   8.912   3.233 -0.1752  0.0946  0.2606
 7954SOL     OW34330   0.387   9.858   2.756  0.1838  0.4866 -0.2073
 7954SOL    HW134331   0.391   9.863   2.856  1.1872  0.2950 -0.2325
 7954SOL    HW234332   0.336   9.776   2.729 -1.1389  1.1783  0.1401
 7955SOL     OW34333   4.461   8.660   0.003  0.1148 -0.4494  0.1721
 7955SOL    HW134334   4.386   8.718  -0.029  0.4734 -0.6483 -1.0572
 7955SOL    HW234335   4.510   8.707   0.077 -0.0501  0.5013 -0.3075
 7956SOL     OW34336   3.658   7.050   0.663  0.9795  0.3567  0.3299
 7956SOL    HW134337   3.601   7.083   0.588  1.2885  2.1031  0.8266
 7956SOL    HW234338   3.601   7.001   0.729  0.7622 -1.4647 -1.1796
 7957SOL     OW34339   0.538   2.018   1.717  0.3030  0.1253  0.0388
 7957SOL    HW134340   0.471   2.055   1.654  0.4778 -0.7805 -0.6959
 7957SOL    HW234341   0.491   1.978   1.796 -0.0396 -0.7662 -0.6132
 7958SOL     OW34342   2.879   0.979   3.752 -0.2670 -0.0392  0.3214
 7958SOL    HW134343   2.968   1.024   3.751  0.4614 -1.4364 -1.4024
 7958SOL    HW234344   2.870   0.922   3.670 -2.0092 -1.3492  1.3871
 7959SOL     OW34345   1.586   9.759   3.193 -0.0721 -0.3515 -0.0106
 7959SOL    HW134346   1.527   9.797   3.122  2.0614  1.1496 -1.0449
 7959SOL    HW234347   1.598   9.826   3.266  0.7683 -0.4251 -0.0750
 7960SOL     OW34348   0.140   5.972   1.722  0.8035  0.0662 -0.5471
 7960SOL    HW134349   0.080   6.049   1.702 -1.3399 -0.6642  2.6416
 7960SOL    HW234350   0.112   5.893   1.667 -0.3916  0.0884  0.0196
 7961SOL     OW34351   7.947   9.795   0.035  0.2334  0.4208 -0.1756
 7961SOL    HW134352   7.864   9.829  -0.009 -0.4993 -2.5144 -1.1890
 7961SOL    HW234353   7.997   9.737  -0.029  1.0643 -0.9537  1.6555
 7962SOL     OW34354   3.062   2.461   0.871  0.1698  0.1597 -0.0970
 7962SOL    HW134355   3.099   2.432   0.783  0.1089  0.7692 -0.3269
 7962SOL    HW234356   3.132   2.451   0.942  0.1646 -0.4845 -0.1870
 7963SOL     OW34357   8.277   2.661   3.967  0.0275  0.0113  0.2772
 7963SOL    HW134358   8.178   2.670   3.977 -0.0502  0.8145 -1.1488
 7963SOL    HW234359   8.300   2.566   3.947 -0.4068 -0.2591  1.0107
 7964SOL     OW34360   2.783   9.979   1.712 -0.3155 -0.1313  0.2953
 7964SOL    HW134361   2.692   9.979   1.671 -0.6544 -0.1800  1.0411
 7964SOL    HW234362   2.826  10.069   1.697 -0.5604 -0.0422  0.1200
 7965SOL     OW34363   9.923   9.414   1.909  0.3033  0.0108  0.3212
 7965SOL    HW134364   9.957   9.508   1.896  0.5503 -0.0388  0.6060
 7965SOL    HW234365   9.829   9.417   1.942 -0.8307  0.1361 -2.7403
 7966SOL     OW34366   8.970   0.906   3.926  0.6001 -0.0401  0.6061
 7966SOL    HW134367   8.891   0.966   3.942  0.1316 -0.5138  0.1091
 7966SOL    HW234368   9.004   0.872   4.014 -0.0124 -0.1581  0.8045
 7967SOL     OW34369   2.060   3.065   2.050 -0.6802  0.7698  0.2667
 7967SOL    HW134370   2.152   3.047   2.016 -1.5233 -0.7945 -1.2484
 7967SOL    HW234371   1.993   3.041   1.980 -2.3004  0.7231  1.7969
 7968SOL     OW34372   1.400   8.921   3.019  0.9550  0.0180 -0.0349
 7968SOL    HW134373   1.496   8.950   3.014  1.3491 -1.2175  0.1382
 7968SOL    HW234374   1.354   8.971   3.092  1.8974 -0.5478  0.9600
 7969SOL     OW34375   3.204   4.256   1.273  0.6163 -0.3986 -0.3390
 7969SOL    HW134376   3.223   4.174   1.327  1.5461  0.5215  0.7417
 7969SOL    HW234377   3.258   4.332   1.307 -2.6130  1.5026  0.7708
 7970SOL     OW34378   3.650   0.001   2.765  0.3823  0.1169  0.5189
 7970SOL    HW134379   3.627   0.094   2.738  0.2415 -0.3081 -0.8798
 7970SOL    HW234380   3.579  -0.034   2.826  0.6370  1.0577  1.3600
 7971SOL     OW34381   0.449   3.049   2.553  0.5036 -0.7348  0.1080
 7971SOL    HW134382   0.475   3.125   2.613  0.4770 -1.5714  1.2113
 7971SOL    HW234383   0.472   3.071   2.459  1.5382  0.1767  0.5598
 7972SOL     OW34384   3.884   9.069   1.778  0.6041  0.6845  0.4452
 7972SOL    HW134385   3.910   9.025   1.863  1.7258  1.2118  0.3789
 7972SOL    HW234386   3.900   9.007   1.702 -0.1274  0.3183  0.5879
 7973SOL     OW34387   3.014   4.241   2.510  0.0073  0.2126  0.1931
 7973SOL    HW134388   2.998   4.179   2.433 -0.2729  1.1735 -0.5308
 7973SOL    HW234389   3.044   4.188   2.590 -2.9153 -1.1540  0.4263
 7974SOL     OW34390   2.720   5.577   3.705 -0.4494  0.0726 -0.5966
 7974SOL    HW134391   2.767   5.613   3.624  0.3573  0.8234  0.1908
 7974SOL    HW234392   2.622   5.569   3.686 -0.0810 -1.2175 -2.1607
 7975SOL     OW34393   9.612   7.162   0.405 -0.1901  0.1539  0.2341
 7975SOL    HW134394   9.554   7.224   0.457  1.9292  1.8865  0.6372
 7975SOL    HW234395   9.582   7.161   0.309 -1.5556  0.1732  0.6602
 7976SOL     OW34396   9.932   3.273   0.779 -0.1098 -0.2942 -0.1813
 7976SOL    HW134397   9.909   3.325   0.697  2.4193  0.3679 -0.5027
 7976SOL    HW234398   9.912   3.328   0.860  2.5772  1.2386 -0.5196
 7977SOL     OW34399   3.354   7.950   1.944  0.2613  0.9038 -0.1551
 7977SOL    HW134400   3.345   7.955   1.844 -0.8664  0.5887 -0.0795
 7977SOL    HW234401   3.286   8.010   1.987 -0.8738 -0.7603  0.4451
 7978SOL     OW34402   8.211   5.203   0.386  0.4810  0.1456 -0.2317
 7978SOL    HW134403   8.160   5.263   0.448 -1.4733 -1.2839 -0.4202
 7978SOL    HW234404   8.296   5.175   0.431  0.1129  0.8569  0.9467
 7979SOL     OW34405   9.018   2.354   0.695  0.2414 -0.2285 -0.1697
 7979SOL    HW134406   9.061   2.428   0.644  0.9739 -0.1979  0.4788
 7979SOL    HW234407   9.064   2.268   0.674  1.1344 -0.0784  1.1071
 7980SOL     OW34408   3.491   7.789   3.163 -0.9427  0.4616 -0.0005
 7980SOL    HW134409   3.435   7.723   3.112 -0.8948  1.1976 -1.0360
 7980SOL    HW234410   3.524   7.859   3.100  1.0089  0.1407  0.6379
 7981SOL     OW34411   4.415   0.810   2.976 -0.2301  0.4074  0.4197
 7981SOL    HW134412   4.341   0.825   3.042 -0.9830 -0.5701 -0.1723
 7981SOL    HW234413   4.473   0.734   3.008 -0.6854 -0.1669 -0.1078
 7982SOL     OW34414   0.793   4.875   1.731 -0.4663  0.1000 -0.6719
 7982SOL    HW134415   0.731   4.799   1.751  0.1025 -0.6222 -1.6456
 7982SOL    HW234416   0.743   4.947   1.682 -0.8231  0.0527 -0.3855
 7983SOL     OW34417   4.848   0.445   2.149 -0.5610 -0.1705 -0.6457
 7983SOL    HW134418   4.897   0.384   2.211 -0.0290  1.0215  0.1354
 7983SOL    HW234419   4.907   0.470   2.073  0.8385  2.8430  1.3134
 7984SOL     OW34420   7.774   1.760   2.515  0.3813 -0.3611  0.1789
 7984SOL    HW134421   7.744   1.730   2.425 -0.7452  0.0733  0.3933
 7984SOL    HW234422   7.771   1.684   2.579  0.9287 -0.6076 -0.0873
 7985SOL     OW34423   2.730   2.824   1.255  0.2777  0.2654  0.0463
 7985SOL    HW134424   2.753   2.765   1.333 -1.2477 -0.6503 -0.1640
 7985SOL    HW234425   2.786   2.798   1.177  0.4525 -0.1276  0.2988
 7986SOL     OW34426   9.099   9.002   1.471 -0.2797 -0.4073  0.3574
 7986SOL    HW134427   9.181   8.961   1.510  0.2061 -0.1321 -0.3670
 7986SOL    HW234428   9.123   9.052   1.388 -1.4531 -1.8568 -0.8908
 7987SOL     OW34429   7.865   9.141   4.020  0.5296 -0.2753  0.2423
 7987SOL    HW134430   7.808   9.089   3.956  0.7330  0.7592 -0.7884
 7987SOL    HW234431   7.952   9.094   4.034  0.4062 -0.6008 -0.0834
 7988SOL     OW34432   0.711   3.907   3.937 -0.0999  1.5527 -1.1395
 7988SOL    HW134433   0.683   3.918   3.841  0.6028  2.2028 -1.2735
 7988SOL    HW234434   0.629   3.891   3.993 -0.4171 -0.0039 -1.9924
 7989SOL     OW34435   3.469   6.373   2.824  0.3953  0.1975 -0.9630
 7989SOL    HW134436   3.461   6.387   2.726 -0.7342  1.6833 -0.6812
 7989SOL    HW234437   3.379   6.355   2.863  0.7957 -0.1381 -0.1641
 7990SOL     OW34438   9.096   6.057   0.291 -0.2563 -0.0621 -0.1751
 7990SOL    HW134439   9.185   6.078   0.252 -0.6836  1.0395 -0.5995
 7990SOL    HW234440   9.106   5.999   0.371  0.6592 -2.2197 -1.8130
 7991SOL     OW34441   9.142   4.748   0.573 -0.2882  0.1439  0.2557
 7991SOL    HW134442   9.216   4.814   0.586  0.7179 -1.0123  0.5269
 7991SOL    HW234443   9.142   4.682   0.648 -1.1943 -0.2407 -0.0745
 7992SOL     OW34444   0.246   7.330   2.511  0.1655  0.2587 -0.1607
 7992SOL    HW134445   0.256   7.429   2.502 -1.6056  0.6296  1.6990
 7992SOL    HW234446   0.297   7.297   2.590  0.2843 -0.2467 -0.4394
 7993SOL     OW34447   9.243   6.377   0.298 -0.0575 -0.8990 -0.0466
 7993SOL    HW134448   9.232   6.391   0.396  1.5159  2.7303 -0.2859
 7993SOL    HW234449   9.176   6.433   0.249  0.7988 -0.7212 -1.0366
 7994SOL     OW34450   6.977   7.945   1.715 -0.2004  0.3649  0.6371
 7994SOL    HW134451   7.050   7.914   1.653 -0.3234  0.3891  0.4812
 7994SOL    HW234452   6.905   7.988   1.662 -0.9692 -0.8880  0.6456
 7995SOL     OW34453   1.660   0.700   0.383  0.1003 -0.5235  0.4564
 7995SOL    HW134454   1.648   0.794   0.414  0.8693  0.3428 -1.8344
 7995SOL    HW234455   1.708   0.648   0.454  3.7064  1.9730 -0.0301
 7996SOL     OW34456   3.293   7.275   3.902  0.0568 -0.2274 -0.3714
 7996SOL    HW134457   3.322   7.189   3.861  0.0980 -0.0543 -0.7018
 7996SOL    HW234458   3.363   7.345   3.886 -1.2137  0.5915 -2.4797
 7997SOL     OW34459   9.722   7.510   2.470  0.6471 -0.8149 -0.0186
 7997SOL    HW134460   9.802   7.502   2.529 -0.2730 -0.3319  1.3030
 7997SOL    HW234461   9.749   7.494   2.375  2.3591 -0.3796  0.3818
 7998SOL     OW34462   3.911   8.426   3.233 -0.2752 -0.3551 -0.3733
 7998SOL    HW134463   3.997   8.439   3.282 -0.4581 -1.5931  0.2975
 7998SOL    HW234464   3.914   8.340   3.181 -0.5438  0.3362 -1.5632
 7999SOL     OW34465   0.823   3.762   0.519  0.5944 -0.3496 -0.4689
 7999SOL    HW134466   0.866   3.828   0.458 -3.5366  2.9743 -0.0174
 7999SOL    HW234467   0.770   3.696   0.465 -0.3639  0.5675 -0.6619
 8000SOL     OW34468   9.148   8.032   0.496  0.1993 -0.7001 -0.0623
 8000SOL    HW134469   9.235   7.987   0.472  1.6154  1.3480  1.1539
 8000SOL    HW234470   9.141   8.119   0.447 -2.2248 -1.8478 -1.8694
 8001SOL     OW34471   2.404   1.145   2.631  0.3429  0.4649 -0.6071
 8001SOL    HW134472   2.484   1.092   2.602  0.3236  0.0252  0.1250
 8001SOL    HW234473   2.426   1.242   2.632  0.8769  0.3419 -0.4001
 8002SOL     OW34474   8.564   9.013   2.246  0.5009 -0.3010 -0.0879
 8002SOL    HW134475   8.570   8.989   2.343 -1.5041  1.8315  0.6157
 8002SOL    HW234476   8.552   8.930   2.192  1.1555 -1.4775  1.5224
 8003SOL     OW34477   0.157   8.342   2.894 -0.0341 -0.1984 -0.3145
 8003SOL    HW134478   0.241   8.382   2.859 -0.0127 -0.7978 -0.9490
 8003SOL    HW234479   0.172   8.310   2.987  1.1041 -2.3778 -1.2195
 8004SOL     OW34480   2.531   9.954   0.474 -0.5145 -0.0301 -0.2397
 8004SOL    HW134481   2.534  10.010   0.391 -0.0895 -0.3365 -0.4326
 8004SOL    HW234482   2.435   9.939   0.500 -0.6487  0.1314 -0.6299
 8005SOL     OW34483   0.703   9.562   0.170 -0.0424  0.1765  0.1258
 8005SOL    HW134484   0.630   9.577   0.237 -0.0831  0.2078  0.0741
 8005SOL    HW234485   0.681   9.609   0.085  0.4937  0.9758  0.4232
 8006SOL     OW34486   7.205   0.246   3.051 -0.8969  0.6893  0.2696
 8006SOL    HW134487   7.276   0.254   3.121 -0.0976 -1.5924 -0.2439
 8006SOL    HW234488   7.147   0.166   3.072  0.0691 -0.7250 -2.2746
 8007SOL     OW34489   3.681   6.076   3.474 -0.4994 -0.3412  0.4141
 8007SOL    HW134490   3.641   6.057   3.564 -1.2987  2.7942  0.7986
 8007SOL    HW234491   3.635   6.155   3.433  1.6231 -0.0820 -1.5996
 8008SOL     OW34492   8.397   2.360   3.089 -0.1184  0.0744  0.4661
 8008SOL    HW134493   8.367   2.332   2.997  0.5526 -0.6952  0.4689
 8008SOL    HW234494   8.338   2.318   3.157  0.8820 -1.3762  0.4695
 8009SOL     OW34495   6.679   7.662   1.736 -0.0823  0.4845 -0.0650
 8009SOL    HW134496   6.609   7.718   1.692 -0.4215 -0.4576 -0.7585
 8009SOL    HW234497   6.651   7.566   1.734  0.0673  0.3821  1.9314
 8010SOL     OW34498   4.669   1.727   2.271  0.4461  0.5084 -0.6965
 8010SOL    HW134499   4.762   1.689   2.271  0.7067  1.1262 -1.9191
 8010SOL    HW234500   4.668   1.812   2.219 -0.8616  0.3714 -0.9052
 8011SOL     OW34501   9.154   3.900   0.197 -0.1499 -0.0705 -0.2937
 8011SOL    HW134502   9.105   3.813   0.187 -0.0770  0.1505 -2.8444
 8011SOL    HW234503   9.228   3.904   0.130 -1.0527  2.5516 -1.1707
 8012SOL     OW34504   9.250   6.779   2.884 -0.1515 -0.4090  0.5868
 8012SOL    HW134505   9.185   6.800   2.957  1.0994  0.5356  1.4277
 8012SOL    HW234506   9.227   6.834   2.803  0.8663  1.4908  1.5725
 8013SOL     OW34507   0.763   9.820   0.524  0.0955 -0.5688 -0.4776
 8013SOL    HW134508   0.785   9.805   0.621  1.6482  0.3033 -0.6747
 8013SOL    HW234509   0.833   9.778   0.467  0.1266  0.4319 -1.1871
 8014SOL     OW34510   6.714   9.408   2.567  0.1806 -0.1585 -0.6007
 8014SOL    HW134511   6.702   9.391   2.665  0.3201  0.2190 -0.5147
 8014SOL    HW234512   6.625   9.414   2.524  0.0230  2.3801 -0.0081
 8015SOL     OW34513   2.947   6.183   3.982 -0.3159  0.5913  1.1530
 8015SOL    HW134514   2.994   6.225   4.059  1.7314 -0.5188  0.5521
 8015SOL    HW234515   3.011   6.123   3.933 -2.1751 -0.3773 -0.1288
 8016SOL     OW34516   1.218   5.428   1.290 -0.4089 -0.2066 -0.0012
 8016SOL    HW134517   1.293   5.478   1.332 -0.4648 -0.1428  0.0232
 8016SOL    HW234518   1.132   5.457   1.331 -0.5159  0.2725 -0.5477
 8017SOL     OW34519   9.721   5.308   2.594 -0.2529  0.1559  0.5016
 8017SOL    HW134520   9.642   5.297   2.533 -1.4976  2.2337  1.6656
 8017SOL    HW234521   9.698   5.374   2.665  2.4808  0.5621  1.0366
 8018SOL     OW34522   8.211   2.153   1.065 -0.2864  0.0446  0.8131
 8018SOL    HW134523   8.289   2.198   1.108 -0.7097  0.0137  1.6255
 8018SOL    HW234524   8.158   2.220   1.014  0.5043 -0.0126 -0.0957
 8019SOL     OW34525   8.504   2.823   0.254  0.2421  0.1124 -0.0066
 8019SOL    HW134526   8.571   2.897   0.257 -0.7971  1.0754 -0.2807
 8019SOL    HW234527   8.545   2.743   0.210  1.6235  0.2520  1.0142
 8020SOL     OW34528   0.913   3.799   3.732 -0.4090  0.0931  0.1800
 8020SOL    HW134529   0.844   3.726   3.727  0.3581 -0.7437  1.3517
 8020SOL    HW234530   0.949   3.817   3.641 -1.5152 -0.1113 -0.3045
 8021SOL     OW34531   3.718   6.145   2.484  0.9233 -0.0393  0.2220
 8021SOL    HW134532   3.740   6.118   2.577  2.0060 -0.1635 -0.0697
 8021SOL    HW234533   3.643   6.088   2.449  1.8588 -1.3385  0.3083
 8022SOL     OW34534   0.418   3.724   3.872 -0.8373  0.2364  0.1314
 8022SOL    HW134535   0.411   3.789   3.948 -0.6530 -0.0865  0.4219
 8022SOL    HW234536   0.368   3.760   3.793 -1.9121  0.0894  0.7382
 8023SOL     OW34537   8.254   0.213   0.161 -0.0147  0.0274 -0.0535
 8023SOL    HW134538   8.330   0.210   0.096  1.6491  2.0896  1.7434
 8023SOL    HW234539   8.274   0.152   0.238 -0.7072 -0.2722 -0.1093
 8024SOL     OW34540   0.404   1.719   1.727  0.7883  0.1844  0.0731
 8024SOL    HW134541   0.461   1.776   1.669 -0.6430  1.0344 -0.5043
 8024SOL    HW234542   0.382   1.768   1.812  0.4289  0.0978  0.0339
 8025SOL     OW34543   8.513   5.775   1.332  0.2428  0.0770  0.4090
 8025SOL    HW134544   8.466   5.751   1.247  1.1031 -1.5833  0.3923
 8025SOL    HW234545   8.591   5.834   1.312  0.2065  0.0109  0.0756
 8026SOL     OW34546   4.801   9.898   3.760  0.1571 -0.0948 -0.1209
 8026SOL    HW134547   4.711   9.891   3.802  0.3021 -1.4659 -0.0355
 8026SOL    HW234548   4.854   9.968   3.808 -0.8338  0.6893 -0.1475
 8027SOL     OW34549   4.715   8.635   2.693  0.3753 -0.1173  0.2836
 8027SOL    HW134550   4.629   8.658   2.740  0.9793  0.1345  1.2697
 8027SOL    HW234551   4.746   8.714   2.639  1.7229  0.9595  2.5713
 8028SOL     OW34552   3.220   5.000   3.930  0.1272  0.3373 -0.6835
 8028SOL    HW134553   3.289   4.947   3.881  0.1740  0.3562 -0.6377
 8028SOL    HW234554   3.259   5.034   4.016  0.0756  0.3864 -0.6794
 8029SOL     OW34555   3.430   4.695   1.691  0.1973  0.5848  0.8315
 8029SOL    HW134556   3.403   4.730   1.781  1.6989  1.2546  1.0326
 8029SOL    HW234557   3.348   4.678   1.636 -0.7919 -0.7828  2.6649
 8030SOL     OW34558   4.592   7.261   2.929  0.7594  0.3468 -0.2016
 8030SOL    HW134559   4.518   7.326   2.912  1.0843  0.5105 -1.0074
 8030SOL    HW234560   4.576   7.215   3.016  0.5470  1.5351  0.4008
 8031SOL     OW34561   2.375   5.548   2.362 -0.5243 -0.4325  0.0069
 8031SOL    HW134562   2.404   5.605   2.286  1.3601 -0.4975  0.6571
 8031SOL    HW234563   2.376   5.602   2.447 -2.0170 -0.5249  0.1050
 8032SOL     OW34564   9.989   3.834   1.337  0.6521 -0.2373 -0.6060
 8032SOL    HW134565   9.946   3.916   1.375 -0.1358 -1.2026  0.6130
 8032SOL    HW234566   9.936   3.801   1.260 -0.0858 -0.6845  0.0907
 8033SOL     OW34567   1.187   3.974   3.554  0.4917  0.4699  0.0143
 8033SOL    HW134568   1.205   3.899   3.490 -0.4056  0.3265 -0.0872
 8033SOL    HW234569   1.088   3.980   3.570  0.5993  1.3561  0.3550
 8034SOL     OW34570   9.333   3.613   0.119  0.0492  1.0108  0.3373
 8034SOL    HW134571   9.375   3.524   0.132 -0.5657  0.9042  1.5727
 8034SOL    HW234572   9.349   3.644   0.025  0.6960 -0.1657  0.0609
 8035SOL     OW34573   3.433   1.925   2.779  0.2392  0.3930  0.3256
 8035SOL    HW134574   3.528   1.955   2.781 -0.4154  2.4873  0.5478
 8035SOL    HW234575   3.405   1.899   2.872  0.5708 -0.1615  0.2719
 8036SOL     OW34576   9.444   8.658   0.381 -0.5660  0.1649 -0.0783
 8036SOL    HW134577   9.409   8.573   0.419  0.2662 -0.2581 -0.2405
 8036SOL    HW234578   9.392   8.682   0.299  0.1984 -1.0143 -0.9150
 8037SOL     OW34579   4.355   9.159   2.006 -0.3012  0.0738  0.0499
 8037SOL    HW134580   4.268   9.125   2.044 -1.1945  1.6429 -0.5912
 8037SOL    HW234581   4.384   9.240   2.056 -1.3101  1.9713 -2.3778
 8038SOL     OW34582   7.780   2.930   0.752  0.3802 -0.2619 -0.6897
 8038SOL    HW134583   7.802   2.953   0.847  0.2817 -0.3813 -0.6374
 8038SOL    HW234584   7.862   2.900   0.704  0.5908  0.6238 -0.8787
 8039SOL     OW34585   6.486   8.084   1.766  0.3321 -0.1155 -0.2761
 8039SOL    HW134586   6.506   7.986   1.771 -1.6952 -0.4036  3.3670
 8039SOL    HW234587   6.404   8.099   1.711 -0.5810 -0.6578  0.9326
 8040SOL     OW34588   9.752   3.535   0.074 -0.3346 -0.7448  0.5378
 8040SOL    HW134589   9.756   3.612   0.138 -2.7651 -0.1299 -0.0202
 8040SOL    HW234590   9.666   3.486   0.086 -0.4710 -1.1060 -1.7533
 8041SOL     OW34591   8.225   0.199   1.383 -0.3411  0.3005 -0.2917
 8041SOL    HW134592   8.128   0.191   1.363 -0.2870 -0.1215 -0.3851
 8041SOL    HW234593   8.269   0.109   1.375 -0.0259  0.4074  0.1808
 8042SOL     OW34594   8.903   0.295   2.372  0.0150  0.0931  0.4639
 8042SOL    HW134595   8.998   0.269   2.353  0.0020 -0.2010  0.8053
 8042SOL    HW234596   8.881   0.378   2.321 -0.1710 -0.9819 -1.2351
 8043SOL     OW34597   3.197   6.792   3.239  0.4927  0.8353 -0.2374
 8043SOL    HW134598   3.269   6.818   3.175 -0.0490  2.3019 -0.2726
 8043SOL    HW234599   3.190   6.861   3.311 -0.5954  0.4972 -0.0099
 8044SOL     OW34600   1.152   7.188   1.535 -0.5069  0.6296 -0.3474
 8044SOL    HW134601   1.202   7.127   1.596  0.8074  0.3948 -1.6241
 8044SOL    HW234602   1.143   7.146   1.445 -0.1018  2.0472 -1.0756
 8045SOL     OW34603   1.614   9.771   2.875 -0.0348 -0.0281  0.0871
 8045SOL    HW134604   1.521   9.734   2.870 -0.4987  0.4576  3.5317
 8045SOL    HW234605   1.680   9.701   2.847 -1.3205 -1.1724 -0.1129
 8046SOL     OW34606   6.878   8.074   2.248 -0.1435 -0.0571 -0.2399
 8046SOL    HW134607   6.808   8.108   2.311 -1.2671 -0.0847 -1.4723
 8046SOL    HW234608   6.844   7.994   2.199  1.0065 -0.5042 -0.3379
 8047SOL     OW34609   4.467   3.764   0.676  0.1911  0.0566 -0.0970
 8047SOL    HW134610   4.377   3.721   0.673  0.0859  0.1700  1.2901
 8047SOL    HW234611   4.457   3.861   0.700  0.6164  0.3056 -0.8868
 8048SOL     OW34612   1.425   1.968   3.031 -0.0388  0.2405 -0.1696
 8048SOL    HW134613   1.444   2.018   3.116 -0.1346  0.5043 -0.3038
 8048SOL    HW234614   1.395   2.032   2.961 -1.6725 -0.2085  0.1052
 8049SOL     OW34615   0.419   8.470   2.800 -0.2032 -0.0577  0.7137
 8049SOL    HW134616   0.416   8.541   2.870 -1.7518 -1.6556  2.3299
 8049SOL    HW234617   0.499   8.412   2.815  0.2861  0.4850  0.2400
 8050SOL     OW34618   4.467   6.880   3.056  0.1068 -0.2237 -0.4655
 8050SOL    HW134619   4.406   6.913   3.128  0.4461  1.1414 -0.7908
 8050SOL    HW234620   4.415   6.831   2.987 -0.3579 -0.6719  0.1970
 8051SOL     OW34621   8.426   7.665   1.676  0.2801  0.3100 -0.2929
 8051SOL    HW134622   8.486   7.716   1.614  0.3627 -0.0033 -0.4716
 8051SOL    HW234623   8.362   7.728   1.721 -0.6017  0.3906 -1.6195
 8052SOL     OW34624   9.787   9.715   0.949 -0.5339  0.0031 -0.5295
 8052SOL    HW134625   9.819   9.771   0.872 -2.1530  1.8396  0.0839
 8052SOL    HW234626   9.791   9.619   0.924  4.8725  0.1063 -0.6936
 8053SOL     OW34627   9.581   6.558   0.581  0.3487 -0.0068 -0.1538
 8053SOL    HW134628   9.505   6.617   0.610 -0.4279 -1.5950  1.1627
 8053SOL    HW234629   9.654   6.614   0.541 -0.7520  1.7302  0.2139
 8054SOL     OW34630   0.110   2.567   2.860 -0.4783  0.2063 -0.0298
 8054SOL    HW134631   0.087   2.471   2.877  0.0275  0.1321  0.2422
 8054SOL    HW234632   0.045   2.625   2.909  1.1189 -0.0137  2.4420
 8055SOL     OW34633   4.546   8.708   1.963  0.2395  0.3360 -0.8949
 8055SOL    HW134634   4.541   8.676   1.868  1.0456  0.3924 -0.9604
 8055SOL    HW234635   4.639   8.696   1.997 -0.4388 -1.2105  0.4445
 8056SOL     OW34636   2.725   5.600   2.817 -0.0196  0.0737  0.2557
 8056SOL    HW134637   2.772   5.667   2.875  1.6770  0.9203 -2.0320
 8056SOL    HW234638   2.772   5.512   2.822  0.1204  0.1436  0.1605
 8057SOL     OW34639   3.811   6.879   3.175 -0.1178 -0.6592  0.2631
 8057SOL    HW134640   3.744   6.817   3.133 -1.1703  0.1718  0.6840
 8057SOL    HW234641   3.846   6.838   3.259  1.0530 -1.7728 -0.7591
 8058SOL     OW34642   7.496   9.065   3.800  0.7489  0.5466 -0.2855
 8058SOL    HW134643   7.440   9.074   3.718  0.4085  0.5216 -0.0546
 8058SOL    HW234644   7.530   9.155   3.828 -0.4640  0.7760  0.4794
 8059SOL     OW34645   2.684   8.739   1.652  0.1208  0.1693 -0.0172
 8059SOL    HW134646   2.741   8.672   1.700  1.0805  1.3073  0.4818
 8059SOL    HW234647   2.699   8.731   1.554 -0.4461 -0.9424 -0.0152
 8060SOL     OW34648   5.857   8.671   1.823 -0.3859  0.8865  0.3270
 8060SOL    HW134649   5.926   8.700   1.889  0.3886 -1.4685  0.6014
 8060SOL    HW234650   5.800   8.600   1.864 -0.9042  0.5301 -0.9960
 8061SOL     OW34651   0.263   4.636   3.862 -0.4171  0.4549 -0.3226
 8061SOL    HW134652   0.187   4.616   3.925  1.2312 -1.1259  1.2463
 8061SOL    HW234653   0.335   4.684   3.912 -0.0245  1.1532 -1.5712
 8062SOL     OW34654   3.695   3.594   2.615  0.2227  0.4163 -0.0090
 8062SOL    HW134655   3.627   3.532   2.653  0.2345  0.0355 -0.6100
 8062SOL    HW234656   3.661   3.688   2.622  0.6520  0.4631  1.8726
 8063SOL     OW34657   5.976   6.929   2.580  0.0751  0.1090  0.3493
 8063SOL    HW134658   6.064   6.952   2.537 -1.8827  2.2134 -2.7814
 8063SOL    HW234659   5.971   6.973   2.670  0.9635  2.8198 -0.8432
 8064SOL     OW34660   2.750   4.073   1.568 -0.2585  0.0450  0.5018
 8064SOL    HW134661   2.739   3.999   1.635  0.7506 -0.7278 -0.1667
 8064SOL    HW234662   2.840   4.065   1.524 -0.3906  1.3122 -0.0223
 8065SOL     OW34663   1.360   9.230   0.707 -0.1461 -0.1308  0.1278
 8065SOL    HW134664   1.379   9.142   0.663 -1.6723 -0.4412  0.0762
 8065SOL    HW234665   1.276   9.268   0.670 -0.5891  0.3725  1.6354
 8066SOL     OW34666   1.310   9.430   3.584 -0.4204 -0.5124 -0.1991
 8066SOL    HW134667   1.329   9.473   3.496 -0.8870  0.3276  0.1092
 8066SOL    HW234668   1.378   9.458   3.651 -0.6786 -0.3140 -0.0177
 8067SOL     OW34669   0.061   1.445   1.792 -0.0429  0.2051 -0.5201
 8067SOL    HW134670   0.058   1.347   1.771  0.9676 -0.0697  0.5724
 8067SOL    HW234671   0.147   1.483   1.757 -0.6234  0.7846 -1.3060
 8068SOL     OW34672   2.046   4.609   2.952  0.3769  0.2053 -0.4817
 8068SOL    HW134673   2.136   4.574   2.926  0.4419 -0.5620  0.7571
 8068SOL    HW234674   2.055   4.671   3.030 -0.2395 -0.3671  0.0490
 8069SOL     OW34675   7.698   3.088   3.602  0.2517 -0.0901  0.5930
 8069SOL    HW134676   7.606   3.064   3.631 -0.3314  0.6954 -0.5816
 8069SOL    HW234677   7.741   3.010   3.557 -0.2571 -0.1005  0.1254
 8070SOL     OW34678   9.980   4.773   3.053 -0.3113  0.3403  0.1375
 8070SOL    HW134679  10.014   4.798   2.963  0.9514 -1.9449 -0.0650
 8070SOL    HW234680   9.897   4.718   3.043  0.1849 -0.4573  0.3145
 8071SOL     OW34681   0.186   6.723   0.668 -0.2496  0.0398  0.1296
 8071SOL    HW134682   0.233   6.704   0.754  0.3662  0.3063 -0.1433
 8071SOL    HW234683   0.087   6.731   0.684  0.0289  1.7898  1.0837
 8072SOL     OW34684   9.400   0.846   2.402  0.2166 -0.4269 -0.2388
 8072SOL    HW134685   9.341   0.849   2.322 -1.1419  1.1183  0.7837
 8072SOL    HW234686   9.355   0.794   2.475  1.4280 -1.7980 -0.4479
 8073SOL     OW34687   1.701   1.852   3.421 -0.2302 -0.4164  0.1824
 8073SOL    HW134688   1.757   1.780   3.463  0.1383  0.8047  1.8307
 8073SOL    HW234689   1.605   1.827   3.429 -0.0610 -1.2416 -0.2390
 8074SOL     OW34690   4.496   8.317   0.589  0.3401  0.0187  0.4152
 8074SOL    HW134691   4.506   8.226   0.549 -1.0455 -0.4143  1.0447
 8074SOL    HW234692   4.460   8.309   0.682 -0.8637  1.2529  0.0690
 8075SOL     OW34693   0.431   6.185   3.394  0.2709 -0.1848 -0.4292
 8075SOL    HW134694   0.482   6.259   3.350 -0.2074  0.0951 -0.5141
 8075SOL    HW234695   0.437   6.194   3.493  1.1742 -0.6957 -0.4313
 8076SOL     OW34696   1.486   2.802   3.840 -0.1292  0.4471  0.4289
 8076SOL    HW134697   1.512   2.864   3.767  1.6870 -0.5138  0.2154
 8076SOL    HW234698   1.567   2.781   3.897 -1.0531 -0.4323  1.4518
 8077SOL     OW34699   0.582   8.142   3.679 -0.7807 -0.5048  0.4448
 8077SOL    HW134700   0.636   8.216   3.722  1.5932 -0.4365 -2.4798
 8077SOL    HW234701   0.632   8.056   3.687 -0.6012 -0.6059 -1.5679
 8078SOL     OW34702   0.087   0.690   1.134  0.2986 -0.4331 -0.0725
 8078SOL    HW134703   0.180   0.654   1.147  0.0159 -0.7697  1.1509
 8078SOL    HW234704   0.021   0.616   1.147 -0.0760 -0.6581 -3.0133
 8079SOL     OW34705   8.258   1.214   3.237  0.0805 -0.2429  0.3080
 8079SOL    HW134706   8.209   1.302   3.238 -1.0356 -0.8426  0.0039
 8079SOL    HW234707   8.289   1.194   3.144  2.6633  1.0643  0.8507
 8080SOL     OW34708   1.910   8.131   3.281  0.4554 -0.2834  0.2952
 8080SOL    HW134709   1.860   8.215   3.300 -0.4692 -0.9832  1.0612
 8080SOL    HW234710   1.939   8.130   3.185  1.5188  1.4171  0.5911
 8081SOL     OW34711   1.861   7.696   3.788 -0.4448 -0.5424  0.0665
 8081SOL    HW134712   1.882   7.638   3.867 -1.1534  0.0486  0.7103
 8081SOL    HW234713   1.935   7.691   3.721 -0.5255 -2.1952  0.0996
 8082SOL     OW34714   7.501   8.685   0.294 -0.3329 -0.2223 -0.0062
 8082SOL    HW134715   7.424   8.735   0.334 -1.8165 -1.2624 -1.4768
 8082SOL    HW234716   7.575   8.680   0.361 -1.2115  1.5089  1.1552
 8083SOL     OW34717   4.383   3.326   1.767 -0.2432  0.5462  0.6425
 8083SOL    HW134718   4.338   3.388   1.702  0.1314  0.6562  0.4874
 8083SOL    HW234719   4.363   3.231   1.741 -2.7944  0.5950  2.2677
 8084SOL     OW34720   3.265   1.296   0.946 -0.0283  0.0545 -0.0634
 8084SOL    HW134721   3.332   1.230   0.912 -0.1315  1.2090 -2.6563
 8084SOL    HW234722   3.312   1.380   0.973 -0.0832 -0.4073  1.4812
 8085SOL     OW34723   7.852   8.543   2.980 -0.3923 -0.0489  0.0346
 8085SOL    HW134724   7.875   8.522   2.885 -0.5708 -1.1445  0.2254
 8085SOL    HW234725   7.759   8.581   2.984 -0.1227  0.6409 -0.3037
 8086SOL     OW34726   3.834   4.162   0.370  0.4238 -0.1223 -0.4123
 8086SOL    HW134727   3.911   4.204   0.417 -1.5749  0.0674  2.8417
 8086SOL    HW234728   3.810   4.217   0.289  1.3096  1.9042  0.6769
 8087SOL     OW34729   4.183   0.702   2.441  0.1151 -0.4036 -0.3631
 8087SOL    HW134730   4.261   0.639   2.441 -0.2410 -0.8562  0.1552
 8087SOL    HW234731   4.118   0.673   2.511  0.6086  1.3675  0.8509
 8088SOL     OW34732   2.944   8.019   3.316  0.2526 -0.1381  0.3106
 8088SOL    HW134733   2.867   7.957   3.330  0.1095 -0.2987 -1.1138
 8088SOL    HW234734   3.026   7.980   3.358 -0.0316 -0.8681  0.1988
 8089SOL     OW34735   6.554   7.198   2.555  0.5693 -0.0250  0.1312
 8089SOL    HW134736   6.565   7.264   2.481 -0.0426 -0.5736 -0.4691
 8089SOL    HW234737   6.590   7.235   2.640  0.0825  1.1433 -0.1653
 8090SOL     OW34738   1.815   6.919   3.606 -0.6649  0.0957  0.7695
 8090SOL    HW134739   1.759   6.876   3.535  0.2306 -2.4594  1.5487
 8090SOL    HW234740   1.762   6.925   3.691 -1.3457  2.0885  0.2190
 8091SOL     OW34741   2.209   7.408   3.444  0.1229 -0.5042 -0.0450
 8091SOL    HW134742   2.229   7.504   3.427 -1.4976 -0.2363 -0.4564
 8091SOL    HW234743   2.289   7.353   3.419  1.6601  0.8437  1.6888
 8092SOL     OW34744   0.477   5.463   1.207  0.6456 -0.3920 -0.2032
 8092SOL    HW134745   0.384   5.434   1.226  0.5861  0.0680  0.2137
 8092SOL    HW234746   0.503   5.433   1.115 -0.3316  0.5024 -0.7928
 8093SOL     OW34747   0.918   8.862   2.984 -0.0887 -0.0547  0.0355
 8093SOL    HW134748   0.944   8.936   2.922 -1.3268 -0.1146 -0.5887
 8093SOL    HW234749   0.955   8.776   2.950 -0.4506 -0.0302 -0.4328
 8094SOL     OW34750   9.142   5.095   1.895  0.1997 -0.7129 -0.1170
 8094SOL    HW134751   9.147   5.071   1.798  1.3808 -2.1591  0.2698
 8094SOL    HW234752   9.047   5.093   1.925 -0.1622 -0.4244 -1.2064
 8095SOL     OW34753   0.489   9.518   2.321  0.4623  0.1148  0.0097
 8095SOL    HW134754   0.535   9.606   2.308 -0.2633  0.8397  2.2121
 8095SOL    HW234755   0.557   9.449   2.349  0.7238  0.4168  0.1253
 8096SOL     OW34756   0.562   5.714   1.277  0.1313  0.3146  0.4988
 8096SOL    HW134757   0.504   5.760   1.209  1.4454 -0.6856 -1.3342
 8096SOL    HW234758   0.525   5.623   1.296  0.3316  0.2018  0.3514
 8097SOL     OW34759   8.024   4.882   0.938 -0.3894  0.8431  0.0703
 8097SOL    HW134760   7.999   4.785   0.946  0.1845  0.7242  0.4212
 8097SOL    HW234761   8.088   4.906   1.011  1.0590  0.9698 -1.2089
 8098SOL     OW34762   9.660   9.383   2.044  0.4486 -0.2008 -0.1851
 8098SOL    HW134763   9.562   9.388   2.027  0.5008 -1.5784 -0.9411
 8098SOL    HW234764   9.677   9.389   2.143 -0.4116 -0.3013 -0.0268
 8099SOL     OW34765   8.973   5.983   2.532 -0.6038 -0.4864 -0.5477
 8099SOL    HW134766   8.983   6.027   2.621 -1.0491 -1.4755 -0.0029
 8099SOL    HW234767   9.057   5.995   2.479 -0.2807 -0.0389  0.0602
 8100SOL     OW34768   8.476   2.406   1.420 -0.2015 -0.3787 -0.6651
 8100SOL    HW134769   8.473   2.486   1.359  2.4872 -0.1288 -0.5390
 8100SOL    HW234770   8.472   2.437   1.515  0.3221 -0.4113 -0.6291
 8101SOL     OW34771   3.034   9.329   0.583  0.0611  0.1209 -0.2697
 8101SOL    HW134772   2.958   9.344   0.647 -0.0975  1.3781 -0.7433
 8101SOL    HW234773   3.016   9.378   0.498  2.5063  2.4765  0.4794
 8102SOL     OW34774   1.801   6.436   0.034  0.0929  0.1435  0.2461
 8102SOL    HW134775   1.709   6.471   0.014  0.2615  0.4554 -0.0018
 8102SOL    HW234776   1.860   6.513   0.060  0.2232 -0.0875  0.6301
 8103SOL     OW34777   9.250   4.086   0.406 -0.2950  0.0602  0.0715
 8103SOL    HW134778   9.217   4.066   0.498 -0.0568  0.4547  0.2423
 8103SOL    HW234779   9.194   4.037   0.339 -2.2241  1.9203  0.2773
 8104SOL     OW34780   7.980   8.754   2.590  0.3309  0.1315  0.3311
 8104SOL    HW134781   7.891   8.787   2.560  0.6407  1.0029  0.3644
 8104SOL    HW234782   7.977   8.736   2.688 -0.2415 -1.2834  0.0652
 8105SOL     OW34783   3.582   8.115   1.587  0.5945 -0.1844  0.0524
 8105SOL    HW134784   3.655   8.177   1.559  0.7685 -0.3902  0.0483
 8105SOL    HW234785   3.552   8.061   1.508 -0.4451  0.7950 -0.2398
 8106SOL     OW34786   4.387   0.616   0.744  0.3865 -0.0190  0.4529
 8106SOL    HW134787   4.356   0.692   0.687  0.1426 -0.3014  0.2073
 8106SOL    HW234788   4.392   0.533   0.689  1.8154  0.0691  0.4323
 8107SOL     OW34789   9.874   2.113   2.220 -0.3420 -0.1247  0.0522
 8107SOL    HW134790   9.882   2.020   2.185 -1.4308 -0.1198 -0.2390
 8107SOL    HW234791   9.875   2.178   2.144  1.6254  0.1963  0.3324
 8108SOL     OW34792   2.937   8.886   2.832  0.2415 -0.3858 -0.3539
 8108SOL    HW134793   2.895   8.928   2.912 -1.3536  0.0501 -1.3920
 8108SOL    HW234794   3.008   8.945   2.796  0.3335 -0.1592  0.2026
 8109SOL     OW34795   4.605   8.019   1.247  0.1701  0.1409 -0.0938
 8109SOL    HW134796   4.508   8.024   1.222  0.6566 -0.3891 -2.1414
 8109SOL    HW234797   4.632   8.105   1.290 -1.0421  0.5365 -0.0923
 8110SOL     OW34798   2.461   0.398   2.874 -0.6259 -0.3831  0.0181
 8110SOL    HW134799   2.530   0.410   2.945 -2.4392  0.0470  1.7530
 8110SOL    HW234800   2.502   0.415   2.785  1.2419  0.8816  1.0797
 8111SOL     OW34801   2.779   2.165   0.743 -0.0162  0.7214  0.3382
 8111SOL    HW134802   2.775   2.265   0.750 -0.6702  0.6881  0.5618
 8111SOL    HW234803   2.714   2.134   0.673  1.8437  0.6015 -1.3892
 8112SOL     OW34804   3.263   2.172   2.977 -0.2638 -0.2254 -0.4909
 8112SOL    HW134805   3.300   2.258   2.942  0.3606 -1.4787 -3.0245
 8112SOL    HW234806   3.335   2.102   2.978 -1.0955 -1.0905  0.2626
 8113SOL     OW34807   9.451   0.250   3.697 -0.1935 -0.3680  0.0861
 8113SOL    HW134808   9.449   0.262   3.796 -0.5972  1.6223 -0.1420
 8113SOL    HW234809   9.363   0.216   3.665 -0.6341  0.6296  0.2260
 8114SOL     OW34810   4.035   8.396   0.549  0.0813  0.5754  0.1522
 8114SOL    HW134811   4.026   8.491   0.580  0.0260  0.2215  1.2625
 8114SOL    HW234812   4.129   8.380   0.519  0.3819  0.6950  0.9957
 8115SOL     OW34813   3.291   6.769   0.778 -0.4080  0.0592 -0.4344
 8115SOL    HW134814   3.218   6.796   0.715 -0.8933 -2.0643 -0.7969
 8115SOL    HW234815   3.250   6.737   0.864  0.1722  0.6329  0.0620
 8116SOL     OW34816   0.500   8.001   2.738 -0.4107 -0.5454  0.8553
 8116SOL    HW134817   0.528   7.907   2.720 -0.5795 -0.8296  2.0091
 8116SOL    HW234818   0.403   8.011   2.716  0.1894  0.0557 -1.7346
 8117SOL     OW34819   2.047   2.805   2.505  0.6031 -0.7294  0.2204
 8117SOL    HW134820   1.954   2.804   2.468 -0.3940  0.8488  2.6050
 8117SOL    HW234821   2.108   2.849   2.440 -0.2891 -1.7458 -1.3512
 8118SOL     OW34822   8.399   0.137   3.692 -0.0100  0.2743 -0.0092
 8118SOL    HW134823   8.431   0.216   3.744  2.5370 -0.2319 -0.7303
 8118SOL    HW234824   8.460   0.121   3.614 -0.1110 -2.7218  0.4315
 8119SOL     OW34825   3.216   0.351   1.202  0.1629  0.3086 -0.0316
 8119SOL    HW134826   3.221   0.409   1.283 -0.6871 -0.0636  0.2955
 8119SOL    HW234827   3.270   0.268   1.217 -0.1055  0.1772  0.2076
 8120SOL     OW34828   5.976   8.018   2.444  0.1480 -0.1955  0.0086
 8120SOL    HW134829   5.930   7.984   2.526 -0.6771  3.9515  1.3491
 8120SOL    HW234830   5.910   8.024   2.369 -0.0827  0.0668  0.2335
 8121SOL     OW34831   9.833   4.154   3.161 -0.1493 -0.1673 -0.4822
 8121SOL    HW134832   9.757   4.100   3.196 -0.3258  0.1330 -0.3993
 8121SOL    HW234833   9.919   4.106   3.177 -0.4210 -1.1027 -1.7048
 8122SOL     OW34834   9.502   7.886   3.197 -0.0325 -0.1169 -0.1066
 8122SOL    HW134835   9.430   7.817   3.186  2.2634 -2.1618 -3.1574
 8122SOL    HW234836   9.528   7.922   3.107  1.9660  1.4553  1.0511
 8123SOL     OW34837   8.103   4.201   0.627 -0.0525  0.1891 -0.1767
 8123SOL    HW134838   8.109   4.278   0.691 -0.0311  0.0504 -0.0131
 8123SOL    HW234839   8.009   4.168   0.625  0.1576 -0.4770  0.5645
 8124SOL     OW34840   0.257   2.658   0.948  0.0002  0.0840 -0.1170
 8124SOL    HW134841   0.181   2.720   0.969  1.5678  2.0504 -0.0722
 8124SOL    HW234842   0.294   2.681   0.858  0.5531 -0.8452 -0.1302
 8125SOL     OW34843   0.846   4.712   2.946  0.9052 -0.4554  0.1236
 8125SOL    HW134844   0.770   4.772   2.921  1.9428  1.5998  1.7267
 8125SOL    HW234845   0.924   4.768   2.975  2.3936 -2.5699  0.3112
 8126SOL     OW34846   3.155   4.448   2.379  0.4063  0.1924  0.1792
 8126SOL    HW134847   3.102   4.380   2.429  1.5415  0.2428  1.5033
 8126SOL    HW234848   3.137   4.539   2.416  2.4941  0.0487  1.6637
 8127SOL     OW34849   3.502   6.305   3.465  0.5625 -0.3353 -0.3225
 8127SOL    HW134850   3.564   6.351   3.529  0.7004  0.7234 -1.2064
 8127SOL    HW234851   3.409   6.308   3.502  0.6976 -0.0392  0.0028
 8128SOL     OW34852   9.292   3.989   1.579  0.2574  0.0756 -0.6545
 8128SOL    HW134853   9.263   4.084   1.592  3.0328  0.8643  0.0155
 8128SOL    HW234854   9.213   3.935   1.550 -1.6360  2.3284  0.0636
 8129SOL     OW34855   7.384   9.360   3.661  0.0775  0.0215 -0.2644
 8129SOL    HW134856   7.351   9.285   3.603 -0.2817  0.4467 -0.6127
 8129SOL    HW234857   7.323   9.370   3.740 -0.5902  0.7576 -0.8681
 8130SOL     OW34858   7.671   2.045   3.488  0.0243 -0.6078  0.0290
 8130SOL    HW134859   7.598   2.099   3.530  0.1469  0.2015 -0.7931
 8130SOL    HW234860   7.735   2.015   3.559 -0.8859 -0.9750  0.6925
 8131SOL     OW34861   1.014   2.548   2.193  0.2669  0.2159 -0.0256
 8131SOL    HW134862   1.008   2.602   2.277 -2.7401 -0.1202  0.0087
 8131SOL    HW234863   1.051   2.458   2.215 -0.1742  0.2504  0.8736
 8132SOL     OW34864   9.015   6.757   1.304 -0.4579  0.5832  0.2281
 8132SOL    HW134865   9.059   6.819   1.369  2.6697 -0.5548 -0.6939
 8132SOL    HW234866   9.005   6.667   1.346  2.0491 -0.2982 -0.9466
 8133SOL     OW34867   4.262   1.796   0.178  0.9218  0.1544 -0.6246
 8133SOL    HW134868   4.342   1.836   0.222  0.9978 -0.5033 -0.1563
 8133SOL    HW234869   4.275   1.697   0.169 -0.2728 -0.0995  0.3818
 8134SOL     OW34870   2.818   9.009   3.051 -0.1723 -0.0969 -0.2167
 8134SOL    HW134871   2.734   9.049   3.015 -1.6062 -3.9056 -1.2622
 8134SOL    HW234872   2.796   8.941   3.120  2.0766 -1.0287 -0.3737
 8135SOL     OW34873   9.592   8.420   2.283 -0.4755 -0.1303  0.2839
 8135SOL    HW134874   9.641   8.471   2.354 -0.4819  0.5862 -0.2207
 8135SOL    HW234875   9.516   8.475   2.249  0.6236  0.3020 -1.5624
 8136SOL     OW34876   5.463   7.781   2.618  0.0668  0.4874 -0.3374
 8136SOL    HW134877   5.499   7.752   2.529 -0.8405  1.2642 -0.9656
 8136SOL    HW234878   5.379   7.834   2.605  0.8794  2.1354  0.8583
 8137SOL     OW34879   1.582   8.486   1.281  0.3225  0.3817  0.3318
 8137SOL    HW134880   1.489   8.502   1.314 -0.1729 -0.6317 -0.5133
 8137SOL    HW234881   1.606   8.389   1.295  0.6790  0.2947 -0.8158
 8138SOL     OW34882   1.983   7.589   2.128 -0.2205  0.1613 -0.2753
 8138SOL    HW134883   1.922   7.649   2.181  1.3393  1.0794  0.5121
 8138SOL    HW234884   1.964   7.494   2.151  0.8347  0.5486  2.4587
 8139SOL     OW34885   3.743   8.758   2.956 -0.1274 -0.6224 -1.0271
 8139SOL    HW134886   3.687   8.683   2.991  0.1786 -0.9106 -1.1524
 8139SOL    HW234887   3.732   8.838   3.014  0.2912 -1.0638 -0.3292
 8140SOL     OW34888   1.980   2.237   0.871  0.1411 -0.3821  0.0125
 8140SOL    HW134889   1.966   2.169   0.943  0.4689 -1.3233 -0.7976
 8140SOL    HW234890   1.977   2.329   0.910 -2.1469 -0.7821  0.8497
 8141SOL     OW34891   2.810   8.816   3.245 -0.2568 -0.1577 -0.1922
 8141SOL    HW134892   2.749   8.742   3.273  1.5122 -1.8193 -0.6686
 8141SOL    HW234893   2.877   8.834   3.317  1.2228 -1.1111 -1.2978
 8142SOL     OW34894   8.499   3.096   1.037  0.5093  0.1547  0.1915
 8142SOL    HW134895   8.593   3.061   1.045 -0.1224 -1.5587  0.1921
 8142SOL    HW234896   8.473   3.099   0.940  1.1729  2.3601  0.0280
 8143SOL     OW34897   4.126   8.132   2.899 -0.1726 -0.3090 -0.5719
 8143SOL    HW134898   4.155   8.047   2.942 -1.5077 -0.1787  0.6437
 8143SOL    HW234899   4.199   8.200   2.906 -0.0563 -0.5609  0.7664
 8144SOL     OW34900   1.470   6.265   3.614  0.0414 -0.0313  0.0671
 8144SOL    HW134901   1.521   6.231   3.693  1.4720  1.4029 -0.2146
 8144SOL    HW234902   1.373   6.269   3.636 -0.0877 -3.5043  0.3815
 8145SOL     OW34903   0.790   9.864   3.198  0.6922 -0.1195 -0.2713
 8145SOL    HW134904   0.721   9.809   3.152 -1.7271 -1.1245  4.2910
 8145SOL    HW234905   0.853   9.805   3.248  0.9135  1.0186  0.8467
 8146SOL     OW34906   2.112   3.734   1.892 -0.1710 -0.1460  0.1110
 8146SOL    HW134907   2.195   3.778   1.856 -0.3907 -0.6869 -1.1083
 8146SOL    HW234908   2.083   3.780   1.976  0.6808  0.8228 -0.1122
 8147SOL     OW34909   1.450   0.680   1.065 -0.0060 -0.2239 -0.4344
 8147SOL    HW134910   1.509   0.760   1.063  0.8074 -0.8052  0.2992
 8147SOL    HW234911   1.469   0.623   0.985  0.0103 -0.1201 -0.5048
 8148SOL     OW34912   3.149   0.988   3.500 -0.1187  0.0186 -0.1297
 8148SOL    HW134913   3.214   1.000   3.425 -1.0717 -0.6228 -1.0636
 8148SOL    HW234914   3.079   1.059   3.495  0.3167  0.5170  0.6894
 8149SOL     OW34915   0.725   2.438   2.331  0.5299  0.4649 -0.1224
 8149SOL    HW134916   0.734   2.440   2.232 -0.4115  3.2847 -0.1840
 8149SOL    HW234917   0.630   2.414   2.356  0.2536  1.7461  0.0641
 8150SOL     OW34918   9.089   1.438   0.685  0.2534 -0.5163 -0.7332
 8150SOL    HW134919   9.054   1.355   0.730  0.6767 -0.8510 -1.0191
 8150SOL    HW234920   9.133   1.496   0.754 -0.1404 -0.4789 -0.5126
 8151SOL     OW34921   0.181   6.395   1.139  0.2828  0.5386  0.5019
 8151SOL    HW134922   0.154   6.312   1.188  0.2695 -0.4598 -1.1563
 8151SOL    HW234923   0.249   6.372   1.070  2.3929  2.3758  1.8890
 8152SOL     OW34924   3.126   6.748   2.609 -0.7674 -0.5012  0.1127
 8152SOL    HW134925   3.106   6.777   2.703 -0.0438  0.7435 -0.1097
 8152SOL    HW234926   3.161   6.654   2.610  0.7032  0.0451  1.2497
 8153SOL     OW34927   3.985   7.226   3.871  0.4860  0.7469 -0.6020
 8153SOL    HW134928   3.888   7.202   3.877  0.1115  2.0543 -1.3104
 8153SOL    HW234929   4.036   7.175   3.940 -0.5988 -0.4790 -0.6830
 8154SOL     OW34930   3.318   0.745   1.235 -0.0803 -0.0534 -0.1010
 8154SOL    HW134931   3.388   0.799   1.281  0.9794 -0.6809 -0.9591
 8154SOL    HW234932   3.360   0.687   1.166 -1.3893 -0.8227 -0.2763
 8155SOL     OW34933   8.517   8.870   1.722  0.4179 -0.0934 -0.5196
 8155SOL    HW134934   8.605   8.824   1.708 -0.4372 -1.7996 -0.4515
 8155SOL    HW234935   8.488   8.913   1.636  1.4656  0.7781 -0.4528
 8156SOL     OW34936   3.237   5.650   3.940 -0.6917 -0.3360  0.2196
 8156SOL    HW134937   3.252   5.552   3.933 -1.0042 -0.2597 -2.0079
 8156SOL    HW234938   3.178   5.670   4.018  0.8918 -1.7199  1.8355
 8157SOL     OW34939   4.829   8.355   0.988 -0.5804  0.1351  0.2996
 8157SOL    HW134940   4.885   8.280   0.952 -0.8314  0.6299 -1.1610
 8157SOL    HW234941   4.884   8.414   1.046  0.1562  0.0378 -0.3011
 8158SOL     OW34942   0.409   4.560   0.820 -0.1110  0.3675  0.2540
 8158SOL    HW134943   0.505   4.530   0.819 -0.0565  0.5388  0.3227
 8158SOL    HW234944   0.356   4.498   0.877 -0.0318  0.2975  0.2527
 8159SOL     OW34945   2.543   1.927   3.815  0.0274  0.0438 -0.3977
 8159SOL    HW134946   2.607   2.001   3.834  1.0885 -0.5770 -1.4669
 8159SOL    HW234947   2.486   1.951   3.737 -2.2010  1.2790  1.5263
 8160SOL     OW34948   3.954   7.411   1.744  0.4891 -0.5620 -0.0732
 8160SOL    HW134949   3.855   7.392   1.747  0.7442 -1.8753  0.3871
 8160SOL    HW234950   3.969   7.503   1.709 -0.9977  0.3250  1.5321
 8161SOL     OW34951   4.071   3.931   3.965  0.3299 -0.0529  0.4941
 8161SOL    HW134952   4.052   3.965   3.873 -0.0960 -0.1454  0.5473
 8161SOL    HW234953   4.148   3.868   3.962  0.2361 -0.1549  0.1790
 8162SOL     OW34954   4.903   9.642   3.743  0.0577  0.7007 -0.2599
 8162SOL    HW134955   4.972   9.627   3.672  0.7543  0.6581  0.4288
 8162SOL    HW234956   4.903   9.737   3.771  0.7626  0.4179  0.7036
 8163SOL     OW34957   3.629   2.087   0.764 -0.2081  0.4136 -0.2100
 8163SOL    HW134958   3.723   2.067   0.738 -0.8051 -1.3885 -1.0399
 8163SOL    HW234959   3.566   2.036   0.705 -1.6743  0.0759  1.5833
 8164SOL     OW34960   0.831   6.130   1.486 -0.0480  0.2417 -0.2733
 8164SOL    HW134961   0.884   6.148   1.403 -0.6442  2.1415 -0.2521
 8164SOL    HW234962   0.771   6.051   1.470  0.8527 -0.2812 -1.1729
 8165SOL     OW34963   2.333   6.736   2.474 -0.5709  0.5615 -0.0454
 8165SOL    HW134964   2.429   6.763   2.476 -0.3877 -0.1115  0.3750
 8165SOL    HW234965   2.303   6.710   2.566 -0.6191 -1.0545 -0.4969
 8166SOL     OW34966   3.088   2.226   3.465 -0.2924  0.1651 -0.0201
 8166SOL    HW134967   3.153   2.231   3.388 -0.2820 -0.7137 -0.0673
 8166SOL    HW234968   3.072   2.130   3.489 -0.4871  0.4319  0.9177
 8167SOL     OW34969   1.820   2.075   3.923 -0.2019 -0.1651  0.1265
 8167SOL    HW134970   1.912   2.070   3.960  0.1746  0.1689 -0.7631
 8167SOL    HW234971   1.823   2.069   3.823 -1.3074 -2.3883  0.1930
 8168SOL     OW34972   4.583   9.971   0.741  0.1565  0.1376  0.1533
 8168SOL    HW134973   4.586   9.990   0.840  1.1161  0.2723  0.0967
 8168SOL    HW234974   4.547   9.879   0.727  1.2775 -0.3991  0.6948
 8169SOL     OW34975   0.908   7.399   1.715 -0.0447 -0.1663 -0.3012
 8169SOL    HW134976   0.901   7.318   1.774 -0.1499  0.8685  1.1358
 8169SOL    HW234977   0.818   7.442   1.706 -0.4308 -1.4306 -2.8615
 8170SOL     OW34978   4.549   8.660   2.944 -0.5617  0.1172  0.6706
 8170SOL    HW134979   4.459   8.698   2.966 -0.6236  0.6820 -0.5591
 8170SOL    HW234980   4.620   8.716   2.987 -0.7977 -0.7100  2.2012
 8171SOL     OW34981   9.690   6.847   2.629  0.5238 -0.5335 -0.4327
 8171SOL    HW134982   9.613   6.912   2.628  1.8896  1.1423  0.3692
 8171SOL    HW234983   9.662   6.764   2.677  0.1137  1.2592  2.5863
 8172SOL     OW34984   7.334   8.782   0.672  0.2825 -1.0195  1.0241
 8172SOL    HW134985   7.421   8.825   0.697  0.6652 -1.6359  0.7521
 8172SOL    HW234986   7.290   8.836   0.601  1.3678 -1.7549 -0.2251
 8173SOL     OW34987   2.140   9.005   3.012  0.3280  0.0703 -0.6965
 8173SOL    HW134988   2.219   9.012   3.074 -0.8403 -2.1982  1.1442
 8173SOL    HW234989   2.094   9.094   3.007  0.6639  0.4030  1.4605
 8174SOL     OW34990   8.168   4.325   1.255 -0.5528  0.1381 -0.0126
 8174SOL    HW134991   8.209   4.236   1.236 -0.4868  0.5730 -2.0073
 8174SOL    HW234992   8.212   4.366   1.335  1.2752 -0.4534 -0.6903
 8175SOL     OW34993   2.044   9.182   4.024  0.2071  0.2574  0.4505
 8175SOL    HW134994   2.132   9.222   4.050 -0.4074  1.9773 -0.0979
 8175SOL    HW234995   2.045   9.084   4.047  2.4383  0.1348 -0.0365
 8176SOL     OW34996   0.269   0.657   2.970 -0.1122 -0.0975  0.7150
 8176SOL    HW134997   0.269   0.659   2.870 -0.5218  0.6633  0.7251
 8176SOL    HW234998   0.357   0.691   3.004 -0.2341  0.3103  0.6223
 8177SOL     OW34999   0.293   4.657   0.193  0.5769  0.1614 -1.1096
 8177SOL    HW135000   0.254   4.710   0.268  0.2245 -1.5720 -0.0241
 8177SOL    HW235001   0.330   4.719   0.123 -2.0819  1.8311 -1.0995
 8178SOL     OW35002   1.916   5.911   1.683  0.2870 -0.0930 -0.1449
 8178SOL    HW135003   1.840   5.957   1.730  0.0277  0.1129 -0.7654
 8178SOL    HW235004   2.003   5.949   1.715  0.1529 -0.7329  0.9984
 8179SOL     OW35005   1.472   9.015   0.573  0.5664  0.1656 -0.4017
 8179SOL    HW135006   1.571   9.008   0.587  0.2239 -1.1724  1.4269
 8179SOL    HW235007   1.438   8.928   0.536 -0.1081  0.1982  0.1407
 8180SOL     OW35008   1.852   2.935   4.030 -0.4286 -0.5188  0.2280
 8180SOL    HW135009   1.909   2.944   3.948  0.8736  1.2073  1.2885
 8180SOL    HW235010   1.803   2.848   4.027  0.4913 -0.9980 -1.8188
 8181SOL     OW35011   0.480   9.079   2.850  0.5802 -0.1251  0.0962
 8181SOL    HW135012   0.457   9.138   2.773 -0.3991 -1.1415 -0.4069
 8181SOL    HW235013   0.568   9.106   2.887 -0.7428  2.9095  1.1368
 8182SOL     OW35014   9.603   4.654   3.453 -0.4936 -0.2790  0.4566
 8182SOL    HW135015   9.589   4.721   3.526 -1.2736  0.9366 -0.8136
 8182SOL    HW235016   9.681   4.682   3.397 -0.2412 -0.9330  0.4720
 8183SOL     OW35017   2.848   4.777   1.885  0.2555 -0.4252  0.3388
 8183SOL    HW135018   2.861   4.875   1.869  0.7786 -0.3163  1.4009
 8183SOL    HW235019   2.835   4.761   1.983 -0.9773 -1.2960  0.0426
 8184SOL     OW35020   3.211   5.950   1.865 -0.2730  0.4813  0.4604
 8184SOL    HW135021   3.201   5.964   1.767  0.2515 -1.7641  0.0493
 8184SOL    HW235022   3.128   5.907   1.901  1.0128 -2.2458  0.2570
 8185SOL     OW35023   8.223   6.925   1.363  0.1474  0.4756  0.2263
 8185SOL    HW135024   8.312   6.927   1.410  0.1141  0.6432  0.2857
 8185SOL    HW235025   8.151   6.903   1.429  0.2429 -0.4689  0.0150
 8186SOL     OW35026   0.220   6.566   1.953 -0.0034 -0.4283 -0.0250
 8186SOL    HW135027   0.154   6.603   1.888 -0.4128 -0.9245  0.1011
 8186SOL    HW235028   0.174   6.499   2.012  0.2290  0.3882  1.1093
 8187SOL     OW35029   0.659   6.194   3.723  0.3173  0.2579  0.6848
 8187SOL    HW135030   0.723   6.211   3.648 -0.2922  2.3876  0.6262
 8187SOL    HW235031   0.710   6.176   3.807  0.9885 -0.6683  0.0970
 8188SOL     OW35032   9.500   6.021   0.496 -0.1023 -0.3995  0.3030
 8188SOL    HW135033   9.480   6.094   0.561  0.5322  0.9295 -0.9546
 8188SOL    HW235034   9.589   6.038   0.453 -0.5624 -1.1792 -0.9922
 8189SOL     OW35035   3.957   9.907   3.344  0.2570  0.1165  0.4424
 8189SOL    HW135036   4.054   9.887   3.360  0.4358  0.9460  0.4416
 8189SOL    HW235037   3.901   9.847   3.400  0.7122 -1.8649 -1.1522
 8190SOL     OW35038   1.062   0.555   2.504  0.0230  1.0207 -0.1008
 8190SOL    HW135039   0.966   0.535   2.523 -0.1291  0.5508 -1.3256
 8190SOL    HW235040   1.069   0.614   2.424  0.6676  2.9012  1.3061
 8191SOL     OW35041   2.370   4.329   0.705 -0.2717  0.3893 -0.6603
 8191SOL    HW135042   2.284   4.339   0.656 -0.6293 -0.3617 -0.1974
 8191SOL    HW235043   2.423   4.255   0.665 -0.4350 -0.0307 -0.0970
 8192SOL     OW35044   4.430   9.483   2.635 -0.5675 -0.3347  0.2271
 8192SOL    HW135045   4.469   9.473   2.543  0.5820 -0.5387  0.7347
 8192SOL    HW235046   4.483   9.551   2.686 -0.9349 -0.5571  0.9038
 8193SOL     OW35047   7.513   0.217   2.913  0.1126 -0.0943  0.1242
 8193SOL    HW135048   7.461   0.238   2.995 -0.3705 -0.4329 -0.0945
 8193SOL    HW235049   7.452   0.214   2.834  0.4534 -0.5240 -0.1260
 8194SOL     OW35050   9.019   1.862   0.724  0.1650 -0.0348  0.5679
 8194SOL    HW135051   8.951   1.790   0.737  0.3739 -0.1393  1.1099
 8194SOL    HW235052   9.001   1.937   0.787  1.5863 -0.8398  1.9783
 8195SOL     OW35053   9.841   9.637   2.698 -0.0921 -0.0705 -0.2337
 8195SOL    HW135054   9.920   9.676   2.652  1.0499 -2.0575  0.0116
 8195SOL    HW235055   9.804   9.704   2.763  2.1634  0.4314  0.5648
 8196SOL     OW35056   2.023   8.291   0.430 -0.6329 -0.0511  0.5204
 8196SOL    HW135057   1.968   8.266   0.509 -1.7045 -0.5159 -0.3758
 8196SOL    HW235058   2.037   8.211   0.372  0.1312  0.2943  0.2202
 8197SOL     OW35059   0.055   2.173   1.671  0.3171 -0.0311 -0.2328
 8197SOL    HW135060   0.058   2.265   1.710  0.0524  1.0358 -2.6703
 8197SOL    HW235061  -0.037   2.155   1.634  0.2661 -1.4082  0.5489
 8198SOL     OW35062   0.048   8.442   1.262  0.4648 -0.3158 -0.0865
 8198SOL    HW135063  -0.037   8.494   1.269 -0.9263 -2.7053  1.5085
 8198SOL    HW235064   0.117   8.483   1.321 -1.3075 -1.5301  2.9337
 8199SOL     OW35065   0.423   1.678   3.893  0.4003  0.0992  0.0526
 8199SOL    HW135066   0.482   1.627   3.956  0.4944  1.3618  0.9964
 8199SOL    HW235067   0.454   1.773   3.888 -0.2395  0.2535 -1.1207
 8200SOL     OW35068   2.860   0.111   0.259  0.5196  0.0693 -0.3639
 8200SOL    HW135069   2.875   0.209   0.267 -1.9752  0.3151  1.8650
 8200SOL    HW235070   2.848   0.071   0.350  3.3453 -2.6465 -1.0813
 8201SOL     OW35071   3.019   9.439   3.676  0.3540  0.1114  0.0498
 8201SOL    HW135072   3.070   9.485   3.749 -0.1658 -0.4191  0.7424
 8201SOL    HW235073   3.020   9.341   3.692  0.4343 -0.0263 -0.7889
 8202SOL     OW35074   2.497   7.021   1.354 -0.1589 -0.6357  0.2382
 8202SOL    HW135075   2.398   7.032   1.352 -0.0465  0.3335 -0.9783
 8202SOL    HW235076   2.520   6.923   1.351 -1.0894 -0.9418  2.5937
 8203SOL     OW35077   8.504   5.503   2.555  0.6202 -0.1379  0.2568
 8203SOL    HW135078   8.404   5.499   2.559  0.5235  0.8565 -0.8708
 8203SOL    HW235079   8.541   5.411   2.541 -0.1681 -0.4433  0.1767
 8204SOL     OW35080   7.571   6.033   2.543 -0.1697 -0.5125 -0.3285
 8204SOL    HW135081   7.654   6.051   2.490  0.0658 -0.8626 -0.0822
 8204SOL    HW235082   7.532   6.119   2.574  0.8962 -0.4022  0.7661
 8205SOL     OW35083   4.293   2.638   3.459 -0.0162  0.4440  0.1713
 8205SOL    HW135084   4.365   2.698   3.425 -0.1295 -0.2567 -1.3546
 8205SOL    HW235085   4.331   2.576   3.527  0.9336 -0.1947 -0.9258
 8206SOL     OW35086   4.615   8.675   3.406 -0.2137 -0.3829 -0.0812
 8206SOL    HW135087   4.582   8.749   3.465 -0.8770  0.7287 -1.7967
 8206SOL    HW235088   4.540   8.644   3.347 -0.0328 -2.6657  0.8410
 8207SOL     OW35089   9.451   4.352   3.979 -0.0928 -0.1211  0.4011
 8207SOL    HW135090   9.438   4.353   4.078  0.4498 -1.0720  0.4866
 8207SOL    HW235091   9.540   4.390   3.956  1.2039 -2.9647  0.5282
 8208SOL     OW35092   8.712   1.189   2.303 -0.4023  0.1414 -0.1057
 8208SOL    HW135093   8.691   1.154   2.394  0.6733  3.0152  1.3120
 8208SOL    HW235094   8.811   1.188   2.288 -0.2089  3.5596  0.4842
 8209SOL     OW35095   2.803   3.694   1.458  0.3017 -0.4220 -0.2578
 8209SOL    HW135096   2.838   3.688   1.365 -0.3492 -2.4081 -0.4115
 8209SOL    HW235097   2.878   3.702   1.522  0.7508  1.1229 -0.9397
 8210SOL     OW35098   3.821   2.393   0.165 -0.3523 -0.1390  0.2601
 8210SOL    HW135099   3.756   2.330   0.122 -0.3785  0.3533 -0.4210
 8210SOL    HW235100   3.913   2.378   0.128 -0.6258  1.2673 -1.0535
 8211SOL     OW35101   2.625   3.512   2.932  0.2857  0.0756 -0.3885
 8211SOL    HW135102   2.577   3.519   2.845 -0.3550  1.3457  0.0600
 8211SOL    HW235103   2.604   3.424   2.975 -1.9918  0.7792  0.0069
 8212SOL     OW35104   8.571   0.305   0.910 -0.2047 -0.5468  0.1632
 8212SOL    HW135105   8.582   0.394   0.954 -0.7300  1.0775 -2.8567
 8212SOL    HW235106   8.474   0.289   0.891 -0.0166 -1.3771 -0.1119
 8213SOL     OW35107   2.030   1.689   2.778 -0.9217  0.0620 -0.3698
 8213SOL    HW135108   1.977   1.753   2.722 -0.1929 -0.4071 -1.6012
 8213SOL    HW235109   2.004   1.595   2.756 -0.9505 -0.1221  0.4073
 8214SOL     OW35110   9.505   8.757   1.369  0.3532 -0.2607  0.9992
 8214SOL    HW135111   9.500   8.662   1.336  0.7004  0.3392 -0.8157
 8214SOL    HW235112   9.566   8.810   1.311 -3.3033  2.1868 -0.8045
 8215SOL     OW35113   7.987   9.290   0.823 -0.3443 -0.2639  0.2675
 8215SOL    HW135114   7.898   9.302   0.780 -0.0483 -1.2459 -0.6421
 8215SOL    HW235115   7.985   9.326   0.916 -2.2705 -2.0155  0.9416
 8216SOL     OW35116   4.502   9.005   1.511  0.4693  0.1164  0.7620
 8216SOL    HW135117   4.526   9.073   1.580 -1.3374  2.2735 -0.6887
 8216SOL    HW235118   4.403   9.000   1.503  0.6400 -1.3158 -0.5312
 8217SOL     OW35119   7.615   7.885   2.579  0.5914 -0.2349 -0.1171
 8217SOL    HW135120   7.586   7.804   2.528  2.3710 -0.6601 -0.5072
 8217SOL    HW235121   7.648   7.857   2.669 -0.9108  0.3198  0.6150
 8218SOL     OW35122   8.257   2.812   0.454 -0.2668  0.4098 -0.4788
 8218SOL    HW135123   8.340   2.810   0.399 -1.0313 -1.7588 -1.6308
 8218SOL    HW235124   8.179   2.833   0.396 -0.9866 -1.1941 -0.1363
 8219SOL     OW35125   1.914   0.808   2.045  0.5815  0.0104  0.8387
 8219SOL    HW135126   1.946   0.901   2.029 -0.3409  0.2091  0.1192
 8219SOL    HW235127   1.978   0.743   2.004  1.7884  0.2618  2.2440
 8220SOL     OW35128   1.932   5.237   3.309  0.0944  0.3895  0.1313
 8220SOL    HW135129   1.884   5.290   3.239  0.8761 -0.5264 -1.1154
 8220SOL    HW235130   2.000   5.295   3.354  0.6385  0.5925 -0.9229
 8221SOL     OW35131   2.803   4.500   0.219  0.7606  0.0472 -0.0512
 8221SOL    HW135132   2.716   4.463   0.186  0.7430 -0.0096  0.0602
 8221SOL    HW235133   2.876   4.478   0.153  0.0817  3.0809 -1.8911
 8222SOL     OW35134   4.562   2.647   2.371  0.0936 -0.2969  0.2086
 8222SOL    HW135135   4.598   2.625   2.281 -0.7756  1.2426 -0.5421
 8222SOL    HW235136   4.529   2.564   2.416 -1.6949 -0.7655 -1.8940
 8223SOL     OW35137   2.463   7.294   1.806 -0.1582 -0.5858 -0.1220
 8223SOL    HW135138   2.458   7.388   1.841  0.4437 -0.9355  0.9367
 8223SOL    HW235139   2.428   7.291   1.712 -2.0063  0.3401  0.5182
 8224SOL     OW35140   3.284   5.414   3.706  0.1933 -0.0474  0.3831
 8224SOL    HW135141   3.369   5.392   3.659  0.1834 -1.7722  1.1524
 8224SOL    HW235142   3.214   5.347   3.682 -0.7255  0.9095  0.3641
 8225SOL     OW35143   8.325   6.546   1.890 -0.0804  0.2984  0.2395
 8225SOL    HW135144   8.399   6.523   1.827  0.7748 -0.3151  1.4432
 8225SOL    HW235145   8.330   6.488   1.971 -1.5253  0.6585  0.6188
 8226SOL     OW35146   1.719   8.772   3.978  0.1154  0.2249  0.0407
 8226SOL    HW135147   1.784   8.778   4.054 -0.1589 -1.4388  0.4140
 8226SOL    HW235148   1.751   8.703   3.913 -1.3920 -0.7768  0.3443
 8227SOL     OW35149   2.014   6.137   2.376  0.3253 -0.1571  0.1063
 8227SOL    HW135150   2.103   6.129   2.333  2.4866 -0.3837  4.3238
 8227SOL    HW235151   2.002   6.230   2.410  0.5677 -1.0429  2.7305
 8228SOL     OW35152   0.129   4.821   2.218 -0.1410  0.1796 -0.0096
 8228SOL    HW135153   0.220   4.809   2.178 -0.4902 -0.1624 -0.7101
 8228SOL    HW235154   0.068   4.748   2.185  0.1452 -1.4609  2.8916
 8229SOL     OW35155   8.766   3.875   2.918 -0.2205 -0.3800 -0.1267
 8229SOL    HW135156   8.859   3.840   2.913 -1.0004 -2.1733 -2.9365
 8229SOL    HW235157   8.701   3.799   2.908 -1.9821  1.0977 -0.1271
 8230SOL     OW35158   1.489   7.320   3.156 -0.2365  0.5389 -0.2935
 8230SOL    HW135159   1.389   7.319   3.154 -0.2908  2.2072  0.5728
 8230SOL    HW235160   1.520   7.387   3.223  1.4730 -0.3369 -0.1905
 8231SOL     OW35161   2.127   4.485   3.344 -0.0115 -0.5065 -0.4324
 8231SOL    HW135162   2.184   4.546   3.399 -0.7656 -1.3912  1.3888
 8231SOL    HW235163   2.036   4.526   3.333 -0.6127 -1.3655  1.0407
 8232SOL     OW35164   7.797   9.409   0.006 -0.2853 -0.1915 -0.2028
 8232SOL    HW135165   7.825   9.314  -0.003  1.0720  0.1844 -0.0801
 8232SOL    HW235166   7.827   9.461  -0.074 -1.5558  0.0170 -0.5539
 8233SOL     OW35167   2.249   9.964   3.858  0.1173  0.1172 -0.5296
 8233SOL    HW135168   2.177   9.900   3.886 -0.2069  0.4095 -0.6869
 8233SOL    HW235169   2.213  10.058   3.864  0.1524  0.1993 -1.6270
 8234SOL     OW35170   1.698   3.679   3.698 -0.1774  0.4464  0.5161
 8234SOL    HW135171   1.660   3.734   3.624 -0.9072 -1.4106 -0.5290
 8234SOL    HW235172   1.636   3.603   3.719  1.1132 -0.3822  1.4475
 8235SOL     OW35173   2.884   6.396   0.264  0.0384  0.1946  0.2527
 8235SOL    HW135174   2.844   6.306   0.278 -1.3936  0.8394  0.3995
 8235SOL    HW235175   2.945   6.394   0.185 -0.5997 -0.6994 -0.2124
 8236SOL     OW35176   1.128   3.379   1.868  0.0110 -0.0359 -0.6365
 8236SOL    HW135177   1.057   3.381   1.797  1.3778 -1.0422 -2.0772
 8236SOL    HW235178   1.161   3.285   1.879 -0.0071  0.1603  1.1631
 8237SOL     OW35179   0.727   2.799   0.001 -0.1708  0.0399  0.0436
 8237SOL    HW135180   0.774   2.847   0.076 -1.2478 -1.0605  1.4609
 8237SOL    HW235181   0.779   2.718  -0.025 -0.1839  0.0108  0.1093
 8238SOL     OW35182   1.310   0.042   3.283 -0.0476 -0.0867  0.2508
 8238SOL    HW135183   1.244   0.108   3.319 -0.3756  0.2913 -1.0079
 8238SOL    HW235184   1.402   0.081   3.288 -0.1818  0.2720 -0.0420
 8239SOL     OW35185   2.438   2.480   2.659  0.2836 -0.6930 -0.1180
 8239SOL    HW135186   2.376   2.451   2.732  1.4831 -0.7550  0.8911
 8239SOL    HW235187   2.405   2.445   2.572 -0.5141 -1.6435  0.5572
 8240SOL     OW35188   9.590   8.045   3.883 -0.1211 -0.6902 -0.4068
 8240SOL    HW135189   9.663   8.100   3.924  0.2434 -1.4998  0.0293
 8240SOL    HW235190   9.621   8.009   3.795  0.0744 -1.2001 -0.1275
 8241SOL     OW35191   4.209   2.171   0.631 -0.0088 -0.2623  0.5812
 8241SOL    HW135192   4.300   2.206   0.651 -0.7446  1.2982  1.2480
 8241SOL    HW235193   4.153   2.243   0.591 -1.3464 -0.8265  1.3932
 8242SOL     OW35194   9.073   1.593   1.663 -0.3759  0.2519 -0.3307
 8242SOL    HW135195   9.071   1.503   1.619  1.8229  1.6170 -3.3711
 8242SOL    HW235196   8.996   1.648   1.630 -1.0341 -0.0779  0.6281
 8243SOL     OW35197   1.902   6.693   0.097 -0.1277  0.8612 -0.5985
 8243SOL    HW135198   1.838   6.768   0.080  0.3100  1.7207  1.4628
 8243SOL    HW235199   1.970   6.691   0.024 -0.5028  2.0761 -0.9963
 8244SOL     OW35200   0.816   7.039   0.538 -0.1288  0.4774 -0.0270
 8244SOL    HW135201   0.777   7.049   0.447  0.3004 -2.6663 -0.6042
 8244SOL    HW235202   0.779   6.957   0.581 -0.2732  1.8828  2.6200
 8245SOL     OW35203   3.768   8.329   1.749 -1.0551  0.3191 -0.3808
 8245SOL    HW135204   3.766   8.260   1.821 -0.0450 -0.1661 -0.8067
 8245SOL    HW235205   3.687   8.387   1.755 -0.6137  0.7397  1.5884
 8246SOL     OW35206   2.086   8.506   3.943 -0.2883 -0.0535  0.0969
 8246SOL    HW135207   2.097   8.604   3.931  0.4904 -0.0619  0.7167
 8246SOL    HW235208   2.065   8.464   3.855  0.3688  0.5338 -0.3475
 8247SOL     OW35209   2.958   6.700   3.420  0.0305 -0.1449 -0.4588
 8247SOL    HW135210   2.902   6.631   3.374  0.6203 -1.8487  1.2895
 8247SOL    HW235211   3.055   6.679   3.408  0.2086  0.1668  0.3866
 8248SOL     OW35212   7.836   2.286   0.857  0.3214  0.9082  0.5224
 8248SOL    HW135213   7.792   2.260   0.943 -0.5494 -0.7991 -0.3983
 8248SOL    HW235214   7.767   2.324   0.795  0.6345  0.6882  0.0320
 8249SOL     OW35215   1.982   3.410   2.934 -0.4239  0.3586  0.6560
 8249SOL    HW135216   2.056   3.388   2.998  1.7456  1.1368 -1.5055
 8249SOL    HW235217   2.014   3.479   2.869 -2.0286 -1.5452 -2.2499
 8250SOL     OW35218   2.676   4.759   2.715 -0.2468  0.3753  0.5739
 8250SOL    HW135219   2.692   4.681   2.654  0.7132  0.4745  0.6816
 8250SOL    HW235220   2.612   4.823   2.672 -1.4436 -0.7290  0.7174
 8251SOL     OW35221   3.798   3.577   0.595  0.6810 -0.0414 -0.4529
 8251SOL    HW135222   3.706   3.586   0.556  0.5698 -2.6263 -0.9083
 8251SOL    HW235223   3.800   3.500   0.658  2.1898  0.9230  0.7164
 8252SOL     OW35224   0.655   6.820   0.648 -0.8517  0.5185 -0.3533
 8252SOL    HW135225   0.559   6.848   0.651 -1.3774 -1.4340  2.2111
 8252SOL    HW235226   0.694   6.825   0.740  0.0916 -3.4943 -0.4601
 8253SOL     OW35227   0.503   1.611   2.902 -0.1410  0.6804  0.4475
 8253SOL    HW135228   0.586   1.557   2.888 -0.8960  0.0349 -1.6210
 8253SOL    HW235229   0.526   1.708   2.905  1.1076  0.3354  3.2848
 8254SOL     OW35230   1.966   7.763   0.414  0.4265 -0.0978 -0.2654
 8254SOL    HW135231   1.991   7.853   0.377  0.7794  0.8616  2.2367
 8254SOL    HW235232   1.880   7.770   0.463  2.0958 -0.2987  2.8465
 8255SOL     OW35233   9.604   6.648   3.353  0.2426 -0.0644 -0.5581
 8255SOL    HW135234   9.603   6.700   3.267  1.1777 -0.8012 -1.0237
 8255SOL    HW235235   9.690   6.597   3.360  0.5837  0.7218  1.2734
 8256SOL     OW35236   8.166   1.189   2.508  1.2938  0.1649 -0.1038
 8256SOL    HW135237   8.238   1.134   2.466  0.9291  0.5038 -1.1842
 8256SOL    HW235238   8.126   1.250   2.439 -0.3643 -0.3726  0.3582
 8257SOL     OW35239   3.354   8.514   3.152 -0.4279 -0.1235 -0.3233
 8257SOL    HW135240   3.331   8.610   3.134  0.7778  0.0885 -0.7501
 8257SOL    HW235241   3.451   8.499   3.135 -0.6131 -1.4302 -0.2725
 8258SOL     OW35242   9.076   5.677   1.253  0.2423 -0.6267  0.5513
 8258SOL    HW135243   9.066   5.599   1.191  1.1528 -0.6163  0.3805
 8258SOL    HW235244   9.042   5.652   1.344  0.3661 -1.1614  0.4535
 8259SOL     OW35245   4.573   9.407   3.078 -0.6738 -0.1795 -0.0087
 8259SOL    HW135246   4.582   9.464   2.997  1.5856  1.0521  1.0525
 8259SOL    HW235247   4.617   9.452   3.156 -0.0708 -2.7155  1.1742
 8260SOL     OW35248   7.895   0.027   0.532  0.2334  0.4245  0.2596
 8260SOL    HW135249   7.980  -0.021   0.508 -0.0807  0.8132 -1.7170
 8260SOL    HW235250   7.840   0.040   0.449 -2.2394 -0.7333  1.6557
 8261SOL     OW35251   1.952   8.109   3.984 -0.4338  0.0004 -0.7774
 8261SOL    HW135252   2.046   8.141   3.999 -1.0455  1.0721  0.9357
 8261SOL    HW235253   1.930   8.038   4.051 -1.2470  0.6146 -0.3880
 8262SOL     OW35254   8.428   7.831   0.010 -0.3025  0.0802  0.2102
 8262SOL    HW135255   8.440   7.764   0.084 -0.6047  1.2657  1.3416
 8262SOL    HW235256   8.481   7.802  -0.069  2.1556  0.1423  1.7868
 8263SOL     OW35257   0.883   9.357   0.237  0.4412  0.4818 -0.1869
 8263SOL    HW135258   0.823   9.347   0.316 -0.8875 -0.8644 -1.3201
 8263SOL    HW235259   0.847   9.428   0.177  0.4762  0.3034 -0.4212
 8264SOL     OW35260   0.304   7.942   1.186 -0.3318 -0.1483 -0.2385
 8264SOL    HW135261   0.238   7.957   1.260  0.6210  0.9072  0.4207
 8264SOL    HW235262   0.296   7.849   1.152 -0.6254 -0.7256  1.3676
 8265SOL     OW35263   0.632   6.240   0.638  0.0805 -0.5373  0.2209
 8265SOL    HW135264   0.647   6.212   0.732 -0.1630 -0.2783  0.3380
 8265SOL    HW235265   0.678   6.328   0.622  3.0053 -2.1786 -0.8477
 8266SOL     OW35266   1.721   0.310   0.093  0.2300  0.0552  0.0611
 8266SOL    HW135267   1.707   0.408   0.112 -1.0780  0.2169 -1.6192
 8266SOL    HW235268   1.760   0.266   0.174 -3.0827  1.1297  2.3386
 8267SOL     OW35269   8.102   5.731   1.868  0.4107  0.5901  0.4165
 8267SOL    HW135270   8.045   5.651   1.888  1.0634 -0.4942 -1.7969
 8267SOL    HW235271   8.196   5.701   1.853  0.4159  1.5623 -1.7411
 8268SOL     OW35272   2.002   0.701   1.470 -0.2369  0.3299 -0.0561
 8268SOL    HW135273   2.052   0.669   1.550 -0.8747  0.6670  0.4800
 8268SOL    HW235274   2.062   0.699   1.390  0.4281  0.0818  0.4484
 8269SOL     OW35275   3.229   2.559   1.800  0.0009 -0.1568 -0.7896
 8269SOL    HW135276   3.269   2.620   1.869 -0.2797  1.1819 -1.7979
 8269SOL    HW235277   3.172   2.612   1.737  0.1061 -1.3929 -1.9483
 8270SOL     OW35278   4.898   8.284   2.762  0.7737 -0.0248 -0.2032
 8270SOL    HW135279   4.892   8.377   2.799 -0.6957  0.2550 -1.1213
 8270SOL    HW235280   4.831   8.225   2.807 -0.6866  0.2029 -2.0144
 8271SOL     OW35281   7.842   4.971   2.113  0.2369  0.3089  0.4839
 8271SOL    HW135282   7.783   4.983   2.193 -0.3065  1.4709 -0.0637
 8271SOL    HW235283   7.810   4.892   2.060  0.8462 -0.7074  1.6131
 8272SOL     OW35284   2.486   8.191   0.641 -0.0229  0.0598 -0.4633
 8272SOL    HW135285   2.403   8.244   0.623  0.7395  2.0091  1.5131
 8272SOL    HW235286   2.490   8.170   0.739  1.7978 -0.0228 -0.5453
 8273SOL     OW35287   1.555   8.873   2.008  0.6145 -0.6165  0.0644
 8273SOL    HW135288   1.639   8.836   2.047  0.3115 -0.2392  1.0710
 8273SOL    HW235289   1.563   8.973   2.000 -0.2819 -0.4219  1.4938
 8274SOL     OW35290   8.847   5.454   1.935  0.0709 -0.0240  0.2048
 8274SOL    HW135291   8.830   5.544   1.897  1.1814  0.2623  0.3667
 8274SOL    HW235292   8.871   5.463   2.032 -1.9424 -0.6769  0.7887
 8275SOL     OW35293   3.896   3.728   1.204  0.3726 -0.0738 -0.4078
 8275SOL    HW135294   3.900   3.827   1.194  0.9250 -0.0833 -0.2923
 8275SOL    HW235295   3.922   3.702   1.297  1.5188 -0.4078 -0.8136
 8276SOL     OW35296   2.165   2.363   0.229 -0.0123  0.2602 -0.5419
 8276SOL    HW135297   2.170   2.283   0.289  0.6857  1.1458  0.6032
 8276SOL    HW235298   2.180   2.446   0.283  1.3331  1.0335 -2.0599
 8277SOL     OW35299   0.262   2.762   3.522 -0.4984 -0.2797  0.3048
 8277SOL    HW135300   0.266   2.831   3.450 -0.2746  0.9453  1.4745
 8277SOL    HW235301   0.274   2.671   3.482 -3.7146  0.0876 -1.6402
 8278SOL     OW35302   1.687   0.461   2.207  0.5225  0.0408 -0.1052
 8278SOL    HW135303   1.698   0.559   2.221  1.0936 -0.0546  0.1384
 8278SOL    HW235304   1.633   0.423   2.283  3.1681 -0.3835  1.6496
 8279SOL     OW35305   1.501   5.726   1.543  0.3099 -0.0886 -0.0018
 8279SOL    HW135306   1.560   5.799   1.510 -0.3682 -1.0069 -3.4885
 8279SOL    HW235307   1.425   5.765   1.595  0.0443  1.6977 -1.6846
 8280SOL     OW35308   8.770   3.551   3.989 -0.0869  0.1724 -0.3071
 8280SOL    HW135309   8.805   3.625   4.047  0.7444 -0.7548  0.3883
 8280SOL    HW235310   8.670   3.552   3.992 -0.1032  1.5205 -0.6386
 8281SOL     OW35311   9.960   9.238   2.443 -0.3690  0.3843 -0.4568
 8281SOL    HW135312  10.020   9.203   2.371 -1.0426 -3.1929  0.6054
 8281SOL    HW235313   9.875   9.184   2.445  0.0097 -0.2069  3.5551
 8282SOL     OW35314   5.341   9.680   2.731  0.7033 -0.3328  1.0548
 8282SOL    HW135315   5.328   9.655   2.635 -4.5009  2.9536  0.6928
 8282SOL    HW235316   5.412   9.751   2.738 -0.8839  1.5332 -0.8552
 8283SOL     OW35317   3.577   5.126   2.821  0.0702 -0.1845  0.6904
 8283SOL    HW135318   3.562   5.224   2.835  1.2309  0.0254  0.5447
 8283SOL    HW235319   3.584   5.107   2.723  0.4710 -0.3137  0.7435
 8284SOL     OW35320   7.447   1.464   1.845  0.5585  0.0369  0.1644
 8284SOL    HW135321   7.349   1.462   1.825  0.0042  0.5151  2.6244
 8284SOL    HW235322   7.499   1.461   1.760 -1.6073  0.9680 -1.2330
 8285SOL     OW35323   3.216   1.704   2.339  0.0250  0.1065  0.0571
 8285SOL    HW135324   3.123   1.731   2.363 -0.2093 -0.6178 -0.0254
 8285SOL    HW235325   3.240   1.620   2.389  0.0481 -0.6142 -1.1520
 8286SOL     OW35326   2.754   2.870   2.722 -1.0168 -0.0596  0.1981
 8286SOL    HW135327   2.756   2.968   2.707 -2.0895 -0.2343 -1.1740
 8286SOL    HW235328   2.829   2.844   2.782 -0.6120  1.5622  0.4147
 8287SOL     OW35329   0.571   3.100   3.264 -0.1032 -0.4788 -0.5406
 8287SOL    HW135330   0.658   3.143   3.242  0.0632  0.2055  1.3405
 8287SOL    HW235331   0.576   3.002   3.242  0.7947 -0.2639 -1.3330
 8288SOL     OW35332   8.231   2.271   1.449  0.4529  0.1984  0.1918
 8288SOL    HW135333   8.327   2.286   1.423  0.6560 -0.6173  0.4431
 8288SOL    HW235334   8.182   2.358   1.449  0.6078  0.3190 -2.2930
 8289SOL     OW35335   3.707   0.252   0.737 -0.1736 -0.2898 -0.1404
 8289SOL    HW135336   3.773   0.327   0.741  1.1359 -1.3047 -2.0276
 8289SOL    HW235337   3.750   0.168   0.770 -0.7700 -0.7933 -0.6393
 8290SOL     OW35338   1.171   1.415   2.192  0.1806  0.1745 -0.0234
 8290SOL    HW135339   1.231   1.397   2.270 -1.0371 -1.8734  0.4692
 8290SOL    HW235340   1.079   1.384   2.213 -0.2396 -0.0520 -2.1471
 8291SOL     OW35341   2.007   8.372   3.677  0.4199  0.5080  0.2507
 8291SOL    HW135342   1.993   8.457   3.627 -3.4492  0.2404  0.7683
 8291SOL    HW235343   2.039   8.301   3.615  0.1261  1.3820 -0.9170
 8292SOL     OW35344   0.915   6.584   3.667 -0.0420 -0.0924 -0.6449
 8292SOL    HW135345   0.936   6.512   3.733 -0.4482  1.2209  0.9452
 8292SOL    HW235346   0.999   6.633   3.644 -0.3056  1.0946  0.8747
 8293SOL     OW35347   3.820   9.409   3.039 -0.8242 -0.4558 -0.0213
 8293SOL    HW135348   3.808   9.390   3.137 -0.3600 -1.8148 -0.2233
 8293SOL    HW235349   3.761   9.486   3.013 -0.2767  0.5229  1.5226
 8294SOL     OW35350   0.344   7.869   0.374  0.1009 -0.1976  0.3291
 8294SOL    HW135351   0.364   7.907   0.465 -3.2251  0.3858  0.9015
 8294SOL    HW235352   0.341   7.769   0.379 -1.2649 -0.1298  1.1813
 8295SOL     OW35353   9.780   5.595   3.209 -0.1071 -1.1124 -0.1682
 8295SOL    HW135354   9.810   5.665   3.144  0.1201 -0.8567  0.2090
 8295SOL    HW235355   9.692   5.558   3.180 -1.0219  0.4873  0.4949
 8296SOL     OW35356   8.087   2.971   0.101  0.1275 -0.1954  0.1668
 8296SOL    HW135357   8.179   2.931   0.102  0.9418  1.5682 -1.3212
 8296SOL    HW235358   8.085   3.048   0.037 -1.5818  1.7450  2.4573
 8297SOL     OW35359   3.621   1.035   3.093 -0.7209  0.1967  0.4209
 8297SOL    HW135360   3.646   1.055   2.999  1.4499  0.0996  0.9532
 8297SOL    HW235361   3.532   0.988   3.095  0.4751 -2.2607 -1.7808
 8298SOL     OW35362   2.069   3.108   2.953 -0.6485  0.0764  0.6321
 8298SOL    HW135363   2.084   3.029   2.894 -2.2024  0.5791 -0.4909
 8298SOL    HW235364   2.067   3.191   2.897  1.9954  1.0502  1.9110
 8299SOL     OW35365   1.533   3.793   0.200  0.6287  0.5103  0.5982
 8299SOL    HW135366   1.455   3.855   0.197  0.3120  0.1923  1.8146
 8299SOL    HW235367   1.574   3.785   0.109 -1.4462 -0.2161 -0.2845
 8300SOL     OW35368   8.711   6.728   0.725  0.3300 -0.1902 -0.0098
 8300SOL    HW135369   8.708   6.808   0.785  0.3681  0.2010 -0.5329
 8300SOL    HW235370   8.715   6.757   0.630 -0.0673 -0.8176 -0.2199
 8301SOL     OW35371   9.816   2.336   1.295 -0.2586  0.7916 -0.1865
 8301SOL    HW135372   9.868   2.402   1.241 -0.8997 -0.6948 -2.7081
 8301SOL    HW235373   9.728   2.318   1.251 -0.8744 -0.3554  1.4544
 8302SOL     OW35374   4.678   9.089   0.007  0.7685  0.0713 -0.0386
 8302SOL    HW135375   4.582   9.114   0.007  0.5021 -0.8741  1.2297
 8302SOL    HW235376   4.730   9.152   0.066  0.6009 -0.5172  0.7543
 8303SOL     OW35377   8.071   9.544   3.606 -0.1271 -0.5948 -0.2514
 8303SOL    HW135378   8.169   9.565   3.610 -0.0682 -0.2348 -2.4743
 8303SOL    HW235379   8.019   9.629   3.613 -0.2640 -0.7349  0.4263
 8304SOL     OW35380   2.141   1.864   2.320 -0.4780 -0.1666  0.5926
 8304SOL    HW135381   2.212   1.826   2.380  0.1224 -1.1334 -0.7054
 8304SOL    HW235382   2.109   1.951   2.358  0.6133 -0.2636  1.7783
 8305SOL     OW35383   0.334   0.263   2.157 -0.7168 -0.0339  0.1671
 8305SOL    HW135384   0.405   0.325   2.190 -0.2147  0.1230 -1.1604
 8305SOL    HW235385   0.375   0.178   2.126 -1.1451 -0.1044 -0.2146
 8306SOL     OW35386   7.378   7.885   2.136  0.1583 -1.0402  0.3270
 8306SOL    HW135387   7.345   7.791   2.146  0.8714 -1.2175  1.0951
 8306SOL    HW235388   7.471   7.892   2.171  0.0786 -0.0243  0.3654
 8307SOL     OW35389   1.983   2.429   0.505  0.2168  0.1553  0.5863
 8307SOL    HW135390   2.011   2.355   0.566  0.4238 -0.1155  0.1657
 8307SOL    HW235391   2.064   2.479   0.473 -0.0484  1.9233  2.5500
 8308SOL     OW35392   1.808   3.410   3.852 -0.2693  0.2195 -0.1456
 8308SOL    HW135393   1.752   3.484   3.888  0.1969  0.1724  0.6889
 8308SOL    HW235394   1.758   3.323   3.862 -0.2862  0.2523  0.0538
 8309SOL     OW35395   2.392   0.773   4.020 -0.7949 -0.1485  0.1231
 8309SOL    HW135396   2.443   0.859   4.028 -1.5844  0.2256  1.3213
 8309SOL    HW235397   2.295   0.794   4.004 -1.0865 -0.7942  0.9762
 8310SOL     OW35398   1.320   1.809   0.865  0.2130  0.1879  0.5184
 8310SOL    HW135399   1.317   1.711   0.888  0.4729  0.1151  0.2445
 8310SOL    HW235400   1.377   1.857   0.931 -1.5733  0.4920  1.8661
 8311SOL     OW35401   9.111   3.778   1.511 -0.0163  0.0100  0.6932
 8311SOL    HW135402   9.112   3.700   1.574  0.9688 -0.8660 -0.4010
 8311SOL    HW235403   9.023   3.781   1.464 -0.6514  0.4992  1.8855
 8312SOL     OW35404   3.572   0.421   1.175  0.1411  0.2417  0.3143
 8312SOL    HW135405   3.566   0.332   1.130 -0.9965  0.6717 -0.3793
 8312SOL    HW235406   3.539   0.493   1.114  0.0277  1.0146  1.2648
 8313SOL     OW35407   3.860   3.654   0.930  0.0769 -0.3001  0.2110
 8313SOL    HW135408   3.853   3.694   1.022 -0.6139 -2.1100  0.9505
 8313SOL    HW235409   3.891   3.725   0.867 -1.8461  1.6350  1.3467
 8314SOL     OW35410   7.706   2.307   0.375  0.0447  0.2046  0.0311
 8314SOL    HW135411   7.776   2.373   0.348  0.0429  0.0851 -0.2639
 8314SOL    HW235412   7.734   2.215   0.347 -0.9798  0.3498 -1.5632
 8315SOL     OW35413   1.761   7.545   1.488 -0.2877 -0.7647 -0.3903
 8315SOL    HW135414   1.707   7.589   1.416  0.2474 -2.1766 -1.6713
 8315SOL    HW235415   1.699   7.516   1.562 -1.0415 -0.6681 -0.9748
 8316SOL     OW35416   8.233   9.053   0.272  0.3849  0.7400 -0.1642
 8316SOL    HW135417   8.232   9.095   0.363 -0.7236  1.3554 -0.4435
 8316SOL    HW235418   8.306   8.985   0.267 -0.2411 -0.1062  1.5582
 8317SOL     OW35419   4.587   8.815   0.457  0.9973 -0.2392 -0.4382
 8317SOL    HW135420   4.683   8.794   0.479  0.5527 -1.5040  0.3376
 8317SOL    HW235421   4.528   8.747   0.500 -0.5021  2.5734  2.1256
 8318SOL     OW35422   9.166   9.654   1.403 -0.5510 -0.4566  0.0705
 8318SOL    HW135423   9.071   9.673   1.376 -0.0209  0.5301 -1.1963
 8318SOL    HW235424   9.167   9.599   1.486 -2.2361 -0.1559  0.3161
 8319SOL     OW35425   8.062   2.011   3.575 -0.0859 -0.8559 -0.2364
 8319SOL    HW135426   8.054   1.937   3.508 -0.0435 -0.4091 -0.7412
 8319SOL    HW235427   8.145   1.998   3.629 -0.2439 -1.3505 -0.1058
 8320SOL     OW35428   2.583   8.948   0.825  0.2735  0.3042 -0.0415
 8320SOL    HW135429   2.655   8.932   0.758  0.7955  1.3383  0.2506
 8320SOL    HW235430   2.494   8.953   0.779  0.5315  0.1896 -0.5495
 8321SOL     OW35431   1.162   4.747   3.237 -0.6872 -0.2884  0.2375
 8321SOL    HW135432   1.100   4.707   3.304 -0.7559 -1.0144 -0.2527
 8321SOL    HW235433   1.195   4.676   3.174  0.2451  0.1764  0.1781
 8322SOL     OW35434   9.168   7.274   1.896  0.3251 -0.1095 -0.5875
 8322SOL    HW135435   9.118   7.217   1.831 -0.2020 -0.8216  0.4324
 8322SOL    HW235436   9.256   7.299   1.857  0.7970 -2.0909 -0.8145
 8323SOL     OW35437   7.553   9.799   1.689  0.6613  0.0233 -0.4992
 8323SOL    HW135438   7.538   9.717   1.742 -0.6834  0.0329 -0.8526
 8323SOL    HW235439   7.615   9.860   1.738 -0.8818  0.2173  1.2418
 8324SOL     OW35440   0.708   8.177   0.748  0.3978 -0.3973 -0.2958
 8324SOL    HW135441   0.769   8.098   0.743  1.4252  0.4168 -0.8206
 8324SOL    HW235442   0.726   8.229   0.832  0.7764  0.1288 -0.7007
 8325SOL     OW35443   7.131   8.290   1.683 -0.5968  0.3281 -0.3365
 8325SOL    HW135444   7.192   8.223   1.726  0.0653  0.1724 -1.4935
 8325SOL    HW235445   7.145   8.380   1.725  1.2129  0.5232 -1.3272
 8326SOL     OW35446   1.760   3.389   1.231  0.2329 -0.3242 -0.5078
 8326SOL    HW135447   1.668   3.359   1.208 -0.2866 -0.0659  1.1960
 8326SOL    HW235448   1.811   3.408   1.147 -2.1938  2.3536 -1.4256
 8327SOL     OW35449   2.209   5.058   2.653  0.4620  0.5101 -0.2101
 8327SOL    HW135450   2.195   4.986   2.721 -0.4765 -0.1033 -1.0346
 8327SOL    HW235451   2.121   5.099   2.630  0.7510  0.6304 -1.1305
 8328SOL     OW35452   0.629   6.971   2.304  0.2287  0.3178  0.0791
 8328SOL    HW135453   0.634   7.051   2.243  0.2974  1.3311  1.4076
 8328SOL    HW235454   0.713   6.963   2.356  0.6689 -1.2745 -0.8097
 8329SOL     OW35455   2.148   1.525   2.474 -0.7669  0.0551 -0.0385
 8329SOL    HW135456   2.156   1.493   2.380 -0.1557  1.1516 -0.3694
 8329SOL    HW235457   2.096   1.610   2.476  0.4945  0.8264  0.4442
 8330SOL     OW35458   7.346   1.194   2.529  0.2880  0.1149  0.8078
 8330SOL    HW135459   7.410   1.179   2.454  0.0714  1.1337  0.4079
 8330SOL    HW235460   7.254   1.211   2.492  0.3202  1.3395  1.2481
 8331SOL     OW35461   9.343   8.066   1.968 -0.0997  0.4772 -0.1164
 8331SOL    HW135462   9.399   7.986   1.948  1.6718  1.2573  1.5914
 8331SOL    HW235463   9.272   8.041   2.034  1.6549  0.7394  1.8997
 8332SOL     OW35464   1.455   9.473   2.983 -0.4133  0.4826 -0.1304
 8332SOL    HW135465   1.365   9.435   3.008 -0.0929  0.9940  1.8878
 8332SOL    HW235466   1.442   9.554   2.926 -1.2945  1.3038  1.2081
 8333SOL     OW35467   2.461   4.742   0.966 -0.4596 -0.5679 -0.3826
 8333SOL    HW135468   2.428   4.649   0.950 -0.6503 -0.5381 -0.1685
 8333SOL    HW235469   2.522   4.770   0.892  2.6175 -2.2739  1.3943
 8334SOL     OW35470   9.649   5.290   3.648  0.1707 -0.5140  0.2700
 8334SOL    HW135471   9.729   5.243   3.685  0.7547  0.3944  0.1695
 8334SOL    HW235472   9.630   5.371   3.702  0.7712  0.5979 -1.1538
 8335SOL     OW35473   2.561   1.980   1.992  0.4908 -0.5011  0.4375
 8335SOL    HW135474   2.645   2.033   2.001 -0.9908  2.0901 -0.1887
 8335SOL    HW235475   2.556   1.940   1.901  0.8890 -0.3268  0.3387
 8336SOL     OW35476   4.706   4.934   1.644  0.3947  0.1138 -0.1381
 8336SOL    HW135477   4.785   4.884   1.680  0.8979  0.8780 -0.1730
 8336SOL    HW235478   4.682   5.008   1.707 -0.5867 -0.3868  0.1044
 8337SOL     OW35479   5.154   8.458   2.405  0.1780  0.0003  0.1708
 8337SOL    HW135480   5.200   8.424   2.323  0.8863  1.6569 -0.1296
 8337SOL    HW235481   5.195   8.416   2.486  3.5382  2.8333  0.0286
 8338SOL     OW35482   9.553   0.576   1.752 -0.2737 -0.7299 -0.0100
 8338SOL    HW135483   9.623   0.517   1.712  0.3295  0.3005 -0.4853
 8338SOL    HW235484   9.546   0.661   1.700 -0.5563 -0.0227  1.1498
 8339SOL     OW35485   1.301   5.733   1.825  0.7228 -0.4645 -0.5167
 8339SOL    HW135486   1.360   5.667   1.872  0.7087  1.6520  2.6233
 8339SOL    HW235487   1.212   5.691   1.808  0.9805 -1.5413  0.6900
 8340SOL     OW35488   9.678   8.500   0.279  0.0250 -0.7758 -0.1283
 8340SOL    HW135489   9.616   8.577   0.289  0.6078 -0.1054 -1.6192
 8340SOL    HW235490   9.685   8.451   0.367 -1.2031  0.1874  0.5184
 8341SOL     OW35491   1.432   4.930   0.884 -0.1148 -0.0183  0.0631
 8341SOL    HW135492   1.464   4.878   0.963  0.3920 -0.7570 -0.6230
 8341SOL    HW235493   1.480   4.900   0.802  0.3502  1.7051 -0.3186
 8342SOL     OW35494   8.246   5.154   1.482 -0.0692 -0.3166 -0.1265
 8342SOL    HW135495   8.214   5.232   1.535  1.1254  1.3417 -1.7638
 8342SOL    HW235496   8.233   5.070   1.534  0.0948  1.1391  2.3124
 8343SOL     OW35497   2.312   4.142   3.836 -0.1616  0.1109 -0.5388
 8343SOL    HW135498   2.245   4.072   3.811 -0.7329  0.6095 -0.4198
 8343SOL    HW235499   2.266   4.215   3.886  0.4059  0.6489 -0.7982
 8344SOL     OW35500   3.184   3.773   3.163 -0.3501  0.1294  0.6039
 8344SOL    HW135501   3.102   3.753   3.216 -1.1713  0.1061 -0.6544
 8344SOL    HW235502   3.218   3.688   3.122 -0.0694  0.2502  0.5876
 8345SOL     OW35503   0.272   6.013   2.203 -0.4359 -0.3619 -0.3348
 8345SOL    HW135504   0.278   5.974   2.111  1.7318 -0.6687 -0.0975
 8345SOL    HW235505   0.281   5.940   2.271  1.5131  0.2260  0.0981
 8346SOL     OW35506   1.154   9.907   3.545  0.2324 -0.2732 -0.5553
 8346SOL    HW135507   1.212   9.989   3.553 -0.8161  0.6729 -2.4154
 8346SOL    HW235508   1.123   9.880   3.636  1.0205  1.1001  0.1386
 8347SOL     OW35509   0.738   7.020   1.182  0.0960 -0.6589 -0.1382
 8347SOL    HW135510   0.714   7.051   1.091 -1.5539 -0.3967  0.3685
 8347SOL    HW235511   0.662   7.036   1.245  1.2027 -0.8209  1.2933
 8348SOL     OW35512   2.057   0.781   3.538  0.9954  0.2121 -0.1124
 8348SOL    HW135513   2.058   0.685   3.566 -1.5989  0.1757  0.0423
 8348SOL    HW235514   1.992   0.831   3.595  0.0192  1.3780 -2.1864
 8349SOL     OW35515   8.505   9.039   3.955  0.4206  0.4826  0.4622
 8349SOL    HW135516   8.464   9.001   3.872 -1.0593  2.5872  0.1918
 8349SOL    HW235517   8.535   8.965   4.015 -0.1959 -1.0649 -1.1257
 8350SOL     OW35518   7.631   3.550   0.124 -0.1036  0.1936 -0.5562
 8350SOL    HW135519   7.593   3.575   0.213  0.7533 -0.4451  0.0044
 8350SOL    HW235520   7.565   3.494   0.074 -1.0568  1.5473 -0.8169
 8351SOL     OW35521   4.333   7.182   3.107  0.4340 -0.1900 -0.0660
 8351SOL    HW135522   4.334   7.180   3.207 -1.1873  0.5382 -0.0237
 8351SOL    HW235523   4.285   7.101   3.073  0.5448 -0.1779 -0.2512
 8352SOL     OW35524   2.720   0.445   1.571  0.6473  0.3878 -0.2611
 8352SOL    HW135525   2.767   0.375   1.625 -0.3612  1.2809  1.8273
 8352SOL    HW235526   2.621   0.437   1.585  0.3718  0.6154 -2.0155
 8353SOL     OW35527   2.598   8.859   1.091 -0.1687  0.1066 -0.0639
 8353SOL    HW135528   2.658   8.779   1.090 -0.6620 -0.2813  1.0058
 8353SOL    HW235529   2.595   8.899   1.000  0.3714 -0.8775 -0.5217
 8354SOL     OW35530   9.426   0.465   2.170  0.2751 -0.2077  0.3662
 8354SOL    HW135531   9.402   0.467   2.073 -0.6444 -0.8024  0.5746
 8354SOL    HW235532   9.525   0.459   2.180  0.3602 -0.3077 -0.5405
 8355SOL     OW35533   7.951   0.149   0.995 -0.0031  0.4336  0.0703
 8355SOL    HW135534   7.955   0.051   0.973  1.2377  0.6511 -0.6999
 8355SOL    HW235535   7.914   0.199   0.917  2.2346  0.9337 -0.7020
 8356SOL     OW35536   1.248   2.825   2.384  0.1460 -0.2458  0.0531
 8356SOL    HW135537   1.236   2.728   2.407  0.0108 -0.0701  0.7557
 8356SOL    HW235538   1.158   2.868   2.376  0.2082 -0.1433 -0.0824
 8357SOL     OW35539   5.646   8.117   2.950  0.2485  0.1476 -0.1087
 8357SOL    HW135540   5.640   8.027   2.907  0.9683  0.7039 -1.4107
 8357SOL    HW235541   5.554   8.154   2.964  0.0178  0.2918 -1.9061
 8358SOL     OW35542   2.209   0.024   3.007 -0.6153 -0.6260 -0.6458
 8358SOL    HW135543   2.113  -0.001   2.993 -1.0137  0.9600 -0.8042
 8358SOL    HW235544   2.244   0.069   2.925 -1.0265  2.7576  0.9657
 8359SOL     OW35545   4.635   2.990   0.816  0.0854 -0.0577  0.5463
 8359SOL    HW135546   4.682   3.059   0.760 -0.3238 -0.4749 -0.3136
 8359SOL    HW235547   4.551   3.030   0.853 -0.6640 -0.3944 -0.7641
 8360SOL     OW35548   8.923   6.730   2.524 -0.1653  0.1173  0.4537
 8360SOL    HW135549   8.874   6.680   2.595 -0.9313  2.5667  1.7229
 8360SOL    HW235550   8.861   6.753   2.449 -0.0337 -0.0692  0.2875
 8361SOL     OW35551   1.883   0.910   1.589 -0.4981  0.4073  0.4210
 8361SOL    HW135552   1.946   0.846   1.544  0.7650  0.2990  2.2554
 8361SOL    HW235553   1.801   0.860   1.619  0.2097 -0.2488  1.3032
 8362SOL     OW35554   8.239   0.010   0.776 -0.3202  0.7022  0.4600
 8362SOL    HW135555   8.161  -0.030   0.825 -0.2379 -0.1485 -0.0784
 8362SOL    HW235556   8.262  -0.049   0.698  1.6334  0.2833  1.3278
 8363SOL     OW35557   9.697   1.169   1.449 -0.2250 -0.2689  0.0352
 8363SOL    HW135558   9.631   1.106   1.408  0.4968  0.6220 -2.6206
 8363SOL    HW235559   9.790   1.136   1.433  0.0791  0.2977  0.6103
 8364SOL     OW35560   3.531   4.082   1.012  0.4284  0.0176 -0.4342
 8364SOL    HW135561   3.593   4.124   1.078  0.7586  2.6779 -2.3828
 8364SOL    HW235562   3.540   4.127   0.923 -2.4019 -1.3048 -1.4619
 8365SOL     OW35563   0.499   8.991   2.183  0.0656 -0.2512  0.5101
 8365SOL    HW135564   0.502   8.896   2.152  3.4171 -0.3652  0.9658
 8365SOL    HW235565   0.464   8.994   2.277  1.0200 -1.2082  0.9152
 8366SOL     OW35566   0.442   1.031   0.815 -0.3369 -0.1585  0.9648
 8366SOL    HW135567   0.356   1.074   0.789 -0.2620  0.4946  1.7642
 8366SOL    HW235568   0.428   0.933   0.828 -0.9322 -0.0729  0.9682
 8367SOL     OW35569   4.981   6.766   2.663  0.0532 -0.0929  0.1582
 8367SOL    HW135570   5.013   6.848   2.709  0.4573  1.0260 -2.0422
 8367SOL    HW235571   5.058   6.721   2.617 -0.3538 -1.1101  0.4639
 8368SOL     OW35572   3.228   4.539   0.665  0.5458 -0.5408 -0.1249
 8368SOL    HW135573   3.233   4.447   0.626  1.8285  0.3780 -2.1806
 8368SOL    HW235574   3.274   4.540   0.754 -0.2325 -2.0783  0.3070
 8369SOL     OW35575   1.251   7.883   2.192  0.1621 -0.0882  0.2068
 8369SOL    HW135576   1.321   7.838   2.137  0.2866  0.9681 -0.5212
 8369SOL    HW235577   1.268   7.864   2.289  1.3124 -0.0599  0.0228
 8370SOL     OW35578   1.157   0.795   2.841 -0.0964 -0.0445 -0.3330
 8370SOL    HW135579   1.093   0.788   2.918  0.2096  1.6676  0.1097
 8370SOL    HW235580   1.176   0.704   2.805 -1.3534 -0.7399  0.7117
 8371SOL     OW35581   7.401   9.410   2.363 -0.0951 -0.0349  0.6609
 8371SOL    HW135582   7.333   9.464   2.313  0.9231  2.0952  1.5206
 8371SOL    HW235583   7.492   9.434   2.330  0.3724 -1.3062  1.0088
 8372SOL     OW35584   1.214   9.943   0.502 -0.1154 -0.1065 -0.6153
 8372SOL    HW135585   1.286   9.955   0.433  1.8688  1.1652  1.5772
 8372SOL    HW235586   1.140  10.008   0.485  0.8701  0.9499 -0.9430
 8373SOL     OW35587   4.629   1.679   1.409 -0.0620 -0.1140  0.5056
 8373SOL    HW135588   4.702   1.731   1.366  1.0045 -1.0962  1.1030
 8373SOL    HW235589   4.547   1.682   1.352  0.8295 -0.0399 -0.7799
 8374SOL     OW35590   8.574   3.317   0.787 -0.8149 -0.5724  0.6686
 8374SOL    HW135591   8.671   3.298   0.804 -0.3550  1.2744  0.2531
 8374SOL    HW235592   8.532   3.353   0.871 -1.0847 -1.1189  0.7720
 8375SOL     OW35593   1.899   3.737   0.066  0.6751 -0.4757  0.0715
 8375SOL    HW135594   1.852   3.713   0.151 -0.4193 -0.8695 -0.6240
 8375SOL    HW235595   1.937   3.654   0.025  0.7097 -0.3725 -0.1023
 8376SOL     OW35596   2.655   4.634   0.406 -0.1665 -0.0702  0.1184
 8376SOL    HW135597   2.702   4.564   0.353  0.2265  0.9971 -0.9694
 8376SOL    HW235598   2.609   4.592   0.484 -0.2039 -1.5675 -0.6962
 8377SOL     OW35599   0.797   8.298   3.741 -0.1532  0.6010  0.1042
 8377SOL    HW135600   0.781   8.384   3.692  0.7513  0.6916 -0.0405
 8377SOL    HW235601   0.843   8.233   3.681  1.6280  0.9727  1.0337
 8378SOL     OW35602   8.328   8.359   2.614 -0.0446  0.4080 -0.4363
 8378SOL    HW135603   8.306   8.455   2.596 -1.1388  0.2189 -0.2080
 8378SOL    HW235604   8.309   8.305   2.532  0.5802  0.3921 -0.5679
 8379SOL     OW35605   9.062   9.950   0.182 -0.2448 -0.5388 -0.3165
 8379SOL    HW135606   8.989   9.925   0.247 -1.4787  0.5990 -1.2319
 8379SOL    HW235607   9.116  10.024   0.221 -0.3818 -0.5022 -0.1935
 8380SOL     OW35608   2.060   3.611   2.791  0.6390 -0.5490  0.0837
 8380SOL    HW135609   2.018   3.699   2.811 -1.3035 -1.5966  0.8001
 8380SOL    HW235610   2.065   3.598   2.692  3.4438  1.4875 -0.1079
 8381SOL     OW35611   3.184   2.735   0.028 -0.2015  0.0570  0.5971
 8381SOL    HW135612   3.104   2.717  -0.028  0.7869  2.3030 -1.6347
 8381SOL    HW235613   3.155   2.759   0.121 -2.2330  2.2139 -0.5477
 8382SOL     OW35614   3.949   5.995   2.439  0.2174  0.1436  0.2174
 8382SOL    HW135615   3.921   5.903   2.412 -0.0963 -0.8267  3.5334
 8382SOL    HW235616   3.868   6.051   2.452  0.2870  0.1809  0.4886
 8383SOL     OW35617   9.782   8.553   2.113  0.3664  0.1523 -0.2660
 8383SOL    HW135618   9.718   8.494   2.162  2.0778 -1.3480  0.2012
 8383SOL    HW235619   9.731   8.619   2.058 -1.5729 -0.4111  0.8163
 8384SOL     OW35620   1.443   7.908   3.727 -0.0047  0.2174  0.1564
 8384SOL    HW135621   1.473   7.967   3.802 -1.3037 -0.5414  1.3009
 8384SOL    HW235622   1.503   7.829   3.720  0.2020  0.3624  0.3003
 8385SOL     OW35623   6.344   7.885   3.103 -0.5140 -0.1264  0.3695
 8385SOL    HW135624   6.388   7.835   3.177  0.7323  0.3170 -0.0590
 8385SOL    HW235625   6.359   7.983   3.115 -1.1731  0.0104  0.0865
 8386SOL     OW35626   2.944   1.925   2.424  0.5056 -0.0794 -0.0009
 8386SOL    HW135627   2.898   1.845   2.462 -0.1091  0.9259  1.4229
 8386SOL    HW235628   2.918   1.935   2.328 -0.5069 -0.8042  0.1822
 8387SOL     OW35629   8.856   4.928   1.134 -0.0087  0.1037 -0.7266
 8387SOL    HW135630   8.867   4.980   1.219 -0.0387  0.2552 -0.8171
 8387SOL    HW235631   8.801   4.981   1.069 -1.4972 -0.7451 -0.1955
 8388SOL     OW35632   7.328   2.853   0.250 -0.2672  0.0884 -0.5707
 8388SOL    HW135633   7.276   2.838   0.335 -0.0305 -0.2780 -0.4898
 8388SOL    HW235634   7.416   2.805   0.256 -0.0822  0.3892 -0.8646
 8389SOL     OW35635   1.514   5.896   2.801 -0.0161 -0.5644  0.5622
 8389SOL    HW135636   1.450   5.958   2.847  1.1013 -0.3154  1.7986
 8389SOL    HW235637   1.466   5.847   2.729 -1.3940  0.2809  0.8820
 8390SOL     OW35638   4.060   9.369   1.908  0.1131  0.0357 -0.2958
 8390SOL    HW135639   3.975   9.359   1.856 -0.0126 -2.2382  0.2746
 8390SOL    HW235640   4.075   9.286   1.963  1.7336  1.1915  1.0507
 8391SOL     OW35641   8.757   8.434   0.821 -0.0140 -0.0660 -0.2960
 8391SOL    HW135642   8.836   8.447   0.881 -1.2646 -0.3190  1.4423
 8391SOL    HW235643   8.720   8.523   0.794 -0.4301  0.0615  0.6616
 8392SOL     OW35644   7.915   1.176   3.541 -0.0374  0.4022 -0.0488
 8392SOL    HW135645   7.848   1.197   3.613 -0.7549  0.4555 -0.7205
 8392SOL    HW235646   8.007   1.183   3.578 -0.3980  0.5512  0.8366
 8393SOL     OW35647   8.388   2.630   3.558 -0.5635 -0.7221  0.5456
 8393SOL    HW135648   8.398   2.539   3.516  1.4942  1.0169 -2.9576
 8393SOL    HW235649   8.292   2.655   3.560 -0.7317 -0.8170 -3.4096
 8394SOL     OW35650   0.188   5.589   2.406  0.4353 -0.0656 -0.1036
 8394SOL    HW135651   0.134   5.515   2.446  1.5297 -1.3003 -0.8888
 8394SOL    HW235652   0.156   5.608   2.314  0.0131  0.5889  0.1773
 8395SOL     OW35653   9.020   6.739   4.014  0.3574 -0.5172  0.7121
 8395SOL    HW135654   8.927   6.770   3.993  0.8719  0.3070 -0.4109
 8395SOL    HW235655   9.085   6.812   3.992  1.4124 -1.6515  0.0119
 8396SOL     OW35656   0.829   4.637   3.412  0.3466  0.0747 -0.0571
 8396SOL    HW135657   0.915   4.635   3.464 -0.1144 -0.9482  0.6832
 8396SOL    HW235658   0.833   4.569   3.339  0.1204 -0.0568  0.0539
 8397SOL     OW35659   1.870   7.495   1.861  0.6512  0.4371  0.2945
 8397SOL    HW135660   1.909   7.411   1.825 -0.9336 -0.2590  0.1292
 8397SOL    HW235661   1.910   7.516   1.951 -0.0457 -1.3332  1.0354
 8398SOL     OW35662   0.024   4.850   1.014  0.2815 -0.0070 -0.2374
 8398SOL    HW135663   0.002   4.942   0.982  0.3777 -0.4100 -1.4811
 8398SOL    HW235664   0.022   4.786   0.937  1.7217 -0.7847  0.3447
 8399SOL     OW35665   3.486   0.684   3.176  0.0858 -0.0211 -0.0547
 8399SOL    HW135666   3.398   0.638   3.161 -0.1262  0.3291  0.1092
 8399SOL    HW235667   3.520   0.662   3.267 -0.6555  1.1931  0.5304
 8400SOL     OW35668   4.509   3.637   0.353  0.0057  0.5608  0.2266
 8400SOL    HW135669   4.463   3.564   0.402 -0.5211  1.3412  0.9009
 8400SOL    HW235670   4.441   3.697   0.310  0.4125  1.1930  0.4576
 8401SOL     OW35671   2.385   7.850   0.716  0.0956  0.4090 -0.4736
 8401SOL    HW135672   2.435   7.772   0.755 -1.3617 -0.6585 -0.6796
 8401SOL    HW235673   2.401   7.854   0.618 -0.5090 -0.1684 -0.6014
 8402SOL     OW35674   1.240   4.378   1.489  0.2145  0.5318 -0.6126
 8402SOL    HW135675   1.303   4.383   1.567 -0.3436  1.6821 -0.2162
 8402SOL    HW235676   1.147   4.391   1.522 -0.1795 -0.5737 -1.2765
 8403SOL     OW35677   4.613   7.963   2.971  0.1449  0.0184  1.0576
 8403SOL    HW135678   4.550   7.970   3.048  0.8835 -1.3849  1.8062
 8403SOL    HW235679   4.615   7.869   2.937  1.1085  0.2575  0.4204
 8404SOL     OW35680   4.952   8.925   2.367  0.1252  0.2261 -0.0101
 8404SOL    HW135681   5.041   8.902   2.326 -0.6229 -2.7459 -0.0826
 8404SOL    HW235682   4.898   8.977   2.302  1.0377  0.2673 -0.7487
 8405SOL     OW35683   0.014   2.335   0.880 -0.0610 -0.1787 -0.4833
 8405SOL    HW135684   0.091   2.276   0.906 -2.4493 -3.1728  0.0704
 8405SOL    HW235685  -0.039   2.290   0.809 -0.8120  2.2770 -1.5111
 8406SOL     OW35686   0.847   1.172   1.872  0.0813  0.2411 -0.0030
 8406SOL    HW135687   0.816   1.211   1.786 -0.5578  0.4043  0.2952
 8406SOL    HW235688   0.815   1.230   1.948  0.0416 -0.2803  0.3787
 8407SOL     OW35689   0.419   3.347   1.444 -0.4405 -0.5809 -0.3347
 8407SOL    HW135690   0.506   3.347   1.394  0.2341  0.7663  0.7751
 8407SOL    HW235691   0.343   3.351   1.379  0.3463 -1.3385 -1.3076
 8408SOL     OW35692   4.592   9.629   2.867  0.4350  0.3033  0.4545
 8408SOL    HW135693   4.530   9.708   2.868 -0.0921 -0.1119  0.9400
 8408SOL    HW235694   4.686   9.661   2.873  0.1800  0.8552  1.7070
 8409SOL     OW35695   1.358   4.122   3.939 -0.4378  0.4005 -0.4240
 8409SOL    HW135696   1.443   4.164   3.971 -0.8999  0.5534  0.6589
 8409SOL    HW235697   1.374   4.027   3.914  0.0073  0.3704 -0.0216
 8410SOL     OW35698   5.419   9.929   1.936 -0.1754  0.3169 -0.5533
 8410SOL    HW135699   5.398   9.915   1.839 -0.9492  0.1528 -0.3640
 8410SOL    HW235700   5.372  10.010   1.969 -1.3964 -0.6519  0.1458
 8411SOL     OW35701   9.819   7.358   3.030 -0.7469 -0.3064 -0.1061
 8411SOL    HW135702   9.786   7.415   3.106  0.7743 -0.1485  0.4558
 8411SOL    HW235703   9.749   7.291   3.006 -1.2820 -0.2961  1.3715
 8412SOL     OW35704   9.462   6.428   3.374  0.3583 -0.1359 -0.2460
 8412SOL    HW135705   9.438   6.383   3.289 -3.8239  2.5180 -0.6037
 8412SOL    HW235706   9.504   6.516   3.355  0.7276 -0.1510  0.4634
 8413SOL     OW35707   6.894   9.594   1.349  0.5701  0.2762  0.6335
 8413SOL    HW135708   6.859   9.688   1.353  0.5111  0.2518  0.6771
 8413SOL    HW235709   6.819   9.531   1.367  0.5198  0.2007  0.1496
 8414SOL     OW35710   2.284   6.449   1.110  0.4500  0.0171 -0.0628
 8414SOL    HW135711   2.348   6.494   1.048  0.9343 -1.6313 -0.7946
 8414SOL    HW235712   2.200   6.427   1.061  0.2121  0.1292  0.2917
 8415SOL     OW35713   1.695   6.902   3.851 -0.1554 -0.0403  0.5255
 8415SOL    HW135714   1.682   6.917   3.949  0.1877 -0.7849  0.6856
 8415SOL    HW235715   1.645   6.821   3.822 -0.7565  0.5217 -0.0413
 8416SOL     OW35716   9.012   3.180   0.519 -0.3071  0.2553  0.6731
 8416SOL    HW135717   8.950   3.126   0.574 -1.0972  0.8196  0.3518
 8416SOL    HW235718   8.977   3.274   0.511  0.7520  0.6704  0.7687
 8417SOL     OW35719   1.731   8.774   2.175  0.2380 -0.1277  0.0523
 8417SOL    HW135720   1.798   8.848   2.178 -0.3103  0.4909 -2.0306
 8417SOL    HW235721   1.778   8.687   2.161  0.7363  0.0340  0.6702
 8418SOL     OW35722   7.287   9.161   2.379 -0.0203  0.0674 -0.6843
 8418SOL    HW135723   7.320   9.254   2.361 -1.3953  0.7022  0.0069
 8418SOL    HW235724   7.201   9.166   2.431  0.3007 -1.6040  0.0123
 8419SOL     OW35725   2.580   7.029   2.451  0.6210 -0.7377  0.0428
 8419SOL    HW135726   2.654   7.041   2.517  1.6173  0.2183 -1.2239
 8419SOL    HW235727   2.589   6.942   2.405  0.8540 -0.6959  0.0114
 8420SOL     OW35728   8.281   6.658   1.329  0.1178  0.4657 -0.0921
 8420SOL    HW135729   8.243   6.750   1.333  0.5829  0.6085  1.6314
 8420SOL    HW235730   8.213   6.591   1.359 -0.7946  0.0290 -2.9847
 8421SOL     OW35731   3.295   8.227   0.304  0.0173 -0.4842 -0.0225
 8421SOL    HW135732   3.390   8.259   0.295 -0.0197 -0.2895  0.2631
 8421SOL    HW235733   3.279   8.197   0.398  0.1138 -1.5633 -0.3436
 8422SOL     OW35734   1.849   5.759   2.651 -0.0412 -0.0421  0.4805
 8422SOL    HW135735   1.801   5.846   2.640  1.5836  1.0482  1.8708
 8422SOL    HW235736   1.813   5.693   2.584 -1.2326  1.6922 -0.6364
 8423SOL     OW35737   9.620   0.616   3.967  0.3943  0.0117 -0.1241
 8423SOL    HW135738   9.586   0.638   3.876 -0.5573  0.6589  0.3719
 8423SOL    HW235739   9.671   0.531   3.965  1.0779  0.4505 -1.4214
 8424SOL     OW35740   4.149   3.002   1.944 -0.1829 -0.2742 -0.5427
 8424SOL    HW135741   4.113   3.011   2.037 -1.6341 -0.7179 -1.0395
 8424SOL    HW235742   4.162   2.905   1.923 -0.3878 -0.2100 -0.9842
 8425SOL     OW35743   5.325   0.124   2.081  1.1836 -0.9727  0.1556
 8425SOL    HW135744   5.319   0.223   2.063 -0.8965 -1.4561 -2.1126
 8425SOL    HW235745   5.366   0.109   2.171  0.4582  1.9926  1.0480
 8426SOL     OW35746   0.913   7.418   1.412  0.0875  0.0003  0.4245
 8426SOL    HW135747   0.909   7.330   1.459 -0.6867  0.8420  1.9725
 8426SOL    HW235748   0.821   7.459   1.409  0.6758  1.4099  1.0199
 8427SOL     OW35749   3.141   2.876   0.535 -0.1289  0.9989 -0.0366
 8427SOL    HW135750   3.157   2.865   0.634  0.6988 -0.6272 -0.3374
 8427SOL    HW235751   3.185   2.961   0.504 -0.6896  1.6979  1.0575
 8428SOL     OW35752   2.419   4.585   2.615 -0.1219 -0.2427 -0.0449
 8428SOL    HW135753   2.384   4.595   2.708 -0.5007 -0.2601 -0.1834
 8428SOL    HW235754   2.409   4.671   2.566 -1.9134 -0.8297 -0.7407
 8429SOL     OW35755   1.968   0.544   0.036  0.2887 -0.2809  0.0762
 8429SOL    HW135756   2.019   0.479   0.092  0.3256  1.8950  2.6518
 8429SOL    HW235757   1.878   0.560   0.077  1.0368  2.7834  0.6125
 8430SOL     OW35758   1.187   8.674   3.260  0.2084 -0.1160  0.4632
 8430SOL    HW135759   1.159   8.578   3.258  1.3862 -0.4485 -2.5918
 8430SOL    HW235760   1.284   8.679   3.285  0.7318  0.1023 -1.5761
 8431SOL     OW35761   0.077   2.439   1.802 -0.2420  0.0485  0.2890
 8431SOL    HW135762   0.045   2.530   1.831 -0.5808 -0.4296  1.4644
 8431SOL    HW235763   0.156   2.413   1.856  0.7464  0.2479 -1.0455
 8432SOL     OW35764   8.171   9.287   3.886  0.0225  0.0019  0.6015
 8432SOL    HW135765   8.108   9.225   3.838 -1.3868  2.0795 -0.2729
 8432SOL    HW235766   8.156   9.279   3.985  1.9606 -3.2606  0.7001
 8433SOL     OW35767   4.584   0.251   2.448  0.3019  0.0394  0.1748
 8433SOL    HW135768   4.617   0.180   2.386 -0.6912 -1.4911  1.3955
 8433SOL    HW235769   4.621   0.236   2.539  1.4838  2.0995  0.0738
 8434SOL     OW35770   7.722   8.810   2.910  0.2717 -0.2637 -0.2181
 8434SOL    HW135771   7.630   8.808   2.948 -0.0257 -2.5662 -0.9837
 8434SOL    HW235772   7.723   8.869   2.829 -1.0171 -1.8025 -1.3734
 8435SOL     OW35773   0.131   7.979   3.551 -0.1484  0.0434  0.4965
 8435SOL    HW135774   0.185   7.899   3.579 -0.7759 -0.6440 -0.2146
 8435SOL    HW235775   0.122   7.979   3.451  0.2403  1.2671  0.4572
 8436SOL     OW35776   9.296   3.374   1.219  0.3859  0.3138 -0.1476
 8436SOL    HW135777   9.303   3.469   1.250  0.3275 -0.2341  1.5715
 8436SOL    HW235778   9.385   3.329   1.227  0.4561  0.2629 -1.1237
 8437SOL     OW35779   0.324   9.121   0.655 -0.1998 -0.6973  0.6228
 8437SOL    HW135780   0.342   9.077   0.567  1.2123 -0.4783  0.7902
 8437SOL    HW235781   0.349   9.058   0.729 -0.5022 -0.5254  0.8750
 8438SOL     OW35782   2.860   5.868   2.865  0.4899  0.3658  0.0039
 8438SOL    HW135783   2.796   5.945   2.866 -0.6650 -0.5849 -0.0462
 8438SOL    HW235784   2.941   5.894   2.813 -0.0543  1.4300 -0.3354
 8439SOL     OW35785   1.035   6.935   0.058  0.2064  0.5341  0.0652
 8439SOL    HW135786   0.948   6.976   0.032  1.0531  2.7187  0.5738
 8439SOL    HW235787   1.089   7.002   0.110  2.4489 -0.5734 -0.7877
 8440SOL     OW35788   1.544   8.587   3.182  0.6628  0.5611 -0.1750
 8440SOL    HW135789   1.499   8.622   3.264 -0.9995  2.1532 -1.7273
 8440SOL    HW235790   1.592   8.662   3.136 -0.4802  0.2238 -1.9633
 8441SOL     OW35791   4.007   2.031   0.410  0.3385 -0.2734 -0.0383
 8441SOL    HW135792   4.092   2.045   0.360  1.6487  0.7636  2.4163
 8441SOL    HW235793   4.027   1.993   0.500 -1.6856  1.1135  1.0353
 8442SOL     OW35794   0.653   0.587   1.549 -0.0528  0.1882 -0.0171
 8442SOL    HW135795   0.730   0.650   1.559  1.2188 -1.1588 -1.2019
 8442SOL    HW235796   0.638   0.539   1.636 -0.6629  1.6868  0.7174
 8443SOL     OW35797   4.183   9.050   1.138  0.1329  0.9917 -0.1589
 8443SOL    HW135798   4.154   8.959   1.106  1.1150  0.3501  0.7670
 8443SOL    HW235799   4.113   9.117   1.114 -0.9110 -0.1170 -0.2567
 8444SOL     OW35800   8.685   4.441   3.876  0.0090 -0.1505 -0.2816
 8444SOL    HW135801   8.760   4.497   3.911  0.4155 -0.9677  0.1717
 8444SOL    HW235802   8.722   4.369   3.817 -0.4641 -0.2048 -0.5112
 8445SOL     OW35803   6.057   8.063   1.712 -0.4895 -0.2208 -0.5233
 8445SOL    HW135804   5.989   8.110   1.655 -1.6332 -1.5796 -0.3003
 8445SOL    HW235805   6.048   8.093   1.807  1.2640  1.8696 -0.9701
 8446SOL     OW35806   7.642   3.933   0.254  0.3912 -0.6046 -0.4949
 8446SOL    HW135807   7.551   3.963   0.281  1.4629  1.6004  0.7883
 8446SOL    HW235808   7.690   4.008   0.208  2.7537 -0.5575  1.8763
 8447SOL     OW35809   7.426   0.267   3.218 -0.3810 -0.3981  0.2265
 8447SOL    HW135810   7.441   0.226   3.308 -2.0066  0.3032  0.8468
 8447SOL    HW235811   7.493   0.339   3.203  0.7081 -1.3708  0.3261
 8448SOL     OW35812   2.277   0.103   3.452  0.0535 -0.6194  0.3130
 8448SOL    HW135813   2.290   0.202   3.443 -1.3759 -0.2138  2.5239
 8448SOL    HW235814   2.299   0.059   3.365 -1.7121  1.8944 -1.4794
 8449SOL     OW35815   0.698   1.973   2.985  0.2929  0.0076 -0.2066
 8449SOL    HW135816   0.746   2.047   2.939  1.0283 -0.8255 -0.8048
 8449SOL    HW235817   0.615   1.950   2.935  0.4237 -0.0337 -0.4033
 8450SOL     OW35818   0.925   1.185   3.461  0.6811  0.0095 -0.0515
 8450SOL    HW135819   1.017   1.144   3.460  0.6107 -0.1833  0.8455
 8450SOL    HW235820   0.873   1.151   3.383  0.6723 -1.5155  0.5943
 8451SOL     OW35821   3.804   6.759   1.617  0.0188 -0.2195 -0.3312
 8451SOL    HW135822   3.887   6.798   1.656  0.9171 -1.5524 -0.9123
 8451SOL    HW235823   3.740   6.737   1.691  0.4348  0.2088  0.1638
 8452SOL     OW35824   3.587   1.007   1.960 -0.1458 -0.7606  0.7039
 8452SOL    HW135825   3.625   1.085   1.910 -0.1258 -1.2134  0.0123
 8452SOL    HW235826   3.661   0.957   2.005 -0.0490 -0.9256  0.3675
 8453SOL     OW35827   2.292   4.569   2.873  0.4571 -0.0537  0.1064
 8453SOL    HW135828   2.351   4.584   2.952  0.2625 -1.6949  0.5872
 8453SOL    HW235829   2.252   4.478   2.878  0.2797 -0.1053 -1.7928
 8454SOL     OW35830   0.269   9.518   3.808  0.0718 -0.1627 -0.3246
 8454SOL    HW135831   0.244   9.446   3.872  0.9105 -0.4537 -0.3226
 8454SOL    HW235832   0.216   9.507   3.723 -1.9825  0.9758  0.7600
 8455SOL     OW35833   2.676   4.040   0.595 -0.4272  0.1522 -0.1236
 8455SOL    HW135834   2.675   4.046   0.695  1.8449 -1.9470  0.0839
 8455SOL    HW235835   2.731   4.115   0.558 -2.0136  1.4583  0.1163
 8456SOL     OW35836   1.330   6.994   0.781  0.0271 -0.0656 -0.1873
 8456SOL    HW135837   1.428   7.012   0.781  0.1793 -0.8137  1.1521
 8456SOL    HW235838   1.280   7.081   0.779  0.7383  0.4288  1.9619
 8457SOL     OW35839   0.706   2.377   2.038 -0.7349  0.0534  0.1722
 8457SOL    HW135840   0.788   2.386   1.980 -0.9304 -0.9751 -0.2729
 8457SOL    HW235841   0.645   2.454   2.020 -0.3975  0.2081 -0.3502
 8458SOL     OW35842   7.919   5.769   2.703  0.1421  0.3161 -0.1343
 8458SOL    HW135843   8.008   5.725   2.685  0.0013 -0.6494  1.4833
 8458SOL    HW235844   7.857   5.749   2.627  0.6590 -0.7406 -0.2947
 8459SOL     OW35845   1.499   1.775   0.038 -0.2854  0.1790 -0.5560
 8459SOL    HW135846   1.575   1.828   0.077  0.2283  0.1784 -1.5500
 8459SOL    HW235847   1.523   1.745  -0.054 -1.1141 -0.6475 -0.5082
 8460SOL     OW35848   6.364   9.868   2.425 -0.4039  0.3766  0.0065
 8460SOL    HW135849   6.322   9.945   2.472  1.1626  0.1407  1.8419
 8460SOL    HW235850   6.426   9.821   2.487  0.7413 -0.7266 -1.9315
 8461SOL     OW35851   2.566   7.214   0.355 -0.1411  0.0306  0.5534
 8461SOL    HW135852   2.525   7.132   0.316 -0.7591 -0.1690  1.6079
 8461SOL    HW235853   2.531   7.295   0.307  0.9800 -0.3410 -0.9290
 8462SOL     OW35854   1.111   2.675   2.733  0.3068 -0.3774 -0.1575
 8462SOL    HW135855   1.013   2.697   2.740  0.5384  0.5175  0.2508
 8462SOL    HW235856   1.147   2.652   2.823  0.9808  1.4680  0.0613
 8463SOL     OW35857   0.688   8.367   0.553 -0.6175  0.2635 -0.0462
 8463SOL    HW135858   0.687   8.301   0.628 -0.2890  0.2216 -0.0750
 8463SOL    HW235859   0.706   8.319   0.467 -0.0816  0.4263 -0.0282
 8464SOL     OW35860   0.101   5.655   2.164 -0.6887 -0.5722  0.6399
 8464SOL    HW135861   0.020   5.597   2.172 -3.0096  2.3992 -0.1508
 8464SOL    HW235862   0.097   5.706   2.078  1.2120  0.7734  1.3105
 8465SOL     OW35863   6.697   9.791   3.012  0.0291  0.0667  0.0919
 8465SOL    HW135864   6.719   9.733   3.091  0.3807 -3.3000 -2.3580
 8465SOL    HW235865   6.779   9.839   2.981  0.4487 -0.5381  0.2673
 8466SOL     OW35866   8.493   8.959   1.462  0.2829 -0.4623  0.1986
 8466SOL    HW135867   8.592   8.954   1.447  0.0813 -0.9044 -1.0269
 8466SOL    HW235868   8.461   9.052   1.446  1.0798  0.6171  4.3816
 8467SOL     OW35869   8.787   0.900   2.344 -0.6581  0.3026  0.1066
 8467SOL    HW135870   8.860   0.899   2.412 -0.8463 -0.4685  0.3072
 8467SOL    HW235871   8.823   0.872   2.255 -0.5178  0.8116  0.0053
 8468SOL     OW35872   3.173   6.519   3.807 -0.3496  0.3985 -0.7530
 8468SOL    HW135873   3.213   6.433   3.838  0.0815  0.5075 -0.9928
 8468SOL    HW235874   3.080   6.528   3.842 -0.4888 -0.2885 -0.9446
 8469SOL     OW35875   8.544   1.304   3.393  0.0984  0.1548  0.1719
 8469SOL    HW135876   8.542   1.204   3.395  1.2683  0.0984 -1.1994
 8469SOL    HW235877   8.476   1.337   3.328 -0.0685  0.2532  0.3937
 8470SOL     OW35878   8.817   8.206   1.145 -0.7687  0.1586  0.2591
 8470SOL    HW135879   8.877   8.169   1.074 -0.1365  0.8084  0.4516
 8470SOL    HW235880   8.870   8.265   1.206 -1.1161 -1.0544  1.7735
 8471SOL     OW35881   3.265   8.720   0.997 -0.5912 -0.5250 -0.3223
 8471SOL    HW135882   3.330   8.645   0.992  0.0834  0.0086  0.1688
 8471SOL    HW235883   3.247   8.742   1.093  1.6765  1.9896 -0.3945
 8472SOL     OW35884   1.593   9.749   1.254  0.1418  0.1763  0.1936
 8472SOL    HW135885   1.674   9.762   1.197  0.1354  1.7565  0.5042
 8472SOL    HW235886   1.615   9.770   1.349  0.0152 -1.9327  0.6924
 8473SOL     OW35887   1.374   9.999   4.017  0.4090 -0.4759  0.4938
 8473SOL    HW135888   1.408   9.929   3.954 -3.4737 -1.2110 -0.9186
 8473SOL    HW235889   1.348  10.081   3.966  0.3611  0.1675  1.5362
 8474SOL     OW35890   2.729   9.216   2.675  0.3481 -0.0495 -0.2898
 8474SOL    HW135891   2.726   9.206   2.576  2.3192  0.5085 -0.4171
 8474SOL    HW235892   2.799   9.156   2.713  1.2303  1.4526  0.5197
 8475SOL     OW35893   9.410   1.722   1.328  0.2580 -0.1020  0.5182
 8475SOL    HW135894   9.484   1.785   1.352  0.4196 -0.2820  0.4972
 8475SOL    HW235895   9.335   1.733   1.393  0.2920  0.1033  0.5220
 8476SOL     OW35896   1.175   8.398   3.276 -0.3998  0.0459  0.2859
 8476SOL    HW135897   1.109   8.350   3.333 -0.3374 -1.9330 -1.2538
 8476SOL    HW235898   1.141   8.403   3.182 -0.1731  2.6179  0.3024
 8477SOL     OW35899   8.259   5.758   3.718 -0.3086  0.0619 -0.2267
 8477SOL    HW135900   8.309   5.798   3.795 -0.9288 -0.5120  0.4767
 8477SOL    HW235901   8.307   5.677   3.686  1.5297  1.9039 -2.3378
 8478SOL     OW35902   1.512   1.538   1.905 -0.1058 -0.3882  0.1321
 8478SOL    HW135903   1.438   1.471   1.917  0.5621 -1.3582 -1.0154
 8478SOL    HW235904   1.518   1.562   1.808  0.6036  0.2561  0.3382
 8479SOL     OW35905   0.195   9.330   4.007  0.2587  0.1004 -0.3297
 8479SOL    HW135906   0.125   9.350   4.075  0.4860 -0.7782  0.1738
 8479SOL    HW235907   0.221   9.233   4.012  0.4152  0.0646 -1.5377
 8480SOL     OW35908   1.317   2.396   3.898  0.4031  0.1415  0.1582
 8480SOL    HW135909   1.338   2.306   3.935  0.6356 -0.3727 -1.2122
 8480SOL    HW235910   1.346   2.401   3.803  0.3560  1.6557  0.2096
 8481SOL     OW35911   9.290   4.340   1.255 -0.3035  0.2024 -0.6911
 8481SOL    HW135912   9.289   4.352   1.354 -0.1400  0.1304 -0.6807
 8481SOL    HW235913   9.196   4.340   1.221 -0.4563 -1.8385 -0.2943
 8482SOL     OW35914   9.726   7.522   0.751  0.3042 -0.7082  0.1426
 8482SOL    HW135915   9.718   7.573   0.837 -0.2969 -0.6876  0.0759
 8482SOL    HW235916   9.802   7.558   0.698 -1.1701  1.2972 -0.6809
 8483SOL     OW35917   1.768   2.324   0.035  0.6001  0.0253  0.9501
 8483SOL    HW135918   1.786   2.304   0.131  0.5839 -0.6038  0.8255
 8483SOL    HW235919   1.807   2.252  -0.022 -0.4496 -0.2392  0.5584
 8484SOL     OW35920   3.816   0.367   3.268 -0.0186 -0.0530  0.3791
 8484SOL    HW135921   3.883   0.303   3.307  0.8806  0.7256  0.1559
 8484SOL    HW235922   3.802   0.346   3.171  0.7563  0.4582  0.1456
 8485SOL     OW35923   7.659   8.514   3.203 -0.0838 -0.1432  0.1065
 8485SOL    HW135924   7.736   8.504   3.140 -0.4862 -1.5494 -0.1582
 8485SOL    HW235925   7.584   8.455   3.175 -0.5742 -0.1728  1.4374
 8486SOL     OW35926   8.889   4.400   2.602  0.5740 -0.6348  0.3590
 8486SOL    HW135927   8.883   4.346   2.518 -1.3264 -0.1249  0.1436
 8486SOL    HW235928   8.809   4.381   2.660  1.4149 -0.3108  1.6538
 8487SOL     OW35929   6.483   7.153   1.798 -0.2989 -0.1412 -0.0907
 8487SOL    HW135930   6.407   7.158   1.862 -0.1502 -0.2603  0.0960
 8487SOL    HW235931   6.506   7.057   1.780  0.4190 -0.0996  0.5856
 8488SOL     OW35932   9.473   6.782   3.663  0.2602 -0.0466 -0.4111
 8488SOL    HW135933   9.453   6.716   3.591  0.1852  1.5096 -1.8455
 8488SOL    HW235934   9.418   6.864   3.649  3.1154  1.8648 -0.8880
 8489SOL     OW35935   9.330   9.731   0.824 -0.0979  0.4592  0.0119
 8489SOL    HW135936   9.353   9.821   0.786  0.1262 -0.1705 -1.3547
 8489SOL    HW235937   9.231   9.721   0.827 -0.1069 -0.1748 -2.0581
 8490SOL     OW35938   3.887   9.876   3.984  0.8704 -0.4526 -0.1393
 8490SOL    HW135939   3.943   9.818   4.044  1.1894 -0.8720 -0.8307
 8490SOL    HW235940   3.946   9.924   3.920  0.4605 -0.6543 -0.6679
 8491SOL     OW35941   2.384   5.259   3.393  0.2085 -0.0943  0.2705
 8491SOL    HW135942   2.443   5.183   3.365 -0.1349 -0.2859  0.0651
 8491SOL    HW235943   2.317   5.278   3.321 -0.8899 -0.7959  1.0920
 8492SOL     OW35944   0.557   1.437   3.947  0.1922  0.2466 -0.1577
 8492SOL    HW135945   0.532   1.365   4.012 -0.7597  0.7735  0.0827
 8492SOL    HW235946   0.650   1.422   3.914  0.3063 -0.6142  0.5332
 8493SOL     OW35947   6.234   9.332   2.780  0.3194  0.7335  0.1661
 8493SOL    HW135948   6.274   9.424   2.780 -0.4174  1.0621 -0.7768
 8493SOL    HW235949   6.147   9.334   2.829 -0.0237  0.6955 -0.4320
 8494SOL     OW35950   8.363   2.142   2.288  0.0852 -0.3409  0.1914
 8494SOL    HW135951   8.292   2.198   2.245  0.0847 -0.2611  0.2942
 8494SOL    HW235952   8.418   2.098   2.218 -0.2512 -0.6376  0.1164
 8495SOL     OW35953   9.676   2.346   1.801 -0.0896  0.2691 -0.4171
 8495SOL    HW135954   9.582   2.339   1.765 -0.1586 -2.5001  0.2004
 8495SOL    HW235955   9.738   2.370   1.726 -1.0418  0.2972 -1.2072
 8496SOL     OW35956   1.619   4.354   2.858  0.4737 -0.1143  0.3360
 8496SOL    HW135957   1.620   4.451   2.883 -0.2282  0.6571 -2.3724
 8496SOL    HW235958   1.525   4.319   2.861  0.5742 -0.3937  0.2681
 8497SOL     OW35959   4.933   3.495   0.855  0.0817  0.0219 -0.1876
 8497SOL    HW135960   4.862   3.555   0.821  0.1957  0.4128  0.2624
 8497SOL    HW235961   4.986   3.459   0.778 -0.3998 -0.0210 -0.4973
 8498SOL     OW35962   0.406   1.207   2.309  0.0213  0.2334  0.0244
 8498SOL    HW135963   0.337   1.157   2.256  1.6028 -1.1805 -0.7436
 8498SOL    HW235964   0.468   1.142   2.353  0.0058  1.4551  1.9053
 8499SOL     OW35965   0.457   2.546   1.731  0.1206  0.4078  0.0223
 8499SOL    HW135966   0.430   2.471   1.671 -0.6917  0.4526  0.3321
 8499SOL    HW235967   0.427   2.527   1.824 -0.2653  1.2038  0.0646
 8500SOL     OW35968   3.634   1.358   1.755 -0.1247 -0.0895  0.3453
 8500SOL    HW135969   3.547   1.389   1.717 -0.3045  0.1962  0.9870
 8500SOL    HW235970   3.704   1.428   1.742 -0.4092  0.3968  1.3469
 8501SOL     OW35971   8.705   3.067   2.374  0.1568  0.2917 -0.3481
 8501SOL    HW135972   8.771   3.060   2.299 -0.6152  0.4780 -1.0533
 8501SOL    HW235973   8.645   3.146   2.358  0.2371  0.5610  0.6638
 8502SOL     OW35974   3.374   8.911   2.595 -0.3791  0.6125 -0.2481
 8502SOL    HW135975   3.335   8.822   2.573  0.7382  0.3235 -1.1371
 8502SOL    HW235976   3.328   8.950   2.675 -0.1714 -1.2409  0.7871
 8503SOL     OW35977   0.300   2.103   1.561 -0.2841 -0.5184  0.5813
 8503SOL    HW135978   0.320   2.184   1.507  1.3595  0.2538  2.3052
 8503SOL    HW235979   0.218   2.119   1.616 -2.2454 -1.4862 -2.0087
 8504SOL     OW35980   9.928   6.516   2.329  0.3145 -0.5613 -0.5822
 8504SOL    HW135981  10.027   6.522   2.312  0.7753  1.7885  2.3628
 8504SOL    HW235982   9.883   6.596   2.289 -0.2461 -1.0224 -0.8813
 8505SOL     OW35983   0.015   0.110   3.120  0.0393 -0.3007 -0.8924
 8505SOL    HW135984  -0.056   0.086   3.186 -1.0334 -0.9808 -2.2550
 8505SOL    HW235985  -0.027   0.155   3.041  1.3760  1.0980 -0.8191
 8506SOL     OW35986   0.535   0.805   2.988  0.1083 -0.0011  0.2968
 8506SOL    HW135987   0.626   0.832   3.019  1.6517 -2.1049 -2.2781
 8506SOL    HW235988   0.503   0.870   2.919  1.8869 -2.0288 -2.5406
 8507SOL     OW35989   2.873   7.564   0.061  0.7401  0.0004  0.0535
 8507SOL    HW135990   2.906   7.547   0.154  0.5056 -1.8848 -0.1740
 8507SOL    HW235991   2.943   7.611   0.008  1.2720  0.1626  0.8905
 8508SOL     OW35992   1.642   9.478   2.552 -0.1851 -0.5156  0.4205
 8508SOL    HW135993   1.661   9.573   2.577 -0.8835  0.6822 -3.3157
 8508SOL    HW235994   1.551   9.472   2.512  0.8513 -2.2902 -1.7410
 8509SOL     OW35995   1.852   2.547   0.716  0.2724 -0.7545 -0.0600
 8509SOL    HW135996   1.798   2.479   0.766  2.5163 -1.7520  1.0760
 8509SOL    HW235997   1.893   2.505   0.635  1.4258 -0.7236  0.4876
 8510SOL     OW35998   8.228   6.803   1.957 -0.0213  0.3784  0.2753
 8510SOL    HW135999   8.265   6.727   1.903 -0.1580  0.0672  0.6196
 8510SOL    HW236000   8.234   6.887   1.903  0.2566  0.1509 -0.0558
 8511SOL     OW36001   8.163   1.421   2.318 -0.2001 -0.0563  0.6368
 8511SOL    HW136002   8.246   1.451   2.366  1.8004 -0.4593 -2.4653
 8511SOL    HW236003   8.185   1.349   2.253 -2.9415  0.0305 -0.4870
 8512SOL     OW36004   4.557   5.068   1.427 -0.2722 -0.4810 -0.2582
 8512SOL    HW136005   4.479   5.023   1.384 -2.1918  2.0640  0.4066
 8512SOL    HW236006   4.591   5.013   1.503 -0.3542 -2.3759 -1.5689
 8513SOL     OW36007   8.233   2.461   1.163 -0.2154 -0.6737 -0.1481
 8513SOL    HW136008   8.310   2.425   1.110 -1.4102 -1.5513 -1.3059
 8513SOL    HW236009   8.151   2.465   1.106 -1.2688 -0.6258  1.3292
 8514SOL     OW36010   2.849   2.107   2.956 -0.1406 -0.5338 -0.2893
 8514SOL    HW136011   2.881   2.120   3.050 -0.2805  0.4230 -0.3652
 8514SOL    HW236012   2.888   2.178   2.897 -0.0079 -1.1632 -0.9697
 8515SOL     OW36013   8.483   6.389   1.736 -0.4055  0.2151 -0.8174
 8515SOL    HW136014   8.456   6.392   1.639  0.5334  0.0595 -1.0902
 8515SOL    HW236015   8.527   6.301   1.755  0.1072  0.5575 -0.4297
 8516SOL     OW36016   0.128   1.060   0.028 -0.1505 -0.2598  0.5419
 8516SOL    HW136017   0.051   1.093  -0.028 -0.1047 -0.4072  0.3899
 8516SOL    HW236018   0.172   1.137   0.073 -1.3770 -0.3279  1.9015
 8517SOL     OW36019   8.824   6.782   3.115  0.4288 -0.5329  0.0231
 8517SOL    HW136020   8.753   6.745   3.054  0.0350 -0.1964  0.2745
 8517SOL    HW236021   8.868   6.707   3.164  1.6157 -0.9311 -1.5983
 8518SOL     OW36022   8.530   4.478   1.361 -0.0373  0.4992  0.6069
 8518SOL    HW136023   8.575   4.397   1.324 -0.8803 -1.4886  3.7259
 8518SOL    HW236024   8.598   4.545   1.389  0.7564 -0.1059  0.1349
 8519SOL     OW36025   3.256   9.755   0.089 -0.2281 -0.0894 -0.1561
 8519SOL    HW136026   3.342   9.779   0.045 -0.1681 -2.2337 -1.2472
 8519SOL    HW236027   3.271   9.742   0.187  1.2339 -2.8210 -0.6864
 8520SOL     OW36028   8.023   4.810   2.926  0.4986 -0.5313  0.3841
 8520SOL    HW136029   8.058   4.744   2.992  0.0872 -0.0949  1.0431
 8520SOL    HW236030   7.957   4.870   2.970  0.6586  0.1465 -0.2786
 8521SOL     OW36031   4.543   7.754   3.314  0.3864  0.0317 -0.4137
 8521SOL    HW136032   4.594   7.671   3.338  0.5348  0.3780  0.5003
 8521SOL    HW236033   4.523   7.806   3.397 -1.5366 -0.1439 -0.7409
 8522SOL     OW36034   1.970   1.239   2.439 -0.4828 -0.7850  0.2068
 8522SOL    HW136035   2.015   1.201   2.358 -0.1407 -0.4844  0.2563
 8522SOL    HW236036   1.928   1.164   2.492 -0.6703 -0.9859 -0.2216
 8523SOL     OW36037   0.461   7.937   1.544  0.5987 -0.3760 -0.1331
 8523SOL    HW136038   0.546   7.955   1.593  0.1568 -3.0730  1.7512
 8523SOL    HW236039   0.395   8.010   1.564  1.5855  0.3292  0.5622
 8524SOL     OW36040   7.835   2.903   3.444  0.5632 -0.0788  0.5399
 8524SOL    HW136041   7.859   2.824   3.389 -0.6066 -0.8254  1.0765
 8524SOL    HW236042   7.918   2.945   3.482  1.1096 -1.8846  1.3908
 8525SOL     OW36043   7.188   9.125   0.754 -0.2182 -0.0596 -0.0917
 8525SOL    HW136044   7.172   9.126   0.853  0.9321 -0.8094  0.1261
 8525SOL    HW236045   7.170   9.033   0.719 -0.9375  0.2895 -0.6435
 8526SOL     OW36046   5.031   8.474   3.248  0.6504  0.0400 -0.2001
 8526SOL    HW136047   5.036   8.536   3.326  1.2761 -0.0585 -0.1563
 8526SOL    HW236048   4.942   8.482   3.205 -0.3296 -1.1113  1.5338
 8527SOL     OW36049   5.934   6.688   2.690 -0.2652 -0.1308 -0.2513
 8527SOL    HW136050   5.923   6.766   2.629 -2.0499 -0.8222 -0.8309
 8527SOL    HW236051   5.892   6.709   2.779 -2.0795 -0.9535 -0.8868
 8528SOL     OW36052   2.028   9.804   1.805 -0.0869 -0.4905 -0.5238
 8528SOL    HW136053   2.045   9.865   1.883 -2.2583  1.5412 -1.5695
 8528SOL    HW236054   1.975   9.725   1.836 -2.2623  1.0656 -0.1574
 8529SOL     OW36055   9.713   3.970   2.356 -0.1919  0.1419  0.3976
 8529SOL    HW136056   9.637   3.914   2.387 -0.5452 -0.5117 -1.6326
 8529SOL    HW236057   9.798   3.936   2.396 -0.4035 -1.8243 -0.7627
 8530SOL     OW36058   4.588   0.760   2.248  0.7504 -0.6878 -0.1210
 8530SOL    HW136059   4.593   0.665   2.280 -0.4579 -0.5249  0.6073
 8530SOL    HW236060   4.678   0.802   2.252  1.5491 -2.1904 -1.6809
 8531SOL     OW36061   8.469   8.037   0.254  0.5145 -0.2634  0.1483
 8531SOL    HW136062   8.424   8.014   0.341 -0.4176 -1.1075 -0.5473
 8531SOL    HW236063   8.457   7.962   0.189  2.2782 -0.1613 -0.3156
 8532SOL     OW36064   5.018   8.688   1.930 -0.3077 -0.3564 -0.1809
 8532SOL    HW136065   5.048   8.783   1.925 -2.8298  0.4957  0.3715
 8532SOL    HW236066   4.966   8.664   1.848 -1.0203 -0.7816  0.3876
 8533SOL     OW36067   2.953   9.655   3.520  0.4838 -0.1709 -0.3081
 8533SOL    HW136068   2.963   9.563   3.557 -1.5087 -0.3811 -0.2021
 8533SOL    HW236069   2.989   9.722   3.585 -1.2638 -0.6636  1.2313
 8534SOL     OW36070   9.215   3.858   3.495  0.0030 -0.2359  0.0062
 8534SOL    HW136071   9.290   3.821   3.441 -0.4148  0.1339 -0.8303
 8534SOL    HW236072   9.162   3.783   3.534 -0.0488 -0.5069 -0.5845
 8535SOL     OW36073   0.711   4.201   1.054 -0.0214  0.7118 -0.3775
 8535SOL    HW136074   0.634   4.145   1.085 -0.9533  1.7712 -0.7267
 8535SOL    HW236075   0.778   4.211   1.127  0.5586 -1.5320 -0.5709
 8536SOL     OW36076   5.062   8.524   3.888 -0.1292  0.2113  0.0884
 8536SOL    HW136077   4.973   8.518   3.932  0.7816 -1.3827  1.7957
 8536SOL    HW236078   5.063   8.603   3.826 -2.3769  0.8392  0.7880
 8537SOL     OW36079   8.114   6.840   2.989 -0.5025  0.2617 -0.2842
 8537SOL    HW136080   8.174   6.881   3.058  0.4103  1.5743 -1.8125
 8537SOL    HW236081   8.098   6.744   3.011 -0.0215  0.6028  1.6072
 8538SOL     OW36082   2.307   2.407   1.130 -0.4145  0.7533  0.2720
 8538SOL    HW136083   2.301   2.450   1.220 -0.3634 -0.4693  0.8652
 8538SOL    HW236084   2.223   2.423   1.079 -0.1803  2.0332  0.2620
 8539SOL     OW36085   0.870   3.575   1.806  0.6416  0.3833  0.1495
 8539SOL    HW136086   0.927   3.499   1.774  0.5977  0.4658 -0.1242
 8539SOL    HW236087   0.918   3.661   1.792  0.7887  0.3901  0.6766
 8540SOL     OW36088   0.909   6.458   2.397 -0.2198  0.0789 -0.1029
 8540SOL    HW136089   1.009   6.468   2.395 -0.4575  3.8035  1.5230
 8540SOL    HW236090   0.881   6.421   2.485 -0.4051  1.7265  0.5513
 8541SOL     OW36091   1.736   9.005   0.580  0.4595 -0.0037 -0.6195
 8541SOL    HW136092   1.768   9.043   0.667 -0.3243 -0.3854 -0.1624
 8541SOL    HW236093   1.813   8.999   0.516  0.6132  2.2651 -0.6692
 8542SOL     OW36094   3.598   8.842   0.141  0.3635 -0.1741 -0.3910
 8542SOL    HW136095   3.657   8.781   0.194 -0.2929 -0.6611 -0.2092
 8542SOL    HW236096   3.633   8.849   0.048  0.6553 -0.5385 -0.3102
 8543SOL     OW36097   0.815   5.332   2.375  0.4193 -0.4078 -0.2156
 8543SOL    HW136098   0.889   5.278   2.335  0.4710 -0.8460  0.4683
 8543SOL    HW236099   0.809   5.420   2.328  1.4206 -0.3431 -0.2349
 8544SOL     OW36100   0.867   8.913   2.641 -0.0686  0.4402  0.1723
 8544SOL    HW136101   0.786   8.862   2.616  0.6768 -0.7724  0.2075
 8544SOL    HW236102   0.876   8.993   2.581 -0.4020 -0.3210 -0.8929
 8545SOL     OW36103   9.173   3.028   0.382  0.8602 -0.1269  0.0191
 8545SOL    HW136104   9.223   3.069   0.305  0.5109  0.8096  0.2910
 8545SOL    HW236105   9.108   3.094   0.419 -1.3071 -1.6617 -0.9618
 8546SOL     OW36106   1.750   0.588   3.664  0.7223  0.1085  0.9502
 8546SOL    HW136107   1.672   0.600   3.725 -0.3370 -0.0685 -0.3729
 8546SOL    HW236108   1.808   0.514   3.700  1.8663  2.1568  3.5179
 8547SOL     OW36109   1.371   2.198   0.588  0.5665 -0.2164  0.5428
 8547SOL    HW136110   1.437   2.174   0.659  0.4599 -1.5357  0.2106
 8547SOL    HW236111   1.291   2.138   0.595 -0.1466  0.6741  0.2792
 8548SOL     OW36112   7.784   2.606   0.072 -0.4435  0.7434  0.4780
 8548SOL    HW136113   7.742   2.535   0.015 -2.0679  0.8725  1.4697
 8548SOL    HW236114   7.813   2.565   0.159 -0.0805  1.0192  0.4874
 8549SOL     OW36115   0.112   7.861   2.493  0.2160  0.3837  0.3552
 8549SOL    HW136116   0.025   7.849   2.541 -0.1273  0.7205 -0.1844
 8549SOL    HW236117   0.103   7.931   2.423 -0.0673 -2.0935 -2.1557
 8550SOL     OW36118   8.411   8.914   3.731  0.1086 -0.1733  0.4865
 8550SOL    HW136119   8.427   8.820   3.701 -0.9913 -0.1719 -0.1446
 8550SOL    HW236120   8.336   8.954   3.677  0.5126  1.0369  0.8016
 8551SOL     OW36121   2.298   4.530   0.170  0.1365  0.3122 -0.0260
 8551SOL    HW136122   2.348   4.457   0.217  1.0721 -0.2091 -1.7881
 8551SOL    HW236123   2.318   4.617   0.213 -0.5379 -0.3766  1.7451
 8552SOL     OW36124   8.431   3.536   1.497 -0.2095  0.2737 -0.4352
 8552SOL    HW136125   8.394   3.614   1.447 -0.0284  1.3533  1.0810
 8552SOL    HW236126   8.380   3.523   1.582  0.2827 -0.7623 -0.2842
 8553SOL     OW36127   3.592   1.053   3.460  0.4819 -0.7502 -0.6871
 8553SOL    HW136128   3.576   1.139   3.410  1.2059  0.4567  1.1044
 8553SOL    HW236129   3.650   0.993   3.405  3.3298  1.5561 -0.3337
 8554SOL     OW36130   0.469   0.885   1.516 -0.2412 -0.2074 -0.1259
 8554SOL    HW136131   0.397   0.946   1.483 -0.2936 -0.1968  0.0096
 8554SOL    HW236132   0.448   0.791   1.490  1.0851  0.1037 -2.5690
 8555SOL     OW36133   3.645   9.252   0.826 -0.2068 -0.1554 -0.1058
 8555SOL    HW136134   3.619   9.315   0.753 -0.5324  0.4607  0.5347
 8555SOL    HW236135   3.682   9.168   0.786 -0.2682  0.2256 -0.9717
 8556SOL     OW36136   8.524   9.017   0.625 -0.6634  0.0241 -0.3240
 8556SOL    HW136137   8.568   8.957   0.558 -0.3367 -0.0696 -0.0292
 8556SOL    HW236138   8.447   8.968   0.668 -1.0466  0.1839 -0.8288
 8557SOL     OW36139   8.157   9.251   2.450  0.1823  0.5396  0.0958
 8557SOL    HW136140   8.207   9.169   2.423 -1.0912  0.0432 -0.8321
 8557SOL    HW236141   8.137   9.307   2.369 -2.0919 -0.0480  0.2110
 8558SOL     OW36142   4.429   7.433   3.261 -0.0703  0.3645  0.8869
 8558SOL    HW136143   4.502   7.444   3.195 -2.6582 -0.8784 -2.3098
 8558SOL    HW236144   4.456   7.365   3.330  1.2567 -1.0892 -1.0279
 8559SOL     OW36145   4.185   2.306   2.018  0.7473  0.2324  0.3188
 8559SOL    HW136146   4.098   2.354   2.011  0.3877 -0.5933 -0.9949
 8559SOL    HW236147   4.172   2.223   2.073  1.0452  0.8749  1.3691
 8560SOL     OW36148   3.422   6.887   3.082  0.1871 -0.1872  0.0091
 8560SOL    HW136149   3.410   6.951   3.006  0.2843  0.7292  0.7622
 8560SOL    HW236150   3.493   6.820   3.057 -1.1576 -1.1011 -1.4798
 8561SOL     OW36151   2.316   9.570   4.015 -0.0670  0.1208 -0.3094
 8561SOL    HW136152   2.268   9.551   3.929 -0.6406 -0.7530  0.1912
 8561SOL    HW236153   2.390   9.635   3.998  0.8538 -1.2610 -1.7778
 8562SOL     OW36154   7.510   3.340   3.643  0.1222  0.2701 -0.2306
 8562SOL    HW136155   7.561   3.255   3.632 -0.0942 -0.3961  3.4381
 8562SOL    HW236156   7.562   3.403   3.699 -2.1461  0.3564  1.8738
 8563SOL     OW36157   5.930   7.899   1.513 -0.2641 -0.3369  0.3417
 8563SOL    HW136158   5.991   7.884   1.590 -0.5894 -2.5286  0.2131
 8563SOL    HW236159   5.899   7.994   1.512  1.6796  0.3241  1.4639
 8564SOL     OW36160   3.550   3.638   0.467  0.0492 -0.2143 -0.7919
 8564SOL    HW136161   3.475   3.655   0.403  0.8124 -0.0278 -1.6458
 8564SOL    HW236162   3.551   3.710   0.537  0.3274  0.6080 -1.6324
 8565SOL     OW36163   9.405   0.275   0.826  0.1672 -0.2367  0.0190
 8565SOL    HW136164   9.385   0.348   0.759 -1.0433 -0.6183 -0.0472
 8565SOL    HW236165   9.418   0.316   0.916  0.8071  0.1885 -0.2622
 8566SOL     OW36166   2.896   4.858   3.637  0.5166  0.2804  0.2013
 8566SOL    HW136167   2.842   4.779   3.607  0.4517  0.7793 -1.0157
 8566SOL    HW236168   2.941   4.836   3.724  1.0707 -1.3541 -0.4662
 8567SOL     OW36169   2.764   4.204   1.819 -0.5525 -0.5997  0.0520
 8567SOL    HW136170   2.798   4.298   1.825 -1.6789 -0.2502  1.4946
 8567SOL    HW236171   2.747   4.180   1.723 -2.5893  1.5609 -0.1730
 8568SOL     OW36172   8.992   7.763   0.134 -0.3253 -0.5035 -0.1188
 8568SOL    HW136173   8.911   7.822   0.141 -1.2530 -1.7320 -0.2371
 8568SOL    HW236174   9.066   7.813   0.091 -1.2371  0.4415 -0.6174
 8569SOL     OW36175   0.349   0.580   1.111  0.2342 -0.2052 -0.5485
 8569SOL    HW136176   0.341   0.509   1.041  0.2399  0.3825 -1.1509
 8569SOL    HW236177   0.431   0.634   1.093 -0.6714  1.0060 -1.0609
 8570SOL     OW36178   3.887   3.109   2.027 -0.1377 -0.1637 -0.0479
 8570SOL    HW136179   3.965   3.159   1.991 -1.2146  2.1057  0.6417
 8570SOL    HW236180   3.912   3.014   2.043  2.2093  0.3328 -0.6212
 8571SOL     OW36181   0.955   4.938   2.428  0.1687  0.1795  0.2447
 8571SOL    HW136182   0.859   4.966   2.442 -0.2018 -0.3928 -1.1128
 8571SOL    HW236183   0.985   4.883   2.506 -0.1102  1.6618  1.4228
 8572SOL     OW36184   1.489   7.319   2.410  0.2987 -0.2539 -0.3055
 8572SOL    HW136185   1.406   7.286   2.364  1.1496 -2.4315 -0.3554
 8572SOL    HW236186   1.563   7.253   2.395  2.5105  2.4492 -1.6292
 8573SOL     OW36187   0.063   1.893   1.814  0.4993  0.3735 -0.1429
 8573SOL    HW136188   0.028   1.827   1.747 -2.3977  0.2590  1.4161
 8573SOL    HW236189   0.077   1.981   1.769  1.7786 -0.5431 -1.6160
 8574SOL     OW36190   0.613   0.166   3.782  0.6694 -0.2636  0.2166
 8574SOL    HW136191   0.653   0.215   3.705  0.2099  1.8456  1.2948
 8574SOL    HW236192   0.532   0.116   3.751  0.3943  0.6994 -0.6311
 8575SOL     OW36193   2.018   1.832   0.539  0.6035  0.1349 -0.1843
 8575SOL    HW136194   2.013   1.813   0.637 -0.2726  0.0043 -0.2447
 8575SOL    HW236195   1.949   1.901   0.516 -1.0762 -1.8074 -1.1647
 8576SOL     OW36196   0.762   8.573   0.326 -0.0450  0.2025 -0.2419
 8576SOL    HW136197   0.832   8.513   0.286  0.2761  1.5026 -1.6667
 8576SOL    HW236198   0.775   8.577   0.426  1.9838  0.4705 -0.4851
 8577SOL     OW36199   4.918   0.697   1.122  0.8278 -0.2801 -0.8811
 8577SOL    HW136200   4.918   0.751   1.206 -2.6463 -0.1964 -0.8643
 8577SOL    HW236201   4.952   0.753   1.046  1.0544  0.6447 -0.1046
 8578SOL     OW36202   9.076   9.883   1.690 -0.5429 -0.2717  0.0900
 8578SOL    HW136203   9.112   9.910   1.601 -0.4989  0.0632  0.2091
 8578SOL    HW236204   8.994   9.826   1.677 -1.3013  0.8679 -0.1496
 8579SOL     OW36205   9.222   1.269   0.043 -0.0207 -0.5081  0.2104
 8579SOL    HW136206   9.282   1.244   0.118  2.0071 -1.8368 -1.7929
 8579SOL    HW236207   9.129   1.238   0.063  0.5007 -0.8726  2.1354
 8580SOL     OW36208   8.720   9.363   0.745  0.5986 -0.3528 -0.0474
 8580SOL    HW136209   8.754   9.430   0.679 -1.0813 -0.3693 -0.9534
 8580SOL    HW236210   8.735   9.271   0.709  0.2913 -0.3828 -0.0962
 8581SOL     OW36211   9.731   5.855   0.118  0.0399 -0.0616  0.3654
 8581SOL    HW136212   9.783   5.796   0.181  0.1228 -0.9235 -0.4884
 8581SOL    HW236213   9.650   5.806   0.086 -0.2816  0.5663  0.2134
 8582SOL     OW36214   8.202   8.120   1.211 -0.2763  0.0265 -0.3107
 8582SOL    HW136215   8.252   8.193   1.256 -0.7900 -0.0787  0.4379
 8582SOL    HW236216   8.184   8.146   1.116  1.2743  0.0102 -0.6202
 8583SOL     OW36217   8.556   2.694   1.506 -0.2362 -0.4262  0.2187
 8583SOL    HW136218   8.509   2.630   1.567 -1.8398 -0.6719 -1.2575
 8583SOL    HW236219   8.536   2.670   1.411  1.8375  0.2571 -0.4129
 8584SOL     OW36220   0.009   1.987   1.075 -0.1783 -0.3812  0.2345
 8584SOL    HW136221   0.019   2.005   0.977 -0.0943  2.3681  0.7238
 8584SOL    HW236222   0.078   2.037   1.125 -1.9804  0.4791  1.9182
 8585SOL     OW36223   9.411   0.129   3.299 -0.0041 -0.5024  0.3235
 8585SOL    HW136224   9.401   0.075   3.383 -0.3976 -0.1009  0.5417
 8585SOL    HW236225   9.375   0.221   3.315  0.7349 -0.1546 -0.0197
 8586SOL     OW36226   3.047   9.973   3.390  0.4492  0.5223  0.4236
 8586SOL    HW136227   2.996   9.918   3.456  0.4075  0.1041  0.0501
 8586SOL    HW236228   3.145   9.954   3.401  0.4941  0.9575  0.8123
 8587SOL     OW36229   3.442   8.923   0.948 -0.0718 -0.6321 -0.0207
 8587SOL    HW136230   3.368   8.856   0.950  0.3949 -1.1179  1.6328
 8587SOL    HW236231   3.491   8.917   0.861 -0.4040 -2.0199 -0.1148
 8588SOL     OW36232   9.617   9.341   1.187 -0.3874 -0.3272  0.1027
 8588SOL    HW136233   9.560   9.343   1.105 -0.2992 -0.1120  0.0464
 8588SOL    HW236234   9.702   9.293   1.168 -1.4859 -2.6305  0.7967
 8589SOL     OW36235   1.078   4.040   3.223  0.4173 -0.3852  0.1559
 8589SOL    HW136236   1.049   4.008   3.133 -1.5219  0.4747  0.4355
 8589SOL    HW236237   1.077   3.964   3.287 -1.7263 -0.3251  0.2441
 8590SOL     OW36238   1.049   3.404   1.168 -0.6056  0.0686 -0.4516
 8590SOL    HW136239   0.980   3.335   1.147  0.8488 -1.6875  0.3717
 8590SOL    HW236240   1.004   3.489   1.196 -2.4291 -0.2070 -2.4356
 8591SOL     OW36241   4.622   9.119   1.307 -0.4728  0.3464 -0.1644
 8591SOL    HW136242   4.587   9.070   1.387  1.5285  0.4247  0.7746
 8591SOL    HW236243   4.579   9.082   1.224 -2.3594  0.0915  0.9031
 8592SOL     OW36244   5.730   8.087   2.248  0.3184  0.7789 -0.4885
 8592SOL    HW136245   5.786   8.146   2.190  0.8933 -0.0360 -0.7856
 8592SOL    HW236246   5.688   8.016   2.192  1.3309 -0.3534  0.1544
 8593SOL     OW36247   2.922   6.751   2.172 -0.9955  0.0622 -0.2522
 8593SOL    HW136248   2.947   6.836   2.127 -1.6708  0.7380  0.6318
 8593SOL    HW236249   2.924   6.676   2.105  1.8147  0.3512 -0.5450
 8594SOL     OW36250   1.456   3.695   1.225 -0.3991 -0.3147 -0.5202
 8594SOL    HW136251   1.410   3.622   1.173  2.0845 -0.7454 -2.2522
 8594SOL    HW236252   1.500   3.655   1.306  0.0330 -0.5728 -0.8757
 8595SOL     OW36253   8.958   0.325   0.158  0.0466 -0.1611  0.1915
 8595SOL    HW136254   8.985   0.292   0.249  0.4408 -1.7542 -0.4698
 8595SOL    HW236255   8.914   0.250   0.108  0.3061  0.5453 -1.1101
 8596SOL     OW36256   6.809   6.802   2.407  0.0738  0.4804  0.5800
 8596SOL    HW136257   6.859   6.733   2.355  0.2567 -0.5332  2.0748
 8596SOL    HW236258   6.726   6.762   2.445  0.0044  1.1708  1.1801
 8597SOL     OW36259   2.395   4.668   4.004  0.4532 -0.4787  0.0819
 8597SOL    HW136260   2.331   4.612   4.056 -0.1492 -1.2641 -1.4750
 8597SOL    HW236261   2.462   4.708   4.066 -0.0797 -1.6177  1.4208
 8598SOL     OW36262   4.263   8.787   3.400 -0.6190  0.0661 -0.0912
 8598SOL    HW136263   4.180   8.769   3.453 -0.6111 -0.1557 -0.1532
 8598SOL    HW236264   4.281   8.710   3.339 -1.1403  0.7125 -1.0734
 8599SOL     OW36265   7.932   8.260   3.715  0.3022  0.3858  0.2692
 8599SOL    HW136266   7.900   8.299   3.802 -1.0169 -0.8633  0.3708
 8599SOL    HW236267   7.989   8.327   3.668  0.9251  1.1361  2.0320
 8600SOL     OW36268   0.923   9.358   3.468 -0.7497  0.2948  0.3605
 8600SOL    HW136269   0.965   9.269   3.449  0.7119  0.6911  1.7211
 8600SOL    HW236270   0.840   9.345   3.523 -0.6987 -0.2402  0.3121
 8601SOL     OW36271   8.949   1.180   0.071  0.1097 -0.1492  0.1178
 8601SOL    HW136272   8.939   1.190   0.170 -0.0816 -2.3216  0.3347
 8601SOL    HW236273   8.873   1.126   0.035 -1.0043  2.4389 -1.5603
 8602SOL     OW36274   2.166   8.855   2.785  0.1665  0.1022  0.1026
 8602SOL    HW136275   2.166   8.893   2.877  1.7668  1.7194 -0.5241
 8602SOL    HW236276   2.073   8.852   2.750 -0.7254 -2.4280  2.4984
 8603SOL     OW36277   2.149   6.508   1.755  0.3790  0.0702 -0.1407
 8603SOL    HW136278   2.104   6.573   1.817  3.1166  0.0761  1.9080
 8603SOL    HW236279   2.130   6.415   1.785  0.5013  0.0331 -0.1788
 8604SOL     OW36280   1.776   7.673   2.295 -0.0768  0.1066  0.0165
 8604SOL    HW136281   1.719   7.591   2.286 -1.3361  0.6005  3.0870
 8604SOL    HW236282   1.741   7.745   2.235 -1.3997 -0.2719  0.3314
 8605SOL     OW36283   2.476   7.541   1.971  0.3254 -0.2288 -0.3584
 8605SOL    HW136284   2.532   7.598   2.032  0.4086 -0.2528 -0.4121
 8605SOL    HW236285   2.459   7.590   1.886  1.1129 -0.6123 -0.7481
 8606SOL     OW36286   2.678   2.228   3.326 -0.1595  0.0810  0.0713
 8606SOL    HW136287   2.632   2.139   3.321 -0.6562  0.4007 -1.0821
 8606SOL    HW236288   2.761   2.226   3.270 -0.2579  0.4011 -0.0861
 8607SOL     OW36289   0.778   6.769   0.875 -0.3058 -0.1356 -0.5254
 8607SOL    HW136290   0.779   6.736   0.969 -0.8713  0.4042 -0.3249
 8607SOL    HW236291   0.832   6.708   0.817 -2.0727 -1.9141 -0.3381
 8608SOL     OW36292   9.485   1.557   1.746  0.0258  0.4030 -0.0452
 8608SOL    HW136293   9.518   1.511   1.664  0.7689  0.5347  0.1716
 8608SOL    HW236294   9.386   1.545   1.755  0.0384 -0.1139 -0.6363
 8609SOL     OW36295   2.892   8.380   3.448  0.0999  0.7971  0.1457
 8609SOL    HW136296   2.992   8.372   3.452  0.2125  1.6690 -0.7081
 8609SOL    HW236297   2.854   8.295   3.411  0.2639 -0.7481  3.4035
 8610SOL     OW36298   3.338   5.388   2.482  0.1353  0.0692  0.5111
 8610SOL    HW136299   3.408   5.436   2.535  1.5826 -2.1521  0.7212
 8610SOL    HW236300   3.284   5.330   2.544 -1.6883  1.5212  0.3003
 8611SOL     OW36301   3.380   4.210   1.664  0.5293 -0.0863  0.2077
 8611SOL    HW136302   3.305   4.273   1.681  0.1953 -0.5067  0.3019
 8611SOL    HW236303   3.366   4.163   1.577  2.1465  1.9284 -1.2001
 8612SOL     OW36304   2.370   0.117   1.221 -0.5007 -0.6551 -0.1803
 8612SOL    HW136305   2.335   0.152   1.307 -1.5356 -0.5623 -0.6272
 8612SOL    HW236306   2.403   0.193   1.165 -2.0473 -0.4389 -0.8386
 8613SOL     OW36307   1.438   6.011   0.871  0.1661 -0.7765 -0.2738
 8613SOL    HW136308   1.475   6.063   0.793 -1.9264  1.3723  0.0932
 8613SOL    HW236309   1.370   5.946   0.838 -1.3111  0.7002 -0.1944
 8614SOL     OW36310   0.704   9.234   2.977  0.5909 -0.3204 -0.0601
 8614SOL    HW136311   0.729   9.209   3.070  2.5562  0.7046 -0.2663
 8614SOL    HW236312   0.788   9.248   2.923 -0.5134 -0.7224 -1.9230
 8615SOL     OW36313   8.946   6.771   0.248 -0.1801 -0.1034 -0.4606
 8615SOL    HW136314   8.913   6.719   0.169 -0.9514  0.4520 -0.5112
 8615SOL    HW236315   8.926   6.868   0.234 -0.6102 -0.0365  0.5673
 8616SOL     OW36316   6.873   9.171   2.949  0.1139 -0.6739  0.7079
 8616SOL    HW136317   6.955   9.119   2.925  0.7493 -0.0426  1.5132
 8616SOL    HW236318   6.899   9.262   2.979 -0.8836 -0.5059  1.0580
 8617SOL     OW36319   4.719   8.898   2.544  0.4986 -0.0469  0.3973
 8617SOL    HW136320   4.649   8.962   2.513  0.3939 -0.1889  0.3396
 8617SOL    HW236321   4.801   8.910   2.488  0.2238 -0.4732 -0.1024
 8618SOL     OW36322   1.889   5.491   1.922 -0.1617  0.8364 -0.6066
 8618SOL    HW136323   1.880   5.395   1.896  0.1246  1.0553 -1.5314
 8618SOL    HW236324   1.880   5.549   1.841  2.1778  1.4527 -0.4682
 8619SOL     OW36325   3.732   5.530   2.335 -0.5034 -0.0698  0.7068
 8619SOL    HW136326   3.715   5.432   2.339  1.2034 -0.4396 -0.6279
 8619SOL    HW236327   3.739   5.559   2.240  0.9373  0.9998  1.1230
 8620SOL     OW36328   1.294   5.966   1.441  0.2623  0.1363 -0.6251
 8620SOL    HW136329   1.346   6.049   1.459  0.5671 -0.1836 -0.0274
 8620SOL    HW236330   1.200   5.977   1.474  0.8422 -0.4839  1.2491
 8621SOL     OW36331   0.991   5.249   1.071 -0.1314  0.2815  0.0284
 8621SOL    HW136332   1.059   5.238   0.999  0.4276 -1.9581  0.8652
 8621SOL    HW236333   1.027   5.215   1.158 -0.9216  2.6295  1.3281
 8622SOL     OW36334   0.906   7.942   0.793 -0.4274 -0.7969 -0.2899
 8622SOL    HW136335   0.821   7.955   0.845  0.6553  2.0036  0.8895
 8622SOL    HW236336   0.983   7.936   0.855  0.4503 -1.5031 -1.4261
 8623SOL     OW36337   2.167   1.898   1.271 -0.7669  0.2460  0.2466
 8623SOL    HW136338   2.200   1.949   1.350 -0.2835  1.7384 -0.9082
 8623SOL    HW236339   2.239   1.838   1.237 -1.2091 -0.9474  1.3599
 8624SOL     OW36340   5.313   9.388   2.065 -0.2694 -0.0569  0.7383
 8624SOL    HW136341   5.384   9.456   2.084 -0.4786  0.2385  0.4882
 8624SOL    HW236342   5.234   9.405   2.124 -0.8470  0.7509 -0.2487
 8625SOL     OW36343   9.400   5.148   0.183 -0.0470  0.2486 -0.2260
 8625SOL    HW136344   9.334   5.202   0.235 -0.1787 -0.1787  0.0555
 8625SOL    HW236345   9.442   5.205   0.113  2.1275  1.5895  2.0915
 8626SOL     OW36346   3.528   2.341   0.857  0.4789  0.0482  0.2751
 8626SOL    HW136347   3.610   2.398   0.857  1.4769 -1.3759 -0.7669
 8626SOL    HW236348   3.550   2.250   0.821 -1.1729 -0.8925  1.5655
 8627SOL     OW36349   3.818   0.570   0.180  0.0416 -0.4186 -0.3188
 8627SOL    HW136350   3.781   0.567   0.273  0.6611  2.2834  0.0815
 8627SOL    HW236351   3.750   0.612   0.119  0.7240  0.4657 -0.4803
 8628SOL     OW36352   3.173   5.062   0.781  0.0690  0.3158  0.6341
 8628SOL    HW136353   3.139   4.990   0.721 -0.3805 -0.6478  2.0405
 8628SOL    HW236354   3.269   5.045   0.803 -0.3844 -0.5824  2.0016
 8629SOL     OW36355   0.289   4.392   1.016  0.1742 -0.1113  0.2745
 8629SOL    HW136356   0.325   4.299   1.027 -0.4024  0.0177  3.8524
 8629SOL    HW236357   0.189   4.388   1.014  0.1573  0.3947  0.1601
 8630SOL     OW36358   0.062   3.993   3.202 -0.5465  0.1595  0.4449
 8630SOL    HW136359   0.080   3.923   3.271 -0.2811 -0.6461 -0.4264
 8630SOL    HW236360   0.146   4.013   3.152 -0.5879  1.2156  0.7918
 8631SOL     OW36361   3.736   9.899   2.254  0.1064 -0.1883  0.4294
 8631SOL    HW136362   3.782   9.845   2.184 -0.0960 -1.5371  1.3321
 8631SOL    HW236363   3.640   9.911   2.228  0.8548  2.4380 -1.3388
 8632SOL     OW36364   1.731   0.550   1.894 -0.0129 -0.1845  0.3763
 8632SOL    HW136365   1.743   0.544   1.993  0.0569 -0.3768  0.3578
 8632SOL    HW236366   1.641   0.587   1.873 -1.0161 -2.4629  0.5091
 8633SOL     OW36367   4.592   8.385   1.148  0.0767 -0.3240  1.1291
 8633SOL    HW136368   4.535   8.375   1.066 -0.7814 -1.0808  1.8174
 8633SOL    HW236369   4.688   8.387   1.121 -0.3171  2.7453 -0.2105
 8634SOL     OW36370   9.012   9.014   0.737 -0.1474 -0.2417 -0.3842
 8634SOL    HW136371   8.913   9.025   0.741 -0.1442 -0.7373  1.5947
 8634SOL    HW236372   9.034   8.922   0.707 -0.2878 -0.1584 -0.7438
 8635SOL     OW36373   2.287   4.225   3.410 -0.0352 -0.0536  0.0495
 8635SOL    HW136374   2.353   4.275   3.466  0.7713  0.3491 -1.2387
 8635SOL    HW236375   2.288   4.262   3.317 -2.6127  0.4730  0.1815
 8636SOL     OW36376   1.291   2.969   3.419  0.0414  0.1438 -0.4656
 8636SOL    HW136377   1.200   3.010   3.420 -0.2805 -0.5742  0.1461
 8636SOL    HW236378   1.295   2.898   3.348  0.1723  0.2745 -0.5901
 8637SOL     OW36379   1.232   1.812   0.176 -0.3689  0.6738  0.2543
 8637SOL    HW136380   1.316   1.862   0.157  0.7405  0.3180  3.9413
 8637SOL    HW236381   1.204   1.762   0.094  1.7476  2.5687 -1.6988
 8638SOL     OW36382   9.568   1.587   0.541 -1.0370  0.1853  0.1102
 8638SOL    HW136383   9.621   1.528   0.480 -0.4828  1.0045 -0.2110
 8638SOL    HW236384   9.489   1.537   0.576 -0.0794 -1.0549  0.5595
 8639SOL     OW36385   3.367   7.153   1.594 -0.6629  0.3993  0.1212
 8639SOL    HW136386   3.274   7.136   1.560 -0.6379 -2.2506  1.2921
 8639SOL    HW236387   3.433   7.135   1.520 -0.9855  1.0498 -0.3335
 8640SOL     OW36388   2.515   4.839   2.088 -0.0785  0.4661  0.7251
 8640SOL    HW136389   2.527   4.936   2.066  1.3040 -0.0669 -0.9562
 8640SOL    HW236390   2.600   4.790   2.069 -1.4385 -1.4585 -0.4900
 8641SOL     OW36391   8.008   4.626   1.797  0.4942  0.4082 -0.0537
 8641SOL    HW136392   7.969   4.696   1.736  0.8726  1.3424  0.7774
 8641SOL    HW236393   7.960   4.627   1.884  0.3219 -0.5613 -0.1324
 8642SOL     OW36394   3.115   2.883   2.506  0.2882 -0.1085  0.1757
 8642SOL    HW136395   3.075   2.966   2.467  1.5643  0.4290  0.0042
 8642SOL    HW236396   3.210   2.875   2.476  0.3857 -1.2491  0.7900
 8643SOL     OW36397   8.517   3.502   3.185 -0.2466 -0.3216 -0.1693
 8643SOL    HW136398   8.568   3.441   3.125 -0.1418 -1.3005  0.8987
 8643SOL    HW236399   8.512   3.462   3.277 -1.4374  0.5852  0.1695
 8644SOL     OW36400   8.585   1.667   2.435  0.0749  0.1802 -0.1882
 8644SOL    HW136401   8.631   1.652   2.347  0.5008  1.5344 -0.2067
 8644SOL    HW236402   8.488   1.647   2.425 -0.0892  1.4199 -1.2857
 8645SOL     OW36403   8.547   9.552   2.317 -0.0675 -0.2805  0.2969
 8645SOL    HW136404   8.565   9.462   2.358 -0.1521 -0.0015  0.9440
 8645SOL    HW236405   8.556   9.623   2.386  0.6489  0.2834 -0.3679
 8646SOL     OW36406   8.326   4.120   0.495 -0.2154  0.5683 -0.1190
 8646SOL    HW136407   8.251   4.113   0.561 -0.6468 -0.2981 -0.6907
 8646SOL    HW236408   8.321   4.043   0.431 -1.4162  2.7669 -2.8184
 8647SOL     OW36409   1.632   8.292   2.498  0.3770 -0.2909 -0.3482
 8647SOL    HW136410   1.693   8.224   2.456  1.5541 -0.2917  1.3070
 8647SOL    HW236411   1.680   8.379   2.506 -1.1605  0.7971 -2.5367
 8648SOL     OW36412   3.454   3.790   0.160 -0.4651 -0.1756 -0.1114
 8648SOL    HW136413   3.428   3.806   0.255 -1.5687 -2.8950  0.0792
 8648SOL    HW236414   3.546   3.827   0.144 -0.8152  1.5434  1.5976
 8649SOL     OW36415   8.679   2.417   0.327  0.3035  0.1702 -0.1156
 8649SOL    HW136416   8.679   2.354   0.250  1.1033  0.9683 -0.7777
 8649SOL    HW236417   8.720   2.373   0.407  0.7199 -0.1989 -0.5325
 8650SOL     OW36418   1.863   6.563   3.453  0.3211 -0.3878  0.0192
 8650SOL    HW136419   1.953   6.606   3.444  0.4276 -0.8581 -1.3250
 8650SOL    HW236420   1.794   6.632   3.472  0.8598  0.0685  0.3088
 8651SOL     OW36421   0.845   4.398   0.417  0.2891 -0.0180 -0.1296
 8651SOL    HW136422   0.854   4.417   0.515  0.8719  0.6764 -0.3220
 8651SOL    HW236423   0.792   4.470   0.374  1.5543  0.5967 -0.6536
 8652SOL     OW36424   2.146   3.286   2.727 -0.3064  0.2864  0.0039
 8652SOL    HW136425   2.133   3.379   2.693 -1.0420  0.0051 -0.4959
 8652SOL    HW236426   2.104   3.221   2.663  1.3834 -0.4785 -0.3538
 8653SOL     OW36427   9.372   2.338   3.371 -0.0300  0.0294  0.4524
 8653SOL    HW136428   9.353   2.241   3.359  1.1784 -0.0953 -0.5732
 8653SOL    HW236429   9.458   2.349   3.421  0.0809  0.5735  0.1437
 8654SOL     OW36430   1.856   3.918   3.277  0.0982  0.1841  0.1527
 8654SOL    HW136431   1.770   3.934   3.228  0.2674  0.2055 -0.1336
 8654SOL    HW236432   1.871   3.993   3.342 -0.3314 -0.0527  0.5354
 8655SOL     OW36433   0.097   6.287   1.418  0.1424 -0.5674 -0.1211
 8655SOL    HW136434   0.175   6.229   1.443 -0.3094 -0.3055  1.9953
 8655SOL    HW236435   0.118   6.382   1.443 -0.5296 -0.3586 -0.3517
 8656SOL     OW36436   8.031   9.252   3.624 -0.0144 -0.2511  0.2088
 8656SOL    HW136437   8.047   9.345   3.591  2.5301 -0.6787  0.1021
 8656SOL    HW236438   7.945   9.218   3.588 -0.7691  1.8989 -0.1047
 8657SOL     OW36439   2.158   9.523   0.564 -0.0860 -0.3722 -0.1181
 8657SOL    HW136440   2.172   9.511   0.662  0.4870  1.9671  0.1085
 8657SOL    HW236441   2.067   9.562   0.547  0.7124  1.4614 -0.3240
 8658SOL     OW36442   6.514   9.751   2.614  0.2989 -0.2132  0.2446
 8658SOL    HW136443   6.593   9.693   2.636  0.9880  0.5864 -0.0662
 8658SOL    HW236444   6.528   9.842   2.653 -0.3709  0.0002 -0.0003
 8659SOL     OW36445   0.582   3.249   3.492  0.5355  0.6249 -0.0378
 8659SOL    HW136446   0.572   3.182   3.418  2.8983 -0.2082  0.3589
 8659SOL    HW236447   0.562   3.205   3.580 -0.0460  1.0127  0.0241
 8660SOL     OW36448   2.334   9.920   1.037  0.4146  0.0187  0.1561
 8660SOL    HW136449   2.261   9.860   1.069  0.7585 -0.6423 -0.2999
 8660SOL    HW236450   2.359   9.983   1.111  0.7868 -1.1006  1.0046
 8661SOL     OW36451   3.428   1.408   3.597 -0.1983 -0.6094 -0.3285
 8661SOL    HW136452   3.374   1.492   3.595 -1.5994 -1.4676  0.4242
 8661SOL    HW236453   3.370   1.331   3.570  0.7492 -1.5104  0.1892
 8662SOL     OW36454   2.725   9.126   2.074 -0.0456  0.2759  0.0825
 8662SOL    HW136455   2.672   9.200   2.115 -0.3042  0.3823 -0.4352
 8662SOL    HW236456   2.822   9.142   2.089 -0.1660 -0.1258  1.3814
 8663SOL     OW36457   9.806   1.433   1.877  0.4217 -0.0115  0.2293
 8663SOL    HW136458   9.768   1.519   1.841 -0.0898 -1.4097 -2.6791
 8663SOL    HW236459   9.904   1.429   1.857  0.6264  0.2639  1.1443
 8664SOL     OW36460   7.598   9.058   0.242  0.1637  0.5364  0.5440
 8664SOL    HW136461   7.697   9.043   0.232  0.3904  1.8041  0.8665
 8664SOL    HW236462   7.549   8.999   0.177  1.1057 -0.4726  0.7369
 8665SOL     OW36463   9.777   8.783   3.217  0.2406  0.5627  0.0030
 8665SOL    HW136464   9.856   8.845   3.218 -0.7220  1.8104  1.3832
 8665SOL    HW236465   9.800   8.698   3.262  0.0606  1.9094  2.7324
 8666SOL     OW36466   3.963   0.479   3.627  0.5745 -0.2189  0.8326
 8666SOL    HW136467   3.884   0.435   3.584  0.4513 -0.2955  1.1355
 8666SOL    HW236468   4.017   0.410   3.675  0.3090 -0.0219  1.4189
 8667SOL     OW36469   8.592   1.552   3.877  0.1691  0.2094  0.1602
 8667SOL    HW136470   8.658   1.614   3.835  0.2407  0.3813  0.5265
 8667SOL    HW236471   8.632   1.510   3.958 -0.8977  1.9587  1.6444
 8668SOL     OW36472   8.575   1.107   2.543  0.6632  1.0611  0.7674
 8668SOL    HW136473   8.578   1.154   2.631  1.3686 -1.3569  2.0769
 8668SOL    HW236474   8.603   1.012   2.555 -1.3896  0.1000 -1.6922
 8669SOL     OW36475   8.535   4.056   3.390  0.0180  0.1346 -0.6237
 8669SOL    HW136476   8.513   4.000   3.470  1.3941  1.1288  0.4688
 8669SOL    HW236477   8.498   4.013   3.308 -0.5112 -1.4332  0.4225
 8670SOL     OW36478   2.941   6.924   0.231 -0.0568  0.0078 -0.4095
 8670SOL    HW136479   2.868   6.965   0.176 -1.1514  0.0200  1.0146
 8670SOL    HW236480   2.980   6.994   0.292  0.5351 -0.2149 -0.5329
 8671SOL     OW36481   9.026   8.438   2.483  0.0332 -0.2021  0.6643
 8671SOL    HW136482   9.076   8.382   2.550  0.1655  0.5489  1.2067
 8671SOL    HW236483   9.021   8.390   2.396  0.0250 -1.1157  1.1668
 8672SOL     OW36484   7.635   9.236   2.119 -0.1509 -0.1094  0.7024
 8672SOL    HW136485   7.556   9.189   2.080 -0.6356  3.2443 -2.6674
 8672SOL    HW236486   7.719   9.199   2.079 -0.5849  2.4316 -2.8292
 8673SOL     OW36487   0.675   7.601   1.261 -0.0026  0.4066  0.0221
 8673SOL    HW136488   0.667   7.698   1.282  1.5017  0.9297 -1.6819
 8673SOL    HW236489   0.644   7.547   1.340  0.8992  2.2552  1.6913
 8674SOL     OW36490   8.600   6.142   3.636  0.6139 -0.3297  0.3195
 8674SOL    HW136491   8.511   6.132   3.681  0.4725  0.0571  0.1321
 8674SOL    HW236492   8.649   6.219   3.678  0.0336  0.7286 -0.9030
 8675SOL     OW36493   0.739   7.541   3.847  0.2343 -0.0060  0.1185
 8675SOL    HW136494   0.789   7.615   3.892  0.0018  0.0524  0.2830
 8675SOL    HW236495   0.752   7.547   3.748 -0.2775  0.6202  0.0845
 8676SOL     OW36496   6.862   9.952   2.838 -0.2424  0.4262 -0.8506
 8676SOL    HW136497   6.783  10.005   2.868 -0.7974 -0.1795 -1.2436
 8676SOL    HW236498   6.850   9.922   2.744 -0.2289 -0.9253 -0.4489
 8677SOL     OW36499   3.085   2.298   1.852 -0.2963 -0.6643  0.0527
 8677SOL    HW136500   3.073   2.377   1.792  2.1408 -0.7741 -0.6522
 8677SOL    HW236501   3.097   2.330   1.946 -3.5159 -0.4629  0.4569
 8678SOL     OW36502   7.563   9.586   2.692  0.3723  0.5038 -0.1024
 8678SOL    HW136503   7.590   9.681   2.710  1.6933  0.0365  0.4208
 8678SOL    HW236504   7.592   9.559   2.601  0.7657  0.3220  0.0777
 8679SOL     OW36505   9.446   8.346   2.751  0.3254  0.2620  0.0493
 8679SOL    HW136506   9.519   8.310   2.693 -0.2674 -2.2910  0.8400
 8679SOL    HW236507   9.423   8.279   2.821 -3.8142  0.3805 -1.0770
 8680SOL     OW36508   7.054   6.940   2.417  0.3748 -0.0997  0.2361
 8680SOL    HW136509   7.096   6.916   2.330 -0.8089  0.9208 -0.6264
 8680SOL    HW236510   6.958   6.910   2.417  0.0305  0.9761  0.7159
 8681SOL     OW36511   7.903   8.414   2.066  0.3040 -0.1850 -0.1263
 8681SOL    HW136512   7.837   8.441   2.137  0.1992 -0.0599 -0.2720
 8681SOL    HW236513   7.872   8.331   2.021 -0.0972  0.2587 -0.6645
 8682SOL     OW36514   9.717   2.460   2.362  0.0422 -0.3883  0.0267
 8682SOL    HW136515   9.785   2.516   2.409  0.9968 -0.7269 -0.9200
 8682SOL    HW236516   9.628   2.504   2.369  0.1835 -0.3854  2.0403
 8683SOL     OW36517   2.798   6.507   1.743 -0.2713  0.6036  0.0242
 8683SOL    HW136518   2.704   6.508   1.776 -1.0632  0.4152 -2.1579
 8683SOL    HW236519   2.800   6.530   1.646  1.9796  1.0156  0.1359
 8684SOL     OW36520   7.203   7.814   1.597  0.5030  0.1197 -0.0118
 8684SOL    HW136521   7.300   7.796   1.616  0.4273  1.1755  1.3806
 8684SOL    HW236522   7.196   7.877   1.519  0.8934 -0.9934 -0.9622
 8685SOL     OW36523   0.120   5.013   0.625  0.0894  0.4034  0.6327
 8685SOL    HW136524   0.026   4.985   0.646  0.5499 -0.1388  2.0820
 8685SOL    HW236525   0.166   5.039   0.710  2.2218 -2.3611  0.3808
 8686SOL     OW36526   8.407   0.635   2.974  0.4056 -0.1751  0.0394
 8686SOL    HW136527   8.496   0.618   2.931 -0.1143  1.8054 -1.9086
 8686SOL    HW236528   8.345   0.559   2.953  0.9529 -0.4677 -0.5280
 8687SOL     OW36529   9.390   1.494   3.624  0.2117  0.2616 -0.0494
 8687SOL    HW136530   9.362   1.417   3.566 -1.1348  0.3952  0.4144
 8687SOL    HW236531   9.381   1.469   3.720 -0.0100  0.9265  0.1046
 8688SOL     OW36532   4.421   7.534   1.607 -0.2256 -0.2546  0.5299
 8688SOL    HW136533   4.504   7.493   1.570  0.0986  1.2790 -0.4652
 8688SOL    HW236534   4.443   7.617   1.657 -1.3985  1.7696 -2.1812
 8689SOL     OW36535   3.372   1.007   0.018  0.4451  0.3527 -0.3082
 8689SOL    HW136536   3.353   1.069  -0.058 -0.5891 -0.0572 -0.3974
 8689SOL    HW236537   3.293   1.005   0.080  0.9867  0.1221  0.3891
 8690SOL     OW36538   8.575   6.363   3.984 -0.2099 -0.8087  0.6174
 8690SOL    HW136539   8.496   6.396   3.931 -0.9362  0.4740  2.4521
 8690SOL    HW236540   8.644   6.327   3.921 -1.4732 -0.2571 -1.1383
 8691SOL     OW36541   1.149   4.031   0.054  0.7416  0.3342  0.6422
 8691SOL    HW136542   1.151   3.949  -0.003 -1.2996  1.8782 -1.7792
 8691SOL    HW236543   1.227   4.089   0.032 -1.4373  2.1778 -2.6746
 8692SOL     OW36544   7.698   9.750   2.076 -0.3894 -0.4669  0.3543
 8692SOL    HW136545   7.796   9.732   2.084 -0.3772 -0.3646  0.4380
 8692SOL    HW236546   7.649   9.663   2.071 -0.3695 -0.5373  1.2391
 8693SOL     OW36547   8.971   1.214   3.306  0.2059 -0.4788 -0.4973
 8693SOL    HW136548   9.030   1.150   3.356  0.3699 -0.2657 -0.4210
 8693SOL    HW236549   8.994   1.307   3.332 -0.0432 -0.3880 -0.6034
 8694SOL     OW36550   4.556   9.974   0.190  0.1665 -0.4029  0.4755
 8694SOL    HW136551   4.461   9.947   0.210 -0.6404  2.0870  0.1944
 8694SOL    HW236552   4.608   9.979   0.276 -0.1013 -1.1554  0.6932
 8695SOL     OW36553   8.807   5.349   0.150  0.1626 -0.5681  0.5926
 8695SOL    HW136554   8.888   5.325   0.097  0.5195  1.9272 -0.0513
 8695SOL    HW236555   8.830   5.349   0.247  1.1150  0.7306  0.3775
 8696SOL     OW36556   9.530   8.063   2.716  0.0588 -0.1439  0.3935
 8696SOL    HW136557   9.540   8.000   2.638 -2.7478  0.0339 -0.1593
 8696SOL    HW236558   9.517   8.010   2.800  4.0161 -0.3601  0.9805
 8697SOL     OW36559   7.273   9.032   2.958 -0.5668  0.3234 -0.0803
 8697SOL    HW136560   7.281   9.125   2.922  0.7894 -0.1642 -1.0622
 8697SOL    HW236561   7.184   8.994   2.932  0.3675 -0.0070 -2.8940
 8698SOL     OW36562   0.315   2.384   1.240 -0.2710 -0.4232 -0.0362
 8698SOL    HW136563   0.258   2.453   1.284 -0.7105 -0.2060 -0.9516
 8698SOL    HW236564   0.257   2.315   1.196  0.1593  0.2378 -1.6705
 8699SOL     OW36565   1.944   5.228   1.189  0.1000 -0.6081  0.6439
 8699SOL    HW136566   2.011   5.164   1.151  0.5718 -0.3968  1.1034
 8699SOL    HW236567   1.857   5.218   1.142  0.0957 -1.7772  0.8925
 8700SOL     OW36568   3.982   8.393   1.932 -0.4246  0.0886  0.0268
 8700SOL    HW136569   3.979   8.293   1.931 -0.3719  0.0866 -0.6180
 8700SOL    HW236570   3.938   8.427   1.849  1.3539  0.5459 -0.7602
 8701SOL     OW36571   0.767   4.456   3.800 -0.0779 -0.1443  0.2695
 8701SOL    HW136572   0.717   4.370   3.798  0.6616 -0.5864  0.5837
 8701SOL    HW236573   0.864   4.440   3.780 -0.5672  1.1159 -3.4935
 8702SOL     OW36574   1.345   7.525   3.749  0.0135  0.1422 -0.0758
 8702SOL    HW136575   1.336   7.502   3.846  0.4574 -0.8877 -0.2832
 8702SOL    HW236576   1.425   7.583   3.736 -0.4668  0.8978  0.2759
 8703SOL     OW36577   9.359   0.775   3.396  0.0220 -0.3632  0.4230
 8703SOL    HW136578   9.445   0.724   3.400  0.3208  0.2307  1.6948
 8703SOL    HW236579   9.376   0.871   3.415 -0.7829 -0.0663 -0.3126
 8704SOL     OW36580   6.141   8.479   2.327 -0.6853  0.8751  0.4034
 8704SOL    HW136581   6.227   8.428   2.334 -0.4323  1.2249 -0.0931
 8704SOL    HW236582   6.159   8.576   2.342 -0.9001  1.0146 -0.2076
 8705SOL     OW36583   8.728   2.428   3.887  0.9758 -0.2371  0.2006
 8705SOL    HW136584   8.779   2.352   3.847 -0.2593 -0.8603 -0.2203
 8705SOL    HW236585   8.780   2.512   3.877  1.5366 -0.7221 -0.9966
 8706SOL     OW36586   1.501   7.260   3.946 -0.2068  0.4838 -0.3495
 8706SOL    HW136587   1.579   7.252   3.883  0.3024 -0.5864  0.3975
 8706SOL    HW236588   1.429   7.198   3.916  0.5193 -0.9376  0.8053
 8707SOL     OW36589   3.672   0.984   2.559  0.0028 -0.0714 -0.0115
 8707SOL    HW136590   3.730   0.924   2.615 -2.5218 -0.8422  1.8637
 8707SOL    HW236591   3.695   1.079   2.578 -1.6790 -0.2723  3.4256
 8708SOL     OW36592   6.291   5.533   2.117 -0.1057  0.2553 -0.3700
 8708SOL    HW136593   6.342   5.465   2.170 -0.1414  1.7705  1.6688
 8708SOL    HW236594   6.193   5.524   2.137  0.0475  2.1147  1.4164
 8709SOL     OW36595   9.253   4.308   3.813 -0.0291 -0.1504  0.2252
 8709SOL    HW136596   9.330   4.330   3.873 -0.0260  0.0618  0.1452
 8709SOL    HW236597   9.167   4.317   3.863 -0.0054 -0.3269  0.2977
 8710SOL     OW36598   3.515   7.194   0.974 -0.5963  0.3277  0.1462
 8710SOL    HW136599   3.612   7.219   0.979 -0.9049  0.9944  3.5355
 8710SOL    HW236600   3.505   7.108   0.923  1.7050  0.4329 -0.5347
 8711SOL     OW36601   8.875   1.673   2.565 -0.1987  0.3237  0.2016
 8711SOL    HW136602   8.792   1.665   2.510 -0.5838 -0.7204  0.9198
 8711SOL    HW236603   8.871   1.757   2.619 -0.6410  0.4371 -0.0015
 8712SOL     OW36604   9.775   1.438   2.645 -0.2221  0.3402  0.3677
 8712SOL    HW136605   9.807   1.357   2.597 -1.9839 -0.0491 -0.2095
 8712SOL    HW236606   9.820   1.445   2.734 -2.6696 -3.3149  1.9999
 8713SOL     OW36607   4.557   2.845   3.100  0.2345 -0.5649 -0.0033
 8713SOL    HW136608   4.509   2.928   3.071 -1.8240 -1.6568  0.1529
 8713SOL    HW236609   4.576   2.788   3.021 -0.9272 -1.2493  0.1989
 8714SOL     OW36610   1.329   4.887   1.669  0.0281  0.7723 -0.3386
 8714SOL    HW136611   1.231   4.902   1.662  0.0422  0.5506 -0.9912
 8714SOL    HW236612   1.377   4.955   1.613  0.2366  0.6883 -0.2602
 8715SOL     OW36613   2.056   0.320   1.671 -0.3624  0.1841  0.0900
 8715SOL    HW136614   1.987   0.264   1.625  0.0195 -0.8240  0.7251
 8715SOL    HW236615   2.033   0.327   1.769 -0.8051  1.7537 -0.1085
 8716SOL     OW36616   8.682   7.350   2.253  0.5130 -0.5640 -0.1788
 8716SOL    HW136617   8.770   7.385   2.286 -1.1089  1.1916  2.4271
 8716SOL    HW236618   8.629   7.425   2.214 -0.8103 -1.1192  0.5196
 8717SOL     OW36619   0.537   2.300   2.711 -0.2772  0.2362 -0.0593
 8717SOL    HW136620   0.490   2.319   2.624  2.1237  2.0098 -1.0376
 8717SOL    HW236621   0.603   2.226   2.697  0.2753  0.6809  0.1863
 8718SOL     OW36622   1.752   0.728   1.297  0.2105  0.0696 -0.8162
 8718SOL    HW136623   1.805   0.748   1.379 -1.0457  1.8179 -0.4096
 8718SOL    HW236624   1.709   0.638   1.307  1.1216 -0.2997 -0.1234
 8719SOL     OW36625   0.277   8.762   0.706  0.2542  0.2215 -0.2893
 8719SOL    HW136626   0.257   8.739   0.801  1.3998  1.7376  0.3327
 8719SOL    HW236627   0.327   8.687   0.663  2.8003  0.9441  1.3373
 8720SOL     OW36628   3.014   9.163   2.038  0.5895  0.3792  0.9037
 8720SOL    HW136629   3.009   9.237   1.971  2.2563 -0.3045 -0.0113
 8720SOL    HW236630   3.052   9.197   2.124 -0.5291  1.0148  1.1586
 8721SOL     OW36631   0.402   7.607   0.335 -0.3314 -1.0860  0.0123
 8721SOL    HW136632   0.493   7.582   0.366  0.0586 -1.4371 -1.3780
 8721SOL    HW236633   0.356   7.526   0.297  1.0957  0.2262 -4.9297
 8722SOL     OW36634   2.916   1.411   0.385  0.1818 -0.6896  0.4966
 8722SOL    HW136635   2.888   1.461   0.304 -1.0556  0.1439  1.4264
 8722SOL    HW236636   3.014   1.423   0.400  0.3125 -0.4220 -0.5613
 8723SOL     OW36637   2.582   0.604   1.205  0.0554 -0.1800 -0.6355
 8723SOL    HW136638   2.676   0.571   1.213  0.1677  0.2966  0.0494
 8723SOL    HW236639   2.583   0.699   1.174 -0.1438  0.2802  0.7317
 8724SOL     OW36640   8.678   7.985   2.085  0.5361 -0.3604  0.3802
 8724SOL    HW136641   8.608   8.044   2.045  2.1429  1.5930  0.3656
 8724SOL    HW236642   8.701   8.017   2.177  1.5809 -0.8205  0.2887
 8725SOL     OW36643   7.935   7.897   0.832  0.5168  0.2553 -0.6927
 8725SOL    HW136644   7.897   7.967   0.892 -0.0702 -1.1800  0.6181
 8725SOL    HW236645   7.867   7.872   0.762 -0.6443 -1.5987  1.0509
 8726SOL     OW36646   9.227   6.102   1.772 -0.7791 -0.0552 -0.5428
 8726SOL    HW136647   9.129   6.086   1.770 -0.6360 -0.9049 -1.4860
 8726SOL    HW236648   9.264   6.097   1.679  0.2184 -0.2024 -0.1540
 8727SOL     OW36649   2.527   3.634   1.443 -0.2012 -0.0968 -0.0718
 8727SOL    HW136650   2.608   3.691   1.430  0.1212 -0.4929  0.2049
 8727SOL    HW236651   2.493   3.645   1.536 -0.0312 -0.4949  0.0384
 8728SOL     OW36652   3.579   3.215   2.958  0.3856 -0.3744  0.1676
 8728SOL    HW136653   3.679   3.227   2.952  0.2488  1.7488  1.6908
 8728SOL    HW236654   3.556   3.170   3.044  0.0288 -0.8707 -0.1868
 8729SOL     OW36655   3.940   2.062   3.420 -0.7822 -0.1477  0.0279
 8729SOL    HW136656   3.974   2.058   3.326 -0.5676 -0.8665  0.1377
 8729SOL    HW236657   3.853   2.013   3.426 -0.9226  0.1141  0.1502
 8730SOL     OW36658   3.078   0.733   3.417 -0.0851 -0.7899 -0.3774
 8730SOL    HW136659   3.047   0.749   3.323  1.7202  0.0499 -0.8592
 8730SOL    HW236660   3.112   0.819   3.456  1.8256 -1.6847  0.0117
 8731SOL     OW36661   3.798   7.709   0.048  0.6122 -0.4370 -0.0957
 8731SOL    HW136662   3.793   7.754  -0.041  0.5261 -0.7536 -0.2535
 8731SOL    HW236663   3.889   7.669   0.059  0.7780  0.0086  0.1584
 8732SOL     OW36664   3.052   5.560   2.686 -0.3824 -0.0219  0.3059
 8732SOL    HW136665   2.991   5.501   2.632  0.3670  1.7777 -2.6361
 8732SOL    HW236666   3.145   5.524   2.680 -0.5272 -0.6645  1.7053
 8733SOL     OW36667   1.007   4.835   2.148 -0.0002  0.7975  0.4901
 8733SOL    HW136668   0.944   4.862   2.075 -0.3073  1.2258  0.9103
 8733SOL    HW236669   0.964   4.851   2.237  0.3173  0.1458  0.7638
 8734SOL     OW36670   0.153   8.309   3.816 -0.1567 -0.4017  0.3995
 8734SOL    HW136671   0.211   8.227   3.815 -1.9589 -1.6983  0.4224
 8734SOL    HW236672   0.189   8.376   3.750  0.2905 -1.9478 -0.9589
 8735SOL     OW36673   3.171   2.680   2.700 -0.1245 -0.4502 -0.3146
 8735SOL    HW136674   3.147   2.761   2.647 -0.1033  0.8018  1.5744
 8735SOL    HW236675   3.218   2.614   2.640  1.9172  1.8665 -1.3236
 8736SOL     OW36676   1.971   4.338   3.779 -0.0653 -0.7934  0.3500
 8736SOL    HW136677   2.021   4.285   3.847  0.1625 -1.4070 -0.2921
 8736SOL    HW236678   2.013   4.326   3.689 -1.3568 -1.3007 -0.1918
 8737SOL     OW36679   2.778   2.437   0.815 -0.6874  0.0949  0.4962
 8737SOL    HW136680   2.876   2.429   0.830 -0.5627  0.1993 -0.2307
 8737SOL    HW236681   2.737   2.490   0.889 -0.1763  0.1429  0.7463
 8738SOL     OW36682   3.325   2.639   2.105 -0.1226  0.3013 -0.0388
 8738SOL    HW136683   3.319   2.560   2.166  1.0132 -1.6347 -2.3484
 8738SOL    HW236684   3.420   2.656   2.080 -0.7483 -0.6505 -3.3537
 8739SOL     OW36685   9.961   1.481   2.879  0.7353  0.6717 -0.0277
 8739SOL    HW136686  10.054   1.501   2.848  1.5376 -1.2156  1.0404
 8739SOL    HW236687   9.927   1.556   2.934  2.6475  0.2928  1.7393
 8740SOL     OW36688   2.115   3.530   2.534  0.2001 -0.0635 -0.2525
 8740SOL    HW136689   2.063   3.482   2.464  1.0215  0.5054 -1.2683
 8740SOL    HW236690   2.201   3.564   2.495  1.8053 -1.8318  1.6347
 8741SOL     OW36691   0.845   1.075   1.317  0.0348 -0.5445  0.1112
 8741SOL    HW136692   0.907   1.050   1.391  1.2478  0.6603 -0.4852
 8741SOL    HW236693   0.871   1.025   1.234  0.0313 -0.2394 -0.0709
 8742SOL     OW36694   4.274   7.480   2.195  0.1458 -0.2744 -0.0241
 8742SOL    HW136695   4.367   7.512   2.215  0.6281 -1.3533 -0.4386
 8742SOL    HW236696   4.262   7.474   2.096 -0.7143  0.8201  0.0086
 8743SOL     OW36697   7.606   6.778   2.190 -0.5113 -0.4158 -0.0220
 8743SOL    HW136698   7.575   6.853   2.249  0.1205  0.4251 -0.7551
 8743SOL    HW236699   7.705   6.773   2.193 -0.2951  1.2617 -2.9712
 8744SOL     OW36700   2.800   7.501   2.370 -0.3284 -0.0832 -0.2653
 8744SOL    HW136701   2.765   7.429   2.310 -0.8886 -0.6474  0.7272
 8744SOL    HW236702   2.782   7.476   2.465 -0.0733  1.1361  0.1040
 8745SOL     OW36703   0.208   2.874   2.556  0.1743 -0.0033 -0.1886
 8745SOL    HW136704   0.119   2.900   2.595 -0.4259 -0.9287 -0.8899
 8745SOL    HW236705   0.276   2.944   2.576 -0.5058  0.2958  1.1243
 8746SOL     OW36706   7.344   8.816   1.369  0.1535 -0.0676  0.3068
 8746SOL    HW136707   7.308   8.895   1.319  0.3944  1.0291  1.8344
 8746SOL    HW236708   7.309   8.732   1.328 -0.2041  0.8159 -1.2715
 8747SOL     OW36709   1.469   6.960   0.423  0.0134 -0.2021  0.4266
 8747SOL    HW136710   1.437   6.865   0.425  0.2953 -0.2898  0.9031
 8747SOL    HW236711   1.468   6.993   0.329 -1.1977 -0.2983  0.3915
 8748SOL     OW36712   9.362   1.451   0.608 -0.5449  0.1817 -0.2352
 8748SOL    HW136713   9.270   1.478   0.639 -0.2324  1.5631 -0.4731
 8748SOL    HW236714   9.393   1.372   0.660 -1.3436  0.5136  0.7546
 8749SOL     OW36715   4.255   0.548   2.191 -0.0371 -0.4779  0.2567
 8749SOL    HW136716   4.207   0.632   2.218  0.4286 -0.1492  0.0754
 8749SOL    HW236717   4.260   0.487   2.270  0.7430  0.2058  0.7529
 8750SOL     OW36718   0.673   5.049   0.534 -0.2185  0.2232 -0.0851
 8750SOL    HW136719   0.609   5.051   0.611  0.0086  0.9585  0.0891
 8750SOL    HW236720   0.704   4.955   0.519 -0.4180  0.0455  0.5943
 8751SOL     OW36721   2.033   0.957   3.191  0.4436 -0.4100 -0.6333
 8751SOL    HW136722   2.063   0.864   3.208 -0.6446 -0.7240 -0.3825
 8751SOL    HW236723   1.960   0.957   3.122  0.1366  0.2076 -0.3130
 8752SOL     OW36724   8.405   2.613   3.023  0.2190  0.0053  0.3098
 8752SOL    HW136725   8.429   2.672   3.099  2.4804 -1.2717  0.6317
 8752SOL    HW236726   8.413   2.517   3.050 -1.2036 -0.4890 -0.8710
 8753SOL     OW36727   9.408   9.628   3.881 -0.7876 -0.3820 -0.0637
 8753SOL    HW136728   9.339   9.584   3.823 -0.3165 -0.4686 -0.5578
 8753SOL    HW236729   9.482   9.663   3.824 -0.1605 -0.7708  0.5146
 8754SOL     OW36730   1.268   6.062   0.323  0.4922  0.0330  0.0070
 8754SOL    HW136731   1.220   5.991   0.375  1.2322 -0.9351 -0.6135
 8754SOL    HW236732   1.312   6.126   0.386 -1.0914  0.5782  0.5815
 8755SOL     OW36733   8.712   2.810   1.703 -0.1513  0.1768 -0.6966
 8755SOL    HW136734   8.665   2.765   1.627 -0.1845  0.3953 -0.8066
 8755SOL    HW236735   8.734   2.904   1.677  0.9381 -0.1206 -0.9041
 8756SOL     OW36736   1.773   4.044   1.750  0.1221 -0.0492  0.4593
 8756SOL    HW136737   1.797   3.949   1.735  2.5362  0.0978  2.9749
 8756SOL    HW236738   1.676   4.051   1.777 -0.7408 -1.4792 -2.1057
 8757SOL     OW36739   4.695   7.459   3.173 -0.4779  0.1661 -0.3547
 8757SOL    HW136740   4.740   7.398   3.107 -0.4608  0.6241 -0.7615
 8757SOL    HW236741   4.727   7.436   3.265 -0.7705 -0.7073 -0.4622
 8758SOL     OW36742   6.479   8.948   1.181  0.1630 -0.4019  0.3410
 8758SOL    HW136743   6.550   8.887   1.145 -0.6337 -1.1887  0.0456
 8758SOL    HW236744   6.413   8.968   1.107  0.6199  1.1165  0.3452
 8759SOL     OW36745   0.443   3.598   3.332  0.1448  0.0758 -0.5869
 8759SOL    HW136746   0.501   3.589   3.250  1.7113  0.0851  0.4972
 8759SOL    HW236747   0.375   3.525   3.332  0.4316 -0.2074 -1.6729
 8760SOL     OW36748   9.940   5.280   1.776  0.6759 -0.3806 -0.1516
 8760SOL    HW136749   9.996   5.332   1.840 -1.1139  0.4493  0.7580
 8760SOL    HW236750   9.930   5.186   1.810  0.2356 -0.1079  0.4726
 8761SOL     OW36751   4.322   8.751   1.509 -0.2626  0.1535 -0.2412
 8761SOL    HW136752   4.267   8.668   1.513 -0.7479  0.5068  0.6435
 8761SOL    HW236753   4.264   8.830   1.529  0.5580  0.5300  0.6887
 8762SOL     OW36754   4.815   8.834   3.320 -0.3817  0.0737 -0.2039
 8762SOL    HW136755   4.826   8.910   3.384  0.0500  1.2509 -1.6268
 8762SOL    HW236756   4.748   8.769   3.356 -0.0747  0.6523  1.4665
 8763SOL     OW36757   9.719   7.972   3.358  0.0541 -0.1113 -0.2559
 8763SOL    HW136758   9.790   7.994   3.291 -0.3089 -0.9901 -0.9394
 8763SOL    HW236759   9.632   7.960   3.311 -0.0981 -1.2654  0.2996
 8764SOL     OW36760   0.459   4.016   1.686 -0.4315 -0.7531 -0.5099
 8764SOL    HW136761   0.427   4.043   1.777  0.3109 -1.7944  0.0761
 8764SOL    HW236762   0.380   4.009   1.624 -1.1581 -1.6158  0.4794
 8765SOL     OW36763   1.130   1.112   1.138  0.1551 -0.0406 -0.7495
 8765SOL    HW136764   1.077   1.056   1.074  0.6205 -1.2421 -0.0965
 8765SOL    HW236765   1.069   1.178   1.183 -0.7444 -1.2474 -0.1862
 8766SOL     OW36766   0.020   7.693   3.086 -0.2043  0.7417 -0.4984
 8766SOL    HW136767   0.007   7.732   2.995 -0.1603  0.2099 -0.7362
 8766SOL    HW236768  -0.059   7.714   3.143 -0.6417  0.3101 -0.9370
 8767SOL     OW36769   0.635   2.607   2.567 -0.5723 -0.1156  0.1199
 8767SOL    HW136770   0.598   2.538   2.629 -3.2234 -0.3422 -1.6646
 8767SOL    HW236771   0.672   2.563   2.485  1.2632  0.3283  0.6743
 8768SOL     OW36772   2.557   8.238   1.794 -0.1241 -0.5680  0.3273
 8768SOL    HW136773   2.517   8.183   1.720  0.5638 -2.8134  1.5648
 8768SOL    HW236774   2.521   8.206   1.881 -0.3414  1.5635  1.0498
 8769SOL     OW36775   1.203   7.371   3.125  0.1825  0.0601  0.0549
 8769SOL    HW136776   1.219   7.449   3.064  0.5133 -0.8285 -0.9999
 8769SOL    HW236777   1.148   7.302   3.078  0.8037 -0.8275  0.6082
 8770SOL     OW36778   3.303   3.572   3.040 -0.2183 -0.0290 -0.1152
 8770SOL    HW136779   3.384   3.549   3.094 -1.1957 -2.8142  0.2490
 8770SOL    HW236780   3.306   3.522   2.953 -0.2777  1.8866 -1.2469
 8771SOL     OW36781   4.286   0.034   1.118  0.0741 -0.7723 -0.0945
 8771SOL    HW136782   4.227  -0.044   1.096 -0.8484 -0.4625  1.2478
 8771SOL    HW236783   4.230   0.111   1.147  1.0122  0.2548 -0.9443
 8772SOL     OW36784   1.360   3.798   2.676 -0.0944  0.0265  0.0333
 8772SOL    HW136785   1.359   3.700   2.659 -0.6918  0.1469 -0.6419
 8772SOL    HW236786   1.389   3.847   2.594  1.7549  0.3346  0.8393
 8773SOL     OW36787   2.925   9.358   0.223  0.2996 -0.3091 -0.4416
 8773SOL    HW136788   2.863   9.394   0.154  0.2839 -1.2344 -0.9105
 8773SOL    HW236789   2.944   9.429   0.291 -0.2447  0.3754 -1.0045
 8774SOL     OW36790   2.401   3.977   3.517 -0.0665  0.0039  0.6987
 8774SOL    HW136791   2.394   3.929   3.430 -0.2956  0.3874  0.5011
 8774SOL    HW236792   2.349   4.063   3.511  0.5884  0.4184  0.9429
 8775SOL     OW36793   1.676   4.333   2.556 -0.8824  0.8711  0.2338
 8775SOL    HW136794   1.760   4.366   2.514 -0.5097 -2.6036 -1.9369
 8775SOL    HW236795   1.687   4.331   2.656  2.2448 -1.0833 -0.1054
 8776SOL     OW36796   9.816   3.433   1.997 -0.1977  0.6186 -0.4369
 8776SOL    HW136797   9.732   3.417   1.945 -2.5175  1.8775  2.7674
 8776SOL    HW236798   9.871   3.501   1.950 -1.8821  1.1997 -1.6317
 8777SOL     OW36799   1.159   4.606   0.785  0.1908 -0.3045 -0.4602
 8777SOL    HW136800   1.066   4.590   0.751  0.0126 -1.2149  0.4522
 8777SOL    HW236801   1.157   4.674   0.858  0.0906 -1.1407  0.3268
 8778SOL     OW36802   7.315   3.615   0.079  0.4861  0.2919 -0.3498
 8778SOL    HW136803   7.342   3.566   0.162 -0.0213  1.1634  0.3400
 8778SOL    HW236804   7.262   3.697   0.104  0.9465  0.9519 -1.5011
 8779SOL     OW36805   0.508   4.468   2.738  0.0059 -0.4155 -0.2967
 8779SOL    HW136806   0.497   4.566   2.756 -0.1664 -0.5971  0.6292
 8779SOL    HW236807   0.590   4.453   2.683  0.1404  0.2284 -0.2797
 8780SOL     OW36808   7.752   8.464   0.384  0.6243 -0.0907 -0.4310
 8780SOL    HW136809   7.678   8.412   0.427  2.0856 -1.1805  0.8388
 8780SOL    HW236810   7.731   8.477   0.287 -0.9609 -0.8732 -0.2160
 8781SOL     OW36811   2.897   9.547   1.534  0.1985  0.5064 -0.6989
 8781SOL    HW136812   2.927   9.624   1.590  0.1287 -1.1116  1.6098
 8781SOL    HW236813   2.799   9.553   1.518 -0.0352  0.2003  0.5925
 8782SOL     OW36814   4.098   0.680   0.257 -0.1683  0.1588 -0.4009
 8782SOL    HW136815   4.009   0.723   0.274 -0.5379 -0.6035 -0.3539
 8782SOL    HW236816   4.094   0.584   0.285  1.2767  0.6111  1.4424
 8783SOL     OW36817   5.155   6.654   2.465  0.2063  0.8212  0.1663
 8783SOL    HW136818   5.088   6.585   2.438 -0.6492  0.9036  1.9746
 8783SOL    HW236819   5.247   6.617   2.458 -0.2550 -0.5542  1.2220
 8784SOL     OW36820   8.989   9.217   1.644 -0.4293  0.7055 -0.2098
 8784SOL    HW136821   9.017   9.158   1.568 -0.6110  1.1400 -0.6111
 8784SOL    HW236822   9.031   9.307   1.634 -0.3929  0.7401  0.2425
 8785SOL     OW36823   7.610   0.654   0.745  0.0422 -0.0237  0.3293
 8785SOL    HW136824   7.624   0.591   0.668  1.2758 -1.0345  1.3579
 8785SOL    HW236825   7.630   0.748   0.715 -1.3817 -0.1502 -1.0984
 8786SOL     OW36826   4.283   9.086   3.352 -0.0515  0.0170  0.3639
 8786SOL    HW136827   4.307   8.990   3.347 -0.7327 -0.1252 -0.1735
 8786SOL    HW236828   4.305   9.131   3.265  0.6217  0.4240  0.7446
 8787SOL     OW36829   4.265   9.771   2.408 -0.6566 -0.5156  0.0980
 8787SOL    HW136830   4.228   9.681   2.385 -2.1944  0.8138 -2.9140
 8787SOL    HW236831   4.358   9.779   2.371 -0.8324 -0.5611 -0.3541
 8788SOL     OW36832   0.377   4.317   2.083 -0.1656 -0.1216  0.2678
 8788SOL    HW136833   0.431   4.342   2.163 -1.1007 -1.1351  1.2360
 8788SOL    HW236834   0.286   4.357   2.091 -1.0499 -2.1935  0.9059
 8789SOL     OW36835   9.832   1.026   3.021 -0.6382  0.4723 -0.0034
 8789SOL    HW136836   9.836   1.126   3.022 -2.4851  0.5741  1.6912
 8789SOL    HW236837   9.914   0.989   3.066  1.2535  1.1010 -2.7772
 8790SOL     OW36838   0.653   6.563   3.932 -1.0144  0.4292  0.2997
 8790SOL    HW136839   0.577   6.500   3.918 -0.3395 -0.3115 -0.0287
 8790SOL    HW236840   0.650   6.635   3.863 -2.5392  1.5173  1.4509
 8791SOL     OW36841   1.995   6.784   2.841  0.2746  0.0639  0.1584
 8791SOL    HW136842   1.944   6.712   2.887  2.8192 -1.3417  0.8632
 8791SOL    HW236843   2.089   6.754   2.824  0.8409  2.4737 -1.3364
 8792SOL     OW36844   0.342   9.442   3.230 -0.3768  0.9139  0.2205
 8792SOL    HW136845   0.375   9.424   3.138 -0.4962 -0.5884  0.4556
 8792SOL    HW236846   0.294   9.361   3.265 -0.2648  1.4324  1.6286
 8793SOL     OW36847   8.426   9.133   1.135 -0.3622  0.5388  0.0115
 8793SOL    HW136848   8.495   9.155   1.066  0.8632 -1.1340  0.6535
 8793SOL    HW236849   8.370   9.056   1.104 -1.4564  1.3967 -0.1757
 8794SOL     OW36850   7.497   1.486   2.586  0.0091  0.4771  0.0793
 8794SOL    HW136851   7.546   1.457   2.667 -0.1578 -0.5909 -0.2014
 8794SOL    HW236852   7.403   1.511   2.610 -0.2991 -0.6583  0.0863
 8795SOL     OW36853   0.661   9.297   3.598 -0.5665 -0.3509  0.3045
 8795SOL    HW136854   0.641   9.201   3.582 -0.4011 -0.9014  3.2071
 8795SOL    HW236855   0.624   9.325   3.687 -0.1605  2.1297 -0.2673
 8796SOL     OW36856   9.492   1.762   0.353 -0.0988  0.3689 -0.5021
 8796SOL    HW136857   9.464   1.836   0.413  0.0586  0.9257 -1.1129
 8796SOL    HW236858   9.540   1.692   0.406  0.4975  1.1043 -0.0682
 8797SOL     OW36859   2.290   3.283   0.087 -0.0412  0.5139 -0.1964
 8797SOL    HW136860   2.281   3.316   0.180  1.8200  0.7880 -0.0924
 8797SOL    HW236861   2.317   3.358   0.027 -0.6140  0.2065 -0.8583
 8798SOL     OW36862   0.258   5.964   0.253 -0.1008  0.6518  0.4688
 8798SOL    HW136863   0.256   5.904   0.173 -1.6290  2.0409 -0.5589
 8798SOL    HW236864   0.203   5.923   0.327 -3.8663  2.2623 -1.3387
 8799SOL     OW36865   9.470   4.136   3.243 -0.5175  0.4790 -0.2557
 8799SOL    HW136866   9.512   4.187   3.168  2.2391 -0.2054  0.7621
 8799SOL    HW236867   9.384   4.180   3.268 -0.5505  1.8274 -2.5324
 8800SOL     OW36868   1.812   2.696   1.431  0.5681 -0.4360  0.1148
 8800SOL    HW136869   1.814   2.685   1.531 -1.2982  1.8994  0.4620
 8800SOL    HW236870   1.838   2.790   1.408 -1.3379 -0.2602 -1.4317
 8801SOL     OW36871   9.449   4.799   0.015  0.6140  0.0999  0.8177
 8801SOL    HW136872   9.376   4.858  -0.021 -0.0762 -2.1405 -1.5770
 8801SOL    HW236873   9.524   4.795  -0.051  0.6983 -1.6002  0.9995
 8802SOL     OW36874   3.699   2.216   1.191  0.3708  0.2548  0.6138
 8802SOL    HW136875   3.722   2.126   1.227  2.0850  0.0180 -0.9680
 8802SOL    HW236876   3.628   2.207   1.121  0.4336  0.1474  0.5638
 8803SOL     OW36877   1.210   1.494   1.242 -0.5614 -0.1454 -0.1493
 8803SOL    HW136878   1.265   1.480   1.325 -1.6288  0.9241  0.7555
 8803SOL    HW236879   1.142   1.421   1.235  0.6339 -1.1995 -1.0145
 8804SOL     OW36880   9.172   0.582   3.380  0.6126  0.2867 -0.2139
 8804SOL    HW136881   9.111   0.591   3.301 -0.5283  0.9969  0.7213
 8804SOL    HW236882   9.235   0.659   3.382  1.2566 -0.2190 -0.9440
 8805SOL     OW36883   3.241   9.253   2.520 -0.0343  0.1120 -0.4559
 8805SOL    HW136884   3.238   9.352   2.506  0.3633  0.0197 -1.1881
 8805SOL    HW236885   3.334   9.220   2.505 -0.4368 -0.5663 -1.5165
 8806SOL     OW36886   8.399   9.209   1.399 -0.0692  0.3412 -0.2556
 8806SOL    HW136887   8.439   9.301   1.397  1.5009 -0.3470 -1.0622
 8806SOL    HW236888   8.405   9.167   1.309 -1.3210 -0.3443 -0.0358
 8807SOL     OW36889   8.813   0.530   0.404  0.3566 -0.4870 -0.0464
 8807SOL    HW136890   8.776   0.590   0.475 -0.1620 -0.3620 -0.4233
 8807SOL    HW236891   8.760   0.540   0.320  0.3256 -1.3865 -0.1469
 8808SOL     OW36892   0.006   2.580   2.519 -0.0384 -0.1159 -0.3236
 8808SOL    HW136893   0.009   2.646   2.444  0.9215 -0.5309 -0.6560
 8808SOL    HW236894  -0.007   2.628   2.605 -0.3478  0.4238 -0.6646
 8809SOL     OW36895   0.344   1.161   0.398 -0.1190 -0.2744  0.4068
 8809SOL    HW136896   0.262   1.207   0.430 -0.5938 -1.2388  0.5878
 8809SOL    HW236897   0.337   1.144   0.299 -0.1182 -0.3236  0.4153
 8810SOL     OW36898   0.460   5.484   2.438 -0.5430  0.0180 -0.2884
 8810SOL    HW136899   0.368   5.521   2.432 -1.0884 -1.3689 -0.6716
 8810SOL    HW236900   0.500   5.507   2.527 -0.7144  1.8183 -0.6493
 8811SOL     OW36901   7.326   9.632   1.491  0.3882 -0.2192  0.2301
 8811SOL    HW136902   7.406   9.582   1.523  0.3812 -0.0569  0.5051
 8811SOL    HW236903   7.352   9.726   1.469  0.4920 -0.4734 -0.7160
 8812SOL     OW36904   2.054   1.353   1.296 -0.3460 -0.6101 -0.2968
 8812SOL    HW136905   2.078   1.339   1.392 -0.7371  0.2625 -0.0712
 8812SOL    HW236906   1.974   1.296   1.273 -0.9399  0.0185  0.1946
 8813SOL     OW36907   2.862   1.440   1.750  0.4785 -0.3674  0.1799
 8813SOL    HW136908   2.782   1.449   1.691 -0.8504 -3.9537  1.3175
 8813SOL    HW236909   2.838   1.468   1.843  0.9369 -0.1792  0.2429
 8814SOL     OW36910   3.215   1.908   2.132  0.2648  0.1734  0.0346
 8814SOL    HW136911   3.227   1.983   2.196 -0.9073  0.0346  0.4185
 8814SOL    HW236912   3.254   1.824   2.170  0.8963  0.4098 -0.0778
 8815SOL     OW36913   0.274   7.778   3.681  0.3075  0.2053  0.2493
 8815SOL    HW136914   0.222   7.718   3.741  1.2626 -0.0729  0.8045
 8815SOL    HW236915   0.371   7.765   3.697  0.5251  1.9847  0.4724
 8816SOL     OW36916   8.151   0.484   3.006  0.0108  0.0022 -0.0824
 8816SOL    HW136917   8.084   0.542   2.960 -1.1205 -0.2782  1.2057
 8816SOL    HW236918   8.138   0.489   3.105  2.2442  0.3668  0.2229
 8817SOL     OW36919   6.721   0.194   2.958  0.1549 -0.2868 -0.5142
 8817SOL    HW136920   6.678   0.209   3.048  0.9304 -0.7564 -0.0596
 8817SOL    HW236921   6.695   0.268   2.896 -0.4426  0.0056  0.0831
 8818SOL     OW36922   4.073   0.172   2.991  0.5301 -0.3568 -0.0232
 8818SOL    HW136923   4.031   0.083   3.008  0.5024 -0.5080 -0.8663
 8818SOL    HW236924   4.005   0.244   3.006 -0.0632 -0.6050 -1.4285
 8819SOL     OW36925   1.010   9.364   2.142  0.0925  0.6003  0.0858
 8819SOL    HW136926   1.027   9.270   2.111 -0.2154 -0.0137  1.6960
 8819SOL    HW236927   1.090   9.420   2.124  0.2913  0.0191 -0.8746
 8820SOL     OW36928   3.710   0.124   1.251  1.4790 -0.6270  0.2070
 8820SOL    HW136929   3.781   0.182   1.291  1.7108 -1.1937  0.6239
 8820SOL    HW236930   3.630   0.121   1.311  1.5532 -0.9110  0.2948
 8821SOL     OW36931   8.340   8.857   3.369  0.3567  0.0816 -0.0758
 8821SOL    HW136932   8.312   8.922   3.439 -0.1993 -1.5558  1.2431
 8821SOL    HW236933   8.262   8.835   3.310  0.7267  1.1545 -0.9937
 8822SOL     OW36934   0.083   7.027   1.946  0.3348  0.9649 -0.0055
 8822SOL    HW136935   0.011   7.038   2.014 -0.5785 -1.1873 -0.5718
 8822SOL    HW236936   0.146   6.955   1.976 -1.6254 -1.9884 -2.6063
 8823SOL     OW36937   7.905   0.950   1.721 -0.5120 -0.8250  0.1928
 8823SOL    HW136938   7.884   0.983   1.812  2.5196 -2.5578  1.6309
 8823SOL    HW236939   7.869   0.857   1.710 -2.3993  0.0241 -1.0554
 8824SOL     OW36940   2.565   5.636   0.823 -0.1485  0.7515 -0.0032
 8824SOL    HW136941   2.494   5.686   0.873  0.3403  0.6549  0.8007
 8824SOL    HW236942   2.530   5.608   0.734 -1.7322 -0.8452  1.0921
 8825SOL     OW36943   0.477   4.615   1.416  0.0193  0.7482  0.3680
 8825SOL    HW136944   0.479   4.536   1.355  0.6034  1.7345 -0.9189
 8825SOL    HW236945   0.405   4.603   1.484 -0.2116 -0.6655 -0.1142
 8826SOL     OW36946   9.892   7.573   2.842 -0.2588 -0.7014  1.2625
 8826SOL    HW136947   9.818   7.641   2.840  1.0954  0.7958  0.9184
 8826SOL    HW236948   9.886   7.519   2.925 -2.1024 -1.0096  0.9533
 8827SOL     OW36949   0.983   0.664   0.812  0.3995 -0.6969 -0.2253
 8827SOL    HW136950   0.922   0.685   0.889  1.5525 -0.2138  0.5583
 8827SOL    HW236951   1.075   0.697   0.832  0.9705 -1.5862 -1.3326
 8828SOL     OW36952   2.074   7.704   3.582  0.8243 -0.2573  0.4612
 8828SOL    HW136953   2.075   7.674   3.486  1.3504  2.8410 -0.5708
 8828SOL    HW236954   2.106   7.630   3.640  0.8187 -2.0985 -1.7789
 8829SOL     OW36955   3.815   8.165   0.269  0.0339  0.2035  0.5318
 8829SOL    HW136956   3.838   8.071   0.295 -0.2689  0.3734  1.4497
 8829SOL    HW236957   3.896   8.211   0.234  0.2268 -0.3457  0.2516
 8830SOL     OW36958   0.288   6.666   0.928 -0.3662 -0.0636 -0.2367
 8830SOL    HW136959   0.250   6.714   1.007 -1.1808  1.5723 -1.5924
 8830SOL    HW236960   0.387   6.654   0.940 -0.3196  1.0658  0.5793
 8831SOL     OW36961   3.031   4.554   2.748  0.6422  0.0131  0.0026
 8831SOL    HW136962   3.130   4.543   2.739  0.9561  1.1508  1.7415
 8831SOL    HW236963   3.010   4.650   2.767 -0.4270 -0.8380  3.5339
 8832SOL     OW36964   1.234   0.495   3.157  0.4745  0.3660  0.2925
 8832SOL    HW136965   1.307   0.554   3.192  0.9873  1.8386 -3.0923
 8832SOL    HW236966   1.273   0.427   3.094 -0.8821  0.1870 -0.3717
 8833SOL     OW36967   2.621   6.298   3.322  0.3418 -0.3857  0.1113
 8833SOL    HW136968   2.543   6.266   3.268  0.1934 -1.7375  1.1130
 8833SOL    HW236969   2.613   6.264   3.416  0.6825  1.8076  0.9627
 8834SOL     OW36970   4.810   7.523   3.451  0.2693  0.0788  0.5138
 8834SOL    HW136971   4.848   7.515   3.543 -0.0944  1.9156  0.8478
 8834SOL    HW236972   4.865   7.588   3.398 -0.9317  0.8642  0.2106
 8835SOL     OW36973   0.846   0.336   0.507  0.1703  0.0302 -0.4625
 8835SOL    HW136974   0.920   0.398   0.536  0.5288 -0.4824 -0.2798
 8835SOL    HW236975   0.767   0.390   0.480 -0.9062  0.5046  3.3603
 8836SOL     OW36976   4.149   1.782   0.868 -0.2159 -0.3210  0.9001
 8836SOL    HW136977   4.070   1.817   0.918 -0.1966  1.5056 -0.2814
 8836SOL    HW236978   4.146   1.814   0.773  2.7461  1.2211  1.2391
 8837SOL     OW36979   0.648   4.451   0.887  0.6540  0.6068 -0.1854
 8837SOL    HW136980   0.705   4.528   0.918  3.2250 -1.2574 -0.1034
 8837SOL    HW236981   0.638   4.385   0.961  0.4139 -0.2456 -0.9706
 8838SOL     OW36982   8.750   5.430   3.199  0.5942  0.2161  0.2368
 8838SOL    HW136983   8.663   5.479   3.198 -1.1641 -2.8199  1.7477
 8838SOL    HW236984   8.817   5.481   3.143 -2.6914  1.4724 -2.7208
 8839SOL     OW36985   9.954   5.983   0.509 -0.1460  0.7524 -0.4847
 8839SOL    HW136986   9.868   5.992   0.560  0.8113  0.3677  1.2282
 8839SOL    HW236987   9.976   5.887   0.497 -0.6510  0.8230 -2.1700
 8840SOL     OW36988   4.753   7.195   1.885 -0.4483  0.3185 -0.1622
 8840SOL    HW136989   4.729   7.101   1.859  0.2401  0.7497 -2.4704
 8840SOL    HW236990   4.843   7.218   1.848 -0.6351  1.9238  0.3410
 8841SOL     OW36991   9.182   6.482   3.261 -0.4462 -0.1197  0.3074
 8841SOL    HW136992   9.118   6.559   3.252 -0.6097 -0.1626  1.1131
 8841SOL    HW236993   9.188   6.455   3.357 -1.5668 -2.1060 -0.1582
 8842SOL     OW36994   7.451   1.902   0.482 -0.1385 -0.6092  0.1580
 8842SOL    HW136995   7.509   1.853   0.548 -0.4447 -1.4710 -0.2077
 8842SOL    HW236996   7.463   1.862   0.392 -2.0346 -1.4085  0.2567
 8843SOL     OW36997   1.122   5.178   0.317  0.2587 -0.3466 -0.2285
 8843SOL    HW136998   1.184   5.181   0.238  0.3131 -1.6141 -0.2494
 8843SOL    HW236999   1.160   5.118   0.387  1.5830  2.9659  1.9765
 8844SOL     OW37000   8.172   8.063   0.788  0.2475 -0.6156 -0.3320
 8844SOL    HW137001   8.247   8.008   0.824  0.1156 -0.4099  0.2579
 8844SOL    HW237002   8.092   8.005   0.775 -0.2986 -0.3089  1.5335
 8845SOL     OW37003   1.812   5.013   3.195 -0.0487  0.1484 -0.1162
 8845SOL    HW137004   1.875   4.965   3.134 -0.8015  1.4494 -1.9306
 8845SOL    HW237005   1.863   5.080   3.249  0.4449 -0.2784 -0.0452
 8846SOL     OW37006   7.595   0.758   1.129 -0.5705  0.4771 -0.3924
 8846SOL    HW137007   7.527   0.701   1.083 -0.1995  1.0899 -1.7198
 8846SOL    HW237008   7.596   0.849   1.087  0.9158  0.5334 -0.2422
 8847SOL     OW37009   1.383   2.444   3.637  0.2780 -0.2686 -0.2536
 8847SOL    HW137010   1.432   2.357   3.627  0.3707 -0.3529  0.8248
 8847SOL    HW237011   1.293   2.436   3.594  0.3725 -0.8317 -0.3586
 8848SOL     OW37012   7.910   8.561   1.227 -0.3432  0.0110 -0.2484
 8848SOL    HW137013   7.886   8.650   1.267 -1.1758 -0.3968  0.1805
 8848SOL    HW237014   7.877   8.488   1.287 -0.8223 -0.5978 -1.2452
 8849SOL     OW37015   0.297   0.327   2.845 -0.1926 -0.0382  0.0593
 8849SOL    HW137016   0.390   0.343   2.878 -0.9811  1.6683  1.5848
 8849SOL    HW237017   0.252   0.260   2.904 -0.3839  0.2277  0.2206
 8850SOL     OW37018   8.291   1.484   3.941 -0.0757  0.0592 -0.5360
 8850SOL    HW137019   8.375   1.537   3.931 -0.6102  0.8845 -0.6993
 8850SOL    HW237020   8.314   1.386   3.945  0.9124  0.2910 -0.2534
 8851SOL     OW37021   1.130   3.817   3.933  0.3758 -0.1530  0.2493
 8851SOL    HW137022   1.213   3.810   3.877  0.2593 -0.8167  0.1506
 8851SOL    HW237023   1.050   3.802   3.875  0.2960 -1.7737  0.7527
 8852SOL     OW37024   2.594   6.260   0.964  0.3439 -0.3784  0.2246
 8852SOL    HW137025   2.607   6.359   0.970 -0.7097 -0.3178  1.5980
 8852SOL    HW237026   2.665   6.214   1.017 -1.6571 -0.2067  3.1511
 8853SOL     OW37027   0.549   1.933   3.912 -0.4501 -0.4106 -0.4817
 8853SOL    HW137028   0.548   2.022   3.957  2.7686 -1.5029  1.9235
 8853SOL    HW237029   0.606   1.937   3.830 -0.0824 -0.3404 -0.2202
 8854SOL     OW37030   8.068   9.815   1.480 -0.8702 -0.3766 -0.6249
 8854SOL    HW137031   8.081   9.837   1.383 -0.5308  1.2580 -0.2176
 8854SOL    HW237032   8.012   9.886   1.523 -0.7533 -0.9324  0.4460
 8855SOL     OW37033   8.732   5.429   3.484 -0.2472  0.3100 -0.0917
 8855SOL    HW137034   8.787   5.362   3.534  0.0753 -0.0100 -0.8627
 8855SOL    HW237035   8.720   5.398   3.390 -2.3997  0.0039  0.2605
 8856SOL     OW37036   0.620   8.818   0.778 -0.0565 -0.0060  0.4054
 8856SOL    HW137037   0.620   8.866   0.691 -0.1458 -0.9378 -0.1160
 8856SOL    HW237038   0.591   8.723   0.764 -1.5480  0.2468  1.6887
 8857SOL     OW37039   2.807   1.109   1.091  0.2686 -0.0363 -0.3634
 8857SOL    HW137040   2.750   1.095   1.172 -0.5622  0.7034 -0.8169
 8857SOL    HW237041   2.903   1.115   1.119 -0.0316  0.4600  0.5997
 8858SOL     OW37042   1.126   0.980   2.631  0.4000  0.2618  0.6011
 8858SOL    HW137043   1.113   0.899   2.689 -0.9376 -0.5925 -0.8315
 8858SOL    HW237044   1.205   0.965   2.571 -2.0524 -1.6807 -2.3251
 8859SOL     OW37045   3.351   5.999   0.442 -0.3346 -0.8468 -0.1245
 8859SOL    HW137046   3.312   6.055   0.369 -1.7233 -1.5435  0.0521
 8859SOL    HW237047   3.366   5.906   0.408 -0.1727 -0.9508  0.2296
 8860SOL     OW37048   8.166   8.274   0.961 -0.5790 -0.0147 -0.3082
 8860SOL    HW137049   8.216   8.355   0.932 -3.0725  0.7649 -2.6510
 8860SOL    HW237050   8.187   8.197   0.901  1.4920 -1.0362  1.6796
 8861SOL     OW37051   9.598   3.390   1.353  0.2155  0.2797 -0.0274
 8861SOL    HW137052   9.647   3.349   1.430  0.4942 -0.4713 -0.6127
 8861SOL    HW237053   9.551   3.473   1.385  1.3819  0.6876  0.6610
 8862SOL     OW37054   9.901   8.888   3.856 -0.2758 -0.5084 -0.1866
 8862SOL    HW137055   9.867   8.842   3.938 -0.1149 -1.1725 -0.4914
 8862SOL    HW237056   9.876   8.985   3.859  0.5396 -0.3200  1.1042
 8863SOL     OW37057   8.662   4.488   0.887 -0.2938  0.0827 -0.6801
 8863SOL    HW137058   8.564   4.499   0.903 -0.3717  0.2470 -1.2429
 8863SOL    HW237059   8.684   4.517   0.794  0.4179  0.7570 -0.3059
 8864SOL     OW37060   9.490   2.643   0.405  0.4225 -0.4790  0.1526
 8864SOL    HW137061   9.427   2.569   0.427 -0.2726  0.4321  1.2743
 8864SOL    HW237062   9.577   2.629   0.452  1.0087 -1.6092 -1.2072
 8865SOL     OW37063   0.818   3.764   0.794  0.6782  0.1180  0.0254
 8865SOL    HW137064   0.824   3.781   0.695  1.2870 -0.3477 -0.0170
 8865SOL    HW237065   0.759   3.834   0.835  2.8822  2.1667 -0.1846
 8866SOL     OW37066   1.454   0.911   0.706  0.1247  0.3902 -0.1616
 8866SOL    HW137067   1.525   0.877   0.767  0.4623 -0.4597 -1.0089
 8866SOL    HW237068   1.489   0.914   0.612 -1.5440 -2.0084 -0.9226
 8867SOL     OW37069   6.484   6.469   2.283 -0.7262 -0.2475  0.6047
 8867SOL    HW137070   6.502   6.550   2.339 -1.6521  0.9451 -0.7966
 8867SOL    HW237071   6.397   6.427   2.312 -1.4058  0.5979 -0.1874
 8868SOL     OW37072   1.842   8.362   3.972  0.1160 -0.1908  0.0036
 8868SOL    HW137073   1.871   8.267   3.961 -0.2986 -0.2824 -0.3557
 8868SOL    HW237074   1.921   8.421   3.987  0.1564 -0.9200  2.7118
 8869SOL     OW37075   6.821   8.603   1.110 -0.2662  0.5209 -0.5218
 8869SOL    HW137076   6.896   8.634   1.169 -1.8854  1.0103  1.3150
 8869SOL    HW237077   6.784   8.517   1.145 -0.0846 -0.1153 -1.8571
 8870SOL     OW37078   0.809   8.549   2.454  0.2904  0.3791 -0.3587
 8870SOL    HW137079   0.909   8.541   2.458  0.2012 -0.4662  0.2345
 8870SOL    HW237080   0.773   8.482   2.389 -0.1051 -1.1408  1.3979
 8871SOL     OW37081   0.924   0.342   2.208 -0.0680  0.7324 -0.0597
 8871SOL    HW137082   0.927   0.411   2.281 -0.8968  1.1937 -0.4562
 8871SOL    HW237083   0.942   0.386   2.120 -1.0650  0.5346 -0.3714
 8872SOL     OW37084   8.758   8.695   1.749 -0.3611 -0.0246  0.0018
 8872SOL    HW137085   8.788   8.638   1.826 -0.4151  0.5614  0.4551
 8872SOL    HW237086   8.762   8.641   1.665 -1.2137 -0.9618  0.5526
 8873SOL     OW37087   2.891   1.588   3.761  0.5435  0.3590 -0.2603
 8873SOL    HW137088   2.943   1.555   3.839 -0.7512 -0.7042  0.1694
 8873SOL    HW237089   2.810   1.637   3.793 -0.6163 -1.0948 -0.9263
 8874SOL     OW37090   2.316   5.319   3.957 -0.3781 -0.2217 -0.4175
 8874SOL    HW137091   2.261   5.272   3.888  0.5494 -0.3395 -1.0905
 8874SOL    HW237092   2.336   5.256   4.032 -0.5289 -0.4080 -0.5328
 8875SOL     OW37093   9.501   7.196   3.621  0.1228  0.1035 -0.2140
 8875SOL    HW137094   9.412   7.236   3.598 -0.2109  0.3986  1.4987
 8875SOL    HW237095   9.494   7.148   3.709  1.2960 -1.1275 -0.7650
 8876SOL     OW37096   9.294   1.699   0.166  0.2923 -0.0522 -0.0409
 8876SOL    HW137097   9.361   1.751   0.219  0.2403 -1.3269  1.3004
 8876SOL    HW237098   9.312   1.711   0.069  1.8472  0.4380  0.2885
 8877SOL     OW37099   2.578   2.520   0.988 -0.2009 -0.3445 -0.4352
 8877SOL    HW137100   2.597   2.618   0.985 -0.0875 -0.4008 -1.8401
 8877SOL    HW237101   2.479   2.506   0.990 -0.2331 -0.1989 -0.8105
 8878SOL     OW37102   1.807   6.649   1.647 -0.4100 -0.2578 -0.6518
 8878SOL    HW137103   1.821   6.552   1.664  2.3122 -0.1901 -2.2621
 8878SOL    HW237104   1.756   6.661   1.562  1.5859 -0.2687 -1.8839
 8879SOL     OW37105   4.764   7.125   1.572 -0.0931  0.2182 -0.4760
 8879SOL    HW137106   4.770   7.071   1.656 -2.3281  1.8112  0.7609
 8879SOL    HW237107   4.856   7.154   1.544  1.2723 -4.8772 -1.6984
 8880SOL     OW37108   3.431   3.374   1.501  0.1442 -0.1361  0.3252
 8880SOL    HW137109   3.463   3.376   1.596 -1.8111 -1.7696  1.0712
 8880SOL    HW237110   3.437   3.282   1.465  2.0126  0.7055 -1.5873
 8881SOL     OW37111   0.725   5.157   1.007 -0.5008 -0.0574  0.1741
 8881SOL    HW137112   0.819   5.182   1.029 -0.8349 -0.3422  1.9427
 8881SOL    HW237113   0.719   5.059   0.992 -0.3261  0.0993 -0.9780
 8882SOL     OW37114   1.166   7.875   3.782 -0.4037  0.0458 -0.0071
 8882SOL    HW137115   1.142   7.968   3.754 -0.1702  0.6593  1.7747
 8882SOL    HW237116   1.258   7.853   3.751 -0.7217  0.1453 -1.0396
 8883SOL     OW37117   1.036   0.510   3.333  0.1702  0.2673  0.1427
 8883SOL    HW137118   0.955   0.549   3.290  0.3344 -0.0735 -0.4724
 8883SOL    HW237119   1.099   0.476   3.263  0.2263 -0.7123  0.6536
 8884SOL     OW37120   1.336   5.175   1.212 -0.4698  0.1846 -0.2334
 8884SOL    HW137121   1.380   5.177   1.122 -0.6071  0.2732 -0.2977
 8884SOL    HW237122   1.300   5.265   1.233  0.9756  0.5894  0.6126
 8885SOL     OW37123   4.083   2.695   2.354 -0.1449 -0.4964  0.6420
 8885SOL    HW137124   4.090   2.598   2.378  2.3564 -0.1823  1.3916
 8885SOL    HW237125   4.174   2.736   2.359 -0.9448  1.5418 -1.1940
 8886SOL     OW37126   0.830   8.627   1.283 -0.2945 -0.6016 -0.3739
 8886SOL    HW137127   0.875   8.696   1.340  1.9447 -0.6877 -1.9804
 8886SOL    HW237128   0.741   8.662   1.253 -0.1641  0.6668  0.6628
 8887SOL     OW37129   9.768   5.217   1.152 -0.2400  1.0068 -0.6896
 8887SOL    HW137130   9.818   5.291   1.197 -2.1384  2.5597 -1.1117
 8887SOL    HW237131   9.707   5.254   1.083 -1.3508 -0.9343 -0.8012
 8888SOL     OW37132   2.087   5.530   2.080 -0.1072  0.3411  0.0208
 8888SOL    HW137133   1.995   5.514   2.044  0.0473 -0.7978  0.1087
 8888SOL    HW237134   2.081   5.572   2.170 -0.5053  3.1449 -1.2598
 8889SOL     OW37135   9.502   9.953   4.006  0.4139  0.2083 -0.6824
 8889SOL    HW137136   9.438   9.912   3.941 -0.6144 -1.2125  1.1856
 8889SOL    HW237137   9.532   9.885   4.072  0.8232  1.8021  0.8360
 8890SOL     OW37138   9.844   3.754   1.571 -0.1942 -0.2862  0.3712
 8890SOL    HW137139   9.897   3.800   1.501 -0.6591 -2.6261 -1.5927
 8890SOL    HW237140   9.902   3.687   1.618 -0.4782 -0.3358  0.6545
 8891SOL     OW37141   9.737   8.423   2.972 -0.3236 -0.5004  0.2890
 8891SOL    HW137142   9.759   8.521   2.970 -1.4357 -0.2467  0.0370
 8891SOL    HW237143   9.757   8.383   2.882 -0.8510 -0.2846  0.0756
 8892SOL     OW37144   2.115   0.638   1.937 -0.2049  0.5974  0.3412
 8892SOL    HW137145   2.086   0.566   2.001  2.0528 -0.6041  0.0785
 8892SOL    HW237146   2.187   0.693   1.980  0.0072  0.9544 -0.4758
 8893SOL     OW37147   0.969   7.713   0.648 -0.1913 -0.2789 -0.1867
 8893SOL    HW137148   0.968   7.634   0.709  0.3461 -0.7531 -0.7798
 8893SOL    HW237149   0.948   7.796   0.700  0.5508 -0.6330  0.6955
 8894SOL     OW37150   1.741   5.947   0.805 -0.0361 -0.3065  0.3751
 8894SOL    HW137151   1.776   6.033   0.841 -0.6975  0.0741  0.1099
 8894SOL    HW237152   1.674   5.965   0.733 -1.6955 -1.0028  1.7190
 8895SOL     OW37153   9.382   7.884   1.132 -0.2097  0.1431  0.0110
 8895SOL    HW137154   9.358   7.931   1.217  4.2161  3.1835 -0.2230
 8895SOL    HW237155   9.370   7.947   1.055 -1.0464 -1.5208 -1.2497
 8896SOL     OW37156   0.129   4.421   2.041  0.6772 -0.4933  0.2145
 8896SOL    HW137157   0.044   4.436   1.991  0.9981 -2.7457 -1.0685
 8896SOL    HW237158   0.110   4.421   2.139 -0.2712  2.0413  0.0819
 8897SOL     OW37159   0.554   4.258   3.803  0.4040  0.2688  0.1837
 8897SOL    HW137160   0.553   4.197   3.723  1.8652  0.0733  0.3147
 8897SOL    HW237161   0.460   4.289   3.821 -0.3768 -1.9928  0.1640
 8898SOL     OW37162   7.087   7.340   2.191 -0.0554  0.1548 -0.0486
 8898SOL    HW137163   7.124   7.282   2.264  0.9305  1.0758  0.1897
 8898SOL    HW237164   6.998   7.305   2.163 -0.6913  0.0803  1.9661
 8899SOL     OW37165   2.291   5.771   0.286  0.0415  0.6250 -0.2601
 8899SOL    HW137166   2.377   5.790   0.333  0.2333 -0.4693 -0.1569
 8899SOL    HW237167   2.243   5.857   0.268  1.0621  1.2292 -0.1439
 8900SOL     OW37168   1.285   3.319   2.762  0.0859  0.0840  0.4875
 8900SOL    HW137169   1.316   3.373   2.684 -0.0908 -1.4829 -0.6885
 8900SOL    HW237170   1.363   3.273   2.805  0.0208 -0.0871  0.4260
 8901SOL     OW37171   2.140   2.770   1.218 -0.4354  0.2949 -0.5616
 8901SOL    HW137172   2.082   2.838   1.172 -0.1106  2.1792  1.6996
 8901SOL    HW237173   2.084   2.691   1.244 -1.5522  1.1444 -0.3209
 8902SOL     OW37174   4.058   0.964   3.032 -0.8790  0.3323  0.1727
 8902SOL    HW137175   4.130   0.911   3.076 -0.5198  1.5420  1.0579
 8902SOL    HW237176   4.009   1.018   3.101 -1.6468  0.6702 -0.6274
 8903SOL     OW37177   4.143   1.497   0.888 -0.7393 -0.0804 -0.6122
 8903SOL    HW137178   4.131   1.591   0.921  0.5162 -0.4065  0.8340
 8903SOL    HW237179   4.225   1.492   0.831 -0.2573 -0.4643  0.0932
 8904SOL     OW37180   3.871   0.799   2.642 -0.0906 -0.2427 -0.2664
 8904SOL    HW137181   3.860   0.872   2.709 -0.8640 -0.9119  0.3548
 8904SOL    HW237182   3.947   0.739   2.670 -0.6034 -0.6928  0.1869
 8905SOL     OW37183   9.425   9.292   0.999 -0.4690  0.4571 -0.3014
 8905SOL    HW137184   9.347   9.352   1.016 -0.8124 -0.0970  0.0602
 8905SOL    HW237185   9.402   9.198   1.023  0.3187  0.2926 -0.1647
 8906SOL     OW37186   3.331   1.736   1.213  0.1176 -0.4902  0.2125
 8906SOL    HW137187   3.276   1.733   1.296 -0.9068 -1.8659 -0.4920
 8906SOL    HW237188   3.296   1.809   1.153 -0.1224 -0.5181  0.3197
 8907SOL     OW37189   8.746   8.472   2.808  0.0670 -0.1343 -0.0760
 8907SOL    HW137190   8.830   8.419   2.802 -0.0086 -0.7813  3.5519
 8907SOL    HW237191   8.670   8.418   2.771  0.8462 -0.4424 -1.2579
 8908SOL     OW37192   3.860   1.655   2.598  0.6201  0.5020  0.0974
 8908SOL    HW137193   3.892   1.743   2.563  1.6986  0.1953  0.2886
 8908SOL    HW237194   3.922   1.582   2.569 -0.3855 -0.2349 -0.2401
 8909SOL     OW37195   2.863   8.181   3.086 -0.2912  0.0691 -0.4697
 8909SOL    HW137196   2.930   8.123   3.132 -1.6459 -2.3812 -1.5124
 8909SOL    HW237197   2.783   8.194   3.145 -1.0237 -1.1411 -1.1794
 8910SOL     OW37198   8.524   7.566   2.166 -0.0710  0.3705 -0.1440
 8910SOL    HW137199   8.442   7.617   2.140 -0.1019  0.6719  0.5511
 8910SOL    HW237200   8.601   7.630   2.175  0.2657  0.0786 -0.8775
 8911SOL     OW37201   2.638   3.205   2.119  0.1994 -0.0644  0.1482
 8911SOL    HW137202   2.675   3.112   2.122 -0.2145 -0.1680  3.2905
 8911SOL    HW237203   2.654   3.244   2.028  3.2715 -2.0229 -0.2275
 8912SOL     OW37204   7.986   7.726   1.464 -0.0769  0.1533  0.1666
 8912SOL    HW137205   8.001   7.644   1.519 -0.6563  0.9988  1.6154
 8912SOL    HW237206   8.064   7.788   1.474  1.0963 -0.9163 -2.2089
 8913SOL     OW37207   9.850   8.279   3.724 -0.0624 -0.2674  0.2664
 8913SOL    HW137208   9.827   8.215   3.797 -0.1401 -0.6673 -0.1055
 8913SOL    HW237209   9.946   8.307   3.733  0.0347 -0.6092  0.3003
 8914SOL     OW37210   3.455   2.633   4.046  0.0691 -0.6415 -0.5372
 8914SOL    HW137211   3.378   2.696   4.061 -0.1974 -1.0620 -0.1255
 8914SOL    HW237212   3.421   2.546   4.011  0.3122 -0.9745  0.0423
 8915SOL     OW37213   3.414   1.705   3.383  0.0670 -0.3269  0.1935
 8915SOL    HW137214   3.398   1.800   3.357  2.8537  0.2113  0.2594
 8915SOL    HW237215   3.342   1.675   3.446 -0.6856  1.8227  0.3873
 8916SOL     OW37216   0.075   4.286   3.648  0.3909 -0.6287 -0.5448
 8916SOL    HW137217   0.118   4.313   3.562  0.2432  0.7545 -0.1883
 8916SOL    HW237218   0.139   4.297   3.723 -0.7893  2.1876  0.0975
 8917SOL     OW37219   9.966   4.364   1.020  0.0765 -0.1220  0.1740
 8917SOL    HW137220   9.892   4.301   0.996  1.1452 -0.3403 -2.8211
 8917SOL    HW237221   9.941   4.416   1.102 -2.7030 -1.3056  0.1266
 8918SOL     OW37222   1.440   2.187   2.832  0.2924  0.4383  0.5803
 8918SOL    HW137223   1.403   2.264   2.779 -0.5589 -0.4010 -0.0723
 8918SOL    HW237224   1.461   2.112   2.770  0.9414  0.0751  1.2390
 8919SOL     OW37225   1.914   8.238   1.134 -0.3166 -0.1398  0.3883
 8919SOL    HW137226   1.856   8.313   1.102  1.6337  0.5487 -1.6734
 8919SOL    HW237227   1.956   8.263   1.221 -0.4830  0.7370  0.2202
 8920SOL     OW37228   1.046   4.302   0.851 -0.1095 -0.4249  0.7160
 8920SOL    HW137229   1.135   4.257   0.858  0.5584  0.1956 -2.6363
 8920SOL    HW237230   0.975   4.234   0.836  0.1917 -0.7369  0.7015
 8921SOL     OW37231   1.715   8.574   0.607 -0.0643 -0.5065 -0.2243
 8921SOL    HW137232   1.742   8.478   0.616 -1.6095 -0.8757  0.5350
 8921SOL    HW237233   1.781   8.632   0.656  0.9179 -1.1611 -0.7558
 8922SOL     OW37234   0.452   5.045   2.116 -0.1397  0.5309 -0.1890
 8922SOL    HW137235   0.422   5.123   2.062 -0.8907  0.8616  0.6957
 8922SOL    HW237236   0.484   5.077   2.206 -0.6501 -0.1912  0.2533
 8923SOL     OW37237   9.871   0.562   3.346  0.1592 -0.5169  0.1352
 8923SOL    HW137238   9.885   0.496   3.420  0.3789 -1.9988 -1.1863
 8923SOL    HW237239   9.959   0.592   3.311  0.0834 -1.3166 -0.7890
 8924SOL     OW37240   1.507   4.013   1.863  0.2007  0.5117  0.3996
 8924SOL    HW137241   1.470   4.034   1.953 -0.8640  0.4301 -0.0143
 8924SOL    HW237242   1.472   3.925   1.832 -0.1008  0.9265 -0.4523
 8925SOL     OW37243   3.314   0.324   2.500  0.2532 -0.1347  0.9334
 8925SOL    HW137244   3.282   0.308   2.407 -0.4221 -0.7176  1.2621
 8925SOL    HW237245   3.408   0.359   2.497  0.0452  0.3769  0.0206
 8926SOL     OW37246   0.725   8.504   0.022  0.1673 -0.2886  0.3598
 8926SOL    HW137247   0.725   8.589   0.075  0.2179 -0.3684  0.4912
 8926SOL    HW237248   0.633   8.485  -0.012 -0.1677 -0.9523  1.5903
 8927SOL     OW37249   0.042   9.384   1.670  0.0107 -0.3150 -0.3071
 8927SOL    HW137250  -0.017   9.384   1.751  0.2520  2.7386 -0.0728
 8927SOL    HW237251  -0.012   9.354   1.591 -0.8559 -1.1115  0.5672
 8928SOL     OW37252   2.914   8.881   0.155  0.1637 -0.4143  0.1694
 8928SOL    HW137253   2.818   8.901   0.171  0.6326  0.4731  1.9496
 8928SOL    HW237254   2.971   8.954   0.193  1.5692 -1.2971 -0.1848
 8929SOL     OW37255   4.103   8.791   1.096  0.0792  0.2565  0.5827
 8929SOL    HW137256   4.148   8.748   1.018  2.7856  0.0920  2.1913
 8929SOL    HW237257   4.127   8.742   1.180  0.4384  2.8265  2.0276
 8930SOL     OW37258   3.116   4.468   0.269 -0.4893  0.2910 -0.7446
 8930SOL    HW137259   3.208   4.508   0.273  0.7348 -2.1007 -3.1944
 8930SOL    HW237260   3.095   4.444   0.174 -2.6386 -1.4366  0.1340
 8931SOL     OW37261   0.840   9.875   1.433  0.4023  0.1615  0.1245
 8931SOL    HW137262   0.814   9.972   1.426  0.3943  0.3820  2.7364
 8931SOL    HW237263   0.931   9.868   1.474  0.5961 -0.9314 -0.4884
 8932SOL     OW37264   7.956   5.889   1.688 -0.7401  0.6974  0.2788
 8932SOL    HW137265   7.998   5.817   1.743 -1.3249 -0.5455 -0.8763
 8932SOL    HW237266   7.963   5.976   1.737  0.7314  0.0267  1.3119
 8933SOL     OW37267   8.673   4.964   3.738 -0.6286 -0.5494  0.1699
 8933SOL    HW137268   8.669   4.934   3.834  0.7020 -0.7173  0.1815
 8933SOL    HW237269   8.643   5.059   3.732 -1.7781 -0.8727  0.5904
 8934SOL     OW37270   5.845   7.370   2.236  0.6885  0.3138 -0.0312
 8934SOL    HW137271   5.904   7.355   2.157 -1.1808  1.0921 -1.6118
 8934SOL    HW237272   5.863   7.300   2.305  3.1083  0.2727 -0.6630
 8935SOL     OW37273   5.475   6.965   2.418  0.1849 -0.4103  0.1953
 8935SOL    HW137274   5.388   6.952   2.465  0.5377 -0.2173  0.9049
 8935SOL    HW237275   5.500   7.061   2.419  1.5907 -0.7723  2.1210
 8936SOL     OW37276   8.326   6.523   2.330  0.2181  0.2583  0.5700
 8936SOL    HW137277   8.407   6.471   2.359  0.5774  0.9856  0.8733
 8936SOL    HW237278   8.256   6.519   2.402  0.0983 -0.1106  0.4364
 8937SOL     OW37279   1.158   6.367   3.328  0.1212 -0.2149  0.0183
 8937SOL    HW137280   1.154   6.426   3.247 -2.2590 -0.6088 -0.1798
 8937SOL    HW237281   1.243   6.386   3.379  0.0382  2.4251 -0.7592
 8938SOL     OW37282   8.298   1.532   1.173  0.1789 -0.6991  0.3059
 8938SOL    HW137283   8.307   1.626   1.205  0.0098 -0.7684  0.5613
 8938SOL    HW237284   8.213   1.493   1.209  0.2167 -0.9270  0.1463
 8939SOL     OW37285   2.508   4.031   0.214  0.7236 -0.3615  0.1013
 8939SOL    HW137286   2.519   3.932   0.216  0.3548 -0.4380 -1.2051
 8939SOL    HW237287   2.596   4.075   0.230  1.0730 -0.9079 -0.3181
 8940SOL     OW37288   3.838   0.914   2.872  0.5732 -0.3254  0.4978
 8940SOL    HW137289   3.790   1.001   2.885 -1.1798 -1.3996  1.3974
 8940SOL    HW237290   3.921   0.913   2.928 -1.2731 -0.6158  3.3531
 8941SOL     OW37291   3.230   6.610   3.519  0.0821 -0.0917  0.1561
 8941SOL    HW137292   3.200   6.554   3.596 -0.5265 -0.1510 -0.1234
 8941SOL    HW237293   3.274   6.553   3.451 -1.5291 -0.4154 -0.6405
 8942SOL     OW37294   2.448   9.143   1.478 -0.5214 -0.3615 -0.3774
 8942SOL    HW137295   2.508   9.120   1.401 -1.4708  0.2857 -1.3169
 8942SOL    HW237296   2.353   9.127   1.452 -0.7942 -0.8602  0.9230
 8943SOL     OW37297   5.444   0.103   2.338  0.5458  0.0156  0.1119
 8943SOL    HW137298   5.401   0.016   2.361 -0.3545  0.8885  1.9267
 8943SOL    HW237299   5.523   0.118   2.398  0.0976  0.8898  0.4972
 8944SOL     OW37300   3.731   3.057   1.608  0.0504 -0.1033  0.1712
 8944SOL    HW137301   3.742   3.134   1.671  0.0757  0.3823 -0.4145
 8944SOL    HW237302   3.777   3.079   1.522 -0.6563 -0.4322 -0.2922
 8945SOL     OW37303   8.634   3.875   0.293  0.2697  0.1051 -0.3483
 8945SOL    HW137304   8.727   3.895   0.260  0.5674 -0.3953  0.1729
 8945SOL    HW237305   8.638   3.849   0.390 -0.4045 -0.0199 -0.3522
 8946SOL     OW37306   9.857   9.449   3.790 -0.5169 -0.3430 -0.2482
 8946SOL    HW137307   9.871   9.547   3.800 -0.7113 -0.4289  0.9339
 8946SOL    HW237308   9.768   9.431   3.748 -0.3529 -0.0070 -0.7375
 8947SOL     OW37309   8.152   2.579   3.233  0.1348  0.4454 -0.0074
 8947SOL    HW137310   8.170   2.481   3.237  2.1425  0.8429  1.0884
 8947SOL    HW237311   8.238   2.629   3.224 -0.6197  2.2293  2.1883
 8948SOL     OW37312   0.510   6.406   3.253  0.5441  0.4716  0.0186
 8948SOL    HW137313   0.585   6.470   3.236  0.2072  0.6422 -0.8507
 8948SOL    HW237314   0.423   6.455   3.252  0.3156  0.0613 -0.2607
 8949SOL     OW37315   1.515   8.140   1.812 -0.2044 -0.5499 -0.2370
 8949SOL    HW137316   1.562   8.181   1.734 -0.2448  1.2149  0.6418
 8949SOL    HW237317   1.463   8.060   1.782 -1.5071  1.0260 -2.3309
 8950SOL     OW37318   0.212   0.202   0.517  0.2473 -0.5990 -0.5887
 8950SOL    HW137319   0.269   0.125   0.547  0.2250  0.5704  2.6099
 8950SOL    HW237320   0.262   0.287   0.529 -1.5227  0.2916  0.5502
 8951SOL     OW37321   3.657   0.747   2.966  0.6295 -0.1764  0.1192
 8951SOL    HW137322   3.732   0.813   2.958  1.3726 -0.8615  1.2705
 8951SOL    HW237323   3.616   0.754   3.057 -1.3651  0.8601 -0.8156
 8952SOL     OW37324   2.350   7.992   1.318 -0.6144 -0.8412 -0.3217
 8952SOL    HW137325   2.357   8.091   1.332  1.7784 -1.2479  1.6288
 8952SOL    HW237326   2.259   7.961   1.343 -1.5998  0.9426 -1.5759
 8953SOL     OW37327   3.874   3.289   0.209 -0.6315  0.3350 -0.3045
 8953SOL    HW137328   3.923   3.356   0.154  2.3334 -0.3250  1.4070
 8953SOL    HW237329   3.869   3.202   0.159 -0.4882  0.5451 -0.6838
 8954SOL     OW37330   3.434   8.955   3.753  0.3075  0.0045 -0.3020
 8954SOL    HW137331   3.456   8.978   3.658 -1.2968  1.3503 -0.3668
 8954SOL    HW237332   3.362   8.885   3.755  0.3457 -0.0273 -0.0763
 8955SOL     OW37333   8.346   7.028   3.665  0.0579 -0.1928 -0.2750
 8955SOL    HW137334   8.409   6.991   3.597  0.8956  0.7633 -0.0237
 8955SOL    HW237335   8.319   7.120   3.639 -1.5490 -0.7178 -0.5795
 8956SOL     OW37336   7.525   9.920   0.193  0.7540  1.1723 -0.5933
 8956SOL    HW137337   7.482  10.003   0.158 -0.7304  0.0878 -1.3891
 8956SOL    HW237338   7.502   9.843   0.133  1.2110 -0.0141  0.7360
 8957SOL     OW37339   0.128   9.233   0.790 -0.1637 -0.4993  0.1628
 8957SOL    HW137340   0.093   9.324   0.767 -1.5825 -1.0670  0.0834
 8957SOL    HW237341   0.188   9.201   0.716 -0.9695 -0.3324 -0.5655
 8958SOL     OW37342   8.616   5.567   2.866  0.0360  0.2908 -0.6265
 8958SOL    HW137343   8.531   5.554   2.815  0.0240 -0.8671 -0.3168
 8958SOL    HW237344   8.601   5.542   2.962  0.6634  0.3367 -0.5154
 8959SOL     OW37345   0.294   7.655   3.152 -0.0674  0.1266  0.1793
 8959SOL    HW137346   0.195   7.656   3.143 -0.0974 -0.8984  0.3290
 8959SOL    HW237347   0.326   7.746   3.179 -0.5949  1.5148 -3.5805
 8960SOL     OW37348   8.793   9.946   1.418  0.1621 -0.1808  0.3078
 8960SOL    HW137349   8.859   9.871   1.418  0.5414  0.1521  1.2348
 8960SOL    HW237350   8.841  10.033   1.417 -0.2359  0.0828  2.2421
 8961SOL     OW37351   7.373   9.118   3.540 -0.8956  0.2210  0.2055
 8961SOL    HW137352   7.455   9.077   3.500 -0.2829  0.8595  0.8010
 8961SOL    HW237353   7.295   9.098   3.481  0.1055  1.7890 -1.7221
 8962SOL     OW37354   7.756   8.437   1.645 -0.1223  0.6015  0.0545
 8962SOL    HW137355   7.696   8.399   1.715 -0.3318 -0.2816 -0.5922
 8962SOL    HW237356   7.852   8.418   1.669 -0.2959 -2.1278 -1.2554
 8963SOL     OW37357   1.840   9.862   2.195  0.2126  0.1342 -0.0762
 8963SOL    HW137358   1.792   9.818   2.119 -0.1312  1.2849 -0.5525
 8963SOL    HW237359   1.881   9.793   2.254  0.0105 -0.7954 -1.0074
 8964SOL     OW37360   9.305   0.500   3.823  0.2341  0.6151 -0.0696
 8964SOL    HW137361   9.361   0.559   3.765 -0.0928  0.5637 -0.4365
 8964SOL    HW237362   9.365   0.446   3.882  0.6205 -0.0965 -1.1007
 8965SOL     OW37363   2.693   8.342   2.340  0.3579  0.0095  0.4157
 8965SOL    HW137364   2.697   8.439   2.367 -0.2772 -0.0246  0.6313
 8965SOL    HW237365   2.619   8.297   2.389  2.2457 -1.1815  2.2375
 8966SOL     OW37366   9.843   5.055   0.151 -0.4112  0.2212  0.2082
 8966SOL    HW137367   9.762   5.004   0.181 -0.5999  1.2515  1.4899
 8966SOL    HW237368   9.905   5.067   0.229 -0.5602  2.2996  0.0241
 8967SOL     OW37369   3.056   7.576   2.005  0.0356  0.7593  0.6940
 8967SOL    HW137370   3.139   7.628   1.980  1.6632 -1.9111  0.3151
 8967SOL    HW237371   3.072   7.527   2.090 -0.5979 -0.9614 -0.1518
 8968SOL     OW37372   8.863   4.627   3.993 -0.0339 -0.1115  0.7326
 8968SOL    HW137373   8.959   4.602   3.985 -0.2007 -0.9117  1.2538
 8968SOL    HW237374   8.851   4.689   4.071  0.4643  2.0863 -0.8742
 8969SOL     OW37375   2.448   1.122   0.306  0.0468 -0.2080 -0.0514
 8969SOL    HW137376   2.521   1.169   0.355 -0.7103  0.5365  0.3730
 8969SOL    HW237377   2.360   1.143   0.348 -0.2996 -2.2484  0.3414
 8970SOL     OW37378   4.141   4.558   3.358 -0.4692 -0.0912 -0.1912
 8970SOL    HW137379   4.123   4.617   3.279  0.2815 -0.5478 -0.7024
 8970SOL    HW237380   4.183   4.473   3.328  1.4655  0.4530  0.8628
 8971SOL     OW37381   9.541   2.764   0.145 -0.3773  0.5236  0.0265
 8971SOL    HW137382   9.480   2.836   0.111  0.7032  2.1819  1.5497
 8971SOL    HW237383   9.506   2.730   0.232  0.0164  0.3461  0.1148
 8972SOL     OW37384   2.864   0.429   1.897  0.4804  0.1041  0.4830
 8972SOL    HW137385   2.851   0.528   1.889  1.1955  0.2052  0.5525
 8972SOL    HW237386   2.822   0.397   1.981  0.9587  0.4812  0.8688
 8973SOL     OW37387   3.848   7.430   3.426  0.5106  0.3955  0.1117
 8973SOL    HW137388   3.832   7.470   3.336  0.5043  0.9218  0.3410
 8973SOL    HW237389   3.762   7.429   3.477  0.5698  0.3495  0.2098
 8974SOL     OW37390   9.344   4.403   2.173 -0.2840 -0.3430  0.2809
 8974SOL    HW137391   9.294   4.410   2.259  0.3479 -0.2860  0.6479
 8974SOL    HW237392   9.427   4.349   2.187  0.5733  0.8943  0.0568
 8975SOL     OW37393   9.035   0.926   2.483 -0.0752  0.0046  0.3592
 8975SOL    HW137394   9.050   1.019   2.448  1.5050 -0.1912  0.5142
 8975SOL    HW237395   8.980   0.931   2.567  1.1163  0.8977  1.0937
 8976SOL     OW37396   7.317   3.654   3.861 -0.2621  0.3765 -0.5891
 8976SOL    HW137397   7.404   3.702   3.866 -1.0275  1.5791  1.9904
 8976SOL    HW237398   7.308   3.593   3.939 -1.9770  0.6727 -0.5347
 8977SOL     OW37399   3.224   8.278   3.708 -0.3898 -0.2075  0.7297
 8977SOL    HW137400   3.200   8.374   3.698  1.3958  0.0352 -1.7793
 8977SOL    HW237401   3.146   8.221   3.684 -0.0464  0.6012 -2.5531
 8978SOL     OW37402   7.511   9.562   3.513 -0.1185 -0.0080 -0.2665
 8978SOL    HW137403   7.479   9.554   3.418  1.6087 -1.2017 -0.7766
 8978SOL    HW237404   7.476   9.485   3.566 -0.4157  0.2141 -0.1422
 8979SOL     OW37405   3.684   2.612   2.829 -0.1302  0.6391 -0.0894
 8979SOL    HW137406   3.673   2.690   2.891 -1.3100  0.2497  0.2149
 8979SOL    HW237407   3.754   2.550   2.866 -0.6946  0.5026  0.7644
 8980SOL     OW37408   1.302   3.505   1.122 -0.3635 -0.2980  0.3990
 8980SOL    HW137409   1.215   3.458   1.141  0.0940 -1.3283 -0.0291
 8980SOL    HW237410   1.311   3.520   1.024  0.2205 -0.7614  0.3752
 8981SOL     OW37411   8.756   9.602   2.582  0.2792  0.4960  0.3543
 8981SOL    HW137412   8.720   9.536   2.649 -0.2285 -0.5695 -0.9384
 8981SOL    HW237413   8.827   9.557   2.528  1.1243  1.5448  0.5976
 8982SOL     OW37414   1.906   7.306   2.448  0.1353 -0.0875 -0.7093
 8982SOL    HW137415   1.838   7.277   2.514  1.3243  0.2944  0.7016
 8982SOL    HW237416   1.861   7.327   2.361 -1.6263  0.8583  0.3954
 8983SOL     OW37417   2.325   1.413   1.888  0.0165  0.1423 -0.4204
 8983SOL    HW137418   2.288   1.323   1.867  0.3755 -0.4092  1.2489
 8983SOL    HW237419   2.417   1.404   1.925  0.1641  1.2094 -0.5071
 8984SOL     OW37420   1.561   1.197   1.442 -0.7068 -0.4988 -0.3954
 8984SOL    HW137421   1.552   1.147   1.356 -0.3606 -2.4722  0.6923
 8984SOL    HW237422   1.654   1.186   1.478 -1.3806 -1.2211  1.1632
 8985SOL     OW37423   1.454   1.756   3.783  0.0390 -0.4590 -0.5023
 8985SOL    HW137424   1.421   1.671   3.823 -0.0971 -0.0608  0.2228
 8985SOL    HW237425   1.412   1.834   3.828  0.9711  0.0232 -0.4486
 8986SOL     OW37426   3.767   4.589   0.315 -0.1553  0.1196 -0.0556
 8986SOL    HW137427   3.740   4.685   0.324 -0.5604  0.2593 -2.4499
 8986SOL    HW237428   3.858   4.576   0.354  0.6744  1.8885 -1.3261
 8987SOL     OW37429   3.799   5.204   1.804 -0.1017 -0.1187 -0.0966
 8987SOL    HW137430   3.816   5.249   1.892 -0.6542 -0.0873 -0.0063
 8987SOL    HW237431   3.718   5.145   1.812  0.0225 -0.3401 -0.5005
 8988SOL     OW37432   2.183   0.815   1.232 -0.0798 -0.3189 -0.2937
 8988SOL    HW137433   2.156   0.845   1.140 -0.3551  0.7781  0.1393
 8988SOL    HW237434   2.198   0.895   1.290  2.1015 -0.9479  0.0534
 8989SOL     OW37435   4.827   2.533   2.492  0.5651 -0.4616 -0.2214
 8989SOL    HW137436   4.899   2.541   2.423 -1.9658  1.4620 -2.7690
 8989SOL    HW237437   4.766   2.457   2.468 -1.5928  1.5740 -1.4444
 8990SOL     OW37438   7.838   1.513   1.914  0.0156 -0.2432  1.0342
 8990SOL    HW137439   7.799   1.436   1.863 -0.0218  1.4022 -1.5139
 8990SOL    HW237440   7.821   1.598   1.864  1.3520  1.2659  3.0575
 8991SOL     OW37441   4.506   7.058   1.582  0.1838 -0.1204  0.1726
 8991SOL    HW137442   4.484   6.982   1.520 -3.2973  1.2671 -0.4225
 8991SOL    HW237443   4.597   7.092   1.561  0.1043 -1.3600 -2.4585
 8992SOL     OW37444   3.975   3.895   2.287  0.0785  0.4359 -0.0655
 8992SOL    HW137445   3.936   3.820   2.340  2.0202 -0.0418  0.7337
 8992SOL    HW237446   3.976   3.870   2.190 -0.2384 -0.1355  0.0745
 8993SOL     OW37447   1.466   3.500   1.564  0.5775 -0.5432  0.0118
 8993SOL    HW137448   1.399   3.572   1.548 -0.2138 -0.9628  1.4003
 8993SOL    HW237449   1.546   3.516   1.506  0.2961  1.2753  0.1005
 8994SOL     OW37450   0.511   2.237   3.750  0.7534 -0.0813  0.1948
 8994SOL    HW137451   0.492   2.155   3.696 -0.8121 -1.1597  2.3156
 8994SOL    HW237452   0.610   2.247   3.760  0.9606 -1.9360  0.2138
 8995SOL     OW37453   2.166   8.902   1.776 -0.3694  0.0156  0.2033
 8995SOL    HW137454   2.176   8.991   1.820  0.4625  0.4126 -0.7850
 8995SOL    HW237455   2.252   8.851   1.784  0.0471  0.3979 -1.6265
 8996SOL     OW37456   7.961   0.912   0.038  0.0889  0.2802 -0.2023
 8996SOL    HW137457   7.997   0.902  -0.055  1.5474 -0.1684  0.4115
 8996SOL    HW237458   8.026   0.961   0.095  0.4541 -1.9139  1.3241
 8997SOL     OW37459   3.707   1.469   2.453  0.7473  0.5275  0.2953
 8997SOL    HW137460   3.627   1.480   2.393 -0.3496 -0.8506  1.4680
 8997SOL    HW237461   3.744   1.559   2.475 -2.6058  1.4696  2.5224
 8998SOL     OW37462   0.145   1.641   0.237  0.0155 -0.2231  0.2103
 8998SOL    HW137463   0.104   1.647   0.146 -0.7171 -1.3139  0.4605
 8998SOL    HW237464   0.075   1.653   0.307  0.2755 -1.1229  0.6362
 8999SOL     OW37465   2.587   8.601   3.938 -0.9312  0.6313  0.0110
 8999SOL    HW137466   2.499   8.561   3.963 -0.3822 -0.3007  0.4945
 8999SOL    HW237467   2.588   8.620   3.840 -0.8915 -1.4213 -0.4237
 9000SOL     OW37468   2.249   4.121   0.243  0.0500  0.1061  0.0262
 9000SOL    HW137469   2.348   4.113   0.237 -0.1564 -0.9877 -2.3522
 9000SOL    HW237470   2.206   4.051   0.185 -2.0828  2.0055 -0.7420
 9001SOL     OW37471   2.534   5.178   1.190 -0.3832 -0.4799  0.1335
 9001SOL    HW137472   2.627   5.160   1.222 -0.0223  1.7252  0.4196
 9001SOL    HW237473   2.482   5.093   1.187  0.9402 -1.3794  2.2222
 9002SOL     OW37474   1.628   6.003   2.124 -0.1221 -0.3313  0.1138
 9002SOL    HW137475   1.589   6.093   2.143  2.5625  1.2523 -1.4867
 9002SOL    HW237476   1.699   5.983   2.190  1.1694 -0.0134 -1.1485
 9003SOL     OW37477   2.467   5.595   2.855 -0.1805 -0.2051 -0.2955
 9003SOL    HW137478   2.461   5.567   2.951  0.3974  1.1456  0.1524
 9003SOL    HW237479   2.563   5.611   2.831 -0.4686  1.3025 -0.5327
 9004SOL     OW37480   1.256   0.446   2.026  0.4400 -0.0708  0.2540
 9004SOL    HW137481   1.168   0.482   1.996  0.4195 -1.6890 -1.7066
 9004SOL    HW237482   1.245   0.401   2.115 -0.6675 -0.1266  0.0963
 9005SOL     OW37483   1.104   9.821   1.499 -0.4476  0.2787  0.0966
 9005SOL    HW137484   1.142   9.756   1.433  0.1974  0.2020  0.5320
 9005SOL    HW237485   1.082   9.773   1.584  2.2219  0.9912  1.2638
 9006SOL     OW37486   9.170   2.655   0.054  0.3928  0.5161 -0.0884
 9006SOL    HW137487   9.202   2.658   0.149  0.6201  0.8910 -0.1778
 9006SOL    HW237488   9.234   2.602  -0.001  0.3245  0.4007 -0.0576
 9007SOL     OW37489   0.551   4.460   3.159  0.8475  0.1230 -0.2585
 9007SOL    HW137490   0.493   4.532   3.120 -0.1407 -0.1234  0.7341
 9007SOL    HW237491   0.537   4.456   3.258  1.9368 -0.5083 -0.1233
 9008SOL     OW37492   1.070   2.133   3.821  0.2597 -0.0308  0.3536
 9008SOL    HW137493   0.991   2.101   3.873 -0.3642 -2.0013 -1.7340
 9008SOL    HW237494   1.040   2.203   3.756  0.5216  0.3754  0.6708
 9009SOL     OW37495   4.031   1.511   1.971  0.4504  0.1371 -0.0476
 9009SOL    HW137496   3.957   1.577   1.960  1.0152  0.7468 -0.2490
 9009SOL    HW237497   4.080   1.530   2.056  0.7679  0.1263 -0.2300
 9010SOL     OW37498   2.116   5.194   3.007 -0.4223 -0.3325  0.0899
 9010SOL    HW137499   2.194   5.235   2.961  0.0448  1.1082  2.1062
 9010SOL    HW237500   2.032   5.221   2.960  0.1550 -0.2217 -0.8849
 9011SOL     OW37501   4.959   2.233   1.748  0.3035 -0.4158 -0.4113
 9011SOL    HW137502   4.928   2.327   1.733  1.2826 -0.1454 -0.7787
 9011SOL    HW237503   4.969   2.217   1.847  0.6637  0.0434 -0.3716
 9012SOL     OW37504   9.323   8.405   0.772  0.0699 -0.3310  0.2185
 9012SOL    HW137505   9.224   8.403   0.765  0.0006  0.2020  1.0527
 9012SOL    HW237506   9.350   8.425   0.866  0.9827 -2.4408  0.4295
 9013SOL     OW37507   3.754   9.360   2.397 -0.7193 -0.0912  0.4165
 9013SOL    HW137508   3.756   9.262   2.414 -1.6400 -0.0453  0.8217
 9013SOL    HW237509   3.832   9.403   2.443  0.4837 -0.8012 -0.9305
 9014SOL     OW37510   0.204   3.291   0.675  0.0129 -0.1744 -0.1748
 9014SOL    HW137511   0.216   3.226   0.599 -0.2983 -1.3137  0.7332
 9014SOL    HW237512   0.123   3.266   0.728  1.7816 -1.0834  2.1943
 9015SOL     OW37513   9.851   7.553   2.008 -0.0709  0.3338  0.2406
 9015SOL    HW137514   9.814   7.646   2.009 -0.0430  0.3421  1.2979
 9015SOL    HW237515   9.825   7.507   2.093  1.3220 -0.0715  0.4447
 9016SOL     OW37516   0.343   2.193   0.169  0.6311 -0.2948 -0.2105
 9016SOL    HW137517   0.371   2.231   0.080 -1.1790 -0.4404 -0.8664
 9016SOL    HW237518   0.344   2.093   0.164  0.0714 -0.2987 -0.2123
 9017SOL     OW37519   8.523   6.542   0.606 -0.2577  0.0106  0.1565
 9017SOL    HW137520   8.557   6.455   0.641 -0.5154  0.3533  1.2662
 9017SOL    HW237521   8.578   6.617   0.643  0.2139  0.3148 -1.0990
 9018SOL     OW37522   9.558   6.346   0.392  0.2729 -0.1618  0.0995
 9018SOL    HW137523   9.592   6.426   0.441 -0.1111  0.3263 -0.4228
 9018SOL    HW237524   9.458   6.347   0.392  0.2639 -0.7937  0.3309
 9019SOL     OW37525   9.389   4.931   2.754  0.4208 -0.1564  0.2203
 9019SOL    HW137526   9.417   5.011   2.807  2.1144  0.7870 -1.9753
 9019SOL    HW237527   9.368   4.960   2.660  2.0945 -2.4281 -0.8958
 9020SOL     OW37528   7.698   0.609   0.465  0.3004  0.3558  1.1908
 9020SOL    HW137529   7.653   0.658   0.390  1.7838  0.4387  0.3244
 9020SOL    HW237530   7.732   0.521   0.431 -0.0465 -0.1246  2.0746
 9021SOL     OW37531   7.324   6.699   2.082 -0.8412  0.0337 -0.2375
 9021SOL    HW137532   7.340   6.661   1.991 -0.4674  2.1030 -1.0612
 9021SOL    HW237533   7.412   6.726   2.123 -1.0164 -0.7819  0.6888
 9022SOL     OW37534   9.824   7.456   1.624 -0.2196 -0.1683 -0.4976
 9022SOL    HW137535   9.784   7.548   1.626  1.5066  0.6254 -1.2921
 9022SOL    HW237536   9.791   7.407   1.543 -1.3333 -0.3638  0.0541
 9023SOL     OW37537   4.548   3.877   1.118 -0.0146 -0.2166  1.1932
 9023SOL    HW137538   4.480   3.816   1.078 -1.1118  0.5025  1.9412
 9023SOL    HW237539   4.543   3.966   1.073  0.2384 -0.0701  1.4552
 9024SOL     OW37540   8.071   5.053   0.233  0.0784  0.1960  0.3064
 9024SOL    HW137541   8.141   5.107   0.279  1.0400 -0.4453 -0.3997
 9024SOL    HW237542   8.086   4.956   0.251 -0.7301  0.0558  0.2796
 9025SOL     OW37543   1.167   9.863   0.866  0.5071  0.3386  0.2222
 9025SOL    HW137544   1.114   9.791   0.911  0.0359 -1.0138 -2.3464
 9025SOL    HW237545   1.259   9.828   0.845 -0.5944 -0.5993 -3.5167
 9026SOL     OW37546   9.897   6.732   3.938 -0.7008 -0.7140 -0.3468
 9026SOL    HW137547   9.860   6.790   4.010  0.3839 -1.5831  0.9244
 9026SOL    HW237548   9.843   6.744   3.855  0.1166  2.9040 -0.4535
 9027SOL     OW37549   1.487   4.059   2.532 -0.0204 -0.0435 -0.2639
 9027SOL    HW137550   1.562   4.118   2.503 -0.1497 -0.0706 -0.6622
 9027SOL    HW237551   1.475   3.986   2.465  1.3413 -1.6045  1.1478
 9028SOL     OW37552   3.959   7.634   1.273 -0.5747  0.3209 -0.4525
 9028SOL    HW137553   3.890   7.567   1.246 -0.4541  0.9635 -2.4305
 9028SOL    HW237554   3.915   7.708   1.324 -1.2602  0.4302 -1.1861
 9029SOL     OW37555   7.468   8.821   3.059  0.1826  0.0526 -0.3364
 9029SOL    HW137556   7.411   8.898   3.031  0.6449  0.3281 -0.5163
 9029SOL    HW237557   7.429   8.736   3.025  0.6662  0.3688 -1.7107
 9030SOL     OW37558   4.380   2.410   2.152  0.4911 -0.2021 -0.0622
 9030SOL    HW137559   4.384   2.494   2.099  0.5660  0.8308  1.5301
 9030SOL    HW237560   4.303   2.354   2.121 -0.1747  0.9335 -0.4682
 9031SOL     OW37561   0.017   5.311   0.812 -0.0740 -0.6134 -0.0899
 9031SOL    HW137562  -0.043   5.373   0.862 -0.6108 -0.6713 -0.6583
 9031SOL    HW237563  -0.002   5.317   0.714 -0.2651 -1.8234 -0.1343
 9032SOL     OW37564   0.737   7.090   3.672  0.1940  0.4191  0.5607
 9032SOL    HW137565   0.701   7.035   3.747 -0.7338  0.0781 -0.1238
 9032SOL    HW237566   0.812   7.040   3.627  0.7759  0.6433  1.2859
 9033SOL     OW37567   8.796   4.927   3.074  0.1428 -0.2970  0.2268
 9033SOL    HW137568   8.698   4.942   3.081  0.4660  2.0166  0.0040
 9033SOL    HW237569   8.844   4.980   3.144  1.2686 -1.1515  0.1344
 9034SOL     OW37570   4.162   0.263   2.315  0.2222 -0.1355 -0.4861
 9034SOL    HW137571   4.150   0.169   2.346  0.1434 -0.2763 -0.9375
 9034SOL    HW237572   4.072   0.305   2.298  0.0418  1.2335  3.2195
 9035SOL     OW37573   9.474   2.970   2.472 -0.3684  0.1236  0.4964
 9035SOL    HW137574   9.415   2.889   2.464 -0.5891  0.4028 -0.7114
 9035SOL    HW237575   9.459   3.013   2.561 -0.1603 -1.2313  1.1985
 9036SOL     OW37576   1.662   2.736   0.002 -0.0761  0.0117 -0.0798
 9036SOL    HW137577   1.696   2.702   0.090 -2.0381 -1.0932  0.2817
 9036SOL    HW237578   1.612   2.662  -0.045  0.8987  0.5995 -2.1036
 9037SOL     OW37579   2.527   4.298   2.192  0.0103 -0.3631 -0.1524
 9037SOL    HW137580   2.465   4.354   2.246  1.1187 -0.2240  1.0004
 9037SOL    HW237581   2.613   4.348   2.178 -0.1417 -0.5155 -1.7952
 9038SOL     OW37582   9.302   0.796   0.820  0.4038 -0.1920 -0.2834
 9038SOL    HW137583   9.255   0.882   0.801  0.4155  0.4717  2.4649
 9038SOL    HW237584   9.240   0.719   0.800 -1.2574  0.6209  1.5032
 9039SOL     OW37585   1.023   8.265   2.367 -0.0154 -0.2810 -0.1724
 9039SOL    HW137586   1.083   8.342   2.388 -0.2795 -0.3109  0.6985
 9039SOL    HW237587   0.967   8.244   2.447 -1.0694 -0.3607 -0.9323
 9040SOL     OW37588   2.606   8.608   0.813  0.4510  0.6359 -0.0492
 9040SOL    HW137589   2.545   8.587   0.737  0.8318  1.5266 -0.6177
 9040SOL    HW237590   2.616   8.708   0.820  1.6135  0.5034  0.2185
 9041SOL     OW37591   5.337   9.608   1.760  0.1759 -0.3249 -0.0472
 9041SOL    HW137592   5.396   9.584   1.837 -0.1014 -0.1786  0.2116
 9041SOL    HW237593   5.347   9.705   1.739 -1.4877  0.1776  1.3212
 9042SOL     OW37594   3.086   2.968   1.866  0.5529 -0.2754  0.0802
 9042SOL    HW137595   3.118   2.941   1.775 -2.3374  0.6839 -1.2941
 9042SOL    HW237596   3.107   3.065   1.881 -0.7101  0.0913 -0.4169
 9043SOL     OW37597   0.632   9.645   3.962  0.4797  0.3687  0.6876
 9043SOL    HW137598   0.570   9.722   3.945  0.6403  0.4591  0.5119
 9043SOL    HW237599   0.695   9.635   3.885  2.8965  2.3841  2.3074
 9044SOL     OW37600   1.680   6.405   1.957 -0.1286 -0.1325  0.0641
 9044SOL    HW137601   1.615   6.332   1.938  0.1397 -0.5373  0.6939
 9044SOL    HW237602   1.738   6.379   2.035  2.0685 -0.5854 -1.6813
 9045SOL     OW37603   1.410   2.262   1.667  0.7497  0.0730  0.2199
 9045SOL    HW137604   1.350   2.183   1.655 -0.2397  0.8486  0.0280
 9045SOL    HW237605   1.411   2.289   1.764 -0.5414  1.0927 -0.0395
 9046SOL     OW37606   4.076   0.068   0.113 -0.7540  0.2788 -0.5336
 9046SOL    HW137607   3.979   0.094   0.121 -1.3427 -1.1160 -2.7746
 9046SOL    HW237608   4.129   0.148   0.085 -1.1264  1.2072  1.2854
 9047SOL     OW37609   0.357   7.228   1.097 -0.3707 -0.2242 -0.1949
 9047SOL    HW137610   0.297   7.183   1.031  0.2619 -0.5069 -0.5945
 9047SOL    HW237611   0.433   7.271   1.048 -0.5764  0.6501  0.2502
 9048SOL     OW37612   1.645   1.752   1.053 -0.3894  0.4589  0.2344
 9048SOL    HW137613   1.651   1.705   1.142 -0.4235  0.8103  0.4236
 9048SOL    HW237614   1.621   1.686   0.982 -0.3307  0.1696  0.4832
 9049SOL     OW37615   0.829   4.813   1.413  0.1040 -0.0826  0.7691
 9049SOL    HW137616   0.925   4.786   1.404  0.5392  1.1577  1.5595
 9049SOL    HW237617   0.786   4.759   1.486  0.2276 -0.5754  0.4760
 9050SOL     OW37618   7.833   9.445   2.457 -0.2613  0.4963 -0.0123
 9050SOL    HW137619   7.769   9.375   2.490 -1.6956  1.3800 -0.8929
 9050SOL    HW237620   7.885   9.481   2.535  0.4953 -1.5281  0.4541
 9051SOL     OW37621   9.921   7.072   1.055 -1.0228  0.4597 -0.4663
 9051SOL    HW137622  10.017   7.096   1.068 -0.8382  0.0337 -1.0664
 9051SOL    HW237623   9.909   6.973   1.064 -1.0402  0.2454 -2.6157
 9052SOL     OW37624   0.916   1.179   0.026  0.3183  0.0396 -0.0507
 9052SOL    HW137625   0.837   1.147   0.079  0.8192 -0.9637  0.1158
 9052SOL    HW237626   0.885   1.214  -0.062 -0.3094 -0.4540 -0.0321
 9053SOL     OW37627   4.564   7.382   1.840 -0.2979 -0.2151 -0.1557
 9053SOL    HW137628   4.630   7.307   1.852  0.6351  0.4189 -1.3154
 9053SOL    HW237629   4.572   7.445   1.917 -0.8120 -1.0818  0.6264
 9054SOL     OW37630   7.552   9.714   0.632  0.0173  0.0685  0.1721
 9054SOL    HW137631   7.499   9.765   0.701 -0.2406 -0.1854  0.1624
 9054SOL    HW237632   7.517   9.734   0.541  0.6086  0.7021  0.0821
 9055SOL     OW37633   9.629   3.289   0.373 -0.0234  0.0142 -0.5214
 9055SOL    HW137634   9.616   3.197   0.408  1.8371 -1.4994 -3.6448
 9055SOL    HW237635   9.702   3.334   0.425  1.2943 -1.4623 -1.0525
 9056SOL     OW37636   4.163   4.077   0.136  0.3762 -0.2989  0.0031
 9056SOL    HW137637   4.132   4.048   0.227 -0.4567  0.9327  0.1351
 9056SOL    HW237638   4.099   4.044   0.067 -1.0852  1.8762  0.2358
 9057SOL     OW37639   0.677   3.692   2.701 -0.0485  0.3362 -0.0798
 9057SOL    HW137640   0.615   3.631   2.652 -0.3355  0.7928 -0.2873
 9057SOL    HW237641   0.630   3.730   2.781 -0.3082  1.3186 -0.6910
 9058SOL     OW37642   2.099   3.330   3.413 -0.7875  0.1347  0.3500
 9058SOL    HW137643   2.180   3.271   3.418 -0.7719  0.1198 -0.0466
 9058SOL    HW237644   2.118   3.417   3.459 -0.3273  0.3813 -0.2905
 9059SOL     OW37645   8.495   0.772   3.979  0.5218 -0.3893 -0.3328
 9059SOL    HW137646   8.577   0.738   3.932  0.8208 -1.2626  0.7908
 9059SOL    HW237647   8.422   0.784   3.912  2.1520  2.4023 -1.6963
 9060SOL     OW37648   5.491   8.658   2.717  0.3484 -0.3320 -0.2860
 9060SOL    HW137649   5.515   8.591   2.787  1.6852  0.5517  0.1279
 9060SOL    HW237650   5.568   8.671   2.655  0.0959  0.8001 -0.3740
 9061SOL     OW37651   8.341   4.591   0.575 -0.3548 -0.0944  0.2900
 9061SOL    HW137652   8.321   4.669   0.633  1.1989  0.3235  0.2890
 9061SOL    HW237653   8.271   4.584   0.504 -1.7783 -0.0987  1.6749
 9062SOL     OW37654   3.391   0.289   1.609  0.1267 -0.4937 -0.1452
 9062SOL    HW137655   3.464   0.298   1.677  0.4916 -1.3399 -0.4210
 9062SOL    HW237656   3.402   0.359   1.539  0.5368 -0.4720 -0.0612
 9063SOL     OW37657   2.080   8.669   1.871 -0.3215  0.0600 -0.3133
 9063SOL    HW137658   1.998   8.617   1.846 -0.9444  0.8421  0.0572
 9063SOL    HW237659   2.082   8.754   1.819  0.3419 -0.0318 -0.4315
 9064SOL     OW37660   3.150   2.429   2.809  0.2954  0.5533  0.0384
 9064SOL    HW137661   3.147   2.524   2.778 -0.1600  0.0034 -1.6892
 9064SOL    HW237662   3.218   2.378   2.756 -0.0417 -0.2681  0.3724
 9065SOL     OW37663   3.164   2.051   2.543 -0.3991 -0.4453 -0.5608
 9065SOL    HW137664   3.150   2.074   2.640  0.7762 -0.5099 -0.3589
 9065SOL    HW237665   3.095   1.985   2.514  0.3001 -1.7832  0.7367
 9066SOL     OW37666   0.598   6.726   1.954 -0.3770 -0.5627  0.1715
 9066SOL    HW137667   0.571   6.812   1.911 -1.7218 -0.7926  0.5132
 9066SOL    HW237668   0.567   6.650   1.897  0.5454 -0.8366  0.0218
 9067SOL     OW37669   2.250   8.223   2.531 -0.1685  0.1152 -0.0167
 9067SOL    HW137670   2.216   8.290   2.596 -0.3722 -0.7989  0.8272
 9067SOL    HW237671   2.220   8.131   2.558  1.0492 -0.4461 -0.5370
 9068SOL     OW37672   2.236   9.713   1.656 -0.1048 -0.0571 -0.4908
 9068SOL    HW137673   2.237   9.788   1.591  0.7559  0.1181 -0.2882
 9068SOL    HW237674   2.158   9.724   1.718 -0.6823 -0.0012 -1.2259
 9069SOL     OW37675   4.061   0.637   2.717  0.0205  0.8308 -0.3230
 9069SOL    HW137676   4.139   0.667   2.772  1.5273 -1.0516 -1.3473
 9069SOL    HW237677   4.058   0.537   2.716 -1.1785  0.8666 -1.9913
 9070SOL     OW37678   4.788   8.676   2.106  0.3148  0.6050  0.4120
 9070SOL    HW137679   4.867   8.690   2.046 -0.4681 -1.2861 -1.1138
 9070SOL    HW237680   4.820   8.658   2.199  1.6338  0.9826  0.0528
 9071SOL     OW37681   7.842   9.596   0.194 -0.5648 -0.1720  0.0319
 9071SOL    HW137682   7.881   9.682   0.161  1.1030 -1.0189 -0.2850
 9071SOL    HW237683   7.828   9.534   0.117  1.6397 -1.4792  0.6169
 9072SOL     OW37684   7.910   2.200   1.257 -0.0238  0.5836  0.5382
 9072SOL    HW137685   7.881   2.153   1.339 -0.7875 -1.5085 -0.8986
 9072SOL    HW237686   8.003   2.171   1.233  0.4263  1.6317  0.9608
 9073SOL     OW37687   2.614   6.970   2.138  0.4020  0.2296  0.4108
 9073SOL    HW137688   2.682   7.010   2.200  1.2761 -0.1208 -0.3060
 9073SOL    HW237689   2.608   7.026   2.056 -0.6935  0.6455  0.7719
 9074SOL     OW37690   0.398   4.274   2.876 -0.3005  0.2452  0.3629
 9074SOL    HW137691   0.486   4.263   2.922 -0.5458  1.5972  1.1975
 9074SOL    HW237692   0.405   4.348   2.809 -0.1720 -1.1773 -1.2071
 9075SOL     OW37693   0.440   3.132   2.991 -0.1385  0.2413  0.2884
 9075SOL    HW137694   0.494   3.145   2.908 -1.0380  0.5698 -0.2442
 9075SOL    HW237695   0.501   3.137   3.070  0.8956 -1.1805 -0.3974
 9076SOL     OW37696   4.312   1.588   2.532  0.4503 -0.2323 -0.1662
 9076SOL    HW137697   4.246   1.584   2.606  2.9209  2.0008  2.2436
 9076SOL    HW237698   4.350   1.497   2.516 -2.2396 -1.3097 -0.8006
 9077SOL     OW37699   1.550   4.273   2.302 -0.1049  0.4883 -0.4640
 9077SOL    HW137700   1.573   4.279   2.399  1.2116 -0.8299 -0.6730
 9077SOL    HW237701   1.507   4.358   2.272 -1.6520  0.4400  1.5604
 9078SOL     OW37702   2.180   5.141   0.833 -0.1926  0.5069  0.1690
 9078SOL    HW137703   2.163   5.233   0.796 -0.4993  0.1184 -0.6600
 9078SOL    HW237704   2.121   5.075   0.788 -0.4720 -0.0050  1.2638
 9079SOL     OW37705   2.104   8.492   3.375  0.2695 -0.0485  0.3280
 9079SOL    HW137706   2.118   8.400   3.412 -0.2348 -0.4867 -0.5318
 9079SOL    HW237707   2.145   8.498   3.284 -0.4788  0.2862  0.0027
 9080SOL     OW37708   7.977   1.159   2.886 -0.3101 -0.2467  0.6522
 9080SOL    HW137709   8.008   1.136   2.794 -1.8247 -0.8127  0.2772
 9080SOL    HW237710   8.056   1.188   2.941  0.9311 -1.8494 -0.2278
 9081SOL     OW37711   4.975   9.636   2.424  0.1767 -0.1863 -0.3931
 9081SOL    HW137712   5.009   9.695   2.497 -1.7269  0.1707  0.2400
 9081SOL    HW237713   4.942   9.693   2.349 -0.6048 -0.4731 -0.2684
 9082SOL     OW37714   2.196   3.319   1.997  0.0799  0.5736 -0.2314
 9082SOL    HW137715   2.192   3.380   2.077  1.4581  0.0469  0.2516
 9082SOL    HW237716   2.247   3.236   2.021  1.0346  0.6798 -1.8306
 9083SOL     OW37717   9.159   5.268   2.141 -0.2110  0.5577  0.4496
 9083SOL    HW137718   9.125   5.186   2.094  0.1862  0.0582  1.0228
 9083SOL    HW237719   9.259   5.267   2.141 -0.2071  0.9056  0.7035
 9084SOL     OW37720   4.375   1.637   1.256  0.5151 -0.0252 -0.1861
 9084SOL    HW137721   4.331   1.548   1.263  0.9169 -0.5105 -3.3498
 9084SOL    HW237722   4.311   1.703   1.217  0.8943  0.5745  0.1921
 9085SOL     OW37723   8.419   4.558   2.418  0.2804 -0.0314  0.7370
 9085SOL    HW137724   8.352   4.486   2.440 -1.9964  1.7017 -0.3095
 9085SOL    HW237725   8.378   4.647   2.435  2.4957  1.0687  0.4083
 9086SOL     OW37726   9.417   0.888   2.769  0.1246  0.8166  0.1599
 9086SOL    HW137727   9.470   0.816   2.724 -1.7266  0.7593 -2.0323
 9086SOL    HW237728   9.321   0.860   2.774 -0.6150  3.0764 -0.6893
 9087SOL     OW37729   1.162   3.194   2.470 -0.0819  0.6693  0.2088
 9087SOL    HW137730   1.104   3.248   2.532  0.3552  1.5844 -0.1591
 9087SOL    HW237731   1.217   3.257   2.415  0.8282 -0.1881  0.1500
 9088SOL     OW37732   4.375   8.654   0.523 -0.0012 -0.4681  0.5565
 9088SOL    HW137733   4.311   8.723   0.491 -0.2786 -0.1305  1.7970
 9088SOL    HW237734   4.349   8.564   0.488 -1.3285 -0.3749  1.2812
 9089SOL     OW37735   9.523   6.083   1.453 -0.0225 -0.1799  0.2785
 9089SOL    HW137736   9.611   6.064   1.498  0.0337 -1.0548 -0.1774
 9089SOL    HW237737   9.489   5.998   1.412 -1.4036  0.0265  1.0065
 9090SOL     OW37738   3.126   8.784   3.156  0.2087  0.2300 -0.5062
 9090SOL    HW137739   3.224   8.797   3.168  0.3776  1.3097 -2.7790
 9090SOL    HW237740   3.081   8.873   3.148 -0.7000 -0.2837 -1.3057
 9091SOL     OW37741   8.755   9.048   0.750 -0.0271 -0.4370 -0.2172
 9091SOL    HW137742   8.678   9.062   0.689 -0.0489  1.0032  0.1145
 9091SOL    HW237743   8.745   9.107   0.831  1.4385 -0.1930 -0.1924
 9092SOL     OW37744   9.910   5.467   2.170 -0.3842  0.3748  0.4294
 9092SOL    HW137745   9.883   5.382   2.214  0.7161 -0.5622 -0.6589
 9092SOL    HW237746   9.837   5.535   2.180 -0.9342 -0.4299  1.9970
 9093SOL     OW37747   0.072   2.152   0.333  0.3371  0.1441 -0.0417
 9093SOL    HW137748   0.027   2.068   0.301  1.9315 -0.3024 -1.1903
 9093SOL    HW237749   0.136   2.184   0.263  1.1910  1.2222  1.2130
 9094SOL     OW37750   2.972   6.060   0.193  0.4345  0.1538 -0.3866
 9094SOL    HW137751   2.891   6.034   0.246  0.2698  2.1024  0.3646
 9094SOL    HW237752   2.943   6.086   0.100  0.4043 -0.7001 -0.6213
 9095SOL     OW37753   1.876   6.630   2.386 -0.2382  0.4195 -0.1997
 9095SOL    HW137754   1.831   6.683   2.313 -0.8902 -0.8148 -0.7132
 9095SOL    HW237755   1.854   6.671   2.474  0.2206  1.6922 -0.6578
 9096SOL     OW37756   1.535   1.084   3.558  0.2871  0.0618  0.1595
 9096SOL    HW137757   1.472   1.148   3.514 -0.8431 -2.0875 -1.4523
 9096SOL    HW237758   1.607   1.058   3.493  0.6055 -0.4784  0.7164
 9097SOL     OW37759   0.578   2.518   3.768  0.1001 -0.1086 -0.0127
 9097SOL    HW137760   0.630   2.509   3.853  0.2575  0.8406 -0.0048
 9097SOL    HW237761   0.530   2.432   3.749  0.1718 -0.3682  0.9634
 9098SOL     OW37762   8.491   8.169   2.992  0.2590  0.6445  0.0314
 9098SOL    HW137763   8.562   8.200   3.055  0.0816  1.8436 -0.3591
 9098SOL    HW237764   8.404   8.163   3.040  0.1086  1.6296 -0.1147
 9099SOL     OW37765   0.447   5.914   2.634 -0.0550 -0.8768 -0.1054
 9099SOL    HW137766   0.365   5.972   2.633 -0.9275 -2.0772  0.6080
 9099SOL    HW237767   0.493   5.925   2.721 -1.2234 -2.6076  0.7591
 9100SOL     OW37768   2.493   0.569   3.855  0.7343 -0.6494 -0.3438
 9100SOL    HW137769   2.546   0.492   3.891 -2.2225 -2.9180 -0.6701
 9100SOL    HW237770   2.448   0.617   3.931  1.2256 -0.2443 -0.3014
 9101SOL     OW37771   2.482   1.537   2.864 -0.1500 -0.3804 -0.3276
 9101SOL    HW137772   2.477   1.637   2.868 -1.6621 -0.5082  1.3065
 9101SOL    HW237773   2.489   1.500   2.956 -0.0218 -1.8182 -0.8966
 9102SOL     OW37774   2.800   7.978   1.219 -0.1163 -0.2568  0.0737
 9102SOL    HW137775   2.709   7.995   1.180 -0.6185 -0.6695  1.0506
 9102SOL    HW237776   2.850   7.915   1.159 -0.2252  0.4685 -0.8008
 9103SOL     OW37777   3.300   2.241   1.711  0.3536 -0.6010  0.0366
 9103SOL    HW137778   3.327   2.300   1.635 -1.2590  1.0208  0.6811
 9103SOL    HW237779   3.206   2.263   1.738 -0.0951 -3.1379  0.6310
 9104SOL     OW37780   2.622   7.099   1.890 -0.3001  0.0720  0.4961
 9104SOL    HW137781   2.576   7.179   1.850  0.2586 -0.6826 -1.7162
 9104SOL    HW237782   2.718   7.121   1.906  0.1522 -0.5437 -1.3000
 9105SOL     OW37783   1.273   4.913   1.203  0.2921 -0.3354  0.3789
 9105SOL    HW137784   1.272   5.008   1.234  1.4432  0.0866 -0.8239
 9105SOL    HW237785   1.365   4.875   1.213  0.8537 -0.0120 -2.9011
 9106SOL     OW37786   5.200   8.510   3.611 -0.0652  0.1767  0.7571
 9106SOL    HW137787   5.280   8.485   3.558 -0.5420  0.8393 -0.2871
 9106SOL    HW237788   5.199   8.458   3.696  0.8729 -0.6517  0.2685
 9107SOL     OW37789   8.894   5.030   0.744  0.5461 -0.0012 -0.0150
 9107SOL    HW137790   8.822   4.984   0.693 -0.9883 -0.3970  2.4037
 9107SOL    HW237791   8.958   4.962   0.780 -0.5314 -0.0978  1.7739
 9108SOL     OW37792   4.050   0.037   3.823 -0.1447  0.5345 -0.4621
 9108SOL    HW137793   3.976   0.059   3.759 -0.8428  1.9031  0.7818
 9108SOL    HW237794   4.133   0.015   3.772 -0.7152  1.5117 -1.8337
 9109SOL     OW37795   9.900   1.617   0.770  0.4604 -0.3144  0.7804
 9109SOL    HW137796   9.898   1.517   0.772  0.3226 -0.3025  1.2494
 9109SOL    HW237797   9.924   1.652   0.861 -0.8109  0.1068  0.9578
 9110SOL     OW37798   8.332   9.088   3.082  0.1957 -0.6086  0.1388
 9110SOL    HW137799   8.368   9.168   3.032 -0.8509  1.4598  2.6017
 9110SOL    HW237800   8.319   9.112   3.178 -0.9745 -3.5196  0.7492
 9111SOL     OW37801   7.696   2.155   1.070  0.1337 -0.0572 -0.0204
 9111SOL    HW137802   7.753   2.176   1.150 -0.2683  0.5053  0.1175
 9111SOL    HW237803   7.603   2.189   1.085  0.3749  1.1698 -1.2500
 9112SOL     OW37804   3.289   5.761   0.228 -0.2674 -0.6235 -0.1870
 9112SOL    HW137805   3.216   5.774   0.161 -1.5599  0.6089  1.4144
 9112SOL    HW237806   3.325   5.668   0.219 -1.0505 -0.7921 -1.9514
 9113SOL     OW37807   4.086   3.834   1.569 -0.3196 -0.1203 -0.5268
 9113SOL    HW137808   4.015   3.766   1.549 -1.6256  1.1090 -0.1817
 9113SOL    HW237809   4.072   3.871   1.661  1.9024 -1.2002  0.2842
 9114SOL     OW37810   3.755   8.391   2.326  0.3310 -0.1071 -0.8663
 9114SOL    HW137811   3.834   8.338   2.293  0.6102 -0.2985  0.1010
 9114SOL    HW237812   3.786   8.482   2.356  0.4821 -0.8245  1.2188
 9115SOL     OW37813   0.069   5.476   0.146 -0.4092 -0.2365 -0.3199
 9115SOL    HW137814   0.133   5.471   0.069 -1.2732 -0.2585 -1.0351
 9115SOL    HW237815  -0.015   5.428   0.123 -0.4876 -0.6611  0.8298
 9116SOL     OW37816   1.417   0.017   0.681  0.6563  0.3316  0.3059
 9116SOL    HW137817   1.329   0.017   0.634  0.1017 -0.9695  1.3395
 9116SOL    HW237818   1.490  -0.002   0.615  0.1450  1.0722 -0.4873
 9117SOL     OW37819   3.934   7.469   0.918  0.4554  0.1577 -0.5530
 9117SOL    HW137820   4.030   7.451   0.939  0.3824 -0.0617 -0.3945
 9117SOL    HW237821   3.902   7.401   0.852 -0.5507 -1.9893  2.0479
 9118SOL     OW37822   0.666   1.958   2.400 -0.3099  0.4947 -0.4966
 9118SOL    HW137823   0.703   2.006   2.480 -1.9885  1.0851 -0.0434
 9118SOL    HW237824   0.627   2.025   2.336  0.0310 -0.0514 -1.2834
 9119SOL     OW37825   2.100   7.123   0.159 -0.2408 -0.2854  0.0625
 9119SOL    HW137826   2.004   7.098   0.175 -0.5315  1.4750  1.1903
 9119SOL    HW237827   2.129   7.190   0.227  1.8742 -0.9528 -0.1375
 9120SOL     OW37828   2.484   7.552   2.604  0.4339  0.7753  0.4267
 9120SOL    HW137829   2.452   7.599   2.522  0.8717 -0.5421 -0.4952
 9120SOL    HW237830   2.563   7.601   2.641  1.5113  0.2216 -1.0973
 9121SOL     OW37831   2.918   6.702   1.869 -0.1212  0.0323 -0.1179
 9121SOL    HW137832   2.876   6.637   1.805 -0.0382  0.3966 -0.5456
 9121SOL    HW237833   2.878   6.793   1.855  0.4933  0.2852 -0.2212
 9122SOL     OW37834   2.188   5.097   1.180 -0.4111  0.1544  0.7493
 9122SOL    HW137835   2.261   5.028   1.175  0.8475  1.3674  1.8861
 9122SOL    HW237836   2.213   5.176   1.124 -0.4686  0.9247  1.7997
 9123SOL     OW37837   9.321   6.156   0.117  0.5726 -0.3810  0.3894
 9123SOL    HW137838   9.318   6.235   0.179 -0.1072  0.2099 -0.3801
 9123SOL    HW237839   9.391   6.092   0.148 -0.2865 -0.4684  2.2004
 9124SOL     OW37840   1.803   2.109   3.505 -0.8427  0.1349 -0.4163
 9124SOL    HW137841   1.902   2.123   3.495 -0.6784 -0.5093  0.2454
 9124SOL    HW237842   1.782   2.013   3.491 -1.2417  0.0961  0.4054
 9125SOL     OW37843   3.625   2.321   2.161  0.6863  0.3554  0.3171
 9125SOL    HW137844   3.590   2.318   2.068 -0.0387 -1.4225  0.6222
 9125SOL    HW237845   3.549   2.326   2.225  1.2056  2.5985  0.8058
 9126SOL     OW37846   8.762   7.553   3.136  0.8028 -0.1115 -0.0412
 9126SOL    HW137847   8.734   7.643   3.102 -0.4804 -0.7312 -0.6293
 9126SOL    HW237848   8.682   7.494   3.146  1.6083 -1.1118  0.5908
 9127SOL     OW37849   0.880   0.605   0.157  0.0749  0.0711  0.3527
 9127SOL    HW137850   0.784   0.605   0.186  0.0414 -0.0390  0.2411
 9127SOL    HW237851   0.931   0.670   0.214 -0.0315  0.0086  0.5219
 9128SOL     OW37852   4.285   3.070   0.127 -0.1788  0.3171 -0.1008
 9128SOL    HW137853   4.316   3.147   0.071  0.3430  0.3066  0.1703
 9128SOL    HW237854   4.222   3.013   0.073  0.2857  0.3301 -0.6674
 9129SOL     OW37855   3.781   1.467   1.064  0.3678 -0.0284 -0.0946
 9129SOL    HW137856   3.826   1.379   1.081  0.0559 -0.0411  0.6951
 9129SOL    HW237857   3.729   1.494   1.145 -0.3758  0.3850 -0.6989
 9130SOL     OW37858   9.050   5.601   0.611 -0.0999  0.2217 -0.2341
 9130SOL    HW137859   9.071   5.524   0.551 -0.6154  1.2347 -1.7299
 9130SOL    HW237860   9.075   5.686   0.566 -3.1167  1.1680 -0.1899
 9131SOL     OW37861   4.219   0.507   1.242  0.0280  0.0830 -0.2359
 9131SOL    HW137862   4.179   0.592   1.275 -1.2573 -0.2325 -0.9338
 9131SOL    HW237863   4.237   0.515   1.144  0.1652 -0.3456 -0.2464
 9132SOL     OW37864   8.605   4.623   3.060 -0.7966  0.5465 -0.5277
 9132SOL    HW137865   8.702   4.627   3.035 -0.8012  0.7994 -0.5036
 9132SOL    HW237866   8.563   4.712   3.045 -1.3698  0.0512 -1.9650
 9133SOL     OW37867   2.311   3.643   2.854 -0.2359  0.4815 -0.4031
 9133SOL    HW137868   2.217   3.624   2.829  0.6714 -2.7554 -1.5774
 9133SOL    HW237869   2.327   3.615   2.949 -1.0300  3.2906  0.6099
 9134SOL     OW37870   1.791   7.459   3.377 -0.0708  0.3710  0.1642
 9134SOL    HW137871   1.872   7.406   3.354 -1.2124 -1.7176  0.8247
 9134SOL    HW237872   1.799   7.550   3.337  3.4140  0.8442  1.7708
 9135SOL     OW37873   2.135   2.732   3.069 -0.5881 -0.2067  0.0355
 9135SOL    HW137874   2.099   2.790   2.997  0.3919  0.5278  0.1353
 9135SOL    HW237875   2.221   2.690   3.039  0.6585  1.3407  1.3262
 9136SOL     OW37876   4.143   3.505   1.857  0.1866  0.1650 -0.1517
 9136SOL    HW137877   4.210   3.512   1.931 -0.6533  1.5789  0.5106
 9136SOL    HW237878   4.188   3.525   1.770  0.7371  0.6154  0.2290
 9137SOL     OW37879   0.103   4.575   0.025  0.5345  0.0218 -0.2368
 9137SOL    HW137880   0.152   4.615   0.103 -0.2614  0.3100  0.1142
 9137SOL    HW237881   0.106   4.475   0.033 -1.0345  0.0498  1.1185
 9138SOL     OW37882   2.374   6.428   0.306 -0.1441  0.1848  0.7367
 9138SOL    HW137883   2.364   6.455   0.211 -1.0109  1.8795  1.2914
 9138SOL    HW237884   2.284   6.414   0.347  0.2142 -5.9115 -0.1151
 9139SOL     OW37885   4.444   0.425   1.390 -1.1053  0.4102  0.4198
 9139SOL    HW137886   4.516   0.490   1.365 -0.4738 -0.6192 -0.4580
 9139SOL    HW237887   4.357   0.453   1.348 -0.6715  0.2818 -0.5763
 9140SOL     OW37888   0.199   4.221   3.373 -0.9871 -0.2474 -0.4713
 9140SOL    HW137889   0.137   4.193   3.300 -0.0001 -2.2167 -0.6117
 9140SOL    HW237890   0.267   4.148   3.388  0.6141  1.3881  0.4008
 9141SOL     OW37891   3.921   1.728   1.182  1.1795 -0.0453 -0.7362
 9141SOL    HW137892   3.919   1.792   1.105 -0.3293  1.3296  0.4030
 9141SOL    HW237893   3.902   1.636   1.150  2.2457  0.2288 -2.2431
 9142SOL     OW37894   5.273   9.109   1.817 -0.7153  0.6803  0.6013
 9142SOL    HW137895   5.279   9.208   1.820  0.0198  0.6459  0.5761
 9142SOL    HW237896   5.365   9.070   1.827 -1.2484 -0.0629  2.9999
 9143SOL     OW37897   5.802   8.465   2.817 -0.2444 -0.2613  0.2131
 9143SOL    HW137898   5.843   8.378   2.790  0.9017  0.4262 -0.3005
 9143SOL    HW237899   5.813   8.531   2.743 -0.4380  0.5411  0.8983
 9144SOL     OW37900   4.666   9.294   2.516 -0.4928  0.1143  0.1547
 9144SOL    HW137901   4.586   9.234   2.515 -0.6729  0.3618 -0.4454
 9144SOL    HW237902   4.741   9.249   2.563 -0.5080 -0.7311 -0.6247
 9145SOL     OW37903   1.461   0.527   1.860  0.4668 -0.4080  0.0714
 9145SOL    HW137904   1.418   0.472   1.931  0.1324  0.1443  0.2954
 9145SOL    HW237905   1.420   0.505   1.771 -0.4103  0.2449  0.3086
 9146SOL     OW37906   8.693   9.118   1.019  0.2040 -0.1736 -0.0413
 9146SOL    HW137907   8.757   9.187   1.053  1.3953 -0.9233 -0.7135
 9146SOL    HW237908   8.691   9.041   1.083  1.0254 -0.7544 -0.7003
 9147SOL     OW37909   3.235   9.755   1.671 -0.6061 -0.1506  0.4617
 9147SOL    HW137910   3.138   9.764   1.694 -0.5972 -0.5782  0.6688
 9147SOL    HW237911   3.260   9.658   1.672  0.0363  0.0223  1.2438
 9148SOL     OW37912   1.833   6.811   2.603 -0.0018  0.0393 -0.0373
 9148SOL    HW137913   1.865   6.883   2.541  2.0046 -1.7061 -1.0889
 9148SOL    HW237914   1.897   6.800   2.679 -0.3549 -0.5618  0.1815
 9149SOL     OW37915   0.116   9.001   3.458 -0.1022  1.2139 -0.1323
 9149SOL    HW137916   0.098   9.072   3.525 -3.1522 -0.1987  0.5955
 9149SOL    HW237917   0.177   8.932   3.498 -2.4225  0.0318  1.5061
 9150SOL     OW37918   8.086   0.094   3.727 -0.2932  0.8826  0.1002
 9150SOL    HW137919   8.152   0.043   3.671  0.0107  1.5048 -0.1189
 9150SOL    HW237920   8.104   0.078   3.824 -0.0193  0.7955  0.0350
 9151SOL     OW37921   9.217   2.891   3.043 -0.2520  0.3079  0.5590
 9151SOL    HW137922   9.158   2.937   2.977 -3.4280 -3.4662  0.5541
 9151SOL    HW237923   9.290   2.843   2.995 -1.0004 -0.2844  0.0121
 9152SOL     OW37924   2.048   0.799   0.644  0.0523  0.5220 -0.3958
 9152SOL    HW137925   2.095   0.825   0.728  1.0392  0.4098 -0.8972
 9152SOL    HW237926   2.051   0.876   0.579  0.8127  0.0232 -0.9650
 9153SOL     OW37927   1.066   1.955   2.253  0.4901  0.3209 -0.1746
 9153SOL    HW137928   1.002   2.017   2.208 -0.8427 -0.0998  1.0932
 9153SOL    HW237929   1.080   1.874   2.195  1.1302  1.1476 -1.1833
 9154SOL     OW37930   8.130   1.462   1.846 -0.1391 -0.0849 -0.3953
 9154SOL    HW137931   8.140   1.553   1.886 -0.2348 -0.3125  0.1522
 9154SOL    HW237932   8.054   1.462   1.781 -0.4445  0.1006 -0.0366
 9155SOL     OW37933   9.413   4.994   3.117 -0.8444 -0.1578 -0.7429
 9155SOL    HW137934   9.353   4.914   3.115 -0.7871 -0.2020 -0.6617
 9155SOL    HW237935   9.500   4.970   3.161 -0.3390 -0.3906 -1.8543
 9156SOL     OW37936   0.244   1.452   2.339 -0.3478  0.2662  0.9164
 9156SOL    HW137937   0.265   1.354   2.340 -0.3422  0.2196 -1.8540
 9156SOL    HW237938   0.280   1.494   2.422  0.2360 -1.9483  1.8311
 9157SOL     OW37939   3.204   5.414   1.274  0.1595 -0.3771  0.5676
 9157SOL    HW137940   3.202   5.459   1.363 -1.7488  1.2379 -0.2524
 9157SOL    HW237941   3.279   5.450   1.219 -0.0212  0.2268  0.7184
 9158SOL     OW37942   1.698   7.211   3.760  0.1478 -0.8057 -0.0471
 9158SOL    HW137943   1.733   7.127   3.802 -1.1441 -0.7149  1.2294
 9158SOL    HW237944   1.700   7.201   3.660 -0.0821 -2.4068  0.0888
 9159SOL     OW37945   8.362   3.211   2.153 -0.2256  0.4923  0.0862
 9159SOL    HW137946   8.423   3.264   2.095 -0.9623  1.2890  0.0135
 9159SOL    HW237947   8.306   3.151   2.097  0.3191 -0.0597  0.1317
 9160SOL     OW37948   0.360   3.700   3.090 -0.2419  0.2049 -0.1588
 9160SOL    HW137949   0.438   3.661   3.042  0.1678  0.3881  0.3496
 9160SOL    HW237950   0.288   3.631   3.099  0.0658 -0.1180 -0.1718
 9161SOL     OW37951   8.887   0.866   0.826  0.3789 -0.5064  0.2363
 9161SOL    HW137952   8.934   0.829   0.907 -1.4783 -3.7048 -0.0525
 9161SOL    HW237953   8.931   0.830   0.743 -1.9400 -2.8779 -0.0431
 9162SOL     OW37954   3.420   9.125   1.134  0.6667  0.3243  0.7410
 9162SOL    HW137955   3.328   9.165   1.128  1.0670  1.0026 -1.0221
 9162SOL    HW237956   3.433   9.060   1.059  1.5955  0.1474  1.0513
 9163SOL     OW37957   8.816   2.049   2.062  0.1478 -0.2506 -0.0212
 9163SOL    HW137958   8.895   2.000   2.025 -0.4536 -0.0281 -1.6145
 9163SOL    HW237959   8.819   2.144   2.032 -0.6346 -0.1998  0.0601
 9164SOL     OW37960   0.511   5.691   3.498  0.0266 -0.4543 -0.8426
 9164SOL    HW137961   0.458   5.633   3.437  1.9529 -1.9282 -1.1474
 9164SOL    HW237962   0.512   5.784   3.462  0.6737 -1.1802 -2.7809
 9165SOL     OW37963   1.973   9.256   3.774 -0.0999 -0.4269  0.3235
 9165SOL    HW137964   1.882   9.230   3.741  0.7780 -3.0928 -0.1408
 9165SOL    HW237965   1.987   9.221   3.866  0.9565 -1.3175 -0.1502
 9166SOL     OW37966   2.148   0.424   0.211 -0.1175 -0.0446 -0.1534
 9166SOL    HW137967   2.119   0.492   0.279 -1.0189  0.3722 -0.9477
 9166SOL    HW237968   2.231   0.456   0.166  2.5764 -1.9571  3.2187
 9167SOL     OW37969   2.557   1.535   1.209 -0.2259 -0.1126  0.5120
 9167SOL    HW137970   2.582   1.497   1.120  0.0578  0.6768  0.2470
 9167SOL    HW237971   2.465   1.504   1.234 -0.9872  0.9747 -0.8264
 9168SOL     OW37972   1.471   9.504   1.193 -0.0486  0.3988 -0.4013
 9168SOL    HW137973   1.502   9.472   1.103 -0.9355  1.7249 -1.2077
 9168SOL    HW237974   1.532   9.576   1.226 -0.0713  0.3400 -0.2288
 9169SOL     OW37975   8.909   0.184   1.383  0.2134 -0.0014  0.3608
 9169SOL    HW137976   8.938   0.238   1.463  0.5607 -0.2918  0.4311
 9169SOL    HW237977   8.832   0.230   1.339  0.1198  0.2451  0.7708
 9170SOL     OW37978   8.821   1.754   1.983 -0.4092 -0.4361 -0.0497
 9170SOL    HW137979   8.919   1.761   2.005 -0.4802  2.9879 -0.4648
 9170SOL    HW237980   8.768   1.752   2.067 -0.0674 -0.3190  0.1717
 9171SOL     OW37981   7.988   9.996   2.886 -0.4231  0.3822 -0.0716
 9171SOL    HW137982   7.955  10.023   2.976 -1.8012  0.5434 -0.6135
 9171SOL    HW237983   7.931  10.038   2.815 -2.0590 -3.1387 -0.9567
 9172SOL     OW37984   9.843   8.713   4.044 -0.3024  0.1412 -0.3927
 9172SOL    HW137985   9.872   8.617   4.045 -1.6443 -0.3010 -1.6914
 9172SOL    HW237986   9.802   8.736   4.132 -2.0097 -1.1519 -0.8200
 9173SOL     OW37987   5.732   8.457   2.510 -0.4552 -1.1535 -0.4397
 9173SOL    HW137988   5.743   8.556   2.499 -1.7176 -0.8435  0.9854
 9173SOL    HW237989   5.767   8.411   2.428  1.5911  0.3613 -0.4615
 9174SOL     OW37990   8.172   5.045   2.834  0.4662  0.4550  0.1750
 9174SOL    HW137991   8.132   5.008   2.917 -0.8461 -0.8898 -1.0246
 9174SOL    HW237992   8.163   4.979   2.760  0.0423  2.2934 -1.4810
 9175SOL     OW37993   1.872   8.682   0.968  0.2213  0.4127  0.4300
 9175SOL    HW137994   1.823   8.733   1.038  1.2333 -0.2055  1.5976
 9175SOL    HW237995   1.867   8.732   0.881  0.0175  1.8151  1.2264
 9176SOL     OW37996   1.147   6.974   1.363 -0.1021  0.2749  0.5142
 9176SOL    HW137997   1.128   6.892   1.418  0.9570 -0.0174  0.4712
 9176SOL    HW237998   1.210   6.950   1.288 -2.9764  0.2618 -1.9889
 9177SOL     OW37999   2.546   1.605   0.381  0.6721 -0.4546  0.4629
 9177SOL    HW138000   2.573   1.510   0.369  2.8673  0.2935 -0.7178
 9177SOL    HW238001   2.596   1.646   0.457  0.3340 -0.0035  0.4510
 9178SOL     OW38002   7.130   8.025   1.941 -0.0707 -0.2689 -0.2232
 9178SOL    HW138003   7.080   8.014   1.855 -1.7602 -0.3668  0.7572
 9178SOL    HW238004   7.153   7.935   1.978  1.5057 -0.2194 -1.0408
 9179SOL     OW38005   4.277   8.426   0.420 -0.4779  0.2727 -0.1379
 9179SOL    HW138006   4.273   8.402   0.323 -1.3464  1.0564 -0.3026
 9179SOL    HW238007   4.341   8.365   0.467  0.8206  0.6189 -1.4215
 9180SOL     OW38008   2.985   4.656   2.477 -0.6317 -0.2484 -0.1117
 9180SOL    HW138009   2.916   4.584   2.480 -0.6989 -0.1332  1.7855
 9180SOL    HW238010   3.029   4.664   2.567  0.3897  1.0871 -0.7125
 9181SOL     OW38011   1.212   3.776   2.245  0.3116  0.9090 -0.4617
 9181SOL    HW138012   1.300   3.789   2.292 -0.6454  0.5991  1.4581
 9181SOL    HW238013   1.200   3.678   2.226 -0.6250  0.6664  1.3133
 9182SOL     OW38014   0.263   8.168   0.955 -0.1763  0.0450 -0.1927
 9182SOL    HW138015   0.337   8.170   1.022 -1.0810  0.6579  0.8026
 9182SOL    HW238016   0.177   8.193   0.999 -0.9435 -0.4210 -1.3894
 9183SOL     OW38017   8.755   8.748   0.435 -0.0077 -0.1428  0.0441
 9183SOL    HW138018   8.724   8.674   0.376  0.6293  0.5772 -1.2055
 9183SOL    HW238019   8.746   8.835   0.387  1.2354  0.3742  0.7252
 9184SOL     OW38020   8.374   0.890   3.339  0.6199 -0.6459 -0.1225
 9184SOL    HW138021   8.289   0.938   3.314  1.4383  1.8800  1.7447
 9184SOL    HW238022   8.385   0.810   3.280 -1.2397  0.9670 -2.7866
 9185SOL     OW38023   8.848   0.939   2.694 -0.9014  0.2987  0.2181
 9185SOL    HW138024   8.775   0.877   2.665 -0.2896  0.0468 -0.8180
 9185SOL    HW238025   8.816   0.995   2.771 -1.3397 -1.5582  1.4238
 9186SOL     OW38026   4.068   7.706   2.216  0.0805 -0.3815 -0.5764
 9186SOL    HW138027   4.149   7.647   2.218  1.0908  0.8662 -2.5357
 9186SOL    HW238028   4.092   7.796   2.254 -1.1819 -0.9015  1.5022
 9187SOL     OW38029   3.892   2.256   3.842  0.1367  0.1595 -0.9662
 9187SOL    HW138030   3.857   2.250   3.748  1.5145  1.1941 -1.5659
 9187SOL    HW238031   3.852   2.183   3.897 -0.7870 -0.3882 -2.3240
 9188SOL     OW38032   9.415   7.555   0.669 -0.2406 -0.4986  0.1402
 9188SOL    HW138033   9.512   7.553   0.692 -0.3972 -0.0042  0.8528
 9188SOL    HW238034   9.362   7.587   0.748 -0.6174  3.0238 -1.4423
 9189SOL     OW38035   7.635   9.276   1.073 -0.0063 -0.3749  0.5364
 9189SOL    HW138036   7.537   9.296   1.078 -0.5273 -2.7848  0.5431
 9189SOL    HW238037   7.665   9.237   1.160  0.8896 -0.0090  0.3986
 9190SOL     OW38038   8.725   6.054   2.654  0.2277 -0.0637  0.1739
 9190SOL    HW138039   8.790   6.007   2.593 -0.3208 -1.0195  0.3131
 9190SOL    HW238040   8.665   5.986   2.696 -0.5996  0.7856  0.3598
 9191SOL     OW38041   5.503   8.969   1.835 -0.0719 -0.0447  0.3317
 9191SOL    HW138042   5.476   8.916   1.755 -0.6566  2.0459 -0.8866
 9191SOL    HW238043   5.596   9.003   1.823 -0.0480  0.0247  0.6902
 9192SOL     OW38044   8.603   2.116   3.103  0.1970 -0.0827  0.2952
 9192SOL    HW138045   8.667   2.089   3.174 -0.2050 -2.0384 -0.0769
 9192SOL    HW238046   8.510   2.114   3.140  0.0057 -0.9125 -0.2233
 9193SOL     OW38047   5.385   9.845   2.410  0.2760 -0.1801  0.1541
 9193SOL    HW138048   5.286   9.857   2.402  0.1755  0.6707  2.4402
 9193SOL    HW238049   5.405   9.749   2.431 -0.1155 -0.1891  0.4951
 9194SOL     OW38050   3.769   9.091   2.517  0.0035 -0.0690  0.4176
 9194SOL    HW138051   3.754   9.073   2.614  1.6612 -1.4311  0.4552
 9194SOL    HW238052   3.847   9.037   2.485  0.7772  1.9211 -1.1927
 9195SOL     OW38053   0.178   5.780   0.713  0.4779  0.1630 -0.2754
 9195SOL    HW138054   0.248   5.851   0.702  0.4075  0.3775  0.6444
 9195SOL    HW238055   0.197   5.727   0.796 -0.1586 -0.1099 -0.3043
 9196SOL     OW38056   2.452   7.958   0.451 -0.4204  0.3156 -0.2088
 9196SOL    HW138057   2.463   8.051   0.486 -0.8889  1.3944 -2.8242
 9196SOL    HW238058   2.399   7.960   0.366 -1.6837 -2.5001  0.4548
 9197SOL     OW38059   8.571   6.946   2.258 -0.2527 -0.3529 -0.6399
 9197SOL    HW138060   8.490   6.889   2.242  0.0335 -0.4559 -1.7754
 9197SOL    HW238061   8.580   7.012   2.184  0.5078 -0.0963 -0.3225
 9198SOL     OW38062   2.821   9.656   2.310 -0.2767  0.1828 -0.7376
 9198SOL    HW138063   2.898   9.619   2.257 -1.1089 -2.1294 -0.3921
 9198SOL    HW238064   2.854   9.682   2.401  0.2261 -0.1965 -0.8058
 9199SOL     OW38065   9.994   2.013   0.794 -0.0234 -0.7536 -0.3383
 9199SOL    HW138066   9.918   1.958   0.758 -1.0601  0.5777 -0.2244
 9199SOL    HW238067  10.038   2.062   0.718 -0.7068  0.2145 -0.1160
 9200SOL     OW38068   8.126   8.730   3.618 -0.5692  0.0634 -0.0328
 9200SOL    HW138069   8.181   8.655   3.582  1.7393  2.9334 -2.7858
 9200SOL    HW238070   8.165   8.762   3.704  0.2697  0.1252 -0.4333
 9201SOL     OW38071   5.145   8.154   3.457 -0.6727 -0.1354  0.7381
 9201SOL    HW138072   5.217   8.209   3.415 -1.2391  0.2979  0.3267
 9201SOL    HW238073   5.183   8.105   3.536 -0.3460  1.4842  1.6143
 9202SOL     OW38074   0.229   5.349   0.353  0.5900 -1.3286  0.1903
 9202SOL    HW138075   0.188   5.399   0.277  1.3460  2.1078  1.9178
 9202SOL    HW238076   0.320   5.317   0.327  0.6758 -0.5255 -0.5207
 9203SOL     OW38077   4.137   1.906   0.592  0.0400 -0.1258  0.1071
 9203SOL    HW138078   4.149   1.825   0.535 -0.4296 -0.2439  0.1757
 9203SOL    HW238079   4.223   1.956   0.597  0.3889 -0.7338  0.2367
 9204SOL     OW38080   0.664   6.161   0.889 -0.1338 -0.0705 -0.2692
 9204SOL    HW138081   0.720   6.079   0.905  0.4753 -0.4379 -3.8178
 9204SOL    HW238082   0.639   6.202   0.976  1.4055 -2.7917  1.5301
 9205SOL     OW38083   5.685   0.002   2.516  0.1428  0.0164  0.5133
 9205SOL    HW138084   5.763   0.030   2.572  0.8098 -0.8764  0.0526
 9205SOL    HW238085   5.705  -0.088   2.475 -0.2046  0.8049 -1.4093
 9206SOL     OW38086   1.163   7.977   1.035 -0.4475 -0.5376 -0.1728
 9206SOL    HW138087   1.224   8.051   1.064  1.8967 -2.5229  0.1708
 9206SOL    HW238088   1.081   7.976   1.092  0.3091  0.6955  0.9533
 9207SOL     OW38089   0.284   8.871   3.169 -0.2836 -0.0503  0.0491
 9207SOL    HW138090   0.197   8.837   3.206 -0.3700 -0.9909 -0.9802
 9207SOL    HW238091   0.277   8.969   3.154 -0.4942  0.2193  1.8130
 9208SOL     OW38092   0.771   0.591   3.335  0.6792  0.2876  0.0941
 9208SOL    HW138093   0.676   0.622   3.330  0.6255  0.0645 -0.3496
 9208SOL    HW238094   0.792   0.561   3.428  0.5974  1.2225  0.4162
 9209SOL     OW38095   1.661   3.362   0.797 -0.5739  0.1038  0.0488
 9209SOL    HW138096   1.645   3.324   0.888  1.0094 -0.0196  0.2782
 9209SOL    HW238097   1.711   3.296   0.742  0.1246  0.9264 -0.3088
 9210SOL     OW38098   0.081   2.095   3.752 -0.0869  0.2073 -0.0092
 9210SOL    HW138099   0.163   2.151   3.767 -0.7411  1.4297 -0.8661
 9210SOL    HW238100   0.002   2.155   3.739 -0.8821 -0.9339 -0.5181
 9211SOL     OW38101   6.111   9.265   2.507  0.2238  0.6009 -0.8279
 9211SOL    HW138102   6.164   9.223   2.581  0.2060  1.3998 -0.3484
 9211SOL    HW238103   6.057   9.341   2.544 -1.2613 -0.2020 -1.3253
 9212SOL     OW38104   1.840   5.978   3.273  0.0352  0.4499  0.0567
 9212SOL    HW138105   1.847   6.075   3.297  0.0715  0.3371  0.5005
 9212SOL    HW238106   1.784   5.968   3.191 -1.7458  0.6669  1.2377
 9213SOL     OW38107   0.006   5.414   1.201  0.1067  0.2427  0.0092
 9213SOL    HW138108  -0.034   5.414   1.110 -1.3762 -0.1573  0.6556
 9213SOL    HW238109   0.094   5.366   1.198 -0.0384  0.0263 -1.1535
 9214SOL     OW38110   0.577   1.408   1.489  0.0671 -0.4646 -0.5380
 9214SOL    HW138111   0.622   1.390   1.401  0.9346  0.4812 -0.3044
 9214SOL    HW238112   0.604   1.499   1.521 -1.3177 -0.2598  0.0506
 9215SOL     OW38113   0.406   0.034   3.478  0.1174 -0.5095  0.1625
 9215SOL    HW138114   0.358   0.020   3.564  0.5285  1.2679  0.7089
 9215SOL    HW238115   0.345   0.015   3.401 -0.2821 -1.9844  0.8450
 9216SOL     OW38116   0.255   0.797   2.220 -0.2103  0.1118  0.2952
 9216SOL    HW138117   0.257   0.700   2.244 -2.2565 -0.6559 -2.3729
 9216SOL    HW238118   0.341   0.822   2.174 -0.0722 -0.6776  0.1169
 9217SOL     OW38119   8.982   2.834   2.410 -0.6507 -0.1222  0.1947
 9217SOL    HW138120   9.010   2.928   2.390  1.2233 -0.8860 -1.0118
 9217SOL    HW238121   8.908   2.807   2.348  0.3487 -0.1569 -1.0143
 9218SOL     OW38122   8.805   7.804   2.517 -0.5059  0.0739  0.2328
 9218SOL    HW138123   8.852   7.719   2.539 -1.1142 -0.1199  0.7830
 9218SOL    HW238124   8.708   7.796   2.540 -1.0553  0.0780 -1.9327
 9219SOL     OW38125   1.807   9.967   2.558 -0.4806  0.4008  0.0588
 9219SOL    HW138126   1.830  10.062   2.537 -0.2334  0.4953  0.7599
 9219SOL    HW238127   1.865   9.934   2.633 -1.6152  0.1795  0.8470
 9220SOL     OW38128   5.534   9.528   2.850  0.0251  0.2242  0.1628
 9220SOL    HW138129   5.579   9.597   2.906 -1.0485  0.6313  0.5444
 9220SOL    HW238130   5.456   9.570   2.802  0.7714 -0.1739 -1.4389
 9221SOL     OW38131   1.027   5.177   2.246 -0.2652  0.4765  0.4333
 9221SOL    HW138132   1.002   5.088   2.286  0.0538 -0.9468 -2.3871
 9221SOL    HW238133   1.125   5.190   2.253  0.3165 -1.4457 -2.9523
 9222SOL     OW38134   6.816   8.724   2.101  0.4078 -0.4005 -0.0654
 9222SOL    HW138135   6.727   8.734   2.056 -0.4840 -0.5855  1.6140
 9222SOL    HW238136   6.827   8.629   2.132  0.8626 -0.2081  0.3734
 9223SOL     OW38137   9.579   3.187   1.130  0.1107 -0.1264  0.3703
 9223SOL    HW138138   9.650   3.176   1.200  1.6647  0.3605 -1.0983
 9223SOL    HW238139   9.545   3.097   1.102 -0.2291 -0.3383  1.4520
 9224SOL     OW38140   9.274   6.392   0.553  0.1117 -0.5804  0.7983
 9224SOL    HW138141   9.330   6.319   0.592  1.2222 -0.5958 -0.7759
 9224SOL    HW238142   9.286   6.476   0.606  2.3013 -0.3610 -0.0022
 9225SOL     OW38143   0.283   0.710   3.799 -0.2834  0.1694 -0.0237
 9225SOL    HW138144   0.246   0.799   3.775  0.0128  0.4040  0.3802
 9225SOL    HW238145   0.309   0.710   3.896  0.5128 -0.0802 -0.2352
 9226SOL     OW38146   0.678   2.935   2.932  0.0622 -0.2829  0.1652
 9226SOL    HW138147   0.621   2.932   2.849  0.0963  2.6325 -0.0218
 9226SOL    HW238148   0.630   2.890   3.007 -0.9699 -0.9506 -0.8826
 9227SOL     OW38149   8.322   5.406   3.399 -0.1739 -0.1169 -0.1062
 9227SOL    HW138150   8.277   5.326   3.440 -1.9431  1.1755  0.5628
 9227SOL    HW238151   8.333   5.391   3.301 -2.8685 -0.1860 -0.4619
 9228SOL     OW38152   2.148   1.871   1.720 -0.2092  0.3622 -0.6316
 9228SOL    HW138153   2.124   1.777   1.698  0.1495  0.8633 -3.3319
 9228SOL    HW238154   2.204   1.910   1.647  1.6666  1.9364  1.5482
 9229SOL     OW38155   3.312   0.423   3.376 -0.2914  0.1707  0.1271
 9229SOL    HW138156   3.353   0.478   3.448  0.7966 -1.0782  0.4815
 9229SOL    HW238157   3.242   0.363   3.414 -1.0859  0.9075 -0.1685
 9230SOL     OW38158   9.553   1.056   0.473  0.2250  0.2356 -0.5964
 9230SOL    HW138159   9.568   1.013   0.562  0.4890  0.7831 -0.3732
 9230SOL    HW238160   9.480   1.008   0.424 -1.1331  1.0110  0.6431
 9231SOL     OW38161   3.493   0.840   0.207  0.1059  0.1997  0.8091
 9231SOL    HW138162   3.446   0.890   0.135  0.5193  0.4443  0.7028
 9231SOL    HW238163   3.444   0.756   0.228 -0.2583  0.3501  0.5540
 9232SOL     OW38164   1.237   7.157   3.940 -0.1777  0.8138 -0.1784
 9232SOL    HW138165   1.168   7.107   3.992  0.4116  0.2835  0.1082
 9232SOL    HW238166   1.199   7.184   3.852 -0.5193 -0.1365 -0.3348
 9233SOL     OW38167   1.561   2.243   3.549  0.7769 -0.1674  1.0903
 9233SOL    HW138168   1.654   2.209   3.534  0.7107 -0.3563  1.1006
 9233SOL    HW238169   1.531   2.295   3.470  0.4149 -1.1883  0.5465
 9234SOL     OW38170   3.953   2.749   3.084  0.0540 -0.1615 -0.2886
 9234SOL    HW138171   4.029   2.693   3.052  1.5054  0.5017  1.9021
 9234SOL    HW238172   3.955   2.838   3.037 -1.5392 -1.4230 -2.8654
 9235SOL     OW38173   7.572   9.171   3.193  0.2588  0.5510 -0.3701
 9235SOL    HW138174   7.600   9.253   3.243 -0.9486  0.8356 -0.1606
 9235SOL    HW238175   7.629   9.161   3.111  1.5824  0.6203  0.5234
 9236SOL     OW38176   3.337   2.392   2.236 -0.3699 -0.2355  0.1384
 9236SOL    HW138177   3.322   2.306   2.286  0.8530 -0.9585 -0.7202
 9236SOL    HW238178   3.358   2.372   2.141 -2.1969  1.1292 -0.5710
 9237SOL     OW38179   3.442   1.366   3.079  0.1001  0.7698 -0.8929
 9237SOL    HW138180   3.351   1.340   3.045  0.3968  0.5246 -1.5134
 9237SOL    HW238181   3.453   1.333   3.172 -0.0580 -0.1272 -1.1866
 9238SOL     OW38182   7.137   7.698   2.465  0.5328  0.3756  0.6621
 9238SOL    HW138183   7.097   7.789   2.474 -0.4349  0.1016 -0.6844
 9238SOL    HW238184   7.064   7.631   2.448  1.4261 -0.3256 -0.4683
 9239SOL     OW38185   5.984   7.853   2.000  0.0901  0.6659  0.0322
 9239SOL    HW138186   5.928   7.803   1.933  0.6576  0.4098 -0.2577
 9239SOL    HW238187   5.977   7.809   2.089 -1.1114  1.3327  0.2753
 9240SOL     OW38188   0.749   8.165   3.038 -0.1448 -0.6453 -0.3282
 9240SOL    HW138189   0.779   8.107   3.115 -0.5722 -1.6269 -0.8945
 9240SOL    HW238190   0.780   8.259   3.054 -1.4186 -0.5456  1.7331
 9241SOL     OW38191   1.536   1.566   1.243  0.2895  0.2047  0.5740
 9241SOL    HW138192   1.499   1.495   1.183  0.2385 -0.4102  1.3126
 9241SOL    HW238193   1.460   1.613   1.288  0.3322  0.5430  0.2900
 9242SOL     OW38194   1.847   7.941   3.470 -0.0444 -0.1220 -0.4978
 9242SOL    HW138195   1.892   8.023   3.434  0.6762  0.0019  0.6722
 9242SOL    HW238196   1.751   7.942   3.444  0.2716  0.3637 -1.7274
 9243SOL     OW38197   9.297   3.024   0.640  0.0260  0.6534  0.1173
 9243SOL    HW138198   9.305   3.106   0.697  0.5160  0.5143  0.2498
 9243SOL    HW238199   9.251   3.047   0.554  0.4646  1.1406  0.0125
 9244SOL     OW38200   3.177   7.984   3.760  0.2603 -0.3116  0.1320
 9244SOL    HW138201   3.252   8.019   3.704 -0.6316  0.6561 -0.4859
 9244SOL    HW238202   3.154   7.891   3.732  0.4227 -0.1645 -0.5015
 9245SOL     OW38203   9.255   1.478   0.930  0.0335 -0.3626  0.5013
 9245SOL    HW138204   9.334   1.533   0.959  0.1966  0.2314 -1.0036
 9245SOL    HW238205   9.286   1.389   0.897  0.1100 -0.0306 -0.3361
 9246SOL     OW38206   7.227   9.051   1.203  0.3708 -0.5862  0.4629
 9246SOL    HW138207   7.177   9.084   1.283  0.6454  0.0016  0.3947
 9246SOL    HW238208   7.163   9.035   1.128  0.3769  1.0199  0.0934
 9247SOL     OW38209   6.368   8.231   1.981  0.2450 -0.3546  0.7642
 9247SOL    HW138210   6.289   8.173   2.004 -0.0869  0.2036  1.0559
 9247SOL    HW238211   6.447   8.174   1.961 -0.7640 -1.0215 -1.5922
 9248SOL     OW38212   0.550   1.501   0.834 -0.3013 -0.5573  0.0908
 9248SOL    HW138213   0.520   1.551   0.752  0.1914 -0.5403 -0.0831
 9248SOL    HW238214   0.649   1.487   0.829 -0.0640  0.6077  1.3186
 9249SOL     OW38215   3.180   8.812   3.805  0.2664  0.1699  0.1399
 9249SOL    HW138216   3.177   8.859   3.894 -0.3787 -0.0538  0.2417
 9249SOL    HW238217   3.100   8.838   3.751  1.0683  0.9174 -0.6939
 9250SOL     OW38218   0.838   2.712   0.686  0.3181  0.3362  0.2726
 9250SOL    HW138219   0.749   2.690   0.726 -0.4806 -0.1339 -1.6657
 9250SOL    HW238220   0.908   2.650   0.722 -0.3162  0.0931  1.1015
 9251SOL     OW38221   2.431   5.492   0.572 -0.5059  0.8007 -0.1428
 9251SOL    HW138222   2.384   5.579   0.558 -2.6301 -0.4499 -0.9214
 9251SOL    HW238223   2.493   5.476   0.495 -1.8796  0.5219 -1.2161
 9252SOL     OW38224   8.678   4.652   0.669  0.4944  0.0777  0.2647
 9252SOL    HW138225   8.598   4.641   0.610 -0.3113 -0.2512  1.4102
 9252SOL    HW238226   8.761   4.643   0.614 -0.2459  1.6058 -1.1528
 9253SOL     OW38227   4.032   2.809   0.418  0.2683  0.2117 -0.5095
 9253SOL    HW138228   3.934   2.801   0.433  0.3804 -0.0743  0.0880
 9253SOL    HW238229   4.076   2.839   0.502  0.4600  2.2916 -1.3242
 9254SOL     OW38230   4.710   0.005   2.334  0.6380  0.1375  0.0560
 9254SOL    HW138231   4.730  -0.013   2.238 -0.1133  0.2167 -0.1201
 9254SOL    HW238232   4.646  -0.064   2.368 -0.5215  1.1592 -0.0082
 9255SOL     OW38233   4.377   8.009   0.237  0.4664  0.0472 -0.3956
 9255SOL    HW138234   4.278   8.013   0.246  0.3532  0.3507 -1.7349
 9255SOL    HW238235   4.406   7.913   0.230  0.1852  0.0019 -0.9222
 9256SOL     OW38236   8.340   4.506   3.518 -0.0973 -0.2549  0.3607
 9256SOL    HW138237   8.358   4.508   3.420  1.5940  0.5480  0.6679
 9256SOL    HW238238   8.368   4.418   3.556  2.1390  0.5282  0.6160
 9257SOL     OW38239   3.815   4.933   2.402  0.0833 -0.1632  1.0851
 9257SOL    HW138240   3.913   4.939   2.421  0.6629  0.2406 -1.7693
 9257SOL    HW238241   3.797   4.850   2.350 -0.5745  1.4061 -1.2530
 9258SOL     OW38242   0.592   7.742   0.163 -0.4012 -0.1374 -0.5128
 9258SOL    HW138243   0.593   7.752   0.064 -1.0960 -2.0305 -0.7208
 9258SOL    HW238244   0.499   7.755   0.198 -0.1221  0.7457 -0.0703
 9259SOL     OW38245   2.688   5.021   3.746 -0.3107  0.1594  0.2322
 9259SOL    HW138246   2.703   5.120   3.756 -2.5104  0.2746  2.7159
 9259SOL    HW238247   2.770   4.980   3.707  1.9579  2.5043  2.2702
 9260SOL     OW38248   9.064   4.255   0.703  0.0586  0.4968  0.7188
 9260SOL    HW138249   9.020   4.222   0.620 -1.5311  0.0764  1.7085
 9260SOL    HW238250   9.102   4.177   0.753  2.1868  0.8831 -0.2604
 9261SOL     OW38251   3.720   2.549   2.446 -0.2408  0.3405 -0.5069
 9261SOL    HW138252   3.731   2.537   2.348 -0.2624  0.8186 -0.5705
 9261SOL    HW238253   3.743   2.644   2.471  0.4700  0.0255  0.0499
 9262SOL     OW38254   9.445   5.255   3.040 -0.0405  0.2499  0.1340
 9262SOL    HW138255   9.419   5.171   3.086 -1.3330 -0.2324 -1.4134
 9262SOL    HW238256   9.391   5.265   2.956  1.2114  1.8198 -0.5133
 9263SOL     OW38257   1.359   3.089   1.865  0.4611  0.5612 -0.8236
 9263SOL    HW138258   1.271   3.106   1.819  0.0073  1.9536  0.5122
 9263SOL    HW238259   1.432   3.135   1.816  0.3681 -0.0689 -1.5745
 9264SOL     OW38260   3.150   7.404   2.951 -0.0527 -0.4462 -0.6327
 9264SOL    HW138261   3.122   7.447   3.037  0.4940 -2.0297  0.3511
 9264SOL    HW238262   3.217   7.462   2.905 -2.3333  1.7241 -1.3369
 9265SOL     OW38263   4.180   2.337   3.700  0.2851 -0.3603 -0.9752
 9265SOL    HW138264   4.111   2.353   3.771  2.1680  2.5421  0.2801
 9265SOL    HW238265   4.178   2.240   3.672 -2.0195 -1.0362  1.3952
 9266SOL     OW38266   0.016   1.791   2.301  0.3433  0.9543  0.2914
 9266SOL    HW138267  -0.027   1.705   2.330 -1.2210  1.7793  0.4010
 9266SOL    HW238268  -0.002   1.806   2.204  1.3993  0.7143  0.0454
 9267SOL     OW38269   4.690   9.176   3.447  0.4573 -0.5174  0.1430
 9267SOL    HW138270   4.620   9.248   3.446  0.0857 -0.8807 -0.2936
 9267SOL    HW238271   4.775   9.212   3.409  0.2981 -0.2804  0.0086
 9268SOL     OW38272   8.331   6.405   3.285 -0.1518  0.5582 -1.0391
 9268SOL    HW138273   8.267   6.368   3.352  1.6827 -0.2571  0.2932
 9268SOL    HW238274   8.338   6.342   3.207 -0.5245  0.3773 -0.9264
 9269SOL     OW38275   3.591   3.299   0.733 -0.6524 -0.1128  0.2545
 9269SOL    HW138276   3.652   3.326   0.807  1.2523 -2.5227 -0.3629
 9269SOL    HW238277   3.526   3.231   0.766  0.3236 -1.3315 -0.3188
 9270SOL     OW38278   5.133   8.388   2.967 -0.4162 -0.0488  0.6292
 9270SOL    HW138279   5.036   8.390   2.940 -0.4230  0.2740  0.6645
 9270SOL    HW238280   5.146   8.450   3.045 -0.7320 -2.2356  2.4870
 9271SOL     OW38281   7.986   2.926   1.299  0.3279  0.2774  0.0542
 9271SOL    HW138282   7.896   2.968   1.292 -0.4884 -1.6271 -1.4533
 9271SOL    HW238283   8.056   2.992   1.275 -0.9558  0.5989 -2.9544
 9272SOL     OW38284   9.140   5.625   2.302  0.2320  0.3123 -0.1403
 9272SOL    HW138285   9.224   5.645   2.252  1.2503 -1.7378  0.6639
 9272SOL    HW238286   9.071   5.694   2.282  2.3099  2.3830 -0.3269
 9273SOL     OW38287   1.310   4.854   2.124 -0.2534 -1.0639 -0.0838
 9273SOL    HW138288   1.328   4.948   2.152  1.4159 -0.3953 -3.1325
 9273SOL    HW238289   1.212   4.840   2.114 -0.4862  0.5729 -0.2190
 9274SOL     OW38290   1.429   1.454   2.356  0.7945  0.8164 -0.6049
 9274SOL    HW138291   1.466   1.366   2.388  1.9769  1.5951  0.2247
 9274SOL    HW238292   1.502   1.509   2.318 -0.2476  0.7795 -2.7536
 9275SOL     OW38293   1.815   5.752   3.795  0.2315  0.0813 -0.2408
 9275SOL    HW138294   1.844   5.770   3.701 -0.1069  0.8866 -0.1964
 9275SOL    HW238295   1.721   5.717   3.795  1.2354 -2.6916 -0.3962
 9276SOL     OW38296   6.426   9.137   1.776  0.0686 -0.6616 -0.6560
 9276SOL    HW138297   6.393   9.043   1.779 -1.6183 -0.0425  0.8130
 9276SOL    HW238298   6.525   9.137   1.791 -0.0600 -2.1345  0.4298
 9277SOL     OW38299   2.106   1.195   2.220 -0.1580 -0.0535  0.0451
 9277SOL    HW138300   2.117   1.145   2.134 -0.1472  1.7276 -1.0133
 9277SOL    HW238301   2.156   1.282   2.215 -1.4829  0.8024  1.2297
 9278SOL     OW38302   9.868   0.292   0.746  0.1165 -0.5301  0.0374
 9278SOL    HW138303   9.777   0.252   0.757 -0.1286  0.3458  1.2306
 9278SOL    HW238304   9.910   0.255   0.662 -1.0153 -1.5162 -0.1163
 9279SOL     OW38305   8.659   0.020   1.150  0.3080 -0.5106 -0.1644
 9279SOL    HW138306   8.698  -0.010   1.237 -0.4075  1.3938  0.8510
 9279SOL    HW238307   8.673  -0.050   1.080  1.7921 -1.6221  1.2337
 9280SOL     OW38308   3.686   7.006   2.616  0.5942  0.3991 -0.0151
 9280SOL    HW138309   3.730   7.095   2.628  1.6342  0.1820 -1.9485
 9280SOL    HW238310   3.630   7.008   2.534  1.7340 -1.1344 -0.8481
 9281SOL     OW38311   4.122   8.511   3.707  0.0013 -0.0861  0.1762
 9281SOL    HW138312   4.079   8.434   3.753  0.0728  0.1917  0.7066
 9281SOL    HW238313   4.219   8.491   3.692  0.7866  1.2077  3.2363
 9282SOL     OW38314   6.652   7.880   2.247  0.2057 -0.4131  0.3613
 9282SOL    HW138315   6.672   7.880   2.149  0.7857 -4.4052  0.4112
 9282SOL    HW238316   6.556   7.854   2.262 -0.1884  1.2314  0.8595
 9283SOL     OW38317   0.870   6.768   1.178  0.0625 -0.2710 -0.3204
 9283SOL    HW138318   0.968   6.782   1.163  0.0196  0.2614 -0.1128
 9283SOL    HW238319   0.826   6.856   1.199 -0.8521 -0.1111 -2.7150
 9284SOL     OW38320   9.354   5.917   3.182  0.0317  0.1769 -0.3473
 9284SOL    HW138321   9.303   5.930   3.097 -0.9839 -1.8149 -0.0698
 9284SOL    HW238322   9.446   5.955   3.172 -0.7563  1.8349 -1.5981
 9285SOL     OW38323   5.267   6.893   2.007  0.7620  0.3523 -0.0406
 9285SOL    HW138324   5.227   6.978   2.040  0.8253  0.6746 -0.7999
 9285SOL    HW238325   5.355   6.878   2.053  1.8080  1.8239 -1.5353
 9286SOL     OW38326   3.144   5.012   2.260  0.2137  0.2295 -0.0905
 9286SOL    HW138327   3.111   5.006   2.355 -0.0336  1.7293 -0.0648
 9286SOL    HW238328   3.095   5.085   2.213  0.0924 -0.7457 -1.4883
 9287SOL     OW38329   2.368   3.512   4.034 -0.1095 -0.6801  0.1251
 9287SOL    HW138330   2.349   3.597   3.985  0.7955 -0.4720  0.1196
 9287SOL    HW238331   2.404   3.533   4.125  0.4705 -1.0566 -0.0155
 9288SOL     OW38332   6.445   9.466   2.093  0.7086 -0.7272 -0.5277
 9288SOL    HW138333   6.466   9.541   2.031 -0.9155 -0.9061 -1.3167
 9288SOL    HW238334   6.401   9.503   2.175  1.0188 -0.6908 -0.3783
 9289SOL     OW38335   3.950   9.947   3.082 -0.0271 -0.2822 -0.0129
 9289SOL    HW138336   3.953   9.917   3.178  1.1062 -0.8582 -0.2139
 9289SOL    HW238337   3.963   9.867   3.022  1.8907  0.4311 -0.5828
 9290SOL     OW38338   2.112   6.742   0.312 -0.2358 -0.3526  0.2060
 9290SOL    HW138339   2.022   6.783   0.298  0.2718  0.8548  0.4780
 9290SOL    HW238340   2.105   6.643   0.300 -2.2183 -0.6284  2.9908
 9291SOL     OW38341   4.796   8.606   0.264 -0.4016  0.1515 -0.1345
 9291SOL    HW138342   4.791   8.645   0.357 -1.9169 -0.4801  0.0625
 9291SOL    HW238343   4.845   8.519   0.267  1.3118  1.0819 -0.2684
 9292SOL     OW38344   1.527   7.502   3.434  0.2175  0.1556 -0.2848
 9292SOL    HW138345   1.507   7.572   3.502  0.6550  0.1453 -0.1444
 9292SOL    HW238346   1.622   7.472   3.444 -0.3813 -1.5074  0.6087
 9293SOL     OW38347   4.758   2.697   2.687  0.2191  0.1517  0.4772
 9293SOL    HW138348   4.765   2.624   2.619  0.9695 -0.0359  0.7491
 9293SOL    HW238349   4.821   2.678   2.763  1.7820  2.0120 -0.3236
 9294SOL     OW38350   0.703   6.606   3.266 -0.1169  0.4559 -0.1195
 9294SOL    HW138351   0.661   6.680   3.318  1.0829  1.5976 -0.7431
 9294SOL    HW238352   0.762   6.552   3.327 -0.4473  0.4224  0.1771
 9295SOL     OW38353   3.062   8.906   1.911  0.4957 -0.0626  0.0387
 9295SOL    HW138354   3.087   8.918   1.815  2.8375 -1.4480  0.4611
 9295SOL    HW238355   3.038   8.995   1.949 -0.0393  0.5707 -1.6924
 9296SOL     OW38356   7.034   8.916   2.892  0.9167  0.4718 -0.0943
 9296SOL    HW138357   7.012   8.890   2.797  0.0853  1.3358 -0.1501
 9296SOL    HW238358   6.999   8.845   2.954  1.0197  0.1480 -0.3986
 9297SOL     OW38359   0.452   1.906   2.843  0.4930  0.1556 -0.0815
 9297SOL    HW138360   0.402   1.872   2.762  1.2360  0.1087 -0.5229
 9297SOL    HW238361   0.386   1.934   2.913 -0.1410 -1.5899  0.0467
 9298SOL     OW38362   9.332   0.811   2.099 -0.1706 -0.2072 -0.7660
 9298SOL    HW138363   9.408   0.748   2.085 -0.6566 -0.6251 -1.5275
 9298SOL    HW238364   9.256   0.763   2.144  0.2756  0.3881  0.6719
 9299SOL     OW38365   2.181   5.668   3.775  0.3097 -0.0212 -0.2711
 9299SOL    HW138366   2.199   5.645   3.871  1.1477  0.8316 -0.2179
 9299SOL    HW238367   2.093   5.715   3.768  0.3696  0.1501  0.1103
 9300SOL     OW38368   3.369   7.106   2.636 -0.0202  0.1075  0.3065
 9300SOL    HW138369   3.415   7.091   2.724 -0.5715  0.6885  0.6936
 9300SOL    HW238370   3.361   7.019   2.587 -1.6817 -0.6062  1.8033
 9301SOL     OW38371   8.004   4.400   2.492 -0.5130  0.3764 -0.3071
 9301SOL    HW138372   8.076   4.397   2.423 -0.3803  2.0361 -0.2672
 9301SOL    HW238373   8.040   4.369   2.580 -0.1295  0.1795 -0.5348
 9302SOL     OW38374   2.074   5.485   1.616 -0.1258 -0.0157 -0.6323
 9302SOL    HW138375   1.998   5.539   1.653 -0.4180 -0.2862 -0.8428
 9302SOL    HW238376   2.039   5.412   1.558  0.2158 -1.1014  0.5135
 9303SOL     OW38377   3.388   5.583   1.183  0.8657  0.2759 -0.0832
 9303SOL    HW138378   3.379   5.661   1.244 -1.4083 -0.0759  0.0801
 9303SOL    HW238379   3.404   5.616   1.090  2.7781  0.8434  0.4233
 9304SOL     OW38380   4.184   3.525   0.978 -0.1391  0.4030 -0.1734
 9304SOL    HW138381   4.110   3.459   0.980  0.6451 -0.4579  1.2447
 9304SOL    HW238382   4.197   3.563   1.069  2.1533 -0.5787 -0.0716
 9305SOL     OW38383   1.403   3.847   3.841  0.1213 -0.3743 -0.1451
 9305SOL    HW138384   1.477   3.797   3.885 -0.1084 -1.2516 -0.7426
 9305SOL    HW238385   1.394   3.817   3.746 -1.5335 -0.8826  0.1510
 9306SOL     OW38386   8.785   1.514   0.569  0.4780 -0.1931  0.2880
 9306SOL    HW138387   8.824   1.594   0.616  1.1358 -0.4872  0.2474
 9306SOL    HW238388   8.850   1.438   0.573  0.1582 -0.5004 -0.3051
 9307SOL     OW38389   1.467   7.690   1.728 -0.0219  0.2508 -0.0502
 9307SOL    HW138390   1.446   7.678   1.630 -1.7593  0.8601  0.2267
 9307SOL    HW238391   1.428   7.776   1.760  1.5953  0.6500  0.9164
 9308SOL     OW38392   8.537   9.748   2.501 -0.0476 -0.2706 -0.0072
 9308SOL    HW138393   8.622   9.719   2.546 -0.2979 -1.8198 -0.5148
 9308SOL    HW238394   8.466   9.760   2.570  0.2951 -0.0046  0.3056
 9309SOL     OW38395   9.626   4.256   1.522  0.0191 -0.7530 -0.1638
 9309SOL    HW138396   9.570   4.283   1.600 -2.0731 -0.0906 -1.8508
 9309SOL    HW238397   9.632   4.332   1.457  0.4678 -1.7917 -1.3711
 9310SOL     OW38398   2.460   9.919   0.166 -0.1362 -0.1236 -0.0987
 9310SOL    HW138399   2.455   9.872   0.078  0.0871 -0.2381 -0.0493
 9310SOL    HW238400   2.515   9.866   0.230  0.4117  0.3758 -0.1479
 9311SOL     OW38401   3.567   4.396   2.075 -0.3822  0.2470  0.0925
 9311SOL    HW138402   3.559   4.321   2.141  0.2831  0.6024  0.5812
 9311SOL    HW238403   3.581   4.359   1.983 -2.1248 -0.2730  0.0171
 9312SOL     OW38404   1.658   8.998   2.935  0.2403 -0.0318  0.1801
 9312SOL    HW138405   1.738   8.941   2.956 -0.3098 -2.8385 -4.6814
 9312SOL    HW238406   1.675   9.091   2.967  4.1352 -1.2480  2.0240
 9313SOL     OW38407   3.086   8.658   0.049  0.3975  0.1259 -0.5344
 9313SOL    HW138408   3.158   8.727   0.035  0.8491  0.0115  1.1901
 9313SOL    HW238409   3.029   8.685   0.126 -0.4212 -0.6297 -0.8735
 9314SOL     OW38410   9.683   7.939   0.278  0.2445 -0.2013 -0.2907
 9314SOL    HW138411   9.683   8.027   0.230 -1.5184  0.2985  0.6073
 9314SOL    HW238412   9.729   7.950   0.366  1.3882 -0.5678 -0.8245
 9315SOL     OW38413   5.553   9.135   1.478  0.1832 -0.3429 -0.2809
 9315SOL    HW138414   5.541   9.051   1.425  0.2343 -0.1099 -0.6569
 9315SOL    HW238415   5.649   9.145   1.504  0.0341 -0.8422  0.4968
 9316SOL     OW38416   0.878   2.936   0.226 -0.0935 -0.0841 -0.2306
 9316SOL    HW138417   0.892   2.880   0.308  0.3622  1.3842  0.6930
 9316SOL    HW238418   0.966   2.968   0.192 -0.3579  0.0963 -0.7537
 9317SOL     OW38419   7.784   6.113   2.400 -0.0860 -0.4037  0.5066
 9317SOL    HW138420   7.879   6.096   2.425  0.4219 -0.0867 -1.1499
 9317SOL    HW238421   7.759   6.207   2.425  0.3085 -0.2055  0.1755
 9318SOL     OW38422   2.838   6.346   1.178  0.3526  0.1875 -0.0769
 9318SOL    HW138423   2.828   6.426   1.237 -0.4795 -1.3285  1.8706
 9318SOL    HW238424   2.797   6.266   1.222  3.0287 -1.7974 -1.0665
 9319SOL     OW38425   9.674   0.674   0.887 -0.1357  0.0829 -0.4116
 9319SOL    HW138426   9.708   0.618   0.962  0.6231 -1.5901 -1.9431
 9319SOL    HW238427   9.702   0.769   0.900 -2.9837  0.5165  3.1634
 9320SOL     OW38428   2.690   5.773   1.135 -0.0574  0.1765  0.3991
 9320SOL    HW138429   2.597   5.798   1.110  0.1711  1.4566  0.8169
 9320SOL    HW238430   2.732   5.722   1.059 -0.9532 -0.0523  0.0514
 9321SOL     OW38431   9.918   7.805   0.453  0.2331  0.1483 -0.1132
 9321SOL    HW138432   9.960   7.773   0.368  1.2564  1.9295 -0.3006
 9321SOL    HW238433   9.933   7.737   0.525  0.9603 -0.5290 -0.8886
 9322SOL     OW38434   3.739   6.998   1.221  0.3301  0.0084 -0.3096
 9322SOL    HW138435   3.758   7.085   1.176  0.4892 -0.6887 -1.6062
 9322SOL    HW238436   3.816   6.973   1.279 -0.4810  1.6305  1.5490
 9323SOL     OW38437   0.208   3.224   3.048  0.1416  0.2608  0.0620
 9323SOL    HW138438   0.165   3.173   3.122 -1.2468  0.5491 -0.5259
 9323SOL    HW238439   0.294   3.181   3.024 -0.6866 -1.4223  0.0148
 9324SOL     OW38440   1.516   6.292   1.206  0.3222  0.0343 -0.1533
 9324SOL    HW138441   1.419   6.303   1.186  0.3195  1.4756  0.5809
 9324SOL    HW238442   1.566   6.374   1.176  1.3828 -0.9068 -0.9820
 9325SOL     OW38443   2.960   7.951   0.788  0.1587  0.4519  0.1743
 9325SOL    HW138444   2.994   7.926   0.698 -0.9994  1.4144 -0.5478
 9325SOL    HW238445   2.885   8.017   0.778 -0.7301 -0.2884  1.7841
 9326SOL     OW38446   2.933   1.724   1.143 -0.2423 -0.3542  0.1027
 9326SOL    HW138447   2.966   1.630   1.144  0.6549 -0.0405 -0.1077
 9326SOL    HW238448   2.862   1.733   1.073 -0.4231 -0.8992  0.2106
 9327SOL     OW38449   2.406   2.829   0.107 -0.1416  0.0068 -0.4353
 9327SOL    HW138450   2.425   2.924   0.130  1.5063 -0.1348 -1.1326
 9327SOL    HW238451   2.331   2.825   0.041 -1.0607  0.7309  0.5424
 9328SOL     OW38452   3.173   9.315   3.926 -0.5645 -0.5502  0.6183
 9328SOL    HW138453   3.273   9.305   3.920 -0.3256  1.3775  1.0128
 9328SOL    HW238454   3.151   9.388   3.990 -2.3254 -2.4357  2.2014
 9329SOL     OW38455   2.589   5.047   3.413 -0.6552 -0.3207 -0.2318
 9329SOL    HW138456   2.513   5.008   3.465 -0.3353 -1.0833 -0.3163
 9329SOL    HW238457   2.652   5.094   3.474  0.3697 -2.2842  0.2578
 9330SOL     OW38458   1.318   0.129   3.659  0.3063  0.1243 -0.0900
 9330SOL    HW138459   1.409   0.089   3.647 -0.1563 -1.1625  0.6524
 9330SOL    HW238460   1.320   0.193   3.736  0.7142  0.5375 -0.4370
 9331SOL     OW38461   1.331   6.904   1.174  0.3001  0.4858 -0.0113
 9331SOL    HW138462   1.372   6.822   1.134  0.4226  0.1525  0.7958
 9331SOL    HW238463   1.389   6.939   1.247 -0.3686  0.5828  0.4800
 9332SOL     OW38464   0.824   7.320   3.436 -0.3367  0.1599 -0.7052
 9332SOL    HW138465   0.898   7.374   3.396 -0.1929  0.6530  0.2145
 9332SOL    HW238466   0.793   7.363   3.521 -0.0203 -1.3423  0.1905
 9333SOL     OW38467   9.922   3.526   2.710 -0.3536  0.2191 -0.3281
 9333SOL    HW138468   9.846   3.500   2.650 -1.4538  0.0865  1.0876
 9333SOL    HW238469   9.948   3.621   2.691 -0.0739 -0.1013 -1.6230
 9334SOL     OW38470   0.631   6.642   1.113  0.2464 -0.3988 -0.4977
 9334SOL    HW138471   0.607   6.592   1.030  1.3676 -1.1419 -0.3903
 9334SOL    HW238472   0.730   6.640   1.125  0.3141  1.7759 -0.4385
 9335SOL     OW38473   1.231   8.394   4.049  0.1805 -0.0519  0.2684
 9335SOL    HW138474   1.252   8.345   3.965  1.2899  1.7544 -0.5536
 9335SOL    HW238475   1.134   8.414   4.053  0.5438  2.5430 -2.1521
 9336SOL     OW38476   5.581   7.730   1.759 -0.1394 -0.1927  0.2023
 9336SOL    HW138477   5.566   7.642   1.714 -1.2099  1.7683 -3.4725
 9336SOL    HW238478   5.504   7.749   1.821 -1.7840 -0.2061 -1.7921
 9337SOL     OW38479   3.197   6.185   0.859  0.4029 -0.2780  0.3525
 9337SOL    HW138480   3.221   6.278   0.829  1.0739 -0.1204  1.3369
 9337SOL    HW238481   3.248   6.164   0.942 -0.9239 -0.9592  0.9984
 9338SOL     OW38482   0.221   7.754   1.825  0.5841 -0.1323 -0.2353
 9338SOL    HW138483   0.263   7.817   1.891  1.8914 -0.1397 -1.0265
 9338SOL    HW238484   0.184   7.674   1.873  0.2396  0.5315  0.6227
 9339SOL     OW38485   6.557   8.530   2.344 -0.4205 -0.3041  0.2257
 9339SOL    HW138486   6.525   8.621   2.368 -2.0705 -0.6515 -0.5808
 9339SOL    HW238487   6.657   8.529   2.343 -0.3774  1.2208  1.2268
 9340SOL     OW38488   9.395   7.128   0.642 -0.0519  1.0388 -0.2511
 9340SOL    HW138489   9.313   7.186   0.644  0.5033  1.7714  2.3738
 9340SOL    HW238490   9.471   7.175   0.686  0.9024 -0.9713  0.3023
 9341SOL     OW38491   9.085   2.556   0.532  0.0272 -0.8009  0.0429
 9341SOL    HW138492   9.118   2.642   0.571  1.2447 -1.0992 -0.3285
 9341SOL    HW238493   9.002   2.574   0.479 -0.5771 -0.0918  1.1941
 9342SOL     OW38494   4.029   2.065   3.166 -0.1398  0.4158  0.7141
 9342SOL    HW138495   4.046   2.099   3.074 -1.4924  3.1209  1.4065
 9342SOL    HW238496   4.114   2.029   3.204  0.4358 -0.7497 -1.5584
 9343SOL     OW38497   7.383   6.759   2.485  0.1908 -0.1460  0.5004
 9343SOL    HW138498   7.425   6.834   2.435 -0.3815 -0.8209 -1.0362
 9343SOL    HW238499   7.327   6.704   2.423 -0.4877 -1.0601  1.8672
 9344SOL     OW38500   1.401   9.995   2.214  0.3916  0.7222  0.7235
 9344SOL    HW138501   1.375  10.048   2.133 -1.1977  0.1167  0.8179
 9344SOL    HW238502   1.500  10.002   2.228  1.0256 -0.7981 -2.4585
 9345SOL     OW38503   8.203   9.746   1.942  0.1328  0.1599  0.0873
 9345SOL    HW138504   8.137   9.797   1.997  1.3337 -0.8650  2.5762
 9345SOL    HW238505   8.167   9.733   1.850 -1.6617  2.4905  0.4237
 9346SOL     OW38506   7.991   0.626   3.461 -0.0197 -0.0991  0.1731
 9346SOL    HW138507   7.976   0.593   3.554 -2.8083  0.2450 -0.1352
 9346SOL    HW238508   7.960   0.720   3.453  0.9027  0.1299 -0.9418
 9347SOL     OW38509   3.455   1.256   2.385 -0.3812 -0.5523 -0.3818
 9347SOL    HW138510   3.539   1.224   2.428  0.1177  1.1801 -0.0089
 9347SOL    HW238511   3.412   1.181   2.334  0.9580 -1.6537  0.0887
 9348SOL     OW38512   8.282   3.921   0.329  0.0908  0.0083 -0.0565
 9348SOL    HW138513   8.341   3.932   0.250  0.7959  0.0334  0.4717
 9348SOL    HW238514   8.221   3.843   0.314  1.6547 -1.2981  0.2494
 9349SOL     OW38515   2.062   6.661   3.104 -0.3650 -0.8377 -0.2142
 9349SOL    HW138516   2.001   6.618   3.037 -2.0325 -0.2340  0.9074
 9349SOL    HW238517   2.147   6.608   3.110 -1.3143 -2.4525 -0.7781
 9350SOL     OW38518   8.640   8.680   1.183 -0.2712  0.9803 -0.0386
 9350SOL    HW138519   8.552   8.710   1.221  0.2622  2.4748  0.0688
 9350SOL    HW238520   8.700   8.760   1.172  1.5597 -0.1969  1.1852
 9351SOL     OW38521   7.822   0.001   3.762  0.2002 -0.0803  0.3678
 9351SOL    HW138522   7.760   0.002   3.684  0.0805  1.4465  0.4659
 9351SOL    HW238523   7.900   0.062   3.743  0.4426 -0.1237  1.2222
 9352SOL     OW38524   9.998   8.429   3.992 -0.5527 -0.3563 -0.0521
 9352SOL    HW138525  10.043   8.421   4.081  2.2069  0.1954 -1.3369
 9352SOL    HW238526  10.062   8.404   3.920 -2.3817  0.3093 -1.9640
 9353SOL     OW38527   8.884   2.110   0.872 -0.1450 -0.4800  0.5343
 9353SOL    HW138528   8.796   2.071   0.846 -1.2951  2.1634  0.3131
 9353SOL    HW238529   8.925   2.155   0.792  0.8811 -0.7549  0.9034
 9354SOL     OW38530   1.535   0.662   3.521 -0.3922 -0.0269  0.0678
 9354SOL    HW138531   1.629   0.664   3.554 -0.6191  2.3114  0.6319
 9354SOL    HW238532   1.472   0.656   3.598 -0.7121 -2.1570 -0.3325
 9355SOL     OW38533   9.409   2.266   2.942  0.2487 -0.8077 -0.0081
 9355SOL    HW138534   9.506   2.264   2.917 -0.2649 -0.4588 -2.1719
 9355SOL    HW238535   9.360   2.199   2.887 -1.0040  0.2363 -0.1805
 9356SOL     OW38536   0.635   8.765   3.788 -0.5320  0.2279 -0.1651
 9356SOL    HW138537   0.560   8.763   3.854 -0.2393  0.7218  0.1804
 9356SOL    HW238538   0.629   8.683   3.730 -0.5263 -0.4443  0.7604
 9357SOL     OW38539   3.250   6.310   3.546 -0.6335 -0.0370  0.0453
 9357SOL    HW138540   3.156   6.299   3.515 -1.1146  0.2955  1.3932
 9357SOL    HW238541   3.259   6.278   3.640  0.1013  1.9695  0.6966
 9358SOL     OW38542   8.389   4.798   1.886 -0.3310  0.4969 -0.0178
 9358SOL    HW138543   8.384   4.711   1.935  0.4187  1.2441  1.4182
 9358SOL    HW238544   8.429   4.783   1.795 -1.4790 -0.8615 -0.3118
 9359SOL     OW38545   0.276   7.103   3.598 -0.3377  0.4592 -0.1334
 9359SOL    HW138546   0.361   7.083   3.548  0.9621  0.1143  2.1377
 9359SOL    HW238547   0.203   7.044   3.564  0.8854 -0.8133 -0.6206
 9360SOL     OW38548   2.664   5.484   0.385  0.2413  0.1289 -0.1579
 9360SOL    HW138549   2.627   5.508   0.294 -2.3750  3.7442  1.7195
 9360SOL    HW238550   2.723   5.558   0.417  0.0725 -0.4981  1.6489
 9361SOL     OW38551   8.916   9.210   0.142 -0.0711 -0.1518  0.7781
 9361SOL    HW138552   8.824   9.226   0.178  0.3854 -0.8547  2.2713
 9361SOL    HW238553   8.980   9.196   0.217  1.3632  0.8199 -0.2372
 9362SOL     OW38554   1.024   2.096   0.456  0.3154 -0.1448 -0.1907
 9362SOL    HW138555   0.946   2.042   0.425  0.2682  0.7533 -1.7124
 9362SOL    HW238556   1.062   2.057   0.539 -2.6681  0.2453  1.3948
 9363SOL     OW38557   2.296   0.870   0.424 -0.6450  0.2844  0.4180
 9363SOL    HW138558   2.242   0.854   0.341  1.3694  0.7341 -1.0178
 9363SOL    HW238559   2.326   0.966   0.425 -0.3730  0.1912  1.5106
 9364SOL     OW38560   2.333   1.932   3.979  0.1941  0.5425 -0.2798
 9364SOL    HW138561   2.401   1.919   3.907  0.2881 -0.2876 -0.0457
 9364SOL    HW238562   2.347   2.021   4.022  1.5544  0.0917  0.2089
 9365SOL     OW38563   1.565   2.474   4.011  0.7177  0.1919 -0.5352
 9365SOL    HW138564   1.487   2.423   3.975  0.1331  0.2150  0.6815
 9365SOL    HW238565   1.636   2.411   4.040  0.4342  0.0972 -0.0332
 9366SOL     OW38566   8.391   3.765   3.232  0.3108  0.2166 -0.1658
 9366SOL    HW138567   8.352   3.805   3.315  1.1463 -0.0450  0.3593
 9366SOL    HW238568   8.431   3.676   3.253  0.8501  0.3115 -0.7682
 9367SOL     OW38569   2.708   6.180   0.281 -0.1356 -0.2899  1.0209
 9367SOL    HW138570   2.769   6.151   0.354 -1.1631  1.0644  2.4466
 9367SOL    HW238571   2.681   6.100   0.227  0.9409 -1.2514  1.8681
  10.00000  10.00000   4.04922
