Written by MDAnalysis
11450
    1CHTO  H203    1   4.638   7.254   0.334  1.7220 -0.9045  1.4761
    1CHTO   O82    2   4.676   7.211   0.259  0.0282  0.1293 -0.0441
    1CHTO  C123    3   4.799   7.147   0.299  0.0957 -0.9665  0.1397
    1CHTO  H227    4   4.852   7.209   0.373 -0.4529 -0.2965 -0.0319
    1CHTO   O77    5   4.760   7.030   0.364  0.1025 -0.0444  0.3763
    1CHTO  C118    6   4.865   6.957   0.427  0.6790  0.5270 -0.3448
    1CHTO  H222    7   4.914   7.018   0.504 -0.4568  0.5540  0.3677
    1CHTO  C125    8   4.796   6.833   0.497  0.3343  0.2370 -0.9114
    1CHTO   O84    9   4.704   6.881   0.596 -0.2514 -0.8341 -0.1847
    1CHTO  H205   10   4.748   6.945   0.649 -0.8872 -1.8459  1.6012
    1CHTO  C114   11   4.956   6.895   0.315 -0.0522  0.2598  0.4086
    1CHTO  H218   12   4.897   6.828   0.252  1.6116 -0.0678 -0.8408
    1CHTO  C116   13   5.015   7.019   0.231 -0.0844 -0.2481  0.4930
    1CHTO  H220   14   5.079   7.074   0.303 -2.0296 -0.6881  2.6060
    1CHTO   O79   15   5.097   6.970   0.131 -0.5996 -0.3252 -0.3530
    1CHTO  H201   16   5.072   6.885   0.102 -0.7920  0.4315 -2.5175
    1CHTO  C120   17   4.891   7.106   0.182 -0.4611  0.5831 -0.1071
    1CHTO  H224   18   4.835   7.051   0.104  1.3308  2.1428 -2.5688
    1CHTO   N21   19   4.942   7.231   0.115  0.0031 -1.1174  0.7198
    1CHTO  H211   20   5.023   7.204   0.048 -0.8922  1.4929 -1.5488
    1CHTO  H212   21   4.864   7.290   0.068  0.4396 -0.3862  0.9032
    1CHTO   O75   22   5.070   6.841   0.384  0.0088 -0.3595  0.3496
    1CHTO  C112   23   5.105   6.677   0.340 -0.1465  0.4100  0.8168
    1CHTO  H216   24   5.084   6.659   0.234 -0.7754  0.6840  0.8905
    1CHTO   O73   25   5.021   6.598   0.424 -0.5491 -0.9486 -0.3032
    1CHTO  C113   26   5.038   6.458   0.426  0.0532 -0.2868  0.6803
    1CHTO  H217   27   5.020   6.421   0.323 -1.6044 -0.1865  0.9276
    1CHTO  C124   28   4.940   6.381   0.518  0.5416  0.3999 -1.1089
    1CHTO   O83   29   4.802   6.378   0.474 -0.3298  0.2736  0.2421
    1CHTO  H204   30   4.775   6.288   0.464 -1.8363  0.5987  1.2674
    1CHTO  C109   31   5.187   6.426   0.464  0.3619 -0.2312  0.3840
    1CHTO  H213   32   5.206   6.466   0.564  1.3551 -0.5312  0.3156
    1CHTO  C110   33   5.281   6.501   0.375 -0.0732 -0.8580 -0.0807
    1CHTO  H214   34   5.266   6.450   0.279  2.4032  0.6349 -1.3242
    1CHTO   O78   35   5.418   6.478   0.414 -0.5742  0.3958 -0.5184
    1CHTO  H200   36   5.432   6.547   0.476 -2.5903 -1.0689  1.6944
    1CHTO  C111   37   5.252   6.653   0.369 -0.7833 -0.1611 -0.6620
    1CHTO  H215   38   5.280   6.694   0.467  1.0752 -0.5967 -0.9996
    1CHTO   N19   39   5.332   6.718   0.266  0.7206 -0.5311 -1.1088
    1CHTO  H207   40   5.313   6.825   0.267 -1.7476 -0.9399 -1.5742
    1CHTO  H208   41   5.424   6.675   0.228  1.0889 -0.3151 -0.4692
    1CHTO   O74   42   5.200   6.276   0.468  0.1938 -0.3003  0.1322
    1CHTO  C115   43   5.279   6.216   0.594  0.7986 -0.5792 -0.4417
    1CHTO  H219   44   5.284   6.289   0.674  1.9769  1.1329 -2.0356
    1CHTO   O76   45   5.209   6.105   0.643 -0.4664 -0.4489  0.2387
    1CHTO  C122   46   5.172   6.009   0.542 -0.1292 -0.1903 -0.4850
    1CHTO  H226   47   5.092   6.057   0.487 -2.4453 -2.2215  1.0251
    1CHTO  C126   48   5.109   5.882   0.604  0.0516  0.4047 -0.9987
    1CHTO   O85   49   4.977   5.900   0.668  0.2402 -0.7859  0.3829
    1CHTO  H206   50   4.976   5.853   0.749 -0.7129 -2.9904 -0.8519
    1CHTO  C121   51   5.305   5.966   0.457  0.2889 -0.0914  0.6155
    1CHTO  H225   52   5.316   5.856   0.451  1.1622 -0.0061  0.5745
    1CHTO   O81   53   5.303   6.018   0.323  0.1716 -0.4219  0.2166
    1CHTO  H202   54   5.357   5.973   0.261  0.6752  1.5338 -0.8110
    1CHTO  C119   55   5.434   6.022   0.523  0.4529 -0.2375 -0.2229
    1CHTO  H223   56   5.449   5.963   0.613 -0.4463  1.4184  1.0374
    1CHTO  C117   57   5.421   6.174   0.549  0.3231  0.0798  0.3201
    1CHTO  H221   58   5.442   6.224   0.454 -0.6011 -1.3979 -0.6993
    1CHTO   N20   59   5.522   6.227   0.649 -0.0384 -0.5367  0.1799
    1CHTO  H209   60   5.517   6.177   0.744 -1.3961  0.9146  0.9042
    1CHTO  H210   61   5.554   6.329   0.662  1.4939 -1.0713  0.6319
    1CHTO   O80   62   5.559   5.983   0.436 -1.0203  0.2445 -0.2766
    1CHTO  C103   63   5.630   5.845   0.450  0.4132 -0.1308  0.4287
    1CHTO  H190   64   5.622   5.814   0.555 -0.2280  0.0837  0.4397
    1CHTO  C101   65   5.594   5.729   0.344 -0.1582  0.0735  0.3833
    1CHTO  H188   66   5.609   5.769   0.244 -0.6329  0.2686  0.3917
    1CHTO   O68   67   5.466   5.676   0.352  0.2162  0.2749  0.3126
    1CHTO  H168   68   5.406   5.723   0.297  0.5962  1.2768  0.7549
    1CHTO   C99   69   5.709   5.615   0.350  0.1968 -0.7844  0.1537
    1CHTO  H186   70   5.695   5.570   0.451 -1.6608  1.7379  1.0461
    1CHTO   N17   71   5.702   5.504   0.251 -0.3910 -0.1041  0.1472
    1CHTO  H174   72   5.601   5.473   0.229 -0.0024 -0.8028 -0.6328
    1CHTO  H175   73   5.776   5.428   0.270 -0.3109 -0.5195 -1.8002
    1CHTO   C97   74   5.855   5.674   0.354  0.4356 -0.1664  0.2507
    1CHTO  H184   75   5.896   5.711   0.259  0.2445 -0.5910  0.0051
    1CHTO   O64   76   5.862   5.774   0.462 -0.6271  0.0687  0.5839
    1CHTO  C104   77   5.784   5.886   0.434  0.5061 -0.0918  0.2428
    1CHTO  H191   78   5.803   5.922   0.332 -2.0193  1.0289  0.1211
    1CHTO  C108   79   5.832   5.998   0.523  0.0145  0.0225  0.2016
    1CHTO   O71   80   5.966   6.038   0.508 -0.3075  0.2143 -0.2638
    1CHTO  H171   81   5.986   6.071   0.422  2.0463 -1.2215 -0.3051
    1CHTO   O62   82   5.953   5.579   0.402 -0.0973 -0.0686  0.3712
    1CHTO   C91   83   6.059   5.553   0.316 -0.6626  0.4815 -0.1512
    1CHTO  H178   84   6.017   5.510   0.224 -3.2201 -0.7121  1.5171
    1CHTO   C92   85   6.134   5.424   0.379  0.1810  0.0871  0.7380
    1CHTO  H179   86   6.146   5.430   0.488  0.7325 -0.5438  0.7249
    1CHTO   O66   87   6.043   5.319   0.366  0.6065 -0.9452 -0.4812
    1CHTO  H166   88   6.085   5.236   0.372 -1.1603 -1.8028  0.2889
    1CHTO   C93   89   6.274   5.393   0.306  0.4884  0.5376  0.3971
    1CHTO  H180   90   6.243   5.390   0.200 -0.5012 -1.0664  0.7216
    1CHTO   N16   91   6.347   5.273   0.344  0.1388 -0.2447 -0.6841
    1CHTO  H172   92   6.278   5.193   0.368  1.7790 -1.1076  1.4274
    1CHTO  H173   93   6.411   5.242   0.262  0.7559 -0.0336 -0.2924
    1CHTO   C94   94   6.361   5.520   0.329  0.2008  0.0635  0.2884
    1CHTO  H181   95   6.421   5.512   0.419  2.3828 -0.3015 -1.1453
    1CHTO   O61   96   6.287   5.640   0.347  0.1009  0.2081  0.4033
    1CHTO   C95   97   6.162   5.669   0.297  0.1475 -0.6272  0.5400
    1CHTO  H182   98   6.127   5.755   0.354 -0.0196 -1.3490  1.5386
    1CHTO  C106   99   6.175   5.716   0.154  0.4615 -0.0720 -0.4110
    1CHTO   O69  100   6.234   5.843   0.159 -0.0161  0.3932 -0.2446
    1CHTO  H169  101   6.275   5.870   0.080  4.9041 -0.2890  1.8806
    1CHTO   O63  102   6.445   5.534   0.206 -0.5301 -0.3179  0.2991
    1CHTO   C96  103   6.578   5.635   0.219 -0.1990 -0.0512 -0.6728
    1CHTO  H183  104   6.553   5.724   0.277 -0.0328 -0.3637 -0.1249
    1CHTO   C98  105   6.636   5.675   0.081  0.1436  0.4462  0.4771
    1CHTO  H185  106   6.558   5.719   0.017 -0.4429  0.0367  0.9017
    1CHTO   O67  107   6.735   5.783   0.102 -0.0043  0.2218 -0.5089
    1CHTO  H167  108   6.683   5.860   0.116  0.2905  0.1877  0.8203
    1CHTO  C102  109   6.714   5.561   0.000  0.4817  0.6236  0.1402
    1CHTO  H189  110   6.790   5.615  -0.058  0.6326  2.5628  2.0714
    1CHTO   N18  111   6.632   5.494  -0.102 -0.0061  0.9801 -0.1410
    1CHTO  H176  112   6.682   5.470  -0.195 -2.6889  0.8310 -1.5930
    1CHTO  H177  113   6.589   5.400  -0.073 -0.0145  0.7941 -0.7447
    1CHTO  C105  114   6.776   5.468   0.110 -0.5162  0.6129 -0.3376
    1CHTO  H192  115   6.707   5.385   0.126  1.1293 -1.0746 -1.6767
    1CHTO   O65  116   6.808   5.541   0.225 -0.4015 -0.2111 -0.1428
    1CHTO  C100  117   6.695   5.553   0.306 -0.1846  0.1848  0.0852
    1CHTO  H187  118   6.658   5.454   0.336  3.4527 -1.5919 -0.9890
    1CHTO  C107  119   6.741   5.615   0.430  0.1207  0.3621  0.2138
    1CHTO   O70  120   6.652   5.588   0.542 -1.0374  0.3519 -0.4383
    1CHTO  H170  121   6.635   5.497   0.531 -0.0503  0.2697 -1.3879
    1CHTO   O57  122   6.909   5.411   0.052 -0.3385 -0.0252 -0.3785
    1CHTO   C85  123   6.939   5.269   0.066 -0.5619  0.5477 -0.7804
    1CHTO  H157  124   6.848   5.223   0.021 -1.7697  0.8701  1.2980
    1CHTO   C83  125   6.943   5.235   0.219  0.3379  0.2524  0.2086
    1CHTO  H155  126   6.839   5.228   0.250  0.0684  2.4609 -0.0951
    1CHTO   O56  127   7.006   5.346   0.281 -0.2768  0.2506 -0.2554
    1CHTO  H135  128   6.987   5.343   0.373 -0.6393  1.8499 -0.2629
    1CHTO   C81  129   7.009   5.094   0.246  0.1999  0.6509 -0.3772
    1CHTO  H153  130   6.941   5.020   0.203 -1.4294  3.0456 -2.0334
    1CHTO   N14  131   7.010   5.066   0.394 -0.5409  0.4616 -0.0312
    1CHTO  H141  132   6.914   5.076   0.439 -0.4700  0.8263  0.0382
    1CHTO  H142  133   7.075   5.125   0.455 -0.8061 -0.3492  1.0465
    1CHTO   C79  134   7.143   5.085   0.172  0.0785 -0.5377 -0.2156
    1CHTO  H151  135   7.188   4.989   0.199  2.5739 -0.1285 -2.6858
    1CHTO   O52  136   7.130   5.096   0.028 -0.0319 -0.7898 -0.8182
    1CHTO   C86  137   7.070   5.227  -0.014  0.0736 -0.4878  0.1452
    1CHTO  H158  138   7.156   5.298  -0.012  0.3973 -0.8039 -1.6979
    1CHTO   C90  139   7.026   5.230  -0.160 -0.4368  0.2276 -0.5017
    1CHTO   O60  140   6.941   5.126  -0.206  0.6044  0.2218 -0.2674
    1CHTO  H138  141   6.940   5.122  -0.300 -1.7682 -0.6901 -0.2423
    1CHTO   O50  142   7.226   5.188   0.225 -0.0747  0.5500  0.5575
    1CHTO   C73  143   7.362   5.236   0.206  0.1356  0.2273  0.3824
    1CHTO  H145  144   7.392   5.235   0.100  0.1547 -0.4088  0.3954
    1CHTO   C74  145   7.462   5.142   0.286 -0.0911 -0.0523  0.2920
    1CHTO  H146  146   7.458   5.041   0.243 -1.3046  0.1948 -0.2174
    1CHTO   O54  147   7.589   5.199   0.256  0.2473 -0.4593  0.0313
    1CHTO  H133  148   7.588   5.290   0.278 -0.2916  0.1195 -2.2449
    1CHTO   C75  149   7.420   5.140   0.434  0.2885  0.0708  0.5477
    1CHTO  H147  150   7.320   5.096   0.441  0.3841  0.0723  2.1131
    1CHTO   N13  151   7.515   5.064   0.514  0.2368  0.5839  0.8426
    1CHTO  H139  152   7.531   4.966   0.471  3.8953  1.2654  0.4599
    1CHTO  H140  153   7.482   5.061   0.616  2.8465 -1.9147  1.7030
    1CHTO   C76  154   7.403   5.292   0.494 -0.2500 -0.2129  0.3431
    1CHTO  H148  155   7.503   5.335   0.504 -1.4459  3.1230 -1.3948
    1CHTO   O49  156   7.326   5.378   0.403 -0.4120 -0.4462 -0.0753
    1CHTO   C77  157   7.365   5.380   0.262 -0.4814  0.2550  0.0084
    1CHTO  H149  158   7.465   5.420   0.246  0.3300 -1.5038  0.4979
    1CHTO   C88  159   7.276   5.483   0.191 -0.2041 -0.1018 -0.1361
    1CHTO   O58  160   7.324   5.495   0.052  0.7054 -1.0374 -0.4572
    1CHTO  H136  161   7.296   5.431  -0.011 -0.6705  1.3153 -2.3400
    1CHTO   O51  162   7.335   5.286   0.621 -0.1080 -0.1460  0.0528
    1CHTO   C78  163   7.313   5.406   0.692  0.1164  0.1875 -0.2543
    1CHTO  H150  164   7.306   5.489   0.618 -0.7680  1.4350  1.2004
    1CHTO   C80  165   7.409   5.444   0.806 -0.0140  0.8045  0.9021
    1CHTO  H152  166   7.408   5.367   0.885  0.0849  0.1980  0.3166
    1CHTO   O55  167   7.543   5.440   0.753 -0.4609  0.2890  0.2434
    1CHTO  H134  168   7.600   5.459   0.826  0.6428  0.5946 -0.6901
    1CHTO   C84  169   7.369   5.579   0.875  0.1659  0.2240  0.6923
    1CHTO  H156  170   7.388   5.646   0.792 -2.8853  1.8920  1.2660
    1CHTO   N15  171   7.456   5.628   0.988  0.0132 -0.1934 -0.0984
    1CHTO  H143  172   7.393   5.678   1.059 -0.5257 -0.1498 -0.6058
    1CHTO  H144  173   7.528   5.697   0.950 -0.5632  1.4619  1.7204
    1CHTO   C87  174   7.221   5.586   0.922 -0.0473 -0.3064 -0.1972
    1CHTO  H159  175   7.213   5.532   1.017 -2.5268  0.4298  0.0319
    1CHTO   O53  176   7.138   5.523   0.812  0.5735 -0.0593  0.1137
    1CHTO   C82  177   7.175   5.399   0.759 -0.3836 -0.3417  0.2721
    1CHTO  H154  178   7.172   5.327   0.841 -0.9023 -1.6622 -0.8895
    1CHTO   C89  179   7.067   5.352   0.657 -0.2060  0.3293 -0.2260
    1CHTO   O59  180   6.945   5.353   0.731  0.1610  0.6869 -0.8800
    1CHTO  H137  181   6.874   5.395   0.686 -0.5833  0.3964  0.0100
    1CHTO   O45  182   7.168   5.732   0.952  0.5286 -0.0684  0.8819
    1CHTO   C67  183   7.144   5.822   0.840  0.6662  0.5550  0.0418
    1CHTO  H124  184   7.220   5.813   0.763 -0.0563 -2.2779 -0.4203
    1CHTO   C65  185   7.002   5.799   0.770  0.1831  0.0850 -0.1282
    1CHTO  H122  186   7.005   5.696   0.734 -0.5950 -0.0335  0.1478
    1CHTO   O44  187   6.988   5.883   0.651  0.6557  0.6285  0.2822
    1CHTO  H102  188   7.068   5.873   0.602  1.4398  1.9021  1.2669
    1CHTO   C63  189   6.886   5.823   0.877 -0.5228  0.0461 -0.3670
    1CHTO  H120  190   6.912   5.773   0.971  0.8025  0.9877 -0.2178
    1CHTO   N11  191   6.750   5.772   0.833 -0.6257 -0.3269 -0.6371
    1CHTO  H108  192   6.702   5.749   0.926 -0.6325 -1.1459 -0.8359
    1CHTO  H109  193   6.696   5.843   0.775  0.8955  0.3227 -1.2969
    1CHTO   C61  194   6.893   5.969   0.918  0.1290 -0.3711  0.0559
    1CHTO  H118  195   6.832   5.970   1.010  0.2395  1.2627  0.1191
    1CHTO   O40  196   7.026   6.018   0.951 -0.3439 -0.3156  0.2829
    1CHTO   C68  197   7.145   5.973   0.889  0.5944  0.0442  0.4559
    1CHTO  H125  198   7.229   5.977   0.961  0.5162  1.1770  0.5078
    1CHTO   C72  199   7.188   6.057   0.773  0.2451  0.0239  0.3474
    1CHTO   O48  200   7.326   6.051   0.732 -0.5155  0.5980 -0.7105
    1CHTO  H105  201   7.328   6.018   0.644 -1.2985 -1.8073  0.1465
    1CHTO   O38  202   6.839   6.059   0.816 -1.3483 -0.1075 -1.1268
    1CHTO   C55  203   6.756   6.166   0.867 -0.2502 -0.0526 -0.5157
    1CHTO  H112  204   6.759   6.165   0.977 -0.9394 -0.5921 -0.4925
    1CHTO   C56  205   6.609   6.159   0.810 -0.4365 -0.6632  0.5699
    1CHTO  H113  206   6.607   6.154   0.700 -0.9742 -2.9073  0.6593
    1CHTO   O42  207   6.551   6.039   0.857  0.6344 -0.5714  0.3277
    1CHTO  H100  208   6.458   6.037   0.861  0.5017 -0.3943 -2.2486
    1CHTO   C57  209   6.530   6.286   0.872  0.8244 -0.3513 -0.5808
    1CHTO  H114  210   6.539   6.273   0.979  4.5600  1.6001 -0.5683
    1CHTO   N10  211   6.392   6.295   0.827 -0.0468 -0.8937 -0.0029
    1CHTO  H106  212   6.361   6.261   0.730 -0.0617 -0.2946 -0.2096
    1CHTO  H107  213   6.322   6.264   0.903 -0.3237  1.8385  0.8963
    1CHTO   C58  214   6.596   6.419   0.833  0.1883  0.3402  0.2948
    1CHTO  H115  215   6.591   6.433   0.723  0.3501 -0.6536  0.1504
    1CHTO   O37  216   6.736   6.411   0.862  0.0270  0.3300 -0.3109
    1CHTO   C59  217   6.815   6.303   0.817 -0.0234  0.1696 -0.4096
    1CHTO  H116  218   6.835   6.300   0.710  2.8996 -1.9361  0.1371
    1CHTO   C70  219   6.950   6.342   0.874 -0.7154 -0.0922  0.3175
    1CHTO   O46  220   7.007   6.462   0.819  0.0544  0.2886  0.3700
    1CHTO  H103  221   6.942   6.529   0.806  1.0646  0.9308 -1.5199
    1CHTO   O39  222   6.543   6.546   0.936  0.3622  0.2399  0.1632
    1CHTO   C60  223   6.510   6.669   0.866 -0.5660  0.1993  0.9258
    1CHTO  H117  224   6.582   6.700   0.790  0.0218 -0.1567  1.3285
    1CHTO   C62  225   6.373   6.662   0.788  0.0131 -0.9226  0.3530
    1CHTO  H119  226   6.394   6.576   0.721  2.6359  0.8194 -1.1772
    1CHTO   O43  227   6.276   6.616   0.879  0.0953 -0.3206  0.1236
    1CHTO  H101  228   6.258   6.687   0.937  0.6045  0.1057 -0.2295
    1CHTO   C66  229   6.329   6.799   0.715 -0.5509 -0.1742 -0.1163
    1CHTO  H123  230   6.416   6.834   0.660 -0.5293 -0.4109 -0.2323
    1CHTO   N12  231   6.217   6.784   0.626  0.4587 -0.2392 -0.8027
    1CHTO  H110  232   6.238   6.719   0.542 -0.1326 -0.4544 -0.7819
    1CHTO  H111  233   6.186   6.882   0.590 -0.9691 -0.3742  0.0327
    1CHTO   C69  234   6.296   6.902   0.829 -0.0478  0.1070 -0.3474
    1CHTO  H126  235   6.220   6.854   0.894  1.2139 -0.3947  0.7752
    1CHTO   O41  236   6.416   6.925   0.918  0.2958  0.1678 -0.4550
    1CHTO   C64  237   6.501   6.791   0.971  0.5350 -0.1452 -0.2052
    1CHTO  H121  238   6.450   6.745   1.058  0.0417  0.8953  0.0640
    1CHTO   C71  239   6.646   6.833   1.009  0.5917  0.3308 -0.4863
    1CHTO   O47  240   6.641   6.929   1.119  0.2542 -0.0808 -0.6239
    1CHTO  H104  241   6.725   6.925   1.160 -0.2314 -2.2065  0.2399
    1CHTO   O34  242   6.256   7.047   0.768 -0.6022 -0.1164 -0.5427
    1CHTO   C49  243   6.235   7.178   0.749 -0.6070  0.3153  0.4094
    1CHTO   H91  244   6.131   7.193   0.778 -0.5666 -0.7724  1.1553
    1CHTO   C47  245   6.239   7.195   0.600  0.6325  0.3818 -0.7873
    1CHTO   H89  246   6.204   7.298   0.578 -0.9755  0.1857  0.7517
    1CHTO   O33  247   6.142   7.106   0.546  0.6619 -0.1358  0.0051
    1CHTO   H70  248   6.152   7.098   0.453 -0.1933  1.9208 -0.3031
    1CHTO   C45  249   6.386   7.176   0.546  0.2459  0.1063  0.5906
    1CHTO   H87  250   6.430   7.079   0.572  1.6345  1.3129  2.8711
    1CHTO    N8  251   6.383   7.189   0.398 -0.3213 -0.1823  0.4785
    1CHTO   H75  252   6.358   7.290   0.367 -1.4116 -0.2970  0.9501
    1CHTO   H76  253   6.303   7.128   0.357 -0.3430  0.3979 -0.3778
    1CHTO   C43  254   6.485   7.278   0.613  0.1999  0.0779  0.6199
    1CHTO   H85  255   6.589   7.267   0.583 -0.0472 -0.4308 -0.0642
    1CHTO   O29  256   6.473   7.282   0.752  0.4950 -0.4611  0.4906
    1CHTO   C50  257   6.342   7.269   0.814  0.5284 -0.4681 -0.1519
    1CHTO   H92  258   6.349   7.222   0.914  0.5517  1.5372  0.8065
    1CHTO   C54  259   6.280   7.413   0.847 -0.4242  0.0650 -0.1265
    1CHTO   O36  260   6.370   7.469   0.947 -0.2416 -0.3055  0.2777
    1CHTO   H72  261   6.368   7.560   0.925 -0.8776 -0.6472 -1.1913
    1CHTO   O27  262   6.472   7.411   0.567 -0.3701  0.3732 -0.2425
    1CHTO   C37  263   6.512   7.550   0.585 -0.5152  0.2643  0.1580
    1CHTO   H79  264   6.491   7.581   0.688  0.9552 -2.0600  1.1983
    1CHTO   C38  265   6.666   7.563   0.566  0.3736  0.2238 -0.2699
    1CHTO   H80  266   6.691   7.519   0.468  0.9518 -0.4315  0.1670
    1CHTO   O31  267   6.732   7.497   0.676 -0.1172  0.1417 -0.2207
    1CHTO   H68  268   6.705   7.531   0.759  1.8814  0.8382  0.1756
    1CHTO   C39  269   6.710   7.715   0.562 -0.5105 -0.1763 -0.4174
    1CHTO   H81  270   6.686   7.751   0.662 -2.2797  0.6017 -1.0882
    1CHTO    N7  271   6.853   7.742   0.539  0.0095 -0.0485 -0.1228
    1CHTO   H73  272   6.878   7.820   0.470 -2.9985  0.5319 -0.6205
    1CHTO   H74  273   6.899   7.764   0.634  0.4382  1.4654 -0.6745
    1CHTO   C40  274   6.626   7.802   0.469  0.0114 -0.0319  0.8796
    1CHTO   H82  275   6.653   7.783   0.365  1.0414  1.1279  0.9220
    1CHTO   O26  276   6.487   7.776   0.497  0.0766 -0.3540 -0.0343
    1CHTO   C41  277   6.447   7.641   0.477 -0.4741 -0.1067 -0.2505
    1CHTO   H83  278   6.475   7.608   0.376 -0.4269 -0.2518 -0.1888
    1CHTO   C52  279   6.292   7.633   0.478  0.0620 -0.4733 -0.3711
    1CHTO   O35  280   6.233   7.707   0.387  0.3310  0.3739 -0.8738
    1CHTO   H71  281   6.176   7.654   0.335 -1.0782  2.1145 -1.1381
    1CHTO   O28  282   6.631   7.947   0.503  0.4645 -0.3192 -0.1237
    1CHTO   C42  283   6.626   8.052   0.407 -0.0269 -0.0437  0.0784
    1CHTO   H84  284   6.649   8.003   0.312  1.5589  0.7629  0.0395
    1CHTO   C44  285   6.732   8.168   0.424  0.3503  0.3876  0.2272
    1CHTO   H86  286   6.724   8.209   0.525  0.4599  0.0242  0.3832
    1CHTO   O32  287   6.849   8.083   0.418 -0.7154 -0.7659 -0.1692
    1CHTO   H69  288   6.918   8.143   0.396  0.0101 -1.3784  0.4415
    1CHTO   C48  289   6.718   8.287   0.322  0.0526 -0.3818  0.2260
    1CHTO   H90  290   6.751   8.245   0.227 -1.0311 -0.5324 -0.0860
    1CHTO    N9  291   6.810   8.403   0.356  0.5414 -0.4233 -0.1880
    1CHTO   H77  292   6.914   8.382   0.334  0.7343 -0.6908  0.9703
    1CHTO   H78  293   6.778   8.497   0.314 -1.2771 -0.6254  0.7094
    1CHTO   C51  294   6.568   8.327   0.301  0.3897 -0.8842  0.2541
    1CHTO   H93  295   6.536   8.373   0.394  1.7778 -1.1053  0.8620
    1CHTO   O30  296   6.492   8.221   0.266  0.0629  0.2197  0.2054
    1CHTO   C46  297   6.482   8.110   0.388 -0.4308 -0.2068 -0.5093
    1CHTO   H88  298   6.441   8.157   0.477  1.2339 -1.1693  0.7988
    1CHTO   C53  299   6.380   8.001   0.340 -0.6231  0.2953 -0.5506
    1CHTO   O72  300   6.250   8.052   0.318 -0.0773 -0.4626 -0.1112
    1CHTO  H199  301   6.213   8.007   0.245 -0.5127 -1.6270  0.8110
    1CHTO   O22  302   6.551   8.428   0.201 -0.2859 -0.1444 -0.8861
    1CHTO   C31  303   6.515   8.432   0.050 -0.8515 -0.4051 -0.3520
    1CHTO   H59  304   6.504   8.540   0.028  0.2058 -0.0601  0.7370
    1CHTO   C29  305   6.626   8.367  -0.039  0.3921  0.2317  0.2145
    1CHTO   H57  306   6.645   8.270   0.009 -2.6547 -1.2745 -1.4355
    1CHTO   O21  307   6.745   8.443  -0.031 -0.0307 -0.3371  0.0613
    1CHTO   H37  308   6.769   8.470   0.055 -0.0411 -0.0519 -0.0229
    1CHTO   C27  309   6.582   8.350  -0.186 -0.7263  0.6418  0.9661
    1CHTO   H55  310   6.579   8.447  -0.237 -0.8663 -0.8261 -1.9773
    1CHTO    N5  311   6.678   8.261  -0.257 -0.7037 -0.3186 -0.3895
    1CHTO   H43  312   6.660   8.161  -0.221 -0.7600 -0.0983  0.1991
    1CHTO   H44  313   6.781   8.278  -0.230 -0.1015 -0.3137 -2.5633
    1CHTO   C25  314   6.431   8.296  -0.199 -0.1660 -0.1920 -0.0799
    1CHTO   H53  315   6.433   8.189  -0.175  0.5417 -0.5721 -1.8069
    1CHTO   O17  316   6.339   8.368  -0.112 -0.0243  0.0568  0.4348
    1CHTO   C32  317   6.372   8.365   0.023 -0.1729 -0.9629  0.5727
    1CHTO   H60  318   6.376   8.264   0.063  0.1329 -0.9373  0.6056
    1CHTO   C36  319   6.260   8.429   0.111  0.2760  0.0987 -0.1530
    1CHTO   O25  320   6.136   8.355   0.102  0.2622 -0.4207  0.2184
    1CHTO   H40  321   6.097   8.380   0.020  0.0727 -0.9515  0.1477
    1CHTO   O15  322   6.378   8.298  -0.338 -0.3287  0.5925 -0.2977
    1CHTO   C19  323   6.329   8.213  -0.442 -0.3115 -0.0607  0.6795
    1CHTO   H47  324   6.255   8.275  -0.494 -0.8629 -1.2713  0.0065
    1CHTO   C20  325   6.443   8.174  -0.541 -0.3746 -0.1932  0.3756
    1CHTO   H48  326   6.537   8.154  -0.488  0.2733  0.0234 -0.6829
    1CHTO   O19  327   6.477   8.292  -0.617  0.7160  0.1282 -0.3337
    1CHTO   H35  328   6.557   8.323  -0.580 -0.6106  3.9161 -0.4423
    1CHTO   C21  329   6.402   8.063  -0.647 -0.0647 -0.4061  0.3110
    1CHTO   H49  330   6.341   8.109  -0.725  1.7137  1.4471  0.0039
    1CHTO    N4  331   6.520   8.006  -0.716  0.6527  0.5046 -0.0762
    1CHTO   H41  332   6.600   8.078  -0.704  0.2058  1.0759 -0.4666
    1CHTO   H42  333   6.496   7.994  -0.821  2.9356  0.3458 -0.6104
    1CHTO   C22  334   6.314   7.953  -0.578 -0.2038  0.4653  0.2274
    1CHTO   H50  335   6.388   7.894  -0.523 -0.8645 -0.5264  0.0655
    1CHTO   O14  336   6.210   8.007  -0.493 -0.0257  0.5012  0.2750
    1CHTO   C23  337   6.250   8.093  -0.386  0.5329 -0.0088 -0.3849
    1CHTO   H51  338   6.314   8.029  -0.324 -0.7071  0.5603  1.5326
    1CHTO   C34  339   6.124   8.141  -0.306  0.1470  0.1727 -0.0047
    1CHTO   O23  340   6.053   8.039  -0.239  0.4811  0.3699 -0.0239
    1CHTO   H38  341   5.974   8.019  -0.286  0.1806  1.8204 -0.1517
    1CHTO   O16  342   6.237   7.876  -0.673  0.1188 -0.6184  0.8821
    1CHTO   C24  343   6.269   7.701  -0.651  0.3888 -0.1420 -0.2441
    1CHTO   H52  344   6.361   7.683  -0.595 -0.0060 -1.3253  0.0496
    1CHTO   C26  345   6.292   7.643  -0.790 -0.4817 -0.2678  0.8286
    1CHTO   H54  346   6.211   7.679  -0.857 -1.8733  0.6662  2.9778
    1CHTO   O20  347   6.410   7.682  -0.855  0.5651  0.1143  0.1798
    1CHTO   H36  348   6.421   7.774  -0.839  2.6597  0.3184 -2.1527
    1CHTO   C30  349   6.287   7.486  -0.781 -0.3676 -0.4523 -0.1260
    1CHTO   H58  350   6.386   7.442  -0.761 -0.7256 -0.6520  1.2436
    1CHTO    N6  351   6.251   7.430  -0.919  0.0278  0.6353  0.2365
    1CHTO   H45  352   6.309   7.482  -0.995  1.2542  1.1545  1.4902
    1CHTO   H46  353   6.266   7.323  -0.924 -1.0223  0.5268 -0.5624
    1CHTO   C33  354   6.191   7.425  -0.677 -0.2584  0.3909 -0.9315
    1CHTO   H61  355   6.087   7.419  -0.711 -1.1992  0.3596  1.7905
    1CHTO   O18  356   6.190   7.496  -0.554  0.1138 -0.1789  0.0439
    1CHTO   C28  357   6.157   7.633  -0.576  0.2102  0.6953  0.4552
    1CHTO   H56  358   6.068   7.636  -0.637 -0.3716 -0.5663  1.2131
    1CHTO   C35  359   6.126   7.699  -0.444 -0.3979 -0.9560  0.7948
    1CHTO   O24  360   6.220   7.713  -0.335  0.0212  0.5111 -0.2138
    1CHTO   H39  361   6.312   7.725  -0.352  0.3174 -0.7774  0.3880
    1CHTO    O9  362   6.230   7.286  -0.655  0.1421  0.3515  0.0197
    1CHTO   C13  363   6.128   7.183  -0.578 -0.0321  0.9768  0.4029
    1CHTO   H26  364   6.027   7.229  -0.579 -0.9834 -1.0658 -2.2127
    1CHTO   C11  365   6.187   7.157  -0.434  0.6008  0.6995 -0.0150
    1CHTO   H24  366   6.163   7.244  -0.371  0.7645  0.8182 -0.1162
    1CHTO    O8  367   6.329   7.159  -0.426 -0.1350  0.0298  0.1071
    1CHTO    H3  368   6.369   7.212  -0.492  3.5016 -1.9522  0.6497
    1CHTO    C9  369   6.122   7.029  -0.380  0.0311  0.4187 -0.5055
    1CHTO   H22  370   6.014   7.033  -0.401 -0.4580  0.4161  1.8745
    1CHTO    N2  371   6.141   7.004  -0.229  0.1020  0.1119 -0.0261
    1CHTO   H10  372   6.043   6.978  -0.191 -0.7147  1.4577 -1.1781
    1CHTO   H11  373   6.207   6.918  -0.221 -1.2174 -0.9658 -0.4079
    1CHTO    C7  374   6.178   6.908  -0.463 -0.0137  0.1838  0.0308
    1CHTO   H20  375   6.110   6.824  -0.440 -0.9058  0.1977 -2.4049
    1CHTO    O4  376   6.173   6.924  -0.610  0.0171 -0.4439  0.5230
    1CHTO   C14  377   6.114   7.047  -0.663 -0.4250 -0.2628  0.0690
    1CHTO   H27  378   6.005   7.023  -0.664 -0.0991 -2.1911  3.6609
    1CHTO   C18  379   6.159   7.059  -0.811  0.2733  0.0086  0.0587
    1CHTO   O13  380   6.301   7.070  -0.821  0.6400  0.2934 -0.2327
    1CHTO    H7  381   6.318   7.118  -0.899 -0.7904 -1.9203 -1.9876
    1CHTO    O2  382   6.330   6.860  -0.428 -0.3353  0.3953 -0.2781
    1CHTO    C1  383   6.351   6.715  -0.443 -0.3016  0.2424  0.0840
    1CHTO   H14  384   6.281   6.667  -0.514  0.1409 -1.5578  0.8455
    1CHTO    C2  385   6.351   6.640  -0.301  0.9011 -0.1078  0.3535
    1CHTO   H15  386   6.420   6.693  -0.233 -1.0612 -0.2406  2.5395
    1CHTO    O6  387   6.216   6.660  -0.252 -0.6919  0.3301 -0.0105
    1CHTO    H1  388   6.197   6.600  -0.183 -2.1211 -0.3241 -0.9448
    1CHTO    C3  389   6.393   6.490  -0.332  0.3746  0.3611  0.0359
    1CHTO   H16  390   6.320   6.437  -0.396  0.8088  1.6311 -1.5577
    1CHTO    N1  391   6.401   6.402  -0.214  0.5564 -0.2961  0.0312
    1CHTO    H8  392   6.416   6.457  -0.122  0.7699  0.4341 -0.4387
    1CHTO    H9  393   6.301   6.362  -0.205  0.2512  0.7202  1.4082
    1CHTO    C4  394   6.532   6.482  -0.409  0.4520 -0.3573 -0.3391
    1CHTO   H17  395   6.604   6.528  -0.342 -0.0696 -1.1931  0.8216
    1CHTO    O1  396   6.524   6.563  -0.533  0.0148  0.6036  0.0790
    1CHTO    C5  397   6.497   6.700  -0.510  0.9465 -0.0738 -0.1044
    1CHTO   H18  398   6.573   6.739  -0.442  1.8459  0.2420 -1.2759
    1CHTO   C16  399   6.499   6.779  -0.643  0.0441 -0.3959 -0.9564
    1CHTO   O11  400   6.425   6.708  -0.741 -0.3354 -0.0366 -0.2716
    1CHTO    H5  401   6.437   6.749  -0.824 -0.4830 -1.4567 -1.0146
    1CHTO    O3  402   6.576   6.351  -0.450 -0.8729  0.3280  0.1685
    1CHTO    C6  403   6.698   6.338  -0.534  0.0590  0.3502  0.1087
    1CHTO   H19  404   6.717   6.438  -0.575  0.4028  0.5683  0.7943
    1CHTO    C8  405   6.818   6.288  -0.449  0.0578  0.3384 -0.4429
    1CHTO   H21  406   6.783   6.199  -0.396  2.1796 -0.8228 -0.9451
    1CHTO    O7  407   6.857   6.388  -0.349  0.9092 -0.3471  0.1189
    1CHTO    H2  408   6.788   6.450  -0.338 -0.0106 -1.1212 -1.0490
    1CHTO   C12  409   6.941   6.252  -0.539  0.0092 -0.5278 -0.2198
    1CHTO   H25  410   6.980   6.348  -0.580 -0.0657  0.3662  1.7816
    1CHTO    N3  411   7.052   6.197  -0.458 -0.3497  0.6668  0.0712
    1CHTO   H12  412   7.149   6.204  -0.506 -0.0715  2.6082  0.8748
    1CHTO   H13  413   7.053   6.260  -0.370  0.2677  0.1547  0.4345
    1CHTO   C15  414   6.903   6.157  -0.659 -0.6714 -0.7644 -0.0291
    1CHTO   H28  415   6.877   6.055  -0.630  1.0367 -0.8731  1.2122
    1CHTO   O10  416   7.016   6.145  -0.779 -0.1549 -0.2074  0.6729
    1CHTO    H4  417   6.989   6.068  -0.827 -3.0979  1.2857 -0.2139
    1CHTO    O5  418   6.790   6.215  -0.729 -0.2793  0.3943  0.5302
    1CHTO   C10  419   6.669   6.243  -0.653  0.3560  1.1391 -0.0586
    1CHTO   H23  420   6.631   6.153  -0.606 -0.1667  2.1210  1.4558
    1CHTO   C17  421   6.569   6.299  -0.755 -0.5922  0.6999  0.5148
    1CHTO   O12  422   6.620   6.414  -0.812  0.6349 -0.1768 -0.0381
    1CHTO    H6  423   6.672   6.400  -0.889 -0.9776 -1.0834 -0.9967
    2CHTO  H203  424   5.403   4.195   0.802 -1.1220 -2.7750  0.1082
    2CHTO   O82  425   5.374   4.195   0.712 -0.2338 -0.2940 -0.2160
    2CHTO  C123  426   5.293   4.315   0.706 -0.2321  0.3046 -0.0452
    2CHTO  H227  427   5.360   4.402   0.712  0.0758  0.1329 -0.9476
    2CHTO   O77  428   5.244   4.299   0.576 -0.0988  0.0990 -0.6470
    2CHTO  C118  429   5.159   4.406   0.532 -0.2604  0.6920  0.1965
    2CHTO  H222  430   5.208   4.504   0.543 -2.5655  2.0064 -0.8876
    2CHTO  C125  431   5.141   4.382   0.376 -0.1881  0.1724 -0.9945
    2CHTO   O84  432   5.071   4.262   0.340 -0.2893  0.1534  0.4261
    2CHTO  H205  433   5.024   4.222   0.411  1.0358 -1.5319  0.3933
    2CHTO  C114  434   5.025   4.408   0.604  0.1758  0.4712 -0.3144
    2CHTO  H218  435   4.985   4.308   0.587  1.4051 -0.1870  0.4857
    2CHTO  C116  436   5.057   4.423   0.759 -0.8647 -0.5252 -0.3924
    2CHTO  H220  437   5.103   4.524   0.772  2.2811 -1.6970 -1.8123
    2CHTO   O79  438   4.936   4.406   0.833 -0.5796  0.3978  0.5826
    2CHTO  H201  439   4.937   4.465   0.905  0.5061  1.3634 -0.1958
    2CHTO  C120  440   5.165   4.320   0.804  0.0327  0.1590  0.0165
    2CHTO  H224  441   5.120   4.219   0.801  2.2405 -0.8217 -1.0424
    2CHTO   N21  442   5.210   4.342   0.944 -1.0441 -0.3776 -0.5050
    2CHTO  H211  443   5.143   4.303   1.018  1.6891 -1.9601  1.2087
    2CHTO  H212  444   5.311   4.304   0.952 -1.6546 -1.5691  1.7787
    2CHTO   O75  445   4.941   4.512   0.538  0.1230  0.0797  0.2423
    2CHTO  C112  446   4.794   4.523   0.565 -0.2358 -0.4033  0.3289
    2CHTO  H216  447   4.763   4.447   0.638  0.1420 -0.3203  0.5710
    2CHTO   O73  448   4.730   4.501   0.439  0.0753 -0.5010 -0.9137
    2CHTO  C113  449   4.592   4.484   0.461  1.2281 -0.5401 -0.4114
    2CHTO  H217  450   4.563   4.418   0.546 -2.8699  1.3615 -0.2185
    2CHTO  C124  451   4.539   4.428   0.332  0.5301  0.2470 -0.6810
    2CHTO   O83  452   4.579   4.491   0.213 -0.2059  0.9995  0.2889
    2CHTO  H204  453   4.504   4.524   0.168 -1.1105 -0.8421  0.3751
    2CHTO  C109  454   4.535   4.625   0.495  0.3667  0.3759  0.0388
    2CHTO  H213  455   4.559   4.690   0.409  3.6855 -2.2479 -1.1217
    2CHTO  C110  456   4.594   4.675   0.623 -0.5978  0.0448  0.1129
    2CHTO  H214  457   4.568   4.604   0.701 -1.1091  1.7197  1.4949
    2CHTO   O78  458   4.543   4.804   0.661 -0.0677  0.1804 -0.2796
    2CHTO  H200  459   4.538   4.815   0.754  0.5108 -0.0844 -0.2129
    2CHTO  C111  460   4.746   4.672   0.611  0.0459  0.5342  0.3643
    2CHTO  H215  461   4.779   4.743   0.534  1.2806  0.7972  1.1279
    2CHTO   N19  462   4.806   4.712   0.742 -0.5247  0.5245 -0.3879
    2CHTO  H207  463   4.913   4.723   0.732 -0.4122 -0.7149 -0.5497
    2CHTO  H208  464   4.771   4.808   0.777  3.0480  2.0476 -0.7497
    2CHTO   O74  465   4.393   4.620   0.510  0.3515 -0.1560  0.0636
    2CHTO  C115  466   4.329   4.732   0.428  0.3634  0.1625 -0.4553
    2CHTO  H219  467   4.385   4.825   0.432 -0.6190  0.7378  0.4211
    2CHTO   O76  468   4.312   4.693   0.283 -0.7840  0.3312 -0.5170
    2CHTO  C122  469   4.216   4.593   0.260 -0.4285 -1.0349 -0.3114
    2CHTO  H226  470   4.238   4.515   0.333  0.1196 -0.4034  0.2049
    2CHTO  C126  471   4.223   4.529   0.114  0.2445 -0.4616 -0.1887
    2CHTO   O85  472   4.122   4.427   0.108  0.3587  0.0303  0.2180
    2CHTO  H206  473   4.141   4.373   0.034 -0.8532 -0.2519  0.0909
    2CHTO  C121  474   4.073   4.659   0.278  0.5852  0.0044  0.3808
    2CHTO  H225  475   4.043   4.701   0.180 -1.4411 -0.5778  0.7146
    2CHTO   O81  476   3.968   4.560   0.298  0.0970 -0.3658 -0.2155
    2CHTO  H202  477   3.892   4.587   0.250  0.6276 -0.2789 -1.0173
    2CHTO  C119  478   4.077   4.779   0.374 -0.2050 -0.4969  1.4532
    2CHTO  H223  479   4.105   4.867   0.316  0.7497 -1.0724  1.0438
    2CHTO  C117  480   4.185   4.756   0.494  0.2540  0.0358 -0.0309
    2CHTO  H221  481   4.166   4.670   0.558 -2.5837 -0.4141 -1.3936
    2CHTO   N20  482   4.196   4.873   0.585 -0.3131  0.0264  0.2454
    2CHTO  H209  483   4.206   4.965   0.530 -1.8956 -0.6813 -1.2426
    2CHTO  H210  484   4.128   4.879   0.668 -0.4263 -3.5709  0.5038
    2CHTO   O80  485   3.926   4.823   0.412  0.0240  0.0767 -0.1890
    2CHTO  C103  486   3.846   4.911   0.315  0.9655 -1.1913 -0.0113
    2CHTO  H190  487   3.912   4.975   0.258  0.6015 -0.7133  0.1059
    2CHTO  C101  488   3.735   4.837   0.219  0.3088  0.1526 -1.3441
    2CHTO  H188  489   3.672   4.767   0.273 -0.0866  2.1162  0.8572
    2CHTO   O68  490   3.829   4.755   0.111  0.0037 -0.2339 -0.1495
    2CHTO  H168  491   3.781   4.746   0.032  2.7309  0.1833 -1.9244
    2CHTO   C99  492   3.657   4.953   0.132 -0.1898  0.0870  0.0733
    2CHTO  H186  493   3.737   5.009   0.079 -0.1461 -1.6563 -1.7594
    2CHTO   N17  494   3.562   4.887   0.041 -0.1331 -0.9579 -0.7106
    2CHTO  H174  495   3.495   4.952  -0.014 -0.9409 -1.0689  0.1244
    2CHTO  H175  496   3.603   4.800  -0.008 -0.8408 -0.5972 -1.9582
    2CHTO   C97  497   3.589   5.050   0.233 -0.0140  0.1108  0.1270
    2CHTO  H184  498   3.497   5.014   0.281 -1.6002  4.9471  1.0839
    2CHTO   O64  499   3.682   5.106   0.333  0.2317  0.4776  0.8535
    2CHTO  C104  500   3.759   5.007   0.407  0.2699  0.2146  0.5629
    2CHTO  H191  501   3.684   4.953   0.465 -0.7698 -0.3287 -1.2459
    2CHTO  C108  502   3.855   5.080   0.507  0.0591  0.4833 -0.4290
    2CHTO   O71  503   3.794   5.115   0.629  0.6718  0.0887  0.5012
    2CHTO  H171  504   3.778   5.037   0.678  2.0365 -0.7258 -0.3248
    2CHTO   O62  505   3.553   5.170   0.164 -0.3689  0.1895 -0.4949
    2CHTO   C91  506   3.441   5.244   0.219 -0.0781  0.6709 -0.2098
    2CHTO  H178  507   3.400   5.183   0.299 -0.1707 -2.0033 -2.2105
    2CHTO   C92  508   3.333   5.245   0.102  0.6118  0.3225 -0.3955
    2CHTO  H179  509   3.329   5.147   0.051 -3.0328 -0.4115  1.1818
    2CHTO   O66  510   3.210   5.272   0.170 -0.1369 -0.3705  0.1209
    2CHTO  H166  511   3.138   5.223   0.132  0.3083 -0.2617 -0.8872
    2CHTO   C93  512   3.356   5.358  -0.006  0.1149 -0.8443  0.3614
    2CHTO  H180  513   3.265   5.375  -0.065  1.8908  2.1302 -1.6631
    2CHTO   N16  514   3.458   5.312  -0.104 -0.4481  0.4440 -0.3696
    2CHTO  H172  515   3.426   5.224  -0.159 -1.3145  0.1656  0.5498
    2CHTO  H173  516   3.476   5.392  -0.173 -1.1277  2.1043  1.3189
    2CHTO   C94  517   3.400   5.489   0.069 -0.3791  0.0159  0.2428
    2CHTO  H181  518   3.501   5.519   0.040 -0.3877 -0.5019 -0.3363
    2CHTO   O61  519   3.396   5.480   0.205  0.5636 -0.0598  0.0602
    2CHTO   C95  520   3.476   5.390   0.271  0.0484  0.0703 -0.1977
    2CHTO  H182  521   3.580   5.416   0.250 -0.6097  1.9737 -1.1220
    2CHTO  C106  522   3.460   5.408   0.424 -0.1828  0.4659  0.2892
    2CHTO   O69  523   3.323   5.389   0.456  0.0443  0.2453 -0.8453
    2CHTO  H169  524   3.272   5.424   0.386  1.0217 -0.2014 -1.7946
    2CHTO   O63  525   3.293   5.588   0.023  0.3263 -0.6162  0.2533
    2CHTO   C96  526   3.285   5.741   0.103 -0.0761 -0.3808 -0.2334
    2CHTO  H183  527   3.386   5.768   0.132  0.5483 -1.7590 -1.0764
    2CHTO   C98  528   3.193   5.765   0.218  0.6488  0.3362  0.1865
    2CHTO  H185  529   3.088   5.740   0.193 -0.0725  1.5893  1.8598
    2CHTO   O67  530   3.225   5.675   0.325  0.0101 -0.2280  0.1232
    2CHTO  H167  531   3.216   5.588   0.291  0.7273 -0.5977  0.8561
    2CHTO  C102  532   3.197   5.915   0.276  0.2551 -0.7631 -0.1323
    2CHTO  H189  533   3.297   5.926   0.319 -0.4051 -3.0258  2.1201
    2CHTO   N18  534   3.101   5.938   0.386  0.5311  0.0798 -0.0064
    2CHTO  H176  535   3.004   5.896   0.360  1.0761 -0.5099 -1.1461
    2CHTO  H177  536   3.125   5.895   0.481 -1.1340  0.7047  0.7326
    2CHTO  C105  537   3.186   6.020   0.166  0.0418 -0.7411  0.4361
    2CHTO  H192  538   3.084   6.039   0.131 -0.4167 -0.7158  1.7335
    2CHTO   O65  539   3.263   5.980   0.049 -0.1308 -0.2529 -0.3909
    2CHTO  C100  540   3.248   5.848  -0.007 -0.8184 -0.4901  0.9359
    2CHTO  H187  541   3.140   5.835  -0.025 -1.0522 -1.9761  3.1844
    2CHTO  C107  542   3.317   5.829  -0.145 -0.1740 -0.1507  0.1529
    2CHTO   O70  543   3.450   5.875  -0.141  0.5416  0.1903  0.1079
    2CHTO  H170  544   3.486   5.848  -0.224  0.8022  1.5117 -0.2096
    2CHTO   O57  545   3.254   6.144   0.216  0.1059 -0.5166  1.0827
    2CHTO   C85  546   3.224   6.274   0.156 -0.0716  0.1515 -0.2800
    2CHTO  H157  547   3.117   6.269   0.128 -0.0306 -1.1002 -0.2326
    2CHTO   C83  548   3.300   6.283   0.024  0.6362 -0.1565  0.1712
    2CHTO  H155  549   3.264   6.212  -0.050  2.3334  0.0242 -0.8618
    2CHTO   O56  550   3.436   6.241   0.040 -0.2471  0.4875  0.3116
    2CHTO  H135  551   3.440   6.152   0.070  2.0581  0.3537 -0.2922
    2CHTO   C81  552   3.275   6.423  -0.029 -0.0199 -0.1020  0.6737
    2CHTO  H153  553   3.167   6.434  -0.031 -0.0442 -0.2660  1.1293
    2CHTO   N14  554   3.323   6.452  -0.166 -0.0743 -0.1146 -0.5342
    2CHTO  H141  555   3.429   6.459  -0.158  0.0566 -1.2491 -1.1899
    2CHTO  H142  556   3.278   6.548  -0.183 -2.2020 -0.7698  1.0938
    2CHTO   C79  557   3.338   6.534   0.069  0.8450 -0.2628 -0.3151
    2CHTO  H151  558   3.321   6.631   0.022  1.8969 -0.7107 -1.6902
    2CHTO   O52  559   3.264   6.529   0.191  0.0188 -0.3261  0.2466
    2CHTO   C86  560   3.251   6.396   0.252  0.5589  0.2484  0.1498
    2CHTO  H158  561   3.349   6.393   0.305  0.5536  0.2488  0.1598
    2CHTO   C90  562   3.142   6.389   0.371 -0.3621 -0.0339 -1.1239
    2CHTO   O60  563   3.183   6.447   0.495  0.0692 -0.1529  0.7131
    2CHTO  H138  564   3.165   6.538   0.489  0.3493 -0.0352  1.5470
    2CHTO   O50  565   3.474   6.522   0.094 -0.1356  0.1518 -0.1794
    2CHTO   C73  566   3.596   6.588   0.112 -0.2450 -0.3428 -0.7696
    2CHTO  H145  567   3.582   6.692   0.144  1.5856 -0.2361 -0.2098
    2CHTO   C74  568   3.675   6.601  -0.029  0.0715 -0.5138  0.3197
    2CHTO  H146  569   3.603   6.650  -0.096  0.8945  2.8229  1.8017
    2CHTO   O54  570   3.790   6.685  -0.023 -0.4021 -0.2256 -0.0156
    2CHTO  H133  571   3.751   6.767   0.003 -2.1128 -0.9751 -0.1512
    2CHTO   C75  572   3.712   6.453  -0.077 -0.4433  0.0263  0.1444
    2CHTO  H147  573   3.622   6.390  -0.073  0.5793 -1.4548  0.1327
    2CHTO   N13  574   3.766   6.439  -0.217  0.4471 -0.1764  0.3815
    2CHTO  H139  575   3.870   6.410  -0.217  0.7201  0.7757 -0.7799
    2CHTO  H140  576   3.747   6.522  -0.283  2.5673 -0.2952 -0.4339
    2CHTO   C76  577   3.802   6.388   0.030  0.5793 -0.4280 -1.0463
    2CHTO  H148  578   3.893   6.446   0.041  1.1358 -1.3780 -0.6231
    2CHTO   O49  579   3.743   6.385   0.163  0.3705  0.5640 -0.3416
    2CHTO   C77  580   3.695   6.516   0.214  0.0921  0.1631  0.1981
    2CHTO  H149  581   3.785   6.577   0.220 -0.8858  1.6295 -0.0174
    2CHTO   C88  582   3.635   6.491   0.351 -0.2134 -0.6792 -0.0421
    2CHTO   O58  583   3.591   6.622   0.418  0.1384 -0.3589  0.1422
    2CHTO  H136  584   3.592   6.629   0.511  1.5955 -0.3701  0.1404
    2CHTO   O51  585   3.818   6.226  -0.016  0.4657  0.0635 -0.3651
    2CHTO   C78  586   3.916   6.138   0.084  0.1888 -0.7032 -0.3321
    2CHTO  H150  587   3.878   6.156   0.187  0.6905 -0.8209 -0.1240
    2CHTO   C80  588   4.069   6.161   0.077  0.3776 -0.5706 -0.0094
    2CHTO  H152  589   4.104   6.128  -0.023 -0.1802  3.0877 -1.5049
    2CHTO   O55  590   4.090   6.301   0.072 -0.4223 -0.2048 -0.1633
    2CHTO  H134  591   4.171   6.330   0.110 -0.5257 -0.3543  0.1709
    2CHTO   C84  592   4.144   6.090   0.197 -0.1167  0.3028 -0.1937
    2CHTO  H156  593   4.093   6.117   0.289  0.5002  0.6067  0.0528
    2CHTO   N15  594   4.289   6.138   0.221  0.7809 -0.3180 -0.1441
    2CHTO  H143  595   4.362   6.102   0.152 -1.9020 -0.9480 -2.7407
    2CHTO  H144  596   4.281   6.244   0.210 -2.5104 -0.6034 -1.0935
    2CHTO   C87  597   4.119   5.937   0.190 -0.2997  0.8672  0.0625
    2CHTO  H159  598   4.175   5.904   0.103  0.4017  1.2455  0.3636
    2CHTO   O53  599   3.945   5.910   0.183  0.8276 -0.1262  0.3530
    2CHTO   C82  600   3.884   5.989   0.082  0.3243  0.4306  0.3837
    2CHTO  H154  601   3.901   5.944  -0.016 -0.5539 -0.5837  0.6884
    2CHTO   C89  602   3.738   5.968   0.114  0.7536  0.1212 -0.6945
    2CHTO   O59  603   3.697   5.830   0.105 -0.2500  0.5900 -0.6011
    2CHTO  H137  604   3.774   5.784   0.132 -1.6239  0.2130  2.8609
    2CHTO   O45  605   4.177   5.851   0.316 -0.1558 -0.3546 -0.3150
    2CHTO   C67  606   4.085   5.827   0.426 -0.2250 -0.7334 -0.0087
    2CHTO  H124  607   3.996   5.884   0.402  0.2071 -0.2447 -0.4860
    2CHTO   C65  608   4.042   5.674   0.431 -0.0336  0.3205  0.2073
    2CHTO  H122  609   4.127   5.611   0.405  0.2349 -0.4066  2.7026
    2CHTO   O44  610   3.942   5.647   0.325 -0.0268 -0.0598  0.6152
    2CHTO  H102  611   3.982   5.653   0.241  1.6132 -0.9087  1.3043
    2CHTO   C63  612   3.997   5.622   0.577  0.3489  0.1600 -0.0498
    2CHTO  H120  613   4.091   5.596   0.625  0.8466 -0.6345 -1.4162
    2CHTO   N11  614   3.925   5.492   0.593  0.1954 -0.4552 -0.2136
    2CHTO  H108  615   3.975   5.410   0.641 -1.2758 -2.0910 -1.3905
    2CHTO  H109  616   3.887   5.453   0.501 -1.0186 -0.4637  0.2729
    2CHTO   C61  617   3.940   5.740   0.657  0.0614  0.1897  0.4420
    2CHTO  H118  618   3.938   5.700   0.760  1.7037 -0.7087  0.1465
    2CHTO   O40  619   4.023   5.860   0.662 -0.0757  0.9498  0.0182
    2CHTO   C68  620   4.133   5.874   0.567 -0.2898  0.2092  0.4776
    2CHTO  H125  621   4.218   5.813   0.603  2.0258  2.4133 -1.1049
    2CHTO   C72  622   4.176   6.021   0.586  0.8915  0.1033 -0.3536
    2CHTO   O48  623   4.310   6.056   0.553 -0.1725  0.3243 -0.2669
    2CHTO  H105  624   4.319   6.146   0.578  1.9550  0.7411 -2.2739
    2CHTO   O38  625   3.810   5.761   0.595 -0.2604  0.4570  0.3922
    2CHTO   C55  626   3.712   5.827   0.684  0.5099  0.4168 -0.2384
    2CHTO  H112  627   3.765   5.870   0.770  0.8249 -1.3585  0.4876
    2CHTO   C56  628   3.599   5.729   0.736  0.2058  0.5061  0.6619
    2CHTO  H113  629   3.562   5.666   0.653 -0.6838  0.1050  1.3430
    2CHTO   O42  630   3.669   5.639   0.832 -0.0993  0.0984 -0.0494
    2CHTO  H100  631   3.621   5.558   0.838 -1.0838  0.8018  2.1760
    2CHTO   C57  632   3.475   5.800   0.806  0.0514  0.8809 -0.1270
    2CHTO  H114  633   3.511   5.831   0.904 -0.2349 -0.6384  0.4717
    2CHTO   N10  634   3.360   5.705   0.842  0.1545 -0.2482 -0.3600
    2CHTO  H106  635   3.354   5.695   0.949 -2.4503 -0.4664 -0.4822
    2CHTO  H107  636   3.382   5.607   0.804  2.3913 -0.3663  1.1859
    2CHTO   C58  637   3.424   5.930   0.736  0.0822 -0.2598 -0.3122
    2CHTO  H115  638   3.360   5.897   0.652 -1.4285 -0.1621  0.7724
    2CHTO   O37  639   3.540   6.007   0.689  0.2888 -0.0589 -0.2740
    2CHTO   C59  640   3.635   5.945   0.605 -0.2285 -0.1441 -0.2531
    2CHTO  H116  641   3.586   5.904   0.517 -0.4282  2.6781 -1.5049
    2CHTO   C70  642   3.738   6.051   0.566  0.4476 -0.0922 -0.2892
    2CHTO   O46  643   3.689   6.166   0.503  0.3996 -0.0853 -0.0983
    2CHTO  H103  644   3.638   6.152   0.426 -1.5643 -1.1301  1.3408
    2CHTO   O39  645   3.344   6.023   0.853 -0.0242  0.1077 -0.3236
    2CHTO   C60  646   3.239   6.104   0.811 -0.3018 -0.3714 -0.1930
    2CHTO  H117  647   3.251   6.121   0.704 -1.3783  0.5866 -0.1594
    2CHTO   C62  648   3.096   6.043   0.828 -1.5399 -0.3860 -0.0969
    2CHTO  H119  649   3.082   5.956   0.761  2.6626 -0.5572 -0.8832
    2CHTO   O43  650   3.078   5.998   0.962 -0.4277  0.2970  0.0585
    2CHTO  H101  651   3.043   6.069   1.013  1.5667  0.2805  1.5138
    2CHTO   C66  652   2.995   6.151   0.775  0.3800 -0.1634  0.3328
    2CHTO  H123  653   3.018   6.181   0.673  2.2950 -1.2680  0.4143
    2CHTO   N12  654   2.851   6.107   0.789 -0.1898 -0.5436 -0.5853
    2CHTO  H110  655   2.783   6.178   0.745 -1.5194 -2.2838 -1.4371
    2CHTO  H111  656   2.837   6.013   0.736  0.0490 -0.3693 -0.9579
    2CHTO   C69  657   3.004   6.277   0.863 -0.5373  0.6243  0.3312
    2CHTO  H126  658   2.980   6.253   0.968 -0.9113 -1.7298 -0.2641
    2CHTO   O41  659   3.129   6.342   0.846  0.0104 -0.1445 -0.1460
    2CHTO   C64  660   3.259   6.238   0.887  0.8245 -0.5702 -0.7529
    2CHTO  H121  661   3.240   6.226   0.995 -0.1149 -0.7747 -0.9335
    2CHTO   C71  662   3.396   6.306   0.860 -0.0039  0.1459 -0.8748
    2CHTO   O47  663   3.435   6.383   0.972  0.0969 -0.1445 -0.0824
    2CHTO  H104  664   3.439   6.471   0.940 -0.0957 -0.1652 -0.1643
    2CHTO   O34  665   2.888   6.395   0.828 -0.1928 -0.1880  0.4460
    2CHTO   C49  666   2.789   6.486   0.902 -0.2970  0.0313 -0.4238
    2CHTO   H91  667   2.708   6.425   0.943 -0.4047  1.0008  0.8539
    2CHTO   C47  668   2.736   6.589   0.799  0.5539 -0.3938  0.1332
    2CHTO   H89  669   2.655   6.642   0.853  1.8003 -0.0266  1.7066
    2CHTO   O33  670   2.669   6.516   0.694 -0.1948  0.2981 -0.0361
    2CHTO   H70  671   2.678   6.563   0.613  0.2536  3.4281  1.7666
    2CHTO   C45  672   2.854   6.689   0.762 -0.1861  0.0652 -0.4323
    2CHTO   H87  673   2.939   6.624   0.736  0.7401 -0.0753  2.8061
    2CHTO    N8  674   2.823   6.772   0.643  0.1595 -0.5919 -0.2252
    2CHTO   H75  675   2.728   6.751   0.596 -0.5462 -0.5405  1.1283
    2CHTO   H76  676   2.899   6.771   0.567  0.2113 -3.0465 -0.1778
    2CHTO   C43  677   2.886   6.763   0.904  0.2578  0.4226  0.0541
    2CHTO   H85  678   2.959   6.838   0.873 -1.0983  1.7170 -0.0470
    2CHTO   O29  679   2.943   6.668   0.999 -0.5495  0.3090 -0.2297
    2CHTO   C50  680   2.860   6.557   1.026  0.0107 -0.0822 -0.2221
    2CHTO   H92  681   2.911   6.474   1.078 -1.8782 -0.8522  0.4425
    2CHTO   C54  682   2.766   6.598   1.142  1.4926 -0.5390 -0.2182
    2CHTO   O36  683   2.821   6.665   1.255 -0.2296  0.7616  0.1841
    2CHTO   H72  684   2.880   6.609   1.302 -2.2053 -4.3270 -2.9535
    2CHTO   O27  685   2.770   6.832   0.954 -0.2533  0.0012  0.3550
    2CHTO   C37  686   2.692   6.948   0.967  0.2240 -0.2831 -1.4135
    2CHTO   H79  687   2.632   6.970   0.877 -1.0243  0.1852 -0.4858
    2CHTO   C38  688   2.597   6.925   1.085  1.0953  0.5859 -0.6611
    2CHTO   H80  689   2.658   6.892   1.171 -1.9952  1.1753  1.8748
    2CHTO   O31  690   2.507   6.815   1.052 -0.3122  0.4563  0.2161
    2CHTO   H68  691   2.453   6.835   0.977  0.3674 -0.3523 -0.4944
    2CHTO   C39  692   2.514   7.054   1.121 -0.1868 -0.8303 -0.0041
    2CHTO   H81  693   2.447   7.076   1.038  1.5821  1.5390 -0.8748
    2CHTO    N7  694   2.424   7.038   1.239 -0.6907 -0.4169 -0.1040
    2CHTO   H73  695   2.441   7.114   1.314 -0.3871 -0.1175 -0.4665
    2CHTO   H74  696   2.420   6.934   1.266 -0.6642 -0.3534  0.1433
    2CHTO   C40  697   2.622   7.174   1.146  0.0443  0.0059  0.6057
    2CHTO   H82  698   2.659   7.164   1.248  0.4907  1.3840  0.5846
    2CHTO   O26  699   2.728   7.183   1.048 -0.3187  0.5171 -0.4512
    2CHTO   C41  700   2.790   7.068   0.992 -0.8454  0.1947 -0.2477
    2CHTO   H83  701   2.872   7.031   1.056  2.3292  1.2481 -3.5594
    2CHTO   C52  702   2.857   7.113   0.857 -0.2221 -0.3187 -0.0951
    2CHTO   O35  703   2.947   7.230   0.897  0.1740  0.3115 -0.0715
    2CHTO   H71  704   3.021   7.192   0.939 -0.0338  0.1644  0.1699
    2CHTO   O28  705   2.558   7.302   1.130 -0.5257  0.3810  0.8611
    2CHTO   C42  706   2.604   7.433   1.173 -0.8863 -1.0358  0.1167
    2CHTO   H84  707   2.529   7.505   1.139  0.5869 -0.0868 -1.1965
    2CHTO   C44  708   2.737   7.477   1.117  0.0172  0.2881 -0.0610
    2CHTO   H86  709   2.813   7.415   1.165 -0.3797 -0.0209  0.1715
    2CHTO   O32  710   2.718   7.462   0.981  0.6516  0.1572 -0.4193
    2CHTO   H69  711   2.799   7.479   0.936  1.1850  0.3578  0.6117
    2CHTO   C48  712   2.773   7.629   1.152  0.6511  0.5665  0.0505
    2CHTO   H90  713   2.694   7.695   1.118  0.8317  1.4213  1.2430
    2CHTO    N9  714   2.897   7.678   1.087 -0.1533  0.8923  0.2001
    2CHTO   H77  715   2.983   7.616   1.106  0.5673  1.2758 -1.6248
    2CHTO   H78  716   2.922   7.779   1.117 -0.0354  0.1621  2.6013
    2CHTO   C51  717   2.789   7.629   1.312 -0.5439  0.3125  0.5509
    2CHTO   H93  718   2.859   7.550   1.341 -2.4133 -2.2453 -1.6732
    2CHTO   O30  719   2.655   7.604   1.363 -0.1686  0.0133  0.2255
    2CHTO   C46  720   2.612   7.448   1.329 -0.8126 -0.2902  0.4689
    2CHTO   H88  721   2.693   7.382   1.361  1.4162  2.2555  0.2443
    2CHTO   C53  722   2.489   7.415   1.410 -0.1207 -0.6778 -0.5671
    2CHTO   O72  723   2.370   7.471   1.353  0.2190 -0.1280  0.1564
    2CHTO  H199  724   2.302   7.435   1.408  0.0399 -1.7015 -1.0695
    2CHTO   O22  725   2.829   7.757   1.371  0.2606  0.0655 -0.0493
    2CHTO   C31  726   2.862   7.785   1.516  0.4360 -0.0955  0.2510
    2CHTO   H59  727   2.904   7.887   1.524  0.6749 -0.2162  0.5011
    2CHTO   C29  728   2.738   7.781   1.609 -0.1977 -0.8857 -0.3573
    2CHTO   H57  729   2.700   7.679   1.594  1.2516 -1.4830 -0.0991
    2CHTO   O21  730   2.636   7.868   1.553  0.2375  0.0854 -0.3483
    2CHTO   H37  731   2.665   7.956   1.539 -0.4079  0.3072 -0.2732
    2CHTO   C27  732   2.769   7.800   1.760  0.0558 -0.5474  0.5044
    2CHTO   H55  733   2.798   7.905   1.776 -2.1773 -0.0366  1.4582
    2CHTO    N5  734   2.651   7.771   1.848  0.5967 -0.0287 -0.0016
    2CHTO   H43  735   2.578   7.848   1.829  0.8963 -0.0753 -1.3911
    2CHTO   H44  736   2.606   7.677   1.820  0.0869  0.3482 -0.4749
    2CHTO   C25  737   2.887   7.712   1.802  0.3926  0.8168 -0.3457
    2CHTO   H53  738   2.850   7.609   1.807 -0.8356  1.3391  1.5843
    2CHTO   O17  739   3.001   7.739   1.710  0.1960 -0.0764  0.3006
    2CHTO   C32  740   2.967   7.692   1.579  0.3790  0.2234 -0.3085
    2CHTO   H60  741   2.938   7.587   1.576  2.3806 -0.3340 -0.6165
    2CHTO   C36  742   3.092   7.666   1.494 -0.3760  0.6172 -0.4386
    2CHTO   O25  743   3.164   7.791   1.501 -0.1952 -0.2335 -0.5387
    2CHTO   H40  744   3.196   7.796   1.589  0.4759  0.2815 -0.8033
    2CHTO   O15  745   2.938   7.746   1.945  0.4418 -0.3180  0.3170
    2CHTO   C19  746   3.044   7.712   2.043 -0.6274  0.4711 -0.1348
    2CHTO   H47  747   3.035   7.603   2.054  1.4194  0.2309 -0.7334
    2CHTO   C20  748   3.193   7.733   2.004  0.6586 -0.4473 -0.0500
    2CHTO   H48  749   3.214   7.839   1.981 -1.0603  0.4784  2.3985
    2CHTO   O19  750   3.221   7.658   1.888  0.2767 -0.3589 -0.0625
    2CHTO   H35  751   3.310   7.627   1.880  0.2245 -0.6046  0.2891
    2CHTO   C21  752   3.293   7.693   2.121 -0.0924 -0.8583 -0.0081
    2CHTO   H49  753   3.288   7.586   2.140  0.0254 -0.7753  0.5036
    2CHTO    N4  754   3.432   7.729   2.083 -0.4083  0.0473 -0.0809
    2CHTO   H41  755   3.445   7.836   2.090  2.8695 -0.4497  3.2804
    2CHTO   H42  756   3.504   7.684   2.150  0.3301  1.2039 -0.0847
    2CHTO   C22  757   3.242   7.764   2.250  0.3209 -0.8828 -0.0301
    2CHTO   H50  758   3.252   7.872   2.241  0.2787 -0.6903  1.8682
    2CHTO   O14  759   3.111   7.725   2.274  0.1324 -0.1662 -0.6325
    2CHTO   C23  760   3.016   7.774   2.183 -0.1038 -0.2537 -0.7369
    2CHTO   H51  761   3.025   7.884   2.182  1.9631 -0.3812  0.6681
    2CHTO   C34  762   2.870   7.741   2.222 -0.5275  0.0831 -0.0522
    2CHTO   O23  763   2.836   7.790   2.351  0.6085  0.6376  0.0410
    2CHTO   H38  764   2.760   7.844   2.347  2.8002  3.7581 -1.4767
    2CHTO   O16  765   3.320   7.714   2.366 -0.2992  0.1021 -0.2515
    2CHTO   C24  766   3.306   7.801   2.492  0.3163  0.2136 -0.3607
    2CHTO   H52  767   3.220   7.867   2.486  1.5512  1.9381  0.2877
    2CHTO   C26  768   3.432   7.886   2.498 -0.6596  0.6256  0.0433
    2CHTO   H54  769   3.517   7.816   2.489 -2.2326 -1.0935 -2.2147
    2CHTO   O20  770   3.432   7.976   2.385  0.1509 -0.2282  0.3981
    2CHTO   H36  771   3.468   7.925   2.314  0.0900  1.3399 -0.7819
    2CHTO   C30  772   3.432   7.958   2.637 -0.5567 -0.3507 -0.5308
    2CHTO   H58  773   3.355   8.037   2.634  1.7443  2.0133  0.5170
    2CHTO    N6  774   3.560   8.035   2.659 -0.1170 -0.5035  0.0727
    2CHTO   H45  775   3.642   7.974   2.693  0.1914 -0.8764 -1.3264
    2CHTO   H46  776   3.547   8.115   2.731 -0.8654 -0.3920 -0.1729
    2CHTO   C33  777   3.401   7.865   2.760  0.6626  0.2204  0.5746
    2CHTO   H61  778   3.487   7.797   2.768  0.8293  0.3039 -0.4316
    2CHTO   O18  779   3.282   7.791   2.731  0.2936  0.7333  0.7729
    2CHTO   C28  780   3.288   7.709   2.617  0.3975 -0.2383 -0.2541
    2CHTO   H56  781   3.373   7.641   2.628 -1.2613 -2.4671 -0.9113
    2CHTO   C35  782   3.159   7.627   2.616 -0.1578 -0.3694  0.2106
    2CHTO   O24  783   3.131   7.505   2.686 -0.5451 -0.0112  0.1964
    2CHTO   H39  784   3.072   7.446   2.642 -1.5205  1.3350 -0.3337
    2CHTO    O9  785   3.382   7.935   2.887 -0.0467 -0.2477  0.4803
    2CHTO   C13  786   3.354   7.846   3.013  0.3035 -0.1337  0.5515
    2CHTO   H26  787   3.386   7.743   2.991 -2.0960 -1.5636  3.3814
    2CHTO   C11  788   3.198   7.856   3.032  0.7894  0.3977  0.5488
    2CHTO   H24  789   3.149   7.782   2.967  0.8876  0.4996  0.3608
    2CHTO    O8  790   3.129   7.982   3.007 -0.3108  0.0587 -0.0230
    2CHTO    H3  791   3.173   8.015   2.931 -0.8254 -1.9778 -1.2536
    2CHTO    C9  792   3.160   7.805   3.175 -0.0264  0.4780  0.8914
    2CHTO   H22  793   3.207   7.706   3.183  0.2490  0.0622 -3.9863
    2CHTO    N2  794   3.025   7.769   3.201  0.6362 -0.1641  0.6962
    2CHTO   H10  795   3.011   7.690   3.274  0.1984 -0.4629  0.2904
    2CHTO   H11  796   2.972   7.858   3.229  0.6114  0.6854 -1.9025
    2CHTO    C7  797   3.223   7.911   3.279  0.3779 -0.0722 -0.2333
    2CHTO   H20  798   3.254   7.856   3.370  0.6100  0.3371 -0.0668
    2CHTO    O4  799   3.343   7.977   3.234 -0.2916  0.6436 -0.2447
    2CHTO   C14  800   3.427   7.899   3.142  1.3035  0.6824  0.4938
    2CHTO   H27  801   3.463   7.804   3.186  1.2382  0.3593 -0.1477
    2CHTO   C18  802   3.555   7.991   3.113  0.0138  0.3109  0.2785
    2CHTO   O13  803   3.530   8.112   3.040 -0.7133 -0.0548 -0.0077
    2CHTO    H7  804   3.532   8.105   2.946  1.8134 -0.8792  0.0810
    2CHTO    O2  805   3.123   8.032   3.330  0.0691 -0.9999 -0.6220
    2CHTO    C1  806   3.148   8.090   3.465  0.3074 -0.2685  0.7651
    2CHTO   H14  807   3.256   8.079   3.488  1.0718  1.4432 -1.7489
    2CHTO    C2  808   3.056   8.027   3.582 -0.1182 -0.1113  0.3332
    2CHTO   H15  809   2.953   8.035   3.543  1.4012 -1.0330 -4.0273
    2CHTO    O6  810   3.082   7.889   3.596  0.1663 -0.0918 -0.3864
    2CHTO    H1  811   3.174   7.878   3.611 -0.1566 -0.4002  1.3900
    2CHTO    C3  812   3.073   8.107   3.714 -0.5562  0.6727 -0.8619
    2CHTO   H16  813   3.176   8.083   3.745 -1.9421 -1.0251  2.7234
    2CHTO    N1  814   2.984   8.055   3.826  0.4450 -0.0822 -0.5382
    2CHTO    H8  815   3.031   8.053   3.923 -1.7290 -0.5461  0.5491
    2CHTO    H9  816   2.897   8.118   3.834  2.2293  2.0558  2.6821
    2CHTO    C4  817   3.074   8.263   3.692 -0.2486  0.0011  0.2719
    2CHTO   H17  818   2.974   8.295   3.663  0.5988  0.9331 -1.7286
    2CHTO    O1  819   3.164   8.297   3.587 -0.1921  0.1886 -0.1454
    2CHTO    C5  820   3.135   8.242   3.457  0.1402 -0.3233  0.1729
    2CHTO   H18  821   3.040   8.274   3.414  0.9133  2.2322  0.2840
    2CHTO   C16  822   3.243   8.305   3.371 -0.0303  0.1333  0.3528
    2CHTO   O11  823   3.223   8.273   3.235  0.4456  0.1620  0.7179
    2CHTO    H5  824   3.284   8.326   3.187 -0.7675  1.3852  0.4989
    2CHTO    O3  825   3.128   8.316   3.812 -0.4931 -0.2618  0.4560
    2CHTO    C6  826   3.090   8.448   3.848  0.0967 -0.1841 -0.4696
    2CHTO   H19  827   3.051   8.504   3.762 -0.1192  1.2730  0.5547
    2CHTO    C8  828   2.971   8.446   3.950 -0.6628  0.4270 -0.7540
    2CHTO   H21  829   2.987   8.378   4.033 -0.4919  0.4582 -0.7623
    2CHTO    O7  830   2.853   8.403   3.877  0.1989  0.4230  0.5462
    2CHTO    H2  831   2.817   8.322   3.907  0.2474 -0.7529 -2.4638
    2CHTO   C12  832   2.937   8.586   4.001  0.8373 -0.0262  0.3094
    2CHTO   H25  833   2.916   8.651   3.913  3.6235 -0.8017 -0.9847
    2CHTO    N3  834   2.820   8.585   4.095 -0.3743 -0.0956  0.4121
    2CHTO   H12  835   2.730   8.604   4.037  0.0644 -0.6430 -0.4623
    2CHTO   H13  836   2.805   8.492   4.147 -1.2633 -0.1452  0.0734
    2CHTO   C15  837   3.071   8.634   4.066  0.0131  0.7879 -0.6072
    2CHTO   H28  838   3.112   8.563   4.138 -0.7643 -0.3942 -1.3155
    2CHTO   O10  839   3.072   8.781   4.130  0.3340 -0.6461  0.1710
    2CHTO    H4  840   3.153   8.820   4.159  1.4308 -0.6297 -2.7645
    2CHTO    O5  841   3.163   8.653   3.959 -0.2233  0.1260  0.0862
    2CHTO   C10  842   3.206   8.531   3.904 -1.0709 -0.3013  0.0227
    2CHTO   H23  843   3.251   8.472   3.984 -1.6421 -0.1994  0.4192
    2CHTO   C17  844   3.314   8.554   3.799  0.3413  0.1446  0.3217
    2CHTO   O12  845   3.285   8.664   3.711  0.1676 -0.3352  0.1318
    2CHTO    H6  846   3.288   8.749   3.750 -2.3993  1.1434 -2.7324
    3CHTO  H203  847   7.835   2.070   2.432 -0.2764  0.6493  1.2602
    3CHTO   O82  848   7.773   2.036   2.494 -0.6170  0.0315  0.5839
    3CHTO  C123  849   7.723   1.908   2.438  0.2806 -0.4099  0.0819
    3CHTO  H227  850   7.803   1.861   2.381  1.2595  0.3562  0.8055
    3CHTO   O77  851   7.689   1.822   2.548  0.0746  0.1165 -0.3296
    3CHTO  C118  852   7.661   1.682   2.510 -0.4293  0.2114  0.3439
    3CHTO  H222  853   7.737   1.647   2.439 -0.5135 -0.4529  0.5810
    3CHTO  C125  854   7.668   1.595   2.636  0.1496  0.0248  0.1252
    3CHTO   O84  855   7.793   1.585   2.697  0.4450 -0.2355 -0.5506
    3CHTO  H205  856   7.846   1.530   2.642  0.3714  0.7806 -1.6631
    3CHTO  C114  857   7.529   1.680   2.434  0.2433 -0.8829 -0.1244
    3CHTO  H218  858   7.449   1.708   2.501  0.2309 -1.1123 -0.0420
    3CHTO  C116  859   7.530   1.781   2.314 -0.6886  0.2946 -0.3863
    3CHTO  H220  860   7.585   1.728   2.233  1.4341  0.0989  1.1290
    3CHTO   O79  861   7.397   1.798   2.280  0.4858  0.4316  0.2248
    3CHTO  H201  862   7.382   1.846   2.201  1.9689  0.7149  0.1057
    3CHTO  C120  863   7.600   1.923   2.343  0.2604 -0.2395  0.0031
    3CHTO  H224  864   7.526   1.990   2.390 -0.5254 -1.3926  0.4506
    3CHTO   N21  865   7.628   1.981   2.208  0.2299 -0.6578  0.4449
    3CHTO  H211  866   7.594   2.084   2.208 -0.2059 -0.7986 -0.0940
    3CHTO  H212  867   7.586   1.919   2.130 -0.2636  0.8383 -0.5088
    3CHTO   O75  868   7.508   1.549   2.396 -0.0184  0.0661 -0.1080
    3CHTO  C112  869   7.352   1.513   2.307  0.5577  0.0997  0.7632
    3CHTO  H216  870   7.359   1.546   2.202 -0.8940  0.3994  0.7488
    3CHTO   O73  871   7.248   1.583   2.376 -0.3648 -0.0819 -0.2562
    3CHTO  C113  872   7.115   1.570   2.324 -0.2013 -0.9421 -0.4055
    3CHTO  H217  873   7.119   1.595   2.215  1.8790  0.0397 -0.1371
    3CHTO  C124  874   7.031   1.659   2.417 -0.4332 -0.1243  0.4785
    3CHTO   O83  875   6.896   1.681   2.369  0.0558 -0.3022 -0.4460
    3CHTO  H204  876   6.848   1.729   2.434  1.2409  0.4444 -0.1093
    3CHTO  C109  877   7.071   1.421   2.340 -1.0593 -0.3808 -0.5713
    3CHTO  H213  878   7.057   1.403   2.448  0.0761  0.4635 -0.2673
    3CHTO  C110  879   7.174   1.326   2.274 -0.0803 -0.1587 -0.4323
    3CHTO  H214  880   7.165   1.328   2.165  1.7455  0.0228 -0.6029
    3CHTO   O78  881   7.142   1.188   2.293  0.3000 -0.0986  0.4610
    3CHTO  H200  882   7.170   1.175   2.382 -0.2456  2.6733  1.0829
    3CHTO  C111  883   7.320   1.360   2.316  0.3469  1.2083 -0.2535
    3CHTO  H215  884   7.333   1.326   2.420 -0.4497  2.4331  0.2639
    3CHTO   N19  885   7.416   1.286   2.237  0.3651  0.3395 -1.0718
    3CHTO  H207  886   7.408   1.179   2.237  0.0937  0.2793  3.4929
    3CHTO  H208  887   7.515   1.315   2.269 -0.3515  0.3778  1.2192
    3CHTO   O74  888   6.946   1.403   2.270 -0.2245 -0.0734  0.4608
    3CHTO  C115  889   6.848   1.314   2.344 -1.0645  0.5142  0.9619
    3CHTO  H219  890   6.901   1.246   2.410  1.6857  1.0469 -0.5967
    3CHTO   O76  891   6.757   1.393   2.433  0.3750  0.2176 -0.1321
    3CHTO  C122  892   6.655   1.462   2.362  0.0988  0.2428 -0.2596
    3CHTO  H226  893   6.705   1.519   2.284  0.9759  1.5546  1.2374
    3CHTO  C126  894   6.573   1.565   2.449 -0.5432 -0.3340 -0.2489
    3CHTO   O85  895   6.457   1.639   2.394 -0.3322 -0.4026 -0.4288
    3CHTO  H206  896   6.378   1.591   2.412 -0.4505 -0.8084 -2.0092
    3CHTO  C121  897   6.568   1.359   2.287  0.0502 -0.7477 -0.0170
    3CHTO  H225  898   6.472   1.355   2.343  0.0550  1.9585  0.2111
    3CHTO   O81  899   6.526   1.404   2.156  0.4561 -0.2421 -0.8192
    3CHTO  H202  900   6.512   1.497   2.157  1.3237 -0.1098  0.1109
    3CHTO  C119  901   6.628   1.219   2.273 -0.1904 -0.3963  0.6185
    3CHTO  H223  902   6.615   1.180   2.374  1.9029 -0.4424  0.8756
    3CHTO  C117  903   6.780   1.232   2.239 -0.1980  0.2358 -0.0661
    3CHTO  H221  904   6.804   1.280   2.144 -1.1845  0.9433  0.0301
    3CHTO   N20  905   6.840   1.098   2.224 -0.5432  0.4927 -0.2961
    3CHTO  H209  906   6.770   1.016   2.238  0.3626 -0.8288 -3.1090
    3CHTO  H210  907   6.858   1.086   2.118 -0.2073 -0.3105 -0.1588
    3CHTO   O80  908   6.530   1.116   2.183  0.6070 -0.3739  0.3037
    3CHTO  C103  909   6.380   1.091   2.233  0.3041 -0.0957 -0.1759
    3CHTO  H190  910   6.372   1.108   2.341 -1.3086  0.2406 -0.3293
    3CHTO  C101  911   6.259   1.177   2.160  0.3596 -1.0620  0.0768
    3CHTO  H188  912   6.268   1.172   2.052 -0.2762  0.5081 -0.0555
    3CHTO   O68  913   6.254   1.329   2.205  0.4507 -0.0350  1.0265
    3CHTO  H168  914   6.342   1.359   2.193  0.2223 -0.5600 -2.3663
    3CHTO   C99  915   6.114   1.102   2.181 -0.7623 -0.4358 -0.6638
    3CHTO  H186  916   6.085   1.111   2.288  0.3114 -1.4686 -0.2712
    3CHTO   N17  917   5.998   1.164   2.106  0.2588  0.2386 -0.1315
    3CHTO  H174  918   5.989   1.261   2.152 -0.4986 -0.6462  1.6232
    3CHTO  H175  919   5.907   1.107   2.117  1.3107 -1.4014  0.2195
    3CHTO   C97  920   6.123   0.951   2.156 -0.1798  0.1812  0.0516
    3CHTO  H184  921   6.152   0.930   2.052  0.8137 -2.3055  0.7746
    3CHTO   O64  922   6.226   0.899   2.245  0.3367  0.3644  0.0950
    3CHTO  C104  923   6.360   0.932   2.210 -0.1084 -0.3579  0.3472
    3CHTO  H191  924   6.374   0.907   2.105 -0.9519  1.8070 -0.3071
    3CHTO  C108  925   6.456   0.848   2.291 -0.1666 -0.2716 -0.3992
    3CHTO   O71  926   6.579   0.812   2.237 -0.3350 -0.4060  0.5060
    3CHTO  H171  927   6.566   0.742   2.177 -0.2446  1.7738 -2.1309
    3CHTO   O62  928   6.013   0.870   2.196  0.5802  0.4536 -0.2086
    3CHTO   C91  929   5.978   0.759   2.121 -0.4097  0.1986  0.2079
    3CHTO  H178  930   6.061   0.756   2.051 -0.4157  2.8019  0.0453
    3CHTO   C92  931   5.835   0.776   2.058 -0.3016  1.0508  0.2487
    3CHTO  H179  932   5.759   0.797   2.134  0.6869  1.1249  1.2167
    3CHTO   O66  933   5.847   0.888   1.966 -0.2040  0.1652 -0.4993
    3CHTO  H166  934   5.878   0.965   2.011 -0.5849 -0.4484  0.8304
    3CHTO   C93  935   5.798   0.651   1.965  0.1209  0.0211  0.8235
    3CHTO  H180  936   5.860   0.669   1.876  0.5117 -0.5015  0.9857
    3CHTO   N16  937   5.660   0.660   1.917 -0.3792 -0.2889  0.1642
    3CHTO  H172  938   5.651   0.595   1.831  0.4362  0.2081 -0.3018
    3CHTO  H173  939   5.630   0.760   1.892 -0.0602  1.1548  5.0276
    3CHTO   C94  940   5.828   0.512   2.028  0.6536  0.3438 -0.1786
    3CHTO  H181  941   5.742   0.472   2.082  1.0325 -0.9225 -0.5076
    3CHTO   O61  942   5.947   0.506   2.110 -0.0493 -0.5235 -0.0081
    3CHTO   C95  943   5.983   0.619   2.197  0.2915  0.2583  0.1758
    3CHTO  H182  944   5.910   0.619   2.278 -0.8294 -1.8098 -0.7915
    3CHTO  C106  945   6.126   0.587   2.264 -0.2429 -0.3269 -0.3689
    3CHTO   O69  946   6.136   0.456   2.326  0.0733  0.7978 -0.0022
    3CHTO  H169  947   6.065   0.407   2.289 -0.5789 -0.0408  2.2929
    3CHTO   O63  948   5.849   0.414   1.905 -0.1064 -0.0929  0.2849
    3CHTO   C96  949   5.786   0.264   1.908 -0.5240 -0.1513  0.4983
    3CHTO  H183  950   5.816   0.230   1.809 -0.4903  1.1391  0.0588
    3CHTO   C98  951   5.634   0.266   1.906 -0.1888  0.2701  0.2819
    3CHTO  H185  952   5.602   0.333   1.987  2.0817 -0.4093  1.7933
    3CHTO   O67  953   5.587   0.318   1.781  0.1722 -0.1321  0.0609
    3CHTO  H167  954   5.522   0.384   1.798  0.4245 -0.0550  0.7487
    3CHTO  C102  955   5.575   0.120   1.930 -0.5617 -0.0759 -0.3060
    3CHTO  H189  956   5.610   0.065   1.841 -1.6530 -0.3077 -0.5937
    3CHTO   N18  957   5.426   0.112   1.930 -0.8034  0.5911 -0.1526
    3CHTO  H176  958   5.393   0.210   1.962 -1.2242  0.2500  0.4516
    3CHTO  H177  959   5.382   0.036   1.992  0.2838 -0.8708 -1.1542
    3CHTO  C105  960   5.645   0.059   2.053  0.1420 -0.7364 -0.6402
    3CHTO  H192  961   5.622   0.118   2.142 -0.1347 -2.1325  0.2324
    3CHTO   O65  962   5.789   0.052   2.038 -0.0560 -0.5678  0.2899
    3CHTO  C100  963   5.847   0.182   2.034  1.4094  0.0022  0.0225
    3CHTO  H187  964   5.813   0.235   2.125  0.2268 -0.4896 -0.1256
    3CHTO  C107  965   5.999   0.177   2.023 -0.5785  0.0057 -0.0086
    3CHTO   O70  966   6.053   0.105   2.140 -0.7523  0.5530  0.7621
    3CHTO  H170  967   6.143   0.126   2.152 -0.2785 -0.6795 -0.6157
    3CHTO   O57  968   5.571  -0.091   2.069 -0.0998 -0.7587 -0.4013
    3CHTO   C85  969   5.552  -0.157   2.195 -0.1050 -0.4281  0.7714
    3CHTO  H157  970   5.529  -0.263   2.169  0.4599 -0.7959  1.7541
    3CHTO   C83  971   5.413  -0.109   2.250 -0.1724 -0.3807 -0.3059
    3CHTO  H155  972   5.333  -0.149   2.187  0.4381  0.0858 -1.3782
    3CHTO   O56  973   5.400   0.034   2.240 -0.5417  0.5170  0.2543
    3CHTO  H135  974   5.311   0.055   2.223 -0.7144  0.0235  0.5286
    3CHTO   C81  975   5.394  -0.165   2.390 -0.4687  0.3580 -0.2900
    3CHTO  H153  976   5.398  -0.274   2.386  3.2802  0.3370  1.6966
    3CHTO   N14  977   5.259  -0.140   2.446  0.1899  0.2950 -0.1949
    3CHTO  H141  978   5.248  -0.034   2.445  3.2622  0.6587 -0.8719
    3CHTO  H142  979   5.185  -0.181   2.380 -0.4259  0.6727  0.2548
    3CHTO   C79  980   5.510  -0.121   2.488  0.2149 -0.2759  0.5927
    3CHTO  H151  981   5.487  -0.170   2.583 -0.8375 -1.1616 -0.1065
    3CHTO   O52  982   5.638  -0.167   2.442  0.3463  0.3013 -1.2001
    3CHTO   C86  983   5.666  -0.145   2.302  0.4699 -0.5439  0.2936
    3CHTO  H158  984   5.699  -0.039   2.307 -0.5787 -0.2318  0.7388
    3CHTO   C90  985   5.784  -0.226   2.269 -0.2632 -0.4573  0.5400
    3CHTO   O60  986   5.851  -0.200   2.148 -0.3864 -0.5420 -0.5213
    3CHTO  H138  987   5.898  -0.119   2.147 -1.7870  0.3153  0.3250
    3CHTO   O50  988   5.518   0.026   2.500 -0.0573 -0.2103 -0.3776
    3CHTO   C73  989   5.535   0.141   2.577  0.7056 -0.1640 -0.6887
    3CHTO  H145  990   5.621   0.130   2.644  0.0790 -1.2338 -0.0525
    3CHTO   C74  991   5.404   0.155   2.664 -0.2903  0.1394 -0.0535
    3CHTO  H146  992   5.385   0.061   2.718  1.8774 -0.4788 -0.3125
    3CHTO   O54  993   5.436   0.255   2.768 -0.2786  0.4544  0.0592
    3CHTO  H133  994   5.360   0.249   2.822 -0.2419  1.5111  0.2336
    3CHTO   C75  995   5.285   0.197   2.563  0.0275 -0.1245  0.4938
    3CHTO  H147  996   5.265   0.110   2.499  0.0133 -0.3302  0.7738
    3CHTO   N13  997   5.147   0.231   2.625 -0.1614 -0.3131  0.9512
    3CHTO  H139  998   5.172   0.299   2.705  0.4161 -0.9651  1.3298
    3CHTO  H140  999   5.077   0.280   2.559  1.1880 -1.1929 -1.2059
    3CHTO   C76 1000   5.328   0.312   2.468  0.6996  0.6890 -0.4871
    3CHTO  H148 1001   5.343   0.401   2.529  1.7665 -1.7818  2.9662
    3CHTO   O49 1002   5.446   0.279   2.396 -0.1549  0.1199 -0.4161
    3CHTO   C77 1003   5.557   0.260   2.488  0.5328 -0.2396 -0.0466
    3CHTO  H149 1004   5.574   0.347   2.551 -0.8160  1.0929 -1.4701
    3CHTO   C88 1005   5.683   0.246   2.400 -0.0119  0.7171 -0.1447
    3CHTO   O58 1006   5.691   0.359   2.313 -0.8887  0.4528 -0.0126
    3CHTO  H136 1007   5.721   0.333   2.228  2.3070 -0.6008  1.3694
    3CHTO   O51 1008   5.223   0.331   2.353 -0.3421 -0.4350  0.0072
    3CHTO   C78 1009   5.202   0.502   2.317 -0.1735  0.5698 -0.0450
    3CHTO  H150 1010   5.276   0.565   2.370 -0.2813  0.5595  0.1174
    3CHTO   C80 1011   5.056   0.538   2.360 -0.1407  0.2411  0.0798
    3CHTO  H152 1012   4.984   0.470   2.310 -1.5893  1.7649  0.0583
    3CHTO   O55 1013   5.036   0.515   2.505 -0.1010 -0.7493  0.1959
    3CHTO  H134 1014   5.055   0.592   2.556 -1.4914 -1.0848  1.2751
    3CHTO   C84 1015   5.011   0.690   2.334  0.0720 -0.4408 -0.3840
    3CHTO  H156 1016   5.075   0.740   2.407  0.1465  0.4796 -1.0725
    3CHTO   N15 1017   4.869   0.714   2.361  0.3569 -0.3964  0.2851
    3CHTO  H143 1018   4.846   0.817   2.342 -1.0962 -0.7399  0.0973
    3CHTO  H144 1019   4.812   0.651   2.297  0.1901  1.4330 -1.4230
    3CHTO   C87 1020   5.050   0.738   2.193  0.4959 -0.2732 -0.3297
    3CHTO  H159 1021   4.970   0.718   2.122 -0.9905  1.4596  0.7981
    3CHTO   O53 1022   5.186   0.656   2.131  0.2164  0.5953  0.3266
    3CHTO   C82 1023   5.209   0.517   2.166  0.5128 -0.3128  0.0061
    3CHTO  H154 1024   5.141   0.448   2.116  0.2810  0.6654 -1.0722
    3CHTO   C89 1025   5.357   0.477   2.122  0.0841 -0.0253 -0.0653
    3CHTO   O59 1026   5.378   0.474   1.983  0.3855  0.3120  0.8619
    3CHTO  H137 1027   5.469   0.480   1.960 -0.0121  1.0373 -0.6230
    3CHTO   O45 1028   5.101   0.901   2.185  0.1937  0.5838  0.4490
    3CHTO   C67 1029   5.231   0.922   2.243 -0.6796 -0.2037  0.2706
    3CHTO  H124 1030   5.257   0.826   2.289 -3.1149 -1.5192 -1.0125
    3CHTO   C65 1031   5.339   0.952   2.133 -0.4184 -0.0920  0.6402
    3CHTO  H122 1032   5.287   0.992   2.046 -1.5682 -0.6086  1.0808
    3CHTO   O44 1033   5.406   0.826   2.099 -0.0752  0.2129 -0.2391
    3CHTO  H102 1034   5.457   0.854   2.026 -2.8181  0.4242 -2.1710
    3CHTO   C63 1035   5.444   1.072   2.170  0.3592 -0.2290 -0.0046
    3CHTO  H120 1036   5.388   1.166   2.180  0.6120  0.0446 -1.1347
    3CHTO   N11 1037   5.533   1.110   2.063 -0.2833  0.2891  0.5439
    3CHTO  H108 1038   5.561   1.212   2.080  0.5327  0.0315  0.7494
    3CHTO  H109 1039   5.486   1.073   1.974  0.4121  0.0926  0.2590
    3CHTO   C61 1040   5.503   1.046   2.312  0.5521 -0.4908  0.0492
    3CHTO  H118 1041   5.548   1.144   2.333 -1.6710  0.6150 -0.1608
    3CHTO   O40 1042   5.387   1.034   2.403  0.1811 -0.3638  0.3621
    3CHTO   C68 1043   5.241   1.026   2.360 -0.0386 -0.1046  0.0090
    3CHTO  H125 1044   5.213   1.121   2.309 -0.5214 -0.4786 -0.4194
    3CHTO   C72 1045   5.140   1.006   2.481 -0.3970 -0.1865 -0.1131
    3CHTO   O48 1046   5.144   1.118   2.568 -0.0737  0.6240 -0.3039
    3CHTO  H105 1047   5.114   1.090   2.653 -0.6279  1.6046 -0.1748
    3CHTO   O38 1048   5.603   0.944   2.309 -0.0182 -0.4135 -0.4334
    3CHTO   C55 1049   5.655   0.882   2.430  0.7601  0.2450  0.8567
    3CHTO  H112 1050   5.589   0.902   2.516  1.6654 -0.7894  1.8060
    3CHTO   C56 1051   5.798   0.939   2.453 -0.7728  0.7591 -0.2366
    3CHTO  H113 1052   5.854   0.931   2.359  0.4535 -2.2017  0.6806
    3CHTO   O42 1053   5.794   1.079   2.479 -0.0361 -0.5209  0.4906
    3CHTO  H100 1054   5.767   1.092   2.568  2.4498  0.0147  1.1918
    3CHTO   C57 1055   5.874   0.863   2.569 -0.1420  0.9163  0.2540
    3CHTO  H114 1056   5.854   0.898   2.670  3.6157 -1.6333  2.0088
    3CHTO   N10 1057   6.020   0.888   2.570 -0.4028  0.7978  0.1693
    3CHTO  H106 1058   6.045   0.974   2.631 -1.2486  1.2173 -0.0679
    3CHTO  H107 1059   6.090   0.810   2.592 -0.2708  0.9694  0.3662
    3CHTO   C58 1060   5.840   0.708   2.559 -0.2733 -0.5354  0.1723
    3CHTO  H115 1061   5.900   0.667   2.475  1.7312  1.8842  0.3410
    3CHTO   O37 1062   5.713   0.665   2.537  0.1114  0.5808 -0.1321
    3CHTO   C59 1063   5.653   0.726   2.420  0.0853 -0.6977 -0.7750
    3CHTO  H116 1064   5.706   0.677   2.338  0.0992 -1.3160 -0.4064
    3CHTO   C70 1065   5.512   0.672   2.398 -0.8443  0.1862  0.0029
    3CHTO   O46 1066   5.417   0.738   2.479  0.7588 -0.4810  0.0168
    3CHTO  H103 1067   5.438   0.828   2.493 -1.3026 -0.4197  3.3365
    3CHTO   O39 1068   5.888   0.629   2.687 -0.2600  0.5886 -0.3281
    3CHTO   C60 1069   5.908   0.487   2.682  0.1368 -0.0819 -0.0440
    3CHTO  H117 1070   5.852   0.443   2.599  0.9350  0.7817 -1.0625
    3CHTO   C62 1071   6.056   0.459   2.654  0.2918 -0.4898  0.1475
    3CHTO  H119 1072   6.080   0.515   2.561  0.6809 -0.8085  0.0553
    3CHTO   O43 1073   6.132   0.518   2.760 -0.1434 -0.1264 -0.7848
    3CHTO  H101 1074   6.221   0.537   2.737 -0.7660  2.3245 -1.3696
    3CHTO   C66 1075   6.083   0.300   2.632 -0.0630  0.2394  0.5612
    3CHTO  H123 1076   6.027   0.273   2.543  2.0093 -3.2289  0.2053
    3CHTO   N12 1077   6.230   0.277   2.598 -0.4026 -0.2657  0.5826
    3CHTO  H110 1078   6.250   0.266   2.493 -1.0250 -0.9572  0.5296
    3CHTO  H111 1079   6.277   0.190   2.642  0.5010 -1.6398 -2.9457
    3CHTO   C69 1080   6.038   0.222   2.758 -0.3134 -0.2949 -0.0587
    3CHTO  H126 1081   6.104   0.239   2.845  1.7837  0.1422 -1.6956
    3CHTO   O41 1082   5.894   0.263   2.796 -0.2481  0.1560 -0.8558
    3CHTO   C64 1083   5.869   0.411   2.809  0.2327  0.0291  0.0387
    3CHTO  H121 1084   5.925   0.450   2.897  1.7513 -0.9792 -0.4699
    3CHTO   C71 1085   5.719   0.427   2.845 -0.2616  0.8974  0.2138
    3CHTO   O47 1086   5.696   0.381   2.976  0.1990 -0.7644 -0.4537
    3CHTO  H104 1087   5.615   0.414   3.009  0.4775  0.5467 -1.0506
    3CHTO   O34 1088   6.037   0.067   2.740  0.4801 -0.9195 -0.6935
    3CHTO   C49 1089   6.104  -0.072   2.726  0.1849 -0.6345  0.2084
    3CHTO   H91 1090   6.157  -0.067   2.631 -0.4021 -2.5865 -0.2496
    3CHTO   C47 1091   5.984  -0.172   2.703 -0.3743 -0.5838 -0.3858
    3CHTO   H89 1092   5.944  -0.140   2.605 -0.6383  1.3095  0.3138
    3CHTO   O33 1093   5.883  -0.152   2.798  0.0884  0.1467 -0.5987
    3CHTO   H70 1094   5.808  -0.196   2.762  0.2365  0.4564 -1.2870
    3CHTO   C45 1095   6.035  -0.325   2.705  0.0933  0.9142 -0.2401
    3CHTO   H87 1096   6.012  -0.368   2.804 -1.2107  2.3617  0.1036
    3CHTO    N8 1097   5.953  -0.400   2.610 -0.3962  0.5547 -0.1923
    3CHTO   H75 1098   5.855  -0.355   2.609 -1.0041 -0.7492 -1.6584
    3CHTO   H76 1099   5.948  -0.505   2.635 -1.2082  0.4555 -0.7655
    3CHTO   C43 1100   6.200  -0.337   2.699 -0.0053  0.0471 -0.4797
    3CHTO   H85 1101   6.224  -0.443   2.709 -0.8571 -0.1035 -0.0224
    3CHTO   O29 1102   6.265  -0.254   2.802 -0.0714  0.3389  0.5431
    3CHTO   C50 1103   6.202  -0.125   2.830  0.0906 -0.6566  0.2587
    3CHTO   H92 1104   6.149  -0.127   2.926 -0.3750  2.1989  0.1193
    3CHTO   C54 1105   6.316  -0.018   2.859  0.5270  0.9033 -0.1251
    3CHTO   O36 1106   6.366  -0.033   2.991  0.0634 -0.5178 -0.4173
    3CHTO   H72 1107   6.302  -0.025   3.059  1.2592  0.1328  0.6484
    3CHTO   O27 1108   6.249  -0.289   2.571  0.8398  0.2585  0.2784
    3CHTO   C37 1109   6.356  -0.227   2.500 -0.4275  0.5439  0.3758
    3CHTO   H79 1110   6.376  -0.123   2.530  0.5592  0.5440 -0.2516
    3CHTO   C38 1111   6.496  -0.309   2.528 -0.1526 -0.6527 -0.2024
    3CHTO   H80 1112   6.477  -0.415   2.504  1.2762 -1.0099  0.2435
    3CHTO   O31 1113   6.524  -0.296   2.671  0.1039 -0.4333 -0.0416
    3CHTO   H68 1114   6.596  -0.351   2.695  2.9491  3.1923  0.0607
    3CHTO   C39 1115   6.612  -0.269   2.431  0.0001 -0.4913 -0.5225
    3CHTO   H81 1116   6.648  -0.168   2.450 -0.3371 -0.6973  1.3116
    3CHTO    N7 1117   6.737  -0.356   2.446  0.6215 -0.4001  0.5197
    3CHTO   H73 1118   6.730  -0.458   2.412 -0.9498  0.9717 -3.6352
    3CHTO   H74 1119   6.824  -0.301   2.413  2.1471 -0.0791  4.7968
    3CHTO   C40 1120   6.566  -0.273   2.279  0.7057 -0.3671 -0.1789
    3CHTO   H82 1121   6.546  -0.376   2.247 -0.3751 -0.2003 -0.0516
    3CHTO   O26 1122   6.452  -0.191   2.273  0.8519  0.4371  0.1750
    3CHTO   C41 1123   6.333  -0.223   2.348 -0.3193 -0.4557 -0.8048
    3CHTO   H83 1124   6.296  -0.325   2.333 -0.0903 -0.6200 -0.2820
    3CHTO   C52 1125   6.228  -0.119   2.297  0.1148  0.0181  0.0799
    3CHTO   O35 1126   6.241   0.032   2.347  0.1812 -0.6756  0.2425
    3CHTO   H71 1127   6.316   0.045   2.402  0.2827 -0.5532  0.0771
    3CHTO   O28 1128   6.656  -0.215   2.182  0.1082  0.3948 -0.0481
    3CHTO   C42 1129   6.671  -0.079   2.128  0.5780  0.2903 -0.3444
    3CHTO   H84 1130   6.757  -0.078   2.062  1.2195  0.1561  0.4832
    3CHTO   C44 1131   6.704   0.029   2.235  0.2871 -0.1257 -0.1246
    3CHTO   H86 1132   6.619   0.034   2.303  0.4149 -2.0174  0.1989
    3CHTO   O32 1133   6.814  -0.026   2.310 -0.0745 -0.3948 -0.8338
    3CHTO   H69 1134   6.776  -0.100   2.353  1.0358  0.3228  1.4833
    3CHTO   C48 1135   6.727   0.167   2.175  0.0481 -0.1790 -0.3618
    3CHTO   H90 1136   6.825   0.161   2.126 -0.0272  0.6276 -0.6288
    3CHTO    N9 1137   6.748   0.271   2.282 -0.5748  0.6164 -0.6965
    3CHTO   H77 1138   6.666   0.267   2.352  0.2165 -4.0730  0.1696
    3CHTO   H78 1139   6.772   0.372   2.253 -0.3451  0.9337  0.5704
    3CHTO   C51 1140   6.612   0.206   2.065 -0.1342 -0.1732 -0.3600
    3CHTO   H93 1141   6.520   0.243   2.110  1.1528  2.0666  0.5387
    3CHTO   O30 1142   6.592   0.100   1.976 -0.2031  0.3342  0.6700
    3CHTO   C46 1143   6.546  -0.029   2.046 -0.7504  0.3320  0.3897
    3CHTO   H88 1144   6.462  -0.003   2.111 -1.5437  1.5129 -1.0899
    3CHTO   C53 1145   6.500  -0.123   1.931 -1.1808  0.4007  0.3952
    3CHTO   O72 1146   6.450  -0.256   1.967 -0.2625  0.1033 -0.1514
    3CHTO  H199 1147   6.449  -0.314   1.894 -1.1460  0.6297 -0.5637
    3CHTO   O22 1148   6.666   0.306   1.978  0.5241 -0.0850  0.5206
    3CHTO   C31 1149   6.589   0.424   1.925  0.1377  0.5372  0.8467
    3CHTO   H59 1150   6.622   0.426   1.819 -1.6763  1.0897  0.2725
    3CHTO   C29 1151   6.432   0.416   1.927  0.8899 -0.1338 -0.1057
    3CHTO   H57 1152   6.398   0.407   2.031  2.4695 -0.2993  0.4019
    3CHTO   O21 1153   6.396   0.299   1.856  1.1107  0.1586  0.1781
    3CHTO   H37 1154   6.305   0.278   1.862  1.0735 -0.0018 -0.8937
    3CHTO   C27 1155   6.360   0.543   1.864 -0.4539  0.1698 -0.1492
    3CHTO   H55 1156   6.384   0.549   1.757 -2.4032  0.3725 -0.5969
    3CHTO    N5 1157   6.213   0.555   1.882 -0.4805 -0.1906 -0.2112
    3CHTO   H43 1158   6.167   0.478   1.943 -1.7929 -0.6046 -1.6748
    3CHTO   H44 1159   6.159   0.518   1.796 -0.5977  0.1061 -0.2673
    3CHTO   C25 1160   6.435   0.678   1.913  0.0160  0.0436 -0.7826
    3CHTO   H53 1161   6.400   0.707   2.012  0.0050  2.4923 -1.4840
    3CHTO   O17 1162   6.576   0.659   1.897 -0.4289 -0.0224 -0.5911
    3CHTO   C32 1163   6.634   0.558   1.978  0.4857  0.3504 -0.3055
    3CHTO   H60 1164   6.610   0.565   2.084  0.1516  3.2362 -0.5436
    3CHTO   C36 1165   6.790   0.576   1.971  0.0215  0.1157 -0.4631
    3CHTO   O25 1166   6.828   0.560   1.838 -0.1947  0.2817  0.0325
    3CHTO   H40 1167   6.885   0.633   1.822 -0.2645  0.7461  1.7901
    3CHTO   O15 1168   6.407   0.798   1.827  0.0935  0.0125  0.2349
    3CHTO   C19 1169   6.390   0.862   1.695 -0.2992 -0.1233 -0.1791
    3CHTO   H47 1170   6.353   0.781   1.630 -0.7802 -0.9262  1.0601
    3CHTO   C20 1171   6.281   0.972   1.699 -0.2296  0.5236  0.1526
    3CHTO   H48 1172   6.302   1.043   1.781 -0.2576 -1.6665  2.0872
    3CHTO   O19 1173   6.158   0.905   1.730 -0.6440 -0.0249 -0.5614
    3CHTO   H35 1174   6.129   0.924   1.817  0.9734  0.9857 -0.2125
    3CHTO   C21 1175   6.257   1.049   1.564 -0.3619 -0.5619 -0.3581
    3CHTO   H49 1176   6.221   0.977   1.490  1.1173 -3.1886  1.4184
    3CHTO    N4 1177   6.163   1.165   1.565  0.0553  0.3305 -0.2769
    3CHTO   H41 1178   6.164   1.221   1.657  0.4085 -2.0349  1.2260
    3CHTO   H42 1179   6.172   1.227   1.477  2.0660 -1.8284 -1.6622
    3CHTO   C22 1180   6.398   1.085   1.497  0.6472  0.3351 -0.1425
    3CHTO   H50 1181   6.432   1.163   1.565  1.3722  0.6404 -0.8588
    3CHTO   O14 1182   6.495   0.977   1.500 -0.0933  0.4118  0.7277
    3CHTO   C23 1183   6.521   0.918   1.633  0.0695 -0.5235 -0.2839
    3CHTO   H51 1184   6.557   1.002   1.695 -2.0204 -0.2444  0.6293
    3CHTO   C34 1185   6.624   0.804   1.625 -0.6404 -0.7629 -0.2724
    3CHTO   O23 1186   6.751   0.859   1.595  0.6058  0.1437  0.4212
    3CHTO   H38 1187   6.817   0.794   1.606  0.9498  0.6427  1.2965
    3CHTO   O16 1188   6.391   1.116   1.359  0.4736  0.3122 -0.6206
    3CHTO   C24 1189   6.436   1.272   1.316 -0.1193  0.2383 -0.5190
    3CHTO   H52 1190   6.435   1.341   1.400  1.2440  0.8417 -0.9866
    3CHTO   C26 1191   6.332   1.330   1.214 -0.0767  0.1839 -0.1754
    3CHTO   H54 1192   6.307   1.251   1.141  0.5141 -1.6087  1.5275
    3CHTO   O20 1193   6.210   1.346   1.296 -0.5015 -0.4943 -0.0646
    3CHTO   H36 1194   6.179   1.261   1.316 -1.0490 -0.4189 -0.5723
    3CHTO   C30 1195   6.383   1.460   1.140 -0.5420  0.4149 -0.1658
    3CHTO   H58 1196   6.365   1.549   1.202 -0.4619  1.9669 -2.3061
    3CHTO    N6 1197   6.304   1.474   1.018  0.1150 -0.0929  0.3892
    3CHTO   H45 1198   6.221   1.543   1.031 -0.0714 -0.1815 -0.2859
    3CHTO   H46 1199   6.368   1.509   0.938 -2.7685 -0.2821 -2.0960
    3CHTO   C33 1200   6.533   1.455   1.109  0.3397 -0.1687  0.9930
    3CHTO   H61 1201   6.551   1.377   1.033 -0.5390  0.3872  0.2035
    3CHTO   O18 1202   6.604   1.416   1.225 -0.0829 -0.1497  0.3684
    3CHTO   C28 1203   6.582   1.277   1.256  0.5905  0.6240 -0.9374
    3CHTO   H56 1204   6.590   1.204   1.175  1.3938 -1.6580  1.1223
    3CHTO   C35 1205   6.693   1.246   1.359  0.0513  0.6705  0.8646
    3CHTO   O24 1206   6.733   1.109   1.378 -0.0287  0.5117  0.1010
    3CHTO   H39 1207   6.790   1.082   1.309 -1.8861 -2.2594 -0.4300
    3CHTO    O9 1208   6.583   1.577   1.050  0.3323 -0.0881 -0.1097
    3CHTO   C13 1209   6.643   1.678   1.156 -0.1246  0.0775  0.1524
    3CHTO   H26 1210   6.600   1.654   1.255  0.0456 -1.7096 -0.1856
    3CHTO   C11 1211   6.606   1.824   1.119 -0.3461 -0.1379 -0.6641
    3CHTO   H24 1212   6.497   1.832   1.112 -0.2130 -0.6821 -3.9631
    3CHTO    O8 1213   6.663   1.852   0.993  0.7725  0.5985 -0.3947
    3CHTO    H3 1214   6.651   1.945   0.987 -0.1219  0.5296  0.1808
    3CHTO    C9 1215   6.663   1.912   1.234 -0.4393  0.4393 -0.0856
    3CHTO   H22 1216   6.616   1.872   1.326  2.0953 -0.0971  1.0060
    3CHTO    N2 1217   6.626   2.057   1.216 -0.7706 -0.3859 -0.6944
    3CHTO   H10 1218   6.629   2.116   1.306 -0.5203  0.1520 -1.0493
    3CHTO   H11 1219   6.686   2.108   1.142 -0.0161 -0.4887 -0.1604
    3CHTO    C7 1220   6.822   1.887   1.259 -0.4832  0.0126 -0.1312
    3CHTO   H20 1221   6.844   1.919   1.363 -1.7295  0.0152  0.1421
    3CHTO    O4 1222   6.861   1.750   1.263  0.1942  0.1611 -0.2188
    3CHTO   C14 1223   6.798   1.651   1.174  0.2407 -0.3720 -0.4003
    3CHTO   H27 1224   6.809   1.555   1.230 -1.5856 -0.8540 -0.8442
    3CHTO   C18 1225   6.879   1.638   1.038  0.2399  0.5468  0.1183
    3CHTO   O13 1226   6.832   1.523   0.964 -0.4504 -0.5004  0.2478
    3CHTO    H7 1227   6.836   1.535   0.871 -0.6776  0.9639  0.4200
    3CHTO    O2 1228   6.933   1.980   1.170  0.0154 -0.0983  0.4677
    3CHTO    C1 1229   7.077   1.952   1.170 -0.2142 -0.1714  0.4393
    3CHTO   H14 1230   7.088   1.842   1.163 -0.9019 -0.4119  2.6728
    3CHTO    C2 1231   7.160   2.002   1.303  0.7404 -0.1479 -0.1030
    3CHTO   H15 1232   7.124   2.104   1.319  0.2685 -0.3468  0.1024
    3CHTO    O6 1233   7.114   1.918   1.415 -0.5503 -0.3309  0.3510
    3CHTO    H1 1234   7.171   1.844   1.427  0.5088  0.7974  2.5047
    3CHTO    C3 1235   7.324   1.998   1.275 -0.5968  0.6360 -0.4355
    3CHTO   H16 1236   7.347   1.892   1.259  2.1674  1.2183 -0.5109
    3CHTO    N1 1237   7.407   2.037   1.394  0.0466 -0.2911 -1.1508
    3CHTO    H8 1238   7.414   1.957   1.466  1.0794 -1.6338 -2.6910
    3CHTO    H9 1239   7.357   2.118   1.444 -1.9555 -1.3297 -1.4140
    3CHTO    C4 1240   7.357   2.074   1.142  0.1012 -0.3899 -0.3348
    3CHTO   H17 1241   7.323   2.177   1.152  3.1390  0.8021 -1.5069
    3CHTO    O1 1242   7.280   2.011   1.038  0.1999  0.0731  0.2333
    3CHTO    C5 1243   7.140   2.010   1.040 -0.3191 -0.2018  0.4578
    3CHTO   H18 1244   7.107   2.114   1.035  0.9630  0.2583  1.3054
    3CHTO   C16 1245   7.101   1.932   0.914 -0.0737  0.3416 -0.1819
    3CHTO   O11 1246   6.961   1.943   0.886 -0.2483 -0.0455 -0.0153
    3CHTO    H5 1247   6.900   1.904   0.945  0.6356  2.0899  2.3956
    3CHTO    O3 1248   7.497   2.079   1.109 -0.2607  0.0581  0.4096
    3CHTO    C6 1249   7.541   2.172   1.006 -0.6231 -0.0427 -0.5644
    3CHTO   H19 1250   7.460   2.210   0.944 -0.3727  0.5441 -0.5281
    3CHTO    C8 1251   7.615   2.294   1.076 -0.0951  0.5939 -0.3737
    3CHTO   H21 1252   7.680   2.246   1.150  0.4523  1.8597 -0.0336
    3CHTO    O7 1253   7.512   2.373   1.144 -0.2627 -0.0595 -0.3651
    3CHTO    H2 1254   7.462   2.308   1.190 -0.3750 -0.6735 -1.3346
    3CHTO   C12 1255   7.696   2.378   0.967 -0.4685 -0.6964  0.0352
    3CHTO   H25 1256   7.625   2.441   0.909  1.3639  0.3386 -1.1138
    3CHTO    N3 1257   7.780   2.487   1.034  0.2763  0.9994  0.9014
    3CHTO   H12 1258   7.779   2.575   0.972 -2.2170 -0.0376 -0.6411
    3CHTO   H13 1259   7.884   2.463   1.049  0.6658 -1.2329 -4.2314
    3CHTO   C15 1260   7.782   2.280   0.875  0.5108 -0.2677  0.0792
    3CHTO   H28 1261   7.870   2.242   0.926 -1.4099 -2.2184  2.0198
    3CHTO   O10 1262   7.839   2.340   0.748  0.7719  0.2580 -0.3216
    3CHTO    H4 1263   7.872   2.427   0.758  1.6815 -0.1152 -0.0031
    3CHTO    O5 1264   7.703   2.176   0.817  0.9779 -0.3475  0.2504
    3CHTO   C10 1265   7.635   2.089   0.908 -0.3294 -0.2351 -0.5482
    3CHTO   H23 1266   7.705   2.029   0.966 -1.2196  1.4256  2.3379
    3CHTO   C17 1267   7.546   1.997   0.822  0.5808 -0.1818 -0.1555
    3CHTO   O12 1268   7.623   1.936   0.717  0.0192 -0.4278  0.4334
    3CHTO    H6 1269   7.564   1.881   0.669 -1.7250  1.5688  0.1779
    4CHTO  H203 1270   5.364   7.160   2.691 -0.0873  0.2669 -0.0395
    4CHTO   O82 1271   5.448   7.185   2.726 -0.1669  0.4962 -0.0186
    4CHTO  C123 1272   5.444   7.326   2.748 -0.5082 -0.2656  0.3230
    4CHTO  H227 1273   5.354   7.352   2.806 -0.8400  1.3755 -0.8902
    4CHTO   O77 1274   5.571   7.377   2.811 -0.1652 -0.3664 -0.1924
    4CHTO  C118 1275   5.559   7.514   2.869  0.8224  1.0054  0.1139
    4CHTO  H222 1276   5.462   7.530   2.918 -0.1803  1.2568 -1.8886
    4CHTO  C125 1277   5.674   7.547   2.972 -0.3643 -0.2406  0.2756
    4CHTO   O84 1278   5.656   7.472   3.089 -0.0670  0.0460 -0.0276
    4CHTO  H205 1279   5.572   7.480   3.132  0.6432 -1.3106  1.7060
    4CHTO  C114 1280   5.561   7.609   2.749  0.0639  0.0721  0.5017
    4CHTO  H218 1281   5.660   7.602   2.705  0.7497  2.4542  1.5630
    4CHTO  C116 1282   5.441   7.565   2.653  0.0819  0.2600  0.5100
    4CHTO  H220 1283   5.344   7.593   2.700 -1.0108  0.8024 -1.9972
    4CHTO   O79 1284   5.454   7.647   2.536  0.4949  0.2098  0.1609
    4CHTO  H201 1285   5.471   7.733   2.570  0.9459  0.2325 -0.1126
    4CHTO  C120 1286   5.440   7.410   2.615  0.6864 -0.8893 -0.2807
    4CHTO  H224 1287   5.532   7.385   2.557  1.7446 -0.6628  1.2676
    4CHTO   N21 1288   5.319   7.379   2.531  0.0105  0.2878 -0.2297
    4CHTO  H211 1289   5.234   7.361   2.595 -1.3433  1.7165 -1.5802
    4CHTO  H212 1290   5.296   7.450   2.453  1.6598 -0.8160 -1.7568
    4CHTO   O75 1291   5.527   7.735   2.809  0.3124 -0.2616 -0.0437
    4CHTO  C112 1292   5.588   7.865   2.735  0.0866 -0.2000 -0.8651
    4CHTO  H216 1293   5.589   7.839   2.629  0.2800 -0.8496 -0.7083
    4CHTO   O73 1294   5.718   7.880   2.792  0.5015  0.2844  0.3068
    4CHTO  C113 1295   5.787   7.998   2.738  0.2862  0.4070  0.3790
    4CHTO  H217 1296   5.801   7.988   2.628 -1.3690 -2.1210  0.3707
    4CHTO  C124 1297   5.925   8.010   2.790  0.1035 -0.0651  0.2031
    4CHTO   O83 1298   5.947   7.956   2.918  0.2158 -0.2342  0.1522
    4CHTO  H204 1299   6.033   7.982   2.944 -0.3621  1.1823  0.6837
    4CHTO  C109 1300   5.710   8.136   2.740 -0.0644 -0.0633  0.6746
    4CHTO  H213 1301   5.719   8.176   2.843 -1.6083  0.1786  0.7283
    4CHTO  C110 1302   5.562   8.115   2.701  0.0194  0.3715  0.0674
    4CHTO  H214 1303   5.560   8.110   2.592  2.4172 -0.2609  0.0195
    4CHTO   O78 1304   5.498   8.238   2.742  0.4965 -0.2660  0.1084
    4CHTO  H200 1305   5.441   8.287   2.686  1.2743  1.5478  0.8605
    4CHTO  C111 1306   5.501   7.988   2.757 -0.4889 -0.0276 -0.2128
    4CHTO  H215 1307   5.485   8.003   2.865  1.3449 -1.4469  0.2772
    4CHTO   N19 1308   5.368   7.969   2.703 -0.3190  0.2048 -0.4235
    4CHTO  H207 1309   5.309   8.049   2.745 -1.0135 -1.0297  0.9771
    4CHTO  H208 1310   5.322   7.880   2.741 -0.6589  0.9373  0.9044
    4CHTO   O74 1311   5.775   8.225   2.648  0.1165  0.0205 -0.5048
    4CHTO  C115 1312   5.725   8.391   2.651  0.6603  0.8108  0.0373
    4CHTO  H219 1313   5.631   8.409   2.600  0.9979  3.9706  0.3971
    4CHTO   O76 1314   5.699   8.443   2.815  0.5423  0.1044 -0.5118
    4CHTO  C122 1315   5.691   8.585   2.848 -0.3073  0.2776 -0.0532
    4CHTO  H226 1316   5.705   8.592   2.956 -2.2693  3.0207  0.0767
    4CHTO  C126 1317   5.557   8.647   2.815 -0.0675 -0.2726  0.4862
    4CHTO   O85 1318   5.548   8.783   2.865  0.4820 -0.0754  0.7864
    4CHTO  H206 1319   5.487   8.832   2.814  2.4257  0.8956 -0.6879
    4CHTO  C121 1320   5.811   8.651   2.772 -0.4913 -0.6130 -0.0116
    4CHTO  H225 1321   5.810   8.759   2.798  1.4087 -0.3775 -0.8427
    4CHTO   O81 1322   5.933   8.610   2.823 -0.1801  0.0694  0.4979
    4CHTO  H202 1323   6.001   8.639   2.765 -0.8367  2.1027  0.7071
    4CHTO  C119 1324   5.799   8.629   2.616 -0.2800  0.9007  0.4119
    4CHTO  H223 1325   5.696   8.650   2.587 -0.2866  0.7237  0.3054
    4CHTO  C117 1326   5.830   8.479   2.585 -0.4320 -0.2269 -0.0981
    4CHTO  H221 1327   5.928   8.450   2.622  0.8146  2.5058 -1.1437
    4CHTO   N20 1328   5.835   8.454   2.438 -0.1266  0.2554  0.1218
    4CHTO  H209 1329   5.736   8.440   2.397 -0.8412  0.0061  1.9206
    4CHTO  H210 1330   5.906   8.525   2.397 -0.4525  0.0387 -0.8492
    4CHTO   O80 1331   5.884   8.746   2.536  0.7258 -0.0969 -0.5250
    4CHTO  C103 1332   6.023   8.786   2.573 -0.0960 -1.3365  0.0380
    4CHTO  H190 1333   6.039   8.778   2.680  0.6467  0.2722  0.0599
    4CHTO  C101 1334   6.148   8.728   2.492  0.5478  0.3769 -0.2510
    4CHTO  H188 1335   6.135   8.735   2.384 -1.8139 -1.0367 -0.0875
    4CHTO   O68 1336   6.156   8.582   2.523 -0.3308  0.3276  1.2068
    4CHTO  H168 1337   6.218   8.561   2.590  1.6927  1.1203 -0.3604
    4CHTO   C99 1338   6.280   8.803   2.538  0.8411 -0.2580 -0.0113
    4CHTO  H186 1339   6.281   8.808   2.649 -1.6129  1.8439 -0.0617
    4CHTO   N17 1340   6.404   8.743   2.493 -0.5544 -0.0110  0.9620
    4CHTO  H174 1341   6.422   8.727   2.387  0.4326  0.4004  1.0651
    4CHTO  H175 1342   6.487   8.791   2.543  1.6328 -1.1051 -1.4872
    4CHTO   C97 1343   6.259   8.953   2.487  0.5175 -0.4174 -0.8210
    4CHTO  H184 1344   6.242   8.947   2.378 -2.5565 -0.2298 -0.4027
    4CHTO   O64 1345   6.144   9.015   2.558  0.1849  0.5151 -0.5529
    4CHTO  C104 1346   6.019   8.948   2.534 -0.2554 -1.0085  0.0478
    4CHTO  H191 1347   5.993   8.960   2.429 -1.2568 -0.7263  0.3228
    4CHTO  C108 1348   5.911   9.021   2.615  0.4631  0.1695  0.1840
    4CHTO   O71 1349   5.906   9.169   2.597 -0.2683  0.1022 -0.3414
    4CHTO  H171 1350   5.861   9.212   2.667 -0.0602 -1.6893  0.9088
    4CHTO   O62 1351   6.364   9.035   2.539 -0.6114  0.3767  0.2355
    4CHTO   C91 1352   6.419   9.121   2.447  0.1328  1.0632  0.4782
    4CHTO  H178 1353   6.387   9.080   2.352 -0.3025  2.4769  0.0048
    4CHTO   C92 1354   6.574   9.109   2.445  0.0068  0.8865  0.3592
    4CHTO  H179 1355   6.613   9.130   2.546  0.1304  1.9430  0.0965
    4CHTO   O66 1356   6.615   8.966   2.427 -0.0144  0.1650  0.2312
    4CHTO  H166 1357   6.576   8.920   2.356  1.0712  0.2188 -0.4099
    4CHTO   C93 1358   6.630   9.196   2.331  0.3012  0.2004  0.6662
    4CHTO  H180 1359   6.611   9.129   2.246  2.1008  0.3897  0.0881
    4CHTO   N16 1360   6.781   9.212   2.338 -0.3117 -0.0146  0.0992
    4CHTO  H172 1361   6.800   9.290   2.265 -0.3483  0.1521  0.2703
    4CHTO  H173 1362   6.816   9.251   2.432 -0.3495 -1.4127  0.6919
    4CHTO   C94 1363   6.549   9.332   2.302  0.3714  0.2995  0.6808
    4CHTO  H181 1364   6.614   9.417   2.282 -2.1314  1.8471 -1.1993
    4CHTO   O61 1365   6.463   9.362   2.413  0.1825 -0.1297 -0.0869
    4CHTO   C95 1366   6.364   9.269   2.459 -0.3846 -0.1543  0.1235
    4CHTO  H182 1367   6.344   9.284   2.565  1.6200  1.0239  0.3515
    4CHTO  C106 1368   6.231   9.290   2.388  0.0249 -0.1539 -0.1049
    4CHTO   O69 1369   6.172   9.424   2.386 -0.0288 -0.2717 -0.1406
    4CHTO  H169 1370   6.079   9.425   2.392 -0.1228  0.1562 -1.5825
    4CHTO   O63 1371   6.449   9.320   2.162  0.0867 -0.2178  0.3051
    4CHTO   C96 1372   6.523   9.287   2.035  0.8619  0.3856  0.1763
    4CHTO  H183 1373   6.608   9.225   2.065 -0.9997 -1.2920  2.0767
    4CHTO   C98 1374   6.552   9.417   1.946 -0.2026 -0.0895  0.1516
    4CHTO  H185 1375   6.463   9.479   1.932 -0.0489  0.4116  1.3522
    4CHTO   O67 1376   6.638   9.497   2.030  0.3211 -0.1051 -0.7354
    4CHTO  H167 1377   6.669   9.564   1.972 -1.4983 -0.0060 -1.6317
    4CHTO  C102 1378   6.623   9.374   1.813 -0.0893 -0.2753 -0.3648
    4CHTO  H189 1379   6.725   9.346   1.841 -1.1701 -1.7157  2.2952
    4CHTO   N18 1380   6.635   9.488   1.714 -0.5625 -0.3420 -0.2500
    4CHTO  H176 1381   6.661   9.454   1.615 -1.7301 -0.8491 -0.3898
    4CHTO  H177 1382   6.554   9.559   1.721 -0.8832 -0.8351  1.1289
    4CHTO  C105 1383   6.554   9.256   1.747  0.0296  0.2762 -0.0959
    4CHTO  H192 1384   6.471   9.289   1.684  2.3620  1.9949 -2.3761
    4CHTO   O65 1385   6.519   9.146   1.848 -0.2458  0.1782 -0.0087
    4CHTO  C100 1386   6.431   9.181   1.953  0.4988  0.3195  0.7452
    4CHTO  H187 1387   6.340   9.222   1.907 -0.4194 -2.5829 -0.1180
    4CHTO  C107 1388   6.397   9.057   2.035  0.1946 -0.0689 -0.0061
    4CHTO   O70 1389   6.275   9.055   2.103 -0.0352  0.6195  0.4829
    4CHTO  H170 1390   6.295   9.001   2.176 -0.1373  2.1720  1.6978
    4CHTO   O57 1391   6.658   9.190   1.639 -0.6620  0.3409  0.1741
    4CHTO   C85 1392   6.619   9.118   1.521  0.6034 -0.0924 -0.9141
    4CHTO  H157 1393   6.511   9.143   1.517  1.0669  2.6091  1.3597
    4CHTO   C83 1394   6.641   8.965   1.564  0.0649 -0.4244 -0.4666
    4CHTO  H155 1395   6.583   8.950   1.655  1.6987  0.3889  0.7143
    4CHTO   O56 1396   6.782   8.943   1.595  0.2043  0.5344 -0.4646
    4CHTO  H135 1397   6.824   9.011   1.644  2.3981 -0.3839 -1.0212
    4CHTO   C81 1398   6.585   8.885   1.444 -0.0732  0.2239  0.4703
    4CHTO  H153 1399   6.483   8.916   1.419 -1.5100 -2.9374  2.1255
    4CHTO   N14 1400   6.576   8.744   1.479  0.2988 -0.4311  0.4262
    4CHTO  H141 1401   6.552   8.690   1.390  0.2947 -0.4700  0.4511
    4CHTO  H142 1402   6.506   8.718   1.556  0.8235  0.0212  1.0714
    4CHTO   C79 1403   6.675   8.909   1.318  0.3465 -0.1078  0.0791
    4CHTO  H151 1404   6.628   8.852   1.238  2.4117 -2.6154  0.5864
    4CHTO   O52 1405   6.668   9.052   1.278 -0.2429  0.0447  0.3267
    4CHTO   C86 1406   6.696   9.149   1.387 -0.3957 -0.3638  0.3711
    4CHTO  H158 1407   6.806   9.144   1.392 -0.4836 -0.8470  2.2982
    4CHTO   C90 1408   6.658   9.292   1.334 -0.2471 -0.4454 -0.0507
    4CHTO   O60 1409   6.519   9.319   1.349  0.3027 -0.1617 -0.0089
    4CHTO  H138 1410   6.490   9.371   1.276  2.7099 -1.4345 -1.9652
    4CHTO   O50 1411   6.814   8.867   1.331  0.0733 -0.3273 -0.2357
    4CHTO   C73 1412   6.930   8.856   1.247 -0.0885 -0.4425  0.2652
    4CHTO  H145 1413   6.984   8.951   1.247 -2.2955  0.9116 -2.8843
    4CHTO   C74 1414   6.884   8.832   1.098  0.4750 -0.5539 -0.5128
    4CHTO  H146 1415   6.822   8.919   1.075 -1.5725 -1.5208  1.1121
    4CHTO   O54 1416   6.997   8.838   1.008  0.5029 -0.3605 -0.1297
    4CHTO  H133 1417   6.970   8.860   0.920  0.0690  3.8543  0.9407
    4CHTO   C75 1418   6.802   8.693   1.086  0.5060  0.0041 -0.0358
    4CHTO  H147 1419   6.711   8.702   1.146  0.8061 -1.9673  0.7557
    4CHTO   N13 1420   6.750   8.661   0.951  0.4291 -0.4186 -0.1619
    4CHTO  H139 1421   6.692   8.746   0.916  2.1295  1.6552  1.8703
    4CHTO  H140 1422   6.830   8.652   0.879 -1.7292 -1.9922 -2.4392
    4CHTO   C76 1423   6.891   8.576   1.151 -0.1100  0.3322 -0.1410
    4CHTO  H148 1424   6.978   8.566   1.087  1.6311  1.9084  1.8895
    4CHTO   O49 1425   6.934   8.612   1.290  0.4397  0.4447  0.1561
    4CHTO   C77 1426   7.016   8.737   1.298 -0.5410  0.3866  1.5153
    4CHTO  H149 1427   7.117   8.747   1.258 -0.7559 -0.9131  0.6400
    4CHTO   C88 1428   7.048   8.769   1.448  0.4720 -0.2303 -0.2747
    4CHTO   O58 1429   7.112   8.643   1.528 -0.3654  0.5049  0.5816
    4CHTO  H136 1430   7.112   8.648   1.621  1.2069 -1.6278  0.7417
    4CHTO   O51 1431   6.815   8.433   1.152  0.0203 -0.4881  0.3558
    4CHTO   C78 1432   6.895   8.304   1.113  0.3809 -0.3884 -0.0693
    4CHTO  H150 1433   7.003   8.328   1.118  0.4140 -0.3472 -0.8327
    4CHTO   C80 1434   6.860   8.256   0.970  0.5085 -0.4076 -0.4196
    4CHTO  H152 1435   6.749   8.250   0.967  0.4721  0.5099 -0.8888
    4CHTO   O55 1436   6.914   8.353   0.881 -0.6181 -0.3213 -0.2019
    4CHTO  H134 1437   6.905   8.322   0.793  1.2619 -2.0585  0.1704
    4CHTO   C84 1438   6.916   8.113   0.930 -0.0117  0.3623  0.3661
    4CHTO  H156 1439   7.022   8.125   0.907  0.3269 -1.1936  1.0167
    4CHTO   N15 1440   6.862   8.055   0.801 -0.4729 -0.4493 -0.3739
    4CHTO  H143 1441   6.755   8.053   0.789 -0.3741 -2.5690 -1.3060
    4CHTO  H144 1442   6.899   7.956   0.786  0.5015 -0.1474  0.0666
    4CHTO   C87 1443   6.902   8.017   1.054  0.3741  0.2452 -0.4176
    4CHTO  H159 1444   6.798   7.988   1.068  0.3792  0.1856 -0.5073
    4CHTO   O53 1445   6.940   8.085   1.172  0.4128  0.0861  0.2013
    4CHTO   C82 1446   6.860   8.193   1.215  0.5656 -0.8730  0.0420
    4CHTO  H154 1447   6.756   8.171   1.238  0.0250  1.6658  0.1558
    4CHTO   C89 1448   6.928   8.232   1.354 -0.2783 -0.7981  0.0201
    4CHTO   O59 1449   6.835   8.301   1.431 -0.5534 -0.0937 -0.3627
    4CHTO  H137 1450   6.880   8.363   1.484  1.7352 -0.5967 -1.6402
    4CHTO   O45 1451   7.013   7.879   1.043  0.2751 -0.2641  0.3157
    4CHTO   C67 1452   6.954   7.769   0.971 -0.5194  0.1357  0.2341
    4CHTO  H124 1453   6.916   7.800   0.874 -0.1586  1.7256  0.5896
    4CHTO   C65 1454   7.068   7.667   0.956  0.2153  0.9833  0.3111
    4CHTO  H122 1455   7.152   7.725   0.918 -0.3600  0.1066 -2.4724
    4CHTO   O44 1456   7.034   7.562   0.859  0.4704  0.3825 -0.2133
    4CHTO  H102 1457   7.021   7.591   0.771  0.9396  0.4399 -0.2635
    4CHTO   C63 1458   7.119   7.616   1.092 -0.6058  0.0989  0.7944
    4CHTO  H120 1459   7.148   7.703   1.152 -0.9665  1.1667 -0.5647
    4CHTO   N11 1460   7.249   7.531   1.095 -0.1060 -0.2144 -0.4178
    4CHTO  H108 1461   7.244   7.481   1.189  0.2231 -0.4728 -0.5366
    4CHTO  H109 1462   7.339   7.588   1.084 -0.9558  1.0735 -0.8411
    4CHTO   C61 1463   7.001   7.560   1.182 -0.5955  0.3433 -0.9970
    4CHTO  H118 1464   7.039   7.581   1.283 -1.1123  0.0131 -0.7351
    4CHTO   O40 1465   6.873   7.638   1.174 -0.4054 -0.7288 -0.2294
    4CHTO   C68 1466   6.830   7.710   1.052  0.5613 -0.2154 -0.3435
    4CHTO  H125 1467   6.762   7.794   1.077 -1.1453 -1.2429 -1.4540
    4CHTO   C72 1468   6.746   7.610   0.973  0.5815 -0.0479  0.3704
    4CHTO   O48 1469   6.617   7.597   1.031  0.4242  0.0494 -0.0143
    4CHTO  H105 1470   6.593   7.508   1.016 -1.0747 -0.0007  2.4573
    4CHTO   O38 1471   6.972   7.417   1.168 -0.4420 -0.0511  0.0223
    4CHTO   C55 1472   6.910   7.349   1.281  0.0534 -0.4384 -0.3538
    4CHTO  H112 1473   6.849   7.417   1.341  1.0530 -0.1180  0.3061
    4CHTO   C56 1474   7.021   7.277   1.368  0.4261 -0.0487 -0.2070
    4CHTO  H113 1475   7.080   7.215   1.299 -0.4660 -2.6127  1.2770
    4CHTO   O42 1476   7.111   7.377   1.423 -0.0824 -0.1008  0.2303
    4CHTO  H100 1477   7.116   7.458   1.375  0.2689  0.0855  0.5802
    4CHTO   C57 1478   6.959   7.190   1.483  0.1778 -0.0415 -0.0991
    4CHTO  H114 1479   6.915   7.265   1.548  1.9290  1.3908 -0.5326
    4CHTO   N10 1480   7.053   7.101   1.561 -0.4117 -0.5235  0.1332
    4CHTO  H106 1481   7.035   7.114   1.667  2.6782 -1.4779  0.8373
    4CHTO  H107 1482   7.158   7.120   1.545 -0.1407  0.5625  2.8925
    4CHTO   C58 1483   6.844   7.102   1.430  0.0183 -0.0044 -0.1869
    4CHTO  H115 1484   6.889   7.028   1.359  2.8477  0.1783  1.3519
    4CHTO   O37 1485   6.751   7.183   1.354  0.8013 -0.3647 -0.2621
    4CHTO   C59 1486   6.806   7.246   1.237 -0.6550 -0.5594 -0.4306
    4CHTO  H116 1487   6.861   7.179   1.171 -0.3732  1.3291 -2.1618
    4CHTO   C70 1488   6.692   7.314   1.162  0.2793 -0.3328  0.0903
    4CHTO   O46 1489   6.582   7.228   1.127 -0.1014 -0.1961  0.3429
    4CHTO  H103 1490   6.554   7.256   1.043  0.2670  1.4626  0.7614
    4CHTO   O39 1491   6.758   7.030   1.546  0.3167 -0.2982  0.2129
    4CHTO   C60 1492   6.689   6.908   1.515 -0.7074 -0.0216  0.1039
    4CHTO  H117 1493   6.664   6.920   1.410 -0.9217 -0.8108  0.0612
    4CHTO   C62 1494   6.779   6.785   1.533 -0.0869 -0.5603 -0.0749
    4CHTO  H119 1495   6.858   6.793   1.455  1.5014 -2.5700  1.2599
    4CHTO   O43 1496   6.848   6.787   1.657  0.4008 -0.5714 -0.4817
    4CHTO  H101 1497   6.927   6.736   1.653 -0.2650 -1.4711 -2.6320
    4CHTO   C66 1498   6.701   6.651   1.519  0.1999  0.1638 -0.3424
    4CHTO  H123 1499   6.669   6.640   1.415 -1.4888  0.5361  0.1171
    4CHTO   N12 1500   6.771   6.525   1.549 -0.3644  0.4181 -0.0859
    4CHTO  H110 1501   6.872   6.555   1.574 -0.0229 -2.2484  1.9964
    4CHTO  H111 1502   6.777   6.475   1.453  2.8397 -1.2505  0.8829
    4CHTO   C69 1503   6.560   6.656   1.587  0.2835 -0.4655  0.7570
    4CHTO  H126 1504   6.576   6.666   1.697  0.2785  3.8562  0.4767
    4CHTO   O41 1505   6.492   6.781   1.556  0.0794 -0.8154  0.3092
    4CHTO   C64 1506   6.552   6.893   1.590 -0.0081  0.3319  0.1805
    4CHTO  H121 1507   6.563   6.889   1.700 -1.5285 -0.7740  0.2892
    4CHTO   C71 1508   6.465   7.012   1.541  0.4268  0.1288 -0.7128
    4CHTO   O47 1509   6.335   7.014   1.599 -0.1657 -0.1259  0.3083
    4CHTO  H104 1510   6.290   6.936   1.572  0.9149 -1.0215  1.0361
    4CHTO   O34 1511   6.467   6.534   1.545  0.0393  0.0359 -0.2741
    4CHTO   C49 1512   6.317   6.489   1.468  0.3999  0.3041  0.3763
    4CHTO   H91 1513   6.245   6.565   1.498 -3.5891 -2.6962 -1.2021
    4CHTO   C47 1514   6.278   6.350   1.517  0.0366  0.7126  0.2696
    4CHTO   H89 1515   6.176   6.331   1.477 -0.7161 -0.4222  2.6292
    4CHTO   O33 1516   6.270   6.350   1.661 -0.1927 -0.3062  0.2495
    4CHTO   H70 1517   6.186   6.383   1.686 -0.7153  1.1686 -3.2226
    4CHTO   C45 1518   6.394   6.244   1.470  0.1465 -0.3068  0.2664
    4CHTO   H87 1519   6.473   6.248   1.547  1.6692  0.2169 -1.2745
    4CHTO    N8 1520   6.327   6.111   1.482  0.3008  0.7713  0.5689
    4CHTO   H75 1521   6.281   6.083   1.389 -0.7671 -0.7162  1.5122
    4CHTO   H76 1522   6.403   6.046   1.525 -0.0758  0.5379  0.8811
    4CHTO   C43 1523   6.461   6.291   1.332 -0.0727 -0.5598 -0.1898
    4CHTO   H85 1524   6.546   6.355   1.357  0.7871 -1.1060 -1.6329
    4CHTO   O29 1525   6.366   6.363   1.249  0.6289  0.1622 -0.4279
    4CHTO   C50 1526   6.322   6.488   1.312 -0.5188 -0.5937  0.2679
    4CHTO   H92 1527   6.394   6.563   1.277 -1.1790  1.0225  2.2742
    4CHTO   C54 1528   6.190   6.522   1.254  0.8561  0.3532  0.1721
    4CHTO   O36 1529   6.137   6.656   1.274  0.2923  0.6395 -0.2558
    4CHTO   H72 1530   6.065   6.647   1.332  0.7885  1.1262  0.4465
    4CHTO   O27 1531   6.515   6.174   1.267 -0.4315 -0.0182 -0.1113
    4CHTO   C37 1532   6.638   6.107   1.234  0.1602 -0.3270 -0.2756
    4CHTO   H79 1533   6.643   6.080   1.127 -1.3992 -1.3701 -0.1056
    4CHTO   C38 1534   6.749   6.216   1.260  0.4164  0.5885 -0.7685
    4CHTO   H80 1535   6.743   6.262   1.360  0.5007 -0.9267 -0.0499
    4CHTO   O31 1536   6.715   6.313   1.159  0.1703  0.2847  0.7653
    4CHTO   H68 1537   6.778   6.382   1.160  1.3267 -0.7298  0.0519
    4CHTO   C39 1538   6.894   6.152   1.244  0.1256  0.3055  0.4091
    4CHTO   H81 1539   6.905   6.131   1.138 -2.1547 -0.0783  0.2452
    4CHTO    N7 1540   6.997   6.248   1.276 -0.1610  0.3582  0.2713
    4CHTO   H73 1541   7.047   6.231   1.370  1.0395 -2.3634 -0.8108
    4CHTO   H74 1542   7.085   6.247   1.213  1.2185 -3.4661  2.0607
    4CHTO   C40 1543   6.910   6.019   1.327 -0.3052  0.2645  0.1422
    4CHTO   H82 1544   6.901   6.043   1.433  1.1841  0.4910  0.2185
    4CHTO   O26 1545   6.801   5.933   1.288  0.2968  0.5406 -0.2525
    4CHTO   C41 1546   6.665   5.988   1.321  0.0621  0.2596 -0.3820
    4CHTO   H83 1547   6.655   6.008   1.428 -0.0892 -0.0967 -0.3314
    4CHTO   C52 1548   6.561   5.879   1.290  0.0304 -0.1592 -0.2116
    4CHTO   O35 1549   6.574   5.797   1.162 -0.5363  0.5205 -0.0272
    4CHTO   H71 1550   6.560   5.861   1.095 -0.9353  0.9159  0.4330
    4CHTO   O28 1551   7.024   5.944   1.294  0.1745 -0.4662 -0.0637
    4CHTO   C42 1552   7.079   5.832   1.381 -0.1034  0.0697 -0.9827
    4CHTO   H84 1553   7.172   5.808   1.328  0.1346 -0.4135 -0.3503
    4CHTO   C44 1554   6.985   5.699   1.386  0.4819 -0.3853  0.1400
    4CHTO   H86 1555   6.885   5.732   1.415  0.2351 -0.2267 -0.8485
    4CHTO   O32 1556   6.998   5.644   1.254  0.9881  0.0617 -0.7965
    4CHTO   H69 1557   6.934   5.681   1.196 -0.2713 -3.2470 -1.6459
    4CHTO   C48 1558   7.045   5.603   1.498 -0.4475  0.1930 -0.0463
    4CHTO   H90 1559   7.135   5.558   1.457  0.3188  1.2995  0.3824
    4CHTO    N9 1560   6.952   5.491   1.514 -0.0456 -0.0042  0.0884
    4CHTO   H77 1561   6.865   5.517   1.573  0.2581  1.3108 -0.0415
    4CHTO   H78 1562   7.009   5.402   1.537  0.9228  0.7503  0.6229
    4CHTO   C51 1563   7.061   5.680   1.634  0.5146  0.8401 -0.0656
    4CHTO   H93 1564   6.968   5.728   1.664 -0.7998 -1.2807 -0.5883
    4CHTO   O30 1565   7.169   5.775   1.616 -0.6029 -0.4848  0.1234
    4CHTO   C46 1566   7.128   5.892   1.525 -0.8135 -0.0303  0.5456
    4CHTO   H88 1567   7.052   5.951   1.576 -0.1459  1.3780 -0.0651
    4CHTO   C53 1568   7.255   5.971   1.496 -0.5222  0.0243  0.5828
    4CHTO   O72 1569   7.299   6.022   1.619 -0.5150  0.3193  0.2996
    4CHTO  H199 1570   7.393   6.021   1.618 -0.4579  2.1950  1.6162
    4CHTO   O22 1571   7.109   5.595   1.742  0.0632 -0.3012  0.2816
    4CHTO   C31 1572   7.074   5.622   1.883 -0.5184  0.2093 -0.2175
    4CHTO   H59 1573   6.998   5.703   1.880 -0.5286  0.2389  0.7447
    4CHTO   C29 1574   7.001   5.504   1.948 -1.1844 -0.3863  0.3267
    4CHTO   H57 1575   7.063   5.413   1.940  1.1210  1.2339 -0.7159
    4CHTO   O21 1576   6.892   5.479   1.863  0.5799 -0.2457 -0.0623
    4CHTO   H37 1577   6.915   5.486   1.773 -0.1458  2.9410 -0.0642
    4CHTO   C27 1578   6.954   5.526   2.096  0.3529 -0.5849 -0.2058
    4CHTO   H55 1579   6.860   5.583   2.090 -1.3798 -3.3909 -0.8118
    4CHTO    N5 1580   6.921   5.401   2.172  0.3016 -0.1701  0.3615
    4CHTO   H43 1581   6.813   5.400   2.179  0.2699 -2.6873  0.1066
    4CHTO   H44 1582   6.964   5.404   2.272 -4.3132  0.9646  2.4474
    4CHTO   C25 1583   7.063   5.609   2.176 -0.1046 -0.2118  0.2611
    4CHTO   H53 1584   7.152   5.545   2.188  0.9487  1.2850  0.5775
    4CHTO   O17 1585   7.117   5.723   2.102  0.5902 -0.2711 -0.5676
    4CHTO   C32 1586   7.186   5.672   1.984 -0.0883 -0.9344  0.2494
    4CHTO   H60 1587   7.253   5.590   2.010 -1.8216 -2.2760  0.5839
    4CHTO   C36 1588   7.282   5.796   1.943  0.1060  0.2212 -0.2027
    4CHTO   O25 1589   7.210   5.905   1.889 -0.7617 -0.6360  0.1171
    4CHTO   H40 1590   7.224   5.974   1.950  0.0166 -1.9530  1.4674
    4CHTO   O15 1591   7.003   5.647   2.308  0.2797 -0.3629 -0.0948
    4CHTO   C19 1592   6.974   5.718   2.436 -0.2095 -0.0113 -0.0438
    4CHTO   H47 1593   6.897   5.655   2.484  0.4338  0.4374  1.6214
    4CHTO   C20 1594   7.092   5.729   2.542  0.2210 -0.1813  0.7864
    4CHTO   H48 1595   7.181   5.772   2.494 -0.6610 -1.3430 -1.9857
    4CHTO   O19 1596   7.128   5.595   2.586  0.3083 -0.4618  0.2980
    4CHTO   H35 1597   7.086   5.552   2.658 -1.6348 -0.6753 -0.9339
    4CHTO   C21 1598   7.048   5.809   2.668 -0.6078  0.4550 -0.8190
    4CHTO   H49 1599   6.963   5.758   2.714 -1.6712  1.5745 -1.4872
    4CHTO    N4 1600   7.147   5.816   2.783  0.1028 -0.1859  0.4225
    4CHTO   H41 1601   7.243   5.834   2.738 -0.0893  0.5510  0.2912
    4CHTO   H42 1602   7.150   5.731   2.850  0.8061  0.8088  1.6917
    4CHTO   C22 1603   6.996   5.945   2.608  0.2401 -0.1088 -0.0478
    4CHTO   H50 1604   7.081   5.973   2.546 -0.2489  3.2992  0.7346
    4CHTO   O14 1605   6.876   5.907   2.542 -0.0754 -0.5090  0.1536
    4CHTO   C23 1606   6.908   5.858   2.414  0.3410  0.2431  0.5798
    4CHTO   H51 1607   6.971   5.926   2.354  0.3043  1.6365  2.0909
    4CHTO   C34 1608   6.773   5.843   2.352 -0.3787  0.0119 -0.5554
    4CHTO   O23 1609   6.769   5.799   2.215 -0.1079  0.0841 -0.2059
    4CHTO   H38 1610   6.680   5.773   2.201  0.6667 -0.7585 -4.1867
    4CHTO   O16 1611   6.954   6.048   2.691 -0.3309 -0.4708 -0.7297
    4CHTO   C24 1612   6.965   6.189   2.649 -0.7358  0.2224 -0.1191
    4CHTO   H52 1613   6.968   6.201   2.541 -2.9547  0.7028 -0.1604
    4CHTO   C26 1614   7.089   6.245   2.723  0.5523  0.2734  0.1062
    4CHTO   H54 1615   7.075   6.222   2.831 -2.9559 -0.8071 -0.5137
    4CHTO   O20 1616   7.210   6.185   2.677 -0.2609  0.3277  0.4216
    4CHTO   H36 1617   7.223   6.220   2.591  0.4036 -0.8714  0.0332
    4CHTO   C30 1618   7.101   6.401   2.712 -0.9120 -0.0968 -0.3349
    4CHTO   H58 1619   7.140   6.429   2.613 -0.8685  1.1388  0.0175
    4CHTO    N6 1620   7.208   6.459   2.796  0.1942 -0.2836 -0.2401
    4CHTO   H45 1621   7.296   6.491   2.742  0.2163 -0.8544 -0.5510
    4CHTO   H46 1622   7.167   6.543   2.850  1.2521  0.1744 -0.1532
    4CHTO   C33 1623   6.958   6.469   2.735 -0.2653 -0.4682  0.2568
    4CHTO   H61 1624   6.937   6.478   2.842  0.5738 -0.0743  0.3925
    4CHTO   O18 1625   6.857   6.399   2.664 -0.1397 -0.1266  0.2019
    4CHTO   C28 1626   6.839   6.263   2.705  0.5397 -0.4363  0.2108
    4CHTO   H56 1627   6.831   6.260   2.814 -1.2744 -0.2125  0.1020
    4CHTO   C35 1628   6.713   6.211   2.642 -0.3180 -0.3861 -0.0479
    4CHTO   O24 1629   6.686   6.082   2.707 -1.0575  0.1492 -0.1404
    4CHTO   H39 1630   6.618   6.039   2.659 -0.1224 -0.2548 -1.1235
    4CHTO    O9 1631   6.970   6.612   2.689 -0.4456  0.9736 -0.0057
    4CHTO   C13 1632   6.866   6.711   2.696 -0.1902  0.1851  0.1154
    4CHTO   H26 1633   6.775   6.654   2.723  0.3592 -1.4222 -1.3663
    4CHTO   C11 1634   6.846   6.792   2.556 -0.2658  0.2771  0.4833
    4CHTO   H24 1635   6.804   6.721   2.484  0.9294  0.4990 -0.4502
    4CHTO    O8 1636   6.969   6.854   2.506  0.0739  0.4189  0.4932
    4CHTO    H3 1637   6.967   6.856   2.413  2.2053  0.8879  0.4391
    4CHTO    C9 1638   6.744   6.907   2.578 -0.0589  0.9524 -0.2999
    4CHTO   H22 1639   6.652   6.851   2.601  0.1137  0.3957 -0.9326
    4CHTO    N2 1640   6.713   6.977   2.454  0.0094 -0.4858  0.4941
    4CHTO   H10 1641   6.638   7.054   2.468 -0.2233 -0.6834  0.3375
    4CHTO   H11 1642   6.796   7.018   2.398 -1.9298  2.8820 -0.0409
    4CHTO    C7 1643   6.784   6.997   2.701  0.2032  0.1888 -0.3278
    4CHTO   H20 1644   6.692   7.057   2.713 -2.7515 -3.7617 -1.8528
    4CHTO    O4 1645   6.795   6.912   2.820 -0.1723  0.2188  0.2352
    4CHTO   C14 1646   6.889   6.805   2.821 -0.0991 -0.0707 -0.1476
    4CHTO   H27 1647   6.862   6.743   2.910 -1.6180 -0.8472 -1.1178
    4CHTO   C18 1648   7.038   6.849   2.837 -0.0482  0.3078 -0.3614
    4CHTO   O13 1649   7.067   6.915   2.962 -0.4876  0.4413  0.0248
    4CHTO    H7 1650   7.045   6.858   3.033 -1.7244  0.5387 -0.2702
    4CHTO    O2 1651   6.939   7.104   2.683  0.1734  0.5136  0.2866
    4CHTO    C1 1652   6.914   7.239   2.628  0.0195  0.4737  0.0518
    4CHTO   H14 1653   6.808   7.241   2.597  0.0377  0.5738 -0.0029
    4CHTO    C2 1654   7.010   7.273   2.505  0.0474  0.0180  0.9414
    4CHTO   H15 1655   7.116   7.254   2.526  0.7411  1.0426 -1.4444
    4CHTO    O6 1656   6.971   7.171   2.412 -0.0591  0.7596 -0.1835
    4CHTO    H1 1657   6.922   7.202   2.338 -4.5509  0.1877  2.3810
    4CHTO    C3 1658   6.978   7.424   2.456 -0.1438  0.0775 -0.2609
    4CHTO   H16 1659   6.871   7.424   2.433 -0.0730 -0.8429 -0.6046
    4CHTO    N1 1660   7.055   7.476   2.339  0.2414 -0.3305 -0.0561
    4CHTO    H8 1661   6.999   7.553   2.289 -0.1070 -0.6298 -0.1245
    4CHTO    H9 1662   7.158   7.501   2.362  0.1508 -0.8429  0.9325
    4CHTO    C4 1663   6.993   7.521   2.575 -0.8552  0.3189  0.3958
    4CHTO   H17 1664   7.098   7.530   2.604 -0.2615 -2.6948 -0.7368
    4CHTO    O1 1665   6.915   7.481   2.690  0.0775  0.3814  0.2835
    4CHTO    C5 1666   6.933   7.350   2.736 -0.4583 -0.6272  0.1387
    4CHTO   H18 1667   7.037   7.352   2.769 -1.2852 -1.8722  3.0728
    4CHTO   C16 1668   6.844   7.323   2.859 -0.3472  0.0897  0.3246
    4CHTO   O11 1669   6.901   7.228   2.952  0.0896  0.4763  0.9454
    4CHTO    H5 1670   6.964   7.271   3.007  1.1325 -0.9905  0.9294
    4CHTO    O3 1671   6.949   7.650   2.544  0.0168 -0.1319 -0.2967
    4CHTO    C6 1672   7.015   7.753   2.621 -0.1002  0.2266  0.0942
    4CHTO   H19 1673   7.066   7.707   2.706 -0.5346 -1.9703 -0.8030
    4CHTO    C8 1674   7.124   7.821   2.533 -0.1289 -0.4388 -0.8358
    4CHTO   H21 1675   7.072   7.858   2.444 -2.8616  0.7688  1.2055
    4CHTO    O7 1676   7.226   7.718   2.505 -0.1474  0.2831 -0.4870
    4CHTO    H2 1677   7.309   7.761   2.498 -1.0726  2.0103 -1.3977
    4CHTO   C12 1678   7.192   7.945   2.608  0.6135 -0.1225 -0.8563
    4CHTO   H25 1679   7.236   7.912   2.704 -1.0405 -3.6003 -1.1868
    4CHTO    N3 1680   7.302   8.007   2.528 -0.2631 -0.0444  0.2307
    4CHTO   H12 1681   7.352   7.933   2.468  0.6347  1.1801 -0.5407
    4CHTO   H13 1682   7.371   8.058   2.594 -0.8778 -2.1283  2.5952
    4CHTO   C15 1683   7.074   8.046   2.645  0.5748  0.1365  0.3561
    4CHTO   H28 1684   7.026   8.069   2.550  5.1391  1.2743 -1.8464
    4CHTO   O10 1685   7.112   8.175   2.731 -0.2445  0.4535 -0.0693
    4CHTO    H4 1686   7.044   8.238   2.745 -0.5911  0.2397 -0.7508
    4CHTO    O5 1687   6.991   7.975   2.737 -0.0278  0.0371  0.2480
    4CHTO   C10 1688   6.920   7.862   2.678  0.6404 -0.3886  0.2139
    4CHTO   H23 1689   6.853   7.902   2.603 -2.1212 -0.1210  2.7150
    4CHTO   C17 1690   6.832   7.795   2.782  0.6493  0.2406 -0.4955
    4CHTO   O12 1691   6.899   7.761   2.906 -0.5315  0.3349  0.0735
    4CHTO    H6 1692   6.868   7.824   2.968 -0.9419  0.1514  0.0527
    5CHTO  H203 1693   7.715   3.460   1.802  0.2395 -0.0298 -3.5674
    5CHTO   O82 1694   7.627   3.429   1.805  0.1900  0.2832 -0.0456
    5CHTO  C123 1695   7.603   3.384   1.938  0.4538  0.1607  0.0067
    5CHTO  H227 1696   7.687   3.326   1.978 -0.4621 -2.6546 -2.0075
    5CHTO   O77 1697   7.573   3.502   2.020 -0.6159 -0.5016 -0.7538
    5CHTO  C118 1698   7.556   3.481   2.157 -0.2382  0.2424 -0.0315
    5CHTO  H222 1699   7.639   3.427   2.205 -1.7298 -0.8293  1.3982
    5CHTO  C125 1700   7.540   3.626   2.232  0.4481  0.0795  0.2626
    5CHTO   O84 1701   7.425   3.701   2.190 -0.9319 -0.0014 -0.2153
    5CHTO  H205 1702   7.443   3.764   2.123  2.7276 -1.0020 -0.2755
    5CHTO  C114 1703   7.431   3.396   2.179  0.3869 -0.2009 -0.1074
    5CHTO  H218 1704   7.344   3.450   2.141  1.5035  0.5231 -1.6704
    5CHTO  C116 1705   7.448   3.259   2.103 -1.1214 -0.5481  0.1618
    5CHTO  H220 1706   7.538   3.213   2.148 -1.1684 -0.3981  0.4065
    5CHTO   O79 1707   7.332   3.178   2.127 -0.0639  0.2137  0.0553
    5CHTO  H201 1708   7.264   3.214   2.180 -0.5819  1.8621 -1.6493
    5CHTO  C120 1709   7.469   3.289   1.945 -0.0747 -1.0747 -0.0046
    5CHTO  H224 1710   7.379   3.343   1.909 -0.9500 -2.4349  0.1372
    5CHTO   N21 1711   7.489   3.159   1.873 -0.2950  0.0645  0.3417
    5CHTO  H211 1712   7.558   3.102   1.933  1.7205  0.2734 -1.7154
    5CHTO  H212 1713   7.393   3.110   1.864 -0.5983  0.7813 -0.4008
    5CHTO   O75 1714   7.418   3.376   2.322  0.4224  0.3665  0.3234
    5CHTO  C112 1715   7.264   3.419   2.393  0.8464 -0.2032 -0.3351
    5CHTO  H216 1716   7.186   3.352   2.354 -2.9627  4.2237 -0.7330
    5CHTO   O73 1717   7.237   3.560   2.353  0.1137  0.0805  0.1481
    5CHTO  C113 1718   7.100   3.596   2.393 -1.0447 -0.3043  0.6110
    5CHTO  H217 1719   7.038   3.537   2.322 -0.0718  0.9310 -1.2929
    5CHTO  C124 1720   7.084   3.742   2.352 -0.4985 -0.7189 -0.1272
    5CHTO   O83 1721   7.115   3.775   2.214 -0.6543 -0.3358  0.3754
    5CHTO  H204 1722   7.072   3.853   2.186  0.2472 -0.9527 -2.8609
    5CHTO  C109 1723   7.077   3.584   2.547 -0.0999  0.0594 -0.7402
    5CHTO  H213 1724   7.136   3.663   2.594  1.3203 -0.6722 -1.2852
    5CHTO  C110 1725   7.122   3.448   2.599 -0.2277  0.1295  0.4591
    5CHTO  H214 1726   7.060   3.365   2.567 -0.6210  0.9996 -1.0653
    5CHTO   O78 1727   7.110   3.453   2.744  0.1687  0.4106 -0.3872
    5CHTO  H200 1728   7.193   3.446   2.786 -0.4529  0.5774  0.8802
    5CHTO  C111 1729   7.266   3.415   2.549  0.0925 -0.0307 -0.0175
    5CHTO  H215 1730   7.338   3.491   2.581  1.1476 -1.5909  1.4034
    5CHTO   N19 1731   7.316   3.281   2.595 -0.5996 -0.2718 -0.1309
    5CHTO  H207 1732   7.237   3.211   2.575 -0.5565  0.2360 -2.1228
    5CHTO  H208 1733   7.342   3.295   2.699 -2.8956  0.1287  0.4202
    5CHTO   O74 1734   6.937   3.618   2.569  0.0921 -0.2887  0.3552
    5CHTO  C115 1735   6.911   3.705   2.702 -0.0718  0.4742 -0.1432
    5CHTO  H219 1736   6.990   3.694   2.776  0.7005 -0.3441 -1.0680
    5CHTO   O76 1737   6.900   3.866   2.669  0.0918 -0.1994 -0.3513
    5CHTO  C122 1738   6.804   3.891   2.565  0.0767 -0.0509 -0.0926
    5CHTO  H226 1739   6.845   3.878   2.465 -0.5278 -2.1547 -0.1031
    5CHTO  C126 1740   6.761   4.040   2.570  0.5950 -0.4010 -0.3235
    5CHTO   O85 1741   6.736   4.103   2.697  0.0877  0.0858  0.3872
    5CHTO  H206 1742   6.699   4.189   2.701 -0.4882 -0.2144  1.7456
    5CHTO  C121 1743   6.680   3.790   2.577  0.4578  0.0332 -0.0158
    5CHTO  H225 1744   6.598   3.865   2.565  0.7130  0.3953  0.4920
    5CHTO   O81 1745   6.686   3.697   2.458 -0.4745  0.4600 -0.1100
    5CHTO  H202 1746   6.756   3.636   2.469 -0.7059  0.2782  0.3718
    5CHTO  C119 1747   6.655   3.723   2.716  0.4816  0.2537  0.0474
    5CHTO  H223 1748   6.639   3.802   2.789  0.1985 -1.0570  1.4355
    5CHTO  C117 1749   6.779   3.645   2.769 -0.3134  0.2022  0.6384
    5CHTO  H221 1750   6.782   3.538   2.748 -2.3035 -0.0595  1.5330
    5CHTO   N20 1751   6.780   3.649   2.918  0.4030  0.3593 -0.1049
    5CHTO  H209 1752   6.814   3.555   2.961 -0.4728 -0.1851 -0.5913
    5CHTO  H210 1753   6.693   3.695   2.962 -0.7720  1.8575 -3.8558
    5CHTO   O80 1754   6.507   3.649   2.727 -0.3857 -0.1482  0.2384
    5CHTO  C103 1755   6.452   3.556   2.594  0.3299  0.3845  0.9921
    5CHTO  H190 1756   6.459   3.606   2.497 -2.3483 -1.5619 -0.2839
    5CHTO  C101 1757   6.511   3.409   2.578  0.2916 -0.0992 -0.7525
    5CHTO  H188 1758   6.525   3.363   2.676 -1.8235 -0.1540 -0.4634
    5CHTO   O68 1759   6.668   3.430   2.531  0.5437 -0.2613 -0.1828
    5CHTO  H168 1760   6.704   3.344   2.536  0.7309 -0.1308  1.0117
    5CHTO   C99 1761   6.435   3.320   2.470 -0.0832  0.0713 -0.1920
    5CHTO  H186 1762   6.429   3.380   2.377 -0.1339  0.3158 -0.0330
    5CHTO   N17 1763   6.507   3.195   2.433  0.0868  0.0524 -0.1673
    5CHTO  H174 1764   6.547   3.146   2.521  0.0922  0.6120  0.1458
    5CHTO  H175 1765   6.431   3.125   2.401 -0.4056 -0.1344  1.3380
    5CHTO   C97 1766   6.290   3.308   2.517 -0.3248 -0.4036  0.0185
    5CHTO  H184 1767   6.285   3.254   2.612  0.1765 -0.0780  0.2309
    5CHTO   O64 1768   6.241   3.443   2.525 -0.5348 -0.2450 -0.1626
    5CHTO  C104 1769   6.303   3.525   2.624  0.0604 -0.0881  0.3561
    5CHTO  H191 1770   6.295   3.472   2.719  1.4595 -4.4958 -1.8369
    5CHTO  C108 1771   6.225   3.656   2.639 -0.8943 -0.3364 -0.6419
    5CHTO   O71 1772   6.195   3.722   2.515 -0.5797 -0.3261 -0.3513
    5CHTO  H171 1773   6.273   3.710   2.465  1.4766 -1.5346  2.9359
    5CHTO   O62 1774   6.191   3.257   2.432 -0.8423  0.1004  0.4825
    5CHTO   C91 1775   6.061   3.207   2.478  0.0813 -0.7239 -0.5631
    5CHTO  H178 1776   6.056   3.202   2.587 -0.8732  1.0464 -0.5207
    5CHTO   C92 1777   6.042   3.061   2.436 -0.2733  0.2769  0.2299
    5CHTO  H179 1778   6.055   3.050   2.327 -1.4538 -2.7836  0.3491
    5CHTO   O66 1779   6.156   2.994   2.493 -0.5898 -0.5499  0.1129
    5CHTO  H166 1780   6.172   2.908   2.460  0.4300 -0.9894  1.6909
    5CHTO   C93 1781   5.906   2.996   2.472 -0.4112  0.3268  0.0120
    5CHTO  H180 1782   5.903   2.983   2.581  0.3889 -0.8393 -0.0942
    5CHTO   N16 1783   5.878   2.861   2.418  0.4585  0.3942  0.3360
    5CHTO  H172 1784   5.960   2.792   2.430  0.0462 -0.4024 -1.2028
    5CHTO  H173 1785   5.850   2.869   2.314 -1.4718  1.9682  0.9491
    5CHTO   C94 1786   5.784   3.092   2.430 -0.4019 -0.2629 -0.5521
    5CHTO  H181 1787   5.779   3.108   2.322 -0.3262  0.4054 -0.4566
    5CHTO   O61 1788   5.812   3.219   2.491 -0.1660 -0.4758 -0.5179
    5CHTO   C95 1789   5.935   3.279   2.434 -0.3726  0.3496  0.2302
    5CHTO  H182 1790   5.927   3.280   2.325 -1.0198 -0.2076  0.2671
    5CHTO  C106 1791   5.937   3.430   2.468 -0.2013  0.0198 -0.0659
    5CHTO   O69 1792   5.948   3.506   2.344  0.3304  0.4967 -0.1278
    5CHTO  H169 1793   6.031   3.484   2.307 -0.7314 -0.6226 -1.9678
    5CHTO   O63 1794   5.629   3.049   2.495 -0.3666 -0.0922 -0.2305
    5CHTO   C96 1795   5.521   3.044   2.392 -0.7627 -0.1244 -0.3575
    5CHTO  H183 1796   5.572   2.995   2.310  1.9917  2.3304 -0.2034
    5CHTO   C98 1797   5.471   3.178   2.316 -0.4075  0.6419  0.4949
    5CHTO  H185 1798   5.428   3.247   2.389  2.1992  0.6392  2.1144
    5CHTO   O67 1799   5.586   3.251   2.266 -0.3688 -0.2027  0.0114
    5CHTO  H167 1800   5.652   3.194   2.232 -0.8696 -0.7100 -0.1233
    5CHTO  C102 1801   5.375   3.142   2.201  0.0887  0.3516  1.0076
    5CHTO  H189 1802   5.438   3.106   2.119  0.5018 -1.8312  2.2339
    5CHTO   N18 1803   5.300   3.260   2.150  0.3116 -0.4957 -0.3712
    5CHTO  H176 1804   5.330   3.294   2.052 -0.9148 -0.0705 -0.6129
    5CHTO  H177 1805   5.196   3.234   2.165  1.1613 -2.3134  2.7795
    5CHTO  C105 1806   5.283   3.018   2.242  0.4631  0.1316  0.6845
    5CHTO  H192 1807   5.184   3.035   2.201  0.4068 -0.4685  0.5651
    5CHTO   O65 1808   5.280   2.988   2.381 -0.2370  0.0530  0.0689
    5CHTO  C100 1809   5.406   2.959   2.448 -0.5286  0.1052  0.6638
    5CHTO  H187 1810   5.401   2.981   2.555  2.1846 -1.5116  1.1637
    5CHTO  C107 1811   5.432   2.805   2.442  0.0794  0.4098  0.2897
    5CHTO   O70 1812   5.325   2.726   2.483  0.4720 -0.2697 -0.2632
    5CHTO  H170 1813   5.263   2.768   2.540  0.3000 -0.2443 -0.4695
    5CHTO   O57 1814   5.351   2.889   2.147  0.0641 -0.3794  0.4146
    5CHTO   C85 1815   5.284   2.770   2.094 -0.1534  0.1597 -0.0930
    5CHTO  H157 1816   5.181   2.779   2.134 -0.5065 -2.7680 -0.1905
    5CHTO   C83 1817   5.347   2.643   2.147 -0.1896 -0.0585 -0.2776
    5CHTO  H155 1818   5.350   2.651   2.256  3.8691 -2.4338 -0.1065
    5CHTO   O56 1819   5.482   2.631   2.103  0.4416  0.5918 -0.5469
    5CHTO  H135 1820   5.490   2.609   2.012  2.0102  0.0311 -0.2850
    5CHTO   C81 1821   5.255   2.525   2.107  1.1339 -0.3933  0.1184
    5CHTO  H153 1822   5.152   2.552   2.129  0.9007 -0.0849 -1.2923
    5CHTO   N14 1823   5.279   2.390   2.170  0.5124 -0.1040  0.3116
    5CHTO  H141 1824   5.345   2.396   2.255 -0.1416 -3.7324  1.1552
    5CHTO  H142 1825   5.323   2.324   2.099  0.5787 -0.9436  1.1163
    5CHTO   C79 1826   5.256   2.513   1.946 -0.3792 -0.0954  0.4182
    5CHTO  H151 1827   5.180   2.441   1.916 -0.6948  1.0862 -1.7795
    5CHTO   O52 1828   5.226   2.640   1.883 -0.5460 -0.0195 -0.6737
    5CHTO   C86 1829   5.286   2.758   1.939 -0.5076  0.1779 -0.3538
    5CHTO  H158 1830   5.388   2.762   1.897 -0.4225 -0.3314 -0.2065
    5CHTO   C90 1831   5.205   2.876   1.877  0.1148 -0.0385  0.0919
    5CHTO   O60 1832   5.286   2.991   1.873  0.0976 -0.1096 -0.3300
    5CHTO  H138 1833   5.311   3.021   1.959 -0.2952 -1.3922  0.2360
    5CHTO   O50 1834   5.387   2.466   1.908 -0.5484  0.1276  0.7505
    5CHTO   C73 1835   5.434   2.379   1.799  0.7087 -0.2894 -0.4721
    5CHTO  H145 1836   5.378   2.401   1.706  1.5855  0.4234 -0.8454
    5CHTO   C74 1837   5.419   2.227   1.846  0.0972  0.5426  0.8484
    5CHTO  H146 1838   5.312   2.218   1.870 -0.2710 -0.9497 -1.2066
    5CHTO   O54 1839   5.452   2.135   1.733 -0.6106  0.1416  0.3042
    5CHTO  H133 1840   5.473   2.047   1.760  1.3641  0.8292  1.0795
    5CHTO   C75 1841   5.517   2.202   1.965  0.3920  0.2109 -0.2864
    5CHTO  H147 1842   5.486   2.268   2.047 -0.9583 -0.0708 -0.5618
    5CHTO   N13 1843   5.513   2.063   2.022 -0.0364  0.4224  0.4886
    5CHTO  H139 1844   5.412   2.048   2.056 -0.3974  2.1374  0.2643
    5CHTO  H140 1845   5.583   2.044   2.102  0.7492 -0.1662 -0.3219
    5CHTO   C76 1846   5.669   2.246   1.930  0.8379 -0.5739 -0.5780
    5CHTO  H148 1847   5.701   2.185   1.846  0.2794  0.6621 -1.7033
    5CHTO   O49 1848   5.664   2.389   1.896 -0.5101 -0.0886  0.0241
    5CHTO   C77 1849   5.587   2.415   1.776 -0.1039  0.1875 -0.4962
    5CHTO  H149 1850   5.628   2.358   1.692 -0.5778 -1.5850  0.4469
    5CHTO   C88 1851   5.592   2.561   1.730  0.5812 -0.2245 -0.3150
    5CHTO   O58 1852   5.549   2.574   1.599  0.0581  0.0984 -0.4973
    5CHTO  H136 1853   5.571   2.656   1.558 -1.1205  0.9889  0.6045
    5CHTO   O51 1854   5.750   2.236   2.067  0.3050  0.0264 -0.3919
    5CHTO   C78 1855   5.898   2.316   2.062  0.1588  0.5766 -0.6005
    5CHTO  H150 1856   5.907   2.356   1.959 -1.0071 -2.7590 -2.0616
    5CHTO   C80 1857   6.009   2.220   2.086 -0.1207 -0.1098  0.2802
    5CHTO  H152 1858   5.995   2.178   2.188  0.7246 -3.1835 -0.7968
    5CHTO   O55 1859   5.990   2.115   1.993  0.1745  0.3247  0.1508
    5CHTO  H134 1860   5.923   2.054   2.018 -0.5342 -0.0917 -2.5099
    5CHTO   C84 1861   6.151   2.284   2.068 -0.7725  0.1762  0.0723
    5CHTO  H156 1862   6.165   2.318   1.965  3.1528 -3.9523 -0.9123
    5CHTO   N15 1863   6.270   2.193   2.093 -0.0679  0.6407  0.2390
    5CHTO  H143 1864   6.259   2.146   2.189  2.0142  2.0794  1.2161
    5CHTO  H144 1865   6.366   2.238   2.088 -0.4375  1.5329  1.0062
    5CHTO   C87 1866   6.163   2.407   2.159 -0.1727 -0.4048 -0.6279
    5CHTO  H159 1867   6.180   2.372   2.261  0.7781  0.4931 -0.4714
    5CHTO   O53 1868   6.021   2.502   2.139 -0.5110  0.3119 -0.0828
    5CHTO   C82 1869   5.905   2.429   2.168  0.2675 -0.3543  0.3055
    5CHTO  H154 1870   5.901   2.400   2.273 -1.5713 -2.4366 -0.2935
    5CHTO   C89 1871   5.785   2.525   2.146 -0.2405  0.0040  0.4324
    5CHTO   O59 1872   5.750   2.601   2.261  0.4154  0.1201 -0.9443
    5CHTO  H137 1873   5.665   2.575   2.291  0.6027 -0.3966 -0.8698
    5CHTO   O45 1874   6.291   2.513   2.121  0.2261 -0.0419 -0.5805
    5CHTO   C67 1875   6.363   2.554   2.236 -0.6927 -0.5944 -0.1680
    5CHTO  H124 1876   6.299   2.561   2.324  2.0504  0.1457  1.8367
    5CHTO   C65 1877   6.467   2.441   2.263  0.0270 -0.2640 -0.7104
    5CHTO  H122 1878   6.478   2.386   2.170  1.5874 -1.4783  0.1716
    5CHTO   O44 1879   6.409   2.361   2.365 -0.3287  0.6852  0.5841
    5CHTO  H102 1880   6.467   2.288   2.377 -1.3202 -0.0395  1.0766
    5CHTO   C63 1881   6.613   2.499   2.294  0.4417 -0.0576 -0.4222
    5CHTO  H120 1882   6.666   2.514   2.200 -0.7177  1.0022 -0.9195
    5CHTO   N11 1883   6.703   2.402   2.351  0.4887  0.4586  0.2339
    5CHTO  H108 1884   6.757   2.440   2.436 -0.7226 -1.9537  2.1662
    5CHTO  H109 1885   6.647   2.314   2.378 -1.7171  1.0140 -2.3806
    5CHTO   C61 1886   6.605   2.626   2.378  0.4149  0.0701  0.0459
    5CHTO  H118 1887   6.708   2.661   2.386 -0.1242  1.8314 -0.4866
    5CHTO   O40 1888   6.528   2.733   2.313 -0.1191  0.0590  0.7252
    5CHTO   C68 1889   6.422   2.693   2.219  0.2195  0.0427 -0.0186
    5CHTO  H125 1890   6.474   2.699   2.121 -0.7305 -0.2831 -0.5414
    5CHTO   C72 1891   6.322   2.801   2.219  0.0013  0.0110 -0.6198
    5CHTO   O48 1892   6.366   2.921   2.154 -0.1727 -0.4769  0.7435
    5CHTO  H105 1893   6.316   2.990   2.193  0.0727 -0.3463  0.8296
    5CHTO   O38 1894   6.555   2.592   2.510  0.3840 -0.1141 -0.1809
    5CHTO   C55 1895   6.510   2.699   2.604 -0.0829 -0.5361  0.1768
    5CHTO  H112 1896   6.432   2.762   2.558  0.0206  0.7830  1.7852
    5CHTO   C56 1897   6.641   2.784   2.652  0.7822 -0.1415  0.1492
    5CHTO  H113 1898   6.709   2.708   2.692  1.0554  1.1070  2.1554
    5CHTO   O42 1899   6.699   2.847   2.535 -0.3246 -0.2203  0.3339
    5CHTO  H100 1900   6.633   2.878   2.476  0.6623 -0.3541 -0.8583
    5CHTO   C57 1901   6.601   2.891   2.757 -0.9252 -0.4265  0.2215
    5CHTO  H114 1902   6.542   2.962   2.699 -0.1232  0.7414  0.8217
    5CHTO   N10 1903   6.709   2.976   2.803  0.3350 -0.0805 -0.1226
    5CHTO  H106 1904   6.701   3.013   2.904 -1.4637  2.1756 -1.0478
    5CHTO  H107 1905   6.797   2.915   2.793  1.1771  1.2482 -1.0332
    5CHTO   C58 1906   6.514   2.821   2.863  0.2832 -0.4333 -0.2015
    5CHTO  H115 1907   6.578   2.766   2.935 -0.4883 -0.9094  0.1285
    5CHTO   O37 1908   6.414   2.736   2.807 -0.4218  0.2353 -0.5165
    5CHTO   C59 1909   6.453   2.626   2.727  0.0522 -0.0243  0.5896
    5CHTO  H116 1910   6.529   2.566   2.777  1.2113  0.1297 -0.9411
    5CHTO   C70 1911   6.330   2.549   2.707 -0.1001  0.0736  0.4564
    5CHTO   O46 1912   6.224   2.598   2.624  0.6027 -0.1916  0.3333
    5CHTO  H103 1913   6.147   2.548   2.643  0.5807 -1.2443 -2.3714
    5CHTO   O39 1914   6.427   2.933   2.967  0.3471 -0.2505 -0.2623
    5CHTO   C60 1915   6.304   2.983   2.905  0.3195 -0.2686  0.3219
    5CHTO  H117 1916   6.303   2.965   2.798 -0.8558  3.7238 -0.4222
    5CHTO   C62 1917   6.180   2.905   2.947  0.1262  0.9091  0.2720
    5CHTO  H119 1918   6.201   2.804   2.908  2.7533  1.5292 -0.0212
    5CHTO   O43 1919   6.158   2.905   3.086  0.3408 -0.2643  0.0913
    5CHTO  H101 1920   6.182   2.822   3.121  0.1784 -0.8156 -1.0914
    5CHTO   C66 1921   6.055   2.960   2.870  0.0888 -0.0876 -0.1012
    5CHTO  H123 1922   6.071   2.944   2.763  0.5317 -0.9388  0.0893
    5CHTO   N12 1923   5.922   2.895   2.889  0.3444 -0.5701  0.1408
    5CHTO  H110 1924   5.934   2.793   2.855  2.2339 -0.1257 -0.5477
    5CHTO  H111 1925   5.908   2.885   2.996  0.1528  0.2255  0.1911
    5CHTO   C69 1926   6.046   3.115   2.902  0.8217  0.1902 -0.6949
    5CHTO  H126 1927   6.039   3.130   3.012 -1.0067 -1.7043 -0.5283
    5CHTO   O41 1928   6.159   3.172   2.840  0.6356 -0.1405 -0.5841
    5CHTO   C64 1929   6.285   3.136   2.919  0.1749 -0.4564 -0.0985
    5CHTO  H121 1930   6.274   3.162   3.027  0.7017  0.6161 -0.3014
    5CHTO   C71 1931   6.412   3.214   2.883  0.0047 -0.2426  0.2951
    5CHTO   O47 1932   6.401   3.352   2.917 -0.0735  0.1057 -0.1417
    5CHTO  H104 1933   6.489   3.377   2.938  0.3856 -1.0363 -0.6381
    5CHTO   O34 1934   5.898   3.202   2.838  0.9516  0.2024 -0.0166
    5CHTO   C49 1935   5.821   3.354   2.847 -0.1308 -0.5879 -0.0727
    5CHTO   H91 1936   5.867   3.422   2.775 -1.8294 -2.3531 -2.9532
    5CHTO   C47 1937   5.848   3.391   2.992 -0.7800 -0.0780  0.0338
    5CHTO   H89 1938   5.827   3.500   2.986 -0.6020 -0.1020 -1.1469
    5CHTO   O33 1939   5.984   3.379   3.024  0.5074  0.0869  0.4301
    5CHTO   H70 1940   6.012   3.299   2.985  1.0538  1.4560 -2.1312
    5CHTO   C45 1941   5.745   3.311   3.097  0.1739  0.2001 -0.2879
    5CHTO   H87 1942   5.754   3.203   3.079  1.5965  0.4566 -1.1654
    5CHTO    N8 1943   5.771   3.336   3.243  0.3367  0.0275  0.2582
    5CHTO   H75 1944   5.752   3.247   3.302  2.0927 -0.0070  0.8168
    5CHTO   H76 1945   5.722   3.421   3.288 -0.3902 -0.7302  0.9311
    5CHTO   C43 1946   5.592   3.347   3.059  1.1301 -0.4467  0.0215
    5CHTO   H85 1947   5.527   3.298   3.131  0.0246  2.3052  0.9661
    5CHTO   O29 1948   5.570   3.302   2.925 -0.0780 -0.2278  0.0224
    5CHTO   C50 1949   5.667   3.344   2.822  0.1381  0.1482  0.4044
    5CHTO   H92 1950   5.659   3.274   2.737  1.4486 -1.5547  1.6383
    5CHTO   C54 1951   5.607   3.461   2.744 -0.2801 -0.4201 -0.0561
    5CHTO   O36 1952   5.473   3.447   2.701  0.0335  0.2300  0.2004
    5CHTO   H72 1953   5.451   3.531   2.667  0.4197  0.1647 -0.2164
    5CHTO   O27 1954   5.561   3.485   3.074  0.2057 -0.9525  0.3915
    5CHTO   C37 1955   5.480   3.589   3.129  0.0455 -0.8853  0.4158
    5CHTO   H79 1956   5.477   3.672   3.056  1.0923  0.1532  1.5283
    5CHTO   C38 1957   5.335   3.548   3.147  0.5542  0.1073 -0.0945
    5CHTO   H80 1958   5.329   3.448   3.191  0.4139 -0.4180 -1.2758
    5CHTO   O31 1959   5.280   3.537   3.009 -0.4912  0.0429  0.1903
    5CHTO   H68 1960   5.304   3.458   2.964  0.7569 -0.0418  0.9866
    5CHTO   C39 1961   5.253   3.646   3.238  0.3217 -0.9721 -0.0981
    5CHTO   H81 1962   5.250   3.739   3.180  0.7210 -1.9086 -1.6606
    5CHTO    N7 1963   5.107   3.601   3.271 -0.5516  0.7832 -0.3612
    5CHTO   H73 1964   5.092   3.496   3.250  1.9118 -0.0980  2.0284
    5CHTO   H74 1965   5.035   3.655   3.211 -1.7518 -0.3807  0.0271
    5CHTO   C40 1966   5.328   3.673   3.371 -0.0236  0.2089 -0.3243
    5CHTO   H82 1967   5.330   3.597   3.450 -1.3161  0.2986 -0.2034
    5CHTO   O26 1968   5.461   3.727   3.338 -0.4575  0.1917  0.3371
    5CHTO   C41 1969   5.544   3.635   3.266 -0.1435 -0.2133  0.2984
    5CHTO   H83 1970   5.552   3.548   3.333  0.7218  0.8520  1.5902
    5CHTO   C52 1971   5.678   3.704   3.234  0.0619 -0.4556  0.5035
    5CHTO   O35 1972   5.758   3.722   3.373  0.2629  0.3414 -0.4337
    5CHTO   H71 1973   5.701   3.720   3.447  0.2747 -0.9848 -0.4369
    5CHTO   O28 1974   5.263   3.782   3.439  0.3773  0.3684  0.3345
    5CHTO   C42 1975   5.285   3.806   3.584  0.6402 -0.0836 -0.5882
    5CHTO   H84 1976   5.217   3.891   3.595 -0.4032 -0.9757  0.0052
    5CHTO   C44 1977   5.430   3.862   3.631  0.4884 -0.2327  0.3997
    5CHTO   H86 1978   5.491   3.886   3.544  0.1615  2.7245  0.9443
    5CHTO   O32 1979   5.404   3.987   3.695 -0.0352 -0.4068  0.0691
    5CHTO   H69 1980   5.468   4.048   3.662 -0.7811  0.7379  0.7348
    5CHTO   C48 1981   5.512   3.765   3.723 -0.2578  0.3164 -0.0891
    5CHTO   H90 1982   5.491   3.795   3.826  1.8970  0.4948  0.3066
    5CHTO    N9 1983   5.658   3.795   3.725 -0.0740 -0.5090 -0.0884
    5CHTO   H77 1984   5.679   3.880   3.788 -0.3671 -0.9322  0.5913
    5CHTO   H78 1985   5.701   3.803   3.626  2.1174 -0.4397  0.8382
    5CHTO   C51 1986   5.483   3.608   3.684  0.4945 -0.0604 -0.3350
    5CHTO   H93 1987   5.509   3.600   3.578 -1.6480  1.0132 -0.9906
    5CHTO   O30 1988   5.344   3.577   3.701  0.2954 -0.0164 -0.7278
    5CHTO   C46 1989   5.227   3.690   3.682  0.2269  0.1415  0.5103
    5CHTO   H88 1990   5.144   3.642   3.629 -0.2742  0.3978  1.0470
    5CHTO   C53 1991   5.188   3.738   3.821 -0.5802  0.3941 -0.3611
    5CHTO   O72 1992   5.073   3.822   3.822  0.5104 -0.0668 -0.3314
    5CHTO  H199 1993   5.096   3.903   3.780 -2.5387 -0.9181 -3.9803
    5CHTO   O22 1994   5.543   3.512   3.770 -0.1457  0.2931 -1.3906
    5CHTO   C31 1995   5.569   3.373   3.742  0.5521 -0.5706 -0.1745
    5CHTO   H59 1996   5.631   3.335   3.825  0.5009  2.0018  1.0832
    5CHTO   C29 1997   5.435   3.292   3.734  0.3805  0.1242  0.5206
    5CHTO   H57 1998   5.382   3.341   3.651  0.1554 -1.6316 -0.3912
    5CHTO   O21 1999   5.376   3.306   3.864 -0.1259 -0.2132 -0.0789
    5CHTO   H37 2000   5.308   3.369   3.873  1.4749  1.5378 -0.0175
    5CHTO   C27 2001   5.449   3.139   3.694  0.2744  0.4614 -0.8550
    5CHTO   H55 2002   5.491   3.095   3.786  1.7197  0.5901 -1.4435
    5CHTO    N5 2003   5.319   3.067   3.668 -0.4075  0.1936 -0.2568
    5CHTO   H43 2004   5.316   2.973   3.721 -1.9327  1.2136  1.4796
    5CHTO   H44 2005   5.234   3.121   3.706 -0.9847 -0.4652 -0.5950
    5CHTO   C25 2006   5.534   3.123   3.562  0.8197 -0.6489 -0.2809
    5CHTO   H53 2007   5.479   3.169   3.479  1.8455 -1.4228 -1.3974
    5CHTO   O17 2008   5.661   3.208   3.573  0.0288 -0.3455  0.0086
    5CHTO   C32 2009   5.652   3.347   3.608 -0.2282 -0.1574 -0.5928
    5CHTO   H60 2010   5.603   3.394   3.523 -0.2173 -1.4187 -1.3122
    5CHTO   C36 2011   5.802   3.392   3.620 -0.2011  1.0899 -0.1608
    5CHTO   O25 2012   5.805   3.536   3.640  0.0399  0.2423 -0.0733
    5CHTO   H40 2013   5.893   3.566   3.655  0.4786  0.0145 -2.0130
    5CHTO   O15 2014   5.582   2.981   3.529  0.1112  0.2698 -0.5554
    5CHTO   C19 2015   5.687   2.893   3.593  0.5468  0.3319  0.2352
    5CHTO   H47 2016   5.730   2.941   3.682 -0.5194 -0.8677  1.4182
    5CHTO   C20 2017   5.639   2.756   3.657  0.0577 -0.0846 -0.3611
    5CHTO   H48 2018   5.583   2.693   3.587  0.7758 -1.4580  0.2895
    5CHTO   O19 2019   5.544   2.785   3.761 -0.3656  0.2612  0.3719
    5CHTO   H35 2020   5.549   2.719   3.827  0.9875 -0.5447 -0.4994
    5CHTO   C21 2021   5.766   2.674   3.704 -0.3621 -0.0008  0.0109
    5CHTO   H49 2022   5.800   2.710   3.801 -0.0120 -0.0444 -0.0939
    5CHTO    N4 2023   5.723   2.534   3.734 -0.2685 -0.1785 -0.0476
    5CHTO   H41 2024   5.800   2.491   3.797 -1.1494 -1.4497  0.1827
    5CHTO   H42 2025   5.729   2.486   3.638  1.1322  2.8560 -1.5727
    5CHTO   C22 2026   5.881   2.677   3.601  0.6209 -0.0587  0.1580
    5CHTO   H50 2027   5.846   2.619   3.516 -0.6678 -0.2281  0.7787
    5CHTO   O14 2028   5.910   2.810   3.560 -0.7324 -0.5181 -0.2561
    5CHTO   C23 2029   5.801   2.877   3.491 -0.4483 -0.4474  0.5592
    5CHTO   H51 2030   5.771   2.815   3.405  2.9121 -0.3895 -0.7169
    5CHTO   C34 2031   5.843   3.006   3.419 -0.1611 -0.1028  0.2500
    5CHTO   O23 2032   5.950   2.986   3.328 -0.1749 -0.6076 -0.3750
    5CHTO   H38 2033   5.985   3.073   3.324  0.6846 -0.8429  1.4009
    5CHTO   O16 2034   6.003   2.633   3.665  0.7819  0.2161  0.5507
    5CHTO   C24 2035   6.115   2.537   3.577 -0.8681  0.5454 -0.8428
    5CHTO   H52 2036   6.076   2.503   3.481  0.3064 -3.2227 -0.0486
    5CHTO   C26 2037   6.160   2.412   3.659 -0.0791 -0.8771 -0.0170
    5CHTO   H54 2038   6.183   2.447   3.762 -4.0623 -2.2114  1.4150
    5CHTO   O20 2039   6.057   2.312   3.667 -0.4243  0.3217 -0.2315
    5CHTO   H36 2040   5.987   2.358   3.709 -1.0514 -0.0977 -0.8052
    5CHTO   C30 2041   6.283   2.344   3.592  0.9238 -0.1317 -0.1291
    5CHTO   H58 2042   6.248   2.305   3.495  3.7225  1.0014 -1.6581
    5CHTO    N6 2043   6.330   2.229   3.673  0.1318  0.1648  0.2597
    5CHTO   H45 2044   6.373   2.260   3.767 -0.6800  0.4751  0.5303
    5CHTO   H46 2045   6.396   2.161   3.620  0.2712  0.7838 -0.3717
    5CHTO   C33 2046   6.395   2.445   3.553 -0.3478 -0.0187 -0.4463
    5CHTO   H61 2047   6.441   2.483   3.645 -0.0625 -1.5763  0.0771
    5CHTO   O18 2048   6.337   2.552   3.480  0.0652  0.1493  0.1804
    5CHTO   C28 2049   6.236   2.624   3.552  0.2062 -0.2241 -0.2429
    5CHTO   H56 2050   6.280   2.655   3.647  0.7570  0.6008 -0.7634
    5CHTO   C35 2051   6.214   2.755   3.480  0.2133 -0.2072  0.5799
    5CHTO   O24 2052   6.212   2.743   3.335 -0.3728 -0.1670 -0.0638
    5CHTO   H39 2053   6.295   2.757   3.295 -0.6663  0.7172 -0.3745
    5CHTO    O9 2054   6.508   2.385   3.478 -0.0220  0.4369  0.6397
    5CHTO   C13 2055   6.469   2.332   3.318 -0.1455  0.9760  0.4976
    5CHTO   H26 2056   6.368   2.287   3.323  0.8707 -1.4307 -0.2402
    5CHTO   C11 2057   6.577   2.218   3.292  0.2749  0.4531 -0.1125
    5CHTO   H24 2058   6.563   2.133   3.360  1.9459 -0.6530 -1.1119
    5CHTO    O8 2059   6.709   2.245   3.309  0.7187  0.7642 -0.1941
    5CHTO    H3 2060   6.725   2.261   3.400  0.8480  0.4734 -0.1658
    5CHTO    C9 2061   6.550   2.172   3.146  0.0058  0.3258  0.2966
    5CHTO   H22 2062   6.442   2.149   3.137  0.2184 -0.3291 -0.6165
    5CHTO    N2 2063   6.614   2.046   3.104 -0.0389  0.2742  0.0619
    5CHTO   H10 2064   6.687   2.024   3.182 -2.4749  0.2891  2.4239
    5CHTO   H11 2065   6.543   1.965   3.100  2.7255 -2.2301 -0.2998
    5CHTO    C7 2066   6.585   2.292   3.056  0.4513 -0.6735  0.4452
    5CHTO   H20 2067   6.573   2.255   2.952 -0.1804  1.0786 -0.1336
    5CHTO    O4 2068   6.490   2.398   3.082  0.2233  0.3171  0.0520
    5CHTO   C14 2069   6.466   2.450   3.215  0.4949  0.0028 -0.2687
    5CHTO   H27 2070   6.358   2.478   3.219 -0.4007 -3.3027  0.5051
    5CHTO   C18 2071   6.555   2.577   3.254 -0.3681  0.5835 -0.2376
    5CHTO   O13 2072   6.545   2.672   3.149 -0.1091  0.2297  0.1821
    5CHTO    H7 2073   6.515   2.759   3.170 -1.4779 -0.6296  1.9092
    5CHTO    O2 2074   6.752   2.344   3.070 -0.4013 -0.2250 -0.3491
    5CHTO    C1 2075   6.820   2.368   2.941 -0.6266  0.4926  0.0205
    5CHTO   H14 2076   6.741   2.396   2.869 -1.9078  1.2600  1.6867
    5CHTO    C2 2077   6.907   2.245   2.890  0.7117 -0.0081  0.3725
    5CHTO   H15 2078   6.975   2.215   2.972  1.4482  0.9165  0.1045
    5CHTO    O6 2079   6.813   2.142   2.867 -0.2079  0.1230  0.1935
    5CHTO    H1 2080   6.733   2.174   2.829 -0.1810 -0.1947 -0.1418
    5CHTO    C3 2081   6.982   2.278   2.755 -0.0240  0.8624  0.4399
    5CHTO   H16 2082   6.915   2.319   2.677  0.9874  0.5986 -0.5834
    5CHTO    N1 2083   7.048   2.158   2.690 -0.3021  0.2569 -0.1692
    5CHTO    H8 2084   7.013   2.068   2.737  1.1609 -0.4849 -0.4776
    5CHTO    H9 2085   7.041   2.154   2.582 -1.6281 -2.7511  0.0062
    5CHTO    C4 2086   7.075   2.395   2.801 -1.0129 -0.3343 -0.3434
    5CHTO   H17 2087   7.138   2.367   2.885  0.1815  0.2348 -1.0423
    5CHTO    O1 2088   6.992   2.514   2.830  0.6738  0.6193  0.5778
    5CHTO    C5 2089   6.915   2.496   2.950  0.1585  0.3454  0.4633
    5CHTO   H18 2090   6.984   2.482   3.033 -0.8392 -0.1765  1.2141
    5CHTO   C16 2091   6.825   2.621   2.976  0.1508 -0.7283 -0.4889
    5CHTO   O11 2092   6.908   2.736   2.998  0.2025 -0.5793 -0.4864
    5CHTO    H5 2093   7.002   2.738   3.003  0.1602 -0.3694  0.4471
    5CHTO    O3 2094   7.162   2.437   2.697  0.0910  0.4068  0.6843
    5CHTO    C6 2095   7.304   2.441   2.718  0.3829  0.6786 -0.0450
    5CHTO   H19 2096   7.331   2.380   2.804  0.1003  0.6767  0.0440
    5CHTO    C8 2097   7.377   2.396   2.590 -0.6919 -0.4075 -0.0204
    5CHTO   H21 2098   7.342   2.460   2.510  1.0350  2.1361  1.2029
    5CHTO    O7 2099   7.349   2.256   2.574  0.4949 -0.6699  0.1090
    5CHTO    H2 2100   7.384   2.225   2.492  2.2569  3.2771 -0.7474
    5CHTO   C12 2101   7.529   2.425   2.603 -0.3765  0.1152 -0.1371
    5CHTO   H25 2102   7.555   2.358   2.688 -0.4002  1.2294  0.7637
    5CHTO    N3 2103   7.604   2.388   2.479  0.4545  0.4541  0.8951
    5CHTO   H12 2104   7.589   2.284   2.456  0.4962  0.4703  0.7951
    5CHTO   H13 2105   7.574   2.447   2.394 -1.7657  1.4253  2.2824
    5CHTO   C15 2106   7.560   2.573   2.644 -0.4057 -0.3358  0.3230
    5CHTO   H28 2107   7.514   2.642   2.572  2.3673  0.1710 -1.0187
    5CHTO   O10 2108   7.698   2.608   2.669 -0.4810 -0.4069  0.1745
    5CHTO    H4 2109   7.761   2.606   2.599 -0.4868  1.3310  0.1151
    5CHTO    O5 2110   7.493   2.589   2.773 -0.4450 -0.0702  0.3234
    5CHTO   C10 2111   7.350   2.586   2.761  0.1131  0.0173  0.2000
    5CHTO   H23 2112   7.315   2.660   2.688 -0.5660 -1.1610 -0.6948
    5CHTO   C17 2113   7.297   2.618   2.898 -0.6600 -0.3295 -1.0650
    5CHTO   O12 2114   7.317   2.758   2.932  0.6399  0.1926  0.4770
    5CHTO    H6 2115   7.249   2.780   2.992  0.5447  2.3067 -0.3601
    6CHTO  H203 2116   5.475   4.472   0.361 -1.5086  0.0162  0.3844
    6CHTO   O82 2117   5.510   4.459   0.447 -0.4250 -0.1744 -0.0818
    6CHTO  C123 2118   5.557   4.585   0.500 -0.7171  0.3320  0.3501
    6CHTO  H227 2119   5.633   4.633   0.436  1.7334 -1.7632  1.6080
    6CHTO   O77 2120   5.433   4.666   0.516 -0.2250  0.3707 -0.0840
    6CHTO  C118 2121   5.447   4.792   0.576 -0.2522  0.0882  0.5210
    6CHTO  H222 2122   5.497   4.860   0.505 -1.8151  0.8796  0.1411
    6CHTO  C125 2123   5.292   4.840   0.597  0.3106 -0.6093  0.1537
    6CHTO   O84 2124   5.202   4.754   0.670  0.3326  0.0379  0.3355
    6CHTO  H205 2125   5.116   4.791   0.672  0.0211 -0.6463 -0.3741
    6CHTO  C114 2126   5.519   4.774   0.711  0.4207  0.0428  0.1732
    6CHTO  H218 2127   5.456   4.713   0.777 -1.0071  3.1807  1.8467
    6CHTO  C116 2128   5.662   4.711   0.695  0.5756  0.0058 -0.4812
    6CHTO  H220 2129   5.727   4.769   0.626  1.6476  0.6417  1.0315
    6CHTO   O79 2130   5.723   4.708   0.827  0.0233 -0.0326 -0.3995
    6CHTO  H201 2131   5.800   4.656   0.819 -0.4430 -0.3080 -3.6011
    6CHTO  C120 2132   5.635   4.567   0.638  0.0664 -0.0794 -0.1955
    6CHTO  H224 2133   5.573   4.519   0.717  0.9881 -3.7593 -1.6169
    6CHTO   N21 2134   5.763   4.484   0.630 -0.0468  0.4613 -0.7067
    6CHTO  H211 2135   5.851   4.540   0.603  2.2005 -1.9707  1.3064
    6CHTO  H212 2136   5.775   4.432   0.724 -1.0963  2.9100  0.7988
    6CHTO   O75 2137   5.529   4.904   0.774 -0.2179  0.2775 -0.4787
    6CHTO  C112 2138   5.476   4.906   0.933 -0.3734  0.0997 -0.0696
    6CHTO  H216 2139   5.534   4.827   0.983  0.3097  0.5394 -0.1506
    6CHTO   O73 2140   5.333   4.879   0.944 -0.3739 -0.1807 -0.1504
    6CHTO  C113 2141   5.293   4.868   1.080 -0.1454  0.0132 -1.2201
    6CHTO  H217 2142   5.349   4.782   1.122 -2.5685  0.0228  2.2253
    6CHTO  C124 2143   5.143   4.823   1.075  0.2790 -0.0153  0.1647
    6CHTO   O83 2144   5.123   4.711   0.992 -0.1888 -0.0974  0.1713
    6CHTO  H204 2145   5.138   4.635   1.045 -0.4049  0.5487  1.1773
    6CHTO  C109 2146   5.312   4.997   1.168  0.0414 -0.3156  0.2038
    6CHTO  H213 2147   5.240   5.073   1.132 -1.1333 -0.9032  1.2964
    6CHTO  C110 2148   5.466   5.034   1.154  0.4835  1.2457 -0.0818
    6CHTO  H214 2149   5.528   4.961   1.207 -0.7673  0.5426  0.4164
    6CHTO   O78 2150   5.482   5.159   1.216  0.7167 -0.0130  0.4216
    6CHTO  H200 2151   5.427   5.223   1.176  1.0754  0.1209  0.1455
    6CHTO  C111 2152   5.514   5.038   1.006 -0.7433 -0.7875  0.1191
    6CHTO  H215 2153   5.460   5.117   0.952 -0.8279 -1.1242 -0.2833
    6CHTO   N19 2154   5.662   5.068   0.994 -0.6696  0.0228  0.3307
    6CHTO  H207 2155   5.688   5.164   1.036  0.4235  0.3292 -0.9999
    6CHTO  H208 2156   5.717   4.994   1.050  1.6488  0.6728 -1.0110
    6CHTO   O74 2157   5.288   4.963   1.311  0.3095 -0.6667  0.2417
    6CHTO  C115 2158   5.149   5.013   1.383  0.2812  0.7334  0.0319
    6CHTO  H219 2159   5.077   5.055   1.313 -1.0126 -1.8961 -0.2537
    6CHTO   O76 2160   5.070   4.886   1.450 -0.0156 -0.2403  0.4163
    6CHTO  C122 2161   5.164   4.820   1.536  0.2517  0.0816 -0.3544
    6CHTO  H226 2162   5.240   4.770   1.476 -0.7878 -0.7612 -1.0016
    6CHTO  C126 2163   5.083   4.704   1.613 -0.6585 -0.0957  0.0527
    6CHTO   O85 2164   4.986   4.762   1.703  0.0973  0.4823 -0.2963
    6CHTO  H206 2165   4.905   4.714   1.700  0.7889 -0.7167 -0.0738
    6CHTO  C121 2166   5.234   4.916   1.642 -0.0121  0.2090  0.5084
    6CHTO  H225 2167   5.219   4.876   1.744 -1.5439 -0.7900 -0.0927
    6CHTO   O81 2168   5.376   4.915   1.622  0.1854  0.2922  0.3227
    6CHTO  H202 2169   5.410   4.991   1.664  0.8586  1.1283 -1.6917
    6CHTO  C119 2170   5.177   5.057   1.630 -0.4350 -0.1727 -0.1094
    6CHTO  H223 2171   5.071   5.052   1.652 -0.9831  2.9441 -1.6815
    6CHTO  C117 2172   5.189   5.114   1.491 -0.3166  0.2460 -0.2003
    6CHTO  H221 2173   5.289   5.142   1.458 -0.1135 -0.6453 -0.3618
    6CHTO   N20 2174   5.114   5.245   1.478  0.0098 -0.2113  0.0495
    6CHTO  H209 2175   5.141   5.324   1.547  0.0605 -0.0034 -0.2069
    6CHTO  H210 2176   5.144   5.292   1.385  1.0180  0.9864  0.9692
    6CHTO   O80 2177   5.223   5.155   1.758  0.1438  0.0601  0.2433
    6CHTO  C103 2178   5.113   5.182   1.887  0.1048  0.5105 -0.7756
    6CHTO  H190 2179   5.148   5.264   1.950 -2.1599  1.5904 -0.8509
    6CHTO  C101 2180   4.970   5.223   1.846  0.0918  0.0895 -0.1320
    6CHTO  H188 2181   4.941   5.167   1.756 -0.4948 -1.4037  0.9560
    6CHTO   O68 2182   4.969   5.363   1.798 -0.2829 -0.0825 -0.7094
    6CHTO  H168 2183   5.051   5.380   1.755  0.6180 -2.3087  0.0232
    6CHTO   C99 2184   4.859   5.217   1.965 -0.4508  0.5520  0.2772
    6CHTO  H186 2185   4.883   5.294   2.042  0.4469  0.2122  0.3373
    6CHTO   N17 2186   4.714   5.246   1.936 -0.0096  0.0613 -0.0803
    6CHTO  H174 2187   4.656   5.269   2.024 -0.8921 -0.7501 -0.4319
    6CHTO  H175 2188   4.713   5.331   1.869 -1.4138  0.6569  0.6901
    6CHTO   C97 2189   4.879   5.077   2.031 -0.5487  0.1042  0.7004
    6CHTO  H184 2190   4.857   4.998   1.957 -0.5837  0.3015  0.5003
    6CHTO   O64 2191   5.014   5.073   2.080 -0.8341  0.1008  0.1530
    6CHTO  C104 2192   5.109   5.049   1.970 -0.0356  0.6453  0.6643
    6CHTO  H191 2193   5.081   4.967   1.905  0.7057 -1.0587  2.4513
    6CHTO  C108 2194   5.249   5.012   2.017  0.2416 -0.5196  0.4279
    6CHTO   O71 2195   5.254   4.898   2.096  0.4803 -0.2487 -0.2867
    6CHTO  H171 2196   5.259   4.825   2.038 -0.7996 -0.4362 -0.1677
    6CHTO   O62 2197   4.809   5.054   2.151  0.5127 -0.0067 -0.2598
    6CHTO   C91 2198   4.777   4.922   2.195  0.1701 -0.0072  0.1755
    6CHTO  H178 2199   4.719   4.933   2.286 -0.8618 -0.0330 -0.4743
    6CHTO   C92 2200   4.908   4.852   2.247 -0.3311  0.2825 -0.4386
    6CHTO  H179 2201   4.993   4.861   2.179  1.4258  1.4146  1.8266
    6CHTO   O66 2202   4.957   4.920   2.369 -0.4385 -0.0915  0.0349
    6CHTO  H166 2203   5.035   4.881   2.402 -0.8112  0.2839  1.3829
    6CHTO   C93 2204   4.894   4.696   2.289 -0.8488 -1.2676  0.4942
    6CHTO  H180 2205   4.842   4.686   2.386  1.0343 -0.3715  1.6198
    6CHTO   N16 2206   5.027   4.623   2.308 -0.1114 -0.2726 -0.5850
    6CHTO  H172 2207   4.990   4.522   2.300  0.2056 -0.3441 -1.1866
    6CHTO  H173 2208   5.097   4.639   2.227 -0.3970  0.2112 -0.7381
    6CHTO   C94 2209   4.805   4.627   2.177 -0.4067 -0.2674 -0.4468
    6CHTO  H181 2210   4.862   4.621   2.084 -0.4158  1.2741 -0.5582
    6CHTO   O61 2211   4.684   4.698   2.159  0.6212 -0.0987  0.4053
    6CHTO   C95 2212   4.711   4.821   2.092 -0.5273 -0.1987  0.0089
    6CHTO  H182 2213   4.783   4.807   2.011 -0.7121  0.4567 -0.2714
    6CHTO  C106 2214   4.581   4.895   2.037  0.2689  0.2108  0.3025
    6CHTO   O69 2215   4.520   4.805   1.940 -0.1279 -0.6625 -0.0680
    6CHTO  H169 2216   4.510   4.847   1.857  0.1732 -0.0676  0.1913
    6CHTO   O63 2217   4.773   4.473   2.207  0.1892 -0.2464  0.0882
    6CHTO   C96 2218   4.779   4.374   2.073  0.7019  0.2348 -0.2775
    6CHTO  H183 2219   4.815   4.439   1.993  0.3165  0.1045 -0.5571
    6CHTO   C98 2220   4.633   4.351   2.036 -1.2503  0.7634  0.3349
    6CHTO  H185 2221   4.571   4.308   2.117 -2.3458  1.3975 -0.1551
    6CHTO   O67 2222   4.570   4.476   1.999 -0.1986 -0.3407  0.1821
    6CHTO  H167 2223   4.556   4.528   2.076  1.0686 -0.1273  0.2913
    6CHTO  C102 2224   4.629   4.247   1.907  0.3753  0.7423  0.0025
    6CHTO  H189 2225   4.656   4.311   1.822  0.7880  0.3247 -0.1823
    6CHTO   N18 2226   4.489   4.203   1.879 -0.5652  0.3218  0.0110
    6CHTO  H176 2227   4.486   4.111   1.822  0.2366 -0.0657  0.5812
    6CHTO  H177 2228   4.424   4.279   1.836  0.6543  0.1836 -2.1672
    6CHTO  C105 2229   4.732   4.138   1.919 -0.3424  0.0844 -0.2105
    6CHTO  H192 2230   4.686   4.041   1.898 -2.3653  1.0862 -0.5634
    6CHTO   O65 2231   4.791   4.127   2.050  0.0127  0.4580 -0.3071
    6CHTO  C100 2232   4.853   4.248   2.108  0.7223  0.7220  0.7221
    6CHTO  H187 2233   4.861   4.244   2.217  1.3246  2.7024  0.7711
    6CHTO  C107 2234   5.003   4.260   2.062  0.1244 -0.0078  0.5823
    6CHTO   O70 2235   5.086   4.143   2.071 -0.1473  0.8456  0.4146
    6CHTO  H170 2236   5.131   4.128   1.990 -0.4653 -2.0571  0.7228
    6CHTO   O57 2237   4.838   4.169   1.817 -0.7800  0.7346  0.2858
    6CHTO   C85 2238   4.826   4.115   1.682 -0.5377  0.2337 -0.6151
    6CHTO  H157 2239   4.719   4.090   1.666 -0.4474 -0.2607 -0.4592
    6CHTO   C83 2240   4.913   3.989   1.661  0.6756  0.3701  0.2972
    6CHTO  H155 2241   4.876   3.920   1.737 -0.8712  0.8068 -0.0326
    6CHTO   O56 2242   5.047   4.006   1.700 -0.0640 -0.1193  0.2538
    6CHTO  H135 2243   5.073   4.092   1.675 -0.0940 -0.5274 -1.2312
    6CHTO   C81 2244   4.905   3.925   1.517  0.8555 -0.3505  0.2950
    6CHTO  H153 2245   4.799   3.912   1.497  0.8218 -0.2712  0.4179
    6CHTO   N14 2246   4.974   3.790   1.497 -0.0081  0.1346  0.2047
    6CHTO  H141 2247   4.900   3.715   1.477 -0.9508  0.9695  0.4802
    6CHTO  H142 2248   5.030   3.764   1.584 -0.5488  1.2757  0.9157
    6CHTO   C79 2249   4.956   4.040   1.414 -0.3085 -1.1922  0.9891
    6CHTO  H151 2250   4.942   4.008   1.311  0.0238  0.5055  0.3894
    6CHTO   O52 2251   4.869   4.160   1.431 -0.3981  0.3853 -0.3738
    6CHTO   C86 2252   4.881   4.212   1.564 -0.5771  0.4521  0.1467
    6CHTO  H158 2253   4.989   4.236   1.572 -0.4601 -0.0384  0.0830
    6CHTO   C90 2254   4.809   4.347   1.564  0.0457  0.1653  0.2527
    6CHTO   O60 2255   4.667   4.341   1.538 -0.0309  0.0224  0.2120
    6CHTO  H138 2256   4.639   4.294   1.461  3.1072  0.1519 -1.1031
    6CHTO   O50 2257   5.091   4.086   1.428 -0.1961 -0.1278  0.3757
    6CHTO   C73 2258   5.206   4.119   1.349 -0.3120  0.0053  0.4350
    6CHTO  H145 2259   5.184   4.124   1.241  0.2634 -1.2586  0.2497
    6CHTO   C74 2260   5.317   4.007   1.353 -0.0931  0.0686 -0.4011
    6CHTO  H146 2261   5.263   3.916   1.323 -1.5756 -0.2266  2.8796
    6CHTO   O54 2262   5.424   4.029   1.260 -0.3737 -0.1001 -0.1337
    6CHTO  H133 2263   5.485   3.958   1.255  1.4965  1.5823 -2.4456
    6CHTO   C75 2264   5.372   3.998   1.497  0.3971  0.3699  0.4665
    6CHTO  H147 2265   5.289   3.966   1.562 -0.4729  0.8696 -0.4007
    6CHTO   N13 2266   5.484   3.898   1.514  0.0902 -0.2638 -0.0748
    6CHTO  H139 2267   5.538   3.918   1.605  2.8949 -0.6963 -1.6031
    6CHTO  H140 2268   5.440   3.800   1.501  0.8503 -0.4344 -1.4769
    6CHTO   C76 2269   5.424   4.151   1.537 -0.0573  0.4078 -0.1380
    6CHTO  H148 2270   5.503   4.176   1.466  0.0104  1.7607  0.3867
    6CHTO   O49 2271   5.308   4.246   1.520 -1.1007  0.6451  0.3517
    6CHTO   C77 2272   5.263   4.253   1.390 -0.3011  0.1427  0.0508
    6CHTO  H149 2273   5.345   4.274   1.320 -0.0769 -1.3143 -0.1298
    6CHTO   C88 2274   5.166   4.369   1.370  0.7891 -0.0996 -0.4708
    6CHTO   O58 2275   5.231   4.474   1.358  0.2397  0.1639 -0.4417
    6CHTO  H136 2276   5.263   4.477   1.269  0.7957  2.9003 -0.1805
    6CHTO   O51 2277   5.456   4.155   1.687  0.0147 -0.6220  0.1408
    6CHTO   C78 2278   5.504   4.295   1.779 -0.8145  0.0426  0.2820
    6CHTO  H150 2279   5.547   4.268   1.877 -0.6143  2.9874  1.0604
    6CHTO   C80 2280   5.382   4.379   1.799  0.4306  0.3976  0.2035
    6CHTO  H152 2281   5.342   4.412   1.701  0.6445  0.9020  0.2818
    6CHTO   O55 2282   5.277   4.302   1.863  0.2474  0.6295 -0.2448
    6CHTO  H134 2283   5.248   4.233   1.807  1.2687 -2.0435  2.3727
    6CHTO   C84 2284   5.423   4.513   1.870  0.3887 -0.3950  0.1816
    6CHTO  H156 2285   5.454   4.482   1.970  2.0406  0.7347  0.0275
    6CHTO   N15 2286   5.302   4.603   1.887 -0.1009  0.1828 -0.7852
    6CHTO  H143 2287   5.281   4.641   1.985  1.2881 -1.3814  0.1372
    6CHTO  H144 2288   5.211   4.582   1.835 -0.6044  0.6530 -0.1118
    6CHTO   C87 2289   5.544   4.581   1.788  0.3358 -1.0264 -0.1919
    6CHTO  H159 2290   5.492   4.612   1.697  0.2380 -0.6111  0.0034
    6CHTO   O53 2291   5.652   4.486   1.761  0.5481 -0.2629 -0.5260
    6CHTO   C82 2292   5.611   4.368   1.696 -0.0731 -0.7876 -0.4743
    6CHTO  H154 2293   5.572   4.397   1.599  2.1948 -1.0501 -1.4746
    6CHTO   C89 2294   5.740   4.287   1.672  0.0243 -0.3232  0.0187
    6CHTO   O59 2295   5.843   4.361   1.597  0.4619 -0.0791  0.2688
    6CHTO  H137 2296   5.827   4.349   1.506  0.6277  0.1106  0.2159
    6CHTO   O45 2297   5.607   4.699   1.852 -0.1759 -0.3202 -0.2169
    6CHTO   C67 2298   5.733   4.760   1.822 -0.2180  0.4930  0.1098
    6CHTO  H124 2299   5.813   4.708   1.874 -0.2633 -1.4471 -1.6894
    6CHTO   C65 2300   5.757   4.758   1.666 -0.4693 -0.0142 -0.0335
    6CHTO  H122 2301   5.663   4.739   1.614 -0.5829  0.0138  0.1588
    6CHTO   O44 2302   5.851   4.650   1.640  0.6661 -0.2054 -0.5647
    6CHTO  H102 2303   5.823   4.613   1.558  0.0102 -4.0482  1.3104
    6CHTO   C63 2304   5.814   4.902   1.615  0.0389 -0.0493  0.8920
    6CHTO  H120 2305   5.730   4.971   1.605  0.6794  0.3696 -2.0192
    6CHTO   N11 2306   5.861   4.913   1.473  0.7642  0.2355 -0.1896
    6CHTO  H108 2307   5.929   4.992   1.448 -1.1448  1.7690 -0.6603
    6CHTO  H109 2308   5.776   4.931   1.411 -0.0491  1.0966  1.1415
    6CHTO   C61 2309   5.924   4.963   1.715 -0.1874 -1.1935  0.2639
    6CHTO  H118 2310   5.940   5.069   1.689  0.3072 -0.7920  2.0878
    6CHTO   O40 2311   5.873   4.962   1.846  0.1812 -0.5141  0.4761
    6CHTO   C68 2312   5.739   4.905   1.872  0.2955  0.2169  0.1218
    6CHTO  H125 2313   5.664   4.967   1.817  0.2519  0.2119  0.1754
    6CHTO   C72 2314   5.706   4.920   2.025 -0.5314  0.3772  0.4289
    6CHTO   O48 2315   5.638   5.039   2.080  0.2768  0.1335 -0.1978
    6CHTO  H105 2316   5.553   5.051   2.043  0.7203 -0.3589 -1.4072
    6CHTO   O38 2317   6.049   4.890   1.718 -0.2016 -0.5850  0.0022
    6CHTO   C55 2318   6.165   4.956   1.768  0.1021 -0.0582 -0.9703
    6CHTO  H112 2319   6.142   5.014   1.859  0.7137 -0.7359 -0.3704
    6CHTO   C56 2320   6.225   5.046   1.657 -0.2105 -0.4351 -0.0989
    6CHTO  H113 2321   6.231   4.971   1.577  0.4867  2.1787 -2.5705
    6CHTO   O42 2322   6.134   5.149   1.614  0.6371 -0.5367 -0.4380
    6CHTO  H100 2323   6.175   5.217   1.563  0.4005  0.0337  0.1225
    6CHTO   C57 2324   6.364   5.111   1.695  0.4069 -0.0807 -0.7413
    6CHTO  H114 2325   6.339   5.194   1.761  0.9569 -0.8881  0.4954
    6CHTO   N10 2326   6.444   5.189   1.593 -0.1085 -0.4744  0.1360
    6CHTO  H106 2327   6.415   5.163   1.492 -0.0556 -0.1448  0.0328
    6CHTO  H107 2328   6.552   5.187   1.602  0.1024  0.2958 -1.8798
    6CHTO   C58 2329   6.462   5.016   1.762 -0.4953 -0.0329 -0.0849
    6CHTO  H115 2330   6.507   4.951   1.684 -0.0047  1.2211 -0.8668
    6CHTO   O37 2331   6.397   4.927   1.852  0.1227 -0.6747 -0.1213
    6CHTO   C59 2332   6.282   4.852   1.807  0.3222 -0.3010 -0.2921
    6CHTO  H116 2333   6.312   4.794   1.721 -2.2803 -0.1563 -1.3456
    6CHTO   C70 2334   6.231   4.763   1.924  0.5844  0.8810  0.3221
    6CHTO   O46 2335   6.322   4.654   1.929  0.1802  0.1279  0.2239
    6CHTO  H103 2336   6.355   4.672   2.016 -0.1271  2.0067 -0.0254
    6CHTO   O39 2337   6.586   5.101   1.857  0.4095 -0.4408 -0.5537
    6CHTO   C60 2338   6.713   5.046   1.880  0.1481 -0.2464  0.0389
    6CHTO  H117 2339   6.682   4.941   1.888 -3.3132  0.7610  0.6525
    6CHTO   C62 2340   6.806   5.081   1.762  0.3185 -0.8605 -0.1855
    6CHTO  H119 2341   6.761   5.023   1.678  3.1671 -0.1778 -2.2633
    6CHTO   O43 2342   6.809   5.221   1.747 -0.0499 -0.3298 -0.3184
    6CHTO  H101 2343   6.718   5.242   1.745  0.0059 -0.1478 -0.8593
    6CHTO   C66 2344   6.957   5.021   1.785 -0.3485  0.2025 -0.2438
    6CHTO  H123 2345   6.950   4.912   1.791 -1.3020  0.3554  1.6929
    6CHTO   N12 2346   7.051   5.059   1.671 -0.4321  0.4551  0.1267
    6CHTO  H110 2347   7.017   5.144   1.615 -2.2065 -0.2072  0.1560
    6CHTO  H111 2348   7.073   4.972   1.610  1.4642  1.8787 -1.2904
    6CHTO   C69 2349   6.998   5.073   1.925  0.2463 -1.2946  0.4107
    6CHTO  H126 2350   7.019   5.181   1.919 -0.4752 -1.2460 -1.4703
    6CHTO   O41 2351   6.902   5.040   2.040  0.0286 -0.2120 -0.2313
    6CHTO   C64 2352   6.768   5.093   2.020 -0.2567  0.0556 -0.2859
    6CHTO  H121 2353   6.771   5.203   2.029 -1.0710 -0.0071  0.8324
    6CHTO   C71 2354   6.683   5.045   2.135  0.3669  0.0969 -0.4721
    6CHTO   O47 2355   6.748   5.079   2.260  0.2078 -0.9038 -0.0466
    6CHTO  H104 2356   6.694   5.143   2.302  1.1314 -0.7395  0.9275
    6CHTO   O34 2357   7.144   4.990   1.955 -0.3156 -0.0269  0.1207
    6CHTO   C49 2358   7.274   5.025   1.983  0.6996  0.2971 -0.4493
    6CHTO   H91 2359   7.338   4.972   1.912  2.5169  3.0922 -1.0042
    6CHTO   C47 2360   7.303   4.961   2.122 -0.3070 -0.4569 -0.2000
    6CHTO   H89 2361   7.414   4.970   2.132  0.1822 -2.8296 -2.7867
    6CHTO   O33 2362   7.274   4.821   2.119  0.4692 -0.1316  0.1762
    6CHTO   H70 2363   7.200   4.800   2.065  2.3619  0.0231 -2.5663
    6CHTO   C45 2364   7.227   5.049   2.231  0.4469  0.5581 -0.0379
    6CHTO   H87 2365   7.120   5.035   2.209  0.5599  0.3201 -0.4564
    6CHTO    N8 2366   7.246   4.996   2.368 -0.2052  0.0907  0.2033
    6CHTO   H75 2367   7.160   4.937   2.396  0.1547 -0.5905 -0.1242
    6CHTO   H76 2368   7.345   4.955   2.382  0.6474  1.5179 -1.3843
    6CHTO   C43 2369   7.246   5.213   2.222 -0.4969  0.6621  0.4056
    6CHTO   H85 2370   7.167   5.257   2.283  1.2085  0.9010  2.4809
    6CHTO   O29 2371   7.238   5.252   2.086  0.0073 -0.5343  0.2692
    6CHTO   C50 2372   7.304   5.175   1.982 -0.1272 -0.4047 -0.2728
    6CHTO   H92 2373   7.267   5.212   1.886  0.3658 -2.0137 -1.0948
    6CHTO   C54 2374   7.459   5.189   1.971 -0.5183  0.0112 -0.3518
    6CHTO   O36 2375   7.493   5.327   1.951 -0.1520 -0.5819  0.1438
    6CHTO   H72 2376   7.585   5.334   1.967 -0.2427  1.7872 -0.1353
    6CHTO   O27 2377   7.375   5.260   2.279 -0.0711 -0.2753 -0.4709
    6CHTO   C37 2378   7.467   5.358   2.332 -1.2895  0.5197  0.4233
    6CHTO   H79 2379   7.562   5.344   2.278  0.4199  3.7896  2.4484
    6CHTO   C38 2380   7.421   5.501   2.303  0.4618  0.0112 -0.5347
    6CHTO   H80 2381   7.319   5.513   2.343  0.3133 -0.0645 -0.8873
    6CHTO   O31 2382   7.412   5.520   2.159 -0.2552  0.1623  0.3503
    6CHTO   H68 2383   7.357   5.452   2.124  0.9286 -0.5914 -0.0702
    6CHTO   C39 2384   7.520   5.612   2.370  0.3521 -0.8904  0.3002
    6CHTO   H81 2385   7.615   5.614   2.317  0.1236 -0.0031 -0.0891
    6CHTO    N7 2386   7.464   5.752   2.367 -0.0135 -0.0860 -0.0579
    6CHTO   H73 2387   7.547   5.820   2.373  0.4208 -0.6613  0.4946
    6CHTO   H74 2388   7.397   5.770   2.284 -0.6119 -2.1569 -0.0641
    6CHTO   C40 2389   7.543   5.572   2.528  0.2842  0.0837  0.0536
    6CHTO   H82 2390   7.456   5.599   2.588 -0.3361 -1.1379 -0.2961
    6CHTO   O26 2391   7.587   5.437   2.543 -0.0528  0.0837 -1.0998
    6CHTO   C41 2392   7.498   5.332   2.487 -0.2686  0.1740 -0.1796
    6CHTO   H83 2393   7.409   5.343   2.552  0.2609 -1.0584  0.7700
    6CHTO   C52 2394   7.570   5.198   2.509 -0.4997  0.2129  0.0896
    6CHTO   O35 2395   7.599   5.175   2.668  0.4007  0.2323  0.7664
    6CHTO   H71 2396   7.675   5.222   2.697 -0.5862  0.8269  2.5049
    6CHTO   O28 2397   7.654   5.646   2.578 -0.2293  0.1061  0.0178
    6CHTO   C42 2398   7.669   5.686   2.719 -0.2181  0.8511  0.2774
    6CHTO   H84 2399   7.760   5.745   2.724 -0.4523  1.0341  3.1273
    6CHTO   C44 2400   7.687   5.569   2.827 -0.1882 -0.0982  0.0974
    6CHTO   H86 2401   7.598   5.508   2.815  1.2063 -2.1269 -0.0863
    6CHTO   O32 2402   7.796   5.482   2.791  0.8706  0.6719  0.4127
    6CHTO   H69 2403   7.771   5.423   2.723  0.5613 -0.4754  1.4997
    6CHTO   C48 2404   7.688   5.626   2.977  0.2560 -1.1809 -0.2098
    6CHTO   H90 2405   7.778   5.688   2.981 -0.5331  0.0489 -1.0506
    6CHTO    N9 2406   7.705   5.513   3.067  0.4031  0.3663 -0.5158
    6CHTO   H77 2407   7.661   5.526   3.165 -0.9522 -1.7913 -0.8232
    6CHTO   H78 2408   7.809   5.496   3.090  0.1837  2.6358  2.6851
    6CHTO   C51 2409   7.561   5.711   2.999 -0.4034  0.8518  0.6909
    6CHTO   H93 2410   7.473   5.648   2.982 -1.0156  1.1512  2.6298
    6CHTO   O30 2411   7.577   5.812   2.905  0.2346 -0.4962 -0.3695
    6CHTO   C46 2412   7.553   5.780   2.771  0.2329  0.6216  0.0572
    6CHTO   H88 2413   7.458   5.725   2.770  0.2892  0.5299 -0.2743
    6CHTO   C53 2414   7.540   5.909   2.686 -0.1287 -0.3105 -0.1510
    6CHTO   O72 2415   7.661   5.980   2.670 -0.6099  0.1467  0.5710
    6CHTO  H199 2416   7.650   6.024   2.587 -3.0300  0.5899  1.0808
    6CHTO   O22 2417   7.554   5.775   3.126  0.4693  0.5306 -0.1336
    6CHTO   C31 2418   7.461   5.887   3.154 -0.6011  0.4474  1.1319
    6CHTO   H59 2419   7.463   5.906   3.263  2.7815  1.7442  0.9091
    6CHTO   C29 2420   7.497   6.023   3.091  0.2472  0.2087  0.0680
    6CHTO   H57 2421   7.504   6.011   2.982 -2.4451  1.2064 -0.2496
    6CHTO   O21 2422   7.633   6.057   3.125  0.0202 -0.2891  0.2854
    6CHTO   H37 2423   7.644   6.074   3.217  0.9540 -0.1240  0.1507
    6CHTO   C27 2424   7.397   6.138   3.122 -0.4019 -0.4960 -0.0467
    6CHTO   H55 2425   7.399   6.167   3.228 -2.4955  0.4528 -0.2304
    6CHTO    N5 2426   7.428   6.260   3.037 -0.1595 -0.4338  0.0733
    6CHTO   H43 2427   7.418   6.236   2.932 -0.6806  4.5019 -1.1214
    6CHTO   H44 2428   7.351   6.334   3.051 -0.6830 -0.4276 -2.6197
    6CHTO   C25 2429   7.241   6.096   3.095  0.1175  0.6095 -0.1135
    6CHTO   H53 2430   7.237   6.076   2.987  0.1648 -2.5320  0.4100
    6CHTO   O17 2431   7.221   5.961   3.152 -0.4883 -0.1493  0.4661
    6CHTO   C32 2432   7.316   5.853   3.114 -0.1618 -0.2300 -0.0091
    6CHTO   H60 2433   7.316   5.841   3.006  0.2775 -1.2661  0.1061
    6CHTO   C36 2434   7.271   5.728   3.190  0.7218 -0.1060  0.2815
    6CHTO   O25 2435   7.136   5.677   3.179  0.0680 -0.4414 -0.0793
    6CHTO   H40 2436   7.081   5.734   3.230  1.3553  1.2405 -0.5062
    6CHTO   O15 2437   7.144   6.191   3.151  0.0325  0.1929  0.2723
    6CHTO   C19 2438   7.008   6.241   3.183  0.1515  0.6824  0.1220
    6CHTO   H47 2439   6.987   6.204   3.284 -0.5163  0.4687 -0.0939
    6CHTO   C20 2440   7.015   6.395   3.181  0.1482 -0.1494 -0.3455
    6CHTO   H48 2441   7.051   6.434   3.085  2.7273 -0.8689  0.2861
    6CHTO   O19 2442   7.109   6.429   3.284  0.5679  0.2682 -0.0826
    6CHTO   H35 2443   7.072   6.422   3.370  0.3688 -0.8696 -0.2518
    6CHTO   C21 2444   6.869   6.471   3.193  0.0581  0.3646 -0.2759
    6CHTO   H49 2445   6.829   6.452   3.293  0.4806  1.1464  0.0425
    6CHTO    N4 2446   6.886   6.616   3.168 -0.1685  0.0513 -0.0818
    6CHTO   H41 2447   6.941   6.633   3.077  0.5900  0.0877  0.3721
    6CHTO   H42 2448   6.914   6.686   3.245 -0.2444 -0.8944  0.8155
    6CHTO   C22 2449   6.759   6.404   3.109 -0.6742 -0.7316 -0.2235
    6CHTO   H50 2450   6.774   6.426   3.003 -0.8020  0.5780  0.0170
    6CHTO   O14 2451   6.769   6.265   3.126 -0.5120  0.2716  0.4256
    6CHTO   C23 2452   6.892   6.199   3.094  0.5988 -0.4441 -0.2633
    6CHTO   H51 2453   6.909   6.222   2.987 -0.8767  3.1881  0.2058
    6CHTO   C34 2454   6.868   6.049   3.108 -0.0374  0.2466  0.2921
    6CHTO   O23 2455   6.787   5.998   3.005  0.2794  0.6223 -0.1084
    6CHTO   H38 2456   6.836   5.930   2.961 -0.4773  0.4170 -0.6442
    6CHTO   O16 2457   6.626   6.433   3.141 -0.6281  0.3705 -0.1222
    6CHTO   C24 2458   6.528   6.452   2.998  0.0340 -0.0136 -0.0895
    6CHTO   H52 2459   6.575   6.410   2.909 -1.5760  0.2815 -1.0973
    6CHTO   C26 2460   6.500   6.598   2.975  0.2804 -0.0062  0.1075
    6CHTO   H54 2461   6.462   6.642   3.069  0.5384  0.0367  0.1941
    6CHTO   O20 2462   6.613   6.671   2.942  0.2448 -0.8051  0.0483
    6CHTO   H36 2463   6.665   6.709   3.011  1.3528 -0.0144 -1.1932
    6CHTO   C30 2464   6.391   6.619   2.870 -0.2713  0.5999  0.3678
    6CHTO   H58 2465   6.427   6.587   2.771  1.1519 -1.1572  1.4299
    6CHTO    N6 2466   6.343   6.756   2.847  0.8329  0.1666 -0.5401
    6CHTO   H45 2467   6.412   6.838   2.840  0.1425  0.9394  1.3007
    6CHTO   H46 2468   6.275   6.775   2.928 -0.9403  0.7359 -2.1152
    6CHTO   C33 2469   6.267   6.528   2.888 -0.4773  0.5584 -0.2219
    6CHTO   H61 2470   6.217   6.554   2.982  2.0988  3.8371  0.3719
    6CHTO   O18 2471   6.317   6.395   2.901  0.4477  0.6911  0.0252
    6CHTO   C28 2472   6.393   6.376   3.017  0.0918 -0.0407  0.0062
    6CHTO   H56 2473   6.333   6.422   3.095 -0.6385 -0.5015 -0.2767
    6CHTO   C35 2474   6.412   6.222   3.048 -0.2111 -0.4678  0.2030
    6CHTO   O24 2475   6.295   6.146   3.075  0.2113 -0.1137  0.2371
    6CHTO   H39 2476   6.273   6.148   3.166 -1.1062 -1.6310 -0.0177
    6CHTO    O9 2477   6.166   6.539   2.789  0.1232 -0.4655  0.6619
    6CHTO   C13 2478   6.014   6.551   2.855  0.5722 -0.2204  1.0946
    6CHTO   H26 2479   6.027   6.626   2.936  1.8884 -0.2764  0.9484
    6CHTO   C11 2480   5.962   6.414   2.909 -0.3341 -0.6271 -1.1575
    6CHTO   H24 2481   6.023   6.392   2.998 -0.0065 -0.3555 -1.3134
    6CHTO    O8 2482   5.978   6.306   2.818 -0.3408 -0.3002  0.3879
    6CHTO    H3 2483   5.913   6.296   2.751 -1.7067 -0.4628  1.7253
    6CHTO    C9 2484   5.822   6.449   2.960 -0.0451  0.5808 -0.5136
    6CHTO   H22 2485   5.835   6.536   3.025 -2.1894 -0.9829  2.1381
    6CHTO    N2 2486   5.783   6.331   3.042  0.2351 -0.2716 -0.4867
    6CHTO   H10 2487   5.728   6.359   3.131 -2.2402 -1.6072 -1.5414
    6CHTO   H11 2488   5.722   6.258   2.991 -1.0553 -1.2101  2.2581
    6CHTO    C7 2489   5.722   6.494   2.842  0.2883 -0.3931  0.3546
    6CHTO   H20 2490   5.626   6.518   2.893  0.5386 -1.2860  1.2418
    6CHTO    O4 2491   5.769   6.615   2.776 -0.5087 -0.1823 -0.7152
    6CHTO   C14 2492   5.913   6.609   2.743 -0.5283  0.0594 -0.4581
    6CHTO   H27 2493   5.939   6.716   2.733  3.6193 -0.8376  0.1309
    6CHTO   C18 2494   5.951   6.547   2.604  0.3681  0.3230 -0.4938
    6CHTO   O13 2495   5.918   6.630   2.495 -0.0961  0.2286  0.4588
    6CHTO    H7 2496   5.843   6.684   2.510 -0.5718 -0.3317  0.0804
    6CHTO    O2 2497   5.692   6.378   2.735 -0.3749 -0.1999  0.3640
    6CHTO    C1 2498   5.552   6.378   2.686 -0.5090  0.1743 -0.1331
    6CHTO   H14 2499   5.540   6.289   2.621  0.4857 -1.6947  2.1721
    6CHTO    C2 2500   5.509   6.500   2.602  0.1209  0.0527  0.2125
    6CHTO   H15 2501   5.530   6.587   2.666 -2.3159  1.1599 -0.4476
    6CHTO    O6 2502   5.601   6.519   2.496  0.1958 -0.3466 -0.3332
    6CHTO    H1 2503   5.561   6.563   2.424  0.7517  0.6117 -0.0603
    6CHTO    C3 2504   5.355   6.490   2.553 -0.1070  0.5475 -0.6689
    6CHTO   H16 2505   5.345   6.410   2.478  0.0061 -1.1518  1.0690
    6CHTO    N1 2506   5.304   6.611   2.492 -0.1117 -0.2900 -0.0064
    6CHTO    H8 2507   5.353   6.620   2.396  0.8342 -2.1748  0.2742
    6CHTO    H9 2508   5.322   6.696   2.556 -1.2874 -0.3701  0.4411
    6CHTO    C4 2509   5.264   6.439   2.671 -0.5760  0.1677 -0.1729
    6CHTO   H17 2510   5.258   6.521   2.744  2.3763  0.6369 -0.3803
    6CHTO    O1 2511   5.323   6.322   2.732 -0.3241  0.2085  0.1395
    6CHTO    C5 2512   5.445   6.344   2.790 -0.6575  0.8812  0.0701
    6CHTO   H18 2513   5.437   6.431   2.856 -2.4256  0.2983  0.6421
    6CHTO   C16 2514   5.483   6.211   2.872  0.2104 -0.3993  0.0985
    6CHTO   O11 2515   5.497   6.092   2.792 -0.1127 -0.6225 -1.0352
    6CHTO    H5 2516   5.576   6.087   2.742  1.0073 -1.0879  0.7569
    6CHTO    O3 2517   5.132   6.398   2.630 -0.0022  0.7185  0.1496
    6CHTO    C6 2518   5.036   6.408   2.740  0.1607 -0.1169 -0.8123
    6CHTO   H19 2519   5.076   6.445   2.835 -2.0033  2.3015 -0.7678
    6CHTO    C8 2520   4.937   6.525   2.705 -0.5411  0.4496 -0.1613
    6CHTO   H21 2521   4.901   6.509   2.604  1.8280  1.7634 -1.2426
    6CHTO    O7 2522   5.006   6.649   2.714 -0.3527 -0.1792 -0.5507
    6CHTO    H2 2523   5.020   6.690   2.631  3.3436 -1.2486 -0.5749
    6CHTO   C12 2524   4.810   6.520   2.805  0.0626 -0.3547  0.5004
    6CHTO   H25 2525   4.849   6.553   2.903 -1.0548  2.0337  0.1560
    6CHTO    N3 2526   4.707   6.625   2.761  0.1016  0.1203  0.3120
    6CHTO   H12 2527   4.678   6.691   2.841 -0.7687 -2.9512  2.6378
    6CHTO   H13 2528   4.617   6.571   2.733 -1.0986  2.8978 -1.3799
    6CHTO   C15 2529   4.749   6.378   2.819  0.2358  0.0275 -0.4837
    6CHTO   H28 2530   4.712   6.343   2.723 -1.3713  0.4200 -0.0290
    6CHTO   O10 2531   4.639   6.361   2.916  0.7227 -0.1646 -0.3185
    6CHTO    H4 2532   4.561   6.407   2.889 -0.1066 -2.7061 -2.4597
    6CHTO    O5 2533   4.850   6.285   2.858  0.3433 -0.5375 -0.2218
    6CHTO   C10 2534   4.963   6.278   2.770 -0.2549  0.0031 -0.0506
    6CHTO   H23 2535   4.928   6.229   2.679  0.8650 -3.3116  1.2364
    6CHTO   C17 2536   5.061   6.181   2.840 -0.0424  0.4272 -0.3296
    6CHTO   O12 2537   5.025   6.045   2.849 -0.0622 -0.1026 -0.0816
    6CHTO    H6 2538   5.018   6.010   2.763  3.8918  0.0435 -0.5423
    7CHTO  H203 2539   4.703   2.427  -0.012  0.4466 -1.0399  2.1009
    7CHTO   O82 2540   4.782   2.398  -0.053 -0.1680 -0.5404  0.5273
    7CHTO  C123 2541   4.904   2.472  -0.017 -0.0741 -0.4699  0.2627
    7CHTO  H227 2542   4.882   2.579  -0.015  2.7038  0.1352  1.7012
    7CHTO   O77 2543   4.940   2.408   0.106  0.3995  0.1202 -0.5904
    7CHTO  C118 2544   5.066   2.436   0.165  0.0143 -0.5942  0.6109
    7CHTO  H222 2545   5.062   2.541   0.196  1.8915  0.0234 -1.1507
    7CHTO  C125 2546   5.089   2.336   0.286 -0.7725 -0.3349 -0.1235
    7CHTO   O84 2547   5.018   2.355   0.410 -0.0330  0.4274 -0.5953
    7CHTO  H205 2548   4.942   2.303   0.428 -0.1820  1.1465  0.9131
    7CHTO  C114 2549   5.184   2.415   0.068 -0.9210  0.1187  0.3047
    7CHTO  H218 2550   5.191   2.308   0.047 -2.2419  0.4908 -2.2003
    7CHTO  C116 2551   5.164   2.480  -0.074  0.1002 -0.4244  0.7226
    7CHTO  H220 2552   5.177   2.589  -0.058 -1.4537 -0.0235 -0.7151
    7CHTO   O79 2553   5.268   2.432  -0.165 -0.5717 -0.1220  0.6423
    7CHTO  H201 2554   5.244   2.350  -0.203 -1.7652  1.3809 -2.0066
    7CHTO  C120 2555   5.016   2.446  -0.131  0.7843 -0.2550 -0.4357
    7CHTO  H224 2556   5.013   2.337  -0.152 -0.2681 -0.4024  0.4217
    7CHTO   N21 2557   4.981   2.517  -0.256 -0.4167  0.2695 -0.5369
    7CHTO  H211 2558   5.012   2.463  -0.345 -1.4083 -0.9363 -0.1724
    7CHTO  H212 2559   5.005   2.622  -0.252 -0.8852  0.4677 -2.2942
    7CHTO   O75 2560   5.296   2.463   0.149  0.1678  0.2310 -0.4583
    7CHTO  C112 2561   5.430   2.388   0.119  0.0551  0.0958  0.1981
    7CHTO  H216 2562   5.429   2.347   0.017 -1.5387  2.5989 -0.8574
    7CHTO   O73 2563   5.433   2.287   0.223 -0.5668 -0.4181 -0.3964
    7CHTO  C113 2564   5.550   2.199   0.226 -0.1677  0.4412 -0.1707
    7CHTO  H217 2565   5.553   2.132   0.137 -1.1785 -0.1254  0.2139
    7CHTO  C124 2566   5.541   2.102   0.344 -0.2902 -0.1644 -0.2005
    7CHTO   O83 2567   5.425   2.019   0.333 -0.5323 -0.3058  0.3155
    7CHTO  H204 2568   5.387   1.994   0.415  1.9038  1.0831  1.9531
    7CHTO  C109 2569   5.678   2.287   0.231  0.2633  0.8282 -0.0302
    7CHTO  H213 2570   5.683   2.330   0.332 -0.2844  0.7727  0.0217
    7CHTO  C110 2571   5.677   2.403   0.127 -0.6793 -0.8233 -0.3301
    7CHTO  H214 2572   5.696   2.367   0.026  1.6605  1.2939 -0.6844
    7CHTO   O78 2573   5.800   2.479   0.154  0.5100 -0.0512  0.9553
    7CHTO  H200 2574   5.794   2.526   0.235 -1.2069 -0.9292  1.3672
    7CHTO  C111 2575   5.547   2.484   0.135 -0.5628  0.2435  0.3490
    7CHTO  H215 2576   5.549   2.541   0.229 -0.1521  3.0492 -1.3232
    7CHTO   N19 2577   5.549   2.580   0.024  0.5072 -0.3100 -0.0899
    7CHTO  H207 2578   5.596   2.548  -0.068  1.2844 -0.6956  0.4447
    7CHTO  H208 2579   5.601   2.667   0.062 -1.4857  1.1130 -0.4685
    7CHTO   O74 2580   5.798   2.200   0.223  0.2785  0.2277  0.0490
    7CHTO  C115 2581   5.911   2.205   0.347  0.2642  0.0791  0.0179
    7CHTO  H219 2582   5.900   2.296   0.406  2.4251  0.4864 -0.1709
    7CHTO   O76 2583   5.888   2.081   0.463  0.0041 -0.6315  0.0555
    7CHTO  C122 2584   5.986   2.072   0.570 -0.4908 -0.0196  0.3912
    7CHTO  H226 2585   5.973   1.967   0.594 -2.1350  0.5179  1.9683
    7CHTO  C126 2586   5.933   2.147   0.696  0.6929  0.3895  0.7759
    7CHTO   O85 2587   5.934   2.287   0.679  0.4625  0.0831 -0.1107
    7CHTO  H206 2588   5.887   2.325   0.750  1.9054  2.0700 -0.1534
    7CHTO  C121 2589   6.133   2.111   0.521  0.4680 -0.3637 -0.4650
    7CHTO  H225 2590   6.156   2.217   0.546  0.4823 -0.6985  0.9792
    7CHTO   O81 2591   6.240   2.038   0.580 -0.3538  0.1107  0.0810
    7CHTO  H202 2592   6.237   2.048   0.673 -0.0235 -0.1111  0.1137
    7CHTO  C119 2593   6.141   2.099   0.362 -0.1002  0.2723 -0.3080
    7CHTO  H223 2594   6.247   2.104   0.335  0.1922 -1.3221  0.4768
    7CHTO  C117 2595   6.051   2.201   0.281  0.7995 -0.4480 -0.5303
    7CHTO  H221 2596   6.036   2.183   0.174 -0.0945  1.1056 -0.6781
    7CHTO   N20 2597   6.113   2.337   0.277 -0.2549 -0.5899  0.3717
    7CHTO  H209 2598   6.212   2.322   0.237  0.0994 -0.3468  1.1481
    7CHTO  H210 2599   6.134   2.369   0.378  1.8640 -1.2719  0.1769
    7CHTO   O80 2600   6.114   1.946   0.322 -0.1409 -0.0870 -0.0635
    7CHTO  C103 2601   6.120   1.907   0.199  0.1735 -0.5656 -0.8538
    7CHTO  H190 2602   6.094   1.990   0.134  0.4636 -0.7913 -1.2608
    7CHTO  C101 2603   6.266   1.864   0.165  0.1915 -0.0636 -0.9453
    7CHTO  H188 2604   6.309   1.809   0.249 -1.3336  1.0323  0.6024
    7CHTO   O68 2605   6.346   1.979   0.144  0.0717 -0.1061  0.3389
    7CHTO  H168 2606   6.430   1.972   0.186  0.3831  1.5191  0.0594
    7CHTO   C99 2607   6.271   1.766   0.042 -0.1971  0.0059  0.4930
    7CHTO  H186 2608   6.254   1.824  -0.051 -2.8300  0.9904  1.5502
    7CHTO   N17 2609   6.403   1.701   0.015  0.0626  0.0108 -0.5123
    7CHTO  H174 2610   6.408   1.659  -0.084  0.5229 -1.1442 -0.0158
    7CHTO  H175 2611   6.485   1.771   0.022 -0.5446  0.6257  0.6447
    7CHTO   C97 2612   6.152   1.665   0.047 -0.2230  0.3411 -0.0580
    7CHTO  H184 2613   6.171   1.598   0.132  2.0529  0.8848 -0.1170
    7CHTO   O64 2614   6.031   1.732   0.055 -0.1788  0.6026  0.2226
    7CHTO  C104 2615   6.010   1.794   0.183 -0.8663  0.0247 -0.3179
    7CHTO  H191 2616   6.018   1.723   0.266  0.7741 -0.4449 -0.8704
    7CHTO  C108 2617   5.862   1.840   0.191 -0.4922 -0.8935  0.6758
    7CHTO   O71 2618   5.765   1.736   0.202 -0.2093  0.2303  0.3840
    7CHTO  H171 2619   5.776   1.685   0.124 -0.2890  0.8188 -0.0198
    7CHTO   O62 2620   6.140   1.605  -0.080  0.6415  0.0458  0.0618
    7CHTO   C91 2621   6.104   1.470  -0.107 -0.2331  0.1474  0.3712
    7CHTO  H178 2622   6.201   1.426  -0.131 -0.0338  1.2665 -0.9346
    7CHTO   C92 2623   6.010   1.444  -0.234 -0.2540  0.7490  0.2799
    7CHTO  H179 2624   6.053   1.503  -0.316  1.1897 -1.1786 -0.3698
    7CHTO   O66 2625   6.021   1.304  -0.272  0.0059 -0.5487 -0.4782
    7CHTO  H166 2626   6.108   1.293  -0.306 -0.1369 -1.0268 -0.7004
    7CHTO   C93 2627   5.855   1.472  -0.215  0.5415 -0.1588  0.3259
    7CHTO  H180 2628   5.798   1.423  -0.296  0.0325  1.4538 -0.3215
    7CHTO   N16 2629   5.824   1.617  -0.223 -0.1759 -0.1391  0.0021
    7CHTO  H172 2630   5.855   1.666  -0.132  0.9290  1.1248 -1.0318
    7CHTO  H173 2631   5.880   1.665  -0.302  2.6708 -2.4371  0.5273
    7CHTO   C94 2632   5.805   1.413  -0.074 -0.2921 -0.3393 -0.0820
    7CHTO  H181 2633   5.793   1.491   0.001  1.6022  0.0847 -0.2147
    7CHTO   O61 2634   5.913   1.328  -0.009  0.1072 -0.0806  0.9604
    7CHTO   C95 2635   6.038   1.394   0.021  0.1560  0.5183  0.4781
    7CHTO  H182 2636   6.019   1.462   0.104 -0.3438  0.0440  0.7560
    7CHTO  C106 2637   6.141   1.289   0.076 -0.0412 -0.3075  0.0315
    7CHTO   O69 2638   6.159   1.180  -0.008 -0.4224 -0.0232  0.1816
    7CHTO  H169 2639   6.092   1.116   0.007 -0.6502  0.8579  3.2257
    7CHTO   O63 2640   5.684   1.330  -0.085 -0.3781  0.3868  0.0984
    7CHTO   C96 2641   5.556   1.385  -0.011 -0.0888 -0.0850  0.0478
    7CHTO  H183 2642   5.558   1.493  -0.029  0.5511 -0.1571 -0.3203
    7CHTO   C98 2643   5.556   1.356   0.140  0.1356  0.4122 -0.3023
    7CHTO  H185 2644   5.636   1.411   0.191  0.6003 -2.2099  1.9112
    7CHTO   O67 2645   5.431   1.401   0.199  0.6458  0.1599  0.2952
    7CHTO  H167 2646   5.424   1.369   0.287  1.4091 -2.6949 -0.6280
    7CHTO  C102 2647   5.556   1.206   0.176  0.2269 -0.4018 -0.0420
    7CHTO  H189 2648   5.500   1.194   0.270  0.1462 -0.9531 -0.1604
    7CHTO   N18 2649   5.696   1.157   0.201  0.1884 -0.4498  0.4104
    7CHTO  H176 2650   5.693   1.054   0.167 -0.1089  0.3067 -1.9891
    7CHTO  H177 2651   5.717   1.159   0.306  0.9723 -3.3246  0.3576
    7CHTO  C105 2652   5.466   1.134   0.077  0.6685  0.6274  0.6664
    7CHTO  H192 2653   5.526   1.086   0.000 -0.3625 -1.1130  0.9284
    7CHTO   O65 2654   5.374   1.219  -0.001  0.1004  0.3828  0.7387
    7CHTO  C100 2655   5.446   1.317  -0.080 -0.0537  0.2098  0.0832
    7CHTO  H187 2656   5.486   1.268  -0.170  0.2667  0.0569  0.3055
    7CHTO  C107 2657   5.347   1.415  -0.137  0.4357 -0.6876  0.0548
    7CHTO   O70 2658   5.279   1.364  -0.251  0.1333  0.0343 -0.5872
    7CHTO  H170 2659   5.236   1.284  -0.227 -1.2101  0.5339 -1.2759
    7CHTO   O57 2660   5.415   1.015   0.167 -0.4473  0.1166  0.3799
    7CHTO   C85 2661   5.383   0.890   0.109 -0.1657 -0.6256  0.5044
    7CHTO  H157 2662   5.400   0.901   0.000 -0.2485  2.4535  0.7581
    7CHTO   C83 2663   5.234   0.864   0.133  0.2749 -0.1467  0.6097
    7CHTO  H155 2664   5.179   0.946   0.086 -1.0098 -1.5286 -0.3676
    7CHTO   O56 2665   5.196   0.854   0.274  0.0288 -0.0281  0.3323
    7CHTO  H135 2666   5.262   0.817   0.329 -0.7871 -0.8964  0.7455
    7CHTO   C81 2667   5.194   0.736   0.055  0.3568  0.2212  0.1317
    7CHTO  H153 2668   5.222   0.750  -0.049 -0.8193  0.9635 -0.0932
    7CHTO   N14 2669   5.046   0.702   0.063  0.0980  0.2789 -0.0884
    7CHTO  H141 2670   4.993   0.746  -0.019  2.3388  0.8084 -1.3113
    7CHTO  H142 2671   5.014   0.601   0.078  0.8982  0.4324  2.8637
    7CHTO   C79 2672   5.283   0.620   0.110 -0.4462  0.1181  0.2446
    7CHTO  H151 2673   5.270   0.533   0.046 -0.5928 -1.5756  2.5185
    7CHTO   O52 2674   5.430   0.650   0.096  0.0676 -0.4774  0.1346
    7CHTO   C86 2675   5.463   0.771   0.169  0.3847 -0.5506 -0.5267
    7CHTO  H158 2676   5.432   0.736   0.270  0.5069 -1.0915 -0.6772
    7CHTO   C90 2677   5.607   0.808   0.187  0.1389  0.3649 -0.0602
    7CHTO   O60 2678   5.676   0.716   0.281  0.4967  0.0311  0.1664
    7CHTO  H138 2679   5.726   0.756   0.349 -0.0222  0.6926  0.1614
    7CHTO   O50 2680   5.264   0.579   0.249  0.5930  0.2694  0.3500
    7CHTO   C73 2681   5.281   0.462   0.331 -0.8711 -0.6248  0.0493
    7CHTO  H145 2682   5.380   0.417   0.315  0.6466  2.1212  1.3081
    7CHTO   C74 2683   5.178   0.355   0.309 -0.3999  0.4596  0.5189
    7CHTO  H146 2684   5.188   0.319   0.206 -0.7919 -0.0075  0.6414
    7CHTO   O54 2685   5.204   0.238   0.386 -0.6462  0.3998 -0.4994
    7CHTO  H133 2686   5.134   0.176   0.386 -0.8409  0.5735  1.3860
    7CHTO   C75 2687   5.033   0.417   0.336  0.0484  0.4345  0.0289
    7CHTO  H147 2688   5.021   0.510   0.278 -2.7852 -1.1022 -1.9692
    7CHTO   N13 2689   4.916   0.332   0.297  0.1738  0.1720  0.7120
    7CHTO  H139 2690   4.909   0.288   0.198 -1.1183 -0.2078  0.9498
    7CHTO  H140 2691   4.894   0.252   0.367 -1.1025 -1.2617 -1.2733
    7CHTO   C76 2692   5.032   0.466   0.491 -0.0317 -0.2334 -1.0369
    7CHTO  H148 2693   5.019   0.376   0.551 -1.2719  0.5728 -0.0643
    7CHTO   O49 2694   5.149   0.540   0.524  0.0298  0.0325 -0.2119
    7CHTO   C77 2695   5.280   0.503   0.485 -0.5152 -1.1601  0.5472
    7CHTO  H149 2696   5.311   0.416   0.542  0.0680 -0.5073  1.2424
    7CHTO   C88 2697   5.372   0.623   0.526  0.7127 -0.1738 -0.2249
    7CHTO   O58 2698   5.375   0.650   0.671 -0.1078  0.5957  0.1736
    7CHTO  H136 2699   5.426   0.596   0.727  0.6902  1.6919  0.5146
    7CHTO   O51 2700   4.916   0.562   0.535  0.2498  0.5792  0.2318
    7CHTO   C78 2701   4.889   0.559   0.694 -0.0323 -0.0322 -0.6797
    7CHTO  H150 2702   4.964   0.493   0.741 -0.2327 -0.7466 -1.3504
    7CHTO   C80 2703   4.746   0.496   0.714  0.0029 -0.2841 -0.4492
    7CHTO  H152 2704   4.673   0.552   0.652  0.1100  1.1552  0.6974
    7CHTO   O55 2705   4.758   0.358   0.671 -0.1136 -0.2921  0.2103
    7CHTO  H134 2706   4.681   0.333   0.624 -0.4359  2.7183 -0.9670
    7CHTO   C84 2707   4.713   0.501   0.869 -0.5453 -0.0334 -0.5034
    7CHTO  H156 2708   4.783   0.433   0.919 -2.7946 -0.0181  2.7970
    7CHTO   N15 2709   4.576   0.447   0.898  0.2988  0.8273 -0.1091
    7CHTO  H143 2710   4.525   0.488   0.983 -0.1074  0.0938  0.0112
    7CHTO  H144 2711   4.591   0.342   0.912 -0.6582  0.6330 -0.4734
    7CHTO   C87 2712   4.732   0.641   0.935  0.5598  0.1119  0.8614
    7CHTO  H159 2713   4.659   0.711   0.894  0.8412  0.3478  0.7654
    7CHTO   O53 2714   4.877   0.688   0.895  0.3470 -0.2894  0.5289
    7CHTO   C82 2715   4.901   0.699   0.751 -0.1383  0.5956 -0.7041
    7CHTO  H154 2716   4.829   0.769   0.709 -2.2517 -1.2424 -0.2651
    7CHTO   C89 2717   5.041   0.749   0.727 -0.6709 -0.0174  0.9500
    7CHTO   O59 2718   5.058   0.881   0.782  0.0767 -0.3046  0.4891
    7CHTO  H137 2719   5.146   0.897   0.755 -0.8268  2.7697 -0.8114
    7CHTO   O45 2720   4.720   0.632   1.091  0.2624  0.1496 -0.2754
    7CHTO   C67 2721   4.776   0.738   1.168 -0.3273  0.1241 -0.2017
    7CHTO  H124 2722   4.880   0.749   1.138 -0.8594  2.5944 -1.2703
    7CHTO   C65 2723   4.699   0.873   1.131 -0.0353 -0.1585  0.5778
    7CHTO  H122 2724   4.608   0.838   1.082  0.1916  0.4640 -0.2855
    7CHTO   O44 2725   4.765   0.943   1.028 -0.3285 -0.2645 -0.5279
    7CHTO  H102 2726   4.832   0.997   1.066 -0.3370 -0.4088 -0.3033
    7CHTO   C63 2727   4.650   0.952   1.259 -0.1716  0.0702 -0.4130
    7CHTO  H120 2728   4.570   0.896   1.306 -0.8712 -0.2488 -1.9466
    7CHTO   N11 2729   4.578   1.082   1.230 -0.2400  0.7099  0.5439
    7CHTO  H108 2730   4.563   1.137   1.320  0.5876 -1.4455  2.0139
    7CHTO  H109 2731   4.483   1.060   1.185  0.5734 -1.1933 -0.2772
    7CHTO   C61 2732   4.780   0.964   1.355  0.1514 -0.1351 -0.2243
    7CHTO  H118 2733   4.756   1.026   1.442 -0.3803  1.5615 -1.5632
    7CHTO   O40 2734   4.820   0.829   1.399 -0.7272  0.3983 -0.0229
    7CHTO   C68 2735   4.782   0.709   1.326 -0.0832  0.1328  0.4970
    7CHTO  H125 2736   4.682   0.671   1.357 -0.8062  0.1313 -1.7884
    7CHTO   C72 2737   4.876   0.594   1.356 -0.2205 -0.5166  0.2812
    7CHTO   O48 2738   4.885   0.557   1.490  0.1289  0.2096 -0.0583
    7CHTO  H105 2739   4.949   0.612   1.531 -0.2857  0.9917 -0.4490
    7CHTO   O38 2740   4.897   1.027   1.288  0.2913 -0.2493 -0.8291
    7CHTO   C55 2741   5.008   1.061   1.368 -0.1605  0.5692  0.0670
    7CHTO  H112 2742   4.991   1.007   1.462  1.3392  0.6823  0.4083
    7CHTO   C56 2743   5.021   1.214   1.393 -0.5417  0.2075  0.0960
    7CHTO  H113 2744   5.006   1.267   1.298  1.6439  1.0570  0.1872
    7CHTO   O42 2745   4.914   1.235   1.488  0.1096  0.2448 -0.3435
    7CHTO  H100 2746   4.862   1.313   1.484 -1.4200 -0.7289  0.1398
    7CHTO   C57 2747   5.160   1.273   1.443 -0.4114 -0.3883 -0.1499
    7CHTO  H114 2748   5.184   1.239   1.544  1.4577  2.2217  0.3374
    7CHTO   N10 2749   5.166   1.422   1.426  0.1473  0.5969 -0.7539
    7CHTO  H106 2750   5.247   1.469   1.480  0.5530  0.5677 -1.3285
    7CHTO  H107 2751   5.162   1.457   1.323 -2.6018 -0.6178 -1.1008
    7CHTO   C58 2752   5.267   1.211   1.351  0.0653  0.0646  0.1549
    7CHTO  H115 2753   5.252   1.257   1.251 -0.8981 -0.6469 -0.0283
    7CHTO   O37 2754   5.254   1.068   1.362 -0.7225  0.2281  0.1060
    7CHTO   C59 2755   5.141   1.015   1.296  0.5975 -0.0061  0.0307
    7CHTO  H116 2756   5.134   1.053   1.194 -3.0268 -3.1019 -0.9971
    7CHTO   C70 2757   5.155   0.863   1.283  0.1095  0.2538  0.4357
    7CHTO   O46 2758   5.151   0.802   1.409 -0.1162 -0.1979  0.2297
    7CHTO  H103 2759   5.198   0.721   1.401 -2.3343 -1.7482  2.2852
    7CHTO   O39 2760   5.417   1.246   1.402 -0.0240 -0.2498 -1.1417
    7CHTO   C60 2761   5.526   1.210   1.314 -0.0890 -0.3783  0.0025
    7CHTO  H117 2762   5.524   1.103   1.293  1.5516 -0.7188  1.4520
    7CHTO   C62 2763   5.518   1.276   1.177  0.2755 -0.2622  0.7257
    7CHTO  H119 2764   5.418   1.249   1.137  0.4552  1.7882 -1.2375
    7CHTO   O43 2765   5.520   1.420   1.190  0.5033 -0.2114  0.4627
    7CHTO  H101 2766   5.611   1.436   1.201  1.3349 -3.5379 -0.9900
    7CHTO   C66 2767   5.626   1.224   1.086 -0.5844  0.2246  0.4547
    7CHTO  H123 2768   5.624   1.115   1.088 -0.2621  0.1734 -1.1038
    7CHTO   N12 2769   5.595   1.257   0.939  0.2245 -0.4309  0.3262
    7CHTO  H110 2770   5.675   1.209   0.885 -1.0939 -3.3334  0.8598
    7CHTO  H111 2771   5.497   1.221   0.913  1.0352 -0.3158 -3.2246
    7CHTO   C69 2772   5.764   1.265   1.139  0.0229 -0.0561  0.3178
    7CHTO  H126 2773   5.774   1.376   1.134 -1.5825  0.3004  3.5438
    7CHTO   O41 2774   5.773   1.202   1.298  0.1413 -0.3933 -0.1945
    7CHTO   C64 2775   5.664   1.241   1.386 -0.4172 -0.3862 -0.6750
    7CHTO  H121 2776   5.667   1.350   1.407 -1.1518 -0.5501  0.2824
    7CHTO   C71 2777   5.689   1.173   1.521  0.3207 -0.1142 -0.2436
    7CHTO   O47 2778   5.821   1.211   1.569  0.7817 -0.2660 -0.0188
    7CHTO  H104 2779   5.818   1.304   1.572  0.7623 -0.1327 -2.7231
    7CHTO   O34 2780   5.870   1.211   1.062  0.0906  0.0955  0.3038
    7CHTO   C49 2781   5.989   1.162   1.051  0.5427  0.0705  0.0574
    7CHTO   H91 2782   6.046   1.241   1.099 -2.6656  1.4299  1.8567
    7CHTO   C47 2783   6.030   1.141   0.903  0.0866  0.5337 -0.3767
    7CHTO   H89 2784   6.137   1.113   0.891 -0.2733 -0.8713 -0.3695
    7CHTO   O33 2785   6.019   1.267   0.836  0.0164  0.0446 -0.0882
    7CHTO   H70 2786   6.086   1.325   0.865 -0.9785  0.7016  0.9488
    7CHTO   C45 2787   5.936   1.023   0.841  0.1209 -0.4250  0.2341
    7CHTO   H87 2788   5.831   1.051   0.854  0.5164  1.4100 -0.4016
    7CHTO    N8 2789   5.958   0.996   0.697  0.1451  0.2198  0.0373
    7CHTO   H75 2790   5.873   0.944   0.654 -0.4813  1.0537  0.2399
    7CHTO   H76 2791   6.056   0.960   0.669  0.2055 -0.6323  1.3206
    7CHTO   C43 2792   5.953   0.891   0.920 -0.9619  0.1361  0.7554
    7CHTO   H85 2793   5.879   0.823   0.877 -0.3890 -0.0327  0.0206
    7CHTO   O29 2794   5.927   0.921   1.062 -0.7341 -0.0902  0.1127
    7CHTO   C50 2795   5.998   1.034   1.126 -0.7571 -0.1887  0.1119
    7CHTO   H92 2796   5.957   1.052   1.227 -0.2101  0.2395  0.2581
    7CHTO   C54 2797   6.142   0.987   1.178  0.3735  0.2960  0.3802
    7CHTO   O36 2798   6.130   0.878   1.280 -0.3073  0.2858 -0.0329
    7CHTO   H72 2799   6.197   0.815   1.264  0.0770  0.8863 -0.8712
    7CHTO   O27 2800   6.080   0.826   0.906 -0.1148  0.1323 -0.0644
    7CHTO   C37 2801   6.164   0.713   0.949  0.2543  0.3250  0.0747
    7CHTO   H79 2802   6.204   0.746   1.046  0.2392 -0.6313  0.4103
    7CHTO   C38 2803   6.084   0.580   0.954  0.8819 -0.0259 -0.1910
    7CHTO   H80 2804   6.024   0.578   0.862  0.7117  0.7084 -0.0971
    7CHTO   O31 2805   5.994   0.583   1.068  0.1519  0.3057  0.5038
    7CHTO   H68 2806   6.038   0.608   1.147 -0.4077  2.6306  0.1088
    7CHTO   C39 2807   6.177   0.450   0.967 -0.0433  0.1190  0.5441
    7CHTO   H81 2808   6.217   0.450   1.068  0.4408 -2.2198  0.4066
    7CHTO    N7 2809   6.106   0.321   0.951 -0.1561 -0.0381  0.1857
    7CHTO   H73 2810   5.999   0.318   0.935 -0.3299  0.6491  1.2140
    7CHTO   H74 2811   6.130   0.239   1.017 -3.0000 -3.1437 -2.4251
    7CHTO   C40 2812   6.303   0.450   0.873 -0.6135  0.5503  0.4960
    7CHTO   H82 2813   6.283   0.409   0.774 -0.8715  0.1937  0.6972
    7CHTO   O26 2814   6.367   0.580   0.867  0.3931 -0.6229  0.3062
    7CHTO   C41 2815   6.284   0.700   0.844 -0.2261  0.0822 -0.5978
    7CHTO   H83 2816   6.240   0.680   0.745  0.5933 -2.6705 -0.4356
    7CHTO   C52 2817   6.375   0.826   0.836 -0.4418  1.0429  0.1837
    7CHTO   O35 2818   6.482   0.834   0.959 -0.8729  0.1433 -0.0243
    7CHTO   H71 2819   6.448   0.852   1.045  1.1891 -0.1256  0.8845
    7CHTO   O28 2820   6.399   0.355   0.932 -0.4857  0.2042 -0.3838
    7CHTO   C42 2821   6.532   0.329   0.883  0.2416  0.1335  0.5458
    7CHTO   H84 2822   6.570   0.257   0.955 -1.4742  0.4317  1.7815
    7CHTO   C44 2823   6.632   0.442   0.877 -0.2732  0.0002 -0.0030
    7CHTO   H86 2824   6.589   0.518   0.812 -1.6496  0.8888  1.8720
    7CHTO   O32 2825   6.638   0.513   1.000 -0.4644  0.1825  0.2152
    7CHTO   H69 2826   6.637   0.603   0.977 -0.2626  0.3482  0.8376
    7CHTO   C48 2827   6.769   0.402   0.820 -0.4114 -0.0498 -0.2903
    7CHTO   H90 2828   6.823   0.347   0.897 -0.3840  2.0075  1.1982
    7CHTO    N9 2829   6.860   0.522   0.812 -0.6368 -0.2345 -0.1513
    7CHTO   H77 2830   6.958   0.486   0.784 -0.1857  0.6946  0.2051
    7CHTO   H78 2831   6.818   0.600   0.751  0.4826  0.4917 -0.0195
    7CHTO   C51 2832   6.751   0.322   0.683 -0.0765 -0.6024  0.0243
    7CHTO   H93 2833   6.704   0.386   0.608  0.8204 -1.1337 -1.0057
    7CHTO   O30 2834   6.679   0.204   0.701 -0.6801 -0.1060 -0.4408
    7CHTO   C46 2835   6.534   0.253   0.750  0.2254 -0.0032 -0.3377
    7CHTO   H88 2836   6.486   0.317   0.675 -1.1612  1.3429  1.6248
    7CHTO   C53 2837   6.447   0.127   0.771 -0.5492  0.2662 -0.0516
    7CHTO   O72 2838   6.433   0.053   0.647  0.1454  0.4173  0.0081
    7CHTO  H199 2839   6.404   0.110   0.578 -1.2261 -0.1108  0.1310
    7CHTO   O22 2840   6.878   0.269   0.641 -0.0534  0.3497 -0.0972
    7CHTO   C31 2841   6.915   0.237   0.502  0.6344  0.2265  0.6998
    7CHTO   H59 2842   7.010   0.181   0.500  0.6031  0.1939 -0.8179
    7CHTO   C29 2843   6.812   0.151   0.430 -1.1238 -0.3957 -0.1599
    7CHTO   H57 2844   6.712   0.194   0.442 -0.6423  1.1279 -1.4186
    7CHTO   O21 2845   6.809   0.021   0.488  0.1941  0.3068 -0.2096
    7CHTO   H37 2846   6.812   0.017   0.582  1.6030 -0.2501 -0.2742
    7CHTO   C27 2847   6.845   0.133   0.274  0.4775 -0.4537 -0.4245
    7CHTO   H55 2848   6.942   0.084   0.260  0.5538 -0.2240 -0.7009
    7CHTO    N5 2849   6.738   0.049   0.212 -0.1172 -0.2563  0.0797
    7CHTO   H43 2850   6.686  -0.017   0.280 -1.4576  0.2000 -0.4816
    7CHTO   H44 2851   6.662   0.111   0.167 -1.2026 -1.3063  0.4226
    7CHTO   C25 2852   6.841   0.269   0.207  0.2635 -0.1236 -0.7845
    7CHTO   H53 2853   6.752   0.332   0.225  0.2846 -0.3499  0.1254
    7CHTO   O17 2854   6.953   0.343   0.270 -0.2720 -0.4887 -0.3588
    7CHTO   C32 2855   6.936   0.369   0.412 -0.7995  0.4132  0.0775
    7CHTO   H60 2856   6.853   0.435   0.434 -0.6489  1.0124 -1.1044
    7CHTO   C36 2857   7.065   0.446   0.448 -0.3063  0.3304  0.5404
    7CHTO   O25 2858   7.075   0.568   0.375 -0.4519 -0.2547 -0.3022
    7CHTO   H40 2859   7.147   0.612   0.416  0.7788 -0.4112 -2.2830
    7CHTO   O15 2860   6.852   0.269   0.057  0.3552 -0.2304  0.2853
    7CHTO   C19 2861   6.807   0.389  -0.020  0.2427  0.4179 -0.0951
    7CHTO   H47 2862   6.851   0.371  -0.119 -1.9139 -0.5720 -0.9003
    7CHTO   C20 2863   6.645   0.405  -0.022 -0.2738 -0.3830  0.1245
    7CHTO   H48 2864   6.607   0.429   0.079 -1.6791  1.8392 -0.9040
    7CHTO   O19 2865   6.582   0.295  -0.081 -0.0628 -0.3953 -0.0287
    7CHTO   H35 2866   6.596   0.291  -0.173 -0.4164  0.0101 -0.0996
    7CHTO   C21 2867   6.605   0.538  -0.104  0.4422  0.7760 -0.4689
    7CHTO   H49 2868   6.640   0.534  -0.208  0.0819 -0.1065 -0.5611
    7CHTO    N4 2869   6.457   0.577  -0.106  0.3612  0.2986 -0.1304
    7CHTO   H41 2870   6.399   0.501  -0.157 -0.6407  2.2864 -2.0449
    7CHTO   H42 2871   6.420   0.601  -0.008 -4.0379  0.5905 -1.7282
    7CHTO   C22 2872   6.682   0.658  -0.041  0.1860 -0.6455 -0.0508
    7CHTO   H50 2873   6.652   0.674   0.063  3.0160  1.1181  0.5350
    7CHTO   O14 2874   6.829   0.632  -0.040 -0.1003  0.2677  0.6121
    7CHTO   C23 2875   6.876   0.518   0.027  0.0231 -0.6363  0.8542
    7CHTO   H51 2876   6.862   0.532   0.135 -1.4553  1.2690  0.4451
    7CHTO   C34 2877   7.023   0.511  -0.013  1.2757  0.0129 -0.3210
    7CHTO   O23 2878   7.093   0.598   0.073  0.5017  0.2542  1.0136
    7CHTO   H38 2879   7.181   0.600   0.041  0.7173 -2.4421  1.3702
    7CHTO   O16 2880   6.684   0.781  -0.118 -0.2540  0.1324 -0.1007
    7CHTO   C24 2881   6.732   0.912  -0.024  0.5841 -0.2418  0.4305
    7CHTO   H52 2882   6.769   0.883   0.075 -0.2685  2.3881  1.5855
    7CHTO   C26 2883   6.609   1.001   0.002 -0.1920 -0.2619  0.2188
    7CHTO   H54 2884   6.567   1.032  -0.096  0.1472  1.4077  0.5844
    7CHTO   O20 2885   6.513   0.915   0.063  0.2644 -0.4117 -0.1315
    7CHTO   H36 2886   6.533   0.887   0.150 -2.7494 -1.5153  0.2638
    7CHTO   C30 2887   6.646   1.125   0.080 -0.3907 -0.4941  0.4108
    7CHTO   H58 2888   6.672   1.099   0.184 -1.3751  0.8447  1.0033
    7CHTO    N6 2889   6.537   1.222   0.096  0.4722 -0.4213  0.0708
    7CHTO   H45 2890   6.571   1.308   0.152 -0.8065  1.1498 -1.5377
    7CHTO   H46 2891   6.456   1.178   0.153 -0.2505 -1.6492 -1.8540
    7CHTO   C33 2892   6.771   1.201   0.023 -0.6376  0.1491  0.6230
    7CHTO   H61 2893   6.740   1.252  -0.069 -0.4010 -0.9437 -0.0599
    7CHTO   O18 2894   6.875   1.105  -0.006  0.8441  0.4081  0.5579
    7CHTO   C28 2895   6.845   0.998  -0.095 -0.3801 -0.1026  0.3555
    7CHTO   H56 2896   6.808   1.048  -0.184  0.9076  0.2227 -0.0083
    7CHTO   C35 2897   6.980   0.912  -0.111  0.1849 -0.3061  0.9274
    7CHTO   O24 2898   7.075   1.001  -0.175  0.4304  0.0822  0.6968
    7CHTO   H39 2899   7.113   1.075  -0.130 -1.7273  0.4000  2.1081
    7CHTO    O9 2900   6.820   1.304   0.111 -0.4485 -0.2247 -0.3996
    7CHTO   C13 2901   6.943   1.400   0.035 -0.3018  0.5558  0.7847
    7CHTO   H26 2902   6.942   1.379  -0.074  1.8310 -1.0833  1.0393
    7CHTO   C11 2903   7.089   1.374   0.098  0.4568  0.2756  0.1190
    7CHTO   H24 2904   7.107   1.266   0.099 -0.9921  0.0328  1.4754
    7CHTO    O8 2905   7.092   1.409   0.238  0.3379  0.2532 -0.2629
    7CHTO    H3 2906   7.011   1.433   0.278 -0.2772 -3.9136  1.2875
    7CHTO    C9 2907   7.188   1.453   0.013 -0.0277 -0.4813 -0.0268
    7CHTO   H22 2908   7.161   1.430  -0.091  0.6761 -1.8389  0.0825
    7CHTO    N2 2909   7.332   1.421   0.023 -1.0318  0.7212 -0.0938
    7CHTO   H10 2910   7.365   1.374   0.114 -0.9079  0.0219 -0.5006
    7CHTO   H11 2911   7.404   1.430  -0.056  0.9214 -1.8424  1.3215
    7CHTO    C7 2912   7.152   1.606   0.035 -0.1763 -0.1398  0.0369
    7CHTO   H20 2913   7.191   1.658  -0.055 -1.8592  1.2765  0.1004
    7CHTO    O4 2914   7.014   1.643   0.045 -0.3937 -0.1791  0.6121
    7CHTO   C14 2915   6.900   1.551   0.034 -0.3976 -0.2002  0.0173
    7CHTO   H27 2916   6.846   1.579  -0.058 -0.2644  0.4888  0.1453
    7CHTO   C18 2917   6.802   1.577   0.158  0.2802 -0.4175  0.5442
    7CHTO   O13 2918   6.755   1.713   0.175 -0.0596 -0.8150  0.2265
    7CHTO    H7 2919   6.757   1.757   0.092 -0.0384 -1.5686 -0.1787
    7CHTO    O2 2920   7.223   1.662   0.163 -0.0710  0.1952  0.5508
    7CHTO    C1 2921   7.225   1.803   0.170  0.4907 -0.2528  0.1904
    7CHTO   H14 2922   7.138   1.850   0.120 -1.6837 -0.8664  3.2579
    7CHTO    C2 2923   7.360   1.874   0.124 -0.2114  0.7091 -0.0200
    7CHTO   H15 2924   7.441   1.817   0.173  0.9561  1.7797 -0.6602
    7CHTO    O6 2925   7.374   1.848  -0.014 -0.5751 -0.1449 -0.1874
    7CHTO    H1 2926   7.317   1.906  -0.062 -0.2036  0.1035 -0.3277
    7CHTO    C3 2927   7.374   2.029   0.156  0.2395  0.5279  1.1217
    7CHTO   H16 2928   7.310   2.081   0.083  0.3547  0.0990  0.7051
    7CHTO    N1 2929   7.511   2.068   0.132  0.2340  0.5511  0.5020
    7CHTO    H8 2930   7.534   2.173   0.141  0.5522  0.3448  2.2876
    7CHTO    H9 2931   7.574   2.005   0.193  0.7956  1.7993  1.2238
    7CHTO    C4 2932   7.316   2.053   0.300 -0.5362 -0.1197 -0.1439
    7CHTO   H17 2933   7.389   2.015   0.371  0.1149  0.2476 -0.6050
    7CHTO    O1 2934   7.189   1.990   0.328 -0.1310 -0.1396 -0.0600
    7CHTO    C5 2935   7.195   1.847   0.312  0.7151  0.2391  0.1619
    7CHTO   H18 2936   7.272   1.811   0.379  0.2700  2.1183  1.7258
    7CHTO   C16 2937   7.054   1.798   0.369  0.3675  0.0097 -0.2970
    7CHTO   O11 2938   7.058   1.658   0.415 -0.0257  0.2423  0.4192
    7CHTO    H5 2939   7.125   1.638   0.478 -1.9447 -2.9173  1.5230
    7CHTO    O3 2940   7.284   2.192   0.326 -0.7366 -0.3262 -0.3159
    7CHTO    C6 2941   7.318   2.248   0.456 -0.1323 -0.0866 -0.4205
    7CHTO   H19 2942   7.347   2.172   0.528  1.6715  1.2677  0.3143
    7CHTO    C8 2943   7.449   2.342   0.443  0.4759  0.5247 -0.4067
    7CHTO   H21 2944   7.437   2.406   0.355 -1.7969  0.4481 -0.1751
    7CHTO    O7 2945   7.565   2.255   0.416  0.2620  0.0859 -0.2705
    7CHTO    H2 2946   7.574   2.216   0.331  0.4765 -0.2281 -0.1051
    7CHTO   C12 2947   7.484   2.407   0.577  0.5266 -0.3528 -0.5138
    7CHTO   H25 2948   7.525   2.330   0.645 -0.1570 -1.2017 -1.0553
    7CHTO    N3 2949   7.588   2.513   0.552  0.1682  0.2188 -0.1546
    7CHTO   H12 2950   7.555   2.613   0.579  0.1273  0.6381 -1.7308
    7CHTO   H13 2951   7.684   2.486   0.594  1.0882  2.7166 -0.5713
    7CHTO   C15 2952   7.357   2.466   0.648  0.1876 -0.4208  1.1224
    7CHTO   H28 2953   7.319   2.554   0.597  0.0348 -1.2721 -0.2496
    7CHTO   O10 2954   7.378   2.496   0.807 -0.2844  0.1718 -0.7596
    7CHTO    H4 2955   7.389   2.417   0.856 -2.2394  0.3827  0.0849
    7CHTO    O5 2956   7.250   2.365   0.651 -0.2253  0.0081  0.0645
    7CHTO   C10 2957   7.208   2.332   0.522 -1.0597 -0.4460  0.6200
    7CHTO   H23 2958   7.197   2.416   0.453 -0.8922 -0.1883  0.9010
    7CHTO   C17 2959   7.076   2.262   0.531 -0.1242  0.4917 -0.0725
    7CHTO   O12 2960   6.960   2.342   0.549 -0.3084 -1.1246  0.0401
    7CHTO    H6 2961   6.974   2.435   0.556  1.4300 -1.4834  1.3852
    8CHTO  H203 2962   6.750   8.360   2.192 -0.1713  1.1841  0.9498
    8CHTO   O82 2963   6.807   8.405   2.132 -0.0697  0.0915  0.2011
    8CHTO  C123 2964   6.743   8.516   2.063  0.6377 -0.1182 -0.3516
    8CHTO  H227 2965   6.822   8.583   2.026  1.6139 -2.2416 -2.2132
    8CHTO   O77 2966   6.675   8.450   1.949 -0.1840 -0.1417  0.1554
    8CHTO  C118 2967   6.600   8.545   1.870  0.1805  0.3251 -0.7931
    8CHTO  H222 2968   6.665   8.629   1.840  1.3840 -0.4394 -0.3575
    8CHTO  C125 2969   6.554   8.473   1.745  0.8462  0.2192 -0.0419
    8CHTO   O84 2970   6.667   8.442   1.669  0.3533 -0.3776 -0.4794
    8CHTO  H205 2971   6.673   8.349   1.663  2.2020 -0.4175  1.4884
    8CHTO  C114 2972   6.485   8.608   1.956  0.2579 -1.5120  0.2085
    8CHTO  H218 2973   6.421   8.524   1.985  1.2299 -2.0597  0.7800
    8CHTO  C116 2974   6.540   8.691   2.071 -0.3283  0.1294  0.1144
    8CHTO  H220 2975   6.584   8.788   2.040 -0.9791  0.7476  1.0898
    8CHTO   O79 2976   6.427   8.718   2.155 -0.2812  0.1394 -0.1712
    8CHTO  H201 2977   6.441   8.801   2.196 -0.1111 -0.4937  1.0742
    8CHTO  C120 2978   6.638   8.598   2.151 -0.3647 -0.1190 -0.9080
    8CHTO  H224 2979   6.562   8.525   2.185 -0.8751  0.7892 -0.0787
    8CHTO   N21 2980   6.699   8.662   2.269  0.9133  0.3919 -0.3045
    8CHTO  H211 2981   6.788   8.720   2.249 -0.0030  1.9088 -0.0120
    8CHTO  H212 2982   6.723   8.585   2.341 -0.2621 -0.9066 -1.2710
    8CHTO   O75 2983   6.407   8.685   1.854  0.0511  0.1960  0.5900
    8CHTO  C112 2984   6.260   8.752   1.903 -0.4794  0.0754 -0.7929
    8CHTO  H216 2985   6.284   8.840   1.965 -1.8928  0.3817 -0.6595
    8CHTO   O73 2986   6.190   8.656   1.974 -0.0186  0.1164  0.2256
    8CHTO  C113 2987   6.092   8.705   2.059  0.0070  0.3369 -0.1760
    8CHTO  H217 2988   6.128   8.782   2.131 -0.9587  0.5400  0.1105
    8CHTO  C124 2989   6.034   8.588   2.136 -0.1916 -0.0185 -0.2484
    8CHTO   O83 2990   6.121   8.529   2.233 -0.0734 -0.4295 -0.0809
    8CHTO  H204 2991   6.166   8.458   2.191  0.2781 -0.2408 -0.0317
    8CHTO  C109 2992   5.986   8.767   1.965 -0.4781  0.7525  0.3078
    8CHTO  H213 2993   5.934   8.681   1.920  0.6251  0.9265 -1.3403
    8CHTO  C110 2994   6.035   8.852   1.846  0.1180 -0.1983  0.3308
    8CHTO  H214 2995   6.057   8.951   1.885 -0.2888 -0.3444  0.9525
    8CHTO   O78 2996   5.935   8.883   1.747  0.2661  0.1783  0.5598
    8CHTO  H200 2997   5.937   8.820   1.678 -2.6571 -1.6150  1.9809
    8CHTO  C111 2998   6.170   8.797   1.785 -0.1013 -0.0257  0.1973
    8CHTO  H215 2999   6.153   8.702   1.733 -0.6047  0.0423  0.2411
    8CHTO   N19 3000   6.239   8.893   1.685 -0.0199 -0.4720  0.2206
    8CHTO  H207 3001   6.160   8.958   1.650  1.7231  1.4690 -0.1396
    8CHTO  H208 3002   6.332   8.926   1.728  0.4427  0.8355 -1.7619
    8CHTO   O74 3003   5.897   8.844   2.056  0.2250  0.1743 -0.2159
    8CHTO  C115 3004   5.756   8.818   2.043  0.3900 -0.5050  0.6021
    8CHTO  H219 3005   5.735   8.726   1.990 -1.1774  1.2751 -2.0055
    8CHTO   O76 3006   5.687   8.813   2.186  0.2826  0.3271 -0.7924
    8CHTO  C122 3007   5.704   8.923   2.267  0.5413  0.1189 -0.5692
    8CHTO  H226 3008   5.804   8.920   2.311  0.5483 -0.7375 -0.6322
    8CHTO  C126 3009   5.600   8.903   2.385 -0.1792  0.3864 -0.1371
    8CHTO   O85 3010   5.629   8.989   2.493  0.1787 -0.0503 -0.1083
    8CHTO  H206 3011   5.565   8.970   2.560 -1.1951  1.8222 -0.8515
    8CHTO  C121 3012   5.676   9.060   2.197 -0.2912  0.3751 -0.0976
    8CHTO  H225 3013   5.566   9.071   2.202 -0.5555 -1.5940 -1.1802
    8CHTO   O81 3014   5.737   9.161   2.265 -0.7669 -0.2960 -0.4455
    8CHTO  H202 3015   5.679   9.235   2.264  0.1863  0.4683 -2.3998
    8CHTO  C119 3016   5.721   9.069   2.047  0.7784 -0.0647 -0.0425
    8CHTO  H223 3017   5.658   9.150   2.010  1.1181  1.4261  2.5951
    8CHTO  C117 3018   5.694   8.940   1.961  0.2235  0.1920 -0.5885
    8CHTO  H221 3019   5.740   8.929   1.863  0.4775 -0.9214 -0.3524
    8CHTO   N20 3020   5.546   8.920   1.934 -0.1369 -0.0506 -0.7096
    8CHTO  H209 3021   5.529   8.852   1.851 -0.4520 -1.5637  0.5717
    8CHTO  H210 3022   5.505   9.017   1.910 -1.8483 -1.2461 -2.8377
    8CHTO   O80 3023   5.865   9.129   2.013 -0.5014  0.1962  0.0144
    8CHTO  C103 3024   5.879   9.284   1.956 -0.1155 -0.4583  0.3601
    8CHTO  H190 3025   5.779   9.327   1.944  0.4899  1.3544  1.5036
    8CHTO  C101 3026   5.977   9.373   2.043 -0.0294 -0.1877 -1.1464
    8CHTO  H188 3027   6.046   9.313   2.102  0.5019  1.4788 -0.0610
    8CHTO   O68 3028   5.889   9.461   2.157 -1.0551 -0.0485  0.1329
    8CHTO  H168 3029   5.822   9.410   2.198 -0.7888  1.2754  2.2739
    8CHTO   C99 3030   6.054   9.480   1.954 -0.0347 -0.5506  0.0984
    8CHTO  H186 3031   5.983   9.562   1.929 -1.0927 -1.6478 -0.5157
    8CHTO   N17 3032   6.169   9.540   2.023  0.5359 -0.0959  0.2035
    8CHTO  H174 3033   6.258   9.537   1.962 -0.3944  1.1044 -1.2497
    8CHTO  H175 3034   6.138   9.642   2.035  2.3049  0.5293 -0.3130
    8CHTO   C97 3035   6.101   9.430   1.816  0.1262 -0.2301  0.0690
    8CHTO  H184 3036   6.183   9.358   1.824  0.3629  0.1928  1.5064
    8CHTO   O64 3037   5.988   9.374   1.747  0.6041 -0.0620  0.3730
    8CHTO  C104 3038   5.935   9.259   1.810  0.9166  0.1327 -0.8137
    8CHTO  H191 3039   6.006   9.176   1.817 -0.2410 -0.8392 -0.4210
    8CHTO  C108 3040   5.820   9.206   1.728  0.1117 -0.0276  0.0749
    8CHTO   O71 3041   5.870   9.177   1.601 -0.0091  0.2296  0.2251
    8CHTO  H171 3042   5.910   9.253   1.563  1.1941 -0.7637 -0.5368
    8CHTO   O62 3043   6.152   9.541   1.735 -0.0896  0.4335 -0.4163
    8CHTO   C91 3044   6.228   9.511   1.620  0.0847 -0.4227  0.6099
    8CHTO  H178 3045   6.294   9.429   1.648 -1.2523 -1.5444  0.5745
    8CHTO   C92 3046   6.322   9.634   1.603 -0.3595  0.4878 -0.1324
    8CHTO  H179 3047   6.378   9.654   1.695  1.6691  1.0005 -1.4400
    8CHTO   O66 3048   6.425   9.590   1.514 -0.6636 -0.2862 -1.0937
    8CHTO  H166 3049   6.472   9.517   1.551 -0.0255  1.2803  1.2879
    8CHTO   C93 3050   6.259   9.766   1.545  0.5032  0.3267 -0.2593
    8CHTO  H180 3051   6.341   9.816   1.491  0.9249 -0.4134 -0.3072
    8CHTO   N16 3052   6.209   9.855   1.656 -0.7363  0.8423 -0.7781
    8CHTO  H172 3053   6.286   9.929   1.669 -0.0543  0.2852 -1.5928
    8CHTO  H173 3054   6.214   9.793   1.745  0.1055 -0.8027 -1.9281
    8CHTO   C94 3055   6.148   9.728   1.439  0.4346 -0.0615  0.6414
    8CHTO  H181 3056   6.050   9.727   1.486  0.1807 -1.4667  0.1129
    8CHTO   O61 3057   6.171   9.595   1.389 -0.5604 -0.7048  0.0931
    8CHTO   C95 3058   6.142   9.497   1.487  0.1860  0.3609  0.2797
    8CHTO  H182 3059   6.035   9.495   1.509  0.0142  1.6625 -0.4076
    8CHTO  C106 3060   6.184   9.360   1.419  0.7242  0.4205 -0.0452
    8CHTO   O69 3061   6.175   9.250   1.519  0.1193 -0.2264 -0.4752
    8CHTO  H169 3062   6.196   9.175   1.467  2.0733 -0.0265 -0.0463
    8CHTO   O63 3063   6.161   9.814   1.324 -0.6383  0.0448 -0.3100
    8CHTO   C96 3064   6.037   9.833   1.232  0.5668  0.0831  0.0319
    8CHTO  H183 3065   5.968   9.749   1.242 -1.6706  1.9892  1.0326
    8CHTO   C98 3066   6.082   9.843   1.086 -0.2705 -0.7960  0.2161
    8CHTO  H185 3067   6.160   9.920   1.081 -2.3564  1.3657  0.4683
    8CHTO   O67 3068   6.139   9.716   1.048  0.5077 -0.4069 -0.1213
    8CHTO  H167 3069   6.216   9.702   1.100  0.4040 -0.5575 -0.0094
    8CHTO  C102 3070   5.964   9.888   0.981 -0.0774 -0.1849 -0.6607
    8CHTO  H189 3071   5.896   9.801   0.983 -0.7777  0.3746  0.4183
    8CHTO   N18 3072   5.996   9.916   0.837 -0.5545 -0.0157 -0.3818
    8CHTO  H176 3073   5.910   9.948   0.780 -1.1255  1.2508  1.1322
    8CHTO  H177 3074   6.035   9.822   0.802 -1.6526 -1.0406  1.0560
    8CHTO  C105 3075   5.886  10.011   1.039  0.1442 -0.0416 -0.4150
    8CHTO  H192 3076   5.949  10.099   1.030 -0.1288  0.1529 -0.4047
    8CHTO   O65 3077   5.850   9.991   1.176 -0.0960  0.4316 -0.1071
    8CHTO  C100 3078   5.960   9.969   1.260 -0.9029 -0.3351  0.4659
    8CHTO  H187 3079   6.036  10.047   1.248  0.5954 -1.1568  4.1072
    8CHTO  C107 3080   5.905   9.982   1.399 -0.1933 -0.0899 -0.0142
    8CHTO   O70 3081   5.809   9.881   1.432 -0.5056 -0.2504 -0.3036
    8CHTO  H170 3082   5.761   9.892   1.512  0.7338  4.0106 -0.0499
    8CHTO   O57 3083   5.727  10.022   0.964 -0.5655 -0.3192 -0.4027
    8CHTO   C85 3084   5.686  10.122   0.869 -0.0796  0.2135 -0.4911
    8CHTO  H157 3085   5.771  10.141   0.801  0.7042 -2.7005 -0.3850
    8CHTO   C83 3086   5.665  10.261   0.944  0.1260  0.4067  0.2888
    8CHTO  H155 3087   5.761  10.285   0.989  0.7935 -1.0745 -0.3161
    8CHTO   O56 3088   5.573  10.246   1.055 -0.2449  0.2041  0.2605
    8CHTO  H135 3089   5.498  10.199   1.024 -1.8770  1.9243  1.5606
    8CHTO   C81 3090   5.630  10.367   0.833 -0.1795  0.6564 -0.0771
    8CHTO  H153 3091   5.707  10.362   0.756  0.3505  2.1220  0.3318
    8CHTO   N14 3092   5.629  10.509   0.883  0.5451 -0.0809 -0.2594
    8CHTO  H141 3093   5.535  10.560   0.884  0.9360  0.6895  2.3771
    8CHTO  H142 3094   5.679  10.536   0.974  2.5770  0.6383 -1.5684
    8CHTO   C79 3095   5.492  10.331   0.760 -0.6730  0.2880 -0.5309
    8CHTO  H151 3096   5.483  10.410   0.686  1.7126  1.9412  0.8567
    8CHTO   O52 3097   5.512  10.197   0.702 -0.0255  0.3455  0.1453
    8CHTO   C86 3098   5.565  10.093   0.794 -0.7990  0.7134  0.3931
    8CHTO  H158 3099   5.483  10.070   0.866 -0.2649  0.0478  0.7975
    8CHTO   C90 3100   5.583   9.965   0.709 -0.2685 -0.1832 -0.1810
    8CHTO   O60 3101   5.476   9.922   0.626 -0.1626  0.3842 -0.3786
    8CHTO  H138 3102   5.509   9.875   0.552 -0.2360  3.0719 -2.1946
    8CHTO   O50 3103   5.369  10.341   0.832  0.2009  0.2678  0.0603
    8CHTO   C73 3104   5.236  10.360   0.858  0.1084 -0.6781  0.1778
    8CHTO  H145 3105   5.194  10.395   0.763 -1.3320 -1.8462  0.3642
    8CHTO   C74 3106   5.212  10.458   0.975 -0.1809  0.3593 -0.0532
    8CHTO  H146 3107   5.266  10.548   0.943  0.2623  0.6221  1.4113
    8CHTO   O54 3108   5.068  10.479   0.985  0.5301  0.3826  0.0417
    8CHTO  H133 3109   5.030  10.397   1.009  1.3752  0.2420  0.9052
    8CHTO   C75 3110   5.282  10.389   1.094 -0.1202 -0.6515 -0.4575
    8CHTO  H147 3111   5.389  10.383   1.070 -0.1640  2.4718 -1.5239
    8CHTO   N13 3112   5.273  10.468   1.221 -0.1904  0.4903 -0.0306
    8CHTO  H139 3113   5.169  10.484   1.244 -0.0975  0.4330  0.4343
    8CHTO  H140 3114   5.315  10.408   1.301 -0.8970 -0.6905 -0.5412
    8CHTO   C76 3115   5.226  10.238   1.117  0.3053 -0.1523 -0.1373
    8CHTO  H148 3116   5.124  10.244   1.155  1.3752  0.9944  2.6436
    8CHTO   O49 3117   5.239  10.157   0.996 -0.4052 -0.5002  0.1604
    8CHTO   C77 3118   5.180  10.213   0.879 -0.3521  0.4500 -0.6099
    8CHTO  H149 3119   5.071  10.219   0.891 -0.3757 -1.2192  0.2163
    8CHTO   C88 3120   5.208  10.111   0.773 -0.1465  0.4471 -0.4078
    8CHTO   O58 3121   5.147  10.144   0.629 -0.2600 -0.5100 -0.8088
    8CHTO  H136 3122   5.054  10.157   0.629 -0.1550  0.4130  0.6190
    8CHTO   O51 3123   5.330  10.170   1.220 -0.3095  0.4287  0.1104
    8CHTO   C78 3124   5.291  10.044   1.292 -0.4965  0.1938 -0.2860
    8CHTO  H150 3125   5.234   9.973   1.229 -1.4203  1.3209 -0.7390
    8CHTO   C80 3126   5.217  10.078   1.424  0.1910  0.5406  0.1974
    8CHTO  H152 3127   5.285  10.136   1.491 -0.4040 -0.2056  1.4766
    8CHTO   O55 3128   5.094  10.153   1.394 -0.3879  0.2029 -0.2004
    8CHTO  H134 3129   5.066  10.200   1.470  3.3487  0.0424  1.4027
    8CHTO   C84 3130   5.177   9.947   1.488  0.1124  0.0758 -0.2902
    8CHTO  H156 3131   5.121   9.889   1.415 -0.0579  1.7193 -1.5156
    8CHTO   N15 3132   5.077   9.963   1.606  0.4290  0.4015 -1.0264
    8CHTO  H143 3133   5.114   9.942   1.705  0.7210 -0.6570 -1.3518
    8CHTO  H144 3134   4.990   9.903   1.589  1.7840 -2.1187  0.5768
    8CHTO   C87 3135   5.299   9.870   1.535  0.0826 -0.3820 -0.9209
    8CHTO  H159 3136   5.342   9.935   1.611  1.7728 -1.7253 -0.6952
    8CHTO   O53 3137   5.396   9.853   1.409  0.6851  0.6588  0.1578
    8CHTO   C82 3138   5.423   9.970   1.328  1.0694  0.7847  0.3413
    8CHTO  H154 3139   5.497  10.026   1.385  0.1485  1.8826  0.4501
    8CHTO   C89 3140   5.496   9.918   1.200  0.0808  0.2205 -0.8616
    8CHTO   O59 3141   5.405   9.854   1.101  0.3442  0.0645 -0.5764
    8CHTO  H137 3142   5.371   9.921   1.044  0.6800  1.4753  0.8419
    8CHTO   O45 3143   5.267   9.706   1.596  0.1784  0.7875 -0.0575
    8CHTO   C67 3144   5.364   9.668   1.692  0.6848  0.4135 -0.3689
    8CHTO  H124 3145   5.345   9.562   1.709 -1.1096  0.8018  0.2188
    8CHTO   C65 3146   5.525   9.678   1.663 -0.2030  0.0239  0.0882
    8CHTO  H122 3147   5.535   9.769   1.603  1.4800 -0.6720 -0.7101
    8CHTO   O44 3148   5.558   9.574   1.573 -0.3563 -0.4759 -0.0315
    8CHTO  H102 3149   5.574   9.487   1.606  1.5505 -0.9839 -2.1472
    8CHTO   C63 3150   5.614   9.690   1.792  0.4338  0.2717  0.5286
    8CHTO  H120 3151   5.620   9.797   1.814  1.4672  0.9122 -2.5309
    8CHTO   N11 3152   5.767   9.669   1.770  0.9430 -0.8128  0.1854
    8CHTO  H108 3153   5.809   9.740   1.702 -0.3601  0.1041  0.3014
    8CHTO  H109 3154   5.813   9.645   1.863  2.9843  0.8715 -0.3515
    8CHTO   C61 3155   5.545   9.617   1.912  1.0469 -0.4993  0.8220
    8CHTO  H118 3156   5.602   9.658   1.997  0.0340 -0.3092  1.4062
    8CHTO   O40 3157   5.408   9.657   1.934  0.1932  0.4975 -0.2101
    8CHTO   C68 3158   5.337   9.734   1.835 -0.1785 -0.1354  0.6653
    8CHTO  H125 3159   5.382   9.835   1.840  1.9619 -0.9414 -1.5542
    8CHTO   C72 3160   5.197   9.740   1.888  0.1735 -0.9549  0.2973
    8CHTO   O48 3161   5.166   9.804   2.008  0.9139 -0.3199 -0.3498
    8CHTO  H105 3162   5.119   9.748   2.066  0.0406 -0.6665 -1.3815
    8CHTO   O38 3163   5.559   9.472   1.909  0.1561  0.4544 -0.1521
    8CHTO   C55 3164   5.472   9.385   1.989 -0.5828 -0.0454  0.0073
    8CHTO  H112 3165   5.546   9.307   2.013 -0.7962 -0.2231  0.0885
    8CHTO   C56 3166   5.351   9.330   1.902  0.1008 -0.1681 -0.0169
    8CHTO  H113 3167   5.301   9.415   1.854  0.3317 -0.0122  0.0185
    8CHTO   O42 3168   5.404   9.250   1.795 -0.3783 -0.0853  0.6154
    8CHTO  H100 3169   5.353   9.174   1.776 -1.6556  1.3612 -2.0305
    8CHTO   C57 3170   5.250   9.251   1.999 -0.2283  0.6917 -0.1164
    8CHTO  H114 3171   5.290   9.155   2.029  1.9937  1.0555 -1.7997
    8CHTO   N10 3172   5.131   9.223   1.920 -0.3368  0.0803 -0.0328
    8CHTO  H106 3173   5.035   9.210   1.969  0.2241  0.0789  1.0874
    8CHTO  H107 3174   5.151   9.136   1.858 -0.3812  0.2598 -0.2976
    8CHTO   C58 3175   5.216   9.334   2.127 -1.0343 -0.5861 -0.2937
    8CHTO  H115 3176   5.176   9.433   2.093  1.7821  1.2015  1.4287
    8CHTO   O37 3177   5.338   9.348   2.198 -0.0499  0.5174 -0.3419
    8CHTO   C59 3178   5.431   9.443   2.135  1.1427  0.8300 -0.0714
    8CHTO  H116 3179   5.382   9.541   2.133 -0.9796 -0.2188 -0.7518
    8CHTO   C70 3180   5.550   9.453   2.235 -0.4096  0.7994 -0.5680
    8CHTO   O46 3181   5.516   9.460   2.377 -0.6526  0.2031 -0.1671
    8CHTO  H103 3182   5.494   9.550   2.392 -1.4061  0.1299 -0.7957
    8CHTO   O39 3183   5.120   9.266   2.228 -0.1585  0.1741 -0.0912
    8CHTO   C60 3184   5.003   9.348   2.253  0.6988  0.3723  0.2660
    8CHTO  H117 3185   4.985   9.432   2.186  0.1758 -0.2214 -0.3562
    8CHTO   C62 3186   4.874   9.263   2.221  0.2916 -0.4900  0.4873
    8CHTO  H119 3187   4.882   9.222   2.118  0.1827  0.5444  0.0613
    8CHTO   O43 3188   4.865   9.146   2.308  0.3673  0.6452  0.7160
    8CHTO  H101 3189   4.793   9.161   2.366 -0.0143 -0.0581  0.4362
    8CHTO   C66 3190   4.743   9.354   2.221  0.2962 -0.2561  1.2459
    8CHTO  H123 3191   4.761   9.443   2.160  0.7740 -0.6215  0.8462
    8CHTO   N12 3192   4.622   9.290   2.156 -0.2791 -0.8155  0.8151
    8CHTO  H110 3193   4.661   9.200   2.109  1.5491  1.0437 -1.3472
    8CHTO  H111 3194   4.599   9.359   2.076  0.3206 -2.2585 -0.6407
    8CHTO   C69 3195   4.720   9.391   2.370  0.0126 -0.1417 -1.2095
    8CHTO  H126 3196   4.699   9.305   2.437  0.0878  2.1022  1.7587
    8CHTO   O41 3197   4.864   9.467   2.423  0.4807 -0.4151 -0.5691
    8CHTO   C64 3198   4.994   9.404   2.397  0.1674 -0.1218 -0.5200
    8CHTO  H121 3199   5.014   9.318   2.465  0.5581  0.0018 -0.4832
    8CHTO   C71 3200   5.105   9.500   2.436  0.5474 -0.4358 -0.4945
    8CHTO   O47 3201   5.103   9.529   2.576  0.1919  0.1406  0.3819
    8CHTO  H104 3202   5.170   9.588   2.607  0.6549 -1.6091  2.8949
    8CHTO   O34 3203   4.611   9.483   2.386 -0.6754 -0.5996 -0.1175
    8CHTO   C49 3204   4.574   9.639   2.394 -0.3481  0.4800 -0.5511
    8CHTO   H91 3205   4.579   9.661   2.501  1.1318 -1.3003 -0.2217
    8CHTO   C47 3206   4.428   9.646   2.358 -0.5499  0.5470  0.2320
    8CHTO   H89 3207   4.389   9.747   2.383  1.1893  0.4079  3.8904
    8CHTO   O33 3208   4.358   9.555   2.446 -0.3899 -0.2638  0.2733
    8CHTO   H70 3209   4.267   9.545   2.428 -0.7962  1.8979  0.9945
    8CHTO   C45 3210   4.395   9.610   2.206  0.4982  0.3480 -0.0468
    8CHTO   H87 3211   4.433   9.510   2.182  0.7911  0.2358  0.8472
    8CHTO    N8 3212   4.253   9.615   2.167 -0.5477  0.4808  0.3235
    8CHTO   H75 3213   4.196   9.554   2.236  1.3286  0.0262  1.5170
    8CHTO   H76 3214   4.264   9.561   2.075 -1.1554  2.0005 -0.6566
    8CHTO   C43 3215   4.484   9.706   2.114  0.7653 -0.7687 -0.1262
    8CHTO   H85 3216   4.470   9.665   2.014 -0.6572 -1.0859  0.1918
    8CHTO   O29 3217   4.620   9.709   2.156 -0.4228  0.5269 -0.3560
    8CHTO   C50 3218   4.655   9.720   2.294  0.2678  0.4596  0.0115
    8CHTO   H92 3219   4.758   9.682   2.302 -0.4274 -1.5678 -0.3875
    8CHTO   C54 3220   4.673   9.866   2.331 -0.0495  0.3122 -0.4371
    8CHTO   O36 3221   4.795   9.916   2.276 -0.1599 -0.2467  1.0170
    8CHTO   H72 3222   4.863   9.928   2.340  0.8310 -0.3974  0.0095
    8CHTO   O27 3223   4.448   9.845   2.124 -0.4920 -0.0441  0.1672
    8CHTO   C37 3224   4.400   9.924   2.018 -0.6282 -0.0292  0.1546
    8CHTO   H79 3225   4.347   9.867   1.940 -0.1505  3.0193 -2.4844
    8CHTO   C38 3226   4.306  10.034   2.075 -0.4925 -0.1998 -0.0220
    8CHTO   H80 3227   4.357  10.081   2.160 -1.3502  0.0205  0.3659
    8CHTO   O31 3228   4.192   9.968   2.128 -0.2869 -0.1440 -0.1559
    8CHTO   H68 3229   4.132  10.027   2.168  1.5915  0.1664  2.3280
    8CHTO   C39 3230   4.275  10.144   1.963  0.4864  0.3732 -0.0614
    8CHTO   H81 3231   4.228  10.093   1.879 -0.4209  1.1287 -0.0136
    8CHTO    N7 3232   4.176  10.250   2.006 -0.1203 -0.3174  0.0251
    8CHTO   H73 3233   4.226  10.329   2.060  4.7169 -3.3664  0.2886
    8CHTO   H74 3234   4.142  10.299   1.916 -1.1425  3.6420  2.4270
    8CHTO   C40 3235   4.409  10.202   1.916 -0.4178 -0.1007 -0.5410
    8CHTO   H82 3236   4.461  10.260   1.993 -1.1352  1.4951 -1.2442
    8CHTO   O26 3237   4.490  10.101   1.863  0.3956  0.0810 -0.0671
    8CHTO   C41 3238   4.527   9.985   1.950 -0.1325 -0.0732 -0.2910
    8CHTO   H83 3239   4.588  10.028   2.031  0.2099  0.2171 -0.7031
    8CHTO   C52 3240   4.598   9.884   1.853 -0.1566 -0.3549 -0.0970
    8CHTO   O35 3241   4.486   9.842   1.743  0.1478  0.1243 -0.1882
    8CHTO   H71 3242   4.444   9.918   1.709 -3.0921 -1.8724 -0.8580
    8CHTO   O28 3243   4.403  10.308   1.814 -0.0549 -0.2797  0.1161
    8CHTO   C42 3244   4.385  10.296   1.666  0.1692 -0.1098 -0.7802
    8CHTO   H84 3245   4.362  10.400   1.646  3.8766  0.9539 -0.0015
    8CHTO   C44 3246   4.270  10.203   1.617 -0.3654  0.5551 -0.0075
    8CHTO   H86 3247   4.290  10.102   1.653  0.2312  1.2106  1.5614
    8CHTO   O32 3248   4.151  10.256   1.679  0.1476  0.0415 -0.3797
    8CHTO   H69 3249   4.159  10.250   1.772 -1.4460  2.5800 -0.0199
    8CHTO   C48 3250   4.261  10.197   1.460 -0.2877 -0.7135 -0.4391
    8CHTO   H90 3251   4.222  10.296   1.440  0.7694  0.0939  1.4236
    8CHTO    N9 3252   4.157  10.090   1.413  0.1107  0.0362 -0.3762
    8CHTO   H77 3253   4.172  10.065   1.309  0.2912  1.9583 -0.8294
    8CHTO   H78 3254   4.058  10.117   1.445  0.1125 -0.6051  0.1780
    8CHTO   C51 3255   4.405  10.165   1.398 -0.0642 -0.3484 -0.0214
    8CHTO   H93 3256   4.438  10.064   1.424 -0.2915 -0.4656 -0.1901
    8CHTO   O30 3257   4.488  10.267   1.450 -0.6075  0.1321  0.0279
    8CHTO   C46 3258   4.507  10.255   1.593 -0.0742 -0.8774  0.3415
    8CHTO   H88 3259   4.527  10.150   1.612 -1.6129 -0.9788  1.4708
    8CHTO   C53 3260   4.639  10.331   1.633 -0.1405 -0.0716  0.3027
    8CHTO   O72 3261   4.762  10.294   1.567  0.2516 -0.4477  0.5108
    8CHTO  H199 3262   4.835  10.347   1.592 -0.7433  0.1456  2.2981
    8CHTO   O22 3263   4.412  10.182   1.259  0.0954 -0.2186  0.2321
    8CHTO   C31 3264   4.510  10.110   1.171 -0.5582  0.0857  0.1825
    8CHTO   H59 3265   4.511  10.166   1.075 -0.3214 -0.2992 -0.0414
    8CHTO   C29 3266   4.658  10.109   1.221  0.0774  0.2312 -0.0725
    8CHTO   H57 3267   4.662  10.064   1.321  1.0109  3.2737  1.3129
    8CHTO   O21 3268   4.707  10.245   1.235 -0.3251  0.6625 -0.4882
    8CHTO   H37 3269   4.684  10.294   1.158 -0.1589  0.6880 -0.5202
    8CHTO   C27 3270   4.752  10.025   1.130  0.7109 -0.5931  0.8131
    8CHTO   H55 3271   4.743  10.069   1.029 -0.0877 -0.0257  1.1286
    8CHTO    N5 3272   4.891  10.011   1.171 -0.4870 -0.2406  0.6012
    8CHTO   H43 3273   4.953   9.971   1.093 -2.2305  0.6431 -1.2971
    8CHTO   H44 3274   4.932  10.107   1.198 -2.1122  0.4469  0.7253
    8CHTO   C25 3275   4.681   9.887   1.115 -0.3887  0.0336 -0.2944
    8CHTO   H53 3276   4.687   9.825   1.206 -1.5028 -0.3420 -0.4685
    8CHTO   O17 3277   4.547   9.888   1.060  0.4659 -0.5691 -0.1921
    8CHTO   C32 3278   4.457   9.970   1.134  0.5718  0.4385 -0.6206
    8CHTO   H60 3279   4.440   9.914   1.226  1.7818 -1.1967 -1.3755
    8CHTO   C36 3280   4.314   9.957   1.066  0.0965  0.1807 -0.1184
    8CHTO   O25 3281   4.289   9.828   1.015  0.3880 -0.9363  0.0665
    8CHTO   H40 3282   4.356   9.795   0.959 -0.3007 -1.9587 -0.1827
    8CHTO   O15 3283   4.780   9.802   0.999  0.1303 -0.2778  0.1554
    8CHTO   C19 3284   4.775   9.798   0.854 -0.2196  0.2368  0.1196
    8CHTO   H47 3285   4.674   9.760   0.833  0.8306 -2.9105  0.4715
    8CHTO   C20 3286   4.795   9.934   0.787  0.2673  0.6885  0.4843
    8CHTO   H48 3287   4.883   9.984   0.830  2.2989 -2.8257  0.5945
    8CHTO   O19 3288   4.674  10.008   0.813 -0.1587 -0.0686 -0.1922
    8CHTO   H35 3289   4.681  10.096   0.780  0.7830  0.1372  0.5301
    8CHTO   C21 3290   4.792   9.913   0.628  0.1491 -0.0640 -0.2244
    8CHTO   H49 3291   4.701   9.862   0.599 -1.0294  2.1229 -0.4972
    8CHTO    N4 3292   4.816  10.035   0.549  0.2305 -0.2221  0.0362
    8CHTO   H41 3293   4.895  10.094   0.593  0.2593  2.3719 -3.3172
    8CHTO   H42 3294   4.850   9.999   0.452  0.1736  1.7145 -0.7143
    8CHTO   C22 3295   4.887   9.800   0.586 -0.5723  0.2784  0.5304
    8CHTO   H50 3296   4.988   9.820   0.622  0.4402 -2.6556 -0.5505
    8CHTO   O14 3297   4.853   9.684   0.652  0.5300  0.2653 -0.3031
    8CHTO   C23 3298   4.877   9.697   0.793 -0.0365 -0.0656  0.4200
    8CHTO   H51 3299   4.980   9.728   0.814  0.0929  0.1844 -0.5762
    8CHTO   C34 3300   4.865   9.559   0.864 -0.1698 -0.5029  0.8847
    8CHTO   O23 3301   4.946   9.455   0.809  0.3459  0.0507  0.0486
    8CHTO   H38 3302   4.986   9.415   0.885  0.3914  0.6622  0.3536
    8CHTO   O16 3303   4.901   9.770   0.445  0.2665  0.2660 -0.1197
    8CHTO   C24 3304   5.050   9.686   0.423  0.3270  0.1985 -0.9966
    8CHTO   H52 3305   5.101   9.667   0.517  0.1261  0.2541 -0.8764
    8CHTO   C26 3306   5.132   9.789   0.343 -0.3291  0.1779 -0.7044
    8CHTO   H54 3307   5.084   9.810   0.245 -0.6760  1.4056 -0.2804
    8CHTO   O20 3308   5.138   9.913   0.415  0.7983 -0.0835 -0.7858
    8CHTO   H36 3309   5.140   9.899   0.508 -2.9770 -0.5447 -0.6996
    8CHTO   C30 3310   5.281   9.737   0.313  0.4173  1.1568  0.5655
    8CHTO   H58 3311   5.336   9.722   0.407  0.9281  1.6318  0.3460
    8CHTO    N6 3312   5.359   9.826   0.224  0.9708 -0.1183  0.0232
    8CHTO   H45 3313   5.360   9.929   0.256 -1.5153  0.5896 -2.0252
    8CHTO   H46 3314   5.460   9.790   0.210  0.3479 -1.3501 -1.5100
    8CHTO   C33 3315   5.261   9.594   0.259  0.0660  0.8759  0.3613
    8CHTO   H61 3316   5.214   9.594   0.160  0.0382 -1.7120  0.3518
    8CHTO   O18 3317   5.185   9.517   0.350 -0.3982  0.5045  0.5045
    8CHTO   C28 3318   5.049   9.554   0.346 -0.3574 -0.6875  0.4565
    8CHTO   H56 3319   5.010   9.573   0.246 -1.5880  0.8763  1.2128
    8CHTO   C35 3320   4.965   9.446   0.420 -0.4393  0.7344 -0.2847
    8CHTO   O24 3321   4.824   9.477   0.435  0.0497 -0.5221 -0.3509
    8CHTO   H39 3322   4.808   9.552   0.489 -2.7100 -0.6788 -0.9009
    8CHTO    O9 3323   5.395   9.534   0.236 -0.6201  0.5806  0.5969
    8CHTO   C13 3324   5.408   9.377   0.195 -0.6095  0.2998 -0.6003
    8CHTO   H26 3325   5.320   9.348   0.134 -0.3891 -0.1321 -0.7153
    8CHTO   C11 3326   5.420   9.283   0.325 -0.9563  0.3595  0.3282
    8CHTO   H24 3327   5.319   9.265   0.363 -1.2560  1.8445  0.2743
    8CHTO    O8 3328   5.504   9.355   0.420  0.1942 -0.0292  0.1767
    8CHTO    H3 3329   5.511   9.314   0.504 -1.8577  1.1555  0.9766
    8CHTO    C9 3330   5.484   9.149   0.274  0.4840 -0.7072 -0.4628
    8CHTO   H22 3331   5.425   9.116   0.187 -1.6115 -0.0266  0.6663
    8CHTO    N2 3332   5.473   9.033   0.366  0.1641 -0.3836  0.2367
    8CHTO   H10 3333   5.379   9.033   0.420  1.0457  0.8810  1.8142
    8CHTO   H11 3334   5.559   9.022   0.431  0.7732  0.6802 -0.3789
    8CHTO    C7 3335   5.636   9.169   0.222 -0.3726 -0.2099 -0.3364
    8CHTO   H20 3336   5.674   9.075   0.177  0.2875  0.0962 -0.4264
    8CHTO    O4 3337   5.653   9.291   0.141 -0.6239  0.3548  0.7936
    8CHTO   C14 3338   5.529   9.346   0.081 -0.0263 -0.3292 -0.2615
    8CHTO   H27 3339   5.500   9.271   0.004  2.9771  0.4941 -2.2768
    8CHTO   C18 3340   5.570   9.469   0.009  0.0000 -0.3613  0.3589
    8CHTO   O13 3341   5.448   9.526  -0.049 -0.0026 -0.5469  0.0624
    8CHTO    H7 3342   5.396   9.557   0.023  2.9077 -1.0828  2.4919
    8CHTO    O2 3343   5.749   9.179   0.352  0.7566 -0.4173 -0.2125
    8CHTO    C1 3344   5.893   9.164   0.333 -0.4870 -0.1565 -0.4146
    8CHTO   H14 3345   5.933   9.183   0.435 -3.3303  3.1381  0.1805
    8CHTO    C2 3346   5.962   9.267   0.227  0.9999 -0.1446 -0.1552
    8CHTO   H15 3347   5.931   9.238   0.126 -0.3235 -3.1195  1.0184
    8CHTO    O6 3348   5.908   9.394   0.271 -0.4427  0.0516  0.1217
    8CHTO    H1 3349   5.934   9.419   0.358 -1.5248  2.0096 -0.0696
    8CHTO    C3 3350   6.119   9.250   0.248 -0.2986 -1.1305  0.3709
    8CHTO   H16 3351   6.142   9.266   0.354 -0.1438  1.4780 -0.0046
    8CHTO    N1 3352   6.206   9.349   0.183 -0.2276 -0.0311  0.2086
    8CHTO    H8 3353   6.163   9.372   0.086 -2.5096 -3.9242  0.1930
    8CHTO    H9 3354   6.218   9.436   0.246  0.0338 -0.0813  0.2233
    8CHTO    C4 3355   6.162   9.104   0.216 -0.3971 -0.1902  0.0836
    8CHTO   H17 3356   6.161   9.087   0.108 -0.6860 -0.7408  0.1684
    8CHTO    O1 3357   6.085   9.008   0.295 -0.0151 -0.5271  0.5053
    8CHTO    C5 3358   5.943   9.018   0.291 -0.0551 -0.7614 -0.1796
    8CHTO   H18 3359   5.928   8.990   0.187 -0.6894 -1.1888  0.0194
    8CHTO   C16 3360   5.891   8.907   0.389 -0.0412 -0.2185 -0.1373
    8CHTO   O11 3361   5.898   8.780   0.331 -0.0970  0.2581  0.2303
    8CHTO    H5 3362   5.858   8.724   0.394  1.6056 -0.4007  0.7511
    8CHTO    O3 3363   6.295   9.070   0.270 -0.6087 -0.6168 -0.3507
    8CHTO    C6 3364   6.386   8.988   0.190 -0.2669 -0.2113  0.2032
    8CHTO   H19 3365   6.340   8.958   0.096  0.4060  0.6435 -0.4048
    8CHTO    C8 3366   6.510   9.073   0.154 -0.1758 -0.4902  0.1691
    8CHTO   H21 3367   6.553   9.112   0.247  0.5436  1.0278 -0.7748
    8CHTO    O7 3368   6.470   9.174   0.059  0.4174  0.9056 -0.3326
    8CHTO    H2 3369   6.527   9.247   0.072  0.7584  0.5150  0.4221
    8CHTO   C12 3370   6.627   8.992   0.096  0.7640  0.5095  0.8278
    8CHTO   H25 3371   6.590   8.965  -0.005  0.2145 -2.6107  1.8103
    8CHTO    N3 3372   6.750   9.073   0.073 -0.2521  0.4738 -0.1235
    8CHTO   H12 3373   6.830   9.010   0.036 -0.4560  1.0216 -1.5065
    8CHTO   H13 3374   6.789   9.125   0.159  1.8190  0.7412 -1.1902
    8CHTO   C15 3375   6.649   8.848   0.171 -0.6823 -0.6214 -0.3990
    8CHTO   H28 3376   6.703   8.852   0.266 -1.6715  0.5826  0.1295
    8CHTO   O10 3377   6.736   8.738   0.074 -0.2963  0.1493  0.4644
    8CHTO    H4 3378   6.686   8.712  -0.001  0.0555 -0.6900  0.5178
    8CHTO    O5 3379   6.522   8.786   0.189  0.5695  0.5077 -0.2019
    8CHTO   C10 3380   6.428   8.860   0.262  0.1513 -0.5790 -0.5838
    8CHTO   H23 3381   6.462   8.880   0.364 -0.4501  2.0323 -0.8505
    8CHTO   C17 3382   6.301   8.788   0.292 -0.4342  0.2350  0.2030
    8CHTO   O12 3383   6.209   8.750   0.187 -0.4249  0.0872  0.0457
    8CHTO    H6 3384   6.238   8.670   0.147  1.1030  0.3132  0.7061
    9CHTO  H203 3385   7.565   4.794   1.460 -0.2614  1.3222  1.3802
    9CHTO   O82 3386   7.598   4.741   1.531  0.1982  0.4977  0.5703
    9CHTO  C123 3387   7.722   4.681   1.487 -0.0556  0.5403 -0.1033
    9CHTO  H227 3388   7.793   4.681   1.571  1.0006  2.6933 -0.9715
    9CHTO   O77 3389   7.674   4.553   1.445  0.2964  0.2620  0.2791
    9CHTO  C118 3390   7.778   4.464   1.420  0.2379 -0.8123  0.0454
    9CHTO  H222 3391   7.852   4.470   1.502 -0.7192  0.5827  0.8274
    9CHTO  C125 3392   7.718   4.325   1.422  0.0139 -0.3720 -0.2770
    9CHTO   O84 3393   7.815   4.226   1.425 -0.6074 -0.3265 -0.0799
    9CHTO  H205 3394   7.829   4.202   1.335 -0.3943 -3.1719  0.6709
    9CHTO  C114 3395   7.845   4.506   1.290 -0.0614 -0.2176  0.5559
    9CHTO  H218 3396   7.767   4.503   1.214  0.4024 -4.9542  0.1137
    9CHTO  C116 3397   7.900   4.648   1.308 -0.4439  0.2538 -0.0780
    9CHTO  H220 3398   7.980   4.650   1.385 -0.2958 -0.8007 -0.2003
    9CHTO   O79 3399   7.963   4.695   1.184  0.1056  0.5612  0.4851
    9CHTO  H201 3400   7.989   4.784   1.201 -1.4294  1.3935 -1.3057
    9CHTO  C120 3401   7.793   4.753   1.359 -0.7322 -0.0537 -0.2279
    9CHTO  H224 3402   7.721   4.769   1.277 -3.0223  3.2886  2.2988
    9CHTO   N21 3403   7.857   4.883   1.401 -0.1891  0.3527 -0.0626
    9CHTO  H211 3404   7.855   4.896   1.508  2.2187  1.5625 -0.1178
    9CHTO  H212 3405   7.963   4.896   1.382 -0.1575  1.2375  0.6905
    9CHTO   O75 3406   7.954   4.407   1.269 -0.2372 -0.4195 -0.2508
    9CHTO  C112 3407   7.938   4.303   1.137 -0.1232 -0.5922  0.0412
    9CHTO  H216 3408   7.846   4.331   1.083  0.5434 -0.3212 -0.9678
    9CHTO   O73 3409   7.933   4.164   1.178 -0.4628 -0.0114  0.0913
    9CHTO  C113 3410   7.892   4.079   1.071  0.6095 -0.2512 -0.2744
    9CHTO  H217 3411   7.795   4.110   1.027  1.1761 -0.2981 -1.5683
    9CHTO  C124 3412   7.861   3.941   1.134 -0.2147 -0.5290 -0.6803
    9CHTO   O83 3413   7.760   3.952   1.238 -0.1103 -0.1646  0.0531
    9CHTO  H204 3414   7.795   3.925   1.320 -2.0850  2.2663  1.7826
    9CHTO  C109 3415   7.992   4.069   0.965  0.4015 -0.3707  0.6492
    9CHTO  H213 3416   8.080   4.020   1.010 -0.7858 -2.0326  1.2043
    9CHTO  C110 3417   8.025   4.217   0.911  0.4010 -0.8734  0.1423
    9CHTO  H214 3418   7.936   4.254   0.859 -0.2222 -0.5582  1.4007
    9CHTO   O78 3419   8.134   4.209   0.820 -0.1826  0.6306  0.2005
    9CHTO  H200 3420   8.162   4.123   0.797 -0.8711 -0.5008  3.3591
    9CHTO  C111 3421   8.048   4.318   1.029  0.2357 -0.0108 -0.0635
    9CHTO  H215 3422   8.140   4.293   1.083 -0.3448 -0.1569  0.8558
    9CHTO   N19 3423   8.068   4.456   0.984  0.2466  0.3040  0.5106
    9CHTO  H207 3424   8.059   4.523   1.068 -0.4042  0.9040 -0.0339
    9CHTO  H208 3425   8.166   4.465   0.941 -0.7820  0.5954 -1.8335
    9CHTO   O74 3426   7.944   3.988   0.861 -0.0661 -0.2725  0.2583
    9CHTO  C115 3427   8.080   3.919   0.775 -0.1972 -0.1977  0.1219
    9CHTO  H219 3428   8.174   3.972   0.792 -0.1877 -0.1884  0.0390
    9CHTO   O76 3429   8.095   3.753   0.807  0.2626 -0.0507 -0.0195
    9CHTO  C122 3430   7.997   3.652   0.762  0.7936 -0.2902  0.6160
    9CHTO  H226 3431   7.910   3.661   0.827  1.1356 -0.4652  1.0997
    9CHTO  C126 3432   8.053   3.503   0.769  0.1106 -0.8137 -0.5257
    9CHTO   O85 3433   7.945   3.408   0.778  0.1306  0.4316  0.3509
    9CHTO  H206 3434   7.893   3.411   0.855 -0.0074 -3.1510  0.4736
    9CHTO  C121 3435   7.948   3.686   0.611  0.4284  0.4911  0.1832
    9CHTO  H225 3436   8.038   3.668   0.548  1.4368  3.3194  0.7480
    9CHTO   O81 3437   7.833   3.601   0.572 -0.2805  0.8070  0.0913
    9CHTO  H202 3438   7.780   3.627   0.500  1.7140 -0.1468 -1.7619
    9CHTO  C119 3439   7.916   3.839   0.598  0.1134  0.1761  0.3257
    9CHTO  H223 3440   7.889   3.850   0.493  0.9851  2.4154  0.3153
    9CHTO  C117 3441   8.035   3.941   0.625 -0.4334 -0.1223  0.2915
    9CHTO  H221 3442   8.004   4.043   0.603 -0.3760 -0.1553  0.0529
    9CHTO   N20 3443   8.151   3.919   0.534  0.0397 -0.1238  0.0124
    9CHTO  H209 3444   8.203   4.007   0.499 -1.2978  0.0130 -1.6790
    9CHTO  H210 3445   8.213   3.833   0.555 -1.3862 -1.2091 -0.2127
    9CHTO   O80 3446   7.787   3.861   0.665 -0.1186  0.0507 -0.1083
    9CHTO  C103 3447   7.677   3.965   0.598  0.2410  0.1788  0.4327
    9CHTO  H190 3448   7.607   3.987   0.679  0.8393  0.6232  0.8347
    9CHTO  C101 3449   7.733   4.098   0.554 -0.3938 -0.0901 -0.3041
    9CHTO  H188 3450   7.823   4.075   0.496 -0.9449 -1.0026 -0.8059
    9CHTO   O68 3451   7.785   4.181   0.680  1.0208 -0.7019 -0.3771
    9CHTO  H168 3452   7.801   4.270   0.653  1.6325 -0.2671  1.3351
    9CHTO   C99 3453   7.625   4.180   0.470 -0.4644  0.3258 -0.3245
    9CHTO  H186 3454   7.554   4.237   0.534 -1.2464 -0.0681 -0.8345
    9CHTO   N17 3455   7.696   4.281   0.383  0.0796  0.2396  0.0060
    9CHTO  H174 3456   7.758   4.227   0.313 -0.6018  0.7530 -1.0099
    9CHTO  H175 3457   7.763   4.340   0.444 -1.1119  1.8677 -0.2448
    9CHTO   C97 3458   7.535   4.090   0.379  0.3803  0.4050 -0.4289
    9CHTO  H184 3459   7.589   4.061   0.287  1.7717  0.9958  0.1863
    9CHTO   O64 3460   7.486   3.981   0.451 -0.0286 -0.6826 -0.4487
    9CHTO  C104 3461   7.600   3.894   0.491 -0.1163  0.3719 -0.0301
    9CHTO  H191 3462   7.668   3.873   0.409 -1.3711 -2.9975 -0.2938
    9CHTO  C108 3463   7.547   3.754   0.532  0.5956 -0.0856 -0.1723
    9CHTO   O71 3464   7.522   3.675   0.416  0.3016  0.3945  0.0217
    9CHTO  H171 3465   7.525   3.584   0.438  1.0667  0.4719  0.2599
    9CHTO   O62 3466   7.421   4.175   0.337  1.0000 -0.2376 -0.4216
    9CHTO   C91 3467   7.351   4.139   0.219  0.0153 -0.3382  0.4827
    9CHTO  H178 3468   7.407   4.062   0.167 -2.1875 -1.9480  0.4357
    9CHTO   C92 3469   7.362   4.271   0.127  0.3164 -0.4968 -0.1350
    9CHTO  H179 3470   7.467   4.303   0.128  0.1051  0.5101 -4.0004
    9CHTO   O66 3471   7.338   4.227  -0.004  0.3505 -0.5719  0.9142
    9CHTO  H166 3472   7.396   4.155  -0.022  2.2756  0.7097  1.8532
    9CHTO   C93 3473   7.260   4.386   0.150 -0.4092  0.1495 -0.1738
    9CHTO  H180 3474   7.230   4.425   0.051  0.2477  1.4278  0.1236
    9CHTO   N16 3475   7.319   4.502   0.218 -0.2077  0.5241  0.7812
    9CHTO  H172 3476   7.242   4.574   0.242  0.0708  0.3395  2.3184
    9CHTO  H173 3477   7.355   4.460   0.311  0.1928  1.7820  1.2069
    9CHTO   C94 3478   7.136   4.334   0.228 -0.0156 -0.9818  0.8409
    9CHTO  H181 3479   7.151   4.332   0.336  0.2457  1.9623  0.8916
    9CHTO   O61 3480   7.107   4.199   0.188 -0.0353  0.1139  0.5472
    9CHTO   C95 3481   7.200   4.101   0.240  0.2771  0.4557  0.9485
    9CHTO  H182 3482   7.177   4.082   0.345  0.0678  0.6802  0.9417
    9CHTO  C106 3483   7.168   3.965   0.172  0.0972 -0.0759  0.5149
    9CHTO   O69 3484   7.185   3.963   0.026  1.5000  0.5732  0.3295
    9CHTO  H169 3485   7.275   3.988   0.016  1.4843  1.0650  1.4301
    9CHTO   O63 3486   7.012   4.421   0.186 -0.5305 -0.1972  0.2094
    9CHTO   C96 3487   6.899   4.481   0.274 -0.4186  0.0690  0.2297
    9CHTO  H183 3488   6.877   4.403   0.347  1.5116  0.8104  1.6569
    9CHTO   C98 3489   6.766   4.509   0.188 -0.9606 -0.5082 -0.3268
    9CHTO  H185 3490   6.783   4.586   0.111 -1.8727 -1.4211 -1.4818
    9CHTO   O67 3491   6.723   4.391   0.122  0.4102 -0.3226 -0.3295
    9CHTO  H167 3492   6.680   4.333   0.182  1.8095 -2.3629 -1.2238
    9CHTO  C102 3493   6.644   4.564   0.278  0.3019  0.3950 -1.0852
    9CHTO  H189 3494   6.621   4.485   0.351 -2.3007  2.6346  0.6172
    9CHTO   N18 3495   6.515   4.589   0.208 -0.6397 -0.5425  0.2515
    9CHTO  H176 3496   6.502   4.520   0.126  3.9374  0.3938 -1.3661
    9CHTO  H177 3497   6.518   4.689   0.167  2.1116  0.0387  1.8153
    9CHTO  C105 3498   6.697   4.682   0.368 -0.5565 -0.5318  0.1802
    9CHTO  H192 3499   6.709   4.772   0.307  0.3936 -0.2220  0.7916
    9CHTO   O65 3500   6.820   4.655   0.432 -0.0807  0.1342  0.3025
    9CHTO  C100 3501   6.930   4.621   0.349 -0.6966 -0.3275 -0.4783
    9CHTO  H187 3502   6.954   4.705   0.282  1.5446 -0.8250 -0.3403
    9CHTO  C107 3503   7.043   4.611   0.454 -0.3419  0.8036 -0.5652
    9CHTO   O70 3504   7.031   4.508   0.555  0.3114  0.1685 -0.1446
    9CHTO  H170 3505   7.031   4.424   0.515  1.0090 -0.1119  0.4346
    9CHTO   O57 3506   6.588   4.710   0.485  0.6283 -0.0065  0.1582
    9CHTO   C85 3507   6.535   4.846   0.495  0.3534  1.0489 -0.1106
    9CHTO  H157 3508   6.489   4.856   0.394  0.4874 -2.5891 -0.5992
    9CHTO   C83 3509   6.650   4.946   0.530  0.0879  0.3556  0.4179
    9CHTO  H155 3510   6.719   4.960   0.447  0.1735 -1.1885  0.2140
    9CHTO   O56 3511   6.747   4.893   0.629 -0.1968  0.5793  0.3029
    9CHTO  H135 3512   6.791   4.821   0.588  0.6164 -0.4973  2.9815
    9CHTO   C81 3513   6.582   5.084   0.560 -0.5469  0.0281 -0.1529
    9CHTO  H153 3514   6.521   5.108   0.473  0.9142  0.4935 -1.0526
    9CHTO   N14 3515   6.688   5.193   0.583  0.2998 -0.2267  0.4055
    9CHTO  H141 3516   6.666   5.263   0.660  2.1591  0.9607 -0.1147
    9CHTO  H142 3517   6.702   5.247   0.492 -0.7211 -2.3570 -1.0685
    9CHTO   C79 3518   6.488   5.073   0.688  0.2952  0.3634  0.4258
    9CHTO  H151 3519   6.440   5.171   0.700 -1.4801 -0.6674  2.0847
    9CHTO   O52 3520   6.382   4.983   0.656  0.0644 -0.4360  0.0253
    9CHTO   C86 3521   6.430   4.851   0.616  1.1569 -0.0276 -0.6134
    9CHTO  H158 3522   6.476   4.802   0.704  1.4767  1.2024 -0.0881
    9CHTO   C90 3523   6.306   4.764   0.580  0.2484  0.1356  0.5485
    9CHTO   O60 3524   6.229   4.809   0.468 -0.5085 -0.2266  0.0338
    9CHTO  H138 3525   6.209   4.736   0.413  0.6666 -1.2692  0.9765
    9CHTO   O50 3526   6.567   5.045   0.808 -0.2050  0.2163 -0.5687
    9CHTO   C73 3527   6.554   5.045   0.951 -0.1677  0.1873 -0.5149
    9CHTO  H145 3528   6.457   5.007   0.987  0.4205 -0.1973  0.6954
    9CHTO   C74 3529   6.562   5.189   1.015 -0.0223  0.6190 -0.6609
    9CHTO  H146 3530   6.478   5.250   0.977  0.1181  0.1244 -1.8048
    9CHTO   O54 3531   6.539   5.182   1.159  0.1110 -0.2285 -0.5714
    9CHTO  H133 3532   6.533   5.268   1.196  0.6830 -0.5567  0.2973
    9CHTO   C75 3533   6.706   5.262   0.986  0.0621  0.7044 -0.2791
    9CHTO  H147 3534   6.706   5.284   0.879  0.6927  0.2074 -0.3820
    9CHTO   N13 3535   6.722   5.395   1.045  0.4674  0.1623 -0.0137
    9CHTO  H139 3536   6.825   5.423   1.025  0.4470 -0.2544 -0.7135
    9CHTO  H140 3537   6.714   5.399   1.153 -0.4273  1.1488 -0.1068
    9CHTO   C76 3538   6.818   5.152   1.036 -0.1277 -0.0775  0.3396
    9CHTO  H148 3539   6.799   5.143   1.143 -0.9584  0.6374  0.2567
    9CHTO   O49 3540   6.797   5.019   0.973 -0.6094 -0.1458  0.6844
    9CHTO   C77 3541   6.668   4.959   1.010 -0.6838 -0.0428 -0.1639
    9CHTO  H149 3542   6.659   4.956   1.119  1.4980 -0.9259  0.0263
    9CHTO   C88 3543   6.667   4.814   0.962 -0.3656  0.3731 -0.1147
    9CHTO   O58 3544   6.776   4.734   1.019 -0.2543  0.2217  0.6651
    9CHTO  H136 3545   6.761   4.703   1.106 -0.1571  2.8991  1.6828
    9CHTO   O51 3546   6.984   5.198   0.998  0.7754  0.3864 -0.6788
    9CHTO   C78 3547   7.096   5.083   1.048  0.0076  0.3413 -0.5045
    9CHTO  H150 3548   7.048   4.996   1.097  0.4988  1.2498  1.6162
    9CHTO   C80 3549   7.194   5.140   1.153 -0.2326 -0.4461 -0.1779
    9CHTO  H152 3550   7.251   5.222   1.104  1.3726 -1.3628  0.1215
    9CHTO   O55 3551   7.119   5.209   1.253  0.1083 -0.4059 -0.2387
    9CHTO  H134 3552   7.073   5.139   1.296 -2.6933  2.4130  1.5559
    9CHTO   C84 3553   7.287   5.021   1.205 -0.3682  0.7009 -0.1291
    9CHTO  H156 3554   7.219   4.942   1.237  0.1544  0.1221 -0.4347
    9CHTO   N15 3555   7.372   5.059   1.326 -0.2421  0.6281  0.3354
    9CHTO  H143 3556   7.430   5.147   1.308  2.5683 -1.8019 -2.9440
    9CHTO  H144 3557   7.438   4.979   1.351 -0.4562  0.8473  1.6817
    9CHTO   C87 3558   7.370   4.963   1.088 -0.2805 -1.3065  0.1220
    9CHTO  H159 3559   7.441   5.035   1.047 -2.0069  0.6341  0.4359
    9CHTO   O53 3560   7.262   4.924   0.972  0.7312 -0.5756  0.1156
    9CHTO   C82 3561   7.183   5.035   0.929  0.2554  0.3604 -0.9947
    9CHTO  H154 3562   7.249   5.111   0.887  1.7940 -0.3133  0.1092
    9CHTO   C89 3563   7.104   4.976   0.816 -0.8917 -0.6045  0.0128
    9CHTO   O59 3564   7.044   4.859   0.850  0.2367 -0.0626  0.2979
    9CHTO  H137 3565   6.973   4.869   0.910 -0.2578 -0.1877 -0.2560
    9CHTO   O45 3566   7.463   4.826   1.137  0.2044 -0.4855  0.0702
    9CHTO   C67 3567   7.429   4.698   1.081  0.2266 -0.3679  0.4587
    9CHTO  H124 3568   7.322   4.697   1.064  0.5089  1.8241 -1.7018
    9CHTO   C65 3569   7.507   4.670   0.943  0.1097  0.3201 -0.0359
    9CHTO  H122 3570   7.561   4.760   0.916  1.3173 -0.3922 -0.0212
    9CHTO   O44 3571   7.406   4.651   0.841  0.3141 -0.0884 -0.0435
    9CHTO  H102 3572   7.376   4.562   0.847  1.9571 -0.5687  1.4675
    9CHTO   C63 3573   7.622   4.561   0.953 -0.6236 -0.5131  0.2609
    9CHTO  H120 3574   7.693   4.594   1.029 -1.6528 -1.9862  1.9001
    9CHTO   N11 3575   7.709   4.547   0.831  0.1907  0.0588  0.2669
    9CHTO  H108 3576   7.657   4.590   0.748 -0.9740  0.3155  1.1122
    9CHTO  H109 3577   7.721   4.443   0.807  0.1498  0.4122 -1.3765
    9CHTO   C61 3578   7.561   4.426   1.002  0.5865  0.5931  0.0238
    9CHTO  H118 3579   7.641   4.363   1.044 -0.4056 -1.0249 -0.4822
    9CHTO   O40 3580   7.471   4.449   1.114  0.1011 -0.3918 -0.2195
    9CHTO   C68 3581   7.460   4.582   1.182 -0.1743 -0.1052  0.0049
    9CHTO  H125 3582   7.558   4.612   1.225 -0.7361  0.0615  1.1833
    9CHTO   C72 3583   7.357   4.590   1.296 -0.3201  0.3979  0.0638
    9CHTO   O48 3584   7.363   4.488   1.396 -0.8459 -0.6199 -0.0974
    9CHTO  H105 3585   7.440   4.507   1.447 -0.6819  2.1970 -1.3263
    9CHTO   O38 3586   7.490   4.358   0.895  0.2194  0.1875 -0.0745
    9CHTO   C55 3587   7.399   4.249   0.922 -0.3331 -0.3630  0.3000
    9CHTO  H112 3588   7.307   4.289   0.966 -1.1922 -0.4431 -1.3923
    9CHTO   C56 3589   7.470   4.136   1.006  0.6763 -0.3299 -0.2232
    9CHTO  H113 3590   7.567   4.123   0.954  0.4031  1.9684 -1.3601
    9CHTO   O42 3591   7.489   4.177   1.140 -0.2664  0.4103 -0.6872
    9CHTO  H100 3592   7.539   4.114   1.188  0.1514  1.8411  0.7934
    9CHTO   C57 3593   7.376   4.005   1.016 -0.3924  0.5230 -0.0731
    9CHTO  H114 3594   7.292   4.027   1.083  0.4388  0.0769  1.1307
    9CHTO   N10 3595   7.449   3.886   1.062  0.0691  0.0096 -0.5077
    9CHTO  H106 3596   7.426   3.873   1.166  2.2016 -0.5501 -0.0878
    9CHTO  H107 3597   7.554   3.905   1.050  0.2582  0.3668  1.6266
    9CHTO   C58 3598   7.314   3.972   0.876 -0.2168  0.1257 -0.2693
    9CHTO  H115 3599   7.391   3.933   0.807  0.8126  2.5380 -0.5272
    9CHTO   O37 3600   7.249   4.091   0.820 -0.0862 -0.2316  0.2706
    9CHTO   C59 3601   7.350   4.185   0.784  0.4383  0.3728 -0.4055
    9CHTO  H116 3602   7.438   4.143   0.736  1.4704 -1.4178  2.9644
    9CHTO   C70 3603   7.296   4.291   0.686  0.4446 -0.1007 -0.6832
    9CHTO   O46 3604   7.226   4.223   0.580 -0.5533  0.2833 -0.5189
    9CHTO  H103 3605   7.205   4.284   0.512 -1.8972  0.8288  0.3642
    9CHTO   O39 3606   7.185   3.880   0.886  0.0519  0.5730 -0.1802
    9CHTO   C60 3607   7.190   3.751   0.829  1.2208  0.2244  0.2082
    9CHTO  H117 3608   7.290   3.730   0.793  0.4666  0.0202 -1.8188
    9CHTO   C62 3609   7.157   3.646   0.940  0.5034 -0.8503  0.0023
    9CHTO  H119 3610   7.232   3.671   1.018  0.7084  1.6583 -0.9631
    9CHTO   O43 3611   7.022   3.656   1.000 -0.0281  0.7667  0.1898
    9CHTO  H101 3612   7.016   3.609   1.081  0.5875 -2.1895 -1.3850
    9CHTO   C66 3613   7.182   3.504   0.893  0.3591  0.4682  0.6039
    9CHTO  H123 3614   7.280   3.504   0.845 -0.5034  0.2085 -1.2079
    9CHTO   N12 3615   7.199   3.407   1.004 -0.0383  0.4947  0.1996
    9CHTO  H110 3616   7.193   3.304   0.972 -0.5706  1.0128 -1.4398
    9CHTO  H111 3617   7.289   3.426   1.062 -0.8365  1.5231  1.1196
    9CHTO   C69 3618   7.080   3.464   0.779 -0.1323  0.0550 -0.1646
    9CHTO  H126 3619   6.978   3.474   0.821  0.7857 -1.0948  2.4433
    9CHTO   O41 3620   7.108   3.573   0.657 -0.0721  0.5994 -0.0429
    9CHTO   C64 3621   7.094   3.728   0.707  0.3024  0.5811 -1.0449
    9CHTO  H121 3622   6.988   3.749   0.735  0.5760  0.3927  0.1852
    9CHTO   C71 3623   7.123   3.815   0.581 -0.4429 -0.5774  0.2322
    9CHTO   O47 3624   7.035   3.778   0.473 -0.4468 -0.4644 -0.5286
    9CHTO  H104 3625   7.055   3.837   0.403 -0.3753  0.4324  0.2375
    9CHTO   O34 3626   7.110   3.321   0.734  0.3058 -0.5737  0.0057
    9CHTO   C49 3627   7.170   3.254   0.610 -0.0464  0.2494  0.3826
    9CHTO   H91 3628   7.121   3.296   0.522 -3.9124 -0.2283  2.1687
    9CHTO   C47 3629   7.149   3.101   0.605 -0.4913 -0.5419  0.1202
    9CHTO   H89 3630   7.190   3.071   0.506 -0.2138 -0.0218  0.0771
    9CHTO   O33 3631   7.016   3.054   0.610  0.2586 -0.3523 -0.5962
    9CHTO   H70 3632   7.015   2.964   0.582 -0.1237  0.1335 -2.1858
    9CHTO   C45 3633   7.233   3.022   0.720  0.1046 -0.3148 -0.6514
    9CHTO   H87 3634   7.167   3.002   0.805 -0.0221  0.8691 -0.4621
    9CHTO    N8 3635   7.281   2.892   0.666 -0.0573  0.6180 -0.4330
    9CHTO   H75 3636   7.335   2.912   0.574  0.5448 -2.5086 -0.8276
    9CHTO   H76 3637   7.204   2.821   0.640 -0.1715  1.2214 -1.7828
    9CHTO   C43 3638   7.351   3.114   0.778  0.1150  0.4179 -0.8221
    9CHTO   H85 3639   7.310   3.181   0.853 -0.8839 -2.8635  1.7000
    9CHTO   O29 3640   7.415   3.185   0.667 -0.0589 -0.2874  0.6182
    9CHTO   C50 3641   7.327   3.278   0.598  0.4971  0.2407 -0.2077
    9CHTO   H92 3642   7.346   3.377   0.641  2.0051  0.6238 -1.7100
    9CHTO   C54 3643   7.386   3.298   0.458 -0.0375  0.4376  0.5924
    9CHTO   O36 3644   7.309   3.388   0.380 -0.3304  0.5332  0.3014
    9CHTO   H72 3645   7.357   3.413   0.303  2.5377 -2.5468  1.0140
    9CHTO   O27 3646   7.446   3.051   0.854 -0.2841 -0.2326  0.2348
    9CHTO   C37 3647   7.530   3.087   0.963 -0.2354  0.0108  0.2863
    9CHTO   H79 3648   7.611   3.013   0.960 -0.7398 -0.6292  1.7072
    9CHTO   C38 3649   7.604   3.224   0.939 -0.4473 -0.5277 -0.1976
    9CHTO   H80 3650   7.531   3.292   0.893 -1.0039  0.1231  1.6302
    9CHTO   O31 3651   7.711   3.198   0.844 -0.0994 -0.1948 -0.7764
    9CHTO   H68 3652   7.668   3.203   0.761 -1.5255  1.4787  0.0454
    9CHTO   C39 3653   7.670   3.292   1.068  0.2972  0.0143  1.0265
    9CHTO   H81 3654   7.756   3.226   1.077 -0.1634 -1.0144 -1.8343
    9CHTO    N7 3655   7.717   3.428   1.036  0.1849  0.0351  0.0160
    9CHTO   H73 3656   7.812   3.427   0.986  0.4553 -2.6860  0.5241
    9CHTO   H74 3657   7.710   3.484   1.128  3.1410  1.2155 -0.4290
    9CHTO   C40 3658   7.563   3.276   1.191  0.6541 -0.1132  0.0444
    9CHTO   H82 3659   7.477   3.340   1.173  1.6108  1.1389 -0.1217
    9CHTO   O26 3660   7.522   3.140   1.209  0.3686 -0.1447  0.4461
    9CHTO   C41 3661   7.460   3.077   1.099 -0.6855 -0.6906  0.0904
    9CHTO   H83 3662   7.361   3.124   1.090 -0.3240 -0.2675 -1.9468
    9CHTO   C52 3663   7.431   2.927   1.136  0.0532  0.0004  0.0335
    9CHTO   O35 3664   7.360   2.924   1.249  0.6246 -0.5073  0.1263
    9CHTO   H71 3665   7.336   2.835   1.265  1.1254 -0.1351  3.1840
    9CHTO   O28 3666   7.618   3.330   1.317  0.4130 -0.5162  0.6839
    9CHTO   C42 3667   7.541   3.387   1.423  0.4516  0.1958 -0.2365
    9CHTO   H84 3668   7.594   3.380   1.518 -0.7796  3.2347  0.7239
    9CHTO   C44 3669   7.394   3.324   1.447  0.0660 -0.3278 -1.0485
    9CHTO   H86 3670   7.344   3.319   1.349  0.1344 -0.6796 -1.0666
    9CHTO   O32 3671   7.409   3.193   1.492 -0.2327 -0.0017 -0.1059
    9CHTO   H69 3672   7.471   3.179   1.561  0.6235  4.9812  0.3118
    9CHTO   C48 3673   7.293   3.398   1.546  0.3003  0.1377  0.1703
    9CHTO   H90 3674   7.328   3.376   1.647  0.6445 -1.5463 -0.3037
    9CHTO    N9 3675   7.153   3.339   1.551 -0.1218 -0.1021  0.3537
    9CHTO   H77 3676   7.153   3.243   1.500  0.3286  0.4489 -0.7026
    9CHTO   H78 3677   7.122   3.318   1.652 -2.6205 -3.9881 -1.1056
    9CHTO   C51 3678   7.294   3.548   1.510 -0.6113 -0.8995 -0.8541
    9CHTO   H93 3679   7.253   3.556   1.409  2.6281  0.7887 -2.0896
    9CHTO   O30 3680   7.429   3.591   1.510  0.1814  0.1949 -0.0559
    9CHTO   C46 3681   7.520   3.538   1.400  0.5990 -0.0955 -0.1555
    9CHTO   H88 3682   7.473   3.566   1.306  1.9279  0.0150 -0.7912
    9CHTO   C53 3683   7.647   3.627   1.417  0.0045  0.0226  0.5113
    9CHTO   O72 3684   7.761   3.585   1.342 -0.1494  0.0761 -0.2743
    9CHTO  H199 3685   7.840   3.627   1.370 -0.3085  0.5483 -0.5299
    9CHTO   O22 3686   7.227   3.635   1.603 -0.3307  0.3030  0.4314
    9CHTO   C31 3687   7.184   3.765   1.553 -0.4961  0.2119  0.2429
    9CHTO   H59 3688   7.123   3.811   1.633 -0.3321 -0.6267  0.8625
    9CHTO   C29 3689   7.299   3.863   1.513 -0.0149  0.0387  0.6860
    9CHTO   H57 3690   7.349   3.818   1.426  1.3970  0.2232  1.3975
    9CHTO   O21 3691   7.393   3.871   1.625  0.5367 -0.2199 -0.2302
    9CHTO   H37 3692   7.346   3.908   1.697  2.2600 -0.5500  1.1006
    9CHTO   C27 3693   7.243   4.010   1.474 -0.0897 -0.7654 -0.3953
    9CHTO   H55 3694   7.179   4.053   1.553 -0.1922  2.1588 -1.9916
    9CHTO    N5 3695   7.352   4.103   1.445 -0.5733  0.1148  0.0151
    9CHTO   H43 3696   7.321   4.207   1.444 -0.5481  0.1122 -1.3028
    9CHTO   H44 3697   7.430   4.083   1.517 -2.2549 -0.8657  1.5963
    9CHTO   C25 3698   7.145   3.991   1.358 -0.7170 -0.4837 -0.2116
    9CHTO   H53 3699   7.194   3.952   1.268  1.7567  4.0513 -0.9571
    9CHTO   O17 3700   7.042   3.899   1.404 -0.2555  0.6278  0.1568
    9CHTO   C32 3701   7.085   3.762   1.424  0.0611  0.3398 -0.4720
    9CHTO   H60 3702   7.143   3.730   1.338  0.1756 -1.5744  0.2763
    9CHTO   C36 3703   6.960   3.669   1.455  0.4831 -0.7342 -0.3906
    9CHTO   O25 3704   6.849   3.684   1.362  0.2764 -0.0584 -1.0224
    9CHTO   H40 3705   6.792   3.758   1.375 -1.6542 -1.2482 -2.3975
    9CHTO   O15 3706   7.063   4.137   1.318 -0.5514  0.3842  0.1551
    9CHTO   C19 3707   7.001   4.202   1.206 -0.5097 -0.2178  0.2567
    9CHTO   H47 3708   6.899   4.218   1.243 -0.9971 -1.7372 -0.3930
    9CHTO   C20 3709   7.073   4.334   1.175 -0.3900 -0.1170 -0.4773
    9CHTO   H48 3710   7.179   4.322   1.149 -0.8319 -1.5679 -1.6621
    9CHTO   O19 3711   7.055   4.407   1.299  0.0304  0.7896  0.3215
    9CHTO   H35 3712   7.130   4.438   1.346 -0.3475  1.4887  0.4823
    9CHTO   C21 3713   7.016   4.406   1.048  0.8643 -0.2898  0.6104
    9CHTO   H49 3714   6.913   4.435   1.070  1.4499  1.9375  0.4503
    9CHTO    N4 3715   7.093   4.527   1.006  0.0364  0.3965  0.0303
    9CHTO   H41 3716   7.038   4.617   1.029  1.6291  1.5443 -0.5554
    9CHTO   H42 3717   7.190   4.532   1.052  0.2993  0.2493 -0.4958
    9CHTO   C22 3718   7.002   4.306   0.929 -0.8169 -0.3157  0.0366
    9CHTO   H50 3719   7.097   4.269   0.892 -0.0126  2.4790 -0.7875
    9CHTO   O14 3720   6.925   4.196   0.974  0.0666 -0.0430  0.1086
    9CHTO   C23 3721   6.988   4.111   1.078  0.1789 -0.4296 -0.5297
    9CHTO   H51 3722   7.083   4.086   1.028 -0.0918 -1.1694 -0.6777
    9CHTO   C34 3723   6.907   3.986   1.097 -0.2034 -0.1182  0.4998
    9CHTO   O23 3724   6.880   3.914   0.973  0.5560  0.3374  0.3502
    9CHTO   H38 3725   6.832   3.835   0.992  1.3741 -0.0580  0.7692
    9CHTO   O16 3726   6.926   4.365   0.822 -0.5311  0.1921 -0.2692
    9CHTO   C24 3727   6.799   4.284   0.724 -0.0892 -0.5679  0.7228
    9CHTO   H52 3728   6.736   4.219   0.785 -0.7037  0.2322  0.9376
    9CHTO   C26 3729   6.869   4.196   0.615  0.2808 -0.0822  0.4046
    9CHTO   H54 3730   6.931   4.256   0.546 -1.1274  0.6587 -0.2352
    9CHTO   O20 3731   6.958   4.113   0.689  0.2121 -0.1739 -0.2362
    9CHTO   H36 3732   6.937   4.023   0.670  0.8948 -0.6020  0.9903
    9CHTO   C30 3733   6.760   4.116   0.535  0.5581 -0.2981 -0.1793
    9CHTO   H58 3734   6.712   4.047   0.606  3.2378 -0.8893  1.1010
    9CHTO    N6 3735   6.817   4.030   0.427 -0.3604  0.3491  0.3641
    9CHTO   H45 3736   6.879   4.093   0.364 -1.6132  1.0242 -0.2118
    9CHTO   H46 3737   6.879   3.953   0.471 -1.4896  0.5311  2.3012
    9CHTO   C33 3738   6.652   4.214   0.483  1.1289  0.3515 -0.1243
    9CHTO   H61 3739   6.697   4.269   0.399  2.2078 -1.7246 -0.9340
    9CHTO   O18 3740   6.608   4.302   0.585  0.6033  0.3502 -0.3583
    9CHTO   C28 3741   6.706   4.383   0.656  0.3726 -0.6534  0.4454
    9CHTO   H56 3742   6.762   4.437   0.580 -0.7660 -0.6494 -0.4064
    9CHTO   C35 3743   6.645   4.474   0.767 -0.4659 -0.3258 -0.3530
    9CHTO   O24 3744   6.514   4.525   0.744 -0.0286 -0.5777  0.8657
    9CHTO   H39 3745   6.473   4.555   0.823 -1.1352  0.4756 -0.0812
    9CHTO    O9 3746   6.541   4.137   0.425  0.0581 -0.1319  0.4644
    9CHTO   C13 3747   6.446   4.222   0.325 -0.1835 -0.0268 -0.0380
    9CHTO   H26 3748   6.499   4.316   0.301 -3.0953  1.4353 -1.0016
    9CHTO   C11 3749   6.310   4.255   0.397 -0.0731 -0.1180  0.3267
    9CHTO   H24 3750   6.335   4.320   0.482  0.6499  1.3020 -0.9558
    9CHTO    O8 3751   6.245   4.135   0.444 -0.5935  0.3914  0.2389
    9CHTO    H3 3752   6.194   4.156   0.520 -0.0612  0.1656  0.6577
    9CHTO    C9 3753   6.220   4.346   0.305 -0.0286 -0.1241 -0.0534
    9CHTO   H22 3754   6.287   4.429   0.277  2.4193 -2.7972 -2.3973
    9CHTO    N2 3755   6.100   4.405   0.371  0.0811 -0.2854  0.3513
    9CHTO   H10 3756   6.009   4.358   0.337  0.0127  0.6670 -0.8253
    9CHTO   H11 3757   6.091   4.509   0.343 -0.6734 -0.1700  1.0076
    9CHTO    C7 3758   6.208   4.270   0.168 -0.4062 -0.4454 -0.0199
    9CHTO   H20 3759   6.256   4.339   0.096 -1.6713  0.1241 -0.3418
    9CHTO    O4 3760   6.276   4.142   0.159  0.0631  0.4068  0.4110
    9CHTO   C14 3761   6.422   4.149   0.188  0.2185  0.3472  0.9050
    9CHTO   H27 3762   6.455   4.215   0.106 -2.4120 -0.0557 -0.5347
    9CHTO   C18 3763   6.479   4.004   0.167 -0.0383 -0.5946  0.0736
    9CHTO   O13 3764   6.432   3.911   0.268  0.4018 -0.0655  0.5340
    9CHTO    H7 3765   6.357   3.945   0.314 -0.0937 -2.2654  1.4001
    9CHTO    O2 3766   6.039   4.238   0.116  0.0622 -0.1142 -0.3959
    9CHTO    C1 3767   5.958   4.143   0.189 -0.1435 -0.1337 -0.8463
    9CHTO   H14 3768   5.978   4.162   0.296  0.9595  3.2420 -1.5923
    9CHTO    C2 3769   5.986   3.990   0.154 -0.4134 -0.1777  0.1886
    9CHTO   H15 3770   6.018   3.987   0.049 -1.9851  0.8467 -0.3405
    9CHTO    O6 3771   6.095   3.941   0.231  0.6533 -0.0264  0.0829
    9CHTO    H1 3772   6.075   3.928   0.321 -2.4732 -0.8001 -0.6637
    9CHTO    C3 3773   5.859   3.894   0.182  0.4261 -0.4546 -0.2105
    9CHTO   H16 3774   5.852   3.860   0.287 -2.3867 -1.0101 -0.5232
    9CHTO    N1 3775   5.867   3.769   0.097  0.2799  0.0852 -0.1519
    9CHTO    H8 3776   5.924   3.689   0.142  0.7457  1.2797  1.4171
    9CHTO    H9 3777   5.894   3.801  -0.003 -0.4924 -0.1081 -0.4277
    9CHTO    C4 3778   5.725   3.965   0.147  0.1418 -0.0488 -0.1289
    9CHTO   H17 3779   5.718   3.984   0.040 -1.6441  1.1794  0.1702
    9CHTO    O1 3780   5.723   4.086   0.218 -0.0484 -0.0307 -0.0922
    9CHTO    C5 3781   5.808   4.182   0.163 -0.1221 -0.0034  0.2701
    9CHTO   H18 3782   5.793   4.191   0.056 -0.6758  0.0900  0.3550
    9CHTO   C16 3783   5.768   4.318   0.226  0.5834 -0.6021 -0.2687
    9CHTO   O11 3784   5.623   4.340   0.196 -0.7605  0.0741  0.4268
    9CHTO    H5 3785   5.620   4.370   0.108  0.0338 -0.0768  0.3368
    9CHTO    O3 3786   5.612   3.898   0.210 -0.5690 -0.1999 -0.0939
    9CHTO    C6 3787   5.480   3.949   0.175  0.3029 -0.0620 -0.0077
    9CHTO   H19 3788   5.489   4.046   0.126 -0.6601 -1.1361 -2.4166
    9CHTO    C8 3789   5.412   3.845   0.078  0.0361 -0.6581 -1.1049
    9CHTO   H21 3790   5.421   3.747   0.125  2.2349 -0.7456 -1.6756
    9CHTO    O7 3791   5.480   3.843  -0.050  0.1624  0.3888  0.1412
    9CHTO    H2 3792   5.417   3.880  -0.109 -0.3120  0.3425  0.6173
    9CHTO   C12 3793   5.253   3.877   0.066 -0.4988  0.2670  0.4471
    9CHTO   H25 3794   5.242   3.978   0.023 -0.6447  0.1193  0.1394
    9CHTO    N3 3795   5.173   3.792  -0.030 -0.3632 -0.6800  0.2409
    9CHTO   H12 3796   5.068   3.817  -0.034 -0.0624  0.5405 -0.3671
    9CHTO   H13 3797   5.189   3.689  -0.003 -0.3883 -0.6666  0.3075
    9CHTO   C15 3798   5.188   3.881   0.203  0.4537  0.0456 -0.0853
    9CHTO   H28 3799   5.206   3.792   0.263  2.7951  1.7848  1.9097
    9CHTO   O10 3800   5.030   3.917   0.208  0.1719 -0.1996  0.1966
    9CHTO    H4 3801   5.014   3.991   0.154  1.6933 -0.8983 -1.2618
    9CHTO    O5 3802   5.254   3.990   0.270 -0.5211 -0.2759  0.2751
    9CHTO   C10 3803   5.398   3.969   0.302 -0.5207 -0.6962 -0.5214
    9CHTO   H23 3804   5.412   3.892   0.378 -0.0630 -2.5080 -2.4347
    9CHTO   C17 3805   5.427   4.102   0.376  0.3362  0.7960 -0.6753
    9CHTO   O12 3806   5.556   4.112   0.436  0.6023  0.1492 -0.4116
    9CHTO    H6 3807   5.626   4.128   0.377  0.8942  1.1099  0.1778
   10CHTO  H203 3808   4.538   6.557   0.282  3.4655  1.1287  1.6519
   10CHTO   O82 3809   4.478   6.587   0.348  0.6407  0.2756 -0.4446
   10CHTO  C123 3810   4.350   6.643   0.308  0.5302 -1.0287 -0.2343
   10CHTO  H227 3811   4.327   6.615   0.204 -0.0562  0.3785 -0.4939
   10CHTO   O77 3812   4.255   6.589   0.400 -0.6740  0.4326 -0.0696
   10CHTO  C118 3813   4.121   6.609   0.357  0.7825  0.5227 -0.7084
   10CHTO  H222 3814   4.109   6.570   0.254 -0.2249  0.7031 -0.6607
   10CHTO  C125 3815   4.022   6.529   0.450 -0.4306 -0.1418 -0.2575
   10CHTO   O84 3816   4.035   6.392   0.437  0.2783 -0.2489  0.5131
   10CHTO  H205 3817   3.958   6.357   0.477 -1.0738  1.6938 -0.2962
   10CHTO  C114 3818   4.093   6.761   0.369 -0.6846 -0.0133 -0.3822
   10CHTO  H218 3819   4.107   6.788   0.473  0.7899 -1.2806 -0.2273
   10CHTO  C116 3820   4.198   6.837   0.274  0.3764 -0.6651 -0.3442
   10CHTO  H220 3821   4.170   6.808   0.170  0.6550  0.2183 -0.6619
   10CHTO   O79 3822   4.187   6.980   0.288 -0.0655  0.2579  0.7029
   10CHTO  H201 3823   4.267   7.028   0.281  0.4632 -0.8138 -0.9672
   10CHTO  C120 3824   4.346   6.797   0.304  0.2250 -0.1382 -0.1364
   10CHTO  H224 3825   4.367   6.845   0.402  1.4921  2.2480 -1.5519
   10CHTO   N21 3826   4.440   6.856   0.204  0.0462 -0.3011 -0.1111
   10CHTO  H211 3827   4.406   6.947   0.157  1.0745  0.1219 -0.0584
   10CHTO  H212 3828   4.464   6.785   0.126 -0.1647  2.4002 -2.6910
   10CHTO   O75 3829   3.953   6.780   0.332 -0.0125  0.5043  0.5881
   10CHTO  C112 3830   3.884   6.870   0.434 -0.4010 -0.1803  0.2457
   10CHTO  H216 3831   3.947   6.951   0.473  0.2464 -0.9168  0.7423
   10CHTO   O73 3832   3.848   6.779   0.537 -0.1564 -0.1571  0.0452
   10CHTO  C113 3833   3.802   6.841   0.657 -0.3957  0.0687 -0.0720
   10CHTO  H217 3834   3.863   6.930   0.686  1.2029 -0.8610 -0.5001
   10CHTO  C124 3835   3.793   6.740   0.771  0.1024  0.1180  0.6800
   10CHTO   O83 3836   3.692   6.638   0.744  0.1003 -0.3417 -0.2838
   10CHTO  H204 3837   3.608   6.679   0.753  0.8205  1.4763 -1.4064
   10CHTO  C109 3838   3.663   6.907   0.629 -0.4275 -0.1924 -0.5216
   10CHTO  H213 3839   3.599   6.824   0.596 -0.4640 -0.8459  1.1288
   10CHTO  C110 3840   3.687   7.009   0.514 -0.5899 -0.4745 -0.3605
   10CHTO  H214 3841   3.741   7.089   0.566 -1.7068 -0.3052  0.5743
   10CHTO   O78 3842   3.564   7.069   0.476  0.1723  0.0885 -0.2188
   10CHTO  H200 3843   3.517   7.003   0.429 -3.0967 -1.2168  4.4940
   10CHTO  C111 3844   3.753   6.944   0.386 -0.1731  0.3092  0.4744
   10CHTO  H215 3845   3.691   6.861   0.351 -3.8567  2.5670  1.3166
   10CHTO   N19 3846   3.780   7.034   0.275  0.4610 -0.8242  0.7131
   10CHTO  H207 3847   3.687   7.058   0.224  1.0484 -0.1444 -0.0526
   10CHTO  H208 3848   3.830   6.969   0.204  2.8780  1.7723 -0.0085
   10CHTO   O74 3849   3.608   6.954   0.759  0.1019  0.2830 -0.1114
   10CHTO  C115 3850   3.436   7.000   0.761 -0.3941 -0.3545 -0.1755
   10CHTO  H219 3851   3.411   7.062   0.675  1.0316  0.4233 -0.0429
   10CHTO   O76 3852   3.338   6.867   0.745  0.2103 -0.2485 -0.1199
   10CHTO  C122 3853   3.353   6.780   0.858 -0.8105 -0.1048  0.3368
   10CHTO  H226 3854   3.448   6.727   0.852 -1.7909 -2.0349  1.5893
   10CHTO  C126 3855   3.234   6.676   0.847 -0.0913 -0.1284  0.7043
   10CHTO   O85 3856   3.233   6.586   0.954 -0.0367 -0.3102  0.6081
   10CHTO  H206 3857   3.162   6.605   1.011 -0.0106  1.7761 -0.0292
   10CHTO  C121 3858   3.347   6.859   1.004 -0.2396  0.1428  0.4685
   10CHTO  H225 3859   3.258   6.823   1.061 -0.7356  1.5782  0.6196
   10CHTO   O81 3860   3.465   6.829   1.083  0.3940  0.4917 -0.1228
   10CHTO  H202 3861   3.474   6.739   1.107 -0.8402  0.8124  1.6230
   10CHTO  C119 3862   3.338   7.010   0.994  0.4141  0.3909 -0.2184
   10CHTO  H223 3863   3.238   7.024   0.952 -0.2134  2.1403  1.7832
   10CHTO  C117 3864   3.433   7.078   0.897 -0.1557 -1.0661  0.7668
   10CHTO  H221 3865   3.534   7.083   0.938  0.3008  3.4649 -0.6448
   10CHTO   N20 3866   3.402   7.219   0.877 -0.3645  0.6833 -0.3503
   10CHTO  H209 3867   3.301   7.219   0.841 -1.3039 -1.0508  2.1050
   10CHTO  H210 3868   3.394   7.257   0.978  0.1054 -1.1143  0.4035
   10CHTO   O80 3869   3.319   7.076   1.137  0.2243 -0.6308  0.0939
   10CHTO  C103 3870   3.163   7.105   1.202 -0.1107  0.0239 -0.0913
   10CHTO  H190 3871   3.096   7.138   1.122  2.0930  1.2881 -1.4642
   10CHTO  C101 3872   3.082   6.992   1.282 -0.1794  0.1526 -0.3113
   10CHTO  H188 3873   3.147   6.941   1.353  0.5334  0.1842 -0.9372
   10CHTO   O68 3874   3.033   6.874   1.177  0.7032  0.2893  0.3710
   10CHTO  H168 3875   2.947   6.837   1.181  1.0196 -0.3760  1.3172
   10CHTO   C99 3876   2.966   7.042   1.368  0.4272 -0.0649  0.2594
   10CHTO  H186 3877   2.883   7.072   1.301 -0.3811  2.0621  2.1473
   10CHTO   N17 3878   2.902   6.928   1.456 -0.1016  0.7689 -0.1286
   10CHTO  H174 3879   2.802   6.948   1.492 -0.0875  0.6904 -0.0468
   10CHTO  H175 3880   2.965   6.900   1.539 -0.7057  0.2896  0.1682
   10CHTO   C97 3881   3.002   7.173   1.451 -0.4652 -0.3086  0.0121
   10CHTO  H184 3882   3.071   7.139   1.529 -0.6579  0.4126  0.4973
   10CHTO   O64 3883   3.060   7.274   1.364  0.3526 -0.0513 -0.0916
   10CHTO  C104 3884   3.184   7.229   1.303 -0.6371 -0.8332  0.0392
   10CHTO  H191 3885   3.263   7.200   1.372  0.1524  0.5386 -0.2679
   10CHTO  C108 3886   3.242   7.342   1.214 -0.5496  0.5555 -0.2863
   10CHTO   O71 3887   3.282   7.457   1.295  0.1528  0.5250 -0.0662
   10CHTO  H171 3888   3.323   7.432   1.376 -0.1750 -1.6940 -0.5453
   10CHTO   O62 3889   2.890   7.233   1.513  0.1901 -0.3033  0.0000
   10CHTO   C91 3890   2.862   7.220   1.653 -0.4043  0.2822 -0.5796
   10CHTO  H178 3891   2.874   7.118   1.692 -0.1057  0.4154 -0.3234
   10CHTO   C92 3892   2.706   7.253   1.683  1.4037 -0.0148  0.7009
   10CHTO  H179 3893   2.683   7.351   1.639  3.5140  0.7038  1.1525
   10CHTO   O66 3894   2.635   7.146   1.612  0.5064  0.4117 -0.4338
   10CHTO  H166 3895   2.645   7.060   1.648  0.4876  0.1901 -0.9573
   10CHTO   C93 3896   2.663   7.254   1.838 -0.6390  0.4610 -1.2792
   10CHTO  H180 3897   2.657   7.147   1.863 -2.4933  0.6473 -0.8502
   10CHTO   N16 3898   2.535   7.319   1.866 -0.1457  0.1715  0.2868
   10CHTO  H172 3899   2.459   7.278   1.801 -0.2395 -1.7299  1.5489
   10CHTO  H173 3900   2.508   7.312   1.970  0.8398 -0.5064  0.5005
   10CHTO   C94 3901   2.773   7.329   1.929  0.8231  0.1960 -0.2303
   10CHTO  H181 3902   2.771   7.436   1.910  0.4273  0.5646  1.8007
   10CHTO   O61 3903   2.905   7.287   1.893  0.3970  0.8523 -0.3849
   10CHTO   C95 3904   2.938   7.311   1.758  0.2013 -0.7078  0.7411
   10CHTO  H182 3905   2.916   7.413   1.729 -0.1968 -0.5676  1.5337
   10CHTO  C106 3906   3.091   7.300   1.743 -0.3263  1.2247  0.5225
   10CHTO   O69 3907   3.161   7.385   1.835  0.1029  0.6364  0.3686
   10CHTO  H169 3908   3.252   7.375   1.816 -0.5787 -1.1300 -2.1617
   10CHTO   O63 3909   2.744   7.308   2.088  0.5442  0.1106  0.4483
   10CHTO   C96 3910   2.831   7.198   2.181  0.5677 -0.3094  0.2469
   10CHTO  H183 3911   2.933   7.207   2.143  0.8118 -2.6234  0.3021
   10CHTO   C98 3912   2.790   7.048   2.168 -0.3085 -0.5763 -0.4786
   10CHTO  H185 3913   2.681   7.037   2.166 -0.6633  2.6880 -1.8006
   10CHTO   O67 3914   2.840   7.013   2.039  0.0913 -0.0634  0.0984
   10CHTO  H167 3915   2.768   7.015   1.980  0.8315  1.5792 -0.7711
   10CHTO  C102 3916   2.847   6.953   2.285  0.2108 -0.2608  0.8544
   10CHTO  H189 3917   2.950   6.929   2.256  0.9767  3.8399 -0.1241
   10CHTO   N18 3918   2.767   6.824   2.300 -0.2646 -0.4755 -0.0758
   10CHTO  H176 3919   2.660   6.836   2.293 -0.2066  1.8758  2.5309
   10CHTO  H177 3920   2.790   6.779   2.395  0.4281 -0.1083 -0.0677
   10CHTO  C105 3921   2.847   7.026   2.418  0.1476  0.8236 -0.5631
   10CHTO  H192 3922   2.744   7.044   2.450  0.1940  1.7780 -0.9354
   10CHTO   O65 3923   2.910   7.157   2.408  0.0808 -0.6245 -0.6923
   10CHTO  C100 3924   2.839   7.252   2.332  0.4821  0.1420  0.4397
   10CHTO  H187 3925   2.732   7.259   2.356  0.5119  2.6757 -0.0338
   10CHTO  C107 3926   2.897   7.394   2.341 -0.8374  0.4035 -0.1223
   10CHTO   O70 3927   2.895   7.433   2.473  0.9139  0.2436 -0.1195
   10CHTO  H170 3928   2.948   7.508   2.492  3.7286 -1.9423  1.1223
   10CHTO   O57 3929   2.906   6.950   2.519  0.5077 -0.2897  0.2310
   10CHTO   C85 3930   2.863   6.938   2.655 -0.6295  0.0588 -0.3053
   10CHTO  H157 3931   2.755   6.913   2.652 -0.8762  1.0347  0.0461
   10CHTO   C83 3932   2.877   7.080   2.729 -0.5364  0.2214  0.2107
   10CHTO  H155 3933   2.831   7.161   2.671  0.7697  0.8072 -0.0281
   10CHTO   O56 3934   3.014   7.118   2.741 -0.2185 -0.7011 -0.1626
   10CHTO  H135 3935   3.062   7.070   2.805 -0.0024  0.4306  0.5487
   10CHTO   C81 3936   2.798   7.066   2.863 -0.9179  0.3510  0.6036
   10CHTO  H153 3937   2.698   7.028   2.843 -1.2938  1.2714  0.7340
   10CHTO   N14 3938   2.769   7.193   2.936  0.0375  0.2387  0.0878
   10CHTO  H141 3939   2.702   7.249   2.875  0.2576  0.4748  0.0604
   10CHTO  H142 3940   2.863   7.245   2.932 -0.3273  0.7748 -2.2729
   10CHTO   C79 3941   2.871   6.957   2.951  0.5366 -0.0095  0.6418
   10CHTO  H151 3942   2.808   6.943   3.040  1.3720 -1.4864  0.9983
   10CHTO   O52 3943   2.876   6.829   2.876 -0.1571 -0.1237  0.1224
   10CHTO   C86 3944   2.946   6.834   2.742 -0.2391  0.2218  0.0035
   10CHTO  H158 3945   3.053   6.859   2.757 -0.2947 -0.6546  2.0578
   10CHTO   C90 3946   2.938   6.688   2.698  0.1431 -1.0402 -0.4270
   10CHTO   O60 3947   3.001   6.654   2.579 -0.8259  0.0480  0.4071
   10CHTO  H138 3948   2.949   6.592   2.532  1.3791 -0.1806 -1.8711
   10CHTO   O50 3949   2.993   7.013   3.010 -0.2497  0.0875  0.0282
   10CHTO   C73 3950   3.079   6.993   3.130  0.5527  0.1527 -0.2037
   10CHTO  H145 3951   3.058   6.890   3.162 -1.5978  0.3410 -0.9521
   10CHTO   C74 3952   3.047   7.101   3.237 -0.1807 -0.2532 -0.7179
   10CHTO  H146 3953   2.943   7.096   3.273 -0.0445 -0.8739 -0.4028
   10CHTO   O54 3954   3.134   7.071   3.352 -0.0653 -0.1224  0.4195
   10CHTO  H133 3955   3.223   7.065   3.324  0.0404  0.8490  0.5254
   10CHTO   C75 3956   3.079   7.245   3.179 -0.1531 -0.7934  0.8592
   10CHTO  H147 3957   3.013   7.262   3.093  2.0753  1.9837 -0.3764
   10CHTO   N13 3958   3.050   7.355   3.277 -0.0169 -0.3957  0.4207
   10CHTO  H139 3959   3.121   7.353   3.359 -1.1541  0.6499  1.4454
   10CHTO  H140 3960   2.953   7.354   3.323 -0.5453  0.1585 -0.6766
   10CHTO   C76 3961   3.234   7.246   3.131  0.4381 -0.3251 -0.6913
   10CHTO  H148 3962   3.299   7.225   3.216 -1.2836 -0.7432  0.5437
   10CHTO   O49 3963   3.259   7.140   3.043 -0.5608  0.1065  0.2498
   10CHTO   C77 3964   3.231   7.004   3.079  0.4905 -0.0584 -0.6649
   10CHTO  H149 3965   3.295   6.964   3.158  0.8756  1.2396 -0.3101
   10CHTO   C88 3966   3.261   6.918   2.953  0.1479 -0.7145  0.2355
   10CHTO   O58 3967   3.423   6.899   2.938  0.1355  0.5037  0.2747
   10CHTO  H136 3968   3.434   6.859   2.853  1.7456 -1.2531  1.2645
   10CHTO   O51 3969   3.269   7.377   3.040 -0.8145  0.0804 -0.4820
   10CHTO   C78 3970   3.436   7.401   3.025 -0.0171  0.0723 -0.2387
   10CHTO  H150 3971   3.482   7.300   3.025 -2.0835 -0.9097 -1.4714
   10CHTO   C80 3972   3.498   7.494   3.134  0.3041  0.3785  0.2906
   10CHTO  H152 3973   3.433   7.584   3.142 -2.2153 -1.1997 -1.7883
   10CHTO   O55 3974   3.474   7.433   3.259 -0.9083  0.3288  0.0119
   10CHTO  H134 3975   3.521   7.482   3.325  0.4887 -0.6817 -0.2101
   10CHTO   C84 3976   3.654   7.519   3.104 -0.1038  0.1282 -0.6765
   10CHTO  H156 3977   3.707   7.424   3.112  1.9522  1.2588 -0.4910
   10CHTO   N15 3978   3.714   7.621   3.200  0.1691 -0.6256  0.3264
   10CHTO  H143 3979   3.817   7.637   3.179  0.2112  1.5807  2.0319
   10CHTO  H144 3980   3.659   7.712   3.187 -1.8259 -2.0587 -1.7040
   10CHTO   C87 3981   3.673   7.566   2.963  0.2995 -0.2275  0.2795
   10CHTO  H159 3982   3.622   7.663   2.956  0.5438 -0.1089  0.1294
   10CHTO   O53 3983   3.621   7.476   2.874 -0.1447 -0.4360 -0.1932
   10CHTO   C82 3984   3.478   7.460   2.883  0.5877  0.5824 -0.3491
   10CHTO  H154 3985   3.422   7.551   2.861 -0.3576  0.2896  0.7832
   10CHTO   C89 3986   3.430   7.356   2.782  0.4541 -0.4000  0.2268
   10CHTO   O59 3987   3.423   7.407   2.650 -0.3203  0.3980  0.0220
   10CHTO  H137 3988   3.477   7.483   2.644  1.5073 -0.7920  0.6959
   10CHTO   O45 3989   3.851   7.595   2.932  0.1494 -0.2913  0.4422
   10CHTO   C67 3990   3.886   7.656   2.806  0.1585 -0.4838  0.3096
   10CHTO  H124 3991   3.828   7.612   2.725 -2.1854  2.2082  0.4452
   10CHTO   C65 3992   3.862   7.813   2.805 -0.4871  0.6674  0.6876
   10CHTO  H122 3993   3.761   7.838   2.835 -1.0242 -0.4588 -0.1478
   10CHTO   O44 3994   3.872   7.870   2.666  0.0182  0.4841 -0.3162
   10CHTO  H102 3995   3.819   7.822   2.605  0.8552 -0.8038 -0.0377
   10CHTO   C63 3996   3.960   7.878   2.915 -0.3239  0.8559 -0.1862
   10CHTO  H120 3997   3.932   7.833   3.011 -1.8063 -2.0547 -1.8807
   10CHTO   N11 3998   3.939   8.026   2.938 -0.2260  0.0928 -0.7454
   10CHTO  H108 3999   3.837   8.056   2.939  0.5328  3.1472 -3.4396
   10CHTO  H109 4000   3.991   8.065   3.023 -0.2761 -3.6650  1.1285
   10CHTO   C61 4001   4.113   7.840   2.885  1.3714 -0.4519  0.0014
   10CHTO  H118 4002   4.173   7.858   2.975  1.3066 -0.0072 -0.0442
   10CHTO   O40 4003   4.138   7.706   2.846  0.2471 -0.4676 -0.2430
   10CHTO   C68 4004   4.043   7.625   2.775  0.2052  0.2595  1.0843
   10CHTO  H125 4005   4.063   7.520   2.805 -1.8571 -1.0498 -1.9409
   10CHTO   C72 4006   4.068   7.635   2.621  0.0083 -0.2913  0.4069
   10CHTO   O48 4007   4.008   7.522   2.553  0.2009  0.4837  0.2043
   10CHTO  H105 4008   3.984   7.446   2.602 -1.1532 -1.1029 -2.7308
   10CHTO   O38 4009   4.162   7.901   2.766  0.0526  0.2136  0.1589
   10CHTO   C55 4010   4.282   7.988   2.761  0.3142 -0.0080 -0.1610
   10CHTO  H112 4011   4.360   7.927   2.711 -0.5313 -0.6355 -0.7240
   10CHTO   C56 4012   4.328   8.037   2.901 -0.7725  0.8557 -0.4897
   10CHTO  H113 4013   4.237   8.060   2.959  1.2068  2.0023  2.2453
   10CHTO   O42 4014   4.389   7.930   2.977 -0.1303 -0.3543  0.3428
   10CHTO  H100 4015   4.328   7.870   3.015  1.1692 -2.0726 -0.2061
   10CHTO   C57 4016   4.417   8.164   2.893 -0.2974 -0.1132  0.2044
   10CHTO  H114 4017   4.517   8.133   2.861  0.7697  1.4466  1.9184
   10CHTO   N10 4018   4.439   8.234   3.028  0.5315 -0.7774  0.1872
   10CHTO  H106 4019   4.477   8.333   3.007 -0.6351 -0.4409 -0.4040
   10CHTO  H107 4020   4.342   8.237   3.075  0.0916  0.9643 -0.7946
   10CHTO   C58 4021   4.359   8.270   2.797 -0.3936 -0.4129 -0.3500
   10CHTO  H115 4022   4.262   8.304   2.838 -1.7225 -2.1958 -1.9601
   10CHTO   O37 4023   4.344   8.205   2.668 -0.5927  0.0584 -0.0984
   10CHTO   C59 4024   4.246   8.109   2.661 -0.2349 -0.4524  0.7805
   10CHTO  H116 4025   4.144   8.146   2.666 -0.8862 -2.1399  0.4369
   10CHTO   C70 4026   4.235   8.052   2.520 -0.2112  0.0613  0.4129
   10CHTO   O46 4027   4.200   8.160   2.428  0.6864 -0.0982  0.0666
   10CHTO  H103 4028   4.132   8.134   2.370  0.4370  1.1674 -0.2175
   10CHTO   O39 4029   4.458   8.398   2.758  0.0355 -0.5042 -0.0743
   10CHTO   C60 4030   4.391   8.527   2.747  0.5266 -0.0950  0.2101
   10CHTO  H117 4031   4.287   8.529   2.779  0.6085  1.0937  0.4483
   10CHTO   C62 4032   4.472   8.619   2.847 -0.1527 -0.5406  0.1565
   10CHTO  H119 4033   4.447   8.576   2.946 -1.7134  0.3184  0.1587
   10CHTO   O43 4034   4.609   8.623   2.820  0.4356  0.6941 -0.0932
   10CHTO  H101 4035   4.628   8.667   2.739 -2.8295  1.8652 -0.2998
   10CHTO   C66 4036   4.401   8.763   2.847 -0.2330  0.8334  0.2977
   10CHTO  H123 4037   4.300   8.745   2.882  0.7333 -2.6963  1.5470
   10CHTO   N12 4038   4.456   8.867   2.935 -0.7945  0.0734 -0.8495
   10CHTO  H110 4039   4.385   8.948   2.929  0.8561  1.5701 -0.5366
   10CHTO  H111 4040   4.557   8.891   2.906 -0.3894  0.4444  0.7823
   10CHTO   C69 4041   4.393   8.829   2.701  0.3104 -0.5853 -0.5678
   10CHTO  H126 4042   4.491   8.856   2.655  0.5586 -0.7512 -0.1344
   10CHTO   O41 4043   4.319   8.741   2.594  0.5219  0.1639  0.0874
   10CHTO   C64 4044   4.393   8.593   2.605  0.4907  0.4778 -0.3639
   10CHTO  H121 4045   4.494   8.574   2.563  0.2793 -2.5010  0.3668
   10CHTO   C71 4046   4.301   8.505   2.518 -0.7055 -0.2295  1.2300
   10CHTO   O47 4047   4.320   8.523   2.378 -0.0351  0.1724  0.0943
   10CHTO  H104 4048   4.325   8.437   2.341 -0.1401 -0.2656  1.0844
   10CHTO   O34 4049   4.309   8.971   2.705  0.4709 -0.4384  0.1609
   10CHTO   C49 4050   4.178   9.046   2.646  0.0302 -0.3246 -0.7929
   10CHTO   H91 4051   4.182   9.142   2.698 -1.9211 -0.6302 -0.0511
   10CHTO   C47 4052   4.057   8.968   2.697  0.1640 -0.0200  0.7220
   10CHTO   H89 4053   4.081   8.974   2.805  0.4363  0.3135  0.6457
   10CHTO   O33 4054   4.064   8.832   2.649 -0.6405  0.5344 -0.1318
   10CHTO   H70 4055   4.050   8.766   2.715  0.9210  1.0705  0.7736
   10CHTO   C45 4056   3.921   9.032   2.646 -0.4624  0.9911 -0.0648
   10CHTO   H87 4057   3.882   8.953   2.580 -1.2502 -0.2796  1.8685
   10CHTO    N8 4058   3.828   9.039   2.759  0.2884  0.3528  0.4201
   10CHTO   H75 4059   3.855   8.976   2.842 -2.9569 -1.6280  0.0661
   10CHTO   H76 4060   3.829   9.142   2.794  0.7229  0.0206  1.3978
   10CHTO   C43 4061   3.946   9.162   2.555 -0.5416 -0.5178 -0.3481
   10CHTO   H85 4062   3.847   9.170   2.509 -0.6814 -0.1712  0.0088
   10CHTO   O29 4063   4.046   9.139   2.456  0.6751  0.3227  0.2054
   10CHTO   C50 4064   4.159   9.063   2.493  0.1783 -0.3370 -0.0863
   10CHTO   H92 4065   4.148   8.965   2.444 -0.2081  0.2934 -1.2917
   10CHTO   C54 4066   4.287   9.116   2.422 -0.5977 -0.7772  0.4433
   10CHTO   O36 4067   4.317   9.253   2.450 -0.4037 -0.2790  0.6763
   10CHTO   H72 4068   4.389   9.290   2.404 -1.3812  0.7911 -0.0337
   10CHTO   O27 4069   3.982   9.285   2.624 -0.2523  0.3847 -0.2554
   10CHTO   C37 4070   4.016   9.417   2.574 -0.7226  0.0569  0.6891
   10CHTO   H79 4071   4.094   9.399   2.498  0.7002  2.1183  1.6199
   10CHTO   C38 4072   3.903   9.484   2.490  1.0022 -0.0001  0.0163
   10CHTO   H80 4073   3.816   9.499   2.555 -0.9001 -0.6741 -2.2908
   10CHTO   O31 4074   3.863   9.389   2.383 -0.2582  0.3986 -0.2929
   10CHTO   H68 4075   3.770   9.384   2.370 -0.2483 -2.6644  0.3656
   10CHTO   C39 4076   3.947   9.615   2.423 -0.3793  0.5682  1.1247
   10CHTO   H81 4077   4.017   9.586   2.345  0.1686  1.5792  1.2242
   10CHTO    N7 4078   3.839   9.696   2.346 -0.1385  0.1280 -0.2202
   10CHTO   H73 4079   3.875   9.795   2.322 -1.7401  0.2708 -2.1410
   10CHTO   H74 4080   3.752   9.710   2.409  1.8760  1.1182  2.4226
   10CHTO   C40 4081   4.023   9.714   2.514  0.5225  0.3920  0.6616
   10CHTO   H82 4082   3.958   9.777   2.574 -0.1619 -0.2179  0.5631
   10CHTO   O26 4083   4.118   9.639   2.599  0.1864 -0.2912  0.8029
   10CHTO   C41 4084   4.072   9.522   2.675  0.0295 -0.4768  0.4881
   10CHTO   H83 4085   3.988   9.560   2.736 -1.6966  0.9655 -2.7027
   10CHTO   C52 4086   4.188   9.463   2.770  0.6565 -0.3178  0.1863
   10CHTO   O35 4087   4.244   9.547   2.865 -0.2472  0.0153  0.6618
   10CHTO   H71 4088   4.322   9.508   2.899  0.5554 -0.4668 -1.6288
   10CHTO   O28 4089   4.113   9.803   2.442 -0.3259 -0.1408 -0.1771
   10CHTO   C42 4090   4.126   9.939   2.481 -0.6099  0.2490  0.0239
   10CHTO   H84 4091   4.086   9.932   2.583  0.6779 -2.1082  0.4208
   10CHTO   C44 4092   4.040  10.049   2.403 -0.4271 -0.3786 -0.8509
   10CHTO   H86 4093   4.062  10.039   2.297  1.9657  2.3935 -0.6630
   10CHTO   O32 4094   3.900  10.020   2.416 -0.1922  0.3879  0.2851
   10CHTO   H69 4095   3.881   9.933   2.388  0.4795  0.2392  0.3002
   10CHTO   C48 4096   4.077  10.196   2.450 -0.2814 -0.5293  0.2413
   10CHTO   H90 4097   4.035  10.202   2.551 -1.8134 -1.0889 -0.3497
   10CHTO    N9 4098   4.005  10.303   2.383  0.3834  0.2035  0.0023
   10CHTO   H77 4099   3.998  10.387   2.451 -0.0945 -0.3201  0.6069
   10CHTO   H78 4100   4.031  10.323   2.280  0.2163  2.4633  0.3751
   10CHTO   C51 4101   4.228  10.210   2.440  0.1875 -0.2162 -0.0101
   10CHTO   H93 4102   4.246  10.181   2.336 -1.7754  0.0797 -0.4691
   10CHTO   O30 4103   4.289  10.126   2.533 -0.0966 -0.8052  0.5296
   10CHTO   C46 4104   4.280   9.980   2.494  0.7113  0.4391 -0.0596
   10CHTO   H88 4105   4.335   9.957   2.403 -1.8253  0.7191 -1.7242
   10CHTO   C53 4106   4.366   9.907   2.607  0.2696  0.2657  0.4537
   10CHTO   O72 4107   4.305   9.916   2.736  0.3214 -0.0594  0.1062
   10CHTO  H199 4108   4.333   9.845   2.790  1.4540  1.7663  1.9965
   10CHTO   O22 4109   4.281  10.332   2.477 -0.1247  0.1437 -0.0193
   10CHTO   C31 4110   4.416  10.370   2.411  0.9075  0.0746  0.2207
   10CHTO   H59 4111   4.439  10.467   2.461  0.9682 -0.8887  2.0938
   10CHTO   C29 4112   4.538  10.274   2.429 -0.9284 -0.1697 -0.3812
   10CHTO   H57 4113   4.516  10.179   2.378  2.3923  0.2620 -2.7760
   10CHTO   O21 4114   4.558  10.253   2.570 -0.1754 -0.2243  0.0542
   10CHTO   H37 4115   4.589  10.168   2.597 -1.5157 -0.2093  1.6612
   10CHTO   C27 4116   4.666  10.335   2.362  0.0552 -0.0775  0.4292
   10CHTO   H55 4117   4.686  10.432   2.410 -1.2457  0.6473 -0.4595
   10CHTO    N5 4118   4.786  10.249   2.369  0.1327  0.5897 -0.1454
   10CHTO   H43 4119   4.876  10.301   2.338 -0.9092  3.0699  0.8363
   10CHTO   H44 4120   4.774  10.156   2.315  0.1388  0.4108  0.1638
   10CHTO   C25 4121   4.623  10.354   2.213  0.2152  0.4672  0.0321
   10CHTO   H53 4122   4.594  10.255   2.173 -0.3037  1.1939 -1.4150
   10CHTO   O17 4123   4.509  10.446   2.201  0.3077  0.3697 -0.3036
   10CHTO   C32 4124   4.391  10.405   2.262  0.0167  0.2611 -0.2655
   10CHTO   H60 4125   4.356  10.320   2.204 -0.4950  1.3977 -1.6290
   10CHTO   C36 4126   4.281  10.518   2.274  0.2038 -0.5479 -0.2288
   10CHTO   O25 4127   4.264  10.599   2.162  0.3961  0.3334 -0.2292
   10CHTO   H40 4128   4.343  10.640   2.132  0.3814 -0.0476 -0.8063
   10CHTO   O15 4129   4.726  10.408   2.127  0.4423  0.1249  0.1302
   10CHTO   C19 4130   4.749  10.454   1.983  0.4133 -0.1745 -0.1241
   10CHTO   H47 4131   4.691  10.381   1.924  0.4678 -0.1874 -0.1615
   10CHTO   C20 4132   4.708  10.606   1.957  1.0513 -1.0808  0.2517
   10CHTO   H48 4133   4.742  10.673   2.037 -1.1690 -0.5446  0.7785
   10CHTO   O19 4134   4.562  10.611   1.957  0.0259 -0.4546  0.0549
   10CHTO   H35 4135   4.529  10.578   1.875  1.8440 -2.4817  0.1134
   10CHTO   C21 4136   4.776  10.660   1.821  0.1583  0.2295  0.5854
   10CHTO   H49 4137   4.736  10.611   1.732  0.5357  0.3843  0.3268
   10CHTO    N4 4138   4.747  10.803   1.790  0.6618  0.1815 -0.3426
   10CHTO   H41 4139   4.678  10.848   1.860  0.8393  0.9660 -0.6692
   10CHTO   H42 4140   4.702  10.806   1.692  1.5746  0.4837 -0.7528
   10CHTO   C22 4141   4.924  10.625   1.828 -0.0199 -0.6500  0.1493
   10CHTO   H50 4142   4.955  10.667   1.924 -1.6121  0.5885  0.1348
   10CHTO   O14 4143   4.934  10.481   1.827  0.1229 -0.1408  0.0523
   10CHTO   C23 4144   4.893  10.422   1.953 -0.0039  1.1965 -0.0244
   10CHTO   H51 4145   4.961  10.472   2.023  1.4723  1.9767 -1.9794
   10CHTO   C34 4146   4.914  10.268   1.962 -0.1151  0.1231  0.3045
   10CHTO   O23 4147   4.860  10.197   1.853 -0.2273  0.1273  0.0510
   10CHTO   H38 4148   4.912  10.194   1.774 -0.0725  0.6607  0.1281
   10CHTO   O16 4149   4.998  10.667   1.714 -0.1064 -0.4389 -0.0846
   10CHTO   C24 4150   5.159  10.679   1.749 -0.0141  0.2541 -0.3616
   10CHTO   H52 4151   5.188  10.639   1.846  1.3496  0.8726 -0.5082
   10CHTO   C26 4152   5.210  10.827   1.731  0.3605  0.4393  0.2477
   10CHTO   H54 4153   5.153  10.866   1.643 -2.0128 -2.5481  0.3942
   10CHTO   O20 4154   5.186  10.906   1.848  0.4487  0.2235  0.1231
   10CHTO   H36 4155   5.238  10.880   1.921  0.9997 -1.6313 -0.8939
   10CHTO   C30 4156   5.365  10.841   1.704  1.0419  0.4516  0.4502
   10CHTO   H58 4157   5.409  10.827   1.804 -1.5840 -0.4057  1.5392
   10CHTO    N6 4158   5.388  10.978   1.658 -0.4915 -0.0509  0.8922
   10CHTO   H45 4159   5.370  11.052   1.735 -1.0305  1.4316 -0.6322
   10CHTO   H46 4160   5.484  10.999   1.614 -0.2417  0.1164  1.5164
   10CHTO   C33 4161   5.417  10.733   1.611  0.1453  0.4867 -0.1172
   10CHTO   H61 4162   5.384  10.738   1.506 -0.1843  0.9337  0.0016
   10CHTO   O18 4163   5.366  10.604   1.658 -0.2026 -0.1813 -0.1493
   10CHTO   C28 4164   5.226  10.591   1.646 -0.1489  0.1130  0.1973
   10CHTO   H56 4165   5.193  10.630   1.550 -1.5077 -1.1667  0.1291
   10CHTO   C35 4166   5.190  10.445   1.647  0.1164 -0.7381  0.1743
   10CHTO   O24 4167   5.240  10.358   1.547  0.5290 -0.0401 -0.3225
   10CHTO   H39 4168   5.326  10.328   1.569  0.7955  1.6399  1.1180
   10CHTO    O9 4169   5.561  10.732   1.600 -0.3287 -0.5798 -0.0246
   10CHTO   C13 4170   5.622  10.670   1.472  0.2945  0.3559  0.4930
   10CHTO   H26 4171   5.553  10.694   1.388 -2.1747 -1.0430  2.0866
   10CHTO   C11 4172   5.641  10.514   1.493 -0.0313  0.3182  0.3295
   10CHTO   H24 4173   5.540  10.472   1.489  1.2057 -2.7497  0.4047
   10CHTO    O8 4174   5.705  10.487   1.620 -0.4098  0.0388  0.1320
   10CHTO    H3 4175   5.674  10.546   1.686 -1.1955  1.4042 -1.4313
   10CHTO    C9 4176   5.722  10.460   1.378 -0.3124  0.3283 -0.1345
   10CHTO   H22 4177   5.665  10.493   1.290  0.1834  1.2086 -0.1258
   10CHTO    N2 4178   5.730  10.312   1.363 -0.3314  0.5425  0.6830
   10CHTO   H10 4179   5.707  10.285   1.261  1.2269  1.3770  0.0979
   10CHTO   H11 4180   5.672  10.258   1.437  1.3213 -1.7416  0.3224
   10CHTO    C7 4181   5.861  10.531   1.377  0.6531  0.4290 -0.1812
   10CHTO   H20 4182   5.917  10.488   1.291 -0.9732  0.1232 -1.0893
   10CHTO    O4 4183   5.846  10.674   1.357 -0.1086  0.1449 -0.0236
   10CHTO   C14 4184   5.754  10.751   1.438  0.1254  0.0084 -0.2678
   10CHTO   H27 4185   5.721  10.837   1.376 -0.0823 -0.6075 -1.0086
   10CHTO   C18 4186   5.818  10.812   1.561  0.5515 -0.1433  0.4141
   10CHTO   O13 4187   5.930  10.900   1.528  0.2858  0.3297  0.2720
   10CHTO    H7 4188   5.974  10.869   1.451 -0.7317  1.4551 -0.7904
   10CHTO    O2 4189   5.940  10.511   1.532 -0.4178  0.4924 -0.2037
   10CHTO    C1 4190   6.082  10.484   1.518  0.2402 -0.8596  0.4888
   10CHTO   H14 4191   6.121  10.502   1.621  0.0265 -3.7320  1.0986
   10CHTO    C2 4192   6.169  10.580   1.415 -0.0882  0.0548 -0.2339
   10CHTO   H15 4193   6.111  10.605   1.324 -1.0110 -0.1123  0.2965
   10CHTO    O6 4194   6.196  10.694   1.500  0.7202  0.7018  0.1604
   10CHTO    H1 4195   6.115  10.741   1.510 -0.9291 -1.9535 -0.1042
   10CHTO    C3 4196   6.309  10.508   1.378 -0.4675 -0.3013 -0.5229
   10CHTO   H16 4197   6.363  10.516   1.473  1.7904  1.0166 -1.8716
   10CHTO    N1 4198   6.389  10.594   1.272 -0.2643  0.0932 -0.3392
   10CHTO    H8 4199   6.473  10.540   1.232  0.2804  0.7689 -0.1341
   10CHTO    H9 4200   6.438  10.669   1.333 -1.2543  0.8201 -0.4277
   10CHTO    C4 4201   6.301  10.356   1.342  0.1326  0.4167  0.5668
   10CHTO   H17 4202   6.247  10.346   1.248  0.7092 -0.6250  0.3373
   10CHTO    O1 4203   6.230  10.291   1.450  0.2961  0.2255 -0.2151
   10CHTO    C5 4204   6.094  10.334   1.480  0.3370  0.1526 -0.2020
   10CHTO   H18 4205   6.034  10.298   1.397  0.5615 -3.7487  1.2064
   10CHTO   C16 4206   6.041  10.249   1.603 -0.0133 -0.2264  0.5384
   10CHTO   O11 4207   6.106  10.281   1.729 -0.5285 -0.2974 -0.0172
   10CHTO    H5 4208   6.035  10.324   1.773 -1.4532 -0.9205 -0.8758
   10CHTO    O3 4209   6.432  10.298   1.335 -0.1666 -0.0642 -0.5128
   10CHTO    C6 4210   6.466  10.155   1.341 -0.0542 -0.0592  1.0428
   10CHTO   H19 4211   6.384  10.094   1.378  0.6460 -0.8222  1.3434
   10CHTO    C8 4212   6.506  10.100   1.202 -0.2944 -0.0713 -0.1136
   10CHTO   H21 4213   6.589  10.159   1.162 -0.8884 -0.6454 -2.2534
   10CHTO    O7 4214   6.386  10.123   1.127 -0.0316  0.2268 -0.0841
   10CHTO    H2 4215   6.393  10.090   1.040 -0.5372 -0.2630  0.0609
   10CHTO   C12 4216   6.557   9.954   1.200 -0.2610  0.3488 -0.7772
   10CHTO   H25 4217   6.474   9.885   1.227 -0.2432  0.6797  0.1403
   10CHTO    N3 4218   6.598   9.907   1.067  0.3417  0.2772 -0.0563
   10CHTO   H12 4219   6.516   9.867   1.008  1.0114  0.4649 -1.1249
   10CHTO   H13 4220   6.634   9.991   1.011  2.3787 -0.2027  0.5108
   10CHTO   C15 4221   6.664   9.934   1.315  0.2769  0.0933  0.3889
   10CHTO   H28 4222   6.758   9.986   1.296 -1.4077  3.9073  1.8037
   10CHTO   O10 4223   6.681   9.778   1.360  0.4871  1.0748  0.3463
   10CHTO    H4 4224   6.655   9.718   1.292  0.3589  1.2861  0.2096
   10CHTO    O5 4225   6.620   9.995   1.435 -0.0687  0.3691 -0.2489
   10CHTO   C10 4226   6.584  10.135   1.432  0.3399 -0.3599 -0.1817
   10CHTO   H23 4227   6.667  10.187   1.383 -0.5814  2.1351  0.7931
   10CHTO   C17 4228   6.564  10.181   1.577 -0.4205 -0.1032  0.8141
   10CHTO   O12 4229   6.511  10.316   1.592  0.3878 -0.0275 -0.2896
   10CHTO    H6 4230   6.517  10.348   1.680 -0.1319 -0.4207 -0.1044
   11CHTO  H203 4231   5.956   4.942   0.719  2.2353 -2.4461 -0.0229
   11CHTO   O82 4232   5.939   4.920   0.809  0.5160 -0.8566  0.0648
   11CHTO  C123 4233   6.046   4.966   0.889  0.1297  0.1981 -0.4612
   11CHTO  H227 4234   6.136   4.921   0.845  0.0417  0.1604 -0.6032
   11CHTO   O77 4235   6.054   5.111   0.871  0.3782 -0.2199  0.3289
   11CHTO  C118 4236   6.158   5.180   0.944  0.1709 -0.1882 -0.3679
   11CHTO  H222 4237   6.251   5.128   0.917  0.9351  1.4329 -0.9775
   11CHTO  C125 4238   6.155   5.327   0.900 -0.2739  0.6846  0.3829
   11CHTO   O84 4239   6.128   5.346   0.763 -0.3216 -0.2016 -0.0424
   11CHTO  H205 4240   6.170   5.290   0.701 -0.3051 -1.6817  1.2801
   11CHTO  C114 4241   6.134   5.157   1.096 -0.5039 -0.3031  0.1729
   11CHTO  H218 4242   6.029   5.178   1.117 -1.0122 -1.9866 -0.5784
   11CHTO  C116 4243   6.138   5.006   1.122 -0.6387  0.2671 -0.2730
   11CHTO  H220 4244   6.241   4.968   1.104  0.1737  0.3725  3.6944
   11CHTO   O79 4245   6.105   4.994   1.259 -0.2383 -0.0829 -0.0454
   11CHTO  H201 4246   6.088   4.907   1.289 -1.6508 -0.2632 -1.2826
   11CHTO  C120 4247   6.025   4.933   1.040 -0.1115  0.0367 -0.9549
   11CHTO  H224 4248   5.930   4.982   1.073 -0.5044 -0.6765 -1.0187
   11CHTO   N21 4249   6.017   4.784   1.075  0.3640  0.4516 -0.5485
   11CHTO  H211 4250   5.916   4.746   1.076  0.5239  0.0413  0.0660
   11CHTO  H212 4251   6.075   4.757   1.162 -1.8840 -2.4526  0.1399
   11CHTO   O75 4252   6.219   5.237   1.169 -0.2571 -0.1275 -0.2300
   11CHTO  C112 4253   6.146   5.352   1.280 -1.0204 -0.1618  0.7549
   11CHTO  H216 4254   6.160   5.309   1.381 -3.7393  1.5771  1.9417
   11CHTO   O73 4255   6.006   5.373   1.255 -0.0964 -0.0268 -0.1521
   11CHTO  C113 4256   5.944   5.456   1.352  0.0089  0.7572  0.1353
   11CHTO  H217 4257   5.973   5.434   1.457 -1.6779 -0.0227  0.4574
   11CHTO  C124 4258   5.792   5.444   1.342  0.2439  0.1179 -0.0986
   11CHTO   O83 4259   5.747   5.317   1.407 -0.1357 -0.3802  0.2082
   11CHTO  H204 4260   5.759   5.252   1.340 -1.9686  4.2755 -5.1229
   11CHTO  C109 4261   5.992   5.600   1.308 -0.2725  0.0099 -0.4677
   11CHTO  H213 4262   5.974   5.607   1.200 -0.6261  0.8989 -0.3508
   11CHTO  C110 4263   6.149   5.604   1.334 -0.2640  0.3200  0.1609
   11CHTO  H214 4264   6.170   5.596   1.440  1.6299  0.8059 -0.1659
   11CHTO   O78 4265   6.198   5.732   1.281 -0.4273 -0.1827 -0.3993
   11CHTO  H200 4266   6.245   5.788   1.340 -1.2289 -3.1953  3.3128
   11CHTO  C111 4267   6.222   5.486   1.261  0.2119  0.2211  0.5796
   11CHTO  H215 4268   6.225   5.513   1.155 -0.9685  0.7396  0.6594
   11CHTO   N19 4269   6.359   5.482   1.301  0.5449 -0.6956 -0.0200
   11CHTO  H207 4270   6.419   5.565   1.266  0.1156  0.5785  2.1319
   11CHTO  H208 4271   6.410   5.388   1.287 -0.9551 -1.6137  0.6697
   11CHTO   O74 4272   5.924   5.701   1.383  0.4460  0.0691 -0.1768
   11CHTO  C115 4273   5.873   5.816   1.294 -0.3729  0.2167  0.3773
   11CHTO  H219 4274   5.926   5.819   1.198  1.6174  0.8746  1.4790
   11CHTO   O76 4275   5.725   5.796   1.247 -0.9158 -0.0028  0.6952
   11CHTO  C122 4276   5.629   5.788   1.355 -0.4436 -0.2018 -0.8290
   11CHTO  H226 4277   5.645   5.690   1.401 -0.5490  0.3945  0.5117
   11CHTO  C126 4278   5.497   5.777   1.283  0.3798 -0.1801 -0.1708
   11CHTO   O85 4279   5.472   5.644   1.225  0.9486 -0.1580 -0.2637
   11CHTO  H206 4280   5.480   5.652   1.132 -1.4127 -0.8674 -0.5809
   11CHTO  C121 4281   5.642   5.915   1.454 -0.1964 -0.0951  0.0505
   11CHTO  H225 4282   5.541   5.961   1.463  0.1165  0.7827 -0.8692
   11CHTO   O81 4283   5.681   5.880   1.586  0.1763 -0.2202 -0.0052
   11CHTO  H202 4284   5.754   5.932   1.614 -0.6227  0.7875  0.2518
   11CHTO  C119 4285   5.743   6.024   1.391  0.0940 -0.2078  0.0667
   11CHTO  H223 4286   5.700   6.033   1.292  3.2492  0.0404 -1.3502
   11CHTO  C117 4287   5.888   5.962   1.365 -0.1312  0.2311  0.3598
   11CHTO  H221 4288   5.954   5.944   1.450  2.4414 -2.5075 -2.1354
   11CHTO   N20 4289   5.967   6.050   1.269  0.0414 -0.9429 -0.6182
   11CHTO  H209 4290   6.042   6.103   1.326 -1.1569 -1.7628  1.7900
   11CHTO  H210 4291   5.900   6.115   1.215  1.2830  0.9858  0.1085
   11CHTO   O80 4292   5.744   6.177   1.441  0.1699 -0.1741 -0.4778
   11CHTO  C103 4293   5.751   6.214   1.604 -0.5389 -0.6571 -0.1464
   11CHTO  H190 4294   5.766   6.126   1.667 -0.7108  0.8072  1.9917
   11CHTO  C101 4295   5.868   6.315   1.629  0.0865 -0.0438 -0.1017
   11CHTO  H188 4296   5.859   6.393   1.553  1.4319  1.9175  1.6626
   11CHTO   O68 4297   5.990   6.225   1.606 -0.1230 -0.0611 -0.5407
   11CHTO  H168 4298   6.066   6.263   1.566  0.1762  0.0244  0.0974
   11CHTO   C99 4299   5.850   6.377   1.780 -0.2040  0.1974  0.8163
   11CHTO  H186 4300   5.851   6.298   1.858 -2.4998  0.5510  1.2258
   11CHTO   N17 4301   5.961   6.476   1.815  0.3461  0.0305 -0.3684
   11CHTO  H174 4302   5.963   6.563   1.750  2.9365 -1.1402 -1.9194
   11CHTO  H175 4303   6.049   6.419   1.793  0.3882  0.6696 -1.9644
   11CHTO   C97 4304   5.710   6.441   1.795 -0.2515 -0.2935 -0.1652
   11CHTO  H184 4305   5.703   6.522   1.720 -1.0695  0.8721  1.1443
   11CHTO   O64 4306   5.606   6.344   1.776  0.2675  0.0149 -0.0475
   11CHTO  C104 4307   5.609   6.276   1.647 -0.0286  0.0119 -0.5409
   11CHTO  H191 4308   5.577   6.352   1.576 -0.6243 -1.8388 -2.2794
   11CHTO  C108 4309   5.499   6.169   1.638  0.1243  0.3912  0.4245
   11CHTO   O71 4310   5.362   6.215   1.667 -0.4653  0.0281  0.0242
   11CHTO  H171 4311   5.345   6.293   1.617  1.5382  0.3837 -0.1394
   11CHTO   O62 4312   5.681   6.484   1.929 -0.2222  0.1347  0.4852
   11CHTO   C91 4313   5.577   6.582   1.933  0.3579  0.2633  0.4398
   11CHTO  H178 4314   5.506   6.568   1.851 -1.4745  0.8534  1.8831
   11CHTO   C92 4315   5.632   6.729   1.911 -0.3922  0.0976 -0.9159
   11CHTO  H179 4316   5.700   6.734   1.825 -0.4330  2.6972 -0.8175
   11CHTO   O66 4317   5.525   6.811   1.861  0.6601  0.0576  0.1233
   11CHTO  H166 4318   5.443   6.797   1.905  1.7753  0.4783  2.3899
   11CHTO   C93 4319   5.686   6.792   2.040  0.3555  0.0069 -0.2118
   11CHTO  H180 4320   5.706   6.897   2.012  1.2399 -0.5165 -1.5879
   11CHTO   N16 4321   5.816   6.736   2.080 -0.6042 -0.1853 -0.2272
   11CHTO  H172 4322   5.834   6.774   2.179 -2.5556 -2.1508  0.9215
   11CHTO  H173 4323   5.893   6.764   2.010 -0.5673  0.5192  0.0941
   11CHTO   C94 4324   5.578   6.785   2.167 -0.4684 -0.8792 -0.2025
   11CHTO  H181 4325   5.611   6.718   2.246 -0.1011  0.2253  0.5978
   11CHTO   O61 4326   5.457   6.711   2.121 -0.5854 -0.0147 -0.2945
   11CHTO   C95 4327   5.482   6.578   2.066  0.2685 -0.2330  0.0999
   11CHTO  H182 4328   5.529   6.518   2.144  0.9542 -0.5959 -0.5917
   11CHTO  C106 4329   5.343   6.509   2.033  0.4213  0.3960  0.6397
   11CHTO   O69 4330   5.249   6.493   2.140 -0.0160 -0.6544  0.1390
   11CHTO  H169 4331   5.192   6.423   2.114  0.5721 -1.0421 -0.1402
   11CHTO   O63 4332   5.541   6.927   2.228  0.1883 -0.1476 -0.2903
   11CHTO   C96 4333   5.658   6.986   2.337  0.3875  0.1470  0.3231
   11CHTO  H183 4334   5.753   6.955   2.295 -0.0050 -0.0096 -0.4649
   11CHTO   C98 4335   5.645   6.942   2.487 -0.6234  0.4188  0.1415
   11CHTO  H185 4336   5.542   6.958   2.520 -0.5406  1.3082 -0.0275
   11CHTO   O67 4337   5.659   6.798   2.491 -0.6483 -0.2586  0.1572
   11CHTO  H167 4338   5.748   6.785   2.467 -0.3881  0.0645  0.9266
   11CHTO  C102 4339   5.753   7.011   2.578 -0.0409  0.5743 -0.0111
   11CHTO  H189 4340   5.846   6.967   2.540 -1.6180 -0.5908 -2.6732
   11CHTO   N18 4341   5.754   6.981   2.722 -0.4870 -0.2429  0.6332
   11CHTO  H176 4342   5.669   6.918   2.743 -0.7912  0.3784  1.3276
   11CHTO  H177 4343   5.740   7.076   2.772  1.0844  0.3904 -0.1152
   11CHTO  C105 4344   5.773   7.161   2.545 -0.5214  0.0399  0.4826
   11CHTO  H192 4345   5.685   7.214   2.584 -0.9431 -0.9046  0.8285
   11CHTO   O65 4346   5.785   7.184   2.404 -0.1755 -0.5170  0.5709
   11CHTO  C100 4347   5.666   7.148   2.331 -0.4430  0.0045  0.1723
   11CHTO  H187 4348   5.574   7.192   2.373  0.5983  0.1929  2.3101
   11CHTO  C107 4349   5.666   7.201   2.187 -0.2371  0.4323  0.5729
   11CHTO   O70 4350   5.629   7.342   2.179 -0.0356  0.2989 -0.0292
   11CHTO  H170 4351   5.563   7.374   2.238 -1.1131 -0.8146 -0.6131
   11CHTO   O57 4352   5.915   7.209   2.627 -0.4536  0.3220  0.0007
   11CHTO   C85 4353   5.926   7.327   2.701  0.1023 -0.7819 -0.2079
   11CHTO  H157 4354   5.825   7.351   2.741  0.2612  0.4746 -0.5279
   11CHTO   C83 4355   5.947   7.436   2.596 -0.6681  0.2170 -0.6599
   11CHTO  H155 4356   5.863   7.441   2.527 -0.0944 -1.4055 -1.5091
   11CHTO   O56 4357   6.060   7.404   2.510 -0.6977 -0.0107  0.3836
   11CHTO  H135 4358   6.053   7.312   2.490 -1.1623  0.3274 -1.0685
   11CHTO   C81 4359   5.966   7.576   2.672 -0.1144  1.1630 -0.2546
   11CHTO  H153 4360   5.873   7.588   2.727 -0.2355 -1.6959  0.2486
   11CHTO   N14 4361   5.969   7.688   2.588 -0.1204 -0.4847 -0.7649
   11CHTO  H141 4362   6.037   7.655   2.512  1.7144 -1.8535  1.3942
   11CHTO  H142 4363   5.874   7.715   2.546 -0.9785 -1.1883  0.7004
   11CHTO   C79 4364   6.090   7.566   2.778  0.8260  1.4605  0.5077
   11CHTO  H151 4365   6.088   7.655   2.842  0.5536  2.1523 -0.4602
   11CHTO   O52 4366   6.057   7.459   2.874 -0.4732  0.4031 -0.0708
   11CHTO   C86 4367   6.035   7.332   2.807 -0.1333  0.1352  0.1606
   11CHTO  H158 4368   6.133   7.302   2.766 -0.8753 -0.3431 -1.2654
   11CHTO   C90 4369   6.001   7.229   2.919  1.0436  0.5385 -0.5997
   11CHTO   O60 4370   6.079   7.108   2.905  0.2795  0.2435  0.0452
   11CHTO  H138 4371   6.039   7.048   2.965 -0.2436  1.3096  0.8045
   11CHTO   O50 4372   6.225   7.550   2.717 -0.0621  0.3384  0.3800
   11CHTO   C73 4373   6.358   7.564   2.783  0.1549 -0.0615 -0.8244
   11CHTO  H145 4374   6.342   7.519   2.882 -1.5259 -0.3348 -1.1927
   11CHTO   C74 4375   6.384   7.707   2.793 -0.7797  0.4383  0.3251
   11CHTO  H146 4376   6.306   7.747   2.859 -3.0328 -3.8127  0.4196
   11CHTO   O54 4377   6.500   7.735   2.874 -0.2389  0.7599 -0.7265
   11CHTO  H133 4378   6.580   7.723   2.826  1.2781 -0.6677  2.0317
   11CHTO   C75 4379   6.390   7.778   2.657 -0.3961  0.2179  0.6388
   11CHTO  H147 4380   6.295   7.760   2.605 -0.2723 -0.6926  0.7100
   11CHTO   N13 4381   6.414   7.924   2.661 -0.1077  0.1980 -0.6232
   11CHTO  H139 4382   6.321   7.975   2.681  0.3833  0.7345  0.3064
   11CHTO  H140 4383   6.487   7.951   2.736 -0.2853  0.2172 -0.4582
   11CHTO   C76 4384   6.509   7.700   2.578 -0.0022  0.6208 -0.3289
   11CHTO  H148 4385   6.608   7.725   2.617 -0.6111 -0.0794  1.6839
   11CHTO   O49 4386   6.495   7.557   2.577 -0.1638  0.6014 -0.1519
   11CHTO   C77 4387   6.475   7.488   2.706  0.0919  0.2910  0.4302
   11CHTO  H149 4388   6.563   7.480   2.770 -0.9364 -2.1658  1.6010
   11CHTO   C88 4389   6.446   7.343   2.685  0.6179  0.1130  0.0672
   11CHTO   O58 4390   6.565   7.271   2.612 -0.2782  0.0677 -0.6280
   11CHTO  H136 4391   6.560   7.182   2.640 -1.3200 -0.0005 -1.0320
   11CHTO   O51 4392   6.506   7.730   2.417 -0.1677 -0.5313  0.3640
   11CHTO   C78 4393   6.643   7.705   2.355 -0.5388  0.8814 -0.6512
   11CHTO  H150 4394   6.717   7.661   2.426 -2.3456 -1.2825 -0.0421
   11CHTO   C80 4395   6.687   7.854   2.314  0.1841  0.3380  0.0391
   11CHTO  H152 4396   6.616   7.894   2.238 -1.0125 -0.3963  0.7429
   11CHTO   O55 4397   6.684   7.935   2.434 -0.0341  0.3293 -0.4769
   11CHTO  H134 4398   6.601   7.976   2.451 -0.7581 -1.5067  0.5966
   11CHTO   C84 4399   6.828   7.861   2.236 -0.2929  0.4986 -0.4039
   11CHTO  H156 4400   6.900   7.806   2.297 -1.4677 -1.4728 -0.7501
   11CHTO   N15 4401   6.864   8.001   2.201  0.2376  0.3361  0.3402
   11CHTO  H143 4402   6.795   8.045   2.131  3.1449  2.1793 -1.4749
   11CHTO  H144 4403   6.959   7.990   2.153  0.3351  2.9114 -0.1188
   11CHTO   C87 4404   6.792   7.766   2.114 -0.0949 -0.7473 -0.4667
   11CHTO  H159 4405   6.708   7.803   2.055  0.3817 -1.2788 -1.4992
   11CHTO   O53 4406   6.765   7.619   2.163  0.1189  0.0241  0.4435
   11CHTO   C82 4407   6.638   7.616   2.232 -0.0608 -0.3078  0.4140
   11CHTO  H154 4408   6.555   7.656   2.174 -0.0974  0.5870  1.0695
   11CHTO   C89 4409   6.599   7.467   2.264 -0.4720 -0.1166  0.0358
   11CHTO   O59 4410   6.592   7.373   2.153 -0.5860 -0.2349  0.0371
   11CHTO  H137 4411   6.680   7.365   2.122 -0.8878 -0.0260 -0.8742
   11CHTO   O45 4412   6.903   7.756   2.015  0.2725 -0.1114  0.1812
   11CHTO   C67 4413   6.867   7.718   1.881 -0.7451  0.2238 -0.5147
   11CHTO  H124 4414   6.761   7.696   1.874 -1.0857  1.7787 -0.3714
   11CHTO   C65 4415   6.895   7.840   1.785 -0.1093 -0.0633 -0.2180
   11CHTO  H122 4416   6.985   7.892   1.818 -0.2454 -0.0828  0.1998
   11CHTO   O44 4417   6.775   7.927   1.810 -0.5628 -0.5315 -0.1716
   11CHTO  H102 4418   6.777   8.002   1.754  0.3854 -1.2883 -1.1814
   11CHTO   C63 4419   6.932   7.795   1.639 -0.1950  0.1181  0.2563
   11CHTO  H120 4420   7.037   7.768   1.637  0.2000  1.6213  0.0769
   11CHTO   N11 4421   6.923   7.904   1.537 -0.0780 -0.0829  0.4806
   11CHTO  H108 4422   6.958   7.872   1.441 -0.8998 -0.9704  0.4733
   11CHTO  H109 4423   6.993   7.977   1.571 -1.0663  0.7275  0.8012
   11CHTO   C61 4424   6.858   7.662   1.593 -0.7472  0.0048  0.2336
   11CHTO  H118 4425   6.901   7.635   1.495 -0.3325  0.0511  0.4022
   11CHTO   O40 4426   6.904   7.554   1.689  0.0375 -0.6101  0.1177
   11CHTO   C68 4427   6.944   7.594   1.828 -0.3974 -0.2889  0.1582
   11CHTO  H125 4428   7.054   7.606   1.831 -0.1948 -2.2539  1.2653
   11CHTO   C72 4429   6.919   7.471   1.924  0.9650 -0.1773  0.5885
   11CHTO   O48 4430   6.987   7.352   1.895 -0.8307  0.0085 -0.1882
   11CHTO  H105 4431   7.072   7.350   1.935  0.4969 -2.2885 -2.9892
   11CHTO   O38 4432   6.719   7.681   1.590 -0.3796  0.3350 -0.0044
   11CHTO   C55 4433   6.653   7.602   1.489  0.2426 -0.1647  0.5868
   11CHTO  H112 4434   6.726   7.548   1.427 -0.1649  0.3654 -0.3696
   11CHTO   C56 4435   6.561   7.699   1.398  0.5187 -0.3336  0.6509
   11CHTO  H113 4436   6.504   7.762   1.469 -2.0795 -1.6834 -0.1662
   11CHTO   O42 4437   6.641   7.788   1.324 -0.3798 -0.4923  0.0137
   11CHTO  H100 4438   6.703   7.735   1.278 -1.0057 -1.8639  0.7137
   11CHTO   C57 4439   6.451   7.613   1.308 -0.1672 -0.2455 -0.1669
   11CHTO  H114 4440   6.510   7.552   1.239  1.3811 -0.1416  1.0303
   11CHTO   N10 4441   6.354   7.694   1.224  0.3027 -0.5738 -0.2038
   11CHTO  H106 4442   6.323   7.788   1.266  1.2622 -0.4284  0.1937
   11CHTO  H107 4443   6.393   7.713   1.125  1.7960  2.1263  0.8445
   11CHTO   C58 4444   6.377   7.514   1.404 -0.3688 -0.1871  0.0084
   11CHTO  H115 4445   6.314   7.565   1.480  1.3555 -0.8968  1.9760
   11CHTO   O37 4446   6.470   7.424   1.462  0.4697 -0.3618 -0.1038
   11CHTO   C59 4447   6.560   7.494   1.550 -0.5700  0.1010 -0.7564
   11CHTO  H116 4448   6.499   7.532   1.631 -0.9568  0.5637 -1.2625
   11CHTO   C70 4449   6.646   7.393   1.624 -0.2291  0.4469  0.0524
   11CHTO   O46 4450   6.558   7.292   1.671  0.1394  0.2025 -0.5128
   11CHTO  H103 4451   6.595   7.223   1.722  0.2396 -0.2912 -1.2505
   11CHTO   O39 4452   6.278   7.423   1.308 -0.5795 -0.1745  0.2151
   11CHTO   C60 4453   6.201   7.330   1.385  0.0779 -0.4655 -0.2766
   11CHTO  H117 4454   6.265   7.286   1.462 -1.1205 -2.7811 -0.5599
   11CHTO   C62 4455   6.080   7.385   1.461  0.9819 -0.2811  0.0246
   11CHTO  H119 4456   6.109   7.469   1.528  1.7608 -0.1069 -0.5203
   11CHTO   O43 4457   5.994   7.447   1.362  0.0568 -0.1394 -0.4988
   11CHTO  H101 4458   5.948   7.521   1.398  0.3812 -0.8416  1.3535
   11CHTO   C66 4459   6.003   7.276   1.546 -0.6750 -0.2085 -0.1084
   11CHTO  H123 4460   6.066   7.250   1.632  1.4757  2.5266 -0.7824
   11CHTO   N12 4461   5.893   7.330   1.626 -0.2148  0.2948 -0.5292
   11CHTO  H110 4462   5.851   7.248   1.682  1.4845  1.1137  1.9832
   11CHTO  H111 4463   5.825   7.383   1.561 -0.1802  3.5368  1.9436
   11CHTO   C69 4464   5.974   7.157   1.453 -0.3111 -0.5541 -0.6849
   11CHTO  H126 4465   5.904   7.196   1.376  0.1675  2.1255  0.1660
   11CHTO   O41 4466   6.088   7.117   1.387 -0.2284 -0.4316  0.3656
   11CHTO   C64 4467   6.157   7.213   1.303  0.7044 -0.9925  0.1857
   11CHTO  H121 4468   6.081   7.258   1.236 -1.2496 -2.7083  1.1746
   11CHTO   C71 4469   6.272   7.142   1.229  0.1395  0.5289 -0.9609
   11CHTO   O47 4470   6.213   7.044   1.137 -0.4700  0.0879  0.6206
   11CHTO  H104 4471   6.143   7.000   1.182 -0.7641 -0.7412 -0.6357
   11CHTO   O34 4472   5.920   7.027   1.534 -0.0578  0.4638 -0.4797
   11CHTO   C49 4473   5.785   6.980   1.585  0.1458  0.2346 -0.2740
   11CHTO   H91 4474   5.791   6.990   1.693  0.1603 -1.6101 -0.0964
   11CHTO   C47 4475   5.760   6.835   1.542 -0.4375  0.1800 -0.3093
   11CHTO   H89 4476   5.671   6.800   1.598  0.1653 -0.1327  0.4755
   11CHTO   O33 4477   5.871   6.757   1.594 -0.0196  0.1535 -0.2429
   11CHTO   H70 4478   5.947   6.774   1.542  0.5442  0.0656  0.5483
   11CHTO   C45 4479   5.737   6.835   1.381 -0.4072 -0.1226  0.3444
   11CHTO   H87 4480   5.814   6.891   1.326 -0.2763 -0.8411 -0.2043
   11CHTO    N8 4481   5.737   6.691   1.336  0.0509  0.2728  0.3591
   11CHTO   H75 4482   5.722   6.638   1.429  0.8792  0.9159  0.8605
   11CHTO   H76 4483   5.658   6.666   1.267  2.1395 -0.7611 -1.7319
   11CHTO   C43 4484   5.599   6.916   1.354 -1.6230  0.6421 -0.0084
   11CHTO   H85 4485   5.586   6.908   1.246  0.4721 -1.1447 -0.1614
   11CHTO   O29 4486   5.615   7.051   1.403  0.2204  0.2142  0.3883
   11CHTO   C50 4487   5.669   7.067   1.535  0.1906 -0.4621  1.0293
   11CHTO   H92 4488   5.700   7.172   1.534 -0.7235 -0.1688  1.9288
   11CHTO   C54 4489   5.555   7.062   1.637 -0.5771 -0.6660 -0.2156
   11CHTO   O36 4490   5.576   7.115   1.769  0.1194  0.5438  0.0221
   11CHTO   H72 4491   5.604   7.050   1.830 -0.7492  0.1427 -0.0007
   11CHTO   O27 4492   5.488   6.849   1.413  0.3325  0.1458 -0.3220
   11CHTO   C37 4493   5.360   6.848   1.467 -1.2074  0.9895 -0.0017
   11CHTO   H79 4494   5.358   6.894   1.567  2.3014 -0.8673  1.0326
   11CHTO   C38 4495   5.257   6.923   1.384  0.1375  0.6846 -0.6388
   11CHTO   H80 4496   5.280   6.902   1.279  0.3863  1.0734 -0.6617
   11CHTO   O31 4497   5.274   7.065   1.402 -0.4941 -0.0389  0.1995
   11CHTO   H68 4498   5.247   7.113   1.326  1.5340  1.6750  0.5107
   11CHTO   C39 4499   5.106   6.879   1.417 -0.1621 -0.2062  0.3764
   11CHTO   H81 4500   5.083   6.895   1.522 -2.8543  1.8522 -0.4713
   11CHTO    N7 4501   4.999   6.946   1.336  0.0941 -0.2905  0.4479
   11CHTO   H73 4502   5.015   7.053   1.342 -0.2929 -0.1833 -0.3734
   11CHTO   H74 4503   4.988   6.922   1.231 -1.2253  1.2177  0.2213
   11CHTO   C40 4504   5.090   6.722   1.405 -0.0374 -0.6661  0.2604
   11CHTO   H82 4505   5.122   6.694   1.305  0.4298 -0.5852  0.3835
   11CHTO   O26 4506   5.176   6.673   1.506  0.0232 -0.5643  0.2420
   11CHTO   C41 4507   5.320   6.694   1.476 -0.2194  0.3763  0.0843
   11CHTO   H83 4508   5.352   6.645   1.383 -0.2697 -2.1498  1.3387
   11CHTO   C52 4509   5.408   6.629   1.588  0.0267 -0.2705  0.3203
   11CHTO   O35 4510   5.364   6.497   1.618 -0.1408 -0.3099 -0.3206
   11CHTO   H71 4511   5.412   6.478   1.696  0.1833 -0.7208 -0.6198
   11CHTO   O28 4512   4.969   6.651   1.430  0.2642 -0.6202  0.1771
   11CHTO   C42 4513   4.941   6.513   1.382  0.1450 -0.0204  0.1021
   11CHTO   H84 4514   5.032   6.471   1.340  0.0772 -1.3552  1.2375
   11CHTO   C44 4515   4.837   6.508   1.266  0.6539  0.0251  0.2463
   11CHTO   H86 4516   4.762   6.584   1.289 -1.7740 -2.0521 -0.4737
   11CHTO   O32 4517   4.899   6.564   1.150 -0.3728  0.2502 -0.1000
   11CHTO   H69 4518   4.837   6.576   1.080  0.3248 -2.6163 -1.2923
   11CHTO   C48 4519   4.763   6.372   1.238  0.1182 -0.0931  0.3257
   11CHTO   H90 4520   4.823   6.306   1.175 -1.2314  0.4606 -1.5792
   11CHTO    N9 4521   4.637   6.401   1.159  0.3286  0.6741 -0.5114
   11CHTO   H77 4522   4.559   6.340   1.202  1.4581 -0.5635 -0.1769
   11CHTO   H78 4523   4.653   6.385   1.053 -0.1406 -0.6395 -0.3916
   11CHTO   C51 4524   4.737   6.302   1.379 -0.0046  0.0188 -0.8527
   11CHTO   H93 4525   4.662   6.364   1.429 -2.4261 -1.7748 -2.1535
   11CHTO   O30 4526   4.853   6.281   1.461  0.2582  0.4779  0.4228
   11CHTO   C46 4527   4.914   6.417   1.497  0.5780 -0.7812  0.5996
   11CHTO   H88 4528   4.848   6.472   1.564  0.9086 -0.0268  0.3076
   11CHTO   C53 4529   5.045   6.388   1.571 -0.1544 -0.6340 -0.3172
   11CHTO   O72 4530   5.123   6.310   1.482  0.2446  0.3249  0.3860
   11CHTO  H199 4531   5.072   6.245   1.437 -0.1442  0.9981 -0.1452
   11CHTO   O22 4532   4.670   6.176   1.354 -0.3694  1.2814  0.1006
   11CHTO   C31 4533   4.622   6.088   1.471  0.3864 -0.3329  0.0920
   11CHTO   H59 4534   4.685   6.116   1.558  1.2968 -1.1602 -0.2842
   11CHTO   C29 4535   4.475   6.116   1.521  0.8821  0.6915 -0.3730
   11CHTO   H57 4536   4.409   6.092   1.436  0.1891 -0.7978  0.5660
   11CHTO   O21 4537   4.467   6.254   1.560 -0.8858 -0.2184  0.0479
   11CHTO   H37 4538   4.380   6.274   1.590  0.3544  2.8920  1.7876
   11CHTO   C27 4539   4.430   6.020   1.643 -0.5886 -0.3001  0.2823
   11CHTO   H55 4540   4.495   6.038   1.730  0.2236  0.7167 -0.5091
   11CHTO    N5 4541   4.292   6.038   1.690  0.0389 -0.4690  0.1749
   11CHTO   H43 4542   4.213   5.982   1.642  0.1148 -2.1483  1.9218
   11CHTO   H44 4543   4.289   6.032   1.798 -0.3839  0.8137  0.2428
   11CHTO   C25 4544   4.454   5.872   1.596  0.2059 -0.1072 -0.3513
   11CHTO   H53 4545   4.399   5.837   1.508  0.5477 -1.1537 -0.1611
   11CHTO   O17 4546   4.598   5.848   1.572  0.4278  0.2542 -0.5219
   11CHTO   C32 4547   4.637   5.933   1.456 -0.6719  0.0375 -0.9947
   11CHTO   H60 4548   4.579   5.893   1.372 -2.7274  0.4412  0.2039
   11CHTO   C36 4549   4.782   5.884   1.431 -0.1912 -0.7121 -0.0926
   11CHTO   O25 4550   4.835   5.940   1.310  0.3478 -0.0597  0.3291
   11CHTO   H40 4551   4.769   5.940   1.244 -0.1068 -0.8581  0.7839
   11CHTO   O15 4552   4.428   5.774   1.703 -0.4519  0.3881  0.0468
   11CHTO   C19 4553   4.368   5.656   1.754  0.7300  0.1321 -0.7245
   11CHTO   H47 4554   4.426   5.655   1.848  0.5809  3.1737 -0.5670
   11CHTO   C20 4555   4.210   5.672   1.779  0.1396 -0.3512 -0.4810
   11CHTO   H48 4556   4.161   5.723   1.696 -0.2404 -1.8857 -1.2212
   11CHTO   O19 4557   4.182   5.760   1.890  0.4477 -0.1902  0.2082
   11CHTO   H35 4558   4.232   5.839   1.877 -1.3775  1.1027  0.8484
   11CHTO   C21 4559   4.137   5.535   1.809  0.6800 -0.2565 -0.2645
   11CHTO   H49 4560   4.170   5.495   1.905 -1.0273  1.1869  0.9477
   11CHTO    N4 4561   3.988   5.552   1.810 -0.0429 -0.6088 -0.0840
   11CHTO   H41 4562   3.949   5.586   1.715  0.9685 -0.8610 -0.5956
   11CHTO   H42 4563   3.969   5.628   1.886 -1.0562 -0.7144 -0.2203
   11CHTO   C22 4564   4.190   5.425   1.718  0.3957  0.1102  0.5440
   11CHTO   H50 4565   4.155   5.457   1.620 -0.5385 -0.2123  0.7681
   11CHTO   O14 4566   4.331   5.410   1.731  0.4921  0.1498  0.0303
   11CHTO   C23 4567   4.402   5.525   1.676 -0.1094  0.5445  0.1777
   11CHTO   H51 4568   4.376   5.532   1.569  0.1978 -1.9291 -0.0812
   11CHTO   C34 4569   4.556   5.503   1.682  0.0720 -0.7532 -0.2904
   11CHTO   O23 4570   4.604   5.391   1.608 -0.1235 -0.0624 -0.9068
   11CHTO   H38 4571   4.696   5.401   1.597  0.4557 -2.2936  1.3994
   11CHTO   O16 4572   4.145   5.291   1.750  0.7924 -0.5451 -0.1559
   11CHTO   C24 4573   4.123   5.204   1.627  0.2258 -0.1882 -0.4009
   11CHTO   H52 4574   4.153   5.257   1.536 -0.1896  1.6077  0.4718
   11CHTO   C26 4575   3.970   5.183   1.614 -0.0484 -0.2201 -0.2632
   11CHTO   H54 4576   3.935   5.121   1.699 -0.3928  0.6992  0.2776
   11CHTO   O20 4577   3.912   5.310   1.603 -0.3751 -0.1621 -0.2227
   11CHTO   H36 4578   3.840   5.316   1.662 -0.2304  0.6989 -0.1295
   11CHTO   C30 4579   3.934   5.098   1.482 -0.0699  0.7061  0.3316
   11CHTO   H58 4580   3.954   5.165   1.398 -0.0915  0.6687  0.2961
   11CHTO    N6 4581   3.790   5.066   1.459 -0.4322 -0.2847 -0.2189
   11CHTO   H45 4582   3.741   5.162   1.458  0.4860  0.1795 -1.2092
   11CHTO   H46 4583   3.773   5.017   1.364 -1.0590 -1.3682  0.4351
   11CHTO   C33 4584   4.033   4.975   1.460 -0.0214 -0.2948 -0.0087
   11CHTO   H61 4585   3.998   4.893   1.524  0.4101  0.7236  1.5585
   11CHTO   O18 4586   4.167   5.002   1.499  0.1007  0.2152 -0.0634
   11CHTO   C28 4587   4.194   5.065   1.626  0.2730 -0.3025 -0.1298
   11CHTO   H56 4588   4.161   5.006   1.712  0.4066  1.5998  1.2659
   11CHTO   C35 4589   4.356   5.074   1.637 -0.0400  0.1672 -0.0229
   11CHTO   O24 4590   4.407   4.943   1.634 -0.4202 -0.6039  0.1258
   11CHTO   H39 4591   4.494   4.953   1.599  0.2439  0.1757  1.9099
   11CHTO    O9 4592   4.025   4.929   1.320 -0.5705 -0.1915  0.8867
   11CHTO   C13 4593   4.088   5.021   1.218 -0.6355  0.4301  0.0958
   11CHTO   H26 4594   4.134   5.111   1.265  0.0867  0.4822 -0.6969
   11CHTO   C11 4595   3.982   5.062   1.111  0.5551  0.2552 -0.6968
   11CHTO   H24 4596   3.903   5.103   1.175  1.9523 -0.2722  1.4070
   11CHTO    O8 4597   3.936   4.937   1.046  0.2530  0.3136  0.1883
   11CHTO    H3 4598   4.003   4.912   0.985 -0.1160  1.8085 -0.8649
   11CHTO    C9 4599   4.043   5.179   1.024  0.0836 -0.0569 -0.0805
   11CHTO   H22 4600   4.045   5.267   1.090  0.2949 -0.7825  0.8972
   11CHTO    N2 4601   3.957   5.217   0.915  0.0882  0.2941  0.1875
   11CHTO   H10 4602   3.890   5.134   0.897 -0.0716  0.0454  1.8135
   11CHTO   H11 4603   3.907   5.309   0.938 -1.4848  0.2018 -2.7649
   11CHTO    C7 4604   4.193   5.137   0.987  0.4391  0.6933 -1.0441
   11CHTO   H20 4605   4.261   5.183   1.061 -0.5240  1.3880 -0.5818
   11CHTO    O4 4606   4.217   4.995   0.997 -0.3918 -0.0989 -0.0391
   11CHTO   C14 4607   4.218   4.950   1.131 -1.2020 -0.3471 -0.0990
   11CHTO   H27 4608   4.317   4.982   1.173 -0.7745 -0.6587 -0.8661
   11CHTO   C18 4609   4.211   4.795   1.127  0.3048  0.1130 -0.8885
   11CHTO   O13 4610   4.238   4.749   1.259 -0.0926 -0.1627 -0.0722
   11CHTO    H7 4611   4.329   4.746   1.281 -0.0229  3.3612  0.4885
   11CHTO    O2 4612   4.237   5.182   0.845  0.0546  0.3354  0.0280
   11CHTO    C1 4613   4.330   5.294   0.830 -0.9124  0.3940 -0.4753
   11CHTO   H14 4614   4.413   5.279   0.903 -0.1298  1.5385 -1.1092
   11CHTO    C2 4615   4.262   5.429   0.866 -0.0172  0.2550  0.4192
   11CHTO   H15 4616   4.175   5.438   0.800  0.8477  1.1083 -0.6149
   11CHTO    O6 4617   4.224   5.431   1.006  0.3392 -0.3192 -0.1827
   11CHTO    H1 4618   4.185   5.351   1.034 -0.3513  1.2616  3.5711
   11CHTO    C3 4619   4.357   5.549   0.827 -0.2968 -0.6528 -0.4324
   11CHTO   H16 4620   4.439   5.545   0.901 -1.7359  0.2117  1.2299
   11CHTO    N1 4621   4.295   5.680   0.851 -0.4204  0.0879  0.0585
   11CHTO    H8 4622   4.268   5.741   0.766 -0.0672 -0.4834 -0.4695
   11CHTO    H9 4623   4.213   5.667   0.921 -0.3533  2.9890  0.7439
   11CHTO    C4 4624   4.419   5.533   0.683  0.4216  0.6179  1.0322
   11CHTO   H17 4625   4.341   5.551   0.608  1.4897  0.4599 -0.1389
   11CHTO    O1 4626   4.477   5.408   0.672 -0.1080 -0.3408 -0.0677
   11CHTO    C5 4627   4.388   5.299   0.680  0.1787 -0.7313 -0.1005
   11CHTO   H18 4628   4.303   5.319   0.614  0.8222  1.5941 -0.2612
   11CHTO   C16 4629   4.459   5.165   0.649 -0.5595  0.1017 -0.1730
   11CHTO   O11 4630   4.562   5.122   0.739 -0.0050 -0.0296  0.0725
   11CHTO    H5 4631   4.647   5.155   0.715 -0.9089  0.6301 -2.3723
   11CHTO    O3 4632   4.532   5.623   0.675 -0.2616  0.1535 -0.5930
   11CHTO    C6 4633   4.611   5.636   0.550  0.1896 -0.0406 -0.4169
   11CHTO   H19 4634   4.605   5.553   0.479 -0.3392  0.5280 -1.0442
   11CHTO    C8 4635   4.566   5.773   0.485 -0.4803  0.5831 -0.2479
   11CHTO   H21 4636   4.575   5.855   0.556 -0.4341  0.4383 -0.0842
   11CHTO    O7 4637   4.429   5.749   0.456  0.3946  0.2334 -0.4571
   11CHTO    H2 4638   4.416   5.684   0.389 -0.3798  2.5614 -2.6287
   11CHTO   C12 4639   4.660   5.802   0.358  0.3267  0.4617 -0.1533
   11CHTO   H25 4640   4.639   5.719   0.288 -0.5165  0.6781 -0.1633
   11CHTO    N3 4641   4.621   5.926   0.287  1.1458 -0.6780 -0.0603
   11CHTO   H12 4642   4.559   5.917   0.199 -0.1075 -0.0385  0.7435
   11CHTO   H13 4643   4.702   5.996   0.268  1.4328 -1.0490 -0.2210
   11CHTO   C15 4644   4.814   5.798   0.404  0.4315 -0.6126  0.0853
   11CHTO   H28 4645   4.852   5.890   0.449  0.1554 -0.2963 -0.3215
   11CHTO   O10 4646   4.913   5.773   0.291  0.2707 -0.2765 -0.0429
   11CHTO    H4 4647   4.866   5.730   0.222  0.9183 -0.1642 -0.5552
   11CHTO    O5 4648   4.837   5.681   0.480  0.6315 -0.7525 -0.2434
   11CHTO   C10 4649   4.753   5.654   0.591  0.2995  0.2907 -0.4275
   11CHTO   H23 4650   4.760   5.727   0.671 -1.2518 -0.1244  0.1181
   11CHTO   C17 4651   4.814   5.527   0.660 -0.1170 -0.0764 -0.4644
   11CHTO   O12 4652   4.958   5.523   0.678  0.0582  0.6082  0.6050
   11CHTO    H6 4653   5.000   5.607   0.683  0.9108  0.1397  1.4981
   12CHTO  H203 4654   4.952  11.933   0.157  0.6889  0.2583 -2.0569
   12CHTO   O82 4655   4.912  11.850   0.136 -0.3190  0.2574 -0.2554
   12CHTO  C123 4656   4.924  11.740   0.226 -0.3999  1.1489  0.1620
   12CHTO  H227 4657   4.995  11.763   0.307 -1.0023 -0.2443  1.0949
   12CHTO   O77 4658   4.791  11.712   0.294  0.6119 -0.6720 -0.0422
   12CHTO  C118 4659   4.808  11.614   0.397 -0.1116 -0.2933  0.2259
   12CHTO  H222 4660   4.886  11.648   0.466  0.2849 -0.7125 -0.0145
   12CHTO  C125 4661   4.676  11.598   0.477  0.2775 -0.0948 -0.0494
   12CHTO   O84 4662   4.560  11.571   0.388  0.7232  0.1644 -0.1067
   12CHTO  H205 4663   4.486  11.532   0.431  1.2338 -0.9444 -0.2096
   12CHTO  C114 4664   4.845  11.485   0.328  0.6097 -0.6154 -0.3277
   12CHTO  H218 4665   4.765  11.448   0.265 -2.2295  0.5198  2.4359
   12CHTO  C116 4666   4.974  11.495   0.241  0.0138  0.8601 -0.3500
   12CHTO  H220 4667   5.061  11.515   0.308 -0.0617  2.5072 -0.7346
   12CHTO   O79 4668   4.996  11.366   0.176 -0.2205 -0.4449  0.8191
   12CHTO  H201 4669   5.083  11.365   0.143 -1.2764 -0.1279 -2.1181
   12CHTO  C120 4670   4.969  11.613   0.144  0.2867 -0.4428  0.3515
   12CHTO  H224 4671   4.882  11.588   0.080  0.0446 -0.0011  0.5073
   12CHTO   N21 4672   5.097  11.621   0.069 -0.0238 -0.0066 -0.0666
   12CHTO  H211 4673   5.088  11.667  -0.028  0.7036  0.4160  0.0615
   12CHTO  H212 4674   5.169  11.678   0.126  0.2841 -0.4250 -0.0375
   12CHTO   O75 4675   4.862  11.401   0.443 -0.5936  0.5854 -0.0922
   12CHTO  C112 4676   4.874  11.234   0.415 -0.1262 -0.6613  0.4024
   12CHTO  H216 4677   4.981  11.207   0.410  0.4137  1.3903  0.6679
   12CHTO   O73 4678   4.812  11.207   0.290 -0.6540 -0.1868  0.0860
   12CHTO  C113 4679   4.826  11.068   0.246  0.6416  0.0732 -0.3631
   12CHTO  H217 4680   4.935  11.043   0.241  1.3825  2.8412  1.3440
   12CHTO  C124 4681   4.769  11.070   0.100 -0.6068 -0.6271 -0.0606
   12CHTO   O83 4682   4.846  11.155   0.021 -0.6966 -0.5306  0.4269
   12CHTO  H204 4683   4.925  11.107   0.005 -0.5143 -0.8146  2.1946
   12CHTO  C109 4684   4.747  10.968   0.331 -0.1888 -0.8395 -0.0122
   12CHTO  H213 4685   4.640  10.984   0.311  0.3071  0.1613 -1.9890
   12CHTO  C110 4686   4.790  10.990   0.479  0.0204 -0.4084 -0.1330
   12CHTO  H214 4687   4.892  10.952   0.486 -0.3422 -1.4938 -0.7120
   12CHTO   O78 4688   4.710  10.923   0.575  0.4041 -0.2421 -0.8489
   12CHTO  H200 4689   4.620  10.951   0.575  0.1144 -0.9418  1.9760
   12CHTO  C111 4690   4.793  11.142   0.518  0.4154 -0.1051 -0.7793
   12CHTO  H215 4691   4.690  11.180   0.524  0.6066  0.0727  2.2723
   12CHTO   N19 4692   4.850  11.168   0.654 -0.1264  0.0625 -0.3711
   12CHTO  H207 4693   4.793  11.243   0.706 -1.4249  1.1494 -3.2167
   12CHTO  H208 4694   4.957  11.174   0.657  0.0145 -1.9310 -0.4600
   12CHTO   O74 4695   4.776  10.831   0.293  0.1597  0.4412  0.3921
   12CHTO  C115 4696   4.653  10.750   0.208 -0.2619  0.5541 -0.1762
   12CHTO  H219 4697   4.559  10.804   0.209 -0.7238 -0.2650  1.7900
   12CHTO   O76 4698   4.690  10.741   0.067  0.1317  0.1418 -0.3394
   12CHTO  C122 4699   4.616  10.661  -0.026 -0.6640  0.2764 -0.4495
   12CHTO  H226 4700   4.678  10.649  -0.114  0.6971 -3.1461  0.8829
   12CHTO  C126 4701   4.478  10.723  -0.080 -0.7717  0.4965 -0.2623
   12CHTO   O85 4702   4.466  10.869  -0.084 -0.0623 -0.4579 -0.2583
   12CHTO  H206 4703   4.387  10.891  -0.130 -0.4891  2.0360  1.5768
   12CHTO  C121 4704   4.589  10.510   0.029 -0.1932  0.1575  0.4114
   12CHTO  H225 4705   4.515  10.467  -0.041  1.3634  0.1016 -1.2259
   12CHTO   O81 4706   4.701  10.435  -0.006 -0.4996 -0.6477 -0.2549
   12CHTO  H202 4707   4.702  10.407  -0.095  0.6213 -1.1418 -0.0946
   12CHTO  C119 4708   4.530  10.523   0.174 -0.1737  0.2511  0.6539
   12CHTO  H223 4709   4.435  10.575   0.161 -0.7536 -0.3365  2.4203
   12CHTO  C117 4710   4.624  10.607   0.265  0.5311  0.5017  0.2677
   12CHTO  H221 4711   4.721  10.559   0.276 -0.0753 -1.1491 -1.2997
   12CHTO   N20 4712   4.568  10.622   0.404 -0.0343  0.3117  0.1146
   12CHTO  H209 4713   4.547  10.530   0.457 -0.3379  0.6436  0.5816
   12CHTO  H210 4714   4.499  10.704   0.412  0.7075  1.0056 -0.5031
   12CHTO   O80 4715   4.488  10.366   0.231 -0.0971 -0.4870 -0.1348
   12CHTO  C103 4716   4.353  10.335   0.268 -0.7480 -0.0369 -0.1327
   12CHTO  H190 4717   4.297  10.411   0.321 -0.1706 -0.3344  0.9278
   12CHTO  C101 4718   4.259  10.283   0.159 -0.6599  0.3075 -0.1018
   12CHTO  H188 4719   4.309  10.209   0.096 -3.9405 -0.0136 -2.4559
   12CHTO   O68 4720   4.224  10.392   0.080 -0.3870  0.5647 -0.1512
   12CHTO  H168 4721   4.168  10.358   0.013 -0.6485  1.0327 -0.1722
   12CHTO   C99 4722   4.129  10.218   0.210  0.7643  0.1259 -0.1837
   12CHTO  H186 4723   4.068  10.291   0.267  1.7876 -0.3718  1.5929
   12CHTO   N17 4724   4.035  10.172   0.106  0.5291  0.2262  0.2079
   12CHTO  H174 4725   4.033  10.231   0.015 -1.0148 -1.6857 -1.0372
   12CHTO  H175 4726   4.062  10.069   0.085 -0.6180 -0.0491  0.0844
   12CHTO   C97 4727   4.156  10.113   0.318  0.4878 -0.4206  0.4821
   12CHTO  H184 4728   4.200  10.027   0.267 -1.6618 -1.4038  0.2333
   12CHTO   O64 4729   4.240  10.167   0.419  0.3038  0.4987  0.5210
   12CHTO  C104 4730   4.371  10.210   0.375 -0.0093  0.0008  0.3218
   12CHTO  H191 4731   4.418  10.121   0.332  1.3898  0.0950  1.6379
   12CHTO  C108 4732   4.455  10.248   0.496 -1.6097  0.0709 -0.3094
   12CHTO   O71 4733   4.490  10.135   0.576 -0.1390 -0.2579 -0.2500
   12CHTO  H171 4734   4.469  10.158   0.664  0.3868  0.8110 -0.4030
   12CHTO   O62 4735   4.037  10.069   0.393 -0.2057  1.0298  0.0975
   12CHTO   C91 4736   4.070   9.946   0.469 -0.5480 -0.1223 -0.1170
   12CHTO  H178 4737   4.174   9.947   0.499 -0.9376 -0.5258  1.2561
   12CHTO   C92 4738   4.035   9.824   0.379  0.1361  0.0865 -0.1414
   12CHTO  H179 4739   3.937   9.844   0.332 -0.9351  0.7805  2.2823
   12CHTO   O66 4740   4.138   9.810   0.277 -0.4566  0.1832  0.6124
   12CHTO  H166 4741   4.138   9.724   0.241  1.6259  0.4962 -0.1713
   12CHTO   C93 4742   4.024   9.679   0.457 -0.6237  0.1235  0.2719
   12CHTO  H180 4743   4.120   9.630   0.478 -1.6007 -1.1954  1.8496
   12CHTO   N16 4744   3.966   9.576   0.366 -0.0087 -0.3027  0.0570
   12CHTO  H172 4745   3.998   9.594   0.264 -1.7591  0.3041 -0.4035
   12CHTO  H173 4746   3.858   9.579   0.375 -0.2073 -1.5833 -1.6089
   12CHTO   C94 4747   3.955   9.700   0.590 -0.2635 -0.2597  0.4567
   12CHTO  H181 4748   3.848   9.722   0.579 -0.3843  0.4691  2.7165
   12CHTO   O61 4749   4.017   9.812   0.663  0.0833 -0.7264 -0.0421
   12CHTO   C95 4750   3.989   9.938   0.603 -0.1285  0.5044 -0.3646
   12CHTO  H182 4751   3.881   9.950   0.590 -0.3298  0.2564  0.9565
   12CHTO  C106 4752   4.046  10.044   0.710  0.1102 -0.6160  0.5616
   12CHTO   O69 4753   4.188  10.035   0.738 -0.0631 -0.2491 -0.0008
   12CHTO  H169 4754   4.201   9.977   0.811  0.2607 -1.2795 -0.8592
   12CHTO   O63 4755   3.976   9.564   0.681 -0.1153  0.2818  0.1959
   12CHTO   C96 4756   4.101   9.564   0.787  0.0468 -0.3233 -0.3376
   12CHTO  H183 4757   4.089   9.644   0.859  2.3849  1.8759 -2.2697
   12CHTO   C98 4758   4.250   9.574   0.722  0.5037 -0.2576 -0.6460
   12CHTO  H185 4759   4.252   9.516   0.628 -2.5170 -1.7745  0.1579
   12CHTO   O67 4760   4.276   9.709   0.687 -0.5235  0.5280 -0.0597
   12CHTO  H167 4761   4.231   9.730   0.607 -1.0009  0.7138  0.2569
   12CHTO  C102 4762   4.363   9.533   0.836 -0.1179  0.3560  0.4360
   12CHTO  H189 4763   4.376   9.622   0.899 -1.6716  0.4078  0.7097
   12CHTO   N18 4764   4.496   9.502   0.784  0.3584 -0.2367 -0.0792
   12CHTO  H176 4765   4.499   9.525   0.679 -0.3608 -0.0512 -0.0618
   12CHTO  H177 4766   4.515   9.396   0.790 -1.5543 -0.7886 -3.1184
   12CHTO  C105 4767   4.321   9.412   0.931 -0.2549 -0.3636  0.1841
   12CHTO  H192 4768   4.319   9.318   0.876 -1.4934 -0.0683 -0.3087
   12CHTO   O65 4769   4.184   9.440   0.976 -0.8687 -0.1263  0.5989
   12CHTO  C100 4770   4.099   9.428   0.868 -0.3525  0.7844 -0.2870
   12CHTO  H187 4771   4.135   9.347   0.803 -1.3544  1.5950 -1.8805
   12CHTO  C107 4772   3.960   9.389   0.912  0.0270  0.4453 -0.3228
   12CHTO   O70 4773   3.972   9.271   0.999 -0.3181  0.1229  0.1515
   12CHTO  H170 4774   3.988   9.307   1.084 -1.9153  0.9827  0.1123
   12CHTO   O57 4775   4.415   9.415   1.052  0.5699  0.7509 -0.0474
   12CHTO   C85 4776   4.367   9.454   1.181  0.2092 -0.2097  0.7754
   12CHTO  H157 4777   4.266   9.500   1.178  0.5247  0.4323 -0.1806
   12CHTO   C83 4778   4.459   9.569   1.238 -0.3251  0.1675 -0.5038
   12CHTO  H155 4779   4.443   9.663   1.184 -0.7029  1.3860  1.6828
   12CHTO   O56 4780   4.596   9.539   1.206 -0.0003  0.1987  0.2182
   12CHTO  H135 4781   4.641   9.480   1.264  0.7437  1.9428  1.4577
   12CHTO   C81 4782   4.433   9.601   1.387 -0.2802 -0.2971 -0.5026
   12CHTO  H153 4783   4.328   9.631   1.395 -0.2999 -0.4010 -0.3648
   12CHTO   N14 4784   4.506   9.715   1.449  0.4939 -0.1145  0.2949
   12CHTO  H141 4785   4.470   9.806   1.406  0.4822 -1.1063 -1.8474
   12CHTO  H142 4786   4.487   9.709   1.554 -0.6421 -1.7400  0.0125
   12CHTO   C79 4787   4.456   9.467   1.465 -0.6513 -0.5182  0.4440
   12CHTO  H151 4788   4.436   9.491   1.569  0.9282  1.9377  0.2262
   12CHTO   O52 4789   4.356   9.368   1.418  0.1705 -0.7988  0.5798
   12CHTO   C86 4790   4.372   9.336   1.277 -0.2678  0.7125 -0.8975
   12CHTO  H158 4791   4.469   9.283   1.270  1.2561  3.1215  1.1042
   12CHTO   C90 4792   4.270   9.222   1.238  0.3443  0.4119 -0.3856
   12CHTO   O60 4793   4.136   9.265   1.259 -0.5636  0.1087 -0.0133
   12CHTO  H138 4794   4.103   9.256   1.346 -2.3985  1.8053 -0.4964
   12CHTO   O50 4795   4.589   9.411   1.454  0.3032 -0.2512  0.2427
   12CHTO   C73 4796   4.642   9.324   1.553  0.5070  0.3942  0.2225
   12CHTO  H145 4797   4.574   9.250   1.596  1.4936 -0.4213  0.4042
   12CHTO   C74 4798   4.688   9.413   1.668 -0.4881 -0.1524  0.1931
   12CHTO  H146 4799   4.598   9.469   1.700  0.7052  1.4823  0.7571
   12CHTO   O54 4800   4.726   9.332   1.780  0.2024 -0.5488 -0.2184
   12CHTO  H133 4801   4.651   9.300   1.828  0.8381 -0.3768  0.9028
   12CHTO   C75 4802   4.811   9.509   1.631 -1.3063  0.0587 -0.2600
   12CHTO  H147 4803   4.779   9.584   1.557 -0.3703 -0.4816 -1.2365
   12CHTO   N13 4804   4.861   9.590   1.749  0.2815  0.4711  0.0397
   12CHTO  H139 4805   4.887   9.537   1.840 -1.5243 -1.7888 -0.7198
   12CHTO  H140 4806   4.795   9.673   1.772  1.4743  1.1713  1.0052
   12CHTO   C76 4807   4.924   9.425   1.574  0.1705 -0.1481 -0.2640
   12CHTO  H148 4808   4.962   9.372   1.661  0.8019 -0.8612 -0.9719
   12CHTO   O49 4809   4.873   9.339   1.466  0.0867  0.3806  0.4465
   12CHTO   C77 4810   4.770   9.247   1.505 -0.4135 -0.4186  0.2350
   12CHTO  H149 4811   4.800   9.171   1.577 -0.7549 -1.7855 -1.0207
   12CHTO   C88 4812   4.734   9.154   1.394  0.5542  0.1593 -0.1527
   12CHTO   O58 4813   4.645   9.044   1.426  0.2588  0.0167  0.1713
   12CHTO  H136 4814   4.639   8.998   1.345  1.7246 -0.1105  0.1143
   12CHTO   O51 4815   5.052   9.536   1.504 -0.0507  0.4080  0.3900
   12CHTO   C78 4816   5.139   9.454   1.407  0.3715 -0.2959  0.3208
   12CHTO  H150 4817   5.071   9.379   1.361  1.1517 -0.5659 -0.3942
   12CHTO   C80 4818   5.262   9.384   1.466 -0.4493  0.3351 -0.0944
   12CHTO  H152 4819   5.321   9.457   1.524  1.1860 -1.7883  0.9823
   12CHTO   O55 4820   5.217   9.291   1.562 -0.4241 -0.2186  0.3676
   12CHTO  H134 4821   5.281   9.228   1.590  0.0024  0.0653  0.0245
   12CHTO   C84 4822   5.358   9.318   1.365 -0.8143  0.7558  1.3412
   12CHTO  H156 4823   5.293   9.239   1.327 -0.3247  0.4128  1.2154
   12CHTO   N15 4824   5.481   9.269   1.428  0.4621  0.0732  0.3038
   12CHTO  H143 4825   5.543   9.229   1.350  0.0856  0.5555 -0.2486
   12CHTO  H144 4826   5.538   9.336   1.489 -2.7399  0.2244  3.2458
   12CHTO   C87 4827   5.386   9.425   1.252 -0.2084  1.2815  1.1552
   12CHTO  H159 4828   5.442   9.507   1.298  1.5755  1.0535 -0.5837
   12CHTO   O53 4829   5.254   9.473   1.202  0.7625  0.4505 -0.2886
   12CHTO   C82 4830   5.181   9.552   1.296 -0.6156  0.0810 -0.5788
   12CHTO  H154 4831   5.248   9.629   1.335 -0.4554 -0.2362 -0.2280
   12CHTO   C89 4832   5.053   9.626   1.243  0.0817  0.5002  0.3924
   12CHTO   O59 4833   5.101   9.715   1.146 -0.3777 -0.2611  0.2358
   12CHTO  H137 4834   5.086   9.669   1.065 -1.1534  0.6947 -0.1754
   12CHTO   O45 4835   5.477   9.356   1.124 -0.1842  0.1850  0.5425
   12CHTO   C67 4836   5.517   9.436   1.010 -0.4361 -1.0519  0.2607
   12CHTO  H124 4837   5.598   9.388   0.955 -0.4659  1.8205 -2.4001
   12CHTO   C65 4838   5.404   9.445   0.910  0.1253 -0.2674  0.1884
   12CHTO  H122 4839   5.310   9.462   0.963 -1.1091  0.2671 -2.1173
   12CHTO   O44 4840   5.396   9.315   0.840 -0.4817 -0.1702 -0.4237
   12CHTO  H102 4841   5.319   9.313   0.788 -0.1912  2.1083 -0.9721
   12CHTO   C63 4842   5.416   9.570   0.820  0.6151 -0.1257 -0.1187
   12CHTO  H120 4843   5.380   9.656   0.876  2.4999 -0.5658  1.8411
   12CHTO   N11 4844   5.341   9.568   0.690  0.1689 -0.1299  0.0467
   12CHTO  H108 4845   5.235   9.581   0.699  0.1103  0.2082 -1.0370
   12CHTO  H109 4846   5.371   9.488   0.626 -1.4394 -0.1638 -0.6935
   12CHTO   C61 4847   5.570   9.604   0.803  0.5776 -0.0858 -0.4947
   12CHTO  H118 4848   5.582   9.696   0.743  0.4145 -0.0232 -0.4323
   12CHTO   O40 4849   5.628   9.633   0.932 -0.1116 -0.5633  0.2851
   12CHTO   C68 4850   5.574   9.568   1.050  0.1084 -0.6955  0.1172
   12CHTO  H125 4851   5.505   9.642   1.096 -0.6621 -1.5866  0.4145
   12CHTO   C72 4852   5.687   9.545   1.154 -0.1476 -0.6904  0.2652
   12CHTO   O48 4853   5.728   9.664   1.231 -0.6127 -0.5625 -0.1441
   12CHTO  H105 4854   5.760   9.728   1.171 -2.3832  1.8852  1.4470
   12CHTO   O38 4855   5.640   9.500   0.735  0.2383  0.6208  0.0797
   12CHTO   C55 4856   5.769   9.536   0.687 -0.0618  0.0580 -0.1772
   12CHTO  H112 4857   5.809   9.618   0.750  0.9211 -0.5703  0.0319
   12CHTO   C56 4858   5.770   9.581   0.537  0.3506  0.2862  0.2555
   12CHTO  H113 4859   5.769   9.495   0.468  0.5228 -0.2002  0.8485
   12CHTO   O42 4860   5.661   9.662   0.498 -0.2450 -0.2342  0.4768
   12CHTO  H100 4861   5.638   9.631   0.413 -0.0911  0.7169  0.0805
   12CHTO   C57 4862   5.914   9.639   0.510  0.6867  0.2800  0.1479
   12CHTO  H114 4863   5.927   9.729   0.570  1.1351 -0.2560  0.8595
   12CHTO   N10 4864   5.940   9.689   0.371 -0.0200 -0.4685  0.4568
   12CHTO  H106 4865   5.873   9.634   0.307  0.7855 -0.5282 -0.3366
   12CHTO  H107 4866   5.918   9.794   0.358  0.9355 -0.4625 -1.1249
   12CHTO   C58 4867   6.026   9.540   0.552 -0.2465 -0.2809 -0.6557
   12CHTO  H115 4868   6.043   9.462   0.475  0.5172  0.6086 -1.4019
   12CHTO   O37 4869   6.005   9.483   0.675  0.2986  0.7686  0.0761
   12CHTO   C59 4870   5.876   9.416   0.702 -0.4712  0.1652  0.2587
   12CHTO  H116 4871   5.866   9.332   0.634  1.1000  0.0802  0.1063
   12CHTO   C70 4872   5.884   9.370   0.848  0.1814 -0.4745 -0.1674
   12CHTO   O46 4873   5.915   9.475   0.944 -0.0183 -0.3745  0.3535
   12CHTO  H103 4874   5.873   9.455   1.026 -0.8783 -1.3533 -0.3068
   12CHTO   O39 4875   6.175   9.631   0.578  0.4697  0.3273  0.3764
   12CHTO   C60 4876   6.285   9.530   0.573 -0.0594 -0.6743  0.2976
   12CHTO  H117 4877   6.239   9.431   0.573  0.9089 -1.1777 -2.3589
   12CHTO   C62 4878   6.382   9.559   0.452  0.0218  0.4801  0.0615
   12CHTO  H119 4879   6.321   9.557   0.359  1.0400  0.8634 -0.6358
   12CHTO   O43 4880   6.441   9.689   0.457 -0.5570 -0.9621 -0.1698
   12CHTO  H101 4881   6.376   9.756   0.470 -1.9190 -2.0126 -1.4756
   12CHTO   C66 4882   6.497   9.456   0.446  1.0798  0.5910 -0.4294
   12CHTO  H123 4883   6.454   9.356   0.440  1.6048  0.3085  0.3610
   12CHTO   N12 4884   6.581   9.465   0.323  0.2459 -0.1544 -1.0718
   12CHTO  H110 4885   6.573   9.556   0.265  0.5464  0.9288  0.5307
   12CHTO  H111 4886   6.682   9.426   0.331 -0.1909 -1.3520 -1.4601
   12CHTO   C69 4887   6.578   9.464   0.577  0.3172 -0.7023 -0.4313
   12CHTO  H126 4888   6.623   9.564   0.593 -1.8476  0.1739  0.2608
   12CHTO   O41 4889   6.480   9.432   0.689  0.4670  1.2032 -0.3207
   12CHTO   C64 4890   6.380   9.535   0.695  0.0186  0.0981  0.5249
   12CHTO  H121 4891   6.433   9.633   0.699 -0.5008  0.4098 -0.1671
   12CHTO   C71 4892   6.307   9.528   0.833  0.2893  0.1487  0.1735
   12CHTO   O47 4893   6.398   9.518   0.942 -0.1706  0.3265  0.2499
   12CHTO  H104 4894   6.386   9.586   1.006 -0.9289 -0.7200  1.2473
   12CHTO   O34 4895   6.693   9.349   0.585 -0.7308  1.0128 -0.1052
   12CHTO   C49 4896   6.801   9.274   0.689  0.2929  0.0515 -0.3850
   12CHTO   H91 4897   6.889   9.338   0.699 -1.1327  1.6911  2.4685
   12CHTO   C47 4898   6.830   9.136   0.636  0.4606 -0.2044 -0.5241
   12CHTO   H89 4899   6.896   9.090   0.712  0.8178  2.3118  0.7259
   12CHTO   O33 4900   6.896   9.155   0.506  0.1680  0.1609 -0.2987
   12CHTO   H70 4901   6.962   9.221   0.507  1.7795 -1.4222  1.1331
   12CHTO   C45 4902   6.694   9.052   0.622 -0.0400  0.1258 -0.3246
   12CHTO   H87 4903   6.643   9.081   0.529 -3.4648 -0.0946  1.3987
   12CHTO    N8 4904   6.730   8.904   0.611 -0.3437  0.4033 -0.6134
   12CHTO   H75 4905   6.832   8.892   0.643 -0.1086  0.8350 -1.1938
   12CHTO   H76 4906   6.727   8.862   0.511 -1.9814 -0.5720 -0.1776
   12CHTO   C43 4907   6.590   9.083   0.740  0.5383  0.3019 -0.0974
   12CHTO   H85 4908   6.520   9.154   0.695 -0.6055  0.2479  1.5730
   12CHTO   O29 4909   6.661   9.139   0.854 -0.1379 -0.2764  0.2901
   12CHTO   C50 4910   6.752   9.251   0.835  0.6929  0.2619  0.0257
   12CHTO   H92 4911   6.695   9.335   0.877 -0.3379  0.6456 -2.0438
   12CHTO   C54 4912   6.858   9.239   0.937 -0.3097  0.0230  1.0482
   12CHTO   O36 4913   6.810   9.187   1.060  0.1274 -0.2476  0.5389
   12CHTO   H72 4914   6.786   9.096   1.055 -1.7142  0.2842 -0.6869
   12CHTO   O27 4915   6.509   8.970   0.787  0.1897  0.7319  0.3047
   12CHTO   C37 4916   6.379   8.952   0.849  0.0402 -0.1182 -0.2403
   12CHTO   H79 4917   6.341   8.851   0.827  1.4437 -0.9525  1.0391
   12CHTO   C38 4918   6.382   8.956   1.008  0.0837  0.0024 -0.4446
   12CHTO   H80 4919   6.431   9.048   1.042  0.2831 -0.1148 -0.4158
   12CHTO   O31 4920   6.452   8.835   1.061 -0.2744  0.3797 -0.3129
   12CHTO   H68 4921   6.430   8.754   1.018  1.9585 -0.2641 -0.3115
   12CHTO   C39 4922   6.229   8.951   1.070  0.3678 -0.0527  0.3763
   12CHTO   H81 4923   6.183   8.865   1.021  0.3394  0.5380 -0.6561
   12CHTO    N7 4924   6.222   8.953   1.219 -0.2962 -0.6521 -0.7719
   12CHTO   H73 4925   6.117   8.953   1.245  0.0876 -0.0861  0.7898
   12CHTO   H74 4926   6.288   8.870   1.241 -1.6239 -1.8306 -1.1194
   12CHTO   C40 4927   6.165   9.080   0.999 -0.4778  0.3682 -0.1950
   12CHTO   H82 4928   6.218   9.173   1.021 -0.1365 -0.6611  3.7065
   12CHTO   O26 4929   6.152   9.053   0.857 -0.1584 -0.1712 -0.3613
   12CHTO   C41 4930   6.281   9.061   0.793  0.0100 -0.3312  1.4594
   12CHTO   H83 4931   6.322   9.162   0.801  0.4208 -0.4634  1.0006
   12CHTO   C52 4932   6.258   9.026   0.644  0.0565 -0.3043  0.8204
   12CHTO   O35 4933   6.208   9.148   0.583 -0.5410  0.5815  0.0694
   12CHTO   H71 4934   6.174   9.129   0.497 -2.1273  2.6164  0.2197
   12CHTO   O28 4935   6.031   9.103   1.048  0.2589 -0.0105  0.0128
   12CHTO   C42 4936   5.909   9.020   1.028  0.3515 -0.1632  0.8288
   12CHTO   H84 4937   5.910   8.935   1.096 -1.0441 -0.1425  0.9107
   12CHTO   C44 4938   5.875   8.959   0.893  0.1676 -0.3360 -0.0787
   12CHTO   H86 4939   5.869   9.041   0.821  2.0525 -0.6624 -0.6218
   12CHTO   O32 4940   5.980   8.863   0.854  0.4247  0.2693 -0.5852
   12CHTO   H69 4941   6.009   8.806   0.923  1.2864  0.4988 -0.7444
   12CHTO   C48 4942   5.740   8.879   0.888  0.1379  0.2084  0.2962
   12CHTO   H90 4943   5.755   8.803   0.964 -0.1787  0.4573  0.6123
   12CHTO    N9 4944   5.702   8.798   0.763  0.4604 -0.0377  0.3202
   12CHTO   H77 4945   5.778   8.790   0.686 -0.8631  0.1649 -1.0232
   12CHTO   H78 4946   5.653   8.704   0.780 -2.6349  1.6784  1.3532
   12CHTO   C51 4947   5.625   8.978   0.938  0.3017 -0.3681  0.0435
   12CHTO   H93 4948   5.605   9.055   0.863  2.7868 -0.0299 -0.3121
   12CHTO   O30 4949   5.663   9.034   1.064 -0.0451 -0.2067 -0.2984
   12CHTO   C46 4950   5.786   9.107   1.072  0.3550  0.4312 -0.0702
   12CHTO   H88 4951   5.783   9.194   1.005  0.0827 -0.3459 -1.0797
   12CHTO   C53 4952   5.787   9.162   1.218 -0.4378 -0.4381 -0.4483
   12CHTO   O72 4953   5.895   9.245   1.258  0.7138  0.1943 -0.2802
   12CHTO  H199 4954   5.959   9.199   1.308 -0.4280 -1.1635 -0.0324
   12CHTO   O22 4955   5.504   8.901   0.964  0.4379  0.0602  0.5264
   12CHTO   C31 4956   5.363   8.941   0.950  0.6781  0.3755  0.0468
   12CHTO   H59 4957   5.304   8.853   0.981 -1.0282  1.2256 -0.7532
   12CHTO   C29 4958   5.315   9.058   1.035  0.4837  0.4461  0.1632
   12CHTO   H57 4959   5.369   9.149   1.003  3.1233 -1.4580 -0.9941
   12CHTO   O21 4960   5.347   9.029   1.171 -0.0287 -0.0738  0.4460
   12CHTO   H37 4961   5.336   9.107   1.222 -0.9636  1.4527 -2.0199
   12CHTO   C27 4962   5.158   9.080   1.015 -0.4125  0.7426  0.3286
   12CHTO   H55 4963   5.104   8.998   1.065 -2.6602  2.7006  1.1944
   12CHTO    N5 4964   5.100   9.209   1.072 -0.2539  0.1571  0.3111
   12CHTO   H43 4965   5.060   9.188   1.170  0.8047  1.4423  1.0206
   12CHTO   H44 4966   5.187   9.272   1.081 -0.5411  0.2989  2.2947
   12CHTO   C25 4967   5.118   9.071   0.863 -0.4681 -0.0476 -0.2733
   12CHTO   H53 4968   5.142   9.169   0.818  1.2331  0.1991  1.0875
   12CHTO   O17 4969   5.186   8.966   0.786 -0.4945 -0.3623 -0.0393
   12CHTO   C32 4970   5.330   8.953   0.799 -0.3614 -0.5290 -0.4493
   12CHTO   H60 4971   5.382   9.041   0.761 -0.3777 -0.6881 -0.8448
   12CHTO   C36 4972   5.364   8.819   0.723 -0.0400 -0.2920 -0.1892
   12CHTO   O25 4973   5.315   8.697   0.788  0.4101  0.2940  0.0340
   12CHTO   H40 4974   5.373   8.676   0.858 -0.0199 -1.5079 -0.1369
   12CHTO   O15 4975   4.964   9.058   0.857 -0.4667 -0.0258  0.4215
   12CHTO   C19 4976   4.852   9.119   0.783  0.3843  1.3976 -0.9503
   12CHTO   H47 4977   4.871   9.226   0.795  0.4224  1.2162  0.7263
   12CHTO   C20 4978   4.835   9.089   0.628  0.0006 -0.3570 -0.1973
   12CHTO   H48 4979   4.818   8.982   0.608 -1.2537  0.4660 -3.8627
   12CHTO   O19 4980   4.958   9.132   0.565 -0.2559  0.1642 -0.1423
   12CHTO   H35 4981   4.927   9.162   0.481 -1.7956 -1.7013 -0.2730
   12CHTO   C21 4982   4.706   9.167   0.566  0.0478 -0.3847  0.4446
   12CHTO   H49 4983   4.729   9.273   0.578  1.5384 -0.7734  1.0205
   12CHTO    N4 4984   4.688   9.146   0.423  0.3423 -0.4148 -0.0345
   12CHTO   H41 4985   4.638   9.052   0.410 -2.3644  0.9015  0.5849
   12CHTO   H42 4986   4.775   9.149   0.359 -0.2433  1.7018 -0.7908
   12CHTO   C22 4987   4.577   9.143   0.650  0.9096 -0.2797  0.7898
   12CHTO   H50 4988   4.560   9.035   0.648 -1.9614  0.1688 -1.9817
   12CHTO   O14 4989   4.601   9.179   0.789 -0.3356 -0.1074 -0.2247
   12CHTO   C23 4990   4.705   9.103   0.854  0.0325  0.4137 -0.0076
   12CHTO   H51 4991   4.668   8.999   0.852  0.6116  0.1544  1.6671
   12CHTO   C34 4992   4.703   9.143   1.003 -0.0589  0.5804  0.1297
   12CHTO   O23 4993   4.580   9.117   1.073  0.1265 -0.2361 -0.3480
   12CHTO   H38 4994   4.577   9.138   1.165  0.1755  2.7679 -0.9886
   12CHTO   O16 4995   4.461   9.216   0.615  0.4198  0.1570  0.1816
   12CHTO   C24 4996   4.348   9.133   0.566 -0.5783 -0.3401 -0.0123
   12CHTO   H52 4997   4.384   9.037   0.531 -0.3949  0.5712 -2.4457
   12CHTO   C26 4998   4.279   9.194   0.446  0.9483 -0.0318 -0.5726
   12CHTO   H54 4999   4.230   9.288   0.482  2.5102  0.4032  0.4584
   12CHTO   O20 5000   4.385   9.230   0.355 -0.0164 -0.0528  0.0544
   12CHTO   H36 5001   4.431   9.307   0.383  0.5607 -0.4374  0.1778
   12CHTO   C30 5002   4.171   9.111   0.371  0.1793  0.2673  0.3799
   12CHTO   H58 5003   4.210   9.027   0.311 -0.7662 -0.7846  1.2007
   12CHTO    N6 5004   4.100   9.201   0.275  0.3136  0.1089  0.1967
   12CHTO   H45 5005   4.104   9.308   0.293  1.3670 -0.3407  2.7560
   12CHTO   H46 5006   3.997   9.174   0.256  0.4595  0.9155 -1.9348
   12CHTO   C33 5007   4.080   9.053   0.484  0.6126 -0.3727  0.4821
   12CHTO   H61 5008   4.000   9.126   0.505 -0.1273 -1.0963  0.2130
   12CHTO   O18 5009   4.137   9.018   0.611  0.3180 -0.8762 -0.0634
   12CHTO   C28 5010   4.236   9.106   0.672 -0.0353  0.5013  1.2261
   12CHTO   H56 5011   4.188   9.199   0.704 -1.7337 -0.2410  0.8939
   12CHTO   C35 5012   4.282   9.043   0.813 -0.2522 -0.4359  0.0333
   12CHTO   O24 5013   4.365   8.926   0.818  0.0468 -0.3177  0.1819
   12CHTO   H39 5014   4.444   8.938   0.867 -0.5792 -0.7821  1.3257
   12CHTO    O9 5015   4.016   8.941   0.423 -0.2486 -0.4757  0.1098
   12CHTO   C13 5016   4.083   8.794   0.413  0.2775 -0.0741 -0.0655
   12CHTO   H26 5017   4.188   8.808   0.380  0.1616  0.9570  0.0127
   12CHTO   C11 5018   3.997   8.721   0.305 -0.1081  0.2173  0.3430
   12CHTO   H24 5019   4.016   8.766   0.207 -1.0743  0.3644  0.2148
   12CHTO    O8 5020   3.861   8.729   0.326  0.7051  0.0326 -0.1214
   12CHTO    H3 5021   3.827   8.816   0.329  0.7780  0.1793 -2.7754
   12CHTO    C9 5022   4.050   8.578   0.293 -0.4565 -0.5289 -0.8558
   12CHTO   H22 5023   4.156   8.593   0.271 -0.8359  2.8859 -0.5139
   12CHTO    N2 5024   3.994   8.500   0.181  0.2446  0.4694  0.3291
   12CHTO   H10 5025   3.916   8.556   0.133 -1.0010 -0.8306  0.8057
   12CHTO   H11 5026   3.961   8.405   0.220  0.3685  0.8136  1.2861
   12CHTO    C7 5027   4.040   8.499   0.433  0.0888 -0.0792  0.2858
   12CHTO   H20 5028   4.104   8.412   0.406 -1.0640 -0.4011 -1.4669
   12CHTO    O4 5029   4.096   8.568   0.544 -0.5042  0.0418  0.3724
   12CHTO   C14 5030   4.083   8.712   0.557 -0.0845  0.7559  0.2276
   12CHTO   H27 5031   4.175   8.733   0.617 -0.0049  1.0597 -0.0023
   12CHTO   C18 5032   3.958   8.746   0.645  0.2101  0.3102 -0.1474
   12CHTO   O13 5033   3.957   8.693   0.778  0.3523 -0.7771  0.2106
   12CHTO    H7 5034   3.868   8.693   0.808 -0.0702  0.1125 -1.0163
   12CHTO    O2 5035   3.874   8.433   0.470 -0.0717 -0.7626  0.3196
   12CHTO    C1 5036   3.865   8.347   0.584  0.5421 -0.2239  0.1899
   12CHTO   H14 5037   3.919   8.385   0.673 -1.9583 -0.6414  1.9678
   12CHTO    C2 5038   3.900   8.195   0.553  0.1693  0.0976 -0.4438
   12CHTO   H15 5039   3.842   8.169   0.464 -2.1234  0.0992  1.0017
   12CHTO    O6 5040   4.036   8.178   0.528  0.2202 -0.3407  0.3370
   12CHTO    H1 5041   4.061   8.090   0.511 -1.3881 -0.6877 -0.2898
   12CHTO    C3 5042   3.858   8.103   0.681 -0.1805 -0.3101 -0.3147
   12CHTO   H16 5043   3.930   8.125   0.761 -1.6868 -0.3610  1.0877
   12CHTO    N1 5044   3.863   7.953   0.647  0.2125 -0.1558  0.1169
   12CHTO    H8 5045   3.780   7.926   0.583  0.0746 -0.4973  0.4364
   12CHTO    H9 5046   3.859   7.891   0.735  2.0419  0.6966  0.8270
   12CHTO    C4 5047   3.713   8.141   0.744  0.1661  0.0528  0.1498
   12CHTO   H17 5048   3.642   8.098   0.673  1.0128  2.1761 -2.0632
   12CHTO    O1 5049   3.693   8.286   0.758 -0.4255  0.5698  0.3819
   12CHTO    C5 5050   3.713   8.349   0.629 -0.1357  0.2042  0.6814
   12CHTO   H18 5051   3.661   8.294   0.551  3.0956 -1.3747 -0.4177
   12CHTO   C16 5052   3.656   8.498   0.638 -0.2551  0.2301 -0.5860
   12CHTO   O11 5053   3.518   8.495   0.670  0.0549  0.6046 -0.9229
   12CHTO    H5 5054   3.468   8.505   0.591  2.4386  1.9551 -2.2919
   12CHTO    O3 5055   3.702   8.076   0.877 -0.1558 -0.3350 -0.4049
   12CHTO    C6 5056   3.563   8.036   0.908  0.1241  0.1849  0.1806
   12CHTO   H19 5057   3.487   8.087   0.849 -2.0800 -2.1277  0.8897
   12CHTO    C8 5058   3.552   7.881   0.877  1.2446  0.4423 -0.2637
   12CHTO   H21 5059   3.647   7.835   0.905  0.8277 -0.0506  0.3831
   12CHTO    O7 5060   3.557   7.857   0.732  0.2446  0.2258  0.0415
   12CHTO    H2 5061   3.628   7.883   0.677 -0.2885 -0.2311 -0.8818
   12CHTO   C12 5062   3.426   7.815   0.944  0.6521 -0.5772  0.0816
   12CHTO   H25 5063   3.328   7.839   0.897 -0.2646 -1.1102  1.6788
   12CHTO    N3 5064   3.430   7.667   0.931 -0.2066 -0.0128 -0.6693
   12CHTO   H12 5065   3.514   7.627   0.986 -0.2749  0.0387 -0.5281
   12CHTO   H13 5066   3.430   7.632   0.829 -1.1362 -0.2192 -0.5975
   12CHTO   C15 5067   3.421   7.868   1.090 -0.1347  0.0669 -0.0063
   12CHTO   H28 5068   3.508   7.833   1.147  0.7096 -0.0945 -1.3805
   12CHTO   O10 5069   3.304   7.826   1.174  0.0277 -0.6454 -0.6980
   12CHTO    H4 5070   3.312   7.737   1.203  2.2294 -0.3563 -0.3630
   12CHTO    O5 5071   3.414   8.010   1.089  0.6171  0.1842 -0.1583
   12CHTO   C10 5072   3.535   8.082   1.056 -0.0452  0.9088  0.0702
   12CHTO   H23 5073   3.611   8.038   1.120 -1.3036 -1.9814 -0.3093
   12CHTO   C17 5074   3.523   8.234   1.077 -0.1123  0.3203  0.0246
   12CHTO   O12 5075   3.479   8.264   1.204 -0.0358  0.2612 -0.1342
   12CHTO    H6 5076   3.475   8.357   1.217  0.3455 -0.0473  2.5630
   13CHTO  H203 5077   7.012   4.146  -0.616 -0.5554 -0.1474 -0.0361
   13CHTO   O82 5078   7.098   4.170  -0.643 -0.7002  0.7136  0.2535
   13CHTO  C123 5079   7.130   4.285  -0.558  0.1199 -0.3060 -0.0586
   13CHTO  H227 5080   7.236   4.308  -0.577  0.1059 -1.8131 -2.1510
   13CHTO   O77 5081   7.045   4.399  -0.599  0.0547  0.3912 -0.0457
   13CHTO  C118 5082   7.048   4.512  -0.514  0.6782 -0.2308 -0.2436
   13CHTO  H222 5083   7.147   4.558  -0.524  0.7793 -0.5717 -0.8305
   13CHTO  C125 5084   6.934   4.619  -0.558  1.0551  0.0978  0.6450
   13CHTO   O84 5085   6.964   4.653  -0.689 -0.3920 -0.0383  0.3532
   13CHTO  H205 5086   6.944   4.578  -0.742 -0.8591 -0.9616  1.8195
   13CHTO  C114 5087   7.017   4.482  -0.366  0.3433 -0.1244  0.7838
   13CHTO  H218 5088   6.916   4.440  -0.367  0.6348 -0.9239 -3.5144
   13CHTO  C116 5089   7.115   4.372  -0.318  0.1921  0.3784 -0.0378
   13CHTO  H220 5090   7.221   4.405  -0.331 -0.0501  0.8251 -0.9765
   13CHTO   O79 5091   7.095   4.359  -0.177  0.0143 -0.2822 -0.8798
   13CHTO  H201 5092   7.153   4.303  -0.129 -1.6982  0.0702  1.6983
   13CHTO  C120 5093   7.098   4.240  -0.403  0.0918 -1.1148 -0.1826
   13CHTO  H224 5094   6.991   4.210  -0.395  0.1212 -1.1504  0.0770
   13CHTO   N21 5095   7.185   4.129  -0.354  0.2577  0.7133  0.0003
   13CHTO  H211 5096   7.154   4.079  -0.263  4.1022  0.4840  1.2738
   13CHTO  H212 5097   7.290   4.153  -0.347 -0.0450  1.6440  1.7740
   13CHTO   O75 5098   7.032   4.605  -0.297  0.4178 -0.5510 -0.3724
   13CHTO  C112 5099   6.897   4.639  -0.200 -0.0632  0.3509 -0.0471
   13CHTO  H216 5100   6.886   4.560  -0.125 -0.5348 -0.8785 -1.3879
   13CHTO   O73 5101   6.784   4.637  -0.284  0.1476 -0.0740 -0.2630
   13CHTO  C113 5102   6.665   4.677  -0.223 -0.4496 -0.1991  0.0447
   13CHTO  H217 5103   6.633   4.609  -0.140  2.5935  0.7769  2.0868
   13CHTO  C124 5104   6.557   4.669  -0.334 -0.6917 -0.0997 -0.2904
   13CHTO   O83 5105   6.580   4.742  -0.455  0.3798 -0.2126 -0.2031
   13CHTO  H204 5106   6.523   4.815  -0.465 -0.6325 -1.0484 -0.5938
   13CHTO  C109 5107   6.682   4.823  -0.180  0.6047  0.3164  0.6715
   13CHTO  H213 5108   6.717   4.882  -0.267 -0.2348 -0.7977 -0.4357
   13CHTO  C110 5109   6.793   4.836  -0.075 -0.3841  0.2352 -0.0033
   13CHTO  H214 5110   6.760   4.782   0.014  4.0469  1.9904  2.8773
   13CHTO   O78 5111   6.813   4.970  -0.029  0.3971 -0.6922 -0.0869
   13CHTO  H200 5112   6.737   4.988   0.023  0.1695 -1.1787 -0.2418
   13CHTO  C111 5113   6.925   4.780  -0.129 -0.1140  0.5025 -0.0834
   13CHTO  H215 5114   6.960   4.852  -0.205 -0.9990  0.5907 -0.4144
   13CHTO   N19 5115   7.037   4.769  -0.027  0.5426 -0.0975  0.3147
   13CHTO  H207 5116   7.132   4.757  -0.076  0.3970  1.0170 -0.2567
   13CHTO  H208 5117   7.033   4.859   0.033  0.1818  0.2951 -0.2881
   13CHTO   O74 5118   6.550   4.876  -0.137  0.3166  0.8158 -0.6108
   13CHTO  C115 5119   6.536   5.033  -0.172 -0.3672  0.4267 -0.2713
   13CHTO  H219 5120   6.633   5.083  -0.167  0.0210 -0.2887 -0.5142
   13CHTO   O76 5121   6.474   5.064  -0.337 -0.2279 -0.5060 -0.5866
   13CHTO  C122 5122   6.342   5.016  -0.342  0.0782 -0.4312  0.6947
   13CHTO  H226 5123   6.351   4.910  -0.321 -1.5933 -0.7719 -0.2074
   13CHTO  C126 5124   6.281   5.025  -0.488  0.6811  0.6256  0.0105
   13CHTO   O85 5125   6.136   5.005  -0.495 -0.2739  0.0506 -0.1995
   13CHTO  H206 5126   6.097   5.030  -0.414  0.1135  1.4330 -0.4284
   13CHTO  C121 5127   6.247   5.091  -0.235  0.2413 -0.0678 -0.3710
   13CHTO  H225 5128   6.172   5.150  -0.291  0.6143  0.3836 -0.3962
   13CHTO   O81 5129   6.171   4.981  -0.165  0.2209 -0.0711  0.1020
   13CHTO  H202 5130   6.119   5.026  -0.102  0.9498  0.3320  0.4202
   13CHTO  C119 5131   6.324   5.181  -0.128  0.3445 -0.4692 -0.0069
   13CHTO  H223 5132   6.371   5.261  -0.185  1.6121 -1.1941  0.0057
   13CHTO  C117 5133   6.440   5.095  -0.056 -0.0838 -0.2769  0.8518
   13CHTO  H221 5134   6.406   5.006  -0.002  0.1537 -0.4512  0.7096
   13CHTO   N20 5135   6.507   5.176   0.047  0.3629 -0.3636 -0.2170
   13CHTO  H209 5136   6.497   5.124   0.141  0.3712  1.5304  0.8629
   13CHTO  H210 5137   6.613   5.184   0.030  0.3878  1.7170  0.8098
   13CHTO   O80 5138   6.227   5.266  -0.021  0.1158 -0.2867  0.1880
   13CHTO  C103 5139   6.107   5.364  -0.071 -0.9989 -0.0467  0.4625
   13CHTO  H190 5140   6.082   5.434   0.008  0.6058  0.3329  0.6528
   13CHTO  C101 5141   6.124   5.449  -0.188 -0.4347 -1.4120  0.3675
   13CHTO  H188 5142   6.152   5.383  -0.270 -0.5214 -0.3365 -0.5414
   13CHTO   O68 5143   6.234   5.561  -0.160 -0.2402 -0.1893 -0.3566
   13CHTO  H168 5144   6.316   5.520  -0.178 -0.8744 -1.1799 -1.0387
   13CHTO   C99 5145   5.988   5.516  -0.231 -0.6177 -0.2200 -0.2417
   13CHTO  H186 5146   5.953   5.591  -0.158 -0.1659  0.8315 -1.0878
   13CHTO   N17 5147   6.005   5.598  -0.354 -0.3291  0.5737 -0.0524
   13CHTO  H174 5148   5.932   5.568  -0.428 -1.6846  2.2286  0.5761
   13CHTO  H175 5149   6.018   5.703  -0.334  1.5099  0.1882  0.8769
   13CHTO   C97 5150   5.876   5.415  -0.244 -0.0861  0.3437  0.0543
   13CHTO  H184 5151   5.895   5.347  -0.329  0.5008  0.1699  0.3237
   13CHTO   O64 5152   5.869   5.347  -0.121  0.1666  0.4244 -0.7657
   13CHTO  C104 5153   5.981   5.269  -0.090 -0.2483 -0.0933 -0.3555
   13CHTO  H191 5154   6.005   5.199  -0.170 -0.6698 -0.3047 -0.3009
   13CHTO  C108 5155   5.941   5.179   0.029 -0.4491 -0.1743 -0.6862
   13CHTO   O71 5156   5.831   5.093  -0.002 -0.1021  0.2405 -0.5209
   13CHTO  H171 5157   5.816   5.032   0.067 -1.6145  2.1542  0.9089
   13CHTO   O62 5158   5.747   5.475  -0.252 -0.0014 -0.0082  0.6451
   13CHTO   C91 5159   5.637   5.399  -0.301  0.0857  0.2077 -0.8451
   13CHTO  H178 5160   5.654   5.293  -0.285  1.5425  0.5849  0.1587
   13CHTO   C92 5161   5.619   5.429  -0.454  0.5182  0.5122 -0.4004
   13CHTO  H179 5162   5.610   5.539  -0.461  0.4776  0.4869 -0.7523
   13CHTO   O66 5163   5.735   5.383  -0.514  0.7356  0.0160  0.4780
   13CHTO  H166 5164   5.711   5.411  -0.600  0.3846  0.2724  0.6568
   13CHTO   C93 5165   5.498   5.353  -0.512 -0.1762 -0.9916  0.2310
   13CHTO  H180 5166   5.522   5.246  -0.497 -0.2136 -1.2338 -1.3628
   13CHTO   N16 5167   5.483   5.380  -0.657  0.7550 -0.1963  0.3384
   13CHTO  H172 5168   5.404   5.454  -0.666  1.6317  0.7380  0.2809
   13CHTO  H173 5169   5.455   5.288  -0.706 -0.3252  0.3509 -0.0901
   13CHTO   C94 5170   5.368   5.386  -0.431  0.3714  1.2272 -0.6424
   13CHTO  H181 5171   5.345   5.492  -0.427  0.7952  1.2911  0.2391
   13CHTO   O61 5172   5.386   5.363  -0.289  0.3567  0.5578  0.0568
   13CHTO   C95 5173   5.497   5.435  -0.230 -0.6869 -0.3622 -0.0799
   13CHTO  H182 5174   5.489   5.542  -0.248 -1.2560  0.0905  2.6166
   13CHTO  C106 5175   5.491   5.411  -0.075 -0.2929 -0.6536 -1.0266
   13CHTO   O69 5176   5.369   5.469  -0.029  0.1790 -0.0696  0.4777
   13CHTO  H169 5177   5.361   5.485   0.064 -0.0480  3.8321 -0.1150
   13CHTO   O63 5178   5.242   5.288  -0.485  0.4117  0.1453 -0.3503
   13CHTO   C96 5179   5.100   5.287  -0.402 -0.4075  1.1282  0.3407
   13CHTO  H183 5180   5.040   5.207  -0.446  3.3491 -1.5312 -0.1688
   13CHTO   C98 5181   5.025   5.423  -0.401 -0.2768  0.1060 -0.2262
   13CHTO  H185 5182   5.095   5.495  -0.356  2.8562 -2.4129 -0.8546
   13CHTO   O67 5183   5.009   5.460  -0.541 -0.1271 -0.3207  0.0202
   13CHTO  H167 5184   4.963   5.394  -0.589 -2.5942 -0.1602  2.0220
   13CHTO  C102 5185   4.889   5.419  -0.318  0.6128 -0.4778 -0.2771
   13CHTO  H189 5186   4.819   5.360  -0.379 -1.4032  1.7921 -0.2399
   13CHTO   N18 5187   4.826   5.550  -0.300 -0.5102  0.3891  0.7320
   13CHTO  H176 5188   4.835   5.601  -0.395  1.1088  2.6133  2.0239
   13CHTO  H177 5189   4.863   5.611  -0.219  0.9573  2.5037 -1.4386
   13CHTO  C105 5190   4.910   5.342  -0.186  0.3962 -0.4455 -0.2171
   13CHTO  H192 5191   4.958   5.409  -0.114 -1.7953  0.7550  0.1818
   13CHTO   O65 5192   4.990   5.224  -0.195 -0.2620 -0.8164 -0.1039
   13CHTO  C100 5193   5.124   5.242  -0.250 -0.6189  0.1072 -0.8381
   13CHTO  H187 5194   5.169   5.323  -0.192  0.6481 -0.1560 -1.4483
   13CHTO  C107 5195   5.202   5.111  -0.243 -0.5178  0.2647  0.0102
   13CHTO   O70 5196   5.205   5.070  -0.107 -0.0547  0.6715  0.0396
   13CHTO  H170 5197   5.261   4.995  -0.109  1.3868  1.7742 -2.5178
   13CHTO   O57 5198   4.755   5.288  -0.123 -0.3457 -0.1863  0.2289
   13CHTO   C85 5199   4.687   5.175  -0.191  0.0862  0.3748  0.1719
   13CHTO  H157 5200   4.759   5.125  -0.260  2.1912  3.1807  0.2140
   13CHTO   C83 5201   4.582   5.247  -0.291  0.1379 -0.1699 -0.0908
   13CHTO  H155 5202   4.642   5.303  -0.363 -0.9995 -1.1535 -1.8205
   13CHTO   O56 5203   4.512   5.354  -0.217  0.4192  0.6153 -0.0611
   13CHTO  H135 5204   4.425   5.372  -0.248  0.2292 -2.6932 -1.6199
   13CHTO   C81 5205   4.500   5.138  -0.369  0.1349 -0.2525 -0.6343
   13CHTO  H153 5206   4.572   5.071  -0.417 -0.4674 -1.6815  0.4141
   13CHTO   N14 5207   4.431   5.194  -0.491 -0.9503  0.3112  0.4735
   13CHTO  H141 5208   4.494   5.263  -0.543 -0.0682 -0.2296  0.8234
   13CHTO  H142 5209   4.409   5.118  -0.563  0.7300  0.8156 -0.5842
   13CHTO   C79 5210   4.416   5.054  -0.273 -0.4978  0.3819 -0.3091
   13CHTO  H151 5211   4.368   4.979  -0.335  1.2897 -0.9602 -0.1257
   13CHTO   O52 5212   4.513   4.983  -0.179  0.7939  0.1614 -0.1401
   13CHTO   C86 5213   4.602   5.071  -0.100 -0.6801 -0.0496  0.3293
   13CHTO  H158 5214   4.535   5.125  -0.031 -0.2615  1.3680 -0.3560
   13CHTO   C90 5215   4.692   4.981  -0.011  0.7816  0.3187 -0.0330
   13CHTO   O60 5216   4.807   4.944  -0.086 -0.2262  0.0715  0.3111
   13CHTO  H138 5217   4.881   4.954  -0.028 -0.5165  0.4343  0.6238
   13CHTO   O50 5218   4.318   5.126  -0.201 -0.4586 -0.0049  0.2476
   13CHTO   C73 5219   4.175   5.109  -0.217  0.2415 -0.7499 -0.2507
   13CHTO  H145 5220   4.158   5.036  -0.297  0.8869 -1.0346 -0.1313
   13CHTO   C74 5221   4.102   5.234  -0.264 -0.1947  0.1037  0.1594
   13CHTO  H146 5222   4.148   5.254  -0.362 -0.0931  0.8818  0.3595
   13CHTO   O54 5223   3.960   5.218  -0.284  0.2562 -0.0975  0.1209
   13CHTO  H133 5224   3.940   5.182  -0.369  1.4500 -1.4819  0.4069
   13CHTO   C75 5225   4.134   5.344  -0.161  0.0955  0.2886  0.0684
   13CHTO  H147 5226   4.241   5.352  -0.139  0.0772  2.0706 -0.3986
   13CHTO   N13 5227   4.097   5.479  -0.205 -0.3134  0.0745  0.8175
   13CHTO  H139 5228   4.008   5.465  -0.265  1.1006 -1.0005 -1.0683
   13CHTO  H140 5229   4.053   5.528  -0.119  1.9779  1.9409  0.9587
   13CHTO   C76 5230   4.074   5.297  -0.014  0.0921 -0.1715  0.6965
   13CHTO  H148 5231   3.965   5.292  -0.020  0.0719 -0.3529  1.2209
   13CHTO   O49 5232   4.126   5.164   0.020 -0.1619 -0.1184 -0.3038
   13CHTO   C77 5233   4.113   5.064  -0.081 -0.1549  0.1324  0.7820
   13CHTO  H149 5234   4.006   5.045  -0.094 -0.2459  1.1056 -0.0087
   13CHTO   C88 5235   4.173   4.937  -0.021 -0.8743 -0.0958 -0.2310
   13CHTO   O58 5236   4.315   4.948   0.015  0.6102 -0.0289  0.1056
   13CHTO  H136 5237   4.375   4.888  -0.025  0.5905 -0.5430  0.8326
   13CHTO   O51 5238   4.122   5.402   0.107  0.2033 -0.6300  0.0353
   13CHTO   C78 5239   4.287   5.410   0.183 -0.2341  0.1332 -0.8428
   13CHTO  H150 5240   4.286   5.464   0.280  2.0126  1.3304 -1.4613
   13CHTO   C80 5241   4.386   5.486   0.088  0.7066 -0.1068  0.5058
   13CHTO  H152 5242   4.390   5.434  -0.010 -1.4959 -1.0659  0.8742
   13CHTO   O55 5243   4.342   5.624   0.083  0.2231 -0.0096  0.1353
   13CHTO  H134 5244   4.256   5.644   0.053  0.2798  1.0765  0.7082
   13CHTO   C84 5245   4.527   5.487   0.152 -0.8218  0.8427 -0.5128
   13CHTO  H156 5246   4.527   5.525   0.254  1.3371 -0.7618  0.1067
   13CHTO   N15 5247   4.621   5.560   0.072 -0.2069 -0.3301  0.1278
   13CHTO  H143 5248   4.707   5.601   0.121 -2.3567  1.2372  2.7859
   13CHTO  H144 5249   4.575   5.636   0.013  0.3884 -0.8403 -1.0015
   13CHTO   C87 5250   4.583   5.344   0.169 -0.2921  0.4845 -0.7274
   13CHTO  H159 5251   4.608   5.301   0.072 -0.7510  2.8989 -1.9635
   13CHTO   O53 5252   4.468   5.258   0.265 -0.9506 -0.3423  0.6287
   13CHTO   C82 5253   4.337   5.261   0.209 -0.5786 -0.3273  0.2655
   13CHTO  H154 5254   4.339   5.194   0.123 -1.1136 -0.7130  0.5513
   13CHTO   C89 5255   4.236   5.201   0.308 -0.1934  0.4847 -0.4534
   13CHTO   O59 5256   4.243   5.059   0.317  0.6395  0.0810  0.0255
   13CHTO  H137 5257   4.329   5.033   0.289  0.5524  0.0399 -0.2046
   13CHTO   O45 5258   4.693   5.349   0.274  0.4671  0.3077  0.5989
   13CHTO   C67 5259   4.779   5.234   0.278 -0.1067  0.6997  0.3701
   13CHTO  H124 5260   4.718   5.150   0.245 -1.9316  0.6837  3.5647
   13CHTO   C65 5261   4.909   5.242   0.192 -0.0271  1.4580  1.1298
   13CHTO  H122 5262   4.864   5.271   0.097 -0.9269 -0.4183  0.9442
   13CHTO   O44 5263   4.980   5.120   0.168  0.5741  0.1287  0.5026
   13CHTO  H102 5264   5.012   5.087   0.250 -1.8213 -0.5220  1.2174
   13CHTO   C63 5265   4.994   5.360   0.248  1.3488 -0.4009 -0.0291
   13CHTO  H120 5266   4.927   5.445   0.258  0.8929 -1.1628  3.9724
   13CHTO   N11 5267   5.112   5.405   0.165  0.9332  0.3473 -0.4870
   13CHTO  H108 5268   5.175   5.473   0.220 -0.6240  1.6550 -0.2815
   13CHTO  H109 5269   5.179   5.325   0.143 -0.9221 -0.8389 -1.8427
   13CHTO   C61 5270   5.023   5.323   0.399  0.1954  0.3885 -0.2329
   13CHTO  H118 5271   5.086   5.402   0.443 -0.2205 -0.6254  2.2396
   13CHTO   O40 5272   4.906   5.306   0.480  0.0795 -0.4520  0.0452
   13CHTO   C68 5273   4.805   5.211   0.425  0.1127  0.3861  0.5266
   13CHTO  H125 5274   4.705   5.229   0.468  0.1579  0.9688  0.3944
   13CHTO   C72 5275   4.847   5.066   0.466 -0.0930 -0.0882 -0.5772
   13CHTO   O48 5276   4.724   4.994   0.454 -0.2192 -0.2161 -0.1241
   13CHTO  H105 5277   4.752   4.906   0.472  3.2236  0.6388 -1.0244
   13CHTO   O38 5278   5.102   5.201   0.406  0.0919 -0.5965  0.3056
   13CHTO   C55 5279   5.209   5.200   0.500  0.7468 -0.2999 -0.6832
   13CHTO  H112 5280   5.237   5.094   0.500 -0.2927 -0.5891  0.0974
   13CHTO   C56 5281   5.170   5.253   0.653 -1.0224 -0.4767  0.3363
   13CHTO  H113 5282   5.134   5.357   0.653 -1.4070 -0.5848 -1.7311
   13CHTO   O42 5283   5.055   5.172   0.704 -0.6511 -0.8332 -0.6061
   13CHTO  H100 5284   4.985   5.169   0.641 -2.3945  2.1561  1.0623
   13CHTO   C57 5285   5.304   5.246   0.743 -0.1583  0.0250  0.6448
   13CHTO  H114 5286   5.327   5.140   0.754  0.4629  0.1192  0.2747
   13CHTO   N10 5287   5.272   5.307   0.871  0.0968 -0.2732 -0.0850
   13CHTO  H106 5288   5.187   5.372   0.860 -0.3712 -0.1355  3.5904
   13CHTO  H107 5289   5.237   5.226   0.934  0.7238 -0.7791 -0.3827
   13CHTO   C58 5290   5.417   5.313   0.663  0.4714  0.3624 -0.4516
   13CHTO  H115 5291   5.387   5.418   0.642  0.3038  0.4133  0.0421
   13CHTO   O37 5292   5.433   5.237   0.542  0.0500 -0.3418 -0.5266
   13CHTO   C59 5293   5.327   5.272   0.448 -0.3748  0.1174  0.0289
   13CHTO  H116 5294   5.307   5.379   0.454  0.8876  0.3695 -0.1079
   13CHTO   C70 5295   5.377   5.214   0.316 -0.3025  0.2349 -0.1766
   13CHTO   O46 5296   5.502   5.258   0.250 -0.1734 -0.3124  0.1892
   13CHTO  H103 5297   5.575   5.238   0.305 -0.1550  0.9263  0.6321
   13CHTO   O39 5298   5.550   5.299   0.740 -0.0485  0.4280  0.4651
   13CHTO   C60 5299   5.641   5.402   0.700 -0.2986 -0.0863  0.3221
   13CHTO  H117 5300   5.625   5.431   0.596  0.6351  0.1364  0.2322
   13CHTO   C62 5301   5.626   5.525   0.795 -0.8257  0.2693 -0.3028
   13CHTO  H119 5302   5.529   5.574   0.772  0.2760  2.9695  0.6130
   13CHTO   O43 5303   5.641   5.475   0.930  0.2821  0.4435 -0.7057
   13CHTO  H101 5304   5.732   5.455   0.941 -0.3110 -1.2251  1.4180
   13CHTO   C66 5305   5.739   5.633   0.761 -0.3466  0.4574  1.0540
   13CHTO  H123 5306   5.712   5.671   0.662  1.2177 -1.2309 -0.0438
   13CHTO   N12 5307   5.737   5.750   0.860  0.1142 -0.4021 -0.1284
   13CHTO  H110 5308   5.731   5.842   0.804  0.1759 -0.0853  0.3830
   13CHTO  H111 5309   5.655   5.747   0.930 -0.4021 -0.1495 -0.7150
   13CHTO   C69 5310   5.876   5.565   0.752  0.3676  0.8903  0.6067
   13CHTO  H126 5311   5.902   5.535   0.856  1.0780 -1.4753 -0.2323
   13CHTO   O41 5312   5.881   5.438   0.653 -0.1179 -0.6465  0.3573
   13CHTO   C64 5313   5.780   5.330   0.700 -0.2307  0.1114 -0.6180
   13CHTO  H121 5314   5.811   5.287   0.798 -1.8476 -1.1242 -0.6283
   13CHTO   C71 5315   5.790   5.214   0.605  0.3653  0.0636  0.0337
   13CHTO   O47 5316   5.919   5.159   0.624  0.5865 -0.0752  0.3399
   13CHTO  H104 5317   5.944   5.089   0.566  0.4072 -0.5546  0.8431
   13CHTO   O34 5318   5.991   5.672   0.693 -0.3223 -0.1196  0.0640
   13CHTO   C49 5319   6.147   5.703   0.736 -0.6617 -0.4271 -0.5518
   13CHTO   H91 5320   6.201   5.610   0.723 -2.0085 -0.7858 -3.9215
   13CHTO   C47 5321   6.168   5.747   0.883 -0.1382 -0.1050  0.1162
   13CHTO   H89 5322   6.275   5.729   0.902  0.4227  3.0918  0.2481
   13CHTO   O33 5323   6.088   5.663   0.970 -0.4695 -0.1810  0.4949
   13CHTO   H70 5324   6.117   5.673   1.058  0.5150 -0.4207  0.2060
   13CHTO   C45 5325   6.140   5.904   0.913 -0.2029  0.0448  0.1415
   13CHTO   H87 5326   6.054   5.914   0.980  1.3144 -1.2674  2.3543
   13CHTO    N8 5327   6.257   5.953   0.990  0.1698 -0.0357 -0.1907
   13CHTO   H75 5328   6.258   6.061   0.986 -1.1292  0.0009  0.2300
   13CHTO   H76 5329   6.247   5.932   1.096  2.5151  3.1094  0.7406
   13CHTO   C43 5330   6.104   5.983   0.783  0.4656  0.1279 -0.2324
   13CHTO   H85 5331   6.004   5.951   0.756 -0.0962  0.7551  1.0687
   13CHTO   O29 5332   6.203   5.952   0.684 -0.0226 -0.4509 -0.6819
   13CHTO   C50 5333   6.213   5.814   0.648 -0.3356  0.2664  0.1428
   13CHTO   H92 5334   6.169   5.804   0.548 -0.6540 -1.5657  0.4550
   13CHTO   C54 5335   6.367   5.793   0.624  0.6649  0.0126  0.0864
   13CHTO   O36 5336   6.413   5.875   0.513 -0.2319  0.5491 -0.5831
   13CHTO   H72 5337   6.366   5.863   0.433  1.7934  1.2658 -1.8983
   13CHTO   O27 5338   6.096   6.123   0.801  0.4309 -0.2632 -0.7329
   13CHTO   C37 5339   5.985   6.215   0.792  0.3277  0.8501 -0.1358
   13CHTO   H79 5340   5.921   6.178   0.710  1.7994  0.8797 -1.3218
   13CHTO   C38 5341   5.904   6.204   0.929 -0.3685 -0.7190  0.0824
   13CHTO   H80 5342   5.980   6.194   1.007  2.5114 -0.4598 -2.6076
   13CHTO   O31 5343   5.821   6.085   0.928 -0.3024  0.2903  0.1389
   13CHTO   H68 5344   5.789   6.062   1.013 -2.1964  1.0121 -0.3428
   13CHTO   C39 5345   5.805   6.326   0.945 -0.1320  0.4053 -0.3848
   13CHTO   H81 5346   5.718   6.313   0.881  0.3344 -0.2825 -0.8918
   13CHTO    N7 5347   5.740   6.340   1.080 -0.1224 -0.6793  0.2971
   13CHTO   H73 5348   5.798   6.288   1.155 -1.2959  0.1662  1.8289
   13CHTO   H74 5349   5.697   6.436   1.106  0.6504  0.1419 -1.3759
   13CHTO   C40 5350   5.872   6.459   0.899 -0.0442 -0.1196  0.9178
   13CHTO   H82 5351   5.949   6.486   0.971 -0.5653  1.1588  1.0199
   13CHTO   O26 5352   5.925   6.445   0.766  0.7634 -0.5527 -0.2515
   13CHTO   C41 5353   6.034   6.352   0.753  1.1061 -0.5330  0.2496
   13CHTO   H83 5354   6.121   6.377   0.815 -0.5164 -0.5281  2.5817
   13CHTO   C52 5355   6.081   6.338   0.603 -0.6354 -0.3046 -0.0250
   13CHTO   O35 5356   6.115   6.464   0.549  0.0475 -0.8450  0.2839
   13CHTO   H71 5357   6.190   6.453   0.494  1.0903  3.0566  0.7048
   13CHTO   O28 5358   5.782   6.575   0.899 -0.0348 -0.1247 -0.1608
   13CHTO   C42 5359   5.831   6.705   0.841 -0.8109  0.5811 -0.1571
   13CHTO   H84 5360   5.923   6.681   0.788  0.4222  1.6385  1.4926
   13CHTO   C44 5361   5.855   6.814   0.955  0.3169  0.2699  0.6930
   13CHTO   H86 5362   5.757   6.842   0.992 -0.6909 -1.4844 -0.5676
   13CHTO   O32 5363   5.951   6.756   1.047  0.1114 -0.5508 -0.0091
   13CHTO   H69 5364   5.961   6.822   1.113 -2.1298  0.8921 -1.0529
   13CHTO   C48 5365   5.908   6.948   0.884  0.0071  0.1709 -0.2497
   13CHTO   H90 5366   5.998   6.936   0.823  0.8879 -2.4207  1.4621
   13CHTO    N9 5367   5.944   7.051   0.989 -0.0541  0.5072 -0.1712
   13CHTO   H77 5368   5.862   7.120   0.999 -1.6854 -1.5485  1.2105
   13CHTO   H78 5369   5.962   7.003   1.085  1.3257  1.1997 -0.0631
   13CHTO   C51 5370   5.803   6.989   0.781 -0.1158 -0.2850 -0.3202
   13CHTO   H93 5371   5.707   7.011   0.828  0.2102 -0.7362  0.5483
   13CHTO   O30 5372   5.789   6.885   0.683 -0.1346 -0.0500  0.1290
   13CHTO   C46 5373   5.730   6.764   0.736 -0.3629 -0.3980  0.1548
   13CHTO   H88 5374   5.642   6.803   0.788 -1.6007 -0.3966 -1.8873
   13CHTO   C53 5375   5.683   6.659   0.628  0.0614  1.1862  0.9800
   13CHTO   O72 5376   5.588   6.714   0.539  0.3461  0.0681  0.0255
   13CHTO  H199 5377   5.556   6.648   0.480  0.4392  1.3562 -1.4969
   13CHTO   O22 5378   5.842   7.106   0.701  0.6048  0.6556  0.3807
   13CHTO   C31 5379   5.733   7.181   0.635 -0.2918 -0.2017 -0.4429
   13CHTO   H59 5380   5.783   7.250   0.564  1.2939  0.7146  1.5007
   13CHTO   C29 5381   5.625   7.101   0.558 -0.1820  0.2396 -0.6432
   13CHTO   H57 5382   5.592   7.045   0.647 -0.6538  0.4814 -0.6647
   13CHTO   O21 5383   5.702   7.012   0.473 -0.1406  0.2531  0.6487
   13CHTO   H37 5384   5.734   6.933   0.511  2.3546  1.1663  0.5534
   13CHTO   C27 5385   5.505   7.183   0.505  0.0035  0.0778 -0.4168
   13CHTO   H55 5386   5.542   7.263   0.439 -0.6897  0.4281 -0.3840
   13CHTO    N5 5387   5.415   7.098   0.428  0.2085  0.3162  0.0020
   13CHTO   H43 5388   5.365   7.028   0.494  1.0631 -1.7132 -1.4226
   13CHTO   H44 5389   5.337   7.163   0.391 -0.8757 -0.6100  0.6287
   13CHTO   C25 5390   5.446   7.268   0.623 -0.7864  0.0056 -0.2717
   13CHTO   H53 5391   5.393   7.213   0.702 -0.8058  0.9036  0.3441
   13CHTO   O17 5392   5.547   7.346   0.688  0.0343 -0.1947  0.6191
   13CHTO   C32 5393   5.658   7.269   0.743  0.5968  0.0102 -0.2614
   13CHTO   H60 5394   5.619   7.205   0.822  0.4393  0.0074 -0.3423
   13CHTO   C36 5395   5.750   7.364   0.820  0.1425 -0.2166  0.1632
   13CHTO   O25 5396   5.842   7.438   0.739  0.1134 -0.0124 -0.1308
   13CHTO   H40 5397   5.910   7.469   0.796  0.7172 -0.3130 -0.6755
   13CHTO   O15 5398   5.345   7.359   0.575  0.4802 -0.5979 -0.1472
   13CHTO   C19 5399   5.240   7.457   0.541  0.0981  0.4490  0.5283
   13CHTO   H47 5400   5.228   7.515   0.633  1.8557  1.5012  0.1128
   13CHTO   C20 5401   5.266   7.544   0.419  0.9904 -0.1842 -0.0241
   13CHTO   H48 5402   5.261   7.487   0.325 -0.9100 -0.6990  0.3654
   13CHTO   O19 5403   5.397   7.595   0.434  0.1949 -0.0487 -0.1979
   13CHTO   H35 5404   5.403   7.678   0.477 -1.0310  0.2784 -0.6320
   13CHTO   C21 5405   5.155   7.649   0.410 -0.3276 -0.8996 -0.3841
   13CHTO   H49 5406   5.143   7.698   0.507 -4.2330 -1.5547 -0.4902
   13CHTO    N4 5407   5.177   7.744   0.299 -0.7990 -0.1829 -0.1670
   13CHTO   H41 5408   5.101   7.820   0.303  1.7867  2.3978  1.7305
   13CHTO   H42 5409   5.270   7.791   0.327 -0.5184  0.2516 -1.7738
   13CHTO   C22 5410   5.016   7.577   0.399  0.2902 -0.0556 -0.2805
   13CHTO   H50 5411   5.016   7.525   0.303  0.3807 -0.4204 -0.0851
   13CHTO   O14 5412   4.998   7.488   0.510  0.5301 -0.4999  0.2275
   13CHTO   C23 5413   5.099   7.385   0.519 -0.3040  0.2140  0.6950
   13CHTO   H51 5414   5.095   7.326   0.426 -0.5981 -1.0349  1.4856
   13CHTO   C34 5415   5.054   7.286   0.627 -0.4077  0.2502  0.4400
   13CHTO   O23 5416   5.125   7.163   0.645 -0.0320 -0.0753 -0.3569
   13CHTO   H38 5417   5.214   7.192   0.643 -0.1202  0.1952 -0.3929
   13CHTO   O16 5418   4.897   7.655   0.411  0.3927  0.2796 -0.0553
   13CHTO   C24 5419   4.759   7.589   0.435  0.4019  0.0167 -0.4664
   13CHTO   H52 5420   4.763   7.485   0.467 -0.9237  0.5131  1.3941
   13CHTO   C26 5421   4.682   7.604   0.302 -0.5009 -0.5344  0.7018
   13CHTO   H54 5422   4.701   7.704   0.259  1.7788 -2.0475 -1.9567
   13CHTO   O20 5423   4.752   7.513   0.212  0.3331 -0.4407  0.1552
   13CHTO   H36 5424   4.841   7.538   0.224 -0.6766  2.5583  1.9135
   13CHTO   C30 5425   4.534   7.582   0.311  0.5038 -0.2072  0.1999
   13CHTO   H58 5426   4.517   7.478   0.343  1.0865 -0.3738 -0.0171
   13CHTO    N6 5427   4.458   7.592   0.181 -0.5047 -0.3961 -0.3737
   13CHTO   H45 5428   4.523   7.595   0.094  1.2497  0.3418  0.9360
   13CHTO   H46 5429   4.399   7.682   0.175  1.2358  0.6506 -2.7206
   13CHTO   C33 5430   4.480   7.670   0.429 -0.7566 -0.4386 -0.2214
   13CHTO   H61 5431   4.502   7.776   0.413  0.4427 -0.5543  0.5884
   13CHTO   O18 5432   4.549   7.627   0.548 -0.1971  0.0658 -0.5475
   13CHTO   C28 5433   4.689   7.662   0.547  0.6430 -0.4342  0.9695
   13CHTO   H56 5434   4.699   7.768   0.526  0.3516 -0.0525  2.6889
   13CHTO   C35 5435   4.755   7.632   0.692  0.0679 -0.0437 -0.3150
   13CHTO   O24 5436   4.801   7.500   0.721  0.0877  0.6838  0.3378
   13CHTO   H39 5437   4.725   7.445   0.726  0.3229  0.4597  1.8767
   13CHTO    O9 5438   4.337   7.668   0.445 -0.4601  0.2981  0.4753
   13CHTO   C13 5439   4.281   7.540   0.519 -0.5961 -0.4955 -0.2213
   13CHTO   H26 5440   4.360   7.469   0.550 -1.0752 -0.3474  1.3829
   13CHTO   C11 5441   4.166   7.472   0.439  0.6998  0.2723 -0.5552
   13CHTO   H24 5442   4.214   7.446   0.344 -0.2614  1.8000 -1.4836
   13CHTO    O8 5443   4.058   7.562   0.409  0.3251 -0.8543 -0.8081
   13CHTO    H3 5444   4.013   7.555   0.327 -3.2005  1.8308  0.7317
   13CHTO    C9 5445   4.108   7.349   0.519  0.8312  0.8498 -0.1045
   13CHTO   H22 5446   4.191   7.283   0.547  0.2191  0.1043 -0.0185
   13CHTO    N2 5447   4.016   7.266   0.439  0.0577 -0.5549 -0.3394
   13CHTO   H10 5448   4.018   7.273   0.331 -1.2739 -2.7602 -0.5520
   13CHTO   H11 5449   3.913   7.276   0.470  0.3881 -1.3211  1.0388
   13CHTO    C7 5450   4.059   7.404   0.657  0.4431  0.8218 -0.8675
   13CHTO   H20 5451   4.120   7.351   0.734  1.4017  1.1337 -1.4033
   13CHTO    O4 5452   4.078   7.546   0.678  0.0295  0.1895 -0.2437
   13CHTO   C14 5453   4.216   7.580   0.659  0.1600  0.8751 -0.1533
   13CHTO   H27 5454   4.269   7.535   0.745 -1.6599 -1.6458 -0.2628
   13CHTO   C18 5455   4.224   7.730   0.684  0.0156  0.6730  0.3727
   13CHTO   O13 5456   4.351   7.770   0.735  0.3050  0.8753 -0.8194
   13CHTO    H7 5457   4.332   7.786   0.825  1.9142  0.2606 -0.3517
   13CHTO    O2 5458   3.903   7.359   0.692  0.2360  0.7359 -0.3280
   13CHTO    C1 5459   3.891   7.340   0.838  0.4782 -0.2765 -0.3506
   13CHTO   H14 5460   3.986   7.372   0.885 -0.2309 -0.0117  0.9292
   13CHTO    C2 5461   3.864   7.191   0.877 -0.8594 -0.7215  0.7138
   13CHTO   H15 5462   3.767   7.163   0.834  0.1629 -2.7198 -0.3891
   13CHTO    O6 5463   3.975   7.123   0.821 -0.2864 -0.1281  0.4357
   13CHTO    H1 5464   3.949   7.094   0.736  1.8988 -0.4757 -0.1465
   13CHTO    C3 5465   3.855   7.183   1.037  0.0334 -0.2378  0.1770
   13CHTO   H16 5466   3.950   7.225   1.072 -0.5426  2.1671 -1.0324
   13CHTO    N1 5467   3.839   7.043   1.083  0.3481 -0.1341 -0.2704
   13CHTO    H8 5468   3.843   6.969   1.005 -1.5503 -1.4693  0.8440
   13CHTO    H9 5469   3.737   7.043   1.118  0.6571  0.4287  0.6345
   13CHTO    C4 5470   3.750   7.279   1.098  0.0671  0.2174  0.2630
   13CHTO   H17 5471   3.649   7.239   1.087  0.8550 -1.7760  0.2087
   13CHTO    O1 5472   3.757   7.415   1.042 -0.2259  0.6400 -0.0682
   13CHTO    C5 5473   3.773   7.422   0.897 -0.4173  0.1461  0.5747
   13CHTO   H18 5474   3.684   7.389   0.843 -0.0748 -1.1532  0.7890
   13CHTO   C16 5475   3.785   7.567   0.863 -0.2534 -0.4657 -0.3205
   13CHTO   O11 5476   3.907   7.627   0.915 -0.4646  0.1249  0.1735
   13CHTO    H5 5477   3.886   7.665   0.998 -1.2909 -0.1769  0.1058
   13CHTO    O3 5478   3.775   7.296   1.239 -0.4773 -0.2387  0.1771
   13CHTO    C6 5479   3.666   7.334   1.336 -0.1277 -0.5338  0.7122
   13CHTO   H19 5480   3.571   7.345   1.285  2.1349  3.6666 -2.9855
   13CHTO    C8 5481   3.654   7.214   1.442 -0.1165 -0.4928  1.2256
   13CHTO   H21 5482   3.754   7.203   1.484  0.1409 -1.7645  0.3063
   13CHTO    O7 5483   3.610   7.101   1.365  0.7635  0.5833  0.2821
   13CHTO    H2 5484   3.651   7.023   1.397 -2.7697 -0.7972  1.7213
   13CHTO   C12 5485   3.548   7.252   1.560 -0.3622 -0.2897  1.0049
   13CHTO   H25 5486   3.449   7.247   1.511  1.2304  0.2474 -2.4148
   13CHTO    N3 5487   3.550   7.149   1.669  0.6379  0.2322  0.4244
   13CHTO   H12 5488   3.462   7.087   1.666  0.9179 -0.1228 -0.5038
   13CHTO   H13 5489   3.544   7.208   1.760 -1.2758  0.2444  0.3219
   13CHTO   C15 5490   3.578   7.395   1.610 -0.0832 -0.0058 -0.4840
   13CHTO   H28 5491   3.663   7.397   1.678 -2.7166  1.2657  2.9330
   13CHTO   O10 5492   3.449   7.454   1.694  0.0876  0.4935 -0.1475
   13CHTO    H4 5493   3.434   7.420   1.780  0.5188  0.5804 -0.0407
   13CHTO    O5 5494   3.593   7.492   1.507  0.2068  0.0141  0.4801
   13CHTO   C10 5495   3.692   7.467   1.408 -0.1289  0.1209 -0.1805
   13CHTO   H23 5496   3.785   7.460   1.466 -0.2790  0.0023  0.0470
   13CHTO   C17 5497   3.706   7.580   1.310 -0.3717  0.6523  1.0377
   13CHTO   O12 5498   3.827   7.579   1.235  0.0859 -0.6420 -0.1188
   13CHTO    H6 5499   3.850   7.667   1.212  1.3099 -0.7775  0.5544
   14CHTO  H203 5500   5.837   4.678   3.003 -0.7742 -1.9585 -0.9843
   14CHTO   O82 5501   5.878   4.729   2.935 -0.5199 -0.2823  0.3859
   14CHTO  C123 5502   5.765   4.781   2.855  0.2903 -0.2724 -0.2595
   14CHTO  H227 5503   5.797   4.850   2.776  0.7513 -0.7707 -0.5035
   14CHTO   O77 5504   5.707   4.664   2.790 -0.4064  0.1601  0.1197
   14CHTO  C118 5505   5.579   4.684   2.725  0.7894 -1.4432 -0.6031
   14CHTO  H222 5506   5.585   4.766   2.653 -1.2209  0.3238  1.1742
   14CHTO  C125 5507   5.549   4.555   2.648 -0.5050  0.4949  0.5088
   14CHTO   O84 5508   5.668   4.509   2.580  0.0914  0.1932 -0.1034
   14CHTO  H205 5509   5.647   4.441   2.518  2.8908  0.4487 -1.4209
   14CHTO  C114 5510   5.471   4.726   2.832 -0.4466 -0.0084 -0.1397
   14CHTO  H218 5511   5.481   4.659   2.917 -0.0990 -0.1189 -0.2697
   14CHTO  C116 5512   5.513   4.866   2.886  0.4470 -0.2460  0.3287
   14CHTO  H220 5513   5.511   4.937   2.800  2.0166 -1.6043 -0.8657
   14CHTO   O79 5514   5.410   4.910   2.979 -0.3831 -0.2060 -0.6000
   14CHTO  H201 5515   5.426   4.877   3.065  0.3013  1.8788  0.0921
   14CHTO  C120 5516   5.662   4.859   2.950  0.4578 -0.2912 -0.7587
   14CHTO  H224 5517   5.653   4.810   3.049 -0.2849  0.4024 -0.4730
   14CHTO   N21 5518   5.711   4.995   2.983 -0.6592 -0.6987 -0.7232
   14CHTO  H211 5519   5.633   5.063   3.015  0.4926  0.1513  0.3433
   14CHTO  H212 5520   5.795   5.003   3.052 -2.8973 -0.1734  2.0406
   14CHTO   O75 5521   5.341   4.729   2.765  0.1636 -0.0627 -0.2355
   14CHTO  C112 5522   5.230   4.633   2.815  0.3667 -0.0173  0.5174
   14CHTO  H216 5523   5.254   4.601   2.918 -0.8070  3.0093  1.7773
   14CHTO   O73 5524   5.230   4.520   2.718 -0.4273  0.0680  0.8653
   14CHTO  C113 5525   5.114   4.430   2.716 -0.0567  0.1222  0.1236
   14CHTO  H217 5526   5.106   4.357   2.799 -1.0104  0.3949  0.2788
   14CHTO  C124 5527   5.130   4.332   2.594  0.4275 -1.0491 -0.2138
   14CHTO   O83 5528   5.252   4.252   2.598  0.0741  0.1582 -0.4610
   14CHTO  H204 5529   5.304   4.257   2.521 -0.3135 -0.2816 -0.7622
   14CHTO  C109 5530   4.982   4.505   2.709 -0.4200 -0.1356  0.0508
   14CHTO  H213 5531   4.979   4.557   2.612  0.6238  2.2723  1.2675
   14CHTO  C110 5532   4.971   4.612   2.817 -0.2738 -0.1461  0.0111
   14CHTO  H214 5533   4.967   4.566   2.915 -1.8912 -1.8288 -0.8244
   14CHTO   O78 5534   4.845   4.683   2.792  0.1745 -0.4321  0.1663
   14CHTO  H200 5535   4.816   4.731   2.867  0.6083 -0.5674  0.4253
   14CHTO  C111 5536   5.091   4.709   2.816  0.2052  1.2650 -0.1432
   14CHTO  H215 5537   5.084   4.766   2.722  0.3889  2.4038  0.5211
   14CHTO   N19 5538   5.085   4.812   2.928  0.7196 -0.3615  0.6417
   14CHTO  H207 5539   5.081   4.767   3.025  0.1764 -1.4465  0.1254
   14CHTO  H208 5540   4.995   4.869   2.916  1.9098  1.6299  0.9690
   14CHTO   O74 5541   4.874   4.412   2.715 -0.2245 -0.3430  0.1703
   14CHTO  C115 5542   4.794   4.414   2.569  0.2090 -0.0365  0.3214
   14CHTO  H219 5543   4.827   4.493   2.502 -1.1329 -0.8708 -1.3589
   14CHTO   O76 5544   4.814   4.262   2.481  0.2663 -0.5394  0.1926
   14CHTO  C122 5545   4.721   4.165   2.535  0.6724 -0.3902  0.0589
   14CHTO  H226 5546   4.737   4.158   2.643  2.0318  2.5687  0.0898
   14CHTO  C126 5547   4.750   4.022   2.475 -0.0592 -0.5568  0.0577
   14CHTO   O85 5548   4.861   3.957   2.546  0.0487  0.3532  0.3044
   14CHTO  H206 5549   4.937   3.952   2.492 -0.7039 -0.8040 -0.6872
   14CHTO  C121 5550   4.581   4.215   2.503 -0.3739 -0.0619 -0.4242
   14CHTO  H225 5551   4.541   4.169   2.410  1.1048 -1.7217 -0.2441
   14CHTO   O81 5552   4.500   4.170   2.613 -0.0624  0.1974 -0.1900
   14CHTO  H202 5553   4.414   4.204   2.600 -0.2973  0.2988  1.5546
   14CHTO  C119 5554   4.559   4.369   2.488 -0.4035  0.1186 -0.1669
   14CHTO  H223 5555   4.594   4.395   2.388 -0.5531  0.1157 -0.2201
   14CHTO  C117 5556   4.644   4.438   2.599  0.5116  0.0898 -0.7580
   14CHTO  H221 5557   4.642   4.401   2.702  1.6989  0.3031 -0.6549
   14CHTO   N20 5558   4.611   4.582   2.603 -0.3074  0.7531 -0.4812
   14CHTO  H209 5559   4.585   4.613   2.703  2.2410  0.4546  0.3193
   14CHTO  H210 5560   4.685   4.645   2.556  0.0973  0.1640 -0.6285
   14CHTO   O80 5561   4.396   4.410   2.482 -0.0927 -0.7552 -0.2793
   14CHTO  C103 5562   4.329   4.440   2.347  0.1248  0.2722  0.4491
   14CHTO  H190 5563   4.403   4.483   2.279  1.5885  2.5714  3.3687
   14CHTO  C101 5564   4.257   4.327   2.270  1.0224  0.5445  0.8345
   14CHTO  H188 5565   4.188   4.275   2.337 -1.0540  1.7669 -0.2896
   14CHTO   O68 5566   4.376   4.235   2.209  0.6685 -0.2717  0.1526
   14CHTO  H168 5567   4.352   4.144   2.211 -2.9168  0.6092  1.8172
   14CHTO   C99 5568   4.169   4.376   2.146 -0.0371 -0.3328  0.4118
   14CHTO  H186 5569   4.241   4.428   2.080  0.8987 -0.1011  1.5971
   14CHTO   N17 5570   4.099   4.273   2.065  0.3806  0.8685 -0.0184
   14CHTO  H174 5571   4.008   4.255   2.121  1.0530 -0.1302  0.7781
   14CHTO  H175 5572   4.070   4.303   1.965 -0.8741 -1.3546 -0.3605
   14CHTO   C97 5573   4.078   4.492   2.200 -1.4171  0.0555 -0.4602
   14CHTO  H184 5574   4.003   4.452   2.269 -1.0366  0.8477  0.4204
   14CHTO   O64 5575   4.161   4.590   2.266  0.0201  0.1456  0.1737
   14CHTO  C104 5576   4.233   4.553   2.385  0.6163  0.1580  0.1862
   14CHTO  H191 5577   4.169   4.517   2.465  0.0981 -1.7577 -1.0780
   14CHTO  C108 5578   4.288   4.687   2.428  0.1113  1.1312  0.1903
   14CHTO   O71 5579   4.380   4.742   2.332  0.3468 -0.0493  0.1671
   14CHTO  H171 5580   4.402   4.833   2.344 -0.1747  0.1811 -0.5753
   14CHTO   O62 5581   4.028   4.576   2.098 -0.2533  0.2152  0.3331
   14CHTO   C91 5582   3.891   4.570   2.063 -0.2205  0.9259 -0.0928
   14CHTO  H178 5583   3.864   4.466   2.078  3.7985  0.0936  2.2325
   14CHTO   C92 5584   3.893   4.594   1.913 -0.3897 -0.2045 -1.1661
   14CHTO  H179 5585   3.974   4.532   1.871  0.9812  1.3127 -0.7887
   14CHTO   O66 5586   3.764   4.570   1.859  0.1384  0.2946 -0.3495
   14CHTO  H166 5587   3.757   4.477   1.847  0.0465  0.2913 -0.2729
   14CHTO   C93 5588   3.931   4.743   1.867  0.0570  0.2491 -0.2418
   14CHTO  H180 5589   3.869   4.773   1.782  1.4181  0.9866 -0.9937
   14CHTO   N16 5590   4.069   4.759   1.814 -0.2606  0.1465  0.1419
   14CHTO  H172 5591   4.070   4.757   1.706  3.3367  0.2469  0.1126
   14CHTO  H173 5592   4.136   4.682   1.848 -2.1771 -1.9554 -0.6855
   14CHTO   C94 5593   3.911   4.848   1.992  0.0466 -0.2829  0.3315
   14CHTO  H181 5594   3.996   4.841   2.060  1.2946  1.0848 -1.0474
   14CHTO   O61 5595   3.805   4.802   2.070  0.1835 -0.2850  0.0909
   14CHTO   C95 5596   3.801   4.676   2.136 -0.6152  0.7561  0.7557
   14CHTO  H182 5597   3.840   4.687   2.238  0.8968  1.2538  0.1314
   14CHTO  C106 5598   3.649   4.631   2.147 -0.7482 -0.0978  0.2280
   14CHTO   O69 5599   3.645   4.510   2.228 -0.1407 -0.4594  0.2373
   14CHTO  H169 5600   3.601   4.439   2.186 -1.4606  0.1526  0.5435
   14CHTO   O63 5601   3.885   4.996   1.940  0.0700  0.4758  0.1107
   14CHTO   C96 5602   3.859   5.102   2.043 -0.3925  0.0521  0.3815
   14CHTO  H183 5603   3.872   5.053   2.139 -0.2044  0.9573  0.8261
   14CHTO   C98 5604   3.713   5.150   2.027 -0.9702 -0.8648 -0.5355
   14CHTO  H185 5605   3.693   5.190   1.926 -1.3827 -1.0785 -0.5394
   14CHTO   O67 5606   3.622   5.037   2.050  0.1153 -0.1249 -0.0449
   14CHTO  H167 5607   3.647   4.976   2.116  0.0726  0.0951  0.1757
   14CHTO  C102 5608   3.681   5.273   2.128 -0.0147  0.2094 -0.0594
   14CHTO  H189 5609   3.693   5.230   2.228  0.5073  2.3247  0.8178
   14CHTO   N18 5610   3.542   5.327   2.127  0.6867 -0.5771 -0.1524
   14CHTO  H176 5611   3.537   5.434   2.114  0.8155 -0.1022  3.3141
   14CHTO  H177 5612   3.484   5.284   2.046  0.0568  0.1962 -0.1120
   14CHTO  C105 5613   3.792   5.377   2.117 -0.2011  0.4936  0.3459
   14CHTO  H192 5614   3.788   5.428   2.021  0.6713  2.5561  1.3833
   14CHTO   O65 5615   3.922   5.324   2.141  0.2360 -0.6130  0.0030
   14CHTO  C100 5616   3.959   5.221   2.044 -0.6476 -0.2829 -0.2769
   14CHTO  H187 5617   3.949   5.263   1.943  1.0992  0.7201 -0.0484
   14CHTO  C107 5618   4.101   5.178   2.069 -0.5612  0.3369  0.0212
   14CHTO   O70 5619   4.193   5.289   2.058  0.4549  0.4975  0.6897
   14CHTO  H170 5620   4.271   5.264   2.013 -1.0263 -0.1480 -1.6097
   14CHTO   O57 5621   3.771   5.491   2.232  0.0431 -0.5049  0.2449
   14CHTO   C85 5622   3.722   5.624   2.215 -0.1659  0.3994 -0.2269
   14CHTO  H157 5623   3.618   5.631   2.177  0.1844  1.4498 -1.0263
   14CHTO   C83 5624   3.806   5.695   2.107  0.2766 -0.4115  0.6856
   14CHTO  H155 5625   3.789   5.650   2.009  0.2288 -0.5416  0.7531
   14CHTO   O56 5626   3.944   5.683   2.134  0.6452 -0.0882  0.1540
   14CHTO  H135 5627   3.986   5.619   2.079  0.8366 -0.1474  0.3670
   14CHTO   C81 5628   3.751   5.838   2.104  0.3512  0.2264 -1.6128
   14CHTO  H153 5629   3.644   5.838   2.083 -0.0834  0.1864  0.4281
   14CHTO   N14 5630   3.804   5.906   1.988 -0.2012 -0.0794  0.4340
   14CHTO  H141 5631   3.738   5.932   1.908  1.3856 -2.0067 -1.5566
   14CHTO  H142 5632   3.878   5.983   1.999  0.5733 -0.0546 -4.0556
   14CHTO   C79 5633   3.774   5.917   2.246 -0.0068  0.1413  0.4008
   14CHTO  H151 5634   3.723   6.013   2.240  0.2102  0.4380  2.6702
   14CHTO   O52 5635   3.704   5.846   2.358 -0.6454 -0.2458 -0.1860
   14CHTO   C86 5636   3.736   5.705   2.353 -0.2724  0.3666 -0.2459
   14CHTO  H158 5637   3.839   5.701   2.394 -0.4771  1.0439  0.3423
   14CHTO   C90 5638   3.656   5.641   2.461  0.1886  0.5646 -0.0686
   14CHTO   O60 5639   3.713   5.659   2.589  0.2535 -0.1803 -0.0670
   14CHTO  H138 5640   3.726   5.748   2.616  0.6701  0.0246 -0.9157
   14CHTO   O50 5641   3.907   5.929   2.278 -0.0858 -0.5926 -0.2893
   14CHTO   C73 5642   3.968   6.028   2.358  1.2694 -0.3075 -0.1895
   14CHTO  H145 5643   3.908   6.053   2.447  2.4515  1.5752  0.0914
   14CHTO   C74 5644   4.000   6.162   2.287  0.1859  0.5552 -0.4365
   14CHTO  H146 5645   3.904   6.208   2.257  0.7458  3.2497  1.7121
   14CHTO   O54 5646   4.060   6.256   2.380 -0.2504  0.5829  0.0421
   14CHTO  H133 5647   4.015   6.338   2.387 -0.2156  0.6902 -0.9193
   14CHTO   C75 5648   4.099   6.139   2.162  0.0581 -0.0407 -0.5515
   14CHTO  H147 5649   4.052   6.073   2.087 -0.8675 -0.0525  0.0307
   14CHTO   N13 5650   4.129   6.257   2.078  0.8058  0.0955 -0.2449
   14CHTO  H139 5651   4.204   6.228   2.006  0.2532 -0.6280 -0.5329
   14CHTO  H140 5652   4.042   6.288   2.022 -0.0029 -3.6550 -1.2053
   14CHTO   C76 5653   4.231   6.064   2.219 -0.3524  0.0505  0.4318
   14CHTO  H148 5654   4.282   6.139   2.280  0.2749 -0.3207  0.3697
   14CHTO   O49 5655   4.194   5.947   2.300  0.3600  0.5909 -0.1490
   14CHTO   C77 5656   4.100   5.975   2.409 -0.1423 -0.8313 -0.0454
   14CHTO  H149 5657   4.141   6.053   2.473 -0.7362 -0.6758  0.1526
   14CHTO   C88 5658   4.091   5.852   2.503  0.0057 -0.4747  0.6280
   14CHTO   O58 5659   4.215   5.839   2.587 -0.3903 -0.4607  0.3535
   14CHTO  H136 5660   4.231   5.748   2.606 -1.9425 -0.0459  4.0851
   14CHTO   O51 5661   4.313   6.012   2.110 -0.8914 -0.1238  0.1982
   14CHTO   C78 5662   4.469   6.058   2.114  0.4263  0.1318  0.4662
   14CHTO  H150 5663   4.500   6.083   2.217 -0.5327 -1.3157  1.1333
   14CHTO   C80 5664   4.506   6.174   2.024 -0.5998 -0.7776  0.3397
   14CHTO  H152 5665   4.445   6.171   1.931 -1.3204 -0.1240  0.7904
   14CHTO   O55 5666   4.450   6.293   2.080 -0.8851  0.0391  0.0356
   14CHTO  H134 5667   4.455   6.363   2.018 -0.4544  0.6074  0.6990
   14CHTO   C84 5668   4.659   6.189   1.983 -0.5036  0.9797 -0.3913
   14CHTO  H156 5669   4.714   6.235   2.065  0.7520  3.0007 -2.3369
   14CHTO   N15 5670   4.676   6.281   1.868  0.2898  0.0396  0.0694
   14CHTO  H143 5671   4.584   6.333   1.850  1.9915  3.4338  0.7827
   14CHTO  H144 5672   4.749   6.355   1.892 -1.3522  1.9277 -0.5804
   14CHTO   C87 5673   4.715   6.048   1.946 -0.3332  0.3738 -0.3783
   14CHTO  H159 5674   4.699   6.019   1.842 -0.4091 -0.7869 -0.0542
   14CHTO   O53 5675   4.680   5.941   2.054 -0.0297 -0.1081 -0.1942
   14CHTO   C82 5676   4.539   5.923   2.068 -0.0612 -0.5952  0.4869
   14CHTO  H154 5677   4.495   5.889   1.974 -1.2706  1.0197  0.4489
   14CHTO   C89 5678   4.504   5.811   2.174 -0.1666 -0.3494 -0.2951
   14CHTO   O59 5679   4.522   5.684   2.118  0.1058  0.6245  0.0607
   14CHTO  H137 5680   4.477   5.617   2.166  0.4192  1.9186  2.2378
   14CHTO   O45 5681   4.876   6.049   1.951 -0.3725 -0.0504 -0.3497
   14CHTO   C67 5682   4.945   5.923   1.938 -0.0798 -0.3849  0.2000
   14CHTO  H124 5683   4.877   5.849   1.980  0.2282 -1.6410 -1.4603
   14CHTO   C65 5684   4.983   5.887   1.790 -0.6200  0.2951  0.2540
   14CHTO  H122 5685   4.903   5.932   1.731 -1.2157  0.0131  0.8326
   14CHTO   O44 5686   4.997   5.747   1.783 -0.0451 -0.5550  0.3630
   14CHTO  H102 5687   4.981   5.715   1.697 -2.5935 -0.6965  0.8544
   14CHTO   C63 5688   5.117   5.967   1.749 -0.0511  0.1580  0.0473
   14CHTO  H120 5689   5.101   6.074   1.756 -0.0516  0.1879 -0.4055
   14CHTO   N11 5690   5.154   5.945   1.607 -0.3990  0.6034  0.0575
   14CHTO  H108 5691   5.075   5.902   1.549  0.6344  0.4318 -1.2529
   14CHTO  H109 5692   5.163   6.042   1.564 -0.8809  1.3673  1.6679
   14CHTO   C61 5693   5.232   5.939   1.847 -0.4905  0.6874 -0.1266
   14CHTO  H118 5694   5.315   6.001   1.810 -0.0726 -1.0628 -2.2511
   14CHTO   O40 5695   5.195   5.986   1.975 -0.1828  0.2259  0.1115
   14CHTO   C68 5696   5.071   5.928   2.034  1.0590 -0.7217  0.0526
   14CHTO  H125 5697   5.058   6.002   2.116 -1.8287  0.5154 -1.4404
   14CHTO   C72 5698   5.099   5.790   2.097  0.6776  0.0204 -0.0298
   14CHTO   O48 5699   4.998   5.751   2.190 -0.4667 -0.6814 -0.3225
   14CHTO  H105 5700   5.036   5.690   2.251  1.3072  1.2706  0.5754
   14CHTO   O38 5701   5.270   5.799   1.859 -0.5266  0.1019  1.0184
   14CHTO   C55 5702   5.396   5.759   1.803 -0.3259 -0.7133 -0.0220
   14CHTO  H112 5703   5.436   5.836   1.736  2.3860 -1.7262  0.3953
   14CHTO   C56 5704   5.376   5.622   1.730  0.1919 -0.0821  0.2020
   14CHTO  H113 5705   5.330   5.555   1.805 -2.2590  0.1089 -1.0697
   14CHTO   O42 5706   5.275   5.646   1.629  0.3635 -0.3374  0.1120
   14CHTO  H100 5707   5.214   5.715   1.647  1.6628  1.1441 -1.0314
   14CHTO   C57 5708   5.514   5.571   1.669 -0.2298  0.4422  0.6024
   14CHTO  H114 5709   5.533   5.643   1.590  0.0382  0.3506  0.5832
   14CHTO   N10 5710   5.513   5.433   1.612  0.1366 -0.4361 -0.0777
   14CHTO  H106 5711   5.418   5.433   1.561  0.0869  2.1482 -0.0375
   14CHTO  H107 5712   5.596   5.423   1.543 -0.5113 -3.0092 -0.5408
   14CHTO   C58 5713   5.631   5.584   1.772 -0.1824 -0.3424  0.2746
   14CHTO  H115 5714   5.623   5.498   1.842 -2.5667 -0.8962 -0.6226
   14CHTO   O37 5715   5.637   5.706   1.844  0.0616  0.4704 -0.1480
   14CHTO   C59 5716   5.509   5.742   1.909  0.0364  0.6863  0.5172
   14CHTO  H116 5717   5.482   5.665   1.981  1.4934 -0.1094  0.2455
   14CHTO   C70 5718   5.543   5.871   1.991  0.2233  0.8141  0.0492
   14CHTO   O46 5719   5.625   5.847   2.105 -0.1026  0.2212 -0.0559
   14CHTO  H103 5720   5.698   5.792   2.086  0.3879  1.3598 -1.5361
   14CHTO   O39 5721   5.773   5.592   1.691 -0.1314 -0.6786 -0.4531
   14CHTO   C60 5722   5.890   5.585   1.772 -0.3020  0.1353 -0.3960
   14CHTO  H117 5723   5.884   5.641   1.866  0.6228 -1.9738  0.9723
   14CHTO   C62 5724   5.905   5.433   1.816 -0.1266 -0.3924  0.1358
   14CHTO  H119 5725   5.817   5.413   1.881 -0.6869  0.9065 -0.1856
   14CHTO   O43 5726   5.894   5.348   1.701 -0.5519  0.8854  0.4154
   14CHTO  H101 5727   5.902   5.389   1.617 -0.0431  1.4452  0.7281
   14CHTO   C66 5728   6.054   5.412   1.894 -0.6152 -0.0676 -0.5580
   14CHTO  H123 5729   6.056   5.475   1.983 -0.7283 -0.6691 -0.1319
   14CHTO   N12 5730   6.050   5.270   1.937 -0.3091 -0.0583 -0.2410
   14CHTO  H110 5731   5.970   5.246   2.005  0.1919 -2.1470 -0.3682
   14CHTO  H111 5732   6.060   5.197   1.859 -1.9720  0.9511 -1.4255
   14CHTO   C69 5733   6.170   5.456   1.801  0.5661  0.1853  0.4399
   14CHTO  H126 5734   6.156   5.387   1.715 -1.8030  1.0570  0.0944
   14CHTO   O41 5735   6.157   5.607   1.763 -0.6182 -0.1829  0.4834
   14CHTO   C64 5736   6.011   5.646   1.701  0.1291  0.1677 -0.7563
   14CHTO  H121 5737   6.015   5.599   1.600  2.1552 -0.4677 -0.4096
   14CHTO   C71 5738   6.005   5.798   1.694  0.0319  0.3991  0.0433
   14CHTO   O47 5739   6.120   5.861   1.628  0.1676 -0.1675 -0.3271
   14CHTO  H104 5740   6.133   5.811   1.550 -1.8000 -0.6855 -0.3497
   14CHTO   O34 5741   6.307   5.436   1.876  0.5848 -0.1757 -0.2521
   14CHTO   C49 5742   6.455   5.451   1.879  0.3905  0.4612 -0.2544
   14CHTO   H91 5743   6.494   5.388   1.799  2.9291  1.2019  0.3494
   14CHTO   C47 5744   6.514   5.413   2.016  0.1879  0.0527  0.9739
   14CHTO   H89 5745   6.625   5.419   2.010  0.1457 -0.1786 -0.1299
   14CHTO   O33 5746   6.476   5.279   2.044  0.1584  0.0657 -0.6546
   14CHTO   H70 5747   6.537   5.220   2.002  1.5891  0.8028  0.3520
   14CHTO   C45 5748   6.465   5.517   2.136  0.7521 -0.5563 -0.2432
   14CHTO   H87 5749   6.368   5.479   2.171 -0.9275  0.6007 -3.4875
   14CHTO    N8 5750   6.566   5.500   2.252  0.5263 -0.4762 -0.1044
   14CHTO   H75 5751   6.576   5.580   2.323  2.1631 -1.1478  0.4301
   14CHTO   H76 5752   6.666   5.495   2.210  0.3826 -1.0910 -0.3845
   14CHTO   C43 5753   6.429   5.658   2.067 -0.1949 -0.0317 -0.1929
   14CHTO   H85 5754   6.326   5.643   2.034 -0.9913  0.8720  1.8145
   14CHTO   O29 5755   6.521   5.686   1.955 -0.1652 -0.5052  0.3188
   14CHTO   C50 5756   6.485   5.603   1.843 -0.0236  0.3166  0.5585
   14CHTO   H92 5757   6.401   5.654   1.793 -0.1510  1.4297  1.8923
   14CHTO   C54 5758   6.598   5.599   1.738 -0.7790 -0.2476 -0.0021
   14CHTO   O36 5759   6.618   5.727   1.668  0.6965 -0.0807 -0.3446
   14CHTO   H72 5760   6.694   5.721   1.615  1.5033  0.0978  0.7716
   14CHTO   O27 5761   6.429   5.762   2.167  0.4465  0.3665 -0.2206
   14CHTO   C37 5762   6.367   5.894   2.188 -0.4238 -0.1287  0.4555
   14CHTO   H79 5763   6.445   5.966   2.216 -0.1891  0.3379 -1.3814
   14CHTO   C38 5764   6.298   5.953   2.062 -0.2683  0.5587  0.1540
   14CHTO   H80 5765   6.232   5.876   2.020 -0.8410  0.8467  0.5251
   14CHTO   O31 5766   6.408   5.974   1.967 -0.7875  0.6408  0.0540
   14CHTO   H68 5767   6.373   6.002   1.885  0.4045  1.7144 -0.1007
   14CHTO   C39 5768   6.234   6.084   2.088 -0.0902  0.6048 -0.1859
   14CHTO   H81 5769   6.314   6.153   2.115 -0.7975  0.6050  2.0614
   14CHTO    N7 5770   6.179   6.164   1.975  0.1936  0.5340  0.1450
   14CHTO   H73 5771   6.152   6.267   1.991  1.2114  1.1745 -2.1512
   14CHTO   H74 5772   6.238   6.160   1.885 -2.7717 -0.9718 -1.8112
   14CHTO   C40 5773   6.129   6.070   2.209 -1.0700  0.3368 -0.0392
   14CHTO   H82 5774   6.056   6.004   2.162  0.3570 -1.5396  0.3129
   14CHTO   O26 5775   6.192   6.013   2.323  0.0244  0.2140 -0.8774
   14CHTO   C41 5776   6.264   5.886   2.305 -0.2277  0.6709 -0.4367
   14CHTO   H83 5777   6.192   5.805   2.288 -0.7321  1.0393 -0.0725
   14CHTO   C52 5778   6.334   5.861   2.437  0.3251  0.4342 -0.4922
   14CHTO   O35 5779   6.400   5.991   2.484  0.1099  0.0935  0.6019
   14CHTO   H71 5780   6.471   5.965   2.540  0.4700 -1.3406 -0.4939
   14CHTO   O28 5781   6.071   6.197   2.244  0.4166  0.2100  0.4819
   14CHTO   C42 5782   5.950   6.191   2.327 -0.6198  0.1163 -0.0775
   14CHTO   H84 5783   5.932   6.294   2.356 -0.2766  0.5342 -1.3371
   14CHTO   C44 5784   5.950   6.098   2.456 -0.5905 -0.0914 -0.9589
   14CHTO   H86 5785   5.992   6.000   2.434  0.0566 -0.2665  0.9655
   14CHTO   O32 5786   6.050   6.146   2.542  0.1421  0.0714 -0.5296
   14CHTO   H69 5787   6.028   6.237   2.553 -0.9647 -0.1586 -0.8257
   14CHTO   C48 5788   5.811   6.092   2.536  0.5581  0.9618 -0.7073
   14CHTO   H90 5789   5.784   6.190   2.575 -0.8330  0.1804  0.3333
   14CHTO    N9 5790   5.822   6.010   2.662  0.0412 -0.1448 -0.6817
   14CHTO   H77 5791   5.925   5.992   2.689  0.2714  0.1309 -1.3813
   14CHTO   H78 5792   5.768   6.054   2.745 -1.5984 -1.7954 -0.8505
   14CHTO   C51 5793   5.698   6.044   2.438 -0.2447  0.4040 -0.0218
   14CHTO   H93 5794   5.733   5.948   2.400 -1.8066 -0.3785  0.4984
   14CHTO   O30 5795   5.686   6.143   2.331  0.2334  0.5531  0.3812
   14CHTO   C46 5796   5.821   6.138   2.247 -0.3999 -0.1270 -0.6063
   14CHTO   H88 5797   5.835   6.038   2.206 -0.0762  0.0543 -0.9464
   14CHTO   C53 5798   5.792   6.230   2.130  0.5180  0.0150  0.1978
   14CHTO   O72 5799   5.673   6.194   2.064  0.0654  0.5475 -0.2160
   14CHTO  H199 5800   5.686   6.112   2.020  2.4500  0.2714  0.9061
   14CHTO   O22 5801   5.568   6.043   2.498 -0.3335 -0.3061 -0.3926
   14CHTO   C31 5802   5.441   6.001   2.438  0.4876 -0.2995  0.0571
   14CHTO   H59 5803   5.470   5.963   2.338 -3.0123  0.1143 -1.1685
   14CHTO   C29 5804   5.379   5.884   2.520  0.4881  0.2945 -0.3528
   14CHTO   H57 5805   5.394   5.893   2.628 -0.4860 -0.3170 -0.1650
   14CHTO   O21 5806   5.451   5.766   2.481  0.4354  0.2354 -0.2579
   14CHTO   H37 5807   5.524   5.753   2.538 -2.7211 -0.0384  4.0458
   14CHTO   C27 5808   5.220   5.865   2.493 -0.2142 -0.4163 -0.1786
   14CHTO   H55 5809   5.215   5.826   2.390 -1.4379 -0.6134 -0.0491
   14CHTO    N5 5810   5.155   5.769   2.583 -0.1444  0.4108  0.1338
   14CHTO   H43 5811   5.224   5.701   2.633  0.0598  0.7407  0.3011
   14CHTO   H44 5812   5.078   5.711   2.534 -1.1469 -0.0571  2.2059
   14CHTO   C25 5813   5.150   6.004   2.504  0.0171 -0.3039  0.0392
   14CHTO   H53 5814   5.170   6.050   2.602 -0.8623 -0.0225  0.0959
   14CHTO   O17 5815   5.212   6.076   2.391 -0.5099 -0.6611 -0.5223
   14CHTO   C32 5816   5.344   6.121   2.415  0.0423 -0.8596 -0.0568
   14CHTO   H60 5817   5.360   6.191   2.497  1.2578  1.0879 -1.9197
   14CHTO   C36 5818   5.393   6.208   2.291  0.3286 -0.0597  0.0684
   14CHTO   O25 5819   5.403   6.122   2.177  0.0693 -0.4853 -0.1836
   14CHTO   H40 5820   5.491   6.132   2.147 -0.3635  0.6264 -1.0729
   14CHTO   O15 5821   5.003   6.011   2.482 -0.6488 -0.3746 -0.3617
   14CHTO   C19 5822   4.882   6.062   2.429  0.4655 -0.2432 -0.4595
   14CHTO   H47 5823   4.860   6.009   2.335 -1.2365 -1.3572  0.5356
   14CHTO   C20 5824   4.769   6.041   2.536 -0.3766  0.2373  0.3011
   14CHTO   H48 5825   4.796   6.084   2.634 -2.2774  2.3722 -0.0447
   14CHTO   O19 5826   4.768   5.900   2.548  0.0327  0.3822  0.7756
   14CHTO   H35 5827   4.729   5.868   2.628 -1.8549 -1.8870 -1.0059
   14CHTO   C21 5828   4.632   6.102   2.476  0.4667  0.4651 -0.4174
   14CHTO   H49 5829   4.601   6.042   2.390 -1.7707 -0.7804  1.1972
   14CHTO    N4 5830   4.521   6.079   2.569 -0.2307 -0.5500  0.3128
   14CHTO   H41 5831   4.520   6.152   2.649  2.3113  0.3268 -0.4275
   14CHTO   H42 5832   4.538   5.982   2.614  1.3700 -0.4819 -0.1039
   14CHTO   C22 5833   4.659   6.245   2.422  0.0570 -0.2552 -0.3010
   14CHTO   H50 5834   4.680   6.307   2.510 -2.8182 -1.1235  1.0697
   14CHTO   O14 5835   4.770   6.251   2.336  0.6606  1.0097 -0.5010
   14CHTO   C23 5836   4.897   6.210   2.388  0.1474  0.1247  0.7450
   14CHTO   H51 5837   4.908   6.273   2.477 -0.5591 -0.1330  1.0211
   14CHTO   C34 5838   4.992   6.251   2.277  0.1549  0.2910  0.3045
   14CHTO   O23 5839   5.031   6.381   2.310 -0.1844 -0.3257 -0.1454
   14CHTO   H38 5840   5.076   6.398   2.391  0.3569  1.3799 -0.7813
   14CHTO   O16 5841   4.552   6.296   2.344  0.2780  0.0060 -0.2391
   14CHTO   C24 5842   4.538   6.483   2.328 -0.4085  0.6887 -0.7254
   14CHTO   H52 5843   4.468   6.511   2.250 -2.1020 -1.1784  0.0885
   14CHTO   C26 5844   4.677   6.527   2.289  0.7100 -0.1264  0.4065
   14CHTO   H54 5845   4.745   6.483   2.365 -1.5932 -1.3397  1.8264
   14CHTO   O20 5846   4.702   6.462   2.164  0.2012 -0.2561 -0.0884
   14CHTO   H36 5847   4.790   6.486   2.142  0.7642 -0.3178  2.0090
   14CHTO   C30 5848   4.693   6.682   2.288  0.1117 -0.0383  0.0713
   14CHTO   H58 5849   4.650   6.730   2.199  0.8968  2.5855  1.0465
   14CHTO    N6 5850   4.837   6.710   2.287  0.5443  0.7558 -0.4027
   14CHTO   H45 5851   4.847   6.817   2.304  1.6424  0.3576  1.5870
   14CHTO   H46 5852   4.891   6.675   2.200  1.9360 -0.1193  0.7909
   14CHTO   C33 5853   4.619   6.752   2.405 -0.2173 -0.2908  0.4599
   14CHTO   H61 5854   4.677   6.742   2.498  1.9984 -2.2557 -1.0861
   14CHTO   O18 5855   4.486   6.690   2.429  0.3335 -0.4516 -0.2502
   14CHTO   C28 5856   4.491   6.553   2.459  0.4960 -0.3906 -0.6625
   14CHTO   H56 5857   4.562   6.544   2.541 -0.9557 -0.5021  0.6088
   14CHTO   C35 5858   4.348   6.501   2.505  0.8151  0.0107 -0.2613
   14CHTO   O24 5859   4.351   6.374   2.570 -0.1648 -0.2336 -0.0132
   14CHTO   H39 5860   4.263   6.353   2.597  0.2110  0.5783  1.9374
   14CHTO    O9 5861   4.606   6.896   2.381  0.2662 -0.0987 -0.1251
   14CHTO   C13 5862   4.622   6.987   2.505  0.6014  0.6778  0.8722
   14CHTO   H26 5863   4.640   6.934   2.601  1.4971 -1.1450 -0.2833
   14CHTO   C11 5864   4.502   7.089   2.510  0.1815  0.6076  0.3445
   14CHTO   H24 5865   4.413   7.030   2.539 -1.4207  3.0127  0.5163
   14CHTO    O8 5866   4.467   7.140   2.378  0.2875  0.2484  0.6076
   14CHTO    H3 5867   4.471   7.075   2.311  1.0440  0.2122  0.6800
   14CHTO    C9 5868   4.524   7.190   2.625 -0.4234 -0.0131  0.1474
   14CHTO   H22 5869   4.538   7.124   2.712  1.7516 -0.8921 -0.8355
   14CHTO    N2 5870   4.410   7.277   2.651 -0.1014 -0.0056 -0.7248
   14CHTO   H10 5871   4.429   7.348   2.730  0.1323 -2.6317  1.6545
   14CHTO   H11 5872   4.317   7.224   2.664 -0.0680 -0.9243 -3.8203
   14CHTO    C7 5873   4.659   7.263   2.593  0.2516 -0.2504 -0.1505
   14CHTO   H20 5874   4.691   7.328   2.678  2.0624  2.1836 -2.5859
   14CHTO    O4 5875   4.772   7.178   2.564  0.1921  0.3437  0.6369
   14CHTO   C14 5876   4.760   7.064   2.480  0.5229 -0.2946  0.0969
   14CHTO   H27 5877   4.838   6.993   2.512  0.3603 -0.6787 -0.3674
   14CHTO   C18 5878   4.791   7.108   2.341 -0.1672 -0.3278 -0.3951
   14CHTO   O13 5879   4.930   7.136   2.327 -0.2092  0.1960  0.2174
   14CHTO    H7 5880   4.936   7.179   2.244 -2.2036 -1.1025 -0.6383
   14CHTO    O2 5881   4.637   7.374   2.453  0.2749  0.1105 -0.0252
   14CHTO    C1 5882   4.710   7.501   2.466 -0.6263 -0.4764 -0.3390
   14CHTO   H14 5883   4.716   7.546   2.365  2.4596 -0.1484 -0.0661
   14CHTO    C2 5884   4.849   7.501   2.532 -0.1543  0.1909  0.2004
   14CHTO   H15 5885   4.836   7.457   2.632  0.7142  0.9838  0.6672
   14CHTO    O6 5886   4.927   7.414   2.451 -0.0412 -0.0926 -0.1683
   14CHTO    H1 5887   5.015   7.425   2.482 -0.7899 -1.3136  2.5705
   14CHTO    C3 5888   4.904   7.654   2.537  0.2532  0.1868  0.0296
   14CHTO   H16 5889   4.926   7.680   2.433 -1.8347  1.1244 -0.2065
   14CHTO    N1 5890   5.030   7.659   2.618 -0.3806  0.0528 -0.1313
   14CHTO    H8 5891   5.085   7.750   2.599  1.9256 -1.3680 -0.5529
   14CHTO    H9 5892   5.013   7.642   2.723  1.1237  0.1275  0.1320
   14CHTO    C4 5893   4.796   7.751   2.584  0.1126  0.0373 -0.6337
   14CHTO   H17 5894   4.789   7.741   2.692 -0.4203  0.5797 -0.6159
   14CHTO    O1 5895   4.673   7.721   2.522  0.3375  0.1348 -0.1111
   14CHTO    C5 5896   4.621   7.592   2.549 -0.5970  0.4982  0.5438
   14CHTO   H18 5897   4.632   7.568   2.654  3.0688  1.8880  0.5628
   14CHTO   C16 5898   4.476   7.587   2.504  0.0429  0.2042  0.0381
   14CHTO   O11 5899   4.394   7.678   2.575  0.1663 -0.1132  0.2839
   14CHTO    H5 5900   4.317   7.686   2.522 -0.4121 -0.7271  1.0267
   14CHTO    O3 5901   4.829   7.892   2.564  0.6243  0.3025  0.4083
   14CHTO    C6 5902   4.772   7.981   2.668 -0.4737  0.0165  0.1798
   14CHTO   H19 5903   4.689   7.944   2.728 -1.0968  2.2733  0.7305
   14CHTO    C8 5904   4.881   8.019   2.771 -0.1770 -0.1033  0.4271
   14CHTO   H21 5905   4.965   8.054   2.711 -1.7409 -1.2211 -2.4914
   14CHTO    O7 5906   4.921   7.895   2.836  0.6102 -0.3097  0.2176
   14CHTO    H2 5907   4.999   7.914   2.883  0.5184 -1.6110  0.8964
   14CHTO   C12 5908   4.834   8.124   2.866  0.2666  0.2005 -0.1625
   14CHTO   H25 5909   4.745   8.085   2.921  1.2393 -0.2910  1.0914
   14CHTO    N3 5910   4.938   8.158   2.968 -0.3773 -0.3375  0.4950
   14CHTO   H12 5911   4.908   8.239   3.033  0.5800  1.1749 -0.9106
   14CHTO   H13 5912   4.984   8.069   3.010  0.8654 -1.0933 -2.3108
   14CHTO   C15 5913   4.795   8.244   2.778 -0.7125 -0.2524  0.0052
   14CHTO   H28 5914   4.873   8.277   2.710 -0.6577  2.2747  1.2261
   14CHTO   O10 5915   4.751   8.359   2.859  0.1379 -0.3051 -0.6796
   14CHTO    H4 5916   4.685   8.335   2.921  0.4606 -0.3212 -0.3378
   14CHTO    O5 5917   4.682   8.206   2.700 -0.9606 -0.1049 -0.1503
   14CHTO   C10 5918   4.718   8.104   2.601 -0.1426  0.7463 -0.0716
   14CHTO   H23 5919   4.797   8.146   2.539  1.7208 -1.7545  0.5502
   14CHTO   C17 5920   4.607   8.064   2.503 -0.0296 -0.5273 -0.9406
   14CHTO   O12 5921   4.542   8.188   2.459  0.2520 -0.2358  0.0850
   14CHTO    H6 5922   4.595   8.224   2.391 -0.2265 -0.7672 -0.5740
   15CHTO  H203 5923   6.102   4.710   2.796  1.4362 -0.3524 -1.2179
   15CHTO   O82 5924   6.078   4.761   2.721 -0.2137  0.5951 -0.0856
   15CHTO  C123 5925   6.045   4.678   2.603  0.2245 -0.3746  0.0031
   15CHTO  H227 5926   5.995   4.588   2.642 -1.7140  0.8984  0.5348
   15CHTO   O77 5927   5.951   4.767   2.532 -0.3033 -0.3305 -0.0677
   15CHTO  C118 5928   5.906   4.704   2.416  0.4853 -0.7087 -0.2300
   15CHTO  H222 5929   5.863   4.608   2.449 -0.0195 -0.9322 -1.5044
   15CHTO  C125 5930   5.795   4.800   2.348 -0.1058  0.3779 -0.3625
   15CHTO   O84 5931   5.683   4.828   2.443  0.3451 -0.0701  0.3348
   15CHTO  H205 5932   5.659   4.917   2.460 -0.5304 -0.3677  0.6780
   15CHTO  C114 5933   6.021   4.682   2.313  0.0058 -0.2355  0.2684
   15CHTO  H218 5934   6.059   4.781   2.288 -0.5289  0.3129  1.6074
   15CHTO  C116 5935   6.139   4.594   2.369  0.3334  0.0285 -0.1206
   15CHTO  H220 5936   6.105   4.490   2.388 -0.7962  0.2404 -0.9409
   15CHTO   O79 5937   6.238   4.580   2.264 -0.1298  0.0655 -0.0057
   15CHTO  H201 5938   6.297   4.652   2.273  0.8133 -0.8102  1.0922
   15CHTO  C120 5939   6.175   4.645   2.514 -0.3278 -1.0868 -0.1163
   15CHTO  H224 5940   6.239   4.734   2.499 -0.2780 -0.9652  0.7923
   15CHTO   N21 5941   6.261   4.553   2.588 -0.1991  0.5366 -0.4096
   15CHTO  H211 5942   6.321   4.618   2.649 -1.2586  0.7664  0.3903
   15CHTO  H212 5943   6.307   4.480   2.522 -0.8635 -3.0202  2.8547
   15CHTO   O75 5944   5.954   4.631   2.193  0.2187 -0.9849  0.2372
   15CHTO  C112 5945   5.970   4.462   2.150  0.1517 -1.0821  0.2515
   15CHTO  H216 5946   5.979   4.402   2.241 -0.3898  0.0471  1.0537
   15CHTO   O73 5947   6.082   4.451   2.064 -0.5242  0.0439 -0.2494
   15CHTO  C113 5948   6.132   4.318   2.036 -0.7496 -0.4894  0.5375
   15CHTO  H217 5949   6.154   4.269   2.133  0.8928 -0.3721  0.2381
   15CHTO  C124 5950   6.254   4.324   1.947 -0.2320  0.2667  0.1369
   15CHTO   O83 5951   6.241   4.402   1.826  0.3751 -0.0778 -0.7538
   15CHTO  H204 5952   6.253   4.493   1.846  1.9461 -0.9563  2.6431
   15CHTO  C109 5953   6.015   4.246   1.966  0.3918 -0.0202  0.2873
   15CHTO  H213 5954   5.999   4.296   1.869  1.2275 -0.0427  0.1282
   15CHTO  C110 5955   5.880   4.253   2.048 -0.0624 -0.0532 -0.3498
   15CHTO  H214 5956   5.889   4.191   2.137  0.0509  0.3077 -0.1110
   15CHTO   O78 5957   5.778   4.187   1.976 -0.3379  0.0464 -0.0635
   15CHTO  H200 5958   5.709   4.239   1.939 -1.0973 -1.5656 -0.9772
   15CHTO  C111 5959   5.845   4.401   2.083  0.0361  0.0310 -0.1888
   15CHTO  H215 5960   5.828   4.455   1.989  1.3636 -0.7238 -0.8787
   15CHTO   N19 5961   5.717   4.412   2.166  0.2007 -0.6329  0.0204
   15CHTO  H207 5962   5.635   4.389   2.100  0.2370  1.0919 -0.6533
   15CHTO  H208 5963   5.701   4.331   2.236  0.7021 -1.2459 -0.5659
   15CHTO   O74 5964   6.048   4.111   1.939  0.0141 -0.1593  0.1425
   15CHTO  C115 5965   6.014   4.067   1.797  0.2591  0.3572 -0.1396
   15CHTO  H219 5966   5.929   4.122   1.756 -0.2743 -0.2841  0.0825
   15CHTO   O76 5967   6.138   4.079   1.699 -0.2521 -0.2129 -0.0301
   15CHTO  C122 5968   6.240   3.991   1.736 -0.4344  0.8004 -0.5857
   15CHTO  H226 5969   6.254   4.016   1.841 -0.3513  0.7036 -0.5728
   15CHTO  C126 5970   6.369   4.022   1.659 -0.1542  1.1708 -0.6092
   15CHTO   O85 5971   6.484   3.971   1.731 -0.1605 -0.4619  0.2328
   15CHTO  H206 5972   6.565   3.984   1.685  0.3235 -3.3938  0.1669
   15CHTO  C121 5973   6.186   3.832   1.748  0.1221 -0.0594 -0.4478
   15CHTO  H225 5974   6.240   3.787   1.662  0.7518 -0.6730  0.2642
   15CHTO   O81 5975   6.219   3.785   1.879 -0.7441 -0.9600  0.3920
   15CHTO  H202 5976   6.213   3.694   1.898  0.5928 -0.5055  3.2262
   15CHTO  C119 5977   6.035   3.811   1.726 -0.1482 -0.6159 -0.1699
   15CHTO  H223 5978   6.008   3.832   1.623  1.0206 -1.8811 -0.7457
   15CHTO  C117 5979   5.961   3.916   1.821  0.0364  0.3379  0.5480
   15CHTO  H221 5980   5.975   3.891   1.927  0.1745  0.0535  0.4627
   15CHTO   N20 5981   5.815   3.900   1.793  0.8616  0.2052 -0.3427
   15CHTO  H209 5982   5.804   3.913   1.686  0.1662  1.7153 -0.1041
   15CHTO  H210 5983   5.759   3.979   1.842 -0.3505 -0.2446 -0.9832
   15CHTO   O80 5984   5.989   3.654   1.746  0.1817  0.0305 -0.2090
   15CHTO  C103 5985   5.974   3.557   1.625  0.8737 -0.6190 -0.1338
   15CHTO  H190 5986   5.903   3.479   1.651  1.9660 -1.9418 -1.0849
   15CHTO  C101 5987   5.935   3.615   1.491  0.4971 -0.5561  0.6036
   15CHTO  H188 5988   6.006   3.691   1.458  0.4458  0.4161  2.6790
   15CHTO   O68 5989   5.796   3.685   1.505 -0.0233  0.0808 -0.1621
   15CHTO  H168 5990   5.749   3.678   1.586 -2.0752  2.9781 -1.0102
   15CHTO   C99 5991   5.915   3.503   1.383  0.5658 -0.2231  0.4019
   15CHTO  H186 5992   5.826   3.451   1.424  0.1844 -0.0435 -0.1995
   15CHTO   N17 5993   5.875   3.555   1.246  0.0225  0.2239  0.6625
   15CHTO  H174 5994   5.842   3.471   1.185  0.1971  0.7986 -0.2250
   15CHTO  H175 5995   5.790   3.621   1.254 -0.8480 -0.9913  1.6078
   15CHTO   C97 5996   6.028   3.402   1.383 -0.9469 -0.1708 -0.0604
   15CHTO  H184 5997   6.106   3.443   1.318 -1.5944  1.1858 -0.0081
   15CHTO   O64 5998   6.075   3.371   1.517 -0.3507 -0.4047 -0.2597
   15CHTO  C104 5999   6.111   3.488   1.597 -0.3525 -0.4639 -0.7873
   15CHTO  H191 6000   6.176   3.556   1.544 -0.3665  2.3597  2.6384
   15CHTO  C108 6001   6.184   3.448   1.726  0.0682  0.1965  0.0385
   15CHTO   O71 6002   6.274   3.344   1.692 -0.1181 -0.0259 -0.0267
   15CHTO  H171 6003   6.268   3.275   1.755  1.2416  0.8415  1.0972
   15CHTO   O62 6004   5.982   3.278   1.327  0.2941 -0.5544 -0.5123
   15CHTO   C91 6005   6.082   3.201   1.261  0.3217 -0.6302 -0.0687
   15CHTO  H178 6006   6.153   3.268   1.214  0.4810 -1.3118 -0.8056
   15CHTO   C92 6007   6.012   3.132   1.137 -0.1413  0.5598 -0.1307
   15CHTO  H179 6008   5.948   3.199   1.078 -2.0354 -0.2300  1.0178
   15CHTO   O66 6009   6.110   3.083   1.045 -0.3800 -0.3374  0.2478
   15CHTO  H166 6010   6.176   3.034   1.090 -0.0438 -1.0297 -0.9919
   15CHTO   C93 6011   5.928   3.008   1.184 -0.0145 -0.5259 -0.0361
   15CHTO  H180 6012   5.907   2.946   1.097 -0.3226  1.1345 -1.1749
   15CHTO   N16 6013   5.786   3.045   1.227  0.1960 -0.3156  0.4350
   15CHTO  H172 6014   5.717   3.040   1.144  2.1495  2.0712 -1.4264
   15CHTO  H173 6015   5.750   2.984   1.308 -0.2854  1.2186  1.3858
   15CHTO   C94 6016   5.998   2.921   1.296 -0.2535 -0.5590 -0.5433
   15CHTO  H181 6017   5.951   2.932   1.394  0.7460 -0.2605 -0.0930
   15CHTO   O61 6018   6.137   2.962   1.306 -0.3012  0.5839  0.3326
   15CHTO   C95 6019   6.152   3.096   1.355 -0.5461 -0.2178  0.6206
   15CHTO  H182 6020   6.108   3.102   1.455 -0.1407 -1.4642  0.8927
   15CHTO  C106 6021   6.308   3.132   1.363  0.5898  0.0038  0.5599
   15CHTO   O69 6022   6.363   3.051   1.466  0.2484 -0.2417 -0.1664
   15CHTO  H169 6023   6.446   3.088   1.490 -0.1350  1.2336 -1.0363
   15CHTO   O63 6024   6.003   2.768   1.245 -0.1941  0.1890  0.2218
   15CHTO   C96 6025   6.040   2.667   1.340  0.7331  0.2637 -0.0201
   15CHTO  H183 6026   6.050   2.713   1.438 -1.1783 -1.0271  0.7968
   15CHTO   C98 6027   6.185   2.609   1.306 -0.4992 -0.5926  0.1270
   15CHTO  H185 6028   6.195   2.610   1.196 -2.9262  0.1272 -0.1230
   15CHTO   O67 6029   6.286   2.696   1.366 -0.5300  0.5295  0.2717
   15CHTO  H167 6030   6.361   2.709   1.311  0.0429  0.5276  1.0505
   15CHTO  C102 6031   6.214   2.461   1.349 -0.0925  0.0477  0.0345
   15CHTO  H189 6032   6.235   2.472   1.456 -2.6906  1.6122  0.4199
   15CHTO   N18 6033   6.328   2.408   1.277 -0.5132  0.1621 -0.4918
   15CHTO  H176 6034   6.308   2.313   1.230 -0.9998 -0.1817  0.3938
   15CHTO  H177 6035   6.421   2.403   1.333 -1.1373 -3.9079  0.3847
   15CHTO  C105 6036   6.091   2.369   1.326  0.6469  0.3264  0.3354
   15CHTO  H192 6037   6.073   2.356   1.219  0.4548  0.0471  0.3999
   15CHTO   O65 6038   5.971   2.426   1.383  0.4510 -0.4476 -0.2335
   15CHTO  C100 6039   5.931   2.549   1.319  0.7666  0.9947 -0.4132
   15CHTO  H187 6040   5.935   2.533   1.210 -1.1868 -0.8593 -0.2328
   15CHTO  C107 6041   5.797   2.608   1.364  0.1620 -0.3990 -0.0425
   15CHTO   O70 6042   5.703   2.496   1.366  0.0179 -1.1478  0.3721
   15CHTO  H170 6043   5.616   2.530   1.374  0.7424  1.0717 -0.6175
   15CHTO   O57 6044   6.128   2.216   1.377 -0.8003 -0.0947 -0.3282
   15CHTO   C85 6045   6.130   2.179   1.517 -0.7911 -0.1272  0.0599
   15CHTO  H157 6046   6.131   2.271   1.579  1.4790  0.3846 -0.7075
   15CHTO   C83 6047   6.275   2.116   1.548  1.0885 -0.2403  0.6029
   15CHTO  H155 6048   6.355   2.189   1.534 -1.1685  2.4079  1.2582
   15CHTO   O56 6049   6.294   2.017   1.446 -0.6135 -0.0327  0.1698
   15CHTO  H135 6050   6.324   2.060   1.368  0.5365 -0.0779  0.5709
   15CHTO   C81 6051   6.285   2.064   1.694 -0.1099 -0.3606  0.0694
   15CHTO  H153 6052   6.274   2.152   1.757 -1.6733 -0.3979 -0.1537
   15CHTO   N14 6053   6.420   2.016   1.728 -0.0680 -0.2911  0.1053
   15CHTO  H141 6054   6.421   1.975   1.828  1.6514  0.6859  0.5085
   15CHTO  H142 6055   6.460   1.937   1.668  0.2639 -0.4346  0.5059
   15CHTO   C79 6056   6.175   1.960   1.721 -0.1154 -0.6436  0.1285
   15CHTO  H151 6057   6.170   1.939   1.828 -1.0237 -0.4654  0.1251
   15CHTO   O52 6058   6.044   2.020   1.695 -1.0501 -0.0593  0.4721
   15CHTO   C86 6059   6.016   2.073   1.559  0.2005 -0.1538 -0.3539
   15CHTO  H158 6060   6.020   1.993   1.482  0.0616 -1.9926  1.5200
   15CHTO   C90 6061   5.868   2.128   1.553  0.4837  0.2835  0.4599
   15CHTO   O60 6062   5.780   2.014   1.537 -0.0004 -0.4797 -0.7507
   15CHTO  H138 6063   5.697   2.041   1.502 -0.1917 -0.7205 -0.4842
   15CHTO   O50 6064   6.198   1.834   1.655 -0.3470  0.3229  1.1037
   15CHTO   C73 6065   6.133   1.707   1.631  0.2575  0.0443 -0.0646
   15CHTO  H145 6066   6.037   1.722   1.579  1.5344  2.9194 -1.7253
   15CHTO   C74 6067   6.091   1.642   1.771  0.3992 -0.2739  0.6678
   15CHTO  H146 6068   6.030   1.719   1.820 -1.0018 -1.1199  0.2795
   15CHTO   O54 6069   6.006   1.527   1.737  0.0336  0.3746 -0.9284
   15CHTO  H133 6070   5.931   1.561   1.693 -0.3366  1.3284  0.4026
   15CHTO   C75 6071   6.215   1.609   1.846 -1.1654 -0.6566 -0.2987
   15CHTO  H147 6072   6.259   1.708   1.865  1.1500 -1.7162 -0.0181
   15CHTO   N13 6073   6.193   1.542   1.977 -0.1742  0.1947  0.4431
   15CHTO  H139 6074   6.139   1.449   1.972  0.9039 -0.5264  1.9174
   15CHTO  H140 6075   6.139   1.609   2.042 -0.7160  0.0199  0.1758
   15CHTO   C76 6076   6.317   1.524   1.769  0.5452  0.0802  0.0927
   15CHTO  H148 6077   6.280   1.423   1.751 -1.3171  0.7524  0.0519
   15CHTO   O49 6078   6.340   1.577   1.639  0.1517 -0.0684  0.4587
   15CHTO   C77 6079   6.225   1.604   1.553  0.2484 -0.4073  0.3203
   15CHTO  H149 6080   6.171   1.511   1.536 -1.5165  0.7438 -0.4644
   15CHTO   C88 6081   6.267   1.662   1.423  0.2253  0.6030  0.7916
   15CHTO   O58 6082   6.165   1.666   1.325 -0.9448 -0.2105 -0.2195
   15CHTO  H136 6083   6.099   1.726   1.354  0.9274  0.6417  2.5286
   15CHTO   O51 6084   6.456   1.526   1.833  0.1903  0.0702  0.0448
   15CHTO   C78 6085   6.579   1.467   1.750 -0.6490 -0.4660 -0.3057
   15CHTO  H150 6086   6.557   1.459   1.641 -2.1458  0.3358 -0.0827
   15CHTO   C80 6087   6.618   1.333   1.809 -0.0839  0.3957  0.2429
   15CHTO  H152 6088   6.620   1.336   1.920  1.5353 -1.6419  0.3104
   15CHTO   O55 6089   6.512   1.246   1.766 -0.6991  0.8403 -0.7476
   15CHTO  H134 6090   6.514   1.182   1.835  2.9578 -0.5959 -2.0986
   15CHTO   C84 6091   6.761   1.284   1.764  0.2203  0.5007 -0.0757
   15CHTO  H156 6092   6.763   1.253   1.659 -0.6829  1.1557 -0.2848
   15CHTO   N15 6093   6.801   1.157   1.842  0.2419  0.5076 -0.2645
   15CHTO  H143 6094   6.733   1.133   1.921  0.2678  0.7996 -0.1556
   15CHTO  H144 6095   6.897   1.174   1.886 -0.1146  0.6695  0.4572
   15CHTO   C87 6096   6.863   1.399   1.772  0.8153  0.1756  0.0491
   15CHTO  H159 6097   6.892   1.430   1.872 -0.3634  2.7159 -0.3628
   15CHTO   O53 6098   6.805   1.519   1.691  0.3214  0.2882  0.4973
   15CHTO   C82 6099   6.692   1.570   1.765 -0.4186  0.7925 -0.5456
   15CHTO  H154 6100   6.728   1.588   1.866  1.6075  0.0512 -1.1161
   15CHTO   C89 6101   6.655   1.705   1.709  0.3816  0.1924  0.4671
   15CHTO   O59 6102   6.647   1.689   1.564  0.0831 -0.1444 -0.0367
   15CHTO  H137 6103   6.691   1.618   1.522  1.0114 -0.4829  1.4393
   15CHTO   O45 6104   7.003   1.371   1.692 -0.4668 -0.1615 -0.0675
   15CHTO   C67 6105   7.099   1.473   1.717 -0.2301 -0.2630 -0.2621
   15CHTO  H124 6106   7.050   1.562   1.756 -2.2270 -0.2939 -2.5440
   15CHTO   C65 6107   7.202   1.426   1.822 -0.0160 -0.4278 -0.2014
   15CHTO  H122 6108   7.202   1.317   1.829 -0.9245 -0.2855  2.5159
   15CHTO   O44 6109   7.147   1.467   1.953  0.1304  0.1820 -0.2947
   15CHTO  H102 6110   7.168   1.558   1.964 -1.4220  0.4304  0.8753
   15CHTO   C63 6111   7.356   1.463   1.782 -0.8719  0.1170  0.4939
   15CHTO  H120 6112   7.388   1.400   1.699 -1.0034 -0.1053  0.6117
   15CHTO   N11 6113   7.462   1.434   1.878 -0.1845 -0.2295  0.4130
   15CHTO  H108 6114   7.409   1.392   1.961  0.4191  0.1255  0.9796
   15CHTO  H109 6115   7.511   1.524   1.908  2.3758 -1.6038  0.4634
   15CHTO   C61 6116   7.354   1.605   1.716  0.0421  0.1244 -0.2332
   15CHTO  H118 6117   7.456   1.628   1.681  0.2110 -0.7618 -0.3296
   15CHTO   O40 6118   7.265   1.614   1.599 -0.2009 -0.5411  0.0762
   15CHTO   C68 6119   7.165   1.510   1.577  0.6537 -0.1072  0.0078
   15CHTO  H125 6120   7.206   1.420   1.526  0.2894 -0.6412  0.6499
   15CHTO   C72 6121   7.055   1.571   1.485  0.5328 -0.1173 -0.5232
   15CHTO   O48 6122   6.975   1.467   1.430 -0.4760 -0.2018  0.4368
   15CHTO  H105 6123   6.894   1.507   1.403  0.2255 -0.8656 -2.8192
   15CHTO   O38 6124   7.313   1.702   1.821 -0.0600 -0.6470  0.8762
   15CHTO   C55 6125   7.306   1.846   1.791  0.3720  0.6453 -0.5897
   15CHTO  H112 6126   7.288   1.863   1.683 -2.1112 -0.5398 -0.3909
   15CHTO   C56 6127   7.433   1.914   1.837 -0.6984 -0.2965 -0.3515
   15CHTO  H113 6128   7.446   1.904   1.945  0.3352 -0.6958 -0.5040
   15CHTO   O42 6129   7.551   1.859   1.776 -0.2060 -0.0008 -0.4198
   15CHTO  H100 6130   7.580   1.895   1.695  1.7431 -0.7686 -0.0957
   15CHTO   C57 6131   7.424   2.067   1.796 -0.8532 -0.0180 -0.7165
   15CHTO  H114 6132   7.421   2.070   1.687  0.0296 -0.6174 -0.7702
   15CHTO   N10 6133   7.540   2.146   1.855 -0.0224  0.6874  0.3314
   15CHTO  H106 6134   7.504   2.236   1.903 -0.9994 -0.0901  1.0709
   15CHTO  H107 6135   7.596   2.098   1.934 -0.1166  0.3148  0.1726
   15CHTO   C58 6136   7.289   2.130   1.850  0.0702  0.3544 -0.3217
   15CHTO  H115 6137   7.304   2.153   1.957  0.5363  0.8422 -0.4922
   15CHTO   O37 6138   7.182   2.041   1.813  0.1406 -0.0648  0.5144
   15CHTO   C59 6139   7.186   1.906   1.865 -0.1846  0.5652  1.3782
   15CHTO  H116 6140   7.212   1.907   1.970  1.2436 -0.0305  1.0470
   15CHTO   C70 6141   7.046   1.842   1.829  0.3014 -0.5846 -0.3252
   15CHTO   O46 6142   7.011   1.737   1.921 -0.0541 -0.6693  0.2206
   15CHTO  H103 6143   7.054   1.655   1.906 -0.0355 -1.0404  2.1488
   15CHTO   O39 6144   7.260   2.282   1.773  0.2487 -0.5591 -0.0813
   15CHTO   C60 6145   7.204   2.274   1.645  0.7365 -0.4206  1.1832
   15CHTO  H117 6146   7.227   2.180   1.596  0.0392  0.4676 -0.9183
   15CHTO   C62 6147   7.043   2.275   1.653 -0.0801  0.3598 -0.2732
   15CHTO  H119 6148   7.021   2.186   1.715  0.9642  1.3794  1.6442
   15CHTO   O43 6149   6.997   2.392   1.725 -0.8323 -0.5650 -0.1162
   15CHTO  H101 6150   6.996   2.465   1.666  0.2844 -1.0586 -0.7729
   15CHTO   C66 6151   6.981   2.261   1.507  0.4997  0.0086  0.1600
   15CHTO  H123 6152   6.991   2.160   1.468  0.3970  0.2794 -0.5867
   15CHTO   N12 6153   6.832   2.276   1.511  0.7017 -0.2587 -0.0226
   15CHTO  H110 6154   6.804   2.374   1.548 -2.3468 -1.2709  0.5393
   15CHTO  H111 6155   6.801   2.260   1.409 -1.4165 -0.6548  0.6583
   15CHTO   C69 6156   7.039   2.367   1.405 -0.2460  0.0865 -0.2296
   15CHTO  H126 6157   7.003   2.467   1.438  0.9215  0.0343  1.2434
   15CHTO   O41 6158   7.208   2.359   1.407 -0.4037 -1.0800 -0.2913
   15CHTO   C64 6159   7.243   2.389   1.550 -0.4810 -0.1688  0.6381
   15CHTO  H121 6160   7.186   2.474   1.591 -0.7636 -0.3741  0.6755
   15CHTO   C71 6161   7.397   2.435   1.550 -0.2927 -0.5038  0.2448
   15CHTO   O47 6162   7.443   2.503   1.667  0.1093  0.1074  0.1277
   15CHTO  H104 6163   7.503   2.571   1.644 -1.6271  1.7150  0.2238
   15CHTO   O34 6164   6.979   2.333   1.266 -0.3113  0.0978  0.2082
   15CHTO   C49 6165   6.947   2.354   1.134 -0.3000 -0.6046 -0.2196
   15CHTO   H91 6166   6.953   2.251   1.097  0.3162 -0.1594 -1.3908
   15CHTO   C47 6167   7.062   2.436   1.076  0.2633 -0.1606  0.3164
   15CHTO   H89 6168   7.043   2.455   0.968  0.0483 -0.2806  0.3328
   15CHTO   O33 6169   7.192   2.369   1.078  0.7383 -0.2909 -0.1059
   15CHTO   H70 6170   7.266   2.418   1.048 -1.2470  2.0201 -1.4334
   15CHTO   C45 6171   7.045   2.583   1.142 -0.5286  0.7136 -0.0715
   15CHTO   H87 6172   7.060   2.565   1.249 -1.5849 -0.6410 -0.1339
   15CHTO    N8 6173   7.153   2.684   1.097  0.1857  0.3961 -0.3910
   15CHTO   H75 6174   7.112   2.780   1.070 -2.7255 -0.4668  0.8037
   15CHTO   H76 6175   7.223   2.696   1.178 -0.5767  3.0673 -0.0910
   15CHTO   C43 6176   6.891   2.642   1.121  0.0755  0.2756 -0.5003
   15CHTO   H85 6177   6.883   2.732   1.182 -4.6021  0.9917 -1.9987
   15CHTO   O29 6178   6.790   2.549   1.155  0.1794  0.0919 -0.0758
   15CHTO   C50 6179   6.801   2.409   1.121 -0.9259  0.2402  0.0244
   15CHTO   H92 6180   6.744   2.343   1.187  0.7181 -0.5902  0.6319
   15CHTO   C54 6181   6.752   2.385   0.975 -0.5441 -0.2547  0.0939
   15CHTO   O36 6182   6.713   2.252   0.951 -0.1281  0.1950  0.5564
   15CHTO   H72 6183   6.624   2.249   0.924 -0.4979  1.0548  1.6211
   15CHTO   O27 6184   6.874   2.686   0.987 -0.0966  0.1779 -0.5732
   15CHTO   C37 6185   6.760   2.725   0.910 -0.4028 -0.5241 -0.0751
   15CHTO   H79 6186   6.702   2.639   0.875 -0.9636 -0.3540  0.4236
   15CHTO   C38 6187   6.656   2.810   0.989  0.1673  0.7295 -0.0892
   15CHTO   H80 6188   6.715   2.871   1.059 -0.9066  0.8083  0.7689
   15CHTO   O31 6189   6.594   2.714   1.080 -0.6375  0.0222 -0.1657
   15CHTO   H68 6190   6.659   2.689   1.142 -1.0676  1.8852  1.0951
   15CHTO   C39 6191   6.549   2.873   0.898 -0.2708  0.3446 -0.1255
   15CHTO   H81 6192   6.480   2.792   0.873  0.3215 -0.3615  0.5168
   15CHTO    N7 6193   6.461   2.979   0.961 -0.6188 -0.4141 -0.4782
   15CHTO   H73 6194   6.513   3.073   0.976 -1.0000 -0.1718 -0.6812
   15CHTO   H74 6195   6.375   2.998   0.899 -0.9067  2.0757  0.6071
   15CHTO   C40 6196   6.619   2.930   0.761 -0.3938 -0.0646 -0.3221
   15CHTO   H82 6197   6.669   3.022   0.793 -0.5806  0.3820 -1.3032
   15CHTO   O26 6198   6.711   2.839   0.700 -0.2569  0.5532  0.5252
   15CHTO   C41 6199   6.815   2.800   0.787 -0.1266 -0.8255 -0.0359
   15CHTO   H83 6200   6.861   2.897   0.810 -0.1628 -0.0964 -2.8831
   15CHTO   C52 6201   6.904   2.711   0.702  0.5177 -0.3266 -0.4432
   15CHTO   O35 6202   7.036   2.667   0.768 -0.2416  0.0374  0.4633
   15CHTO   H71 6203   7.020   2.589   0.817 -0.0833  0.5391  1.3357
   15CHTO   O28 6204   6.513   2.948   0.662  0.5468 -0.3376  0.1931
   15CHTO   C42 6205   6.502   3.053   0.557  0.6044  0.0431  0.3109
   15CHTO   H84 6206   6.458   3.003   0.470  0.5574 -1.1413  1.0091
   15CHTO   C44 6207   6.642   3.110   0.514  0.2802  0.1559 -0.0482
   15CHTO   H86 6208   6.708   3.113   0.600  3.2508  1.0081 -2.2567
   15CHTO   O32 6209   6.697   3.012   0.426  0.2596 -0.7523 -0.0245
   15CHTO   H69 6210   6.771   3.051   0.383 -0.6331  0.8617 -0.1282
   15CHTO   C48 6211   6.651   3.255   0.449 -0.6708 -0.0773  0.8553
   15CHTO   H90 6212   6.614   3.248   0.347 -0.9009  0.9832  0.8577
   15CHTO    N9 6213   6.792   3.302   0.443  0.3875 -0.0617 -0.3669
   15CHTO   H77 6214   6.803   3.397   0.393  2.1857  0.2883  0.6671
   15CHTO   H78 6215   6.836   3.313   0.541 -1.8800 -0.3125  0.7015
   15CHTO   C51 6216   6.551   3.364   0.516 -0.6717 -0.0964  0.1550
   15CHTO   H93 6217   6.577   3.387   0.620 -1.4191  0.0996  0.3000
   15CHTO   O30 6218   6.429   3.302   0.504 -0.0322 -0.3201  0.5726
   15CHTO   C46 6219   6.409   3.176   0.597 -0.5194  0.2331 -0.0378
   15CHTO   H88 6220   6.419   3.205   0.701 -1.1079 -1.5140  0.5327
   15CHTO   C53 6221   6.262   3.132   0.577  0.4877 -0.1437  0.0929
   15CHTO   O72 6222   6.174   3.246   0.609 -0.0163  0.9668 -0.3860
   15CHTO  H199 6223   6.084   3.221   0.601 -0.2295  1.3930  0.6503
   15CHTO   O22 6224   6.529   3.475   0.428  0.3336  0.2475  0.0180
   15CHTO   C31 6225   6.466   3.606   0.475 -0.2616  0.1634  0.8898
   15CHTO   H59 6226   6.498   3.681   0.399  0.1335 -0.8215  0.0675
   15CHTO   C29 6227   6.310   3.606   0.479 -1.0526 -0.1553  0.1750
   15CHTO   H57 6228   6.278   3.528   0.550 -0.8092 -1.2544 -0.9054
   15CHTO   O21 6229   6.274   3.550   0.348  0.4294 -0.4128 -0.0073
   15CHTO   H37 6230   6.216   3.606   0.299  0.6651  0.2690  0.4900
   15CHTO   C27 6231   6.256   3.751   0.520 -0.7154  0.0553 -0.2256
   15CHTO   H55 6232   6.279   3.820   0.438 -1.4280 -0.0798 -0.5466
   15CHTO    N5 6233   6.106   3.745   0.526 -0.1827 -0.0949 -0.0606
   15CHTO   H43 6234   6.059   3.834   0.566 -1.5574  0.8177 -3.5107
   15CHTO   H44 6235   6.063   3.654   0.565 -0.4257 -0.7395 -1.7941
   15CHTO   C25 6236   6.316   3.795   0.657 -0.1920 -0.6462 -0.2020
   15CHTO   H53 6237   6.281   3.727   0.736  0.3310  0.2493  0.8120
   15CHTO   O17 6238   6.460   3.791   0.651 -0.0035  0.2213  0.0487
   15CHTO   C32 6239   6.518   3.662   0.612  0.3732 -0.5596  0.1486
   15CHTO   H60 6240   6.489   3.592   0.691 -0.3317 -2.1172 -1.4304
   15CHTO   C36 6241   6.669   3.684   0.603  0.3627 -0.1202  0.1436
   15CHTO   O25 6242   6.715   3.729   0.730  0.4611  0.4821  0.7900
   15CHTO   H40 6243   6.736   3.658   0.788  0.2382  1.9258  2.6911
   15CHTO   O15 6244   6.259   3.944   0.702 -0.1565 -0.0826 -0.2347
   15CHTO   C19 6245   6.284   4.080   0.749  0.6368  0.6755 -0.4435
   15CHTO   H47 6246   6.334   4.132   0.666  0.6433  0.6484 -0.4562
   15CHTO   C20 6247   6.156   4.164   0.782 -0.4652  0.1865  0.0153
   15CHTO   H48 6248   6.096   4.116   0.861  3.3062 -1.8745  1.7598
   15CHTO   O19 6249   6.081   4.167   0.660  0.3147  0.4354 -0.0932
   15CHTO   H35 6250   6.136   4.221   0.606 -1.0620  1.5329 -0.4365
   15CHTO   C21 6251   6.185   4.308   0.838  0.3135  0.4408 -0.4789
   15CHTO   H49 6252   6.249   4.361   0.767  0.9003 -0.0627 -0.3304
   15CHTO    N4 6253   6.064   4.390   0.868 -0.4192  0.2385 -0.3665
   15CHTO   H41 6254   5.974   4.331   0.863  1.5709 -2.9652  0.1563
   15CHTO   H42 6255   6.054   4.476   0.803  1.5166 -0.2447 -1.3558
   15CHTO   C22 6256   6.278   4.295   0.957 -0.6119  0.0097 -0.6622
   15CHTO   H50 6257   6.234   4.249   1.045 -0.9562  1.5477 -0.0125
   15CHTO   O14 6258   6.393   4.217   0.926 -0.4577 -0.3576 -0.1305
   15CHTO   C23 6259   6.376   4.088   0.874 -0.6066  0.7454 -0.1752
   15CHTO   H51 6260   6.343   4.019   0.953  2.3172  0.2007  0.6240
   15CHTO   C34 6261   6.522   4.049   0.850  0.0293  0.4812 -0.0181
   15CHTO   O23 6262   6.578   4.003   0.976 -0.5670  0.2644 -0.2094
   15CHTO   H38 6263   6.527   3.936   1.017 -0.4933 -0.5035 -1.3555
   15CHTO   O16 6264   6.346   4.415   0.999 -0.0769  0.4696 -0.2716
   15CHTO   C24 6265   6.362   4.435   1.147  0.2732  0.6059 -0.3385
   15CHTO   H52 6266   6.328   4.350   1.205  1.5882  0.1645 -0.2029
   15CHTO   C26 6267   6.280   4.557   1.196 -0.6658  0.5601  0.4441
   15CHTO   H54 6268   6.306   4.644   1.133  1.2013 -0.4118 -0.1727
   15CHTO   O20 6269   6.143   4.514   1.180 -0.0832 -0.0337  0.2328
   15CHTO   H36 6270   6.076   4.572   1.150 -0.4872 -0.9350 -0.6009
   15CHTO   C30 6271   6.317   4.578   1.349 -0.0150  0.3319  0.4026
   15CHTO   H58 6272   6.284   4.491   1.409 -0.5042  1.3206  1.5967
   15CHTO    N6 6273   6.239   4.687   1.407  0.4655 -0.1437 -0.3489
   15CHTO   H45 6274   6.271   4.783   1.369 -2.1269  0.6825 -0.5762
   15CHTO   H46 6275   6.251   4.693   1.514 -1.3417  0.8828 -0.1702
   15CHTO   C33 6276   6.473   4.588   1.365 -0.0291 -0.0015 -0.2544
   15CHTO   H61 6277   6.518   4.671   1.308  0.6002  1.0034  1.6610
   15CHTO   O18 6278   6.535   4.470   1.317  0.0660  0.0136 -0.4558
   15CHTO   C28 6279   6.519   4.454   1.177 -0.7727 -0.1907 -0.2055
   15CHTO   H56 6280   6.559   4.541   1.125  1.6565 -1.7658 -1.0586
   15CHTO   C35 6281   6.598   4.328   1.150 -0.2748  0.3287  0.7085
   15CHTO   O24 6282   6.524   4.212   1.169  0.3505  0.3098 -0.0015
   15CHTO   H39 6283   6.583   4.140   1.156 -1.2848 -0.8674 -1.2078
   15CHTO    O9 6284   6.512   4.615   1.499 -0.1061 -0.0323  0.5957
   15CHTO   C13 6285   6.649   4.693   1.535 -0.1205  0.8309  0.4528
   15CHTO   H26 6286   6.621   4.800   1.542 -1.3732  0.5338  0.1912
   15CHTO   C11 6287   6.769   4.673   1.424  0.1059  0.1505 -0.0447
   15CHTO   H24 6288   6.743   4.724   1.330  3.6293 -0.0044 -1.1792
   15CHTO    O8 6289   6.782   4.532   1.406  0.2134 -0.1468 -0.4852
   15CHTO    H3 6290   6.733   4.502   1.332  1.2115  0.4669 -1.3977
   15CHTO    C9 6291   6.896   4.744   1.479  0.1367 -0.3199  0.0166
   15CHTO   H22 6292   6.870   4.851   1.486  1.1285 -0.0659 -0.0249
   15CHTO    N2 6293   7.009   4.742   1.380 -0.2314 -0.6774 -0.3695
   15CHTO   H10 6294   6.987   4.821   1.309 -0.1605  1.0306  1.4774
   15CHTO   H11 6295   7.102   4.774   1.425 -1.4503  0.9900  0.9944
   15CHTO    C7 6296   6.935   4.693   1.619  0.1964 -0.2672  0.6738
   15CHTO   H20 6297   7.018   4.758   1.652 -0.3774  0.2709  1.0709
   15CHTO    O4 6298   6.826   4.711   1.718  0.5779  0.7291 -0.1770
   15CHTO   C14 6299   6.689   4.665   1.689 -1.1237  0.2346  0.6538
   15CHTO   H27 6300   6.613   4.717   1.750 -0.2830 -0.5580  2.4074
   15CHTO   C18 6301   6.669   4.519   1.723  0.4215 -0.8518 -0.1526
   15CHTO   O13 6302   6.723   4.494   1.857 -0.3248  0.4188 -0.2331
   15CHTO    H7 6303   6.659   4.534   1.914 -0.5757 -0.4296  0.0850
   15CHTO    O2 6304   6.986   4.539   1.610 -0.2178 -0.0124 -0.1543
   15CHTO    C1 6305   7.073   4.498   1.713  0.1617  0.6574  0.6243
   15CHTO   H14 6306   7.026   4.513   1.813 -1.9583 -0.5939 -0.1431
   15CHTO    C2 6307   7.219   4.562   1.718  0.3181  0.7458  0.4044
   15CHTO   H15 6308   7.251   4.561   1.613  0.6661  0.1823  0.5157
   15CHTO    O6 6309   7.226   4.701   1.755 -0.0009 -0.3305 -0.3492
   15CHTO    H1 6310   7.287   4.753   1.707  0.8538 -0.6644  0.3669
   15CHTO    C3 6311   7.321   4.484   1.811 -0.2473 -0.1505  0.4723
   15CHTO   H16 6312   7.305   4.512   1.916 -1.1971  0.8110  0.0800
   15CHTO    N1 6313   7.461   4.532   1.770  0.1247  0.2676 -0.1134
   15CHTO    H8 6314   7.517   4.451   1.725 -1.0770 -0.7989  0.2847
   15CHTO    H9 6315   7.460   4.614   1.699  2.6430  0.6329  0.2265
   15CHTO    C4 6316   7.316   4.325   1.804 -0.0544 -0.9905  0.1716
   15CHTO   H17 6317   7.358   4.293   1.709 -0.5922 -0.0205 -0.3928
   15CHTO    O1 6318   7.173   4.299   1.814  0.0667 -0.2326 -0.5115
   15CHTO    C5 6319   7.092   4.341   1.705 -0.4596  0.3720  0.0939
   15CHTO   H18 6320   7.141   4.320   1.611 -1.5646 -0.7864 -0.2448
   15CHTO   C16 6321   6.961   4.261   1.711 -0.0166  0.3515 -0.9556
   15CHTO   O11 6322   6.894   4.260   1.583  0.1422  0.1805  0.5220
   15CHTO    H5 6323   6.954   4.210   1.531  0.1424 -0.0872  0.7747
   15CHTO    O3 6324   7.385   4.253   1.906  0.2569  0.0519 -0.1995
   15CHTO    C6 6325   7.452   4.119   1.872 -0.1046 -0.4451  0.3802
   15CHTO   H19 6326   7.403   4.084   1.781 -1.1129  0.3775  0.5923
   15CHTO    C8 6327   7.605   4.140   1.841 -0.3193 -0.1188 -0.6502
   15CHTO   H21 6328   7.660   4.165   1.932  0.1873 -1.1392 -0.6660
   15CHTO    O7 6329   7.617   4.239   1.740 -0.0525  0.5232 -0.3125
   15CHTO    H2 6330   7.678   4.308   1.758  0.7928 -0.0300 -1.0252
   15CHTO   C12 6331   7.671   4.002   1.795  0.9748 -0.1759 -0.8846
   15CHTO   H25 6332   7.619   3.964   1.705  0.5737  0.4048 -0.8961
   15CHTO    N3 6333   7.820   4.014   1.764 -0.2140  0.0009 -0.0207
   15CHTO   H12 6334   7.848   4.104   1.712 -0.9738 -1.3946 -2.9753
   15CHTO   H13 6335   7.852   3.918   1.727 -3.4805 -1.0628 -0.2883
   15CHTO   C15 6336   7.653   3.900   1.907 -0.6347 -0.3218  0.4257
   15CHTO   H28 6337   7.701   3.938   1.997 -1.5254  1.1463  0.3014
   15CHTO   O10 6338   7.697   3.746   1.869  0.0715  0.3962 -0.6591
   15CHTO    H4 6339   7.624   3.714   1.819 -2.5671  1.3234  2.4120
   15CHTO    O5 6340   7.514   3.893   1.943  0.0331  0.0359  0.2100
   15CHTO   C10 6341   7.441   4.006   1.983 -0.0449 -0.2108  0.3518
   15CHTO   H23 6342   7.483   4.033   2.080  1.2377 -0.9454  0.0106
   15CHTO   C17 6343   7.295   3.959   1.998 -0.6463  0.6173  0.0340
   15CHTO   O12 6344   7.225   3.888   1.894 -0.1448 -0.6370 -0.1146
   15CHTO    H6 6345   7.213   3.945   1.820 -0.9727 -0.5705  0.0650
   16CHTO  H203 6346   5.412   4.592   1.032 -0.1049 -2.7988 -0.7898
   16CHTO   O82 6347   5.484   4.564   0.980  1.0657 -0.6943 -0.3713
   16CHTO  C123 6348   5.538   4.456   1.057 -0.1717 -0.7156  0.2294
   16CHTO  H227 6349   5.455   4.395   1.096 -1.2203 -0.4616 -1.5525
   16CHTO   O77 6350   5.619   4.385   0.960  0.0100  0.2270  0.3071
   16CHTO  C118 6351   5.656   4.261   1.009  0.1284 -0.7694 -0.1016
   16CHTO  H222 6352   5.562   4.208   1.029 -0.4105 -0.1768 -1.0345
   16CHTO  C125 6353   5.729   4.179   0.896 -0.3506  0.6920 -0.2648
   16CHTO   O84 6354   5.653   4.132   0.783  0.2945 -0.0784 -0.4383
   16CHTO  H205 6355   5.699   4.063   0.739  1.8278  0.2306  0.6559
   16CHTO  C114 6356   5.761   4.284   1.122  0.2241  0.3144 -1.2423
   16CHTO  H218 6357   5.857   4.317   1.081  0.0477 -0.3717 -2.2337
   16CHTO  C116 6358   5.701   4.384   1.228  0.5918  0.0038  0.0300
   16CHTO  H220 6359   5.629   4.329   1.292  0.0548 -0.9008 -1.3461
   16CHTO   O79 6360   5.805   4.424   1.324 -0.4568  0.1779 -0.0953
   16CHTO  H201 6361   5.885   4.378   1.307 -1.7690 -2.1043 -0.3463
   16CHTO  C120 6362   5.626   4.507   1.170 -0.0895 -0.0149  0.7496
   16CHTO  H224 6363   5.702   4.567   1.116 -0.7196 -2.5595 -3.2204
   16CHTO   N21 6364   5.557   4.591   1.278  0.3572 -0.1387 -1.0235
   16CHTO  H211 6365   5.459   4.552   1.300  0.9258 -1.5614 -0.9053
   16CHTO  H212 6366   5.613   4.589   1.371 -0.4395 -0.0945 -0.5362
   16CHTO   O75 6367   5.782   4.153   1.183 -0.3270  0.0797  0.1208
   16CHTO  C112 6368   5.942   4.104   1.173 -0.2282 -0.4170  0.0696
   16CHTO  H216 6369   6.007   4.189   1.145 -2.6014  1.8523  1.2235
   16CHTO   O73 6370   5.947   3.997   1.079 -0.2621  0.0860  0.0950
   16CHTO  C113 6371   6.073   3.933   1.055  0.6566 -0.0042  0.1496
   16CHTO  H217 6372   6.135   4.017   1.017 -3.2652  1.8822 -2.4796
   16CHTO  C124 6373   6.055   3.826   0.948 -0.3503 -0.2023 -0.4945
   16CHTO   O83 6374   5.989   3.868   0.829 -0.3953  0.3523 -0.1516
   16CHTO  H204 6375   6.028   3.941   0.785  0.1675  0.4579  0.5243
   16CHTO  C109 6376   6.124   3.873   1.181  0.5049  0.3790 -0.2165
   16CHTO  H213 6377   6.058   3.791   1.211 -0.9958  1.4612 -0.4801
   16CHTO  C110 6378   6.135   3.981   1.294  0.9724  0.6780  0.8933
   16CHTO  H214 6379   6.206   4.059   1.268 -1.9159  3.2061  0.2710
   16CHTO   O78 6380   6.174   3.915   1.418 -0.2036 -0.1037  0.3845
   16CHTO  H200 6381   6.104   3.867   1.457 -1.4474  2.1404  1.0030
   16CHTO  C111 6382   5.991   4.040   1.310 -0.2834 -0.0409 -0.5898
   16CHTO  H215 6383   5.919   3.961   1.333  0.6805 -1.2364 -1.6173
   16CHTO   N19 6384   5.973   4.144   1.418 -0.2566 -0.4549  0.1460
   16CHTO  H207 6385   5.968   4.104   1.518  0.0149 -1.0838 -0.0834
   16CHTO  H208 6386   5.890   4.212   1.409  1.4845  1.8521  1.1174
   16CHTO   O74 6387   6.258   3.816   1.153  0.4468 -0.1013  0.3710
   16CHTO  C115 6388   6.291   3.669   1.231 -0.0055 -0.2997  0.7327
   16CHTO  H219 6389   6.238   3.665   1.326  0.8233  0.0096  1.2143
   16CHTO   O76 6390   6.237   3.539   1.137 -0.1937  0.5241 -0.0293
   16CHTO  C122 6391   6.308   3.544   1.014 -0.0902 -0.1752  0.8574
   16CHTO  H226 6392   6.302   3.645   0.976 -0.7171  0.9411  3.7598
   16CHTO  C126 6393   6.238   3.445   0.914 -0.4867 -0.2969  0.4793
   16CHTO   O85 6394   6.273   3.475   0.778 -0.0492 -0.1284  0.1233
   16CHTO  H206 6395   6.245   3.406   0.721  1.0588 -0.8595  0.4464
   16CHTO  C121 6396   6.464   3.508   1.034  0.4093  0.3370 -0.1375
   16CHTO  H225 6397   6.496   3.411   0.990  0.6437 -0.2628  1.3315
   16CHTO   O81 6398   6.529   3.597   0.945  0.0736 -0.2607 -1.0965
   16CHTO  H202 6399   6.617   3.615   0.973 -0.8419  2.0320  0.4434
   16CHTO  C119 6400   6.512   3.530   1.183  0.4793  0.3825  0.1925
   16CHTO  H223 6401   6.469   3.445   1.237 -1.1203  0.1269 -1.4381
   16CHTO  C117 6402   6.449   3.665   1.239 -0.2360 -0.1605  0.4013
   16CHTO  H221 6403   6.476   3.757   1.189  0.4107 -0.8987 -0.6320
   16CHTO   N20 6404   6.477   3.685   1.384 -0.4532 -0.0957 -0.1365
   16CHTO  H209 6405   6.426   3.605   1.436  0.2823  0.3885  1.3283
   16CHTO  H210 6406   6.581   3.671   1.409 -0.4197  1.0574  0.4031
   16CHTO   O80 6407   6.655   3.503   1.201 -0.0988 -0.1135  0.0092
   16CHTO  C103 6408   6.708   3.338   1.195  0.1496 -0.0575 -0.8835
   16CHTO  H190 6409   6.625   3.271   1.169  0.0775  0.0807 -1.0116
   16CHTO  C101 6410   6.827   3.302   1.101 -0.5846  0.1088 -0.3030
   16CHTO  H188 6411   6.914   3.356   1.139 -0.5263 -1.7679  2.3690
   16CHTO   O68 6412   6.789   3.342   0.942 -0.3540 -0.4553  0.2672
   16CHTO  H168 6413   6.700   3.329   0.915 -0.5008 -1.2912  1.1328
   16CHTO   C99 6414   6.873   3.148   1.126  0.0554 -0.0772 -0.1235
   16CHTO  H186 6415   6.789   3.082   1.096  0.9268 -0.5855 -1.5231
   16CHTO   N17 6416   6.989   3.105   1.044 -0.4902  0.4490 -0.5759
   16CHTO  H174 6417   6.983   3.001   1.018  2.5084  0.3333 -1.0173
   16CHTO  H175 6418   7.002   3.154   0.949  0.6876  1.5917  0.1626
   16CHTO   C97 6419   6.899   3.120   1.274  0.5083  0.3659  0.2090
   16CHTO  H184 6420   6.994   3.163   1.308  0.6683 -0.9875  1.5623
   16CHTO   O64 6421   6.789   3.163   1.354  0.5029 -0.2578  0.2128
   16CHTO  C104 6422   6.747   3.299   1.342  0.1612 -0.1812  0.0085
   16CHTO  H191 6423   6.828   3.365   1.372  0.8982  0.0641 -2.4050
   16CHTO  C108 6424   6.629   3.323   1.439 -0.9605 -0.0143 -0.4479
   16CHTO   O71 6425   6.662   3.299   1.577 -0.2070  0.0148 -0.0862
   16CHTO  H171 6426   6.603   3.355   1.622  0.8026  0.0161  1.2589
   16CHTO   O62 6427   6.896   2.979   1.294  0.3657  0.3924  0.0246
   16CHTO   C91 6428   6.899   2.926   1.427  0.3548  0.5252  0.1827
   16CHTO  H178 6429   6.878   3.001   1.503  0.2132  0.9909 -0.3142
   16CHTO   C92 6430   7.044   2.867   1.462  0.1078 -0.0429 -0.5901
   16CHTO  H179 6431   7.060   2.775   1.404  0.4287 -0.3292 -0.0547
   16CHTO   O66 6432   7.150   2.964   1.443  0.1443  0.2677  0.1411
   16CHTO  H166 6433   7.122   3.049   1.469 -2.6796 -0.6678  0.3277
   16CHTO   C93 6434   7.031   2.830   1.619  1.1872  0.5235  0.4543
   16CHTO  H180 6435   7.028   2.927   1.672 -1.0491 -0.3744  2.0319
   16CHTO   N16 6436   7.147   2.757   1.666 -0.5044 -0.0994  0.2335
   16CHTO  H172 6437   7.233   2.821   1.671 -1.0262  0.5490  0.9211
   16CHTO  H173 6438   7.163   2.669   1.605 -1.8667  0.5742 -1.1466
   16CHTO   C94 6439   6.902   2.743   1.656 -0.3127  0.0194  0.2574
   16CHTO  H181 6440   6.916   2.639   1.627 -0.3180  0.7748 -2.6477
   16CHTO   O61 6441   6.785   2.776   1.588  0.2701 -0.4098  0.3800
   16CHTO   C95 6442   6.796   2.810   1.450 -0.1949  0.4922  0.4173
   16CHTO  H182 6443   6.831   2.719   1.402  0.9609  0.7597  0.7291
   16CHTO  C106 6444   6.652   2.847   1.402  0.7738 -0.8818  0.2309
   16CHTO   O69 6445   6.578   2.727   1.370 -0.0687  0.3834 -0.0449
   16CHTO  H169 6446   6.489   2.734   1.397 -1.1209 -0.8904 -2.9914
   16CHTO   O63 6447   6.862   2.751   1.816  0.3440  0.2252  0.0739
   16CHTO   C96 6448   6.714   2.708   1.849 -0.3033 -0.7875  0.2213
   16CHTO  H183 6449   6.719   2.694   1.957  0.5472  1.9777  0.5774
   16CHTO   C98 6450   6.645   2.576   1.792  0.1681  0.2267  0.3833
   16CHTO  H185 6451   6.651   2.573   1.682  0.1590 -0.4502  0.3986
   16CHTO   O67 6452   6.719   2.462   1.836  0.3589  0.2008  0.6078
   16CHTO  H167 6453   6.750   2.412   1.763  0.5467 -0.0459  0.8529
   16CHTO  C102 6454   6.488   2.558   1.844 -0.0377  0.7136  0.1483
   16CHTO  H189 6455   6.488   2.537   1.952  0.8793 -1.4488 -0.2601
   16CHTO   N18 6456   6.412   2.442   1.786  0.1461 -0.5119  0.6727
   16CHTO  H176 6457   6.467   2.393   1.707  0.6305 -0.5848  1.0601
   16CHTO  H177 6458   6.327   2.476   1.727  1.0657  0.1616 -0.2903
   16CHTO  C105 6459   6.417   2.698   1.824 -0.7100  0.4335 -0.0502
   16CHTO  H192 6460   6.428   2.729   1.720  1.4042  1.1944  0.3702
   16CHTO   O65 6461   6.480   2.803   1.897 -0.3676  0.7329 -0.1631
   16CHTO  C100 6462   6.615   2.829   1.845 -0.0503 -0.3066 -0.5243
   16CHTO  H187 6463   6.612   2.850   1.737  0.2797  2.7639  0.0238
   16CHTO  C107 6464   6.667   2.961   1.908  0.6540  0.3750  0.9178
   16CHTO   O70 6465   6.685   2.941   2.051  0.0158 -0.1521  0.5325
   16CHTO  H170 6466   6.776   2.928   2.068 -0.1534 -1.0615  0.7658
   16CHTO   O57 6467   6.260   2.688   1.862 -0.2902 -0.2000 -0.1874
   16CHTO   C85 6468   6.171   2.740   1.766 -0.5842 -0.1739  0.2038
   16CHTO  H157 6469   6.212   2.750   1.664 -1.0307  0.5096  0.0824
   16CHTO   C83 6470   6.146   2.892   1.798 -0.5089 -0.2123 -1.2346
   16CHTO  H155 6471   6.247   2.930   1.783 -0.5867  1.0315  1.0620
   16CHTO   O56 6472   6.119   2.907   1.939  0.6202  0.5268 -0.5109
   16CHTO  H135 6473   6.068   2.985   1.953  2.9199  2.1618 -0.7949
   16CHTO   C81 6474   6.051   2.957   1.700  0.3908 -0.4095  0.1982
   16CHTO  H153 6475   6.095   2.951   1.601 -0.5791  0.7545 -0.3043
   16CHTO   N14 6476   6.027   3.102   1.732  0.1246 -0.3038  0.1250
   16CHTO  H141 6477   5.972   3.151   1.655  1.2112 -2.5276 -2.1389
   16CHTO  H142 6478   6.121   3.152   1.736 -0.2582  0.4157  0.2022
   16CHTO   C79 6479   5.920   2.882   1.691  0.1485  0.2674  0.4995
   16CHTO  H151 6480   5.868   2.918   1.602  1.2848 -0.0773 -0.3132
   16CHTO   O52 6481   5.924   2.736   1.682 -0.7249  0.2485 -0.2857
   16CHTO   C86 6482   6.026   2.674   1.768  0.2718 -0.4214  0.7548
   16CHTO  H158 6483   5.990   2.679   1.873 -1.9756  0.0127 -0.0098
   16CHTO   C90 6484   6.041   2.522   1.731  0.2063  0.6852  0.4405
   16CHTO   O60 6485   5.912   2.463   1.716  0.3596  0.3718  0.4395
   16CHTO  H138 6486   5.926   2.375   1.687  1.0389 -0.2806  2.6542
   16CHTO   O50 6487   5.814   2.919   1.787  0.7018 -0.3896  0.5863
   16CHTO   C73 6488   5.675   2.915   1.789  0.2906  0.2545 -0.2312
   16CHTO  H145 6489   5.629   2.817   1.812  1.6826  0.3509  3.2369
   16CHTO   C74 6490   5.602   2.959   1.661 -0.2668 -0.2572  0.0422
   16CHTO  H146 6491   5.649   2.901   1.580 -1.7573 -0.2808 -0.8258
   16CHTO   O54 6492   5.467   2.903   1.675  0.6746 -0.5081  0.1265
   16CHTO  H133 6493   5.475   2.813   1.700  0.9984 -0.0772  1.6067
   16CHTO   C75 6494   5.622   3.118   1.643 -0.5140  0.4258 -0.3769
   16CHTO  H147 6495   5.730   3.138   1.645 -0.4748  0.2954 -1.0561
   16CHTO   N13 6496   5.562   3.170   1.517 -0.0833 -0.7178 -0.8758
   16CHTO  H139 6497   5.513   3.264   1.539  1.0862 -0.1209 -0.7668
   16CHTO  H140 6498   5.490   3.106   1.468  1.8007 -1.1628 -3.1374
   16CHTO   C76 6499   5.575   3.188   1.777 -0.2561  0.8706  0.0714
   16CHTO  H148 6500   5.468   3.169   1.782 -0.8754  3.4493 -2.2759
   16CHTO   O49 6501   5.636   3.138   1.894 -0.3841  0.2181 -0.7888
   16CHTO   C77 6502   5.627   2.998   1.917  0.5626  0.1292 -0.4226
   16CHTO  H149 6503   5.530   2.956   1.944  2.0549 -2.5670  0.9869
   16CHTO   C88 6504   5.714   2.976   2.042 -0.6899  0.0986  0.5907
   16CHTO   O58 6505   5.692   2.840   2.101  0.7875 -0.2188 -0.3360
   16CHTO  H136 6506   5.759   2.827   2.166  1.1101  0.3917 -0.5343
   16CHTO   O51 6507   5.606   3.325   1.767  0.0748 -0.1201  0.5722
   16CHTO   C78 6508   5.529   3.424   1.850 -0.8852 -0.1211  0.3773
   16CHTO  H150 6509   5.474   3.365   1.927 -0.6515 -0.3049  0.4041
   16CHTO   C80 6510   5.427   3.503   1.770  0.1211 -0.6319 -0.0311
   16CHTO  H152 6511   5.485   3.554   1.691 -0.0906 -2.2244 -1.2387
   16CHTO   O55 6512   5.337   3.416   1.709 -0.1343 -0.0468 -0.3826
   16CHTO  H134 6513   5.375   3.400   1.625  0.2876  0.1944 -0.2362
   16CHTO   C84 6514   5.350   3.606   1.869 -0.0777 -0.4322 -0.3664
   16CHTO  H156 6515   5.285   3.544   1.931  0.1615  0.9295  1.2445
   16CHTO   N15 6516   5.265   3.706   1.795  0.6629 -0.0352  0.1265
   16CHTO  H143 6517   5.324   3.750   1.717  1.2833 -2.7051 -0.9481
   16CHTO  H144 6518   5.179   3.661   1.750 -0.3290  1.6656  0.2654
   16CHTO   C87 6519   5.460   3.676   1.955 -0.0553 -0.4209  0.2741
   16CHTO  H159 6520   5.519   3.750   1.901  0.9436 -1.4739 -0.1053
   16CHTO   O53 6521   5.557   3.584   2.010 -0.3747 -0.2197 -0.4707
   16CHTO   C82 6522   5.630   3.515   1.918  0.1953 -0.2589  0.2809
   16CHTO  H154 6523   5.677   3.581   1.845 -0.3856  0.0200  0.1595
   16CHTO   C89 6524   5.738   3.438   1.993  0.1687 -0.2894  0.2947
   16CHTO   O59 6525   5.854   3.409   1.914 -0.0860  0.3093 -0.5344
   16CHTO  H137 6526   5.842   3.326   1.872 -0.2718 -0.5148  1.0888
   16CHTO   O45 6527   5.380   3.753   2.079  0.5461 -0.1061 -0.7566
   16CHTO   C67 6528   5.466   3.827   2.159 -0.1405  0.0711 -0.7255
   16CHTO  H124 6529   5.568   3.803   2.131 -0.2960  0.8576 -2.0015
   16CHTO   C65 6530   5.445   3.982   2.132  0.9709 -0.0661 -0.2926
   16CHTO  H122 6531   5.343   3.991   2.095  1.5550 -1.6375 -2.3476
   16CHTO   O44 6532   5.524   4.026   2.022 -0.5585  0.1581  0.1783
   16CHTO  H102 6533   5.473   4.006   1.946 -0.9939  0.6017  0.3519
   16CHTO   C63 6534   5.456   4.060   2.273  0.1252 -0.7705  0.5396
   16CHTO  H120 6535   5.367   4.034   2.330  0.5215  0.0699  1.5468
   16CHTO   N11 6536   5.438   4.206   2.250 -0.0831 -0.3627  0.3836
   16CHTO  H108 6537   5.529   4.261   2.248 -0.4067  0.1377 -1.3168
   16CHTO  H109 6538   5.377   4.244   2.171  0.9728  1.4597  0.4241
   16CHTO   C61 6539   5.580   4.001   2.352  0.2925 -0.1656 -0.5462
   16CHTO  H118 6540   5.576   4.059   2.446  1.4813 -0.7853 -0.0929
   16CHTO   O40 6541   5.551   3.868   2.388 -0.8581 -0.3359 -0.6312
   16CHTO   C68 6542   5.450   3.791   2.317 -1.0728 -0.3004 -0.0463
   16CHTO  H125 6543   5.353   3.820   2.362 -0.3170  0.0916  1.3714
   16CHTO   C72 6544   5.469   3.642   2.348 -0.0690  0.2669  0.2554
   16CHTO   O48 6545   5.356   3.576   2.284  0.2274 -0.3343  0.1257
   16CHTO  H105 6546   5.379   3.561   2.194 -3.0523 -2.3715 -0.4413
   16CHTO   O38 6547   5.705   4.023   2.278  0.0705  0.4125 -0.0840
   16CHTO   C55 6548   5.830   3.965   2.326  0.5349  0.0867  0.2581
   16CHTO  H112 6549   5.803   3.879   2.389 -2.4937  0.7679 -0.0301
   16CHTO   C56 6550   5.906   4.073   2.402 -0.5013  0.1119  0.2762
   16CHTO  H113 6551   5.912   4.166   2.343  2.8178  0.6323  1.3440
   16CHTO   O42 6552   5.836   4.096   2.523 -0.1516 -0.5976  0.0021
   16CHTO  H100 6553   5.839   4.190   2.529 -0.0585 -0.4114 -2.5207
   16CHTO   C57 6554   6.053   4.021   2.430 -0.4357  0.2792 -0.5211
   16CHTO  H114 6555   6.046   3.936   2.499 -1.4118  0.0157 -0.9411
   16CHTO   N10 6556   6.128   4.129   2.505  0.0463 -0.0555  0.7387
   16CHTO  H106 6557   6.120   4.223   2.453  1.6034 -0.4233 -0.1830
   16CHTO  H107 6558   6.231   4.108   2.529  1.1035  2.9479 -0.9352
   16CHTO   C58 6559   6.116   3.970   2.297  0.3114 -0.5832 -0.0529
   16CHTO  H115 6560   6.123   4.055   2.225  1.4368 -0.3741  0.2976
   16CHTO   O37 6561   6.044   3.858   2.245  0.0288 -0.0667  0.2243
   16CHTO   C59 6562   5.911   3.894   2.215  0.0971 -0.0137 -0.5086
   16CHTO  H116 6563   5.906   3.955   2.125 -1.4388 -0.0336 -0.4607
   16CHTO   C70 6564   5.833   3.759   2.185 -0.1055 -0.8245 -1.0460
   16CHTO   O46 6565   5.899   3.697   2.077 -0.5389 -0.3559 -0.4336
   16CHTO  H103 6566   5.919   3.607   2.096  0.0577 -0.2338 -0.4894
   16CHTO   O39 6567   6.268   3.913   2.327  0.3056  0.0991 -0.3768
   16CHTO   C60 6568   6.353   3.900   2.212  0.4926  0.1638 -0.2177
   16CHTO  H117 6569   6.302   3.943   2.126  1.6507  0.3626 -0.8186
   16CHTO   C62 6570   6.485   3.980   2.222 -0.2984  0.0614 -0.7197
   16CHTO  H119 6571   6.461   4.087   2.239  0.1036 -0.1760  1.4401
   16CHTO   O43 6572   6.551   3.926   2.345 -0.3396 -0.6125  0.3282
   16CHTO  H101 6573   6.623   3.985   2.353 -1.0202  0.0320  1.8355
   16CHTO   C66 6574   6.566   3.963   2.087 -0.4421  0.0862 -0.4871
   16CHTO  H123 6575   6.510   4.005   2.003  0.0335 -0.1965 -0.9528
   16CHTO   N12 6576   6.695   4.038   2.098 -0.6909  0.3259 -0.2314
   16CHTO  H110 6577   6.679   4.136   2.140  0.9012  0.3581  0.3511
   16CHTO  H111 6578   6.770   3.981   2.150  0.2396  0.5608 -1.2905
   16CHTO   C69 6579   6.592   3.812   2.055  0.0708  0.4700 -0.0032
   16CHTO  H126 6580   6.638   3.751   2.135 -0.5185  0.7648  0.5583
   16CHTO   O41 6581   6.443   3.741   2.050 -0.2345 -0.4988 -0.1027
   16CHTO   C64 6582   6.379   3.753   2.178  0.2780  0.2368  0.0341
   16CHTO  H121 6583   6.442   3.712   2.260 -0.7758  0.1032  0.7910
   16CHTO   C71 6584   6.254   3.662   2.176  0.3598 -0.4486 -0.8444
   16CHTO   O47 6585   6.294   3.521   2.170 -0.5818  0.4765 -0.6771
   16CHTO  H104 6586   6.222   3.470   2.137  0.3695 -0.6976 -0.9869
   16CHTO   O34 6587   6.683   3.768   1.920 -0.2300  0.1699  0.2951
   16CHTO   C49 6588   6.799   3.653   1.891 -0.0092  1.0950 -0.1672
   16CHTO   H91 6589   6.868   3.700   1.820 -0.0590  0.6638 -0.5047
   16CHTO   C47 6590   6.727   3.525   1.843  0.6900 -0.2938 -0.0553
   16CHTO   H89 6591   6.805   3.452   1.816 -1.5724 -3.1500  0.9399
   16CHTO   O33 6592   6.645   3.566   1.727 -0.0913  0.8427 -0.7645
   16CHTO   H70 6593   6.686   3.614   1.658  1.1580 -0.4397 -0.9449
   16CHTO   C45 6594   6.640   3.463   1.961 -0.5026  0.1659  0.3689
   16CHTO   H87 6595   6.568   3.535   2.002 -1.9316  0.9356 -3.2907
   16CHTO    N8 6596   6.561   3.346   1.928 -0.0615  0.6266 -0.1855
   16CHTO   H75 6597   6.612   3.251   1.933  0.5711  0.8020 -2.6161
   16CHTO   H76 6598   6.468   3.340   1.982  0.9273  0.5034  1.5504
   16CHTO   C43 6599   6.747   3.430   2.083 -0.0080 -0.6536 -0.4207
   16CHTO   H85 6600   6.682   3.397   2.165  0.4261  1.3477  0.7693
   16CHTO   O29 6601   6.813   3.552   2.116 -0.4928 -0.1367 -0.1991
   16CHTO   C50 6602   6.884   3.611   2.017 -0.5484 -0.5115 -0.1058
   16CHTO   H92 6603   6.908   3.708   2.062 -2.6957  0.5413 -1.1362
   16CHTO   C54 6604   7.023   3.545   1.980  0.1673  0.0746 -0.4193
   16CHTO   O36 6605   7.098   3.627   1.887  0.3953 -0.2761  0.5020
   16CHTO   H72 6606   7.190   3.609   1.889  0.1096 -1.9719 -0.7090
   16CHTO   O27 6607   6.834   3.318   2.066  0.1155  0.3196  0.5340
   16CHTO   C37 6608   6.944   3.253   2.133  0.3262  0.4125  0.0923
   16CHTO   H79 6609   7.028   3.324   2.137 -1.5352  2.6928 -0.1474
   16CHTO   C38 6610   6.893   3.221   2.279  0.2593 -0.0380 -1.0643
   16CHTO   H80 6611   6.791   3.183   2.273 -0.0423  0.2933  1.2850
   16CHTO   O31 6612   6.877   3.347   2.340 -0.4778  0.5528 -0.2294
   16CHTO   H68 6613   6.831   3.345   2.422 -2.3400 -0.7805 -1.2787
   16CHTO   C39 6614   6.984   3.125   2.364 -0.1035  0.4191  0.0921
   16CHTO   H81 6615   7.079   3.174   2.386  0.3664 -0.1742 -0.5907
   16CHTO    N7 6616   6.925   3.082   2.501  0.0902  0.0266 -0.7947
   16CHTO   H73 6617   7.001   3.068   2.577 -1.6056  0.7129  1.0645
   16CHTO   H74 6618   6.847   3.150   2.533 -1.7717 -1.4348 -2.1232
   16CHTO   C40 6619   7.027   3.008   2.273 -0.6514 -0.0219  0.4160
   16CHTO   H82 6620   6.937   2.947   2.262 -0.8402  0.5057 -1.0028
   16CHTO   O26 6621   7.078   3.044   2.142  0.2066  0.3897 -0.0231
   16CHTO   C41 6622   6.983   3.125   2.071  0.0949 -0.4523  0.5156
   16CHTO   H83 6623   6.889   3.069   2.055 -0.1374  0.7738 -3.0038
   16CHTO   C52 6624   7.029   3.140   1.924 -0.6269 -0.6020  0.6467
   16CHTO   O35 6625   6.949   3.224   1.819  0.4856 -0.1673 -0.5277
   16CHTO   H71 6626   6.994   3.246   1.740  0.9751  0.1598 -0.1652
   16CHTO   O28 6627   7.129   2.926   2.332 -0.8566 -0.1605 -0.1318
   16CHTO   C42 6628   7.179   2.792   2.300 -0.9592  0.3916 -0.2308
   16CHTO   H84 6629   7.240   2.778   2.389  1.1322  1.7874 -1.4010
   16CHTO   C44 6630   7.268   2.768   2.181 -0.3794 -0.7423  0.0594
   16CHTO   H86 6631   7.227   2.818   2.093  0.9992  0.8305  0.2792
   16CHTO   O32 6632   7.383   2.840   2.211 -0.3769 -0.3161 -0.1138
   16CHTO   H69 6633   7.411   2.881   2.132  0.8644 -1.8001 -0.4609
   16CHTO   C48 6634   7.300   2.619   2.153  0.7870  0.5802 -0.8451
   16CHTO   H90 6635   7.340   2.590   2.251 -1.5153 -0.3118 -0.1427
   16CHTO    N9 6636   7.389   2.594   2.032 -0.3174  0.0700 -0.3973
   16CHTO   H77 6637   7.416   2.489   2.034  1.8582  0.5707 -1.6329
   16CHTO   H78 6638   7.341   2.613   1.937 -0.0145  0.0679 -0.5526
   16CHTO   C51 6639   7.163   2.541   2.150 -0.4962  0.3628 -0.1229
   16CHTO   H93 6640   7.096   2.572   2.070  1.1022  2.4262 -0.6888
   16CHTO   O30 6641   7.102   2.550   2.281 -0.5410  0.4088  0.0623
   16CHTO   C46 6642   7.059   2.693   2.309 -0.1316  0.0300  0.4183
   16CHTO   H88 6643   6.990   2.724   2.231  1.4876  0.7708 -0.7500
   16CHTO   C53 6644   6.988   2.694   2.445 -0.1283  0.0223  0.5867
   16CHTO   O72 6645   7.087   2.672   2.544  0.7068  0.2104 -0.3974
   16CHTO  H199 6646   7.161   2.730   2.546  1.0729 -0.2222 -1.1232
   16CHTO   O22 6647   7.178   2.402   2.129 -0.1343 -0.3030 -0.1753
   16CHTO   C31 6648   7.074   2.301   2.162  0.6540 -0.3610 -0.3282
   16CHTO   H59 6649   7.022   2.339   2.252  1.4158 -0.9173  0.3500
   16CHTO   C29 6650   6.966   2.284   2.051 -0.1601  0.2276  0.0970
   16CHTO   H57 6651   7.017   2.264   1.956 -1.2681  0.6550 -0.5878
   16CHTO   O21 6652   6.899   2.407   2.033  0.1401  0.6563  0.0935
   16CHTO   H37 6653   6.921   2.448   1.952  0.8510 -2.1797 -1.2152
   16CHTO   C27 6654   6.864   2.166   2.082  0.6080  0.3851  0.4562
   16CHTO   H55 6655   6.803   2.204   2.166  2.5069 -0.8252  2.4563
   16CHTO    N5 6656   6.777   2.135   1.962 -0.1367  0.1564  0.0166
   16CHTO   H43 6657   6.679   2.107   1.997  0.8776 -2.8085  0.5685
   16CHTO   H44 6658   6.822   2.054   1.906  0.4925 -1.5417  2.8846
   16CHTO   C25 6659   6.926   2.039   2.147  0.3444 -0.5198 -0.2589
   16CHTO   H53 6660   6.992   1.994   2.072  0.9588  0.0598 -0.0746
   16CHTO   O17 6661   7.022   2.085   2.257 -0.0454  0.0704  0.1123
   16CHTO   C32 6662   7.134   2.161   2.205  0.1148 -0.3286 -0.1920
   16CHTO   H60 6663   7.176   2.114   2.116 -0.9213 -0.7298 -0.4819
   16CHTO   C36 6664   7.247   2.164   2.306  0.6804 -0.2091  0.6593
   16CHTO   O25 6665   7.361   2.212   2.231 -0.4322  0.1338 -0.3543
   16CHTO   H40 6666   7.441   2.184   2.271  0.2833  1.5271 -0.7863
   16CHTO   O15 6667   6.835   1.967   2.211 -0.2635  0.3564 -0.6304
   16CHTO   C19 6668   6.723   1.937   2.289  0.3908  0.3017 -0.2755
   16CHTO   H47 6669   6.720   1.833   2.325 -0.4266  0.6183  0.5727
   16CHTO   C20 6670   6.721   2.021   2.419  0.1710  0.1178  0.4707
   16CHTO   H48 6671   6.719   2.129   2.396  3.7833  0.4198  1.2254
   16CHTO   O19 6672   6.838   1.984   2.494  0.2472  0.7775 -0.0859
   16CHTO   H35 6673   6.911   2.033   2.464 -0.0045  1.8334  0.9730
   16CHTO   C21 6674   6.600   1.977   2.507  0.8041 -0.2815 -0.5493
   16CHTO   H49 6675   6.606   1.871   2.532 -1.1707 -0.2674  0.1272
   16CHTO    N4 6676   6.594   2.045   2.638 -0.0292 -0.0608  0.2263
   16CHTO   H41 6677   6.510   2.022   2.702  0.7679  3.2426  2.5911
   16CHTO   H42 6678   6.684   2.021   2.694  0.7048  0.4969 -0.7091
   16CHTO   C22 6679   6.470   2.001   2.421  0.7907 -0.5769  0.1696
   16CHTO   H50 6680   6.460   2.107   2.402 -1.8177 -0.9435 -0.6671
   16CHTO   O14 6681   6.472   1.941   2.294 -0.6561 -0.2867 -0.0064
   16CHTO   C23 6682   6.587   1.952   2.204  0.2488  0.7996  1.0564
   16CHTO   H51 6683   6.577   2.045   2.148 -2.5808 -0.8487 -1.3407
   16CHTO   C34 6684   6.578   1.838   2.097  0.5807 -0.4761 -0.3080
   16CHTO   O23 6685   6.446   1.822   2.035 -0.3117 -0.0506 -0.8319
   16CHTO   H38 6686   6.417   1.907   2.009  0.3711  0.6877  0.7926
   16CHTO   O16 6687   6.350   1.947   2.479  0.1899 -0.6247  0.1886
   16CHTO   C24 6688   6.205   2.017   2.430  0.0368 -0.4042  0.1588
   16CHTO   H52 6689   6.216   2.054   2.328  0.4563 -1.7169 -0.2827
   16CHTO   C26 6690   6.159   2.121   2.532  0.4220  0.4810  0.5288
   16CHTO   H54 6691   6.177   2.082   2.635  3.1024  3.6627  1.3601
   16CHTO   O20 6692   6.260   2.230   2.535 -0.0369  0.6059  0.0432
   16CHTO   H36 6693   6.272   2.259   2.447 -2.2199 -0.2484 -0.5740
   16CHTO   C30 6694   6.014   2.171   2.503 -0.4183 -0.3666  0.0369
   16CHTO   H58 6695   6.025   2.228   2.409 -0.0762  0.8033  0.7702
   16CHTO    N6 6696   5.972   2.274   2.611  0.6062  0.5686  0.8186
   16CHTO   H45 6697   5.916   2.220   2.686 -1.7980 -0.5933 -1.7105
   16CHTO   H46 6698   5.901   2.342   2.566 -0.5093 -1.3690 -0.4453
   16CHTO   C33 6699   5.924   2.050   2.479  0.3391  0.4072  0.1999
   16CHTO   H61 6700   5.902   2.001   2.574  0.0611  1.2822  0.5952
   16CHTO   O18 6701   5.975   1.954   2.379 -0.0948  0.0123  0.4544
   16CHTO   C28 6702   6.099   1.899   2.425  0.7947  0.1765 -0.3115
   16CHTO   H56 6703   6.074   1.861   2.524 -1.6411  4.4745  0.8200
   16CHTO   C35 6704   6.155   1.798   2.328  0.1295  0.2865 -0.2764
   16CHTO   O24 6705   6.059   1.710   2.273  0.4329  0.4659 -0.3157
   16CHTO   H39 6706   6.066   1.630   2.322  2.7580 -1.7554 -4.0585
   16CHTO    O9 6707   5.797   2.101   2.439 -0.3917  0.1439  0.0291
   16CHTO   C13 6708   5.681   2.080   2.537  0.3431 -0.4888 -0.4428
   16CHTO   H26 6709   5.710   2.123   2.635  1.0702 -0.7248 -0.5489
   16CHTO   C11 6710   5.648   1.925   2.550 -0.5420  0.7568  0.6785
   16CHTO   H24 6711   5.729   1.881   2.611 -1.0679 -1.0644  0.0774
   16CHTO    O8 6712   5.636   1.858   2.422  0.1092 -0.3721 -0.4084
   16CHTO    H3 6713   5.713   1.870   2.369 -0.9929  0.8550 -1.7696
   16CHTO    C9 6714   5.517   1.905   2.631 -0.1463  1.0150 -0.3193
   16CHTO   H22 6715   5.537   1.958   2.725 -2.3352  0.8956  0.2442
   16CHTO    N2 6716   5.509   1.767   2.681 -0.3596 -0.5576 -0.3379
   16CHTO   H10 6717   5.563   1.760   2.774 -0.1378  1.9115 -0.2306
   16CHTO   H11 6718   5.406   1.742   2.699 -0.1937  0.3961  2.1119
   16CHTO    C7 6719   5.395   1.973   2.551  0.5861  0.0491 -0.4228
   16CHTO   H20 6720   5.334   2.027   2.626  1.8774  0.4457  0.3414
   16CHTO    O4 6721   5.436   2.076   2.460 -0.4357  0.0194 -0.1408
   16CHTO   C14 6722   5.546   2.160   2.502  0.4067  0.0528  0.2482
   16CHTO   H27 6723   5.504   2.217   2.587 -1.4616 -2.9086  1.3494
   16CHTO   C18 6724   5.569   2.260   2.380  1.2485  0.6353 -0.1430
   16CHTO   O13 6725   5.625   2.386   2.428  0.4414  0.2316  0.5875
   16CHTO    H7 6726   5.573   2.421   2.498 -0.4444 -0.7346  0.4261
   16CHTO    O2 6727   5.306   1.867   2.473 -0.5406  0.5270  0.1395
   16CHTO    C1 6728   5.187   1.898   2.404 -0.3711  0.3584  0.0516
   16CHTO   H14 6729   5.118   1.811   2.408 -0.0791 -0.0288 -2.2205
   16CHTO    C2 6730   5.217   1.938   2.249  0.8171 -0.4137  0.0890
   16CHTO   H15 6731   5.299   2.011   2.253  1.7561 -1.4876  1.2748
   16CHTO    O6 6732   5.271   1.820   2.192  0.1309  0.1570  0.3960
   16CHTO    H1 6733   5.360   1.813   2.222  0.3393  0.5142 -0.1319
   16CHTO    C3 6734   5.089   1.985   2.172 -0.0946 -0.8668 -0.3341
   16CHTO   H16 6735   5.021   1.899   2.170 -2.0609  0.6404 -3.3290
   16CHTO    N1 6736   5.129   2.033   2.035 -0.3165  0.6686 -0.2453
   16CHTO    H8 6737   5.233   2.042   2.007  0.6051 -4.1225  1.2396
   16CHTO    H9 6738   5.066   2.114   2.001 -0.7077  0.4361 -0.0791
   16CHTO    C4 6739   5.011   2.093   2.262  0.0874  0.1497  0.3328
   16CHTO   H17 6740   5.070   2.183   2.273 -2.0435  1.4874  1.1208
   16CHTO    O1 6741   4.986   2.045   2.395 -0.3654 -0.5914  0.0876
   16CHTO    C5 6742   5.104   2.015   2.469 -0.4622 -0.8102  0.4382
   16CHTO   H18 6743   5.180   2.092   2.477  1.0733 -2.2009 -0.5170
   16CHTO   C16 6744   5.067   1.977   2.614 -0.4959 -0.0969 -0.4568
   16CHTO   O11 6745   5.057   2.080   2.708 -0.4028 -0.2705  0.2140
   16CHTO    H5 6746   5.142   2.107   2.737 -0.8000 -0.5052  1.6500
   16CHTO    O3 6747   4.876   2.119   2.206 -0.3750 -0.0809 -0.0824
   16CHTO    C6 6748   4.818   2.253   2.236 -0.1977  0.0962  0.0904
   16CHTO   H19 6749   4.884   2.303   2.307  1.4045  1.1453 -2.0548
   16CHTO    C8 6750   4.808   2.351   2.119  0.5610  0.0710 -0.5928
   16CHTO   H21 6751   4.738   2.312   2.046 -1.4033  0.1420  1.2069
   16CHTO    O7 6752   4.946   2.367   2.073  0.1407  0.5250 -0.3076
   16CHTO    H2 6753   4.993   2.298   2.032  0.4936 -0.4248  1.6370
   16CHTO   C12 6754   4.748   2.493   2.164  0.0101 -0.7281  0.0868
   16CHTO   H25 6755   4.815   2.530   2.245  0.6998  0.2663 -0.9157
   16CHTO    N3 6756   4.764   2.603   2.060  0.3091 -0.2730  0.9473
   16CHTO   H12 6757   4.863   2.613   2.016  0.2725 -1.3342  0.5953
   16CHTO   H13 6758   4.712   2.690   2.098  1.1436  0.7393 -0.1715
   16CHTO   C15 6759   4.610   2.463   2.217 -0.1514 -0.6950  0.5902
   16CHTO   H28 6760   4.540   2.419   2.146  0.0019  0.6704 -0.4432
   16CHTO   O10 6761   4.554   2.564   2.276  0.3687  0.2352  0.2573
   16CHTO    H4 6762   4.492   2.604   2.218  0.4272  0.0822  0.0877
   16CHTO    O5 6763   4.619   2.377   2.326 -0.5925 -0.2169  0.1116
   16CHTO   C10 6764   4.678   2.244   2.308  0.0256 -0.6918  0.4798
   16CHTO   H23 6765   4.607   2.187   2.248  1.9116 -0.8179 -1.6889
   16CHTO   C17 6766   4.694   2.177   2.441 -0.1371  0.1812 -0.5012
   16CHTO   O12 6767   4.573   2.163   2.527 -0.1047  0.5602 -0.1085
   16CHTO    H6 6768   4.604   2.142   2.613  1.2231  1.5201 -0.3378
   17CHTO  H203 6769   4.840   4.505   1.300  0.3837  1.0825 -2.8444
   17CHTO   O82 6770   4.863   4.593   1.325  0.0670  0.3758  0.1778
   17CHTO  C123 6771   4.744   4.668   1.322  0.2897 -0.6489  0.4090
   17CHTO  H227 6772   4.668   4.606   1.371 -0.6914  0.1183 -0.1181
   17CHTO   O77 6773   4.773   4.781   1.401  0.2169  0.2736  0.2905
   17CHTO  C118 6774   4.677   4.883   1.415 -0.1219 -0.4017 -0.3799
   17CHTO  H222 6775   4.598   4.833   1.472  0.5965 -1.2637 -0.1159
   17CHTO  C125 6776   4.736   5.005   1.506  0.2986 -0.1498  1.0506
   17CHTO   O84 6777   4.734   4.964   1.641 -0.1087  0.3717  0.3236
   17CHTO  H205 6778   4.669   4.898   1.658  0.7532 -0.3008  1.0354
   17CHTO  C114 6779   4.641   4.930   1.274 -0.4119 -0.4055  0.4973
   17CHTO  H218 6780   4.735   4.965   1.231  0.3946 -1.2080  1.5770
   17CHTO  C116 6781   4.587   4.805   1.187  0.2335  0.1202  0.7174
   17CHTO  H220 6782   4.491   4.760   1.218 -0.8572  1.9359  0.0603
   17CHTO   O79 6783   4.560   4.863   1.058 -0.3300 -0.1085 -0.2349
   17CHTO  H201 6784   4.531   4.793   1.004  2.7385 -0.1841 -1.8676
   17CHTO  C120 6785   4.702   4.700   1.176  0.6584  0.1363 -0.6130
   17CHTO  H224 6786   4.781   4.752   1.118  1.0129 -0.1655 -0.4038
   17CHTO   N21 6787   4.673   4.582   1.090 -0.1942 -0.4928 -0.0477
   17CHTO  H211 6788   4.571   4.548   1.077  0.1386 -1.0986 -1.2201
   17CHTO  H212 6789   4.741   4.506   1.126  1.0244 -0.9690 -3.1576
   17CHTO   O75 6790   4.540   5.033   1.298 -0.4060 -0.7318  0.1152
   17CHTO  C112 6791   4.549   5.167   1.191  0.4692 -0.2776  0.8884
   17CHTO  H216 6792   4.466   5.172   1.119 -0.7934  0.4649  2.3885
   17CHTO   O73 6793   4.681   5.164   1.125 -0.9771 -0.1890 -1.0771
   17CHTO  C113 6794   4.705   5.271   1.034 -0.5261  0.1855  0.0767
   17CHTO  H217 6795   4.631   5.275   0.951  0.4234 -2.0428 -0.9198
   17CHTO  C124 6796   4.838   5.240   0.976  0.0096  0.4115 -1.1502
   17CHTO   O83 6797   4.942   5.222   1.078  0.7380 -0.0904 -0.1340
   17CHTO  H204 6798   4.990   5.303   1.083 -1.3437  1.2460 -0.6912
   17CHTO  C109 6799   4.702   5.401   1.119 -0.1067  0.4903  0.1256
   17CHTO  H213 6800   4.787   5.397   1.189  0.8101 -1.1921 -1.0640
   17CHTO  C110 6801   4.569   5.424   1.194 -0.2961 -0.1979 -0.2021
   17CHTO  H214 6802   4.495   5.436   1.115  0.0703 -0.6943 -0.6243
   17CHTO   O78 6803   4.586   5.540   1.282 -0.0644  0.2272 -0.8868
   17CHTO  H200 6804   4.524   5.541   1.352 -0.5215 -0.7769 -1.2698
   17CHTO  C111 6805   4.531   5.296   1.278  0.3299  0.0606 -0.4149
   17CHTO  H215 6806   4.604   5.283   1.359  0.6634 -0.8972 -0.8676
   17CHTO   N19 6807   4.396   5.297   1.336  0.2781 -0.0402 -0.6036
   17CHTO  H207 6808   4.364   5.203   1.377  1.5537 -0.4014 -0.4370
   17CHTO  H208 6809   4.323   5.332   1.264 -2.2318 -0.5413  1.6344
   17CHTO   O74 6810   4.722   5.509   1.028 -0.2408 -0.0551 -0.0374
   17CHTO  C115 6811   4.842   5.608   1.088  0.4233  0.0591 -0.4258
   17CHTO  H219 6812   4.809   5.658   1.180  0.0069  0.6605 -0.8995
   17CHTO   O76 6813   4.984   5.520   1.129 -0.8332  0.1733 -0.3883
   17CHTO  C122 6814   5.107   5.595   1.146 -0.6316 -0.2820 -0.3415
   17CHTO  H226 6815   5.187   5.526   1.123 -2.3628 -1.9839 -1.4063
   17CHTO  C126 6816   5.131   5.627   1.300 -0.0986 -0.2206  0.9143
   17CHTO   O85 6817   5.046   5.725   1.346 -0.0050 -0.3418  0.1713
   17CHTO  H206 6818   5.092   5.799   1.380 -1.6323 -0.7255  3.3896
   17CHTO  C121 6819   5.124   5.726   1.053  0.2685 -0.1814  0.2372
   17CHTO  H225 6820   5.205   5.782   1.106 -1.5474  1.5273  1.2651
   17CHTO   O81 6821   5.190   5.699   0.931 -0.2241  0.0006 -0.2043
   17CHTO  H202 6822   5.160   5.625   0.883  3.4965 -0.7524 -1.5914
   17CHTO  C119 6823   4.993   5.812   1.037  0.3232  0.2607  0.2545
   17CHTO  H223 6824   4.973   5.854   1.136  0.5103  2.9781 -0.7909
   17CHTO  C117 6825   4.874   5.721   0.987 -0.5565  0.8012 -0.4291
   17CHTO  H221 6826   4.902   5.672   0.894  0.9359  0.0810  0.3865
   17CHTO   N20 6827   4.750   5.797   0.957  0.1327  0.3684  0.3442
   17CHTO  H209 6828   4.701   5.737   0.882 -1.3561  0.0714  1.5366
   17CHTO  H210 6829   4.763   5.890   0.903  0.9515 -0.0093 -0.1130
   17CHTO   O80 6830   5.036   5.940   0.959 -0.5373 -0.0345  0.6340
   17CHTO  C103 6831   5.050   6.087   1.035  0.2328 -0.3654  0.0165
   17CHTO  H190 6832   4.975   6.094   1.115  0.5386 -1.6909  0.4395
   17CHTO  C101 6833   5.190   6.119   1.095  0.2236 -0.1199  0.6554
   17CHTO  H188 6834   5.270   6.090   1.027  2.0582 -0.5576  2.9195
   17CHTO   O68 6835   5.208   6.046   1.225  0.2548 -0.2179  0.3208
   17CHTO  H168 6836   5.182   5.957   1.215  1.7409 -0.6899  0.4872
   17CHTO   C99 6837   5.208   6.277   1.124  0.2837 -0.3349 -0.4967
   17CHTO  H186 6838   5.134   6.319   1.195  0.4225  1.2668 -1.2930
   17CHTO   N17 6839   5.344   6.325   1.179 -0.0465 -0.2994  0.1746
   17CHTO  H174 6840   5.343   6.430   1.202 -0.5078 -0.7653  2.3585
   17CHTO  H175 6841   5.411   6.300   1.098  1.8253  1.9192  0.9676
   17CHTO   C97 6842   5.183   6.352   0.996  0.7156  0.0650 -0.1525
   17CHTO  H184 6843   5.255   6.325   0.919  2.3369  1.0225  0.9933
   17CHTO   O64 6844   5.048   6.326   0.958  0.2869  0.3672  0.5854
   17CHTO  C104 6845   5.012   6.190   0.925 -0.0651  0.1181  0.1720
   17CHTO  H191 6846   5.058   6.165   0.830 -0.9576 -0.6438 -0.0630
   17CHTO  C108 6847   4.863   6.177   0.904 -0.6415  0.2778 -0.4118
   17CHTO   O71 6848   4.811   6.271   0.816 -0.4438 -0.4364  0.8657
   17CHTO  H171 6849   4.812   6.221   0.736 -1.2507  1.0521 -0.1112
   17CHTO   O62 6850   5.180   6.499   1.008 -0.5314 -0.4218  0.1905
   17CHTO   C91 6851   5.191   6.577   0.885 -0.2184  0.1395  0.2429
   17CHTO  H178 6852   5.169   6.518   0.796  0.4470 -1.0718  0.8583
   17CHTO   C92 6853   5.337   6.626   0.861 -0.3970  0.0225  0.0113
   17CHTO  H179 6854   5.409   6.543   0.867  0.7034  1.0415  1.1197
   17CHTO   O66 6855   5.342   6.668   0.726  0.4994 -0.7048 -0.3771
   17CHTO  H166 6856   5.271   6.726   0.705  1.6784  0.3564 -1.4194
   17CHTO   C93 6857   5.379   6.756   0.952  0.0880  0.4888 -0.3267
   17CHTO  H180 6858   5.467   6.804   0.906 -0.9837  0.0414 -2.9695
   17CHTO   N16 6859   5.417   6.708   1.084  0.2737  0.3157 -1.1069
   17CHTO  H172 6860   5.437   6.793   1.149  2.4015  0.5744 -2.0845
   17CHTO  H173 6861   5.341   6.642   1.123  0.5626  0.6941  0.1121
   17CHTO   C94 6862   5.263   6.862   0.951 -0.3509  0.5976 -0.9095
   17CHTO  H181 6863   5.207   6.868   1.045  2.1317  2.5912  0.4993
   17CHTO   O61 6864   5.165   6.820   0.854  0.3530 -0.1394 -0.1134
   17CHTO   C95 6865   5.087   6.707   0.902  0.4304 -0.5447 -0.0558
   17CHTO  H182 6866   5.057   6.721   1.006  0.4591 -3.4399  0.4095
   17CHTO  C106 6867   4.955   6.701   0.819 -0.3832  0.3755 -0.0041
   17CHTO   O69 6868   4.875   6.584   0.851  0.6141 -0.4065  0.4692
   17CHTO  H169 6869   4.882   6.530   0.774  2.4120 -1.5503  1.3900
   17CHTO   O63 6870   5.316   7.006   0.910 -0.9320  0.3950  0.4822
   17CHTO   C96 6871   5.261   7.110   1.028 -0.1464 -0.1903  0.8706
   17CHTO  H183 6872   5.260   7.042   1.114 -2.8002 -1.3743 -0.0202
   17CHTO   C98 6873   5.119   7.177   0.997  0.0390 -0.8365 -0.7427
   17CHTO  H185 6874   5.108   7.213   0.893 -0.7026 -0.8345 -0.6628
   17CHTO   O67 6875   5.022   7.075   1.007  0.1018  0.1201 -0.0992
   17CHTO  H167 6876   5.019   7.026   0.927  1.4089 -0.4641  0.1888
   17CHTO  C102 6877   5.086   7.284   1.103 -0.2115  0.0402  0.6713
   17CHTO  H189 6878   5.074   7.231   1.198  1.0117  3.0003  2.5732
   17CHTO   N18 6879   4.966   7.364   1.084 -0.2672  0.2336 -0.1142
   17CHTO  H176 6880   4.970   7.402   0.983 -0.6368 -1.6865 -0.8622
   17CHTO  H177 6881   4.877   7.304   1.083 -0.7433  0.9347 -0.2588
   17CHTO  C105 6882   5.217   7.369   1.143 -0.1072  0.0375 -0.4550
   17CHTO  H192 6883   5.238   7.444   1.066 -0.2683  2.1156  1.4834
   17CHTO   O65 6884   5.335   7.294   1.165  0.4913 -0.1475 -0.2193
   17CHTO  C100 6885   5.371   7.211   1.055 -0.3572  0.0325  1.0195
   17CHTO  H187 6886   5.382   7.272   0.964 -1.1278  0.0241  0.9192
   17CHTO  C107 6887   5.508   7.136   1.100 -0.7157 -0.0657  0.6741
   17CHTO   O70 6888   5.619   7.219   1.129 -0.4458 -0.0123 -0.0339
   17CHTO  H170 6889   5.664   7.241   1.049 -1.0671  2.5058  0.2759
   17CHTO   O57 6890   5.187   7.454   1.264  0.4034 -0.0126 -0.5564
   17CHTO   C85 6891   5.261   7.575   1.295  1.1280  0.4734 -0.0989
   17CHTO  H157 6892   5.277   7.607   1.190 -1.3931  0.4427 -0.5111
   17CHTO   C83 6893   5.394   7.539   1.354 -0.3044 -0.7002  0.9423
   17CHTO  H155 6894   5.441   7.483   1.273 -0.9098  1.0466 -0.6359
   17CHTO   O56 6895   5.383   7.451   1.469  0.3727 -0.0396 -0.0402
   17CHTO  H135 6896   5.333   7.377   1.439  1.0263 -0.0870 -1.0555
   17CHTO   C81 6897   5.476   7.672   1.369 -0.7354  0.3039  0.1368
   17CHTO  H153 6898   5.494   7.714   1.270 -2.2648  0.6878  0.0126
   17CHTO   N14 6899   5.611   7.638   1.422  0.0210  0.0543 -0.6235
   17CHTO  H141 6900   5.682   7.662   1.346  1.8325  1.7563  1.5658
   17CHTO  H142 6901   5.635   7.702   1.503  0.5204  0.4149 -1.0513
   17CHTO   C79 6902   5.399   7.775   1.454  0.4176 -0.3334 -0.2301
   17CHTO  H151 6903   5.451   7.870   1.441 -0.6705  0.2341 -0.5408
   17CHTO   O52 6904   5.274   7.803   1.389 -0.2426 -0.4440 -0.0516
   17CHTO   C86 6905   5.194   7.685   1.373  0.0484 -0.7890 -0.0149
   17CHTO  H158 6906   5.166   7.653   1.475  0.6469  0.6671  0.6117
   17CHTO   C90 6907   5.061   7.725   1.303 -0.4310  0.2230 -0.3670
   17CHTO   O60 6908   4.980   7.825   1.353  0.0503  0.1879  0.0016
   17CHTO  H138 6909   5.030   7.884   1.407 -0.0759  1.1692 -0.9450
   17CHTO   O50 6910   5.375   7.731   1.593  0.4053 -0.1055 -0.3831
   17CHTO   C73 6911   5.357   7.761   1.734 -0.0534 -0.5445  0.1114
   17CHTO  H145 6912   5.357   7.870   1.748  1.7435 -0.5589  0.4416
   17CHTO   C74 6913   5.474   7.698   1.818  0.2084 -0.3525 -0.4883
   17CHTO  H146 6914   5.569   7.745   1.790 -0.0605 -0.3098 -1.3580
   17CHTO   O54 6915   5.451   7.744   1.950  0.2131  0.1197  0.0067
   17CHTO  H133 6916   5.484   7.830   1.968 -0.8183 -0.1893  3.6539
   17CHTO   C75 6917   5.474   7.548   1.797 -0.6984  0.1710  0.6599
   17CHTO  H147 6918   5.485   7.527   1.690  0.2525  0.1853  0.7448
   17CHTO   N13 6919   5.593   7.476   1.856  0.0718 -0.5608 -0.5647
   17CHTO  H139 6920   5.636   7.404   1.787 -0.4082 -2.8634  1.4551
   17CHTO  H140 6921   5.568   7.410   1.938 -0.3559  0.7807  0.3875
   17CHTO   C76 6922   5.325   7.488   1.844 -0.0017 -0.3246 -0.0162
   17CHTO  H148 6923   5.319   7.487   1.953  0.6989  1.2015  0.0510
   17CHTO   O49 6924   5.216   7.558   1.780 -0.2179 -0.3511  0.2577
   17CHTO   C77 6925   5.226   7.705   1.788  0.5074  0.2224  0.4299
   17CHTO  H149 6926   5.217   7.737   1.892 -0.0795 -0.4625  0.5984
   17CHTO   C88 6927   5.119   7.784   1.716 -0.0643  0.7279  0.0671
   17CHTO   O58 6928   5.012   7.752   1.759  0.4615 -0.1035 -0.0080
   17CHTO  H136 6929   4.942   7.755   1.696  0.2054 -0.2687  0.2710
   17CHTO   O51 6930   5.320   7.350   1.797 -0.1329 -0.0081 -0.4497
   17CHTO   C78 6931   5.189   7.245   1.826  0.1695  0.5839  0.1604
   17CHTO  H150 6932   5.106   7.306   1.867  1.1526  1.9598  0.1254
   17CHTO   C80 6933   5.218   7.130   1.927  0.1901 -0.4173  0.4071
   17CHTO  H152 6934   5.317   7.088   1.900  1.0313  2.4047 -1.0876
   17CHTO   O55 6935   5.224   7.193   2.052  0.1672  0.1432  0.1696
   17CHTO  H134 6936   5.151   7.179   2.109  0.7547 -1.3789  0.5696
   17CHTO   C84 6937   5.115   7.010   1.924  0.1593  0.3941 -0.3751
   17CHTO  H156 6938   5.018   7.042   1.963  0.3998  0.2322  0.3722
   17CHTO   N15 6939   5.159   6.888   2.007 -0.2707  0.1159 -0.2468
   17CHTO  H143 6940   5.114   6.902   2.103 -1.6499 -1.6022 -0.6043
   17CHTO  H144 6941   5.265   6.889   2.018 -0.1046 -0.5196 -1.6656
   17CHTO   C87 6942   5.087   6.979   1.775 -0.1688  0.5954 -0.0023
   17CHTO  H159 6943   5.184   6.960   1.728  0.1858 -1.7126  1.5498
   17CHTO   O53 6944   5.031   7.098   1.712  0.7543 -0.5205  0.1282
   17CHTO   C82 6945   5.133   7.195   1.692 -0.4082 -0.6173  0.0926
   17CHTO  H154 6946   5.219   7.158   1.636 -0.8282  0.1985 -1.1068
   17CHTO   C89 6947   5.078   7.315   1.608 -0.4758 -0.5990  0.1023
   17CHTO   O59 6948   5.043   7.263   1.480 -0.2682  0.0635  0.4387
   17CHTO  H137 6949   5.094   7.298   1.409 -0.2557 -2.3916 -0.8203
   17CHTO   O45 6950   4.993   6.833   1.739  0.2949 -0.5453 -0.5389
   17CHTO   C67 6951   4.856   6.819   1.781 -0.2491  0.1907 -0.3555
   17CHTO  H124 6952   4.828   6.867   1.874 -0.8888  0.4275 -0.6685
   17CHTO   C65 6953   4.754   6.880   1.670 -0.7976 -0.5263 -0.3650
   17CHTO  H122 6954   4.819   6.911   1.588 -0.4237 -0.2495  0.0310
   17CHTO   O44 6955   4.698   7.000   1.729  0.0807  0.2206 -0.2452
   17CHTO  H102 6956   4.610   6.991   1.760  0.8577  0.6224  2.1446
   17CHTO   C63 6957   4.655   6.781   1.602  0.4800 -0.1230  0.7511
   17CHTO  H120 6958   4.720   6.722   1.538  2.0679  0.7432  1.5397
   17CHTO   N11 6959   4.549   6.830   1.505 -0.0121 -0.2228 -0.3560
   17CHTO  H108 6960   4.563   6.921   1.451 -3.9999  1.1711  0.7792
   17CHTO  H109 6961   4.459   6.836   1.562  0.3972  1.1828  0.1563
   17CHTO   C61 6962   4.594   6.685   1.716 -0.2245  1.0451  0.2333
   17CHTO  H118 6963   4.548   6.597   1.668  0.0909 -1.6379  4.5589
   17CHTO   O40 6964   4.688   6.625   1.811 -0.2877 -0.4253  0.0430
   17CHTO   C68 6965   4.832   6.665   1.801  0.3779 -0.4803 -0.5124
   17CHTO  H125 6966   4.865   6.627   1.702 -2.4624 -1.8275 -0.9936
   17CHTO   C72 6967   4.928   6.608   1.914 -0.5411 -0.3559  0.0955
   17CHTO   O48 6968   4.924   6.463   1.909  0.3017  0.2576  0.1508
   17CHTO  H105 6969   4.960   6.427   1.830 -0.9734 -1.9902  0.5495
   17CHTO   O38 6970   4.510   6.772   1.786  0.0701  0.0698  0.0866
   17CHTO   C55 6971   4.416   6.716   1.878 -0.5093  0.2518 -0.7619
   17CHTO  H112 6972   4.468   6.644   1.943 -1.1105 -2.7418 -3.4543
   17CHTO   C56 6973   4.290   6.645   1.802 -0.4148 -0.2086 -0.0761
   17CHTO  H113 6974   4.263   6.717   1.724  0.5362  0.6352  0.3633
   17CHTO   O42 6975   4.331   6.528   1.739 -0.1612 -0.4141 -0.9369
   17CHTO  H100 6976   4.263   6.464   1.728 -2.0785  1.6800 -1.6122
   17CHTO   C57 6977   4.167   6.616   1.891 -0.1382 -0.6912  0.3568
   17CHTO  H114 6978   4.190   6.531   1.955  0.5537 -0.0345  0.9879
   17CHTO   N10 6979   4.045   6.579   1.805 -0.0335  0.4862  0.5535
   17CHTO  H106 6980   4.075   6.496   1.742 -1.9753  0.0218  0.1996
   17CHTO  H107 6981   4.027   6.665   1.743 -0.5649  0.5108  0.7325
   17CHTO   C58 6982   4.139   6.737   1.980  0.5578  0.1971  0.1263
   17CHTO  H115 6983   4.103   6.819   1.914 -0.1022 -0.1217  0.0883
   17CHTO   O37 6984   4.250   6.777   2.054  0.4741 -0.0347 -0.0214
   17CHTO   C59 6985   4.352   6.829   1.972  0.3503 -0.0266  0.6912
   17CHTO  H116 6986   4.308   6.904   1.906  0.2070 -0.1227  0.6785
   17CHTO   C70 6987   4.454   6.898   2.061  0.1290  0.1016  0.4633
   17CHTO   O46 6988   4.549   6.986   1.996  0.1043 -0.0277 -0.3625
   17CHTO  H103 6989   4.618   6.943   1.949 -1.1554 -2.3303 -0.2048
   17CHTO   O39 6990   4.030   6.700   2.109 -0.1264  0.0170 -0.0812
   17CHTO   C60 6991   3.947   6.815   2.139  0.1508 -0.1177  0.2162
   17CHTO  H117 6992   4.002   6.909   2.141 -0.0510  0.0827 -2.1480
   17CHTO   C62 6993   3.825   6.827   2.046 -0.0308 -0.4419  0.0130
   17CHTO  H119 6994   3.874   6.835   1.947  0.3634 -0.8403  0.1733
   17CHTO   O43 6995   3.753   6.702   2.061 -0.6428 -0.2648 -0.5567
   17CHTO  H101 6996   3.794   6.629   2.019  1.4083  0.9889 -0.8156
   17CHTO   C66 6997   3.724   6.952   2.078 -0.1006  0.0172 -0.0947
   17CHTO  H123 6998   3.779   7.046   2.078  1.5769 -0.9455  0.4381
   17CHTO   N12 6999   3.617   6.967   1.978  0.3254  0.1207  0.0457
   17CHTO  H110 7000   3.621   6.889   1.904  0.9130 -1.6050  1.8556
   17CHTO  H111 7001   3.618   7.063   1.930  1.8515 -1.8008 -3.9460
   17CHTO   C69 7002   3.669   6.930   2.223  0.3884 -0.4396 -0.1724
   17CHTO  H126 7003   3.589   6.854   2.234  0.7239 -0.5899  1.3745
   17CHTO   O41 7004   3.787   6.909   2.326 -0.6787 -0.5285  0.1253
   17CHTO   C64 7005   3.892   6.798   2.279 -0.3615  0.0129  0.6351
   17CHTO  H121 7006   3.841   6.700   2.272 -1.6472  0.6436  1.1217
   17CHTO   C71 7007   4.002   6.787   2.387  0.4358 -0.0562 -0.3414
   17CHTO   O47 7008   4.097   6.690   2.349  0.5157 -0.4016  0.3882
   17CHTO  H104 7009   4.057   6.606   2.356 -0.3580  0.0518  0.8913
   17CHTO   O34 7010   3.581   7.070   2.271 -0.3100  0.2714  0.0703
   17CHTO   C49 7011   3.457   7.151   2.331  0.9467  0.5040  0.5019
   17CHTO   H91 7012   3.490   7.251   2.360 -0.3846  1.4878 -1.2707
   17CHTO   C47 7013   3.396   7.080   2.450  1.0321  0.2654  0.0768
   17CHTO   H89 7014   3.316   7.143   2.495  0.4553 -1.6132  1.7718
   17CHTO   O33 7015   3.488   7.071   2.549  0.6252 -0.1810  0.4718
   17CHTO   H70 7016   3.508   7.154   2.587 -0.6335 -0.2135  1.2116
   17CHTO   C45 7017   3.332   6.940   2.405 -0.1344  0.9046  0.8937
   17CHTO   H87 7018   3.405   6.858   2.404 -0.5829  0.4992 -1.4446
   17CHTO    N8 7019   3.223   6.906   2.504  0.1628 -1.0070  0.4827
   17CHTO   H75 7020   3.165   6.993   2.531  2.2643  1.0570 -1.4905
   17CHTO   H76 7021   3.159   6.830   2.461 -0.4367 -1.1195  1.5584
   17CHTO   C43 7022   3.291   6.943   2.244  0.1780 -0.1183 -0.2849
   17CHTO   H85 7023   3.378   6.910   2.188 -2.2547 -3.6860 -2.1647
   17CHTO   O29 7024   3.244   7.069   2.201 -0.0652  0.3981  0.2331
   17CHTO   C50 7025   3.355   7.158   2.217  0.5515  0.0447 -0.1865
   17CHTO   H92 7026   3.414   7.160   2.124  0.3756  0.6102 -0.2901
   17CHTO   C54 7027   3.278   7.292   2.212  0.0944 -0.3991  0.6841
   17CHTO   O36 7028   3.217   7.322   2.336 -0.8948  0.3365  0.6422
   17CHTO   H72 7029   3.139   7.372   2.319 -0.2179  0.4824 -2.2494
   17CHTO   O27 7030   3.209   6.834   2.194  0.3932 -0.5027 -0.1267
   17CHTO   C37 7031   3.153   6.785   2.068 -0.6101  0.9471 -0.0422
   17CHTO   H79 7032   3.043   6.793   2.070 -0.7991 -0.2586 -2.8338
   17CHTO   C38 7033   3.200   6.865   1.937 -0.0094 -0.1739  0.0767
   17CHTO   H80 7034   3.310   6.867   1.937 -0.0078 -0.3248  0.4835
   17CHTO   O31 7035   3.150   6.998   1.964  0.0079  0.4477 -0.0313
   17CHTO   H68 7036   3.072   7.006   1.912  1.7335 -1.1403 -2.9912
   17CHTO   C39 7037   3.141   6.794   1.802  0.4798 -0.1313 -0.4149
   17CHTO   H81 7038   3.033   6.803   1.806  0.4409 -0.8055  0.2238
   17CHTO    N7 7039   3.183   6.868   1.682 -0.3965  0.1749 -0.4499
   17CHTO   H73 7040   3.285   6.902   1.689 -0.5779  0.4212  1.1183
   17CHTO   H74 7041   3.145   6.829   1.589 -1.1437 -0.7525  0.2339
   17CHTO   C40 7042   3.169   6.644   1.797 -1.0579 -1.5472 -0.5847
   17CHTO   H82 7043   3.275   6.624   1.787 -0.7774 -2.0337  2.5584
   17CHTO   O26 7044   3.116   6.587   1.921 -0.2241 -0.3336 -0.0683
   17CHTO   C41 7045   3.183   6.629   2.041 -0.9405 -0.1531  0.3094
   17CHTO   H83 7046   3.292   6.609   2.039 -0.8256  0.4366  0.7212
   17CHTO   C52 7047   3.145   6.540   2.161 -0.5485  0.0710  0.0838
   17CHTO   O35 7048   2.990   6.526   2.180  0.1562 -0.1899 -0.4070
   17CHTO   H71 7049   2.982   6.477   2.260 -2.6464  0.7470 -0.0605
   17CHTO   O28 7050   3.097   6.575   1.696 -0.3714  0.2598  0.0792
   17CHTO   C42 7051   3.159   6.450   1.648 -0.0122 -0.1726 -0.0931
   17CHTO   H84 7052   3.085   6.405   1.582 -0.5396  2.0548 -1.0796
   17CHTO   C44 7053   3.206   6.342   1.752  0.6934 -0.7684  0.1165
   17CHTO   H86 7054   3.283   6.384   1.817  0.6358 -1.2948  0.5197
   17CHTO   O32 7055   3.089   6.316   1.832  0.1546 -0.3898 -0.5411
   17CHTO   H69 7056   3.108   6.245   1.891 -0.9540  0.8443  1.3625
   17CHTO   C48 7057   3.259   6.220   1.686 -0.4050  0.2762 -0.3584
   17CHTO   H90 7058   3.163   6.182   1.651 -0.1452  0.3260 -1.1336
   17CHTO    N9 7059   3.307   6.113   1.780  0.6493  0.3512  0.2426
   17CHTO   H77 7060   3.223   6.080   1.839 -0.5149 -2.1858 -2.7386
   17CHTO   H78 7061   3.327   6.035   1.709  2.0541  1.1581 -0.2645
   17CHTO   C51 7062   3.376   6.255   1.592 -0.2315 -0.2172 -0.1943
   17CHTO   H93 7063   3.455   6.297   1.654  0.1367 -1.5378  0.2656
   17CHTO   O30 7064   3.328   6.343   1.490 -0.4270  0.2193  0.0578
   17CHTO   C46 7065   3.284   6.470   1.555 -0.4616 -0.7412 -0.3173
   17CHTO   H88 7066   3.367   6.515   1.611 -1.4869  0.4709  0.2491
   17CHTO   C53 7067   3.244   6.569   1.443  0.2141 -0.1600 -0.2971
   17CHTO   O72 7068   3.338   6.579   1.333  0.1719 -0.2527  0.2003
   17CHTO  H199 7069   3.416   6.529   1.349  0.0490 -1.0740 -1.6897
   17CHTO   O22 7070   3.431   6.144   1.515 -0.1649 -0.5778 -0.6435
   17CHTO   C31 7071   3.570   6.150   1.480  1.8756 -0.1428  0.0251
   17CHTO   H59 7072   3.596   6.257   1.466 -0.6278  0.3810 -0.8619
   17CHTO   C29 7073   3.660   6.091   1.587  0.9934  0.1944 -0.7981
   17CHTO   H57 7074   3.646   5.984   1.569  0.2817  0.3626 -1.2713
   17CHTO   O21 7075   3.621   6.118   1.730  0.1906  0.2232  0.2948
   17CHTO   H37 7076   3.576   6.042   1.761 -1.4157  1.9014  2.1665
   17CHTO   C27 7077   3.807   6.137   1.555 -0.1509  0.3108  0.2212
   17CHTO   H55 7078   3.808   6.247   1.563 -0.4417  0.2241  1.6619
   17CHTO    N5 7079   3.907   6.083   1.647  0.5065 -0.0430  0.3177
   17CHTO   H43 7080   3.881   6.121   1.745  0.8543  0.0680  0.3665
   17CHTO   H44 7081   4.007   6.107   1.614  0.0736  0.8702 -0.3854
   17CHTO   C25 7082   3.847   6.114   1.400  0.5138  0.9733 -0.1600
   17CHTO   H53 7083   3.901   6.019   1.397  0.8591  0.9046  4.2914
   17CHTO   O17 7084   3.738   6.099   1.308 -0.1915  0.2741  0.1761
   17CHTO   C32 7085   3.603   6.084   1.341 -0.8179  0.0512 -0.4120
   17CHTO   H60 7086   3.566   5.981   1.337  0.7778 -0.4888 -1.7605
   17CHTO   C36 7087   3.538   6.154   1.224  0.1258  0.2776  0.0940
   17CHTO   O25 7088   3.407   6.106   1.206  0.0863 -0.6579  0.0996
   17CHTO   H40 7089   3.411   6.054   1.129 -1.4477 -2.7701  1.3923
   17CHTO   O15 7090   3.936   6.214   1.343 -0.3099  0.0779  0.3167
   17CHTO   C19 7091   3.940   6.352   1.312 -0.5220 -0.3064 -0.1103
   17CHTO   H47 7092   4.008   6.362   1.225 -0.0043 -1.7714  0.1178
   17CHTO   C20 7093   3.803   6.422   1.278 -0.1660 -0.3549  0.1129
   17CHTO   H48 7094   3.733   6.392   1.358 -0.1395 -1.8975 -0.4132
   17CHTO   O19 7095   3.759   6.358   1.153 -0.0078  0.5450 -0.2402
   17CHTO   H35 7096   3.671   6.388   1.141  0.9194  2.8467 -1.7489
   17CHTO   C21 7097   3.805   6.579   1.260  0.2743  0.7916 -0.2112
   17CHTO   H49 7098   3.853   6.608   1.167 -0.1830  1.1975 -0.3298
   17CHTO    N4 7099   3.670   6.639   1.247 -0.1027 -0.0982 -0.0830
   17CHTO   H41 7100   3.615   6.636   1.340 -0.0428 -0.0402 -0.0452
   17CHTO   H42 7101   3.673   6.744   1.219  1.9109 -0.3900 -1.0925
   17CHTO   C22 7102   3.883   6.643   1.379 -1.0181  0.1577 -0.5439
   17CHTO   H50 7103   3.829   6.635   1.473  0.2075  0.6451  0.2153
   17CHTO   O14 7104   4.010   6.579   1.395 -0.1317  0.3910  0.0102
   17CHTO   C23 7105   4.002   6.439   1.422  0.1773 -0.2598 -0.4105
   17CHTO   H51 7106   3.948   6.426   1.517  1.4091 -1.4836  0.1475
   17CHTO   C34 7107   4.145   6.389   1.451  0.8179 -0.2184  0.4021
   17CHTO   O23 7108   4.253   6.437   1.369  0.1557  0.0981  0.7630
   17CHTO   H38 7109   4.243   6.410   1.280  0.7571  0.8831  0.4505
   17CHTO   O16 7110   3.898   6.784   1.362 -0.2158  0.1201 -0.5783
   17CHTO   C24 7111   4.012   6.854   1.481  0.7274  0.4362 -0.7743
   17CHTO   H52 7112   4.084   6.782   1.520  1.7262  1.0407 -1.4782
   17CHTO   C26 7113   3.945   6.917   1.602 -0.1789 -0.6507  0.5642
   17CHTO   H54 7114   3.868   6.986   1.562  0.8299  0.9656  1.3479
   17CHTO   O20 7115   3.882   6.810   1.672  0.0309  0.1702 -0.6858
   17CHTO   H36 7116   3.796   6.787   1.642 -0.9209 -1.3171  2.9070
   17CHTO   C30 7117   4.043   7.008   1.690  0.0621  0.1748  0.2859
   17CHTO   H58 7118   4.108   6.944   1.752 -0.1095  2.0088  2.4209
   17CHTO    N6 7119   3.963   7.087   1.789  0.2430 -0.0102  0.5052
   17CHTO   H45 7120   3.862   7.051   1.776 -0.2337  1.5697 -0.3454
   17CHTO   H46 7121   4.007   7.054   1.882 -1.8957  1.9723  2.2797
   17CHTO   C33 7122   4.126   7.099   1.596 -0.7195 -0.1595 -0.3948
   17CHTO   H61 7123   4.053   7.163   1.544 -2.4211 -2.3337 -0.7658
   17CHTO   O18 7124   4.189   7.013   1.500 -0.1310 -0.7294 -0.2607
   17CHTO   C28 7125   4.101   6.956   1.398  0.0416  0.0191  0.3510
   17CHTO   H56 7126   4.036   7.037   1.363 -1.0077 -0.2636  1.6212
   17CHTO   C35 7127   4.187   6.891   1.285  0.8116  0.2128  0.4654
   17CHTO   O24 7128   4.240   7.002   1.205  0.2706 -0.8506 -0.6118
   17CHTO   H39 7129   4.168   7.063   1.207  0.4741 -0.6021 -0.7297
   17CHTO    O9 7130   4.220   7.182   1.665 -0.1053 -0.6083 -0.5349
   17CHTO   C13 7131   4.320   7.276   1.557  0.0617  0.1157  0.0139
   17CHTO   H26 7132   4.326   7.220   1.461  0.9802  2.4823 -1.3450
   17CHTO   C11 7133   4.464   7.290   1.623  0.1976 -0.1021 -0.7912
   17CHTO   H24 7134   4.501   7.186   1.617  1.0762  0.1871 -0.5254
   17CHTO    O8 7135   4.454   7.335   1.760 -0.2545 -0.2179 -0.5784
   17CHTO    H3 7136   4.368   7.328   1.797 -0.4590 -0.6086 -1.1187
   17CHTO    C9 7137   4.535   7.391   1.536 -0.3868 -0.0570  0.6164
   17CHTO   H22 7138   4.530   7.351   1.434  1.1944 -1.3291  1.0183
   17CHTO    N2 7139   4.683   7.378   1.556  0.2241  0.5030 -0.1580
   17CHTO   H10 7140   4.723   7.438   1.636  0.9646 -1.0401  0.6557
   17CHTO   H11 7141   4.732   7.415   1.468  0.4552  0.2035 -0.1566
   17CHTO    C7 7142   4.467   7.537   1.543  0.5443  0.7337  0.3102
   17CHTO   H20 7143   4.475   7.575   1.439 -0.8195 -0.7108 -0.3584
   17CHTO    O4 7144   4.329   7.532   1.574 -0.7398  0.9354 -0.3983
   17CHTO   C14 7145   4.252   7.415   1.536  0.4107  0.2774 -0.7531
   17CHTO   H27 7146   4.234   7.418   1.426  1.5436 -0.9458 -0.9852
   17CHTO   C18 7147   4.114   7.423   1.608  0.0007 -0.4147  0.3121
   17CHTO   O13 7148   4.014   7.497   1.536 -0.5670  0.4536 -0.2236
   17CHTO    H7 7149   3.935   7.504   1.586  0.0675  0.0679  0.8568
   17CHTO    O2 7150   4.529   7.642   1.655  0.1270 -0.1216  0.0961
   17CHTO    C1 7151   4.506   7.781   1.611 -0.0011  0.5884 -0.5267
   17CHTO   H14 7152   4.424   7.771   1.537  0.2102  0.7683 -0.7863
   17CHTO    C2 7153   4.630   7.843   1.535  0.3437 -0.4628 -0.1987
   17CHTO   H15 7154   4.711   7.841   1.609  1.8628  0.4395 -1.8017
   17CHTO    O6 7155   4.669   7.772   1.420  0.1553 -0.3543  0.3457
   17CHTO    H1 7156   4.701   7.687   1.440 -1.2586 -1.7511 -2.9561
   17CHTO    C3 7157   4.603   7.999   1.500 -0.2596 -0.5978 -0.1595
   17CHTO   H16 7158   4.531   8.003   1.416  0.4812  0.4506 -0.7580
   17CHTO    N1 7159   4.732   8.069   1.452  0.1888 -0.3111 -0.8041
   17CHTO    H8 7160   4.722   8.176   1.436  0.8118 -0.4662 -2.2172
   17CHTO    H9 7161   4.810   8.054   1.526 -0.6577 -2.4558 -0.3113
   17CHTO    C4 7162   4.529   8.072   1.623  0.3924  0.7316 -0.1868
   17CHTO   H17 7163   4.600   8.084   1.704  1.8583 -2.9114 -0.8183
   17CHTO    O1 7164   4.419   7.985   1.663  0.8550 -0.2061  0.2164
   17CHTO    C5 7165   4.456   7.868   1.727 -0.0358  0.0653 -0.1241
   17CHTO   H18 7166   4.530   7.895   1.803  0.3094  1.1776 -0.8498
   17CHTO   C16 7167   4.336   7.800   1.800  0.5195  0.3717  0.5060
   17CHTO   O11 7168   4.300   7.882   1.913  0.2840  0.3766  0.3582
   17CHTO    H5 7169   4.256   7.852   1.990 -0.1113 -0.7633 -0.3085
   17CHTO    O3 7170   4.475   8.205   1.598 -0.4180  0.1932 -0.3284
   17CHTO    C6 7171   4.449   8.300   1.714 -0.6057 -0.5477  0.3368
   17CHTO   H19 7172   4.378   8.380   1.692  1.1490  0.3837 -2.2096
   17CHTO    C8 7173   4.398   8.222   1.842 -0.4537 -0.4590  0.0538
   17CHTO   H21 7174   4.445   8.124   1.847 -1.0901 -0.8311 -0.9702
   17CHTO    O7 7175   4.257   8.207   1.825  0.6895 -0.2020  0.6805
   17CHTO    H2 7176   4.218   8.139   1.876  0.6993  0.1487  1.1600
   17CHTO   C12 7177   4.435   8.293   1.983  0.1948 -0.4449 -0.2977
   17CHTO   H25 7178   4.360   8.376   1.985 -0.2448 -0.7102 -3.2478
   17CHTO    N3 7179   4.414   8.191   2.090  0.6994  0.1928  0.1833
   17CHTO   H12 7180   4.324   8.207   2.148 -0.3109 -0.3716 -1.2110
   17CHTO   H13 7181   4.411   8.095   2.042 -2.1072 -0.9685  2.5401
   17CHTO   C15 7182   4.576   8.351   1.987  0.2223 -1.0530 -0.5947
   17CHTO   H28 7183   4.653   8.278   2.009  1.1561  0.3841  1.0150
   17CHTO   O10 7184   4.579   8.452   2.110  0.3526  0.3901 -0.2731
   17CHTO    H4 7185   4.670   8.472   2.125  0.7743 -1.6157  0.0160
   17CHTO    O5 7186   4.602   8.430   1.873  0.3455  0.1000  0.6575
   17CHTO   C10 7187   4.593   8.368   1.740 -0.0081  0.2891  0.2239
   17CHTO   H23 7188   4.674   8.294   1.736 -1.4193 -1.2427 -0.9611
   17CHTO   C17 7189   4.630   8.477   1.638  0.0266 -0.2693 -0.6381
   17CHTO   O12 7190   4.516   8.557   1.592 -0.4637  0.2755  0.0863
   17CHTO    H6 7191   4.491   8.631   1.645 -0.2643 -0.1351  0.7588
   18CHTO  H203 7192   5.658   7.858   2.448  0.6698 -0.1493  1.0357
   18CHTO   O82 7193   5.732   7.901   2.410  0.0459  0.0987  0.0945
   18CHTO  C123 7194   5.712   7.903   2.266 -0.2804  0.3868 -0.3695
   18CHTO  H227 7195   5.606   7.917   2.245 -0.2467 -0.3070 -1.0417
   18CHTO   O77 7196   5.779   8.023   2.228  0.3835  0.4074  0.2736
   18CHTO  C118 7197   5.773   8.046   2.087 -0.3645 -0.8640  0.2799
   18CHTO  H222 7198   5.666   8.054   2.065 -0.5812 -0.3256  1.4933
   18CHTO  C125 7199   5.835   8.184   2.059  0.4748 -0.4940 -0.4598
   18CHTO   O84 7200   5.972   8.207   2.098  0.0885 -0.8046 -0.4244
   18CHTO  H205 7201   5.970   8.279   2.157 -0.8183 -0.5928 -0.6949
   18CHTO  C114 7202   5.843   7.933   2.008  0.0423  0.2396  0.4304
   18CHTO  H218 7203   5.944   7.920   2.046  0.2598  0.5840 -0.0249
   18CHTO  C116 7204   5.780   7.790   2.043 -0.5516 -0.2776 -0.2602
   18CHTO  H220 7205   5.684   7.782   1.989  0.4146  0.7292 -2.1986
   18CHTO   O79 7206   5.853   7.690   1.972  0.1636 -0.1304  0.2795
   18CHTO  H201 7207   5.833   7.706   1.881 -0.5655 -2.0813  0.0665
   18CHTO  C120 7208   5.776   7.774   2.198  0.1492 -0.2307 -0.2330
   18CHTO  H224 7209   5.875   7.760   2.245 -0.4204  2.9195  2.0390
   18CHTO   N21 7210   5.701   7.648   2.234 -0.4306 -0.8740  0.3774
   18CHTO  H211 7211   5.637   7.667   2.319 -0.9823  1.0192 -0.4250
   18CHTO  H212 7212   5.632   7.630   2.154 -0.4453 -1.1708  0.4571
   18CHTO   O75 7213   5.835   7.972   1.864  0.2015 -0.5555 -0.1236
   18CHTO  C112 7214   5.988   7.979   1.802  0.3405 -0.7670  0.0327
   18CHTO  H216 7215   6.054   7.919   1.866  1.0966  1.3991  1.3120
   18CHTO   O73 7216   6.031   8.116   1.788  0.4157 -0.0640 -0.5621
   18CHTO  C113 7217   6.161   8.133   1.733 -0.0523  0.5482  0.0061
   18CHTO  H217 7218   6.236   8.059   1.771  1.1093  2.2587  1.1059
   18CHTO  C124 7219   6.198   8.281   1.760 -0.1372 -0.0008 -0.1578
   18CHTO   O83 7220   6.228   8.315   1.890 -0.1761  0.0929 -0.5955
   18CHTO  H204 7221   6.208   8.250   1.955 -1.2002  1.9444  1.0030
   18CHTO  C109 7222   6.144   8.106   1.580 -0.0165 -0.1562  0.1299
   18CHTO  H213 7223   6.065   8.177   1.552 -0.2695 -1.8322 -3.6258
   18CHTO  C110 7224   6.099   7.966   1.565  0.0792  0.4193 -0.1458
   18CHTO  H214 7225   6.175   7.893   1.592  0.7433  0.5138 -1.7248
   18CHTO   O78 7226   6.071   7.938   1.426 -0.6558 -0.0071  0.5215
   18CHTO  H200 7227   6.153   7.933   1.380 -0.2632 -0.0603  1.2188
   18CHTO  C111 7228   5.977   7.924   1.655 -0.3347 -0.5699  0.2933
   18CHTO  H215 7229   5.886   7.969   1.613  0.4668  0.5090 -0.3194
   18CHTO   N19 7230   5.950   7.776   1.655 -0.9543  0.0806  0.0703
   18CHTO  H207 7231   5.890   7.737   1.736 -0.9258 -2.0800 -0.9214
   18CHTO  H208 7232   5.889   7.755   1.569 -1.8477  2.8329 -0.0069
   18CHTO   O74 7233   6.265   8.153   1.515  0.7626  0.4118 -0.3310
   18CHTO  C115 7234   6.248   8.203   1.348 -0.2162  0.0501 -0.0194
   18CHTO  H219 7235   6.175   8.144   1.292 -1.0154  1.3868 -0.4125
   18CHTO   O76 7236   6.199   8.362   1.341  0.0275 -0.7121  0.4378
   18CHTO  C122 7237   6.220   8.432   1.218  0.2907  0.4448  0.3541
   18CHTO  H226 7238   6.214   8.540   1.232  1.3908  0.4797  0.6124
   18CHTO  C126 7239   6.108   8.399   1.098 -0.1796 -0.0329  0.6676
   18CHTO   O85 7240   6.081   8.259   1.098 -0.1435 -0.0573  0.0219
   18CHTO  H206 7241   6.157   8.219   1.060 -0.0177 -0.0301  0.2436
   18CHTO  C121 7242   6.363   8.399   1.144 -0.0515 -0.3117  1.0120
   18CHTO  H225 7243   6.355   8.431   1.038  2.2413 -0.2238  0.8445
   18CHTO   O81 7244   6.462   8.474   1.217 -0.4755 -0.3139 -0.3806
   18CHTO  H202 7245   6.547   8.439   1.202 -0.3355  0.3623 -1.1903
   18CHTO  C119 7246   6.404   8.251   1.138 -0.2914 -0.1275  0.3032
   18CHTO  H223 7247   6.323   8.200   1.086 -0.3364  0.8320 -0.5615
   18CHTO  C117 7248   6.392   8.185   1.282  0.4136  0.2489 -0.0650
   18CHTO  H221 7249   6.460   8.234   1.352  4.5108 -3.9887 -0.8003
   18CHTO   N20 7250   6.434   8.047   1.285 -0.4348 -0.3960 -0.2206
   18CHTO  H209 7251   6.538   8.035   1.310  0.1844  2.6732 -1.0513
   18CHTO  H210 7252   6.409   7.991   1.196  0.0066 -1.9569  0.6297
   18CHTO   O80 7253   6.529   8.218   1.050  0.4363  0.1782 -0.0421
   18CHTO  C103 7254   6.500   8.153   0.902 -0.0602 -0.4079 -0.1441
   18CHTO  H190 7255   6.593   8.156   0.845 -0.6119  2.2300 -0.9455
   18CHTO  C101 7256   6.447   7.998   0.915 -0.0266 -0.3996  0.2223
   18CHTO  H188 7257   6.363   7.995   0.986 -0.6466  1.0760 -0.4306
   18CHTO   O68 7258   6.543   7.901   1.004  0.1891 -0.3510 -0.3696
   18CHTO  H168 7259   6.522   7.811   0.988  5.1795 -1.3190 -2.3222
   18CHTO   C99 7260   6.379   7.940   0.779 -0.7712  0.4983  0.3634
   18CHTO  H186 7261   6.448   7.939   0.692  0.1835  0.7727  1.1180
   18CHTO   N17 7262   6.324   7.800   0.788  0.3934 -0.0712  0.0037
   18CHTO  H174 7263   6.315   7.770   0.892 -2.8390  0.1640 -0.1501
   18CHTO  H175 7264   6.385   7.726   0.739  0.9980 -0.2514  1.0192
   18CHTO   C97 7265   6.271   8.046   0.739 -0.1207 -0.0470  0.2921
   18CHTO  H184 7266   6.205   8.050   0.826  0.1515 -0.8015  0.5353
   18CHTO   O64 7267   6.334   8.171   0.709  0.5166 -0.4380  0.1398
   18CHTO  C104 7268   6.393   8.238   0.816  0.9445  0.6851  0.0342
   18CHTO  H191 7269   6.307   8.269   0.875  0.3131 -2.3388  0.7876
   18CHTO  C108 7270   6.467   8.358   0.765 -0.5281  0.3202 -0.7254
   18CHTO   O71 7271   6.411   8.433   0.663 -0.1474  0.2787  0.4452
   18CHTO  H171 7272   6.464   8.490   0.611 -0.1910  1.5025  1.7430
   18CHTO   O62 7273   6.196   8.011   0.618 -0.0222 -0.0919 -0.1402
   18CHTO   C91 7274   6.050   8.026   0.630  0.9544  0.0340 -0.0888
   18CHTO  H178 7275   6.014   8.039   0.733 -0.7216  0.3539 -0.6950
   18CHTO   C92 7276   5.972   7.907   0.569 -0.1559  0.4289  0.1540
   18CHTO  H179 7277   6.013   7.893   0.468  1.3764 -1.9446  1.0598
   18CHTO   O66 7278   6.006   7.779   0.633  0.7209  0.0097  0.0305
   18CHTO  H166 7279   6.009   7.779   0.726  1.9517 -1.0814  0.0039
   18CHTO   C93 7280   5.811   7.928   0.557  0.0193 -0.2285 -0.1812
   18CHTO  H180 7281   5.762   7.912   0.654 -0.0739 -1.4839 -0.4191
   18CHTO   N16 7282   5.738   7.824   0.479  0.2535 -0.3943 -0.4134
   18CHTO  H172 7283   5.745   7.736   0.540 -2.3466 -0.1332  0.3378
   18CHTO  H173 7284   5.632   7.847   0.471  0.8488  2.2994 -1.4413
   18CHTO   C94 7285   5.774   8.070   0.513  0.1279 -0.8433  0.0776
   18CHTO  H181 7286   5.781   8.088   0.406 -1.4795  0.3969  0.1665
   18CHTO   O61 7287   5.855   8.173   0.580 -0.0435 -0.1794 -0.1321
   18CHTO   C95 7288   5.994   8.156   0.561  1.4401 -0.2744 -0.0963
   18CHTO  H182 7289   6.017   8.158   0.454 -1.2303 -1.8627 -0.7425
   18CHTO  C106 7290   6.068   8.292   0.607 -0.2897  0.4273 -0.7663
   18CHTO   O69 7291   6.036   8.403   0.527  0.3732 -0.1553 -0.7563
   18CHTO  H169 7292   6.115   8.421   0.479  0.0035  1.1733 -0.8703
   18CHTO   O63 7293   5.622   8.108   0.571 -0.4670 -0.1858 -0.4734
   18CHTO   C96 7294   5.542   8.193   0.460  0.0309  0.4738 -0.5533
   18CHTO  H183 7295   5.528   8.118   0.381 -0.7152 -0.9065  0.8566
   18CHTO   C98 7296   5.602   8.330   0.411  0.4602  0.2640 -0.0148
   18CHTO  H185 7297   5.709   8.338   0.389 -0.1730 -1.9481 -4.2622
   18CHTO   O67 7298   5.537   8.361   0.284 -0.2565  0.5379 -0.5615
   18CHTO  H167 7299   5.562   8.448   0.258  0.1258  1.1806  1.8996
   18CHTO  C102 7300   5.551   8.439   0.514  0.0431  0.4918 -0.8432
   18CHTO  H189 7301   5.592   8.536   0.484 -0.5900  0.6427 -1.2097
   18CHTO   N18 7302   5.587   8.425   0.657 -0.3687 -0.5879  1.0240
   18CHTO  H176 7303   5.630   8.328   0.676 -0.2914 -0.7912 -0.1807
   18CHTO  H177 7304   5.511   8.469   0.720  1.7171  1.7812  1.9541
   18CHTO  C105 7305   5.393   8.451   0.501  0.1821 -0.1773 -0.4534
   18CHTO  H192 7306   5.348   8.475   0.597  0.0353 -3.8613  0.4758
   18CHTO   O65 7307   5.333   8.327   0.471  0.6660  0.1136  0.3123
   18CHTO  C100 7308   5.394   8.202   0.511 -0.6813  0.2754  0.4607
   18CHTO  H187 7309   5.389   8.200   0.621  3.9494 -0.2871  0.7729
   18CHTO  C107 7310   5.307   8.083   0.467  0.5522 -0.1180  0.5829
   18CHTO   O70 7311   5.167   8.105   0.508  0.1408  0.2000  0.5073
   18CHTO  H170 7312   5.126   8.021   0.512  0.1068  0.1855 -0.1249
   18CHTO   O57 7313   5.375   8.584   0.383  0.0682 -0.2899 -0.7938
   18CHTO   C85 7314   5.260   8.623   0.309  0.3131  0.3092  0.3446
   18CHTO  H157 7315   5.292   8.692   0.228 -2.0288  0.5338 -0.4345
   18CHTO   C83 7316   5.179   8.711   0.405  0.1045 -0.3323 -0.0669
   18CHTO  H155 7317   5.242   8.798   0.424 -1.4257  0.4221  1.7892
   18CHTO   O56 7318   5.150   8.651   0.532  0.1132  0.1040 -0.2725
   18CHTO  H135 7319   5.149   8.717   0.599 -0.6180 -0.4277  0.2474
   18CHTO   C81 7320   5.054   8.756   0.324  0.5388  0.4500  0.9757
   18CHTO  H153 7321   5.087   8.804   0.232 -0.7940 -0.3923  0.0459
   18CHTO   N14 7322   4.978   8.862   0.396  0.1252 -0.3594 -0.1556
   18CHTO  H141 7323   4.884   8.885   0.350 -0.9040  0.9205  2.5061
   18CHTO  H142 7324   5.036   8.950   0.411 -0.1179 -0.0417 -1.0201
   18CHTO   C79 7325   4.962   8.635   0.292 -0.1624 -0.3429 -0.2507
   18CHTO  H151 7326   4.878   8.670   0.232 -0.6528  0.4042  0.8590
   18CHTO   O52 7327   5.035   8.556   0.202 -0.3150  0.0285  0.4222
   18CHTO   C86 7328   5.163   8.510   0.252 -0.1882  0.1057  0.1435
   18CHTO  H158 7329   5.137   8.430   0.325  0.0720 -0.8656 -0.8058
   18CHTO   C90 7330   5.242   8.436   0.141 -0.4080  0.4835 -0.7007
   18CHTO   O60 7331   5.170   8.321   0.098  0.2201 -0.5130  0.4210
   18CHTO  H138 7332   5.106   8.349   0.035  0.0137  2.8996  2.0615
   18CHTO   O50 7333   4.909   8.565   0.409  0.2923  0.5207  0.5722
   18CHTO   C73 7334   4.814   8.481   0.476 -0.0776 -0.1450 -0.8381
   18CHTO  H145 7335   4.805   8.385   0.423  2.1837 -0.7861 -0.0983
   18CHTO   C74 7336   4.673   8.551   0.483 -0.2185 -0.0271  1.5767
   18CHTO  H146 7337   4.652   8.575   0.378  2.6545 -1.8961  0.5005
   18CHTO   O54 7338   4.583   8.453   0.523 -0.2417 -0.1176  0.2490
   18CHTO  H133 7339   4.570   8.386   0.459  0.7057  2.2677 -2.5496
   18CHTO   C75 7340   4.674   8.684   0.576 -0.3190 -0.0050  0.6777
   18CHTO  H147 7341   4.749   8.751   0.531  1.2534 -0.1346  3.0050
   18CHTO   N13 7342   4.544   8.759   0.581 -0.2868 -0.3506 -0.2444
   18CHTO  H139 7343   4.465   8.700   0.537  0.5390 -1.6860  0.0142
   18CHTO  H140 7344   4.557   8.856   0.536  2.6052  0.1118  1.4618
   18CHTO   C76 7345   4.734   8.632   0.713 -0.1805  0.0663 -0.2033
   18CHTO  H148 7346   4.675   8.546   0.745 -0.3503  0.6045  0.9520
   18CHTO   O49 7347   4.872   8.591   0.693  0.3003 -0.4160 -0.3175
   18CHTO   C77 7348   4.867   8.463   0.621 -1.0177 -0.6205  0.1940
   18CHTO  H149 7349   4.799   8.396   0.674 -2.3978  0.9914  0.5132
   18CHTO   C88 7350   5.008   8.395   0.611  0.8324  0.6011  0.2719
   18CHTO   O58 7351   5.052   8.326   0.728  1.2050  0.3540 -0.2148
   18CHTO  H136 7352   5.011   8.242   0.732  2.2367 -0.1208  0.7768
   18CHTO   O51 7353   4.745   8.745   0.818  0.1180  0.4388 -0.1375
   18CHTO   C78 7354   4.773   8.697   0.949  0.2864  0.1885 -0.1573
   18CHTO  H150 7355   4.783   8.587   0.940  0.7853  0.2694 -0.5811
   18CHTO   C80 7356   4.656   8.724   1.043  0.6425  0.7644  0.9404
   18CHTO  H152 7357   4.619   8.826   1.020  0.0408  0.1410 -0.9203
   18CHTO   O55 7358   4.549   8.649   0.993  0.5146 -0.0742 -0.3187
   18CHTO  H134 7359   4.477   8.658   1.054  1.2542 -0.7432  0.6739
   18CHTO   C84 7360   4.694   8.680   1.190 -0.0747  0.2022 -0.2833
   18CHTO  H156 7361   4.724   8.577   1.175  3.1706  1.0591  0.0528
   18CHTO   N15 7362   4.580   8.682   1.286 -0.4116 -0.5490  0.3541
   18CHTO  H143 7363   4.513   8.610   1.245 -1.4597  0.9906 -0.7242
   18CHTO  H144 7364   4.627   8.647   1.376  2.0947  2.3707  0.2942
   18CHTO   C87 7365   4.798   8.793   1.223 -0.1487 -0.7994 -0.1228
   18CHTO  H159 7366   4.747   8.888   1.212  0.0283 -0.7269 -0.3276
   18CHTO   O53 7367   4.901   8.795   1.141  0.0726 -0.5178  0.1765
   18CHTO   C82 7368   4.892   8.782   0.996 -0.1553 -0.0798 -0.5155
   18CHTO  H154 7369   4.886   8.883   0.957 -1.0741  0.2434  0.4518
   18CHTO   C89 7370   5.023   8.720   0.949 -0.1627  0.7763 -0.2470
   18CHTO   O59 7371   5.037   8.578   0.981  0.6452 -0.0260  0.0742
   18CHTO  H137 7372   5.124   8.543   0.984  0.5901 -0.3281 -1.7100
   18CHTO   O45 7373   4.863   8.795   1.386  0.3843 -0.1776  0.1489
   18CHTO   C67 7374   5.005   8.783   1.401 -0.3633  0.7532 -0.4222
   18CHTO  H124 7375   5.059   8.786   1.306  1.6049 -1.3137  0.5711
   18CHTO   C65 7376   5.059   8.903   1.492 -0.0228  0.4048  0.1460
   18CHTO  H122 7377   4.978   8.933   1.558  2.7238  4.0444  2.0263
   18CHTO   O44 7378   5.079   9.015   1.407 -0.8651 -0.1574  0.2875
   18CHTO  H102 7379   5.114   9.087   1.455  3.8064 -1.3102 -1.1048
   18CHTO   C63 7380   5.170   8.865   1.600 -0.0564 -0.2601 -0.1720
   18CHTO  H120 7381   5.122   8.815   1.684 -0.9493  0.0393 -0.5037
   18CHTO   N11 7382   5.249   8.975   1.665 -0.6794 -0.3018 -0.0201
   18CHTO  H108 7383   5.355   8.960   1.657 -0.5443  0.3338  0.5449
   18CHTO  H109 7384   5.235   8.960   1.770 -4.0145  0.1803 -0.3484
   18CHTO   C61 7385   5.260   8.753   1.533 -0.4348  0.1489 -0.7019
   18CHTO  H118 7386   5.326   8.726   1.617 -1.4595 -1.2565 -0.3259
   18CHTO   O40 7387   5.188   8.636   1.494 -0.0885 -0.0980  0.4286
   18CHTO   C68 7388   5.041   8.640   1.474  0.5863  0.0288 -0.0755
   18CHTO  H125 7389   4.996   8.619   1.573  0.4876  0.4915 -0.0201
   18CHTO   C72 7390   5.016   8.513   1.384 -0.1343  1.0491  0.2276
   18CHTO   O48 7391   4.877   8.473   1.376 -0.5656  0.1564 -0.0864
   18CHTO  H105 7392   4.821   8.536   1.334  0.8698  2.5922  1.5264
   18CHTO   O38 7393   5.336   8.814   1.427  0.0101  0.2301  0.2345
   18CHTO   C55 7394   5.468   8.750   1.411  0.2305  0.0298  0.3941
   18CHTO  H112 7395   5.472   8.656   1.469  1.0017  0.8266  1.6611
   18CHTO   C56 7396   5.588   8.846   1.450  0.6978 -0.6405 -0.7919
   18CHTO  H113 7397   5.584   8.936   1.386  2.0530 -1.2075 -1.6909
   18CHTO   O42 7398   5.568   8.894   1.586 -0.1435  0.7260  0.0617
   18CHTO  H100 7399   5.482   8.924   1.606 -0.1002  1.6666 -1.1151
   18CHTO   C57 7400   5.724   8.777   1.430 -0.2514  1.1906  0.4954
   18CHTO  H114 7401   5.729   8.701   1.509  1.2541  0.1473 -0.5814
   18CHTO   N10 7402   5.846   8.865   1.443 -0.5656  0.0613 -0.2956
   18CHTO  H106 7403   5.876   8.860   1.547 -1.4928 -2.4732 -0.1200
   18CHTO  H107 7404   5.818   8.965   1.416 -0.1115  0.1533 -0.4286
   18CHTO   C58 7405   5.736   8.697   1.295 -0.3884  0.1023 -0.5981
   18CHTO  H115 7406   5.763   8.768   1.214 -0.8912  1.1100  0.1065
   18CHTO   O37 7407   5.617   8.628   1.257 -0.6998 -0.0466  0.1334
   18CHTO   C59 7408   5.496   8.710   1.257 -0.0258 -0.0207 -0.7423
   18CHTO  H116 7409   5.515   8.798   1.196  0.4361 -0.4041 -1.1590
   18CHTO   C70 7410   5.392   8.613   1.204  0.7966  0.4086  0.5081
   18CHTO   O46 7411   5.383   8.498   1.290  0.2670  0.8635  0.8896
   18CHTO  H103 7412   5.456   8.442   1.274 -1.2370 -0.4418 -1.6667
   18CHTO   O39 7413   5.849   8.569   1.318  0.2256 -0.2082 -0.0503
   18CHTO   C60 7414   5.791   8.451   1.381 -0.4640  0.2309  0.1899
   18CHTO  H117 7415   5.719   8.493   1.452 -1.2515  0.2596 -0.6249
   18CHTO   C62 7416   5.718   8.337   1.297 -0.3734 -0.0954  0.2624
   18CHTO  H119 7417   5.663   8.392   1.218 -1.5074  2.6143  2.8465
   18CHTO   O43 7418   5.806   8.251   1.214  0.2125 -0.1881  0.5431
   18CHTO  H101 7419   5.864   8.311   1.171  4.2185 -2.2087  2.8219
   18CHTO   C66 7420   5.614   8.264   1.396 -0.1391  0.2825  0.0413
   18CHTO  H123 7421   5.551   8.341   1.442  1.0899  2.0454 -1.1355
   18CHTO   N12 7422   5.512   8.188   1.314 -0.8395 -0.0577  0.1837
   18CHTO  H110 7423   5.559   8.126   1.239 -2.4826 -1.8606  0.5934
   18CHTO  H111 7424   5.453   8.122   1.376  0.6971 -0.5978  1.1219
   18CHTO   C69 7425   5.683   8.187   1.505 -0.5527  0.2308 -0.1449
   18CHTO  H126 7426   5.711   8.081   1.483  0.1923  0.3493  0.2204
   18CHTO   O41 7427   5.828   8.276   1.562 -0.4592  0.1398  0.0641
   18CHTO   C64 7428   5.898   8.384   1.463 -0.2069  0.0452 -0.6738
   18CHTO  H121 7429   5.962   8.325   1.394  0.2111 -1.9802  1.3982
   18CHTO   C71 7430   5.979   8.483   1.552 -0.8188 -0.1642 -0.4665
   18CHTO   O47 7431   5.895   8.565   1.629  1.0123  0.3194  0.2086
   18CHTO  H104 7432   5.830   8.521   1.679  2.8640 -1.4070  1.1406
   18CHTO   O34 7433   5.594   8.172   1.618 -0.3531 -0.1814  0.0712
   18CHTO   C49 7434   5.584   8.251   1.754  0.3093 -0.2951  0.4183
   18CHTO   H91 7435   5.683   8.243   1.799  0.1460  2.0058  1.2274
   18CHTO   C47 7436   5.469   8.193   1.841 -0.0489 -0.0550 -0.0939
   18CHTO   H89 7437   5.473   8.248   1.938  0.7242 -1.4443  0.6849
   18CHTO   O33 7438   5.487   8.054   1.864  0.0326 -0.0144 -0.1239
   18CHTO   H70 7439   5.574   8.041   1.897  0.7274  1.4020 -1.3134
   18CHTO   C45 7440   5.321   8.224   1.775  0.0785  0.0766 -0.3154
   18CHTO   H87 7441   5.327   8.182   1.673  1.0303 -0.9923  0.1638
   18CHTO    N8 7442   5.201   8.162   1.843 -0.0117 -0.2568 -0.1391
   18CHTO   H75 7443   5.198   8.198   1.945  3.0606  3.1836 -1.1339
   18CHTO   H76 7444   5.111   8.169   1.784  0.8771  1.6416 -1.3424
   18CHTO   C43 7445   5.303   8.385   1.747  0.7501 -0.3924  0.2018
   18CHTO   H85 7446   5.215   8.392   1.684 -0.0772 -0.4350  1.3472
   18CHTO   O29 7447   5.421   8.447   1.682  0.0771  0.1723 -0.4732
   18CHTO   C50 7448   5.551   8.405   1.729 -0.3643  0.4627 -0.0636
   18CHTO   H92 7449   5.620   8.442   1.651 -0.0632 -2.0712 -1.0359
   18CHTO   C54 7450   5.604   8.486   1.846 -0.5739  0.5518 -0.6298
   18CHTO   O36 7451   5.611   8.629   1.823  0.2596  0.0386  0.2491
   18CHTO   H72 7452   5.523   8.661   1.822  0.3947  0.4120  0.2572
   18CHTO   O27 7453   5.273   8.461   1.870  0.3657  0.3717 -0.2725
   18CHTO   C37 7454   5.196   8.537   1.960  0.1271  0.3973 -0.1701
   18CHTO   H79 7455   5.169   8.472   2.044 -1.5978  0.5721 -0.5535
   18CHTO   C38 7456   5.281   8.656   2.009 -0.8474  0.3113  0.6209
   18CHTO   H80 7457   5.321   8.705   1.919 -0.2933 -0.0479  0.6695
   18CHTO   O31 7458   5.385   8.595   2.086 -0.0196  0.1983 -0.3998
   18CHTO   H68 7459   5.464   8.644   2.097  1.0968 -1.7498  0.5325
   18CHTO   C39 7460   5.188   8.757   2.088 -0.3971 -0.9244 -0.3220
   18CHTO   H81 7461   5.154   8.694   2.171 -2.1493 -2.6271 -2.2813
   18CHTO    N7 7462   5.263   8.869   2.159 -0.2444  0.1055 -0.0514
   18CHTO   H73 7463   5.241   8.964   2.113 -0.4820  1.7423  3.3128
   18CHTO   H74 7464   5.370   8.851   2.161 -0.2158  0.3647  0.9796
   18CHTO   C40 7465   5.065   8.792   1.997 -0.5508 -0.0759  0.0069
   18CHTO   H82 7466   5.090   8.847   1.907 -0.5737 -0.8504 -0.4789
   18CHTO   O26 7467   4.990   8.671   1.972 -0.1205  0.8098  0.5240
   18CHTO   C41 7468   5.066   8.574   1.892  0.3153 -0.2009 -0.3391
   18CHTO   H83 7469   5.085   8.619   1.793  0.9633  1.8863  0.7042
   18CHTO   C52 7470   4.965   8.455   1.864 -0.3942  1.0284  0.0793
   18CHTO   O35 7471   4.912   8.412   1.985 -0.2996 -0.2940 -0.5959
   18CHTO   H71 7472   4.840   8.464   2.015 -0.0636 -0.1307 -0.3019
   18CHTO   O28 7473   4.987   8.896   2.057 -0.0844  0.2710  0.2944
   18CHTO   C42 7474   4.842   8.903   2.077  0.1350 -0.3128  0.3188
   18CHTO   H84 7475   4.826   9.000   2.124  2.9248  0.2305  0.2712
   18CHTO   C44 7476   4.780   8.796   2.174  1.0808 -0.2018 -0.5692
   18CHTO   H86 7477   4.792   8.696   2.130 -1.3130 -0.3674 -0.9121
   18CHTO   O32 7478   4.854   8.816   2.297  0.2091 -0.5683 -0.0619
   18CHTO   H69 7479   4.801   8.823   2.374 -0.3917 -1.2464 -0.4107
   18CHTO   C48 7480   4.625   8.822   2.201 -0.7135  0.6518 -0.1320
   18CHTO   H90 7481   4.611   8.921   2.244 -3.0529  0.8481 -1.2520
   18CHTO    N9 7482   4.566   8.724   2.298  0.0518 -0.1594 -0.0316
   18CHTO   H77 7483   4.632   8.639   2.302  0.4294  0.1385  0.0528
   18CHTO   H78 7484   4.464   8.700   2.271 -0.0642  2.2412 -1.8450
   18CHTO   C51 7485   4.555   8.833   2.065 -0.2830 -0.3645 -0.3536
   18CHTO   H93 7486   4.545   8.732   2.025 -0.3007 -0.3733 -0.3277
   18CHTO   O30 7487   4.625   8.922   1.972 -0.3954  0.3605  0.1534
   18CHTO   C46 7488   4.761   8.901   1.942 -0.4707  0.6391  0.3210
   18CHTO   H88 7489   4.772   8.802   1.899 -0.7627  1.0064 -0.6212
   18CHTO   C53 7490   4.823   9.010   1.855 -0.3782  0.4268 -0.0925
   18CHTO   O72 7491   4.741   9.026   1.737 -0.7521  0.3419 -0.0015
   18CHTO  H199 7492   4.695   9.108   1.738 -2.8294 -0.8120  0.5472
   18CHTO   O22 7493   4.427   8.895   2.078 -0.2803 -0.0668 -0.5547
   18CHTO   C31 7494   4.323   8.892   1.963  0.0440 -0.1258 -0.8699
   18CHTO   H59 7495   4.236   8.952   1.999 -0.4431 -0.5714 -1.2840
   18CHTO   C29 7496   4.370   8.955   1.825 -0.1571  0.6805 -0.5865
   18CHTO   H57 7497   4.466   8.913   1.795  0.5041  0.6992  1.3901
   18CHTO   O21 7498   4.410   9.087   1.852  0.0922 -0.6104 -0.4003
   18CHTO   H37 7499   4.411   9.142   1.777 -1.0779  4.2399  2.8741
   18CHTO   C27 7500   4.267   8.939   1.705 -0.4263 -0.5342  0.7106
   18CHTO   H55 7501   4.175   8.994   1.727  0.0061  0.0026  1.2091
   18CHTO    N5 7502   4.318   8.990   1.570  0.2551  0.4358 -0.5647
   18CHTO   H43 7503   4.420   9.023   1.560  0.0687  0.9106 -0.8886
   18CHTO   H44 7504   4.261   8.979   1.479 -0.6701  0.0854  0.0535
   18CHTO   C25 7505   4.223   8.789   1.702 -0.0558  0.2769  0.1334
   18CHTO   H53 7506   4.302   8.716   1.683 -0.1228  0.3929 -0.6100
   18CHTO   O17 7507   4.164   8.756   1.830  0.0322 -0.0723  0.2734
   18CHTO   C32 7508   4.263   8.751   1.934 -0.6281  0.3032 -0.0238
   18CHTO   H60 7509   4.342   8.681   1.908 -1.9905 -0.2478 -2.8857
   18CHTO   C36 7510   4.198   8.692   2.069 -0.1539  0.2182  0.2582
   18CHTO   O25 7511   4.150   8.560   2.036  0.2056 -0.1856  0.5634
   18CHTO   H40 7512   4.139   8.505   2.112 -0.1605 -1.2742 -0.2568
   18CHTO   O15 7513   4.099   8.776   1.583 -0.1278 -0.1353 -0.0564
   18CHTO   C19 7514   4.092   8.696   1.465  0.3571 -0.9971 -0.7008
   18CHTO   H47 7515   3.985   8.671   1.451 -0.0500 -0.3677  1.2026
   18CHTO   C20 7516   4.147   8.771   1.340  0.6352 -0.3602 -0.4452
   18CHTO   H48 7517   4.244   8.820   1.356  0.0623  0.2594  1.2488
   18CHTO   O19 7518   4.059   8.889   1.334  0.5478  0.3172 -0.1776
   18CHTO   H35 7519   3.987   8.892   1.394 -1.0915  0.5742 -2.0650
   18CHTO   C21 7520   4.139   8.675   1.213 -0.4446 -0.4365  0.8511
   18CHTO   H49 7521   4.034   8.660   1.185  0.1973 -2.3078 -0.7267
   18CHTO    N4 7522   4.198   8.741   1.095 -0.0989  0.4090  0.5802
   18CHTO   H41 7523   4.275   8.809   1.128  0.8245  1.0906 -2.8314
   18CHTO   H42 7524   4.119   8.792   1.040 -0.4802 -0.8284 -0.0362
   18CHTO   C22 7525   4.203   8.534   1.237 -0.5161  0.0405  0.8843
   18CHTO   H50 7526   4.310   8.548   1.252 -0.3290 -1.4114  0.9356
   18CHTO   O14 7527   4.137   8.484   1.351  0.8813 -0.1122  0.2246
   18CHTO   C23 7528   4.156   8.560   1.472 -1.1680  0.9293  0.4066
   18CHTO   H51 7529   4.266   8.569   1.479 -1.1532  0.4149  0.8572
   18CHTO   C34 7530   4.104   8.467   1.582  0.1527 -0.3200 -0.0435
   18CHTO   O23 7531   4.137   8.502   1.714  0.4405  0.2974 -0.0907
   18CHTO   H38 7532   4.224   8.474   1.736 -0.7170 -2.3571  1.3408
   18CHTO   O16 7533   4.184   8.432   1.131 -0.5752  0.6277  0.2290
   18CHTO   C24 7534   4.301   8.389   1.059 -0.0987 -0.3473  0.2500
   18CHTO   H52 7535   4.375   8.469   1.052  0.2739 -0.6027  1.2518
   18CHTO   C26 7536   4.251   8.363   0.916  0.3156 -0.8687 -0.7682
   18CHTO   H54 7537   4.170   8.288   0.921 -0.7587  0.3925  3.6074
   18CHTO   O20 7538   4.202   8.482   0.851  0.0739 -0.4042 -0.3793
   18CHTO   H36 7539   4.142   8.456   0.784 -1.6998 -0.2011  1.0614
   18CHTO   C30 7540   4.372   8.307   0.833  0.1445 -0.4595 -0.0206
   18CHTO   H58 7541   4.442   8.392   0.824 -2.3328  1.7291  0.9669
   18CHTO    N6 7542   4.324   8.262   0.701  0.3172 -0.6204 -0.2464
   18CHTO   H45 7543   4.414   8.263   0.642 -1.2688 -1.0833 -2.7705
   18CHTO   H46 7544   4.281   8.163   0.694 -1.2258  0.0471 -0.6276
   18CHTO   C33 7545   4.453   8.193   0.906  0.3686 -0.2596 -0.4631
   18CHTO   H61 7546   4.400   8.097   0.904  1.4338 -0.8747  0.4762
   18CHTO   O18 7547   4.481   8.227   1.038  0.1305  0.3740  0.0504
   18CHTO   C28 7548   4.370   8.260   1.117  0.8810 -0.0788 -0.2870
   18CHTO   H56 7549   4.300   8.176   1.113  2.0062 -0.9687 -1.6869
   18CHTO   C35 7550   4.412   8.261   1.266 -0.6423  0.6288  0.4259
   18CHTO   O24 7551   4.529   8.334   1.280 -0.0721  0.1069  0.4541
   18CHTO   H39 7552   4.557   8.328   1.369  1.1248 -0.4391  0.0617
   18CHTO    O9 7553   4.581   8.176   0.834 -0.2845 -0.5907  0.9141
   18CHTO   C13 7554   4.682   8.079   0.899  0.2823 -0.7794  0.4744
   18CHTO   H26 7555   4.617   8.007   0.953 -0.3501 -0.2057  0.4788
   18CHTO   C11 7556   4.776   8.155   1.002 -0.3657 -0.0372 -0.0291
   18CHTO   H24 7557   4.724   8.190   1.092  0.2179  0.7367  0.0107
   18CHTO    O8 7558   4.825   8.269   0.935  0.3309 -0.8739  0.2834
   18CHTO    H3 7559   4.913   8.251   0.907  0.7644 -0.5772  1.4634
   18CHTO    C9 7560   4.888   8.065   1.063 -0.4227 -0.9053  0.3392
   18CHTO   H22 7561   4.839   7.989   1.125  0.8653 -0.3332  2.0823
   18CHTO    N2 7562   4.984   8.124   1.152 -0.6163  0.4521 -0.1383
   18CHTO   H10 7563   5.065   8.058   1.179 -0.0716  0.8056 -0.8899
   18CHTO   H11 7564   5.007   8.221   1.112  0.7415  0.4524  0.6311
   18CHTO    C7 7565   4.958   7.987   0.947  0.5165 -0.4929  0.0164
   18CHTO   H20 7566   5.003   7.903   1.003  2.8119  0.2130 -0.6893
   18CHTO    O4 7567   4.865   7.924   0.855  0.3408  0.5336 -0.0861
   18CHTO   C14 7568   4.760   7.999   0.793  0.3555 -0.3531  0.1512
   18CHTO   H27 7569   4.691   7.921   0.754  0.7767 -1.2637  1.2176
   18CHTO   C18 7570   4.804   8.089   0.672 -0.2965  0.5167 -0.2103
   18CHTO   O13 7571   4.858   7.993   0.580 -0.1589  0.0726  0.3762
   18CHTO    H7 7572   4.804   7.929   0.537 -0.7566  0.6006  0.3316
   18CHTO    O2 7573   5.065   8.079   0.861 -0.2340 -0.2141 -0.7245
   18CHTO    C1 7574   5.189   8.018   0.828  0.4268  0.0637 -0.3606
   18CHTO   H14 7575   5.223   8.063   0.733 -1.5925  0.7936 -0.7419
   18CHTO    C2 7576   5.195   7.856   0.818 -0.3555 -0.2383 -0.3163
   18CHTO   H15 7577   5.168   7.825   0.920  0.0195  3.8033  1.1181
   18CHTO    O6 7578   5.107   7.807   0.719  0.0149 -0.0045  0.6758
   18CHTO    H1 7579   5.156   7.783   0.642 -1.7868  1.4828 -0.9921
   18CHTO    C3 7580   5.354   7.816   0.790 -0.6363  0.7125 -0.7270
   18CHTO   H16 7581   5.388   7.851   0.692 -0.8795 -1.2926 -1.5572
   18CHTO    N1 7582   5.379   7.672   0.795  0.4817 -0.5010 -0.1184
   18CHTO    H8 7583   5.482   7.653   0.766  0.7389 -0.1662  0.5730
   18CHTO    H9 7584   5.311   7.618   0.731 -3.7578  3.3062  0.9247
   18CHTO    C4 7585   5.439   7.893   0.896 -0.5033 -0.5559 -0.2980
   18CHTO   H17 7586   5.428   7.847   0.994  0.9850  1.0637  0.6543
   18CHTO    O1 7587   5.414   8.036   0.896  0.2137  0.8814  0.0723
   18CHTO    C5 7588   5.285   8.073   0.934  0.5363 -1.1556  0.2356
   18CHTO   H18 7589   5.262   8.028   1.030  0.1478  2.0460  1.6697
   18CHTO   C16 7590   5.281   8.229   0.960 -0.4150  0.7551  0.8615
   18CHTO   O11 7591   5.330   8.310   0.852 -0.3305  0.5126 -0.6563
   18CHTO    H5 7592   5.303   8.286   0.766  0.7044 -0.8428 -0.6011
   18CHTO    O3 7593   5.579   7.890   0.855 -0.3753  0.2526  0.6562
   18CHTO    C6 7594   5.679   7.900   0.957  0.0566 -0.6552  0.2802
   18CHTO   H19 7595   5.640   7.916   1.058  0.6096 -0.3705  0.4478
   18CHTO    C8 7596   5.762   7.766   0.954  0.1257 -0.9736 -0.3294
   18CHTO   H21 7597   5.786   7.744   0.850  0.0594 -0.1412 -0.5197
   18CHTO    O7 7598   5.668   7.666   1.019  0.3177 -0.0420  0.2342
   18CHTO    H2 7599   5.708   7.582   1.025  0.0859 -0.1225  0.6799
   18CHTO   C12 7600   5.893   7.765   1.044 -0.7661  0.5498 -0.0239
   18CHTO   H25 7601   5.856   7.761   1.149 -0.7667  2.6526  0.0734
   18CHTO    N3 7602   5.972   7.642   1.014  0.2605 -0.0722  0.1430
   18CHTO   H12 7603   6.000   7.656   0.910 -1.2645  0.6924 -0.1814
   18CHTO   H13 7604   6.045   7.628   1.093 -0.5767 -0.6288  0.8221
   18CHTO   C15 7605   5.970   7.900   1.016 -0.1727  0.0643 -0.0150
   18CHTO   H28 7606   6.022   7.889   0.921 -1.7884  3.6743 -1.3795
   18CHTO   O10 7607   6.067   7.938   1.118 -0.4589 -0.0614  0.1540
   18CHTO    H4 7608   6.122   8.000   1.076  1.5985 -1.8558  0.1261
   18CHTO    O5 7609   5.882   8.016   1.020 -0.0345  0.0585  0.5713
   18CHTO   C10 7610   5.776   8.016   0.926  0.7841 -0.4088  0.1943
   18CHTO   H23 7611   5.818   8.012   0.826  3.8081 -0.4189  1.3968
   18CHTO   C17 7612   5.710   8.155   0.926  0.5791  0.3077 -0.2805
   18CHTO   O12 7613   5.792   8.265   0.872 -0.5370  0.0474  0.0876
   18CHTO    H6 7614   5.746   8.347   0.872 -1.4082 -0.4317 -1.0046
   19CHTO  H203 7615   4.657  10.079   2.974  1.4530 -1.1815 -2.4696
   19CHTO   O82 7616   4.659   9.995   3.017  0.6058 -0.0591 -0.1278
   19CHTO  C123 7617   4.611   9.888   2.942  0.0788 -0.4470  0.2654
   19CHTO  H227 7618   4.531   9.925   2.875  0.8852  0.4870 -0.2043
   19CHTO   O77 7619   4.722   9.847   2.869 -0.4936 -0.2437  0.2896
   19CHTO  C118 7620   4.701   9.738   2.779  0.5424  0.4287 -0.0782
   19CHTO  H222 7621   4.607   9.749   2.722 -0.3793 -2.2621  0.8360
   19CHTO  C125 7622   4.825   9.720   2.686 -0.1570 -0.4165  0.1003
   19CHTO   O84 7623   4.960   9.702   2.742  0.1272 -0.0678 -0.1826
   19CHTO  H205 7624   4.983   9.612   2.753 -1.0158 -0.3428  0.0225
   19CHTO  C114 7625   4.678   9.610   2.861  0.2668 -0.0262 -0.3453
   19CHTO  H218 7626   4.766   9.601   2.923 -0.7165  1.7350  1.3801
   19CHTO  C116 7627   4.549   9.634   2.954 -1.3122 -0.2730 -0.6889
   19CHTO  H220 7628   4.458   9.639   2.891 -0.8740 -2.9821 -1.5872
   19CHTO   O79 7629   4.519   9.523   3.042 -0.2678  0.2732  0.1508
   19CHTO  H201 7630   4.584   9.515   3.109 -1.5530 -0.5932  1.3222
   19CHTO  C120 7631   4.567   9.772   3.045 -0.1329 -0.1078  0.4980
   19CHTO  H224 7632   4.650   9.753   3.116 -0.0230  0.9311  0.6579
   19CHTO   N21 7633   4.446   9.813   3.122 -0.3500  0.1809  0.0186
   19CHTO  H211 7634   4.382   9.867   3.054 -1.8635 -1.2544  0.2708
   19CHTO  H212 7635   4.391   9.735   3.172 -0.8834  1.3718  1.3151
   19CHTO   O75 7636   4.671   9.500   2.769  0.1703  0.3416  0.2589
   19CHTO  C112 7637   4.712   9.362   2.815 -0.2753  0.2337 -0.9164
   19CHTO  H216 7638   4.680   9.338   2.917 -0.8942 -1.8749 -1.5680
   19CHTO   O73 7639   4.859   9.355   2.799  0.0991 -0.3511 -0.2988
   19CHTO  C113 7640   4.908   9.226   2.828  0.1387 -0.3349 -0.0952
   19CHTO  H217 7641   4.883   9.196   2.932 -1.1238 -4.2033 -1.4160
   19CHTO  C124 7642   5.059   9.237   2.820 -0.0024  0.2611 -0.4324
   19CHTO   O83 7643   5.134   9.129   2.877 -0.1208 -0.2977  0.2929
   19CHTO  H204 7644   5.116   9.053   2.826 -0.2733 -1.2498  1.7411
   19CHTO  C109 7645   4.854   9.117   2.723 -0.1815  0.1451  0.0395
   19CHTO  H213 7646   4.878   9.159   2.624  2.4121  1.8672  1.3642
   19CHTO  C110 7647   4.695   9.110   2.739  0.1566 -0.9808 -0.7055
   19CHTO  H214 7648   4.672   9.064   2.835  0.4171 -0.0659 -0.1970
   19CHTO   O78 7649   4.657   9.039   2.618 -0.3008  0.0776  0.1991
   19CHTO  H200 7650   4.678   9.095   2.546 -2.2512  0.6946  0.0634
   19CHTO  C111 7651   4.640   9.252   2.725 -0.3061  0.0591 -0.0732
   19CHTO  H215 7652   4.661   9.291   2.625 -0.3726  0.2457 -0.0153
   19CHTO   N19 7653   4.494   9.259   2.739 -0.3465  0.6477  0.2294
   19CHTO  H207 7654   4.481   9.307   2.835 -1.4171  0.4001  0.2144
   19CHTO  H208 7655   4.458   9.318   2.656 -1.1521  1.1637  0.9455
   19CHTO   O74 7656   4.919   8.988   2.734  0.1356  0.7237  0.4244
   19CHTO  C115 7657   4.952   8.905   2.594 -0.0528  0.5828 -0.2633
   19CHTO  H219 7658   4.864   8.910   2.529 -2.6864 -1.1160  3.0328
   19CHTO   O76 7659   5.062   8.978   2.517  0.0792  0.7957  0.2879
   19CHTO  C122 7660   5.192   8.947   2.582  0.6995 -0.4986 -0.2146
   19CHTO  H226 7661   5.187   8.969   2.688  3.1644  0.1683 -0.2068
   19CHTO  C126 7662   5.297   9.057   2.519 -0.0960  0.6594  0.3961
   19CHTO   O85 7663   5.259   9.189   2.559 -0.3358  0.0914  0.1350
   19CHTO  H206 7664   5.165   9.193   2.560 -0.3374 -0.1584  0.8182
   19CHTO  C121 7665   5.232   8.792   2.560 -0.2459 -0.0592 -0.5331
   19CHTO  H225 7666   5.308   8.770   2.482  2.6180  0.4780  2.0256
   19CHTO   O81 7667   5.290   8.747   2.685 -0.1003 -0.1682  0.0627
   19CHTO  H202 7668   5.370   8.794   2.699 -0.0625  0.4722 -2.1353
   19CHTO  C119 7669   5.104   8.707   2.538  0.4411 -0.6254  0.4965
   19CHTO  H223 7670   5.068   8.727   2.437  2.4357  2.4644  0.3244
   19CHTO  C117 7671   4.998   8.759   2.638  0.0324 -0.0373  0.2248
   19CHTO  H221 7672   5.045   8.776   2.735  2.0682 -2.3737 -0.3154
   19CHTO   N20 7673   4.881   8.666   2.656 -0.0528 -0.3048 -0.2081
   19CHTO  H209 7674   4.856   8.627   2.559 -0.9613 -1.6396  0.5421
   19CHTO  H210 7675   4.897   8.586   2.726 -3.0099 -1.3171 -0.6077
   19CHTO   O80 7676   5.131   8.546   2.540  0.8389  0.4447 -0.1161
   19CHTO  C103 7677   5.160   8.477   2.420 -0.3276 -0.4849  0.2007
   19CHTO  H190 7678   5.142   8.541   2.333  1.3236 -0.3094 -0.0103
   19CHTO  C101 7679   5.315   8.424   2.410  0.0376 -0.3081  0.0105
   19CHTO  H188 7680   5.337   8.380   2.508 -0.2012 -0.4092  0.0173
   19CHTO   O68 7681   5.416   8.559   2.389 -0.1039 -0.2161  0.4391
   19CHTO  H168 7682   5.444   8.587   2.474 -0.4337 -2.5918  1.3842
   19CHTO   C99 7683   5.324   8.328   2.282 -0.3469 -0.0118 -0.4170
   19CHTO  H186 7684   5.316   8.386   2.188  2.2442 -0.5840 -1.0370
   19CHTO   N17 7685   5.460   8.263   2.279 -0.3009 -0.6262 -0.4604
   19CHTO  H174 7686   5.518   8.289   2.367  0.2927 -0.6434 -0.8407
   19CHTO  H175 7687   5.509   8.292   2.188  0.6017 -1.0439 -0.1139
   19CHTO   C97 7688   5.205   8.219   2.279 -0.0005 -0.2568  0.6478
   19CHTO  H184 7689   5.225   8.146   2.359  1.0500 -0.0438  0.5874
   19CHTO   O64 7690   5.078   8.286   2.295 -0.2313 -0.1175 -0.2020
   19CHTO  C104 7691   5.058   8.360   2.414 -0.2687 -0.0918 -0.7722
   19CHTO  H191 7692   5.087   8.289   2.492  0.7028  0.8134 -0.3023
   19CHTO  C108 7693   4.906   8.399   2.434 -0.1072  0.3885 -0.2933
   19CHTO   O71 7694   4.859   8.477   2.326  0.0097  0.2361  0.1345
   19CHTO  H171 7695   4.901   8.561   2.333  0.5110  0.0425 -0.5365
   19CHTO   O62 7696   5.179   8.146   2.162 -0.1124  0.0677 -0.6729
   19CHTO   C91 7697   5.118   8.018   2.194  0.8311  0.1911 -0.4051
   19CHTO  H178 7698   5.069   8.028   2.291  0.8018  1.3754 -0.5290
   19CHTO   C92 7699   5.218   7.896   2.187 -0.3307 -0.2658 -1.0570
   19CHTO  H179 7700   5.255   7.880   2.085  2.1832 -0.6506 -0.1092
   19CHTO   O66 7701   5.322   7.927   2.278 -0.2083 -0.6016 -0.1807
   19CHTO  H166 7702   5.390   7.979   2.239 -0.2723 -0.1261  0.3463
   19CHTO   C93 7703   5.154   7.756   2.224  0.7482  0.2159  0.4462
   19CHTO  H180 7704   5.128   7.773   2.329  0.0531 -1.2472  0.5306
   19CHTO   N16 7705   5.238   7.636   2.214 -0.0043 -0.2066  0.3001
   19CHTO  H172 7706   5.322   7.635   2.282  0.4028  0.0788 -0.2046
   19CHTO  H173 7707   5.278   7.637   2.114 -1.1247  0.1849 -0.1519
   19CHTO   C94 7708   5.027   7.742   2.142  0.4487 -0.0504  0.1271
   19CHTO  H181 7709   5.050   7.737   2.036  2.0264  1.2736  0.3976
   19CHTO   O61 7710   4.943   7.858   2.163 -0.5141  0.4450 -0.4942
   19CHTO   C95 7711   4.999   7.978   2.105  0.2923 -0.1780  0.4419
   19CHTO  H182 7712   5.032   7.963   2.002 -2.1697  4.3577 -1.1502
   19CHTO  C106 7713   4.883   8.088   2.092  0.1981  0.4258 -0.6067
   19CHTO   O69 7714   4.822   8.127   2.215  0.4875 -0.2336  0.7108
   19CHTO  H169 7715   4.880   8.181   2.266  0.6292  0.3720 -0.0832
   19CHTO   O63 7716   4.919   7.611   2.172  0.4684  0.7934  0.5610
   19CHTO   C96 7717   4.853   7.550   2.046  0.3695  0.3096  0.6359
   19CHTO  H183 7718   4.942   7.530   1.987  1.1241  0.9063  1.5643
   19CHTO   C98 7719   4.757   7.638   1.963 -0.3484  0.2558  0.1744
   19CHTO  H185 7720   4.807   7.732   1.938  0.0223  0.0016 -0.0324
   19CHTO   O67 7721   4.743   7.575   1.840 -0.8949  0.2348 -0.4754
   19CHTO  H167 7722   4.693   7.495   1.845 -2.5018  1.0418 -2.8271
   19CHTO  C102 7723   4.617   7.657   2.031  0.0144 -0.6724 -0.1613
   19CHTO  H189 7724   4.550   7.680   1.947  0.6850 -0.9031 -0.7574
   19CHTO   N18 7725   4.603   7.771   2.126  0.1838  0.7738  0.3242
   19CHTO  H176 7726   4.598   7.866   2.073  1.1057  0.0360 -1.1313
   19CHTO  H177 7727   4.700   7.778   2.173  0.4428  1.9874 -0.3505
   19CHTO  C105 7728   4.574   7.520   2.096 -0.3204 -0.1510 -0.6607
   19CHTO  H192 7729   4.581   7.524   2.204 -0.4162  1.5805 -0.7099
   19CHTO   O65 7730   4.644   7.397   2.056  0.7504 -0.0145 -0.5400
   19CHTO  C100 7731   4.783   7.405   2.086 -1.0597  0.2021  0.1759
   19CHTO  H187 7732   4.793   7.398   2.195  0.8228  1.1814  0.0989
   19CHTO  C107 7733   4.864   7.297   2.011  0.0601 -0.5313  0.2305
   19CHTO   O70 7734   4.843   7.301   1.871 -0.5659  0.5119  0.3973
   19CHTO  H170 7735   4.753   7.303   1.842 -0.1581  1.4738 -0.8290
   19CHTO   O57 7736   4.403   7.532   2.061 -0.3020 -0.3728  0.9770
   19CHTO   C85 7737   4.303   7.492   2.155 -0.0424 -0.2282  0.0452
   19CHTO  H157 7738   4.361   7.479   2.249 -2.2879  1.8323  1.7968
   19CHTO   C83 7739   4.260   7.347   2.119  0.0709  0.6051 -0.1151
   19CHTO  H155 7740   4.349   7.284   2.111 -0.4977 -0.1114 -0.9099
   19CHTO   O56 7741   4.202   7.330   1.987 -0.7377  0.0408  0.3484
   19CHTO  H135 7742   4.110   7.312   1.981 -0.4307 -1.3973 -0.1807
   19CHTO   C81 7743   4.168   7.286   2.231 -0.3187 -0.0803  0.6074
   19CHTO  H153 7744   4.225   7.280   2.323  1.8548  0.9826 -0.6316
   19CHTO   N14 7745   4.121   7.146   2.200  0.6846 -0.2704 -0.5944
   19CHTO  H141 7746   4.201   7.086   2.163  1.0457 -0.6156  0.7240
   19CHTO  H142 7747   4.079   7.108   2.291  0.1855 -1.4403 -1.3067
   19CHTO   C79 7748   4.044   7.388   2.258  0.0373  0.1133 -0.3130
   19CHTO  H151 7749   4.005   7.360   2.356 -1.6707  1.2849 -0.6293
   19CHTO   O52 7750   4.102   7.531   2.277 -0.3861 -0.4275  0.3050
   19CHTO   C86 7751   4.187   7.595   2.177 -0.4670 -0.5165 -0.0752
   19CHTO  H158 7752   4.131   7.618   2.084 -1.3631  0.1095  0.6243
   19CHTO   C90 7753   4.239   7.726   2.229 -0.0655 -0.3778 -0.3379
   19CHTO   O60 7754   4.139   7.822   2.273  0.2885  0.3791 -0.1913
   19CHTO  H138 7755   4.075   7.782   2.329 -0.4695  3.1857  1.0335
   19CHTO   O50 7756   3.937   7.383   2.163  0.6594  0.0634 -0.1092
   19CHTO   C73 7757   3.801   7.391   2.132  0.1959  0.2676 -0.1752
   19CHTO  H145 7758   3.757   7.292   2.152 -1.1623  0.5893 -1.5130
   19CHTO   C74 7759   3.786   7.438   1.980  0.8257 -0.2460  0.7376
   19CHTO  H146 7760   3.830   7.351   1.929 -0.9572 -1.3901  1.0949
   19CHTO   O54 7761   3.648   7.451   1.944 -0.1235 -0.1562  0.6391
   19CHTO  H133 7762   3.629   7.431   1.855  0.5984 -0.5828  0.5730
   19CHTO   C75 7763   3.878   7.568   1.959  0.2535  0.5391 -1.0413
   19CHTO  H147 7764   3.980   7.547   1.995 -0.3616  1.4644  1.3307
   19CHTO   N13 7765   3.880   7.612   1.821 -0.1959 -0.2006  0.2149
   19CHTO  H139 7766   3.920   7.539   1.752  2.4580  0.6179  0.8286
   19CHTO  H140 7767   3.780   7.643   1.793 -0.3468 -1.4593 -0.7038
   19CHTO   C76 7768   3.821   7.684   2.058 -0.5439 -0.0430 -0.3595
   19CHTO  H148 7769   3.718   7.700   2.026 -0.5998  1.3843  0.5065
   19CHTO   O49 7770   3.807   7.625   2.199 -0.1373  0.1561 -0.5370
   19CHTO   C77 7771   3.730   7.502   2.220  0.0698  0.4843 -0.1649
   19CHTO  H149 7772   3.629   7.515   2.181  0.5688  0.6727 -1.4068
   19CHTO   C88 7773   3.720   7.471   2.369 -0.4374 -0.5221 -1.1023
   19CHTO   O58 7774   3.650   7.585   2.431  0.2331  0.2988 -0.1071
   19CHTO  H136 7775   3.558   7.581   2.417  0.1362  1.5211  0.1302
   19CHTO   O51 7776   3.914   7.811   2.085  0.1063  0.3449 -0.2746
   19CHTO   C78 7777   3.840   7.973   2.088 -0.2405  0.7530 -0.1374
   19CHTO  H150 7778   3.729   7.967   2.085 -0.1697  0.2671 -2.0602
   19CHTO   C80 7779   3.901   8.057   1.980  0.3593  0.0510 -0.7029
   19CHTO  H152 7780   4.011   8.040   1.982  0.4535  0.5726 -1.1252
   19CHTO   O55 7781   3.851   8.011   1.854 -0.2955  0.0358 -0.5346
   19CHTO  H134 7782   3.901   8.053   1.786 -0.7783  1.0410 -0.2675
   19CHTO   C84 7783   3.860   8.213   1.993  0.2278  0.5519  1.0750
   19CHTO  H156 7784   3.753   8.217   1.974  0.8036 -0.4567 -2.7861
   19CHTO   N15 7785   3.915   8.303   1.890  0.7405  1.0359  0.2050
   19CHTO  H143 7786   3.836   8.352   1.837 -0.6548 -0.0949  1.1714
   19CHTO  H144 7787   3.966   8.243   1.817  0.2023  1.0472 -0.1865
   19CHTO   C87 7788   3.907   8.258   2.135  0.3147 -0.0761  0.1034
   19CHTO  H159 7789   4.015   8.248   2.148  0.3295  0.0755  0.0950
   19CHTO   O53 7790   3.831   8.167   2.230 -0.5639  0.3461  0.8503
   19CHTO   C82 7791   3.879   8.032   2.224  0.2912 -1.0245 -0.0831
   19CHTO  H154 7792   3.985   8.029   2.251  0.2239 -0.3975  0.2473
   19CHTO   C89 7793   3.806   7.949   2.335  0.3741  0.2469  0.0163
   19CHTO   O59 7794   3.878   7.837   2.383 -0.2797  0.1639  0.4985
   19CHTO  H137 7795   3.820   7.766   2.405  0.7751 -1.2172 -0.9972
   19CHTO   O45 7796   3.868   8.423   2.186 -0.0270  0.0074 -0.2025
   19CHTO   C67 7797   3.887   8.445   2.327  0.0615  0.3869 -0.2591
   19CHTO  H124 7798   3.965   8.378   2.362 -0.8283  0.3962  1.8135
   19CHTO   C65 7799   3.924   8.586   2.364  0.4802  0.4390 -0.8766
   19CHTO  H122 7800   4.003   8.610   2.293  1.7080  1.6079  0.8481
   19CHTO   O44 7801   3.984   8.595   2.497  0.3459  0.0992 -0.1254
   19CHTO  H102 7802   3.988   8.687   2.515 -0.9185  0.0733  0.3485
   19CHTO   C63 7803   3.808   8.681   2.323 -0.0484  0.0046 -0.0067
   19CHTO  H120 7804   3.792   8.660   2.217 -0.9642 -2.0573  0.5048
   19CHTO   N11 7805   3.839   8.827   2.325  0.9340  0.2823  0.0618
   19CHTO  H108 7806   3.923   8.854   2.265  1.9233 -2.0321  0.3578
   19CHTO  H109 7807   3.877   8.848   2.422  1.9755  0.6167 -0.4093
   19CHTO   C61 7808   3.683   8.643   2.407  0.2437  0.0931  0.0990
   19CHTO  H118 7809   3.596   8.681   2.352 -0.2667  0.4798  1.1713
   19CHTO   O40 7810   3.656   8.507   2.426 -0.2269  0.2705 -0.3877
   19CHTO   C68 7811   3.754   8.398   2.411  0.3324  0.1653  1.0130
   19CHTO  H125 7812   3.705   8.319   2.351 -1.5800  1.7257  0.4738
   19CHTO   C72 7813   3.789   8.341   2.544  0.0117 -0.2775 -0.5016
   19CHTO   O48 7814   3.880   8.231   2.542 -0.6277  0.2234 -0.1281
   19CHTO  H105 7815   3.963   8.265   2.513  1.1751 -3.1875  0.7558
   19CHTO   O38 7816   3.667   8.694   2.543  0.0145  0.5583 -0.5966
   19CHTO   C55 7817   3.529   8.724   2.583 -0.0655  0.1317 -0.4621
   19CHTO  H112 7818   3.456   8.671   2.520 -0.1590 -0.4791  0.1443
   19CHTO   C56 7819   3.507   8.875   2.581 -0.5199  0.9498  0.1620
   19CHTO  H113 7820   3.581   8.914   2.653  0.4777  0.2281 -0.4570
   19CHTO   O42 7821   3.532   8.932   2.455  0.0309 -0.4718 -0.4791
   19CHTO  H100 7822   3.619   8.929   2.422  0.6052 -0.5438  1.0131
   19CHTO   C57 7823   3.362   8.913   2.646  0.3072  0.2181 -0.1757
   19CHTO  H114 7824   3.296   8.889   2.563 -0.6759  1.5816  0.2033
   19CHTO   N10 7825   3.340   9.057   2.680 -0.0914  0.1492 -0.4899
   19CHTO  H106 7826   3.235   9.076   2.698  0.5784  1.2129  2.6800
   19CHTO  H107 7827   3.372   9.123   2.600 -0.4260  0.2193 -0.5680
   19CHTO   C58 7828   3.326   8.820   2.766 -0.2439  0.4254  0.2398
   19CHTO  H115 7829   3.366   8.862   2.861  1.2170 -1.5841  0.5450
   19CHTO   O37 7830   3.363   8.683   2.758  0.1081 -0.1853  0.8736
   19CHTO   C59 7831   3.505   8.660   2.726 -0.4469  0.3815  0.2857
   19CHTO  H116 7832   3.561   8.709   2.806 -0.1627 -0.2828  0.4887
   19CHTO   C70 7833   3.530   8.505   2.741  0.3369  0.8808  0.3057
   19CHTO   O46 7834   3.508   8.451   2.878  0.0478  0.5019 -0.2641
   19CHTO  H103 7835   3.581   8.459   2.937 -0.3705 -0.5585  0.4177
   19CHTO   O39 7836   3.148   8.811   2.787 -0.5312 -0.8558 -0.0050
   19CHTO   C60 7837   3.074   8.735   2.691  0.2918 -0.3153 -0.6461
   19CHTO  H117 7838   3.141   8.724   2.605  1.9511 -0.5116  0.6378
   19CHTO   C62 7839   3.056   8.587   2.741  0.3696  0.0638 -1.0563
   19CHTO  H119 7840   3.158   8.545   2.754  0.1667 -0.2505 -0.4367
   19CHTO   O43 7841   2.979   8.582   2.867  0.2614  0.4192 -0.6121
   19CHTO  H101 7842   3.021   8.636   2.931 -0.9758  1.6730 -0.8186
   19CHTO   C66 7843   2.991   8.510   2.614 -0.7448  0.3970 -0.7533
   19CHTO  H123 7844   3.061   8.510   2.530  0.1491  3.2071 -0.0533
   19CHTO   N12 7845   2.974   8.370   2.646 -0.0389  0.2635  0.0344
   19CHTO  H110 7846   2.887   8.351   2.708  1.4001 -0.1774  1.9357
   19CHTO  H111 7847   2.970   8.301   2.563  0.4419  0.1678  0.0962
   19CHTO   C69 7848   2.855   8.573   2.564 -0.3223  0.4494  0.1636
   19CHTO  H126 7849   2.779   8.559   2.644 -1.0913 -3.6144 -1.1732
   19CHTO   O41 7850   2.872   8.723   2.527  0.4780 -0.3123  0.2666
   19CHTO   C64 7851   2.943   8.809   2.652 -0.3196  0.0016  0.9331
   19CHTO  H121 7852   2.878   8.792   2.741 -2.1578 -0.7547 -0.5243
   19CHTO   C71 7853   2.948   8.957   2.607 -0.2334 -0.0994  0.6742
   19CHTO   O47 7854   2.820   9.004   2.576 -0.6034  0.1423 -0.9772
   19CHTO  H104 7855   2.785   9.035   2.658 -0.3298  2.8794 -1.8527
   19CHTO   O34 7856   2.807   8.503   2.438  0.3203  0.1161  0.0924
   19CHTO   C49 7857   2.829   8.500   2.284  0.7448 -0.6582  0.6039
   19CHTO   H91 7858   2.794   8.592   2.238 -2.9249 -1.7218  1.1085
   19CHTO   C47 7859   2.752   8.379   2.228  0.8347 -0.0411 -0.7050
   19CHTO   H89 7860   2.764   8.380   2.118  2.6178 -0.1694 -0.5393
   19CHTO   O33 7861   2.615   8.388   2.263  0.3669 -0.1098 -0.2146
   19CHTO   H70 7862   2.604   8.380   2.356  1.5808  0.0856 -0.0530
   19CHTO   C45 7863   2.815   8.233   2.266  0.1100  0.1069  0.7037
   19CHTO   H87 7864   2.806   8.221   2.375 -0.3349  1.6943  0.8565
   19CHTO    N8 7865   2.747   8.119   2.206 -0.4715  0.2782  0.0417
   19CHTO   H75 7866   2.772   8.125   2.101 -1.0412 -1.0048 -0.1743
   19CHTO   H76 7867   2.644   8.098   2.226  0.2136 -1.2331  2.1616
   19CHTO   C43 7868   2.971   8.228   2.230 -0.2292 -0.0328  0.4799
   19CHTO   H85 7869   3.008   8.143   2.287 -1.1080  0.4965  1.8666
   19CHTO   O29 7870   3.031   8.352   2.278  0.0833 -0.5937 -0.0136
   19CHTO   C50 7871   2.980   8.486   2.248 -0.8249 -0.3641 -0.0216
   19CHTO   H92 7872   3.020   8.578   2.293 -0.2545  0.2878 -1.8026
   19CHTO   C54 7873   3.011   8.521   2.101 -0.1044  0.1531 -0.4712
   19CHTO   O36 7874   3.152   8.507   2.069  0.1605  0.5080  0.2506
   19CHTO   H72 7875   3.183   8.422   2.095  2.5991  0.6951 -1.9870
   19CHTO   O27 7876   3.000   8.211   2.086 -0.2506 -0.6311  0.4963
   19CHTO   C37 7877   3.059   8.144   1.975 -0.1037  0.1423  0.0560
   19CHTO   H79 7878   3.039   8.038   1.998  0.8791 -0.0735 -0.0673
   19CHTO   C38 7879   3.005   8.166   1.830 -0.4199  0.4914  0.1676
   19CHTO   H80 7880   3.009   8.274   1.808  3.1410  0.0428 -1.7297
   19CHTO   O31 7881   2.863   8.124   1.824 -0.4943 -0.3458 -0.1186
   19CHTO   H68 7882   2.855   8.033   1.847 -2.1055 -0.5773 -1.5029
   19CHTO   C39 7883   3.099   8.085   1.728 -0.1250 -0.1880  0.1362
   19CHTO   H81 7884   3.093   7.976   1.738 -1.4643 -0.0503  0.8748
   19CHTO    N7 7885   3.058   8.121   1.586 -0.0096  0.0764  0.5469
   19CHTO   H73 7886   3.020   8.035   1.533  0.9376 -0.2065  0.3110
   19CHTO   H74 7887   3.002   8.213   1.576  0.8348  0.4613 -0.7149
   19CHTO   C40 7888   3.252   8.121   1.749 -0.2040 -0.6133  0.0127
   19CHTO   H82 7889   3.272   8.227   1.730  0.0114 -0.7464 -0.5086
   19CHTO   O26 7890   3.287   8.087   1.878 -0.2614 -0.7590 -0.1048
   19CHTO   C41 7891   3.215   8.161   1.980  0.8290  0.4532 -0.7235
   19CHTO   H83 7892   3.231   8.268   1.962  0.5246  0.7033  0.4661
   19CHTO   C52 7893   3.273   8.130   2.114 -0.3782  0.5566 -0.2213
   19CHTO   O35 7894   3.439   8.156   2.100  0.2638 -0.5727 -0.2386
   19CHTO   H71 7895   3.494   8.131   2.172  2.1676 -0.3879 -1.5874
   19CHTO   O28 7896   3.345   8.044   1.671  0.1187 -0.6461  0.5861
   19CHTO   C42 7897   3.485   8.077   1.652  0.0648  0.0450  0.5451
   19CHTO   H84 7898   3.520   8.103   1.752 -0.8676  5.0766 -0.3084
   19CHTO   C44 7899   3.523   8.208   1.562  0.0746  0.2169 -0.0601
   19CHTO   H86 7900   3.477   8.199   1.464  1.9458  0.0085 -0.9231
   19CHTO   O32 7901   3.467   8.318   1.628 -0.1412 -0.2689  0.4794
   19CHTO   H69 7902   3.381   8.335   1.596  0.3996 -0.3408 -1.0782
   19CHTO   C48 7903   3.678   8.215   1.550 -1.1542  0.4823 -0.2460
   19CHTO   H90 7904   3.728   8.215   1.646  0.5953  1.3252 -1.1475
   19CHTO    N9 7905   3.727   8.340   1.478  0.4560  0.6189  0.1577
   19CHTO   H77 7906   3.684   8.431   1.516 -1.2693 -0.0964 -0.0613
   19CHTO   H78 7907   3.835   8.343   1.476  0.4326  1.1775 -0.4902
   19CHTO   C51 7908   3.737   8.076   1.480  0.8763 -0.7360  0.2873
   19CHTO   H93 7909   3.673   8.069   1.393 -0.5045 -1.0165  1.3112
   19CHTO   O30 7910   3.707   7.973   1.576  0.3602  0.2718  0.4396
   19CHTO   C46 7911   3.559   7.955   1.602 -0.5665 -0.2009 -0.5853
   19CHTO   H88 7912   3.514   7.918   1.510 -0.1416  1.4691 -1.4918
   19CHTO   C53 7913   3.553   7.841   1.707  0.2039 -0.6335  0.0922
   19CHTO   O72 7914   3.614   7.721   1.672  0.1841  0.5220 -0.5518
   19CHTO  H199 7915   3.582   7.653   1.729  1.4713 -0.0778 -0.5317
   19CHTO   O22 7916   3.875   8.080   1.432 -0.2795 -0.3352 -0.0464
   19CHTO   C31 7917   3.952   7.990   1.346 -0.0891  0.1555 -0.3393
   19CHTO   H59 7918   3.886   7.902   1.336 -0.1366  0.0271  1.0214
   19CHTO   C29 7919   3.984   8.038   1.200 -0.0877  0.9492  0.2399
   19CHTO   H57 7920   4.040   8.133   1.211 -0.3913  1.0435  0.9755
   19CHTO   O21 7921   3.864   8.076   1.127  0.4255 -0.5491  0.6002
   19CHTO   H37 7922   3.788   8.037   1.165 -0.7666 -1.5844 -2.7418
   19CHTO   C27 7923   4.066   7.936   1.110  0.1350  0.0310  0.0893
   19CHTO   H55 7924   4.005   7.849   1.083  1.0374 -1.0281  1.3912
   19CHTO    N5 7925   4.118   8.003   0.989  0.1309 -0.6836 -0.2556
   19CHTO   H43 7926   4.099   8.109   0.982  0.5751 -0.6093 -0.3407
   19CHTO   H44 7927   4.093   7.964   0.891 -0.3438 -1.5688  0.2196
   19CHTO   C25 7928   4.180   7.877   1.199  0.4239  0.3604  0.0835
   19CHTO   H53 7929   4.266   7.944   1.213 -0.0301  1.1161 -0.7335
   19CHTO   O17 7930   4.149   7.842   1.334  0.6496  0.3386 -0.3481
   19CHTO   C32 7931   4.081   7.940   1.413 -0.1108  0.6969  0.7595
   19CHTO   H60 7932   4.153   8.021   1.425  2.7135 -1.2056 -2.1697
   19CHTO   C36 7933   4.049   7.892   1.554 -0.0860  0.2032 -0.1271
   19CHTO   O25 7934   3.971   7.779   1.550  0.0573 -0.2208  0.7754
   19CHTO   H40 7935   3.999   7.712   1.610  0.4860 -1.3823 -0.6959
   19CHTO   O15 7936   4.226   7.749   1.144 -0.3144 -0.1650 -0.2945
   19CHTO   C19 7937   4.328   7.673   1.085 -0.0123  0.7151  0.1925
   19CHTO   H47 7938   4.313   7.680   0.976 -0.6094 -1.5766  0.0840
   19CHTO   C20 7939   4.477   7.712   1.119 -0.1873  0.1825 -0.1837
   19CHTO   H48 7940   4.498   7.706   1.227 -0.4211 -0.9069 -0.1937
   19CHTO   O19 7941   4.485   7.854   1.084 -0.2080  0.1634 -0.3124
   19CHTO   H35 7942   4.540   7.900   1.144  2.2904 -1.2811 -1.4294
   19CHTO   C21 7943   4.581   7.619   1.046  0.0720 -0.6376 -0.3827
   19CHTO   H49 7944   4.582   7.639   0.939 -1.9254 -1.5397 -0.5941
   19CHTO    N4 7945   4.719   7.642   1.098 -0.7633 -0.3103 -0.9116
   19CHTO   H41 7946   4.764   7.736   1.068  3.2047 -2.1193 -0.9727
   19CHTO   H42 7947   4.712   7.643   1.205 -1.1111  4.1810 -0.8853
   19CHTO   C22 7948   4.530   7.466   1.053  0.8930 -0.4478 -0.1493
   19CHTO   H50 7949   4.556   7.423   1.150 -1.3417 -0.7879  0.3327
   19CHTO   O14 7950   4.391   7.447   1.031 -0.0481  0.3199  0.2910
   19CHTO   C23 7951   4.306   7.525   1.119 -0.6408  0.5523  0.2748
   19CHTO   H51 7952   4.341   7.498   1.220 -0.5039 -1.6869 -0.3388
   19CHTO   C34 7953   4.167   7.468   1.098  0.0064 -0.0072 -0.4885
   19CHTO   O23 7954   4.167   7.334   1.133  0.3290 -0.7748  0.0759
   19CHTO   H38 7955   4.209   7.276   1.073 -0.5423  0.3221 -1.6293
   19CHTO   O16 7956   4.597   7.380   0.961 -0.3231  0.1375  1.1339
   19CHTO   C24 7957   4.544   7.205   0.946 -0.0447 -0.8757 -0.7126
   19CHTO   H52 7958   4.437   7.195   0.964 -0.0370  1.6201  0.9138
   19CHTO   C26 7959   4.623   7.117   1.045 -0.0260  1.1699  0.1995
   19CHTO   H54 7960   4.734   7.127   1.037  0.3824 -1.3673  2.0877
   19CHTO   O20 7961   4.579   7.170   1.170 -0.2530 -0.4524  0.2273
   19CHTO   H36 7962   4.607   7.133   1.252 -1.0735  0.8089  1.0992
   19CHTO   C30 7963   4.584   6.970   1.024 -0.3355  0.0782 -0.9261
   19CHTO   H58 7964   4.481   6.962   1.060 -0.3898  0.5193 -0.9813
   19CHTO    N6 7965   4.659   6.879   1.122 -0.0535  0.0594  0.6424
   19CHTO   H45 7966   4.631   6.779   1.090  1.7119  0.6157 -2.9235
   19CHTO   H46 7967   4.766   6.895   1.116  0.3980 -2.7738  0.1270
   19CHTO   C33 7968   4.600   6.929   0.876  0.2925  0.4533  0.2979
   19CHTO   H61 7969   4.704   6.937   0.844 -0.3674  1.3833 -1.7104
   19CHTO   O18 7970   4.523   7.019   0.796  0.0165 -0.3910  0.5458
   19CHTO   C28 7971   4.570   7.150   0.803 -0.2828  0.2707 -0.3679
   19CHTO   H56 7972   4.678   7.149   0.785 -0.0936  2.0109  0.5538
   19CHTO   C35 7973   4.492   7.221   0.693 -0.0120  0.5057  0.0314
   19CHTO   O24 7974   4.354   7.238   0.725 -0.2691  0.3335 -0.3518
   19CHTO   H39 7975   4.344   7.328   0.702 -0.0756  0.6308  0.7056
   19CHTO    O9 7976   4.550   6.792   0.860  0.0309 -0.4671  0.1282
   19CHTO   C13 7977   4.393   6.760   0.812  0.6361  0.4631 -0.0977
   19CHTO   H26 7978   4.356   6.845   0.750  0.0970  0.9067  0.8047
   19CHTO   C11 7979   4.311   6.741   0.937 -0.0721  0.2544 -0.2818
   19CHTO   H24 7980   4.298   6.837   0.990 -0.9496  0.4057 -0.7534
   19CHTO    O8 7981   4.378   6.653   1.033  0.2166  0.5336 -0.2479
   19CHTO    H3 7982   4.347   6.565   1.033 -2.2451  1.3578 -0.5292
   19CHTO    C9 7983   4.169   6.694   0.886 -0.2131  0.2322  0.2034
   19CHTO   H22 7984   4.134   6.769   0.813 -0.8570  0.8431  1.1288
   19CHTO    N2 7985   4.062   6.683   0.992  0.3598 -0.0366 -0.0782
   19CHTO   H10 7986   4.096   6.613   1.067 -0.5917 -3.8411 -3.0223
   19CHTO   H11 7987   4.040   6.778   1.037 -0.4508  0.6459 -1.8420
   19CHTO    C7 7988   4.182   6.551   0.817 -0.0570  1.0911  0.0900
   19CHTO   H20 7989   4.083   6.527   0.773  1.3102 -0.0117 -2.4908
   19CHTO    O4 7990   4.273   6.557   0.709  0.1015  0.2440 -0.2151
   19CHTO   C14 7991   4.400   6.627   0.722  0.8550 -0.3047  0.0729
   19CHTO   H27 7992   4.422   6.657   0.617  0.2561 -4.2635 -1.2571
   19CHTO   C18 7993   4.514   6.533   0.761 -0.0056 -0.1953  0.4147
   19CHTO   O13 7994   4.528   6.413   0.679  0.6635  0.4677  0.0951
   19CHTO    H7 7995   4.481   6.338   0.711  0.6513 -0.1008 -1.2136
   19CHTO    O2 7996   4.214   6.412   0.920 -0.0035  0.1228  0.1583
   19CHTO    C1 7997   4.157   6.287   0.881 -0.1805  0.4516 -0.1479
   19CHTO   H14 7998   4.173   6.269   0.772 -0.4439 -1.6466  0.1285
   19CHTO    C2 7999   4.001   6.281   0.908  0.2563 -0.9037 -0.4240
   19CHTO   H15 8000   3.985   6.317   1.010  1.0746 -2.3683  0.2394
   19CHTO    O6 8001   3.930   6.352   0.806  0.9456 -0.3718  0.3713
   19CHTO    H1 8002   3.963   6.337   0.720  0.8910 -1.3674  0.5150
   19CHTO    C3 8003   3.954   6.126   0.895  0.5606  0.1188  0.4642
   19CHTO   H16 8004   3.971   6.079   0.797 -0.1821 -1.8756  1.2758
   19CHTO    N1 8005   3.807   6.115   0.928  0.6064 -0.4104  0.2774
   19CHTO    H8 8006   3.786   6.100   1.033  0.8251  0.8458  0.5119
   19CHTO    H9 8007   3.750   6.189   0.875 -1.4774 -2.1007  0.0848
   19CHTO    C4 8008   4.050   6.041   0.985  0.4978 -0.0127  0.5039
   19CHTO   H17 8009   4.031   6.074   1.087 -0.3896  1.1662 -0.0367
   19CHTO    O1 8010   4.185   6.055   0.942  0.4549 -0.4683  0.4628
   19CHTO    C5 8011   4.237   6.187   0.966 -0.3044  0.1181  0.1923
   19CHTO   H18 8012   4.239   6.214   1.072 -0.8431  0.4862  0.1120
   19CHTO   C16 8013   4.385   6.190   0.918 -0.2345 -0.0971  0.2632
   19CHTO   O11 8014   4.450   6.075   0.982 -1.1288 -0.1653  0.3610
   19CHTO    H5 8015   4.529   6.109   1.019 -1.6938  1.7174 -0.0929
   19CHTO    O3 8016   4.017   5.899   0.991 -0.2226  0.1722  0.1724
   19CHTO    C6 8017   3.993   5.837   1.125 -0.2563  0.1235  0.3497
   19CHTO   H19 8018   3.962   5.902   1.207 -3.7041 -0.6004 -0.3039
   19CHTO    C8 8019   3.871   5.742   1.105 -0.6191  0.9312  0.2781
   19CHTO   H21 8020   3.876   5.689   1.010  0.6309  0.1090  0.7807
   19CHTO    O7 8021   3.755   5.824   1.103 -0.5942 -0.0352 -0.0834
   19CHTO    H2 8022   3.733   5.851   1.016  0.8323  2.1163  0.1795
   19CHTO   C12 8023   3.855   5.639   1.224 -0.1297  0.5403 -0.4631
   19CHTO   H25 8024   3.818   5.703   1.307 -0.7166  1.2210 -1.2420
   19CHTO    N3 8025   3.749   5.537   1.188 -0.4896 -0.0739 -0.1660
   19CHTO   H12 8026   3.655   5.579   1.155  0.0192  0.9274 -0.3705
   19CHTO   H13 8027   3.733   5.458   1.259 -1.4330  0.6372  0.4310
   19CHTO   C15 8028   3.988   5.572   1.265 -0.3418 -0.2649  0.1148
   19CHTO   H28 8029   4.024   5.502   1.189  0.9888 -0.6261  1.0703
   19CHTO   O10 8030   3.964   5.495   1.406  0.6955 -0.0315 -0.3205
   19CHTO    H4 8031   4.045   5.461   1.439 -0.1836  1.3138  3.4866
   19CHTO    O5 8032   4.085   5.676   1.294  0.3962  0.1604 -0.0531
   19CHTO   C10 8033   4.115   5.751   1.175 -0.2178  0.4533 -0.4564
   19CHTO   H23 8034   4.143   5.681   1.096  2.6809  0.3527  0.6118
   19CHTO   C17 8035   4.235   5.844   1.199 -0.1182  0.3613  0.2906
   19CHTO   O12 8036   4.204   5.957   1.281  0.1057 -0.0519 -0.4375
   19CHTO    H6 8037   4.223   6.036   1.236  0.7247  0.5358  0.8278
   20CHTO  H203 8038   4.434   1.018   2.498 -0.1272 -1.6126 -0.0095
   20CHTO   O82 8039   4.371   1.042   2.433  0.3659  0.1357  0.1193
   20CHTO  C123 8040   4.444   1.094   2.321 -0.2652 -0.0291 -0.2057
   20CHTO  H227 8041   4.376   1.146   2.253 -3.2334  0.7382  3.1820
   20CHTO   O77 8042   4.542   1.196   2.379 -0.7726 -0.2779 -0.1959
   20CHTO  C118 8043   4.602   1.273   2.273  0.3069 -0.6799 -0.2809
   20CHTO  H222 8044   4.517   1.308   2.213 -0.8276 -0.6397  1.3254
   20CHTO  C125 8045   4.672   1.394   2.348  0.2232  0.3880  0.2466
   20CHTO   O84 8046   4.712   1.504   2.267 -0.1250  0.0433  0.0589
   20CHTO  H205 8047   4.757   1.464   2.195 -1.9732 -1.6770 -0.1648
   20CHTO  C114 8048   4.692   1.178   2.190 -1.3076  0.8612  0.5976
   20CHTO  H218 8049   4.770   1.140   2.255 -0.4085  0.8592 -0.4648
   20CHTO  C116 8050   4.612   1.060   2.138 -0.9173  0.1688 -0.3053
   20CHTO  H220 8051   4.551   1.098   2.053 -0.6006 -1.1614 -1.1411
   20CHTO   O79 8052   4.702   0.966   2.073 -0.5093  0.0322  0.8571
   20CHTO  H201 8053   4.765   1.013   2.022  1.9622 -0.1794  3.6292
   20CHTO  C120 8054   4.524   0.986   2.242 -0.4352 -0.3537  0.3883
   20CHTO  H224 8055   4.597   0.936   2.309 -1.6257  1.9718  3.5690
   20CHTO   N21 8056   4.441   0.874   2.191 -0.1915  0.3152  0.2002
   20CHTO  H211 8057   4.345   0.915   2.164  0.0669 -0.0531 -1.3465
   20CHTO  H212 8058   4.433   0.814   2.281 -0.5028  0.3738  0.2106
   20CHTO   O75 8059   4.747   1.262   2.082 -0.0391 -0.2616 -0.0803
   20CHTO  C112 8060   4.913   1.261   2.085 -0.5628  0.9297  0.0058
   20CHTO  H216 8061   4.943   1.170   2.139 -1.0882  0.8068  0.0897
   20CHTO   O73 8062   4.960   1.376   2.147 -0.2530 -0.6856 -0.1812
   20CHTO  C113 8063   5.100   1.399   2.167  0.2626  0.8903  0.0217
   20CHTO  H217 8064   5.130   1.319   2.238  1.1403  0.2074 -1.0942
   20CHTO  C124 8065   5.116   1.534   2.226 -0.3479 -0.6529 -0.2308
   20CHTO   O83 8066   5.037   1.555   2.341  0.2634 -0.0852  0.6091
   20CHTO  H204 8067   4.949   1.576   2.314  1.1648 -0.0176 -2.5001
   20CHTO  C109 8068   5.180   1.387   2.036  0.2865  0.0446 -0.9236
   20CHTO  H213 8069   5.156   1.478   1.979  1.2995  1.8466  1.4478
   20CHTO  C110 8070   5.136   1.256   1.954  0.3574  0.1286 -0.3943
   20CHTO  H214 8071   5.169   1.162   1.998 -0.1150 -0.3802 -1.1269
   20CHTO   O78 8072   5.202   1.254   1.826  0.6675  0.3701 -0.0516
   20CHTO  H200 8073   5.169   1.324   1.773 -1.6454 -0.2779  0.4679
   20CHTO  C111 8074   4.977   1.257   1.934 -0.0718  0.5967 -0.5609
   20CHTO  H215 8075   4.949   1.355   1.892  0.6792  0.8765 -0.4225
   20CHTO   N19 8076   4.917   1.153   1.853  0.6048  0.0204  0.2387
   20CHTO  H207 8077   4.880   1.077   1.921  1.0764 -0.4072  0.0167
   20CHTO  H208 8078   4.828   1.191   1.806 -0.1168 -1.1894  0.6053
   20CHTO   O74 8079   5.328   1.395   2.064 -1.2324 -0.3702 -0.2611
   20CHTO  C115 8080   5.400   1.546   2.000  0.0605 -0.9313  0.3347
   20CHTO  H219 8081   5.345   1.634   2.034  1.6902 -0.1056  0.8724
   20CHTO   O76 8082   5.541   1.572   2.057  0.5846  0.0972  0.3953
   20CHTO  C122 8083   5.647   1.499   1.998  0.8424  0.2838 -1.0378
   20CHTO  H226 8084   5.617   1.397   2.023  2.0025  0.2111  0.1340
   20CHTO  C126 8085   5.779   1.527   2.067 -1.0377 -0.2316  0.4086
   20CHTO   O85 8086   5.817   1.665   2.062 -0.3939 -0.0438 -0.2697
   20CHTO  H206 8087   5.905   1.675   2.032  0.1112  1.0994  1.5433
   20CHTO  C121 8088   5.657   1.509   1.846 -0.0014  0.2522 -0.3853
   20CHTO  H225 8089   5.748   1.559   1.807 -0.8519  1.6887 -0.5975
   20CHTO   O81 8090   5.682   1.378   1.796 -0.0056 -1.0748  0.6055
   20CHTO  H202 8091   5.608   1.321   1.797  0.6574 -1.9944 -0.3834
   20CHTO  C119 8092   5.535   1.579   1.778 -0.0041  0.0074  0.5719
   20CHTO  H223 8093   5.543   1.687   1.795  0.8804 -0.2079  1.5629
   20CHTO  C117 8094   5.401   1.533   1.843 -0.7664 -0.0265 -0.1014
   20CHTO  H221 8095   5.386   1.427   1.823  0.6765 -0.3776  0.6324
   20CHTO   N20 8096   5.285   1.605   1.779  1.0654 -0.2379  1.7418
   20CHTO  H209 8097   5.184   1.571   1.795  0.9127 -0.1224  1.0363
   20CHTO  H210 8098   5.296   1.694   1.718  1.2107 -1.0498  0.5668
   20CHTO   O80 8099   5.539   1.576   1.612  0.0549 -0.0590 -0.3108
   20CHTO  C103 8100   5.636   1.672   1.530 -0.3168 -0.3919 -0.1873
   20CHTO  H190 8101   5.696   1.733   1.598 -1.5647  0.5152  0.1029
   20CHTO  C101 8102   5.714   1.601   1.416  0.2402 -0.4016 -0.7282
   20CHTO  H188 8103   5.652   1.533   1.358 -0.5697  0.6717 -1.1445
   20CHTO   O68 8104   5.831   1.510   1.480  0.4736 -0.8655 -0.1904
   20CHTO  H168 8105   5.807   1.421   1.466  2.0780 -1.1725 -1.0493
   20CHTO   C99 8106   5.781   1.706   1.324 -0.1369 -0.5167 -0.1605
   20CHTO  H186 8107   5.845   1.777   1.381  1.1221 -0.7759 -1.2109
   20CHTO   N17 8108   5.858   1.654   1.198 -0.3758  0.3588  0.4891
   20CHTO  H174 8109   5.951   1.707   1.186  0.7174 -1.5391  0.3976
   20CHTO  H175 8110   5.882   1.549   1.201  2.4271  0.9935  1.6025
   20CHTO   C97 8111   5.665   1.797   1.262 -0.9240 -0.4978 -0.1978
   20CHTO  H184 8112   5.589   1.734   1.212 -1.0732 -1.2718  0.9754
   20CHTO   O64 8113   5.607   1.866   1.374 -0.0234 -0.2822  0.3653
   20CHTO  C104 8114   5.536   1.772   1.458 -0.1519  0.3867  0.1595
   20CHTO  H191 8115   5.471   1.715   1.392 -1.0684  0.3706  1.0601
   20CHTO  C108 8116   5.447   1.857   1.551  0.1039 -0.9001  0.9640
   20CHTO   O71 8117   5.355   1.928   1.468 -0.1944 -0.3526  0.4379
   20CHTO  H171 8118   5.274   1.889   1.494 -0.3907  0.1415  0.5716
   20CHTO   O62 8119   5.710   1.899   1.171 -0.6489  0.2163  0.3752
   20CHTO   C91 8120   5.627   2.001   1.107  0.5522 -0.4271  0.1867
   20CHTO  H178 8121   5.565   2.039   1.188 -1.3207 -2.8477 -0.0588
   20CHTO   C92 8122   5.527   1.957   0.999 -0.4942  0.1024 -0.6196
   20CHTO  H179 8123   5.577   1.926   0.906 -0.9324  0.2383 -0.8992
   20CHTO   O66 8124   5.454   1.841   1.044  0.5561  0.1957  0.2855
   20CHTO  H166 8125   5.461   1.768   0.985  4.7757  0.9289 -0.2690
   20CHTO   C93 8126   5.438   2.082   0.974  0.3765  1.1038  0.3125
   20CHTO  H180 8127   5.394   2.118   1.068 -1.4593  0.1262 -0.1503
   20CHTO   N16 8128   5.323   2.049   0.885  0.6229 -0.6766 -0.3225
   20CHTO  H172 8129   5.263   1.974   0.933 -1.7353  2.4163  1.7898
   20CHTO  H173 8130   5.269   2.142   0.880  1.9499  0.1735  0.6969
   20CHTO   C94 8131   5.526   2.202   0.916 -0.5474 -0.6209 -0.6723
   20CHTO  H181 8132   5.580   2.169   0.827  1.8584 -2.7643  1.5052
   20CHTO   O61 8133   5.619   2.228   1.013 -0.2537  0.3192  0.2790
   20CHTO   C95 8134   5.711   2.125   1.054 -0.1350 -0.1436  0.2836
   20CHTO  H182 8135   5.773   2.098   0.969  1.0706 -0.7934  1.3475
   20CHTO  C106 8136   5.815   2.189   1.156 -0.4237  0.1879  0.1553
   20CHTO   O69 8137   5.907   2.092   1.193  0.3784 -0.8932  0.0423
   20CHTO  H169 8138   5.906   2.088   1.287  0.6300  2.3438  0.2700
   20CHTO   O63 8139   5.456   2.337   0.892  0.3006 -0.2409  0.4041
   20CHTO   C96 8140   5.437   2.391   0.726  0.2231  0.0821  0.1735
   20CHTO  H183 8141   5.403   2.309   0.662 -0.0952  0.3392  0.0117
   20CHTO   C98 8142   5.569   2.452   0.663 -0.5894 -0.3674 -0.6007
   20CHTO  H185 8143   5.612   2.519   0.739  0.9967 -1.4896 -0.4619
   20CHTO   O67 8144   5.664   2.343   0.655  0.1489  0.1161 -0.3801
   20CHTO  H167 8145   5.646   2.269   0.599  1.9206 -0.9032  0.3396
   20CHTO  C102 8146   5.542   2.529   0.529 -0.1876 -0.8345 -0.0916
   20CHTO  H189 8147   5.513   2.453   0.455  1.2197 -1.7455  0.2604
   20CHTO   N18 8148   5.665   2.593   0.478 -0.5760  0.7901  0.8640
   20CHTO  H176 8149   5.707   2.661   0.550  0.7279 -0.7223  1.5697
   20CHTO  H177 8150   5.638   2.635   0.382  3.7575  0.4845 -0.5624
   20CHTO  C105 8151   5.423   2.629   0.564  0.1584 -0.0806 -0.1474
   20CHTO  H192 8152   5.454   2.693   0.646  1.0926 -1.7463  0.8315
   20CHTO   O65 8153   5.305   2.562   0.609 -0.2600  0.0408 -0.0991
   20CHTO  C100 8154   5.323   2.502   0.735  0.1761  0.4223  0.6429
   20CHTO  H187 8155   5.357   2.576   0.809  0.3816  0.5644  0.4077
   20CHTO  C107 8156   5.187   2.444   0.778 -0.7815  0.1223  0.1615
   20CHTO   O70 8157   5.080   2.531   0.802  0.3066  0.3150  0.3467
   20CHTO  H170 8158   5.035   2.510   0.882 -1.9281  0.2115 -0.9138
   20CHTO   O57 8159   5.399   2.722   0.437  0.0135 -0.4313  0.0195
   20CHTO   C85 8160   5.383   2.861   0.441 -0.6766 -0.3326 -0.3454
   20CHTO  H157 8161   5.455   2.896   0.518  0.3243 -0.4663 -1.2157
   20CHTO   C83 8162   5.240   2.902   0.485  0.0276 -0.3806 -0.1796
   20CHTO  H155 8163   5.217   2.867   0.586  2.2360  0.2410  0.5658
   20CHTO   O56 8164   5.136   2.844   0.399  0.1789 -0.5360 -0.4891
   20CHTO  H135 8165   5.084   2.774   0.433 -1.0481 -0.7614 -2.7589
   20CHTO   C81 8166   5.233   3.057   0.488  0.1234  0.2556  0.7240
   20CHTO  H153 8167   5.313   3.092   0.553 -1.7063  2.8779  1.6457
   20CHTO   N14 8168   5.105   3.113   0.546 -0.0299 -0.0593 -0.0890
   20CHTO  H141 8169   5.050   3.177   0.480  1.2196  0.3932 -0.7052
   20CHTO  H142 8170   5.119   3.159   0.642 -1.8590 -1.8090  1.0810
   20CHTO   C79 8171   5.256   3.110   0.343  0.0122 -0.2538 -0.2038
   20CHTO  H151 8172   5.259   3.219   0.349 -0.0779 -0.1769 -1.4362
   20CHTO   O52 8173   5.391   3.077   0.306 -0.2390 -0.0203  0.5347
   20CHTO   C86 8174   5.416   2.929   0.304  0.1645  0.0585  0.4637
   20CHTO  H158 8175   5.345   2.895   0.226  0.7946 -1.3105  0.4664
   20CHTO   C90 8176   5.555   2.905   0.248 -0.0120 -0.5184 -0.3738
   20CHTO   O60 8177   5.593   2.965   0.121  0.2703 -0.6534  0.3254
   20CHTO  H138 8178   5.561   3.052   0.109  0.3968 -0.7037 -0.4289
   20CHTO   O50 8179   5.159   3.079   0.239 -0.0669 -0.0831 -0.3242
   20CHTO   C73 8180   5.189   3.062   0.100 -0.2710 -0.0271 -0.0376
   20CHTO  H145 8181   5.280   3.003   0.081  0.1372  0.0590  1.6217
   20CHTO   C74 8182   5.215   3.206   0.039 -0.0840 -0.2446  0.3299
   20CHTO  H146 8183   5.294   3.257   0.095 -0.9639  0.1882  1.1854
   20CHTO   O54 8184   5.260   3.197  -0.098  0.3037  0.4211 -0.3228
   20CHTO  H133 8185   5.255   3.109  -0.131 -1.7310  0.9646 -1.5887
   20CHTO   C75 8186   5.074   3.284   0.060  0.2570 -0.1284  1.1808
   20CHTO  H147 8187   5.054   3.281   0.168 -0.4281  0.6506  1.0806
   20CHTO   N13 8188   5.078   3.421   0.007  0.6114  0.5461 -0.3294
   20CHTO  H139 8189   5.070   3.493   0.087  2.6484  1.0648 -0.5442
   20CHTO  H140 8190   5.005   3.430  -0.072  0.9646 -0.4087 -0.7720
   20CHTO   C76 8191   4.961   3.199  -0.021 -0.1038 -0.3207 -0.2179
   20CHTO  H148 8192   4.982   3.211  -0.128 -2.1366  2.5475 -0.3521
   20CHTO   O49 8193   4.947   3.062   0.020  0.1853  0.0671  0.2235
   20CHTO   C77 8194   5.068   2.983   0.031  0.3025 -0.2500 -0.2264
   20CHTO  H149 8195   5.094   2.975  -0.075  0.7530  1.0155 -0.2121
   20CHTO   C88 8196   5.050   2.848   0.096  0.2019  0.2876  0.1073
   20CHTO   O58 8197   5.165   2.771   0.106  0.0383  0.4290 -0.8976
   20CHTO  H136 8198   5.228   2.802   0.044  0.2542  0.9773 -0.4075
   20CHTO   O51 8199   4.810   3.265   0.017  0.2074  0.7342 -0.0162
   20CHTO   C78 8200   4.778   3.293   0.189 -0.4190  0.1233 -0.5960
   20CHTO  H150 8201   4.873   3.328   0.235 -1.3358  1.9344 -0.0264
   20CHTO   C80 8202   4.725   3.164   0.264  0.1912  0.4652 -0.7129
   20CHTO  H152 8203   4.658   3.110   0.195 -1.9011  2.2299 -0.1201
   20CHTO   O55 8204   4.838   3.082   0.278  0.1562  0.1776 -0.2337
   20CHTO  H134 8205   4.833   3.017   0.345 -0.1505 -0.8095 -1.1970
   20CHTO   C84 8206   4.660   3.186   0.406 -0.4407  0.1648  0.4135
   20CHTO  H156 8207   4.741   3.202   0.477 -0.5095 -0.4419  0.6353
   20CHTO   N15 8208   4.588   3.060   0.453 -0.1877 -0.0973 -0.5839
   20CHTO  H143 8209   4.493   3.099   0.482 -0.3364 -1.6014  0.9919
   20CHTO  H144 8210   4.638   3.021   0.540  0.3285 -0.2061 -0.9257
   20CHTO   C87 8211   4.569   3.306   0.397  0.1238 -0.1573 -0.0430
   20CHTO  H159 8212   4.498   3.281   0.318 -0.7590 -1.3405  1.1033
   20CHTO   O53 8213   4.644   3.426   0.338  0.6268 -0.5215 -0.1072
   20CHTO   C82 8214   4.679   3.411   0.204  0.3938 -0.7142 -0.1935
   20CHTO  H154 8215   4.596   3.390   0.137  0.5758 -2.4868  0.1139
   20CHTO   C89 8216   4.736   3.548   0.160 -0.2317  0.1726  0.1024
   20CHTO   O59 8217   4.835   3.613   0.248 -0.6412  0.1876  0.1789
   20CHTO  H137 8218   4.903   3.549   0.248 -1.3590 -0.5879 -0.5971
   20CHTO   O45 8219   4.494   3.352   0.552 -0.3602  0.7023 -0.2972
   20CHTO   C67 8220   4.573   3.371   0.671  0.0857 -0.3414  0.5826
   20CHTO  H124 8221   4.635   3.282   0.676 -0.1823 -0.5957 -0.6285
   20CHTO   C65 8222   4.662   3.495   0.660  0.6160 -1.3420 -0.4699
   20CHTO  H122 8223   4.630   3.561   0.580  0.6827 -0.1606  0.4769
   20CHTO   O44 8224   4.789   3.443   0.627  0.1640  0.4051  0.7283
   20CHTO  H102 8225   4.839   3.511   0.587 -1.8097  1.8700  0.7001
   20CHTO   C63 8226   4.659   3.579   0.791  0.8200 -0.0878 -0.7650
   20CHTO  H120 8227   4.559   3.622   0.804  1.3378  0.2671  2.2637
   20CHTO   N11 8228   4.745   3.699   0.802 -0.3556 -0.1628 -0.2001
   20CHTO  H108 8229   4.708   3.759   0.721 -1.6203  0.5859  0.9048
   20CHTO  H109 8230   4.729   3.754   0.892  1.4296 -0.5523  0.3601
   20CHTO   C61 8231   4.676   3.480   0.913 -0.8354 -0.3320  0.9733
   20CHTO  H118 8232   4.674   3.544   1.003 -1.4035  1.9526 -0.6053
   20CHTO   O40 8233   4.556   3.392   0.915  0.3476  0.5718 -0.3218
   20CHTO   C68 8234   4.476   3.367   0.800 -0.9377  0.0128  0.5653
   20CHTO  H125 8235   4.395   3.443   0.798 -1.5294 -0.6123  0.8324
   20CHTO   C72 8236   4.406   3.236   0.817 -0.5697 -0.2725 -0.1634
   20CHTO   O48 8237   4.317   3.201   0.711  0.2212 -0.5127  0.4468
   20CHTO  H105 8238   4.243   3.258   0.702 -0.6948 -1.7310  0.0698
   20CHTO   O38 8239   4.798   3.415   0.909 -0.3446 -0.1080 -0.0862
   20CHTO   C55 8240   4.823   3.337   1.027  0.1073 -0.4215 -0.7382
   20CHTO  H112 8241   4.732   3.309   1.083 -1.2145  2.3156 -1.4307
   20CHTO   C56 8242   4.921   3.422   1.123  0.8769  0.1724  0.2088
   20CHTO  H113 8243   5.004   3.450   1.057  0.1273  1.5188 -0.1747
   20CHTO   O42 8244   4.861   3.544   1.175 -0.3694  0.5424 -0.3603
   20CHTO  H100 8245   4.810   3.542   1.254  1.5915  1.7610  0.9799
   20CHTO   C57 8246   4.964   3.329   1.241  0.0600 -0.7071 -0.1709
   20CHTO  H114 8247   4.878   3.325   1.308 -0.3324 -0.1967 -0.6407
   20CHTO   N10 8248   5.074   3.379   1.326 -0.4100  0.1634 -0.2370
   20CHTO  H106 8249   5.156   3.422   1.271 -2.0064  2.1105 -1.1379
   20CHTO  H107 8250   5.105   3.309   1.403 -1.8055  0.5329  0.6870
   20CHTO   C58 8251   4.994   3.180   1.193 -0.2807  0.5047  0.6883
   20CHTO  H115 8252   5.091   3.170   1.139 -1.1267  2.6055 -1.3298
   20CHTO   O37 8253   4.894   3.129   1.107 -0.1887 -0.0919 -0.7785
   20CHTO   C59 8254   4.890   3.205   0.984  0.3085 -0.4098 -0.2104
   20CHTO  H116 8255   4.983   3.222   0.931 -0.7542  2.6040 -1.2516
   20CHTO   C70 8256   4.803   3.117   0.894  0.3125  0.7470  0.0164
   20CHTO   O46 8257   4.666   3.096   0.922  0.1751 -0.5139 -0.2272
   20CHTO  H103 8258   4.663   3.025   0.983  1.4548 -1.1681 -0.9154
   20CHTO   O39 8259   4.995   3.078   1.315 -0.8047  0.9273 -0.3129
   20CHTO   C60 8260   5.059   2.945   1.301 -0.0178 -0.3957  0.5917
   20CHTO  H117 8261   5.060   2.898   1.202 -2.3424 -2.0793  1.3162
   20CHTO   C62 8262   5.218   2.965   1.322  0.2419  0.4373 -0.3491
   20CHTO  H119 8263   5.256   3.010   1.228 -1.7931  0.8127 -1.0349
   20CHTO   O43 8264   5.255   3.045   1.434  0.1830 -0.4991  0.0453
   20CHTO  H101 8265   5.239   2.999   1.515 -1.1892 -0.0707  0.0397
   20CHTO   C66 8266   5.286   2.814   1.325 -0.6120 -0.4436 -0.3053
   20CHTO  H123 8267   5.261   2.772   1.227 -0.9608 -1.1476  0.0834
   20CHTO   N12 8268   5.433   2.807   1.325  0.1805  0.3351 -0.4991
   20CHTO  H110 8269   5.468   2.705   1.331  1.1705  0.6216 -1.2165
   20CHTO  H111 8270   5.470   2.871   1.403  0.7951  0.2161 -0.6919
   20CHTO   C69 8271   5.216   2.727   1.432  0.1536 -0.6031  0.1983
   20CHTO  H126 8272   5.242   2.769   1.531  1.4900  0.2127 -0.4780
   20CHTO   O41 8273   5.069   2.732   1.406 -0.5009  0.7444  0.4846
   20CHTO   C64 8274   5.001   2.844   1.400 -0.0472 -0.3735  0.3342
   20CHTO  H121 8275   4.987   2.893   1.498  0.3190  0.8585 -0.2275
   20CHTO   C71 8276   4.861   2.821   1.347  0.8289  0.4106  0.5861
   20CHTO   O47 8277   4.846   2.750   1.219 -0.1267  0.1303 -0.7202
   20CHTO  H104 8278   4.763   2.775   1.183  0.8469  1.9813 -1.7552
   20CHTO   O34 8279   5.277   2.588   1.446  0.4635  0.4371  0.0724
   20CHTO   C49 8280   5.208   2.433   1.432 -0.3728  1.7683  0.3040
   20CHTO   H91 8281   5.147   2.431   1.341  0.3624 -2.1294 -0.2247
   20CHTO   C47 8282   5.107   2.399   1.546  0.4949  0.5434  0.3327
   20CHTO   H89 8283   5.005   2.419   1.506  0.3637 -0.9570 -0.0964
   20CHTO   O33 8284   5.132   2.495   1.651 -0.0097  0.2094 -0.0249
   20CHTO   H70 8285   5.101   2.454   1.729  0.8220 -0.0787  0.1631
   20CHTO   C45 8286   5.112   2.244   1.587 -0.3065  0.5454 -0.2969
   20CHTO   H87 8287   5.203   2.236   1.649 -0.6753 -3.2429 -0.1028
   20CHTO    N8 8288   4.991   2.207   1.668 -0.1637  0.4456 -0.5572
   20CHTO   H75 8289   5.029   2.188   1.768 -1.8250 -1.8348 -0.3105
   20CHTO   H76 8290   4.927   2.294   1.669  0.6947  1.0888  0.0469
   20CHTO   C43 8291   5.138   2.154   1.464  0.7701 -0.2503  0.9140
   20CHTO   H85 8292   5.138   2.054   1.507 -3.1022 -0.1646  1.3241
   20CHTO   O29 8293   5.266   2.189   1.416 -0.5992 -0.2264  0.2179
   20CHTO   C50 8294   5.315   2.323   1.414 -0.4382 -0.8621 -0.2770
   20CHTO   H92 8295   5.388   2.339   1.496  0.6508  1.5837 -1.6525
   20CHTO   C54 8296   5.399   2.345   1.290  0.4399 -0.2090 -0.0902
   20CHTO   O36 8297   5.518   2.279   1.305  0.7607  0.2256 -0.7581
   20CHTO   H72 8298   5.581   2.300   1.238  1.0892  0.2319 -0.4460
   20CHTO   O27 8299   5.041   2.154   1.356 -0.2490 -0.3837 -0.0176
   20CHTO   C37 8300   4.966   2.093   1.249  0.2597  0.6092 -0.1477
   20CHTO   H79 8301   4.872   2.050   1.287  0.0023  0.0536 -1.4177
   20CHTO   C38 8302   4.928   2.204   1.142 -0.1430 -0.7255  1.0183
   20CHTO   H80 8303   5.019   2.258   1.110 -0.9071 -1.6349 -2.9103
   20CHTO   O31 8304   4.857   2.308   1.213  0.1603  0.3273  0.0291
   20CHTO   H68 8305   4.924   2.353   1.261  0.2011 -0.1870  0.4532
   20CHTO   C39 8306   4.854   2.150   1.016  0.0728 -0.2765  0.2053
   20CHTO   H81 8307   4.759   2.112   1.052 -1.3900  0.2633 -2.9671
   20CHTO    N7 8308   4.832   2.257   0.910  0.2388  0.3263  0.1709
   20CHTO   H73 8309   4.824   2.214   0.812  1.1902 -0.4640  0.4220
   20CHTO   H74 8310   4.902   2.337   0.925 -0.9771  1.3988  0.1899
   20CHTO   C40 8311   4.937   2.023   0.958  0.4879 -0.2513  0.2277
   20CHTO   H82 8312   5.019   2.082   0.916 -0.6118  0.3787 -1.0935
   20CHTO   O26 8313   4.986   1.926   1.055 -0.7458  0.0446 -0.4003
   20CHTO   C41 8314   5.047   1.981   1.175 -0.3679 -0.0154 -0.0927
   20CHTO   H83 8315   5.141   2.027   1.141 -1.0417  2.0768  0.8041
   20CHTO   C52 8316   5.084   1.859   1.260  0.1767 -0.3617  0.0758
   20CHTO   O35 8317   5.183   1.783   1.219  0.4657 -0.4500  0.0785
   20CHTO   H71 8318   5.237   1.773   1.295  0.4735  1.5410  0.3512
   20CHTO   O28 8319   4.863   1.959   0.855  0.1279 -0.2363  0.1935
   20CHTO   C42 8320   4.910   1.845   0.770  0.7039 -0.4057 -0.0738
   20CHTO   H84 8321   4.826   1.827   0.703  2.5314  1.0242 -2.8401
   20CHTO   C44 8322   4.935   1.709   0.853  0.6667 -0.2375  0.5383
   20CHTO   H86 8323   5.006   1.724   0.935 -0.0823  2.1327  0.8003
   20CHTO   O32 8324   4.810   1.674   0.915  0.6472 -0.1702 -0.4036
   20CHTO   H69 8325   4.738   1.664   0.856 -0.0907 -1.9094  0.7750
   20CHTO   C48 8326   4.989   1.594   0.755  0.0104  0.1257 -0.6328
   20CHTO   H90 8327   4.900   1.564   0.698 -1.0738  0.3929  0.8842
   20CHTO    N9 8328   5.036   1.473   0.831  0.0627  0.3224  0.3362
   20CHTO   H77 8329   5.093   1.403   0.771 -0.3514 -1.9354  2.4725
   20CHTO   H78 8330   5.104   1.511   0.906  0.0247  1.6218 -0.2861
   20CHTO   C51 8331   5.106   1.648   0.670  0.8594  0.1416 -0.4653
   20CHTO   H93 8332   5.201   1.662   0.721  1.3714  0.2531 -1.4429
   20CHTO   O30 8333   5.059   1.764   0.590  0.1036  0.3173 -0.2440
   20CHTO   C46 8334   5.032   1.873   0.683 -0.5601 -0.1941 -0.1075
   20CHTO   H88 8335   5.125   1.887   0.739 -0.4783  1.5243 -0.6230
   20CHTO   C53 8336   5.005   1.995   0.590  0.2622 -0.3798  1.1754
   20CHTO   O72 8337   5.109   2.005   0.486 -0.1251 -0.3130  0.1822
   20CHTO  H199 8338   5.083   1.938   0.426  0.1646 -4.1394  4.0923
   20CHTO   O22 8339   5.136   1.550   0.568 -0.8158 -0.3379 -0.1460
   20CHTO   C31 8340   5.269   1.512   0.518 -0.8320  0.4158 -0.1746
   20CHTO   H59 8341   5.253   1.460   0.421  2.3422 -3.2260  1.0938
   20CHTO   C29 8342   5.352   1.639   0.489  0.4498  0.4500 -0.5730
   20CHTO   H57 8343   5.335   1.716   0.566  0.1181  0.5885 -0.7813
   20CHTO   O21 8344   5.301   1.715   0.378 -0.2781  0.6051  0.4122
   20CHTO   H37 8345   5.271   1.653   0.315 -0.0207  1.5279 -0.6268
   20CHTO   C27 8346   5.510   1.613   0.483  0.1134  0.0396  0.2220
   20CHTO   H55 8347   5.531   1.553   0.393 -0.7012 -0.5503  0.4311
   20CHTO    N5 8348   5.589   1.744   0.484  0.4468  0.8023  0.1818
   20CHTO   H43 8349   5.536   1.812   0.550 -3.4471 -1.6259 -0.2535
   20CHTO   H44 8350   5.599   1.793   0.388 -0.6405  2.1855  0.7420
   20CHTO   C25 8351   5.568   1.529   0.606  0.9087  0.0887  0.6144
   20CHTO   H53 8352   5.557   1.572   0.706  1.9086  1.6460  0.0580
   20CHTO   O17 8353   5.490   1.409   0.585  0.1008 -0.0872 -0.3920
   20CHTO   C32 8354   5.350   1.415   0.610 -0.2627  0.0017  0.1141
   20CHTO   H60 8355   5.337   1.446   0.714  1.3734 -2.0524  0.9929
   20CHTO   C36 8356   5.306   1.266   0.612 -0.1010 -0.4588  0.1890
   20CHTO   O25 8357   5.303   1.195   0.492  0.7337  0.5159 -0.0404
   20CHTO   H40 8358   5.221   1.211   0.450 -0.9086 -1.0093  2.4328
   20CHTO   O15 8359   5.732   1.492   0.585 -0.1061 -0.6267 -0.0500
   20CHTO   C19 8360   5.859   1.550   0.597  0.1204  0.4787 -1.1522
   20CHTO   H47 8361   5.857   1.643   0.537  0.5473 -0.1670 -2.1798
   20CHTO   C20 8362   5.897   1.599   0.743  0.0041 -0.1286  0.1750
   20CHTO   H48 8363   5.920   1.519   0.815  3.2309  1.0793  0.5928
   20CHTO   O19 8364   5.789   1.678   0.800  0.4646 -0.1795  0.3163
   20CHTO   H35 8365   5.723   1.613   0.813  4.0754 -3.9630  0.5524
   20CHTO   C21 8366   6.021   1.698   0.719 -0.0998  0.2601  0.0016
   20CHTO   H49 8367   5.993   1.779   0.652 -0.8650 -0.9371 -1.1386
   20CHTO    N4 8368   6.070   1.747   0.846 -0.1167  0.0915 -0.1304
   20CHTO   H41 8369   6.014   1.709   0.930 -1.1142  0.4947 -0.5979
   20CHTO   H42 8370   6.086   1.852   0.862 -0.2903  0.6713 -3.3509
   20CHTO   C22 8371   6.134   1.627   0.636  1.2120 -0.0061 -0.1735
   20CHTO   H50 8372   6.178   1.554   0.704  0.0799 -0.0608  0.5270
   20CHTO   O14 8373   6.083   1.565   0.517  0.7012  0.2834 -0.5673
   20CHTO   C23 8374   5.978   1.467   0.538  0.5539 -0.4694  0.1229
   20CHTO   H51 8375   6.016   1.394   0.611 -2.0326 -1.8499  0.1579
   20CHTO   C34 8376   5.945   1.397   0.405 -0.7269 -0.5635 -0.3247
   20CHTO   O23 8377   5.931   1.494   0.304 -0.4601 -0.4787 -0.2763
   20CHTO   H38 8378   5.856   1.548   0.318 -2.1453 -2.6654 -0.4950
   20CHTO   O16 8379   6.228   1.731   0.588 -0.4274  0.4558 -0.2660
   20CHTO   C24 8380   6.374   1.659   0.608  0.4227  0.2825 -0.3716
   20CHTO   H52 8381   6.366   1.566   0.663 -0.9598 -0.6279 -2.0535
   20CHTO   C26 8382   6.473   1.753   0.676 -0.2267 -1.6969  0.1475
   20CHTO   H54 8383   6.474   1.849   0.620  1.1123 -1.0266  1.2863
   20CHTO   O20 8384   6.429   1.787   0.804 -0.2629 -0.2613  0.2352
   20CHTO   H36 8385   6.500   1.817   0.857 -0.9763  0.5446  0.7500
   20CHTO   C30 8386   6.616   1.689   0.680 -0.4345  0.6400 -0.6276
   20CHTO   H58 8387   6.644   1.661   0.782 -0.3154  0.0901 -0.8051
   20CHTO    N6 8388   6.726   1.788   0.659  0.2759 -0.3658 -0.1344
   20CHTO   H45 8389   6.727   1.827   0.559 -0.1442 -1.5457 -0.6123
   20CHTO   H46 8390   6.819   1.734   0.672  0.0885 -0.0654  2.8689
   20CHTO   C33 8391   6.634   1.568   0.582 -0.5193 -0.7243  0.3942
   20CHTO   H61 8392   6.740   1.548   0.560  0.3544  1.8244  2.1027
   20CHTO   O18 8393   6.565   1.594   0.457  0.4310 -0.0927 -0.3099
   20CHTO   C28 8394   6.422   1.620   0.459 -0.2704  0.1615 -0.1004
   20CHTO   H56 8395   6.406   1.709   0.399 -1.0496  1.3219  1.7637
   20CHTO   C35 8396   6.352   1.492   0.407  0.3424  0.6193  0.8184
   20CHTO   O24 8397   6.387   1.469   0.273 -0.6698 -0.0439 -0.1232
   20CHTO   H39 8398   6.468   1.421   0.275  0.5067  1.9122 -0.3685
   20CHTO    O9 8399   6.582   1.447   0.646  0.5368  0.1779  0.2329
   20CHTO   C13 8400   6.687   1.316   0.671 -0.5735  0.1148  0.1075
   20CHTO   H26 8401   6.779   1.339   0.728 -0.7191 -0.2490  0.4886
   20CHTO   C11 8402   6.725   1.263   0.518 -0.0628  0.3958  0.0747
   20CHTO   H24 8403   6.785   1.344   0.476  0.9908  0.2279  1.2294
   20CHTO    O8 8404   6.605   1.249   0.435 -0.3191 -0.0003 -0.6006
   20CHTO    H3 8405   6.548   1.189   0.479 -1.2492  0.7409 -0.7667
   20CHTO    C9 8406   6.800   1.129   0.529 -0.0939 -0.4674  0.0118
   20CHTO   H22 8407   6.866   1.140   0.615 -1.8042 -0.4299  1.3499
   20CHTO    N2 8408   6.888   1.098   0.412 -0.0099 -0.0242 -0.0101
   20CHTO   H10 8409   6.963   1.031   0.452  0.8468 -0.9289 -3.0188
   20CHTO   H11 8410   6.916   1.188   0.359 -0.8122 -0.0162 -0.4278
   20CHTO    C7 8411   6.688   1.020   0.571 -0.1864 -0.1269 -0.6997
   20CHTO   H20 8412   6.747   0.941   0.621 -1.6643  0.1725  1.5491
   20CHTO    O4 8413   6.593   1.075   0.666  0.2992  0.0118 -0.2812
   20CHTO   C14 8414   6.621   1.195   0.742  0.3671  0.1347 -0.1149
   20CHTO   H27 8415   6.688   1.164   0.824 -0.9512 -1.1780  0.4983
   20CHTO   C18 8416   6.483   1.240   0.809 -0.0451 -0.3964 -0.2449
   20CHTO   O13 8417   6.398   1.259   0.700 -0.1370 -0.3455 -0.2562
   20CHTO    H7 8418   6.311   1.242   0.731 -1.4885  2.0683 -2.5185
   20CHTO    O2 8419   6.599   0.954   0.439  0.2594  0.0701 -0.3131
   20CHTO    C1 8420   6.522   0.838   0.485  0.0833  0.0920 -0.2561
   20CHTO   H14 8421   6.536   0.815   0.593  1.3644 -2.7130 -0.9728
   20CHTO    C2 8422   6.564   0.714   0.408  0.1452  0.4216 -0.6104
   20CHTO   H15 8423   6.554   0.731   0.300  0.7382 -1.0563 -0.9138
   20CHTO    O6 8424   6.703   0.689   0.430 -0.0236  0.6585 -0.0298
   20CHTO    H1 8425   6.757   0.740   0.373  1.7589 -0.6664  0.4264
   20CHTO    C3 8426   6.474   0.581   0.445 -0.0089 -0.0608  0.7023
   20CHTO   H16 8427   6.507   0.551   0.545  4.3107  0.3806 -0.5096
   20CHTO    N1 8428   6.502   0.468   0.355 -0.8563  0.3775  0.0376
   20CHTO    H8 8429   6.584   0.487   0.288  0.6325  0.0298  1.7280
   20CHTO    H9 8430   6.505   0.373   0.406 -0.5667 -1.2251 -2.8299
   20CHTO    C4 8431   6.320   0.610   0.446  0.2003 -0.5067  0.2413
   20CHTO   H17 8432   6.285   0.624   0.344 -1.1023  1.9043  0.9804
   20CHTO    O1 8433   6.293   0.735   0.502 -0.3952 -0.2934 -0.3094
   20CHTO    C5 8434   6.373   0.849   0.452 -0.3192 -0.0092  0.3688
   20CHTO   H18 8435   6.364   0.836   0.344 -0.0763 -0.6581  0.4236
   20CHTO   C16 8436   6.311   0.992   0.487  0.2632 -0.2338 -0.1635
   20CHTO   O11 8437   6.356   1.115   0.435  0.0642  0.4334  0.3093
   20CHTO    H5 8438   6.334   1.116   0.344  0.0841  0.2568  0.3033
   20CHTO    O3 8439   6.253   0.524   0.533  0.0431  0.0793  0.3632
   20CHTO    C6 8440   6.138   0.450   0.476 -0.7856 -0.0478 -0.3081
   20CHTO   H19 8441   6.128   0.453   0.367 -0.3025 -1.4662 -0.4024
   20CHTO    C8 8442   6.156   0.296   0.500  0.9427  0.0980  0.7011
   20CHTO   H21 8443   6.181   0.278   0.604  2.0705 -0.3753  0.3622
   20CHTO    O7 8444   6.272   0.258   0.421  0.0530 -0.5550 -0.0545
   20CHTO    H2 8445   6.340   0.320   0.438  0.0469 -0.7514  0.6829
   20CHTO   C12 8446   6.022   0.211   0.468  1.4335  0.0830 -0.2380
   20CHTO   H25 8447   6.002   0.224   0.359  1.2082 -1.3938 -0.3747
   20CHTO    N3 8448   6.044   0.071   0.492  0.7492 -0.3458  0.8033
   20CHTO   H12 8449   6.113   0.054   0.574  1.3518  0.7604  0.5336
   20CHTO   H13 8450   5.949   0.021   0.502  0.3258  0.1010 -0.8852
   20CHTO   C15 8451   5.907   0.276   0.553  0.0870  1.0843  0.1680
   20CHTO   H28 8452   5.919   0.248   0.658 -0.4601 -3.5223 -0.8600
   20CHTO   O10 8453   5.773   0.222   0.527  0.1195 -0.9419 -0.2466
   20CHTO    H4 8454   5.745   0.160   0.592 -0.7432  1.3458  1.6205
   20CHTO    O5 8455   5.890   0.415   0.510 -0.5197  0.0993  0.2725
   20CHTO   C10 8456   6.003   0.500   0.540 -0.2234  0.3920  0.4837
   20CHTO   H23 8457   6.011   0.501   0.648 -0.1110 -1.0437  0.4955
   20CHTO   C17 8458   5.962   0.643   0.493 -0.1675 -0.5270  0.3284
   20CHTO   O12 8459   5.844   0.691   0.559 -0.7036 -0.5905  0.3025
   20CHTO    H6 8460   5.858   0.677   0.651  2.9814 -1.7143 -0.3394
   21GLOH   H03 8461   3.369   9.920   1.578 -0.3795 -0.6251 -1.6526
   21GLOH    O1 8462   3.275   9.912   1.602 -0.0119 -0.0731  0.0999
   21GLOH    C1 8463   3.235   9.782   1.645  0.1411  1.0683  0.1958
   21GLOH   H02 8464   3.152   9.752   1.581 -1.0309 -1.8647  2.9441
   21GLOH   H08 8465   3.189   9.793   1.743 -0.2782 -0.9605  0.2398
   21GLOH    C2 8466   3.347   9.686   1.663  0.2690  0.8092 -0.2013
   21GLOH   H04 8467   3.386   9.654   1.565 -0.9682 -2.1840  0.2395
   21GLOH    O2 8468   3.454   9.739   1.732 -0.3034  0.4702  0.3663
   21GLOH   H05 8469   3.501   9.805   1.677  1.3395 -1.4463 -0.5750
   21GLOH    C3 8470   3.294   9.559   1.729  0.5337 -0.3059 -0.3949
   21GLOH   H06 8471   3.213   9.528   1.663  1.0808 -0.5390 -0.9551
   21GLOH   H07 8472   3.257   9.576   1.831  1.9667 -1.1454  0.2794
   21GLOH    O3 8473   3.389   9.454   1.728  0.8547 -0.8512 -0.1797
   21GLOH   H01 8474   3.452   9.479   1.798 -0.2059  1.7475 -0.0838
   22GLOH   H03 8475   3.024   9.126   1.800 -0.5994  1.5390 -0.0638
   22GLOH    O1 8476   2.997   9.101   1.710 -0.0201  0.1431  0.1348
   22GLOH    C1 8477   2.923   9.214   1.656 -0.5021 -0.0661 -0.1552
   22GLOH   H02 8478   2.836   9.223   1.722 -0.5512 -0.9839 -0.0923
   22GLOH   H08 8479   2.886   9.199   1.555  1.6177  2.0725 -1.3042
   22GLOH    C2 8480   3.020   9.340   1.657 -0.0603  0.2729  0.2625
   22GLOH   H04 8481   3.087   9.337   1.744  0.1618 -1.6218  0.0605
   22GLOH    O2 8482   3.108   9.349   1.542  0.5100 -0.1397  0.2988
   22GLOH   H05 8483   3.155   9.266   1.523 -1.3877 -0.5184 -3.4004
   22GLOH    C3 8484   2.939   9.467   1.655  0.6180 -0.5575 -0.1676
   22GLOH   H06 8485   2.878   9.459   1.565 -1.0480 -0.7507  0.9581
   22GLOH   H07 8486   3.005   9.553   1.647 -0.6133  0.3473 -0.9548
   22GLOH    O3 8487   2.857   9.488   1.766 -0.4214  0.3336  0.3461
   22GLOH   H01 8488   2.920   9.504   1.839 -2.0203  0.9311  1.6152
   23GLOH   H03 8489   3.542   9.108   1.926  1.7967 -0.6965  1.3562
   23GLOH    O1 8490   3.460   9.098   1.978  0.5053 -0.0039 -0.4914
   23GLOH    C1 8491   3.490   9.040   2.104  0.7304 -0.1173  0.1366
   23GLOH   H02 8492   3.533   8.941   2.086 -2.7269 -1.3629 -1.7199
   23GLOH   H08 8493   3.404   9.027   2.170  1.6919 -1.8532  1.0774
   23GLOH    C2 8494   3.593   9.105   2.201 -0.0598  0.6958 -0.1068
   23GLOH   H04 8495   3.632   9.033   2.275  1.1729  0.6270 -0.8068
   23GLOH    O2 8496   3.716   9.139   2.130 -0.1363  0.2319  0.0677
   23GLOH   H05 8497   3.734   9.083   2.053  0.0442  0.5396 -0.1156
   23GLOH    C3 8498   3.535   9.225   2.265  0.4733  0.0042 -0.9567
   23GLOH   H06 8499   3.505   9.299   2.190  3.1005  1.4058 -0.6811
   23GLOH   H07 8500   3.616   9.278   2.316  0.9222 -1.0307 -0.5929
   23GLOH    O3 8501   3.432   9.192   2.350 -0.1739  0.2579 -0.0778
   23GLOH   H01 8502   3.430   9.264   2.417  0.5876 -1.1205  1.4575
   24GLOH   H03 8503   4.623   1.290   1.453  1.6439 -0.5854 -0.6105
   24GLOH    O1 8504   4.654   1.382   1.438 -0.0070  0.1278  0.2223
   24GLOH    C1 8505   4.593   1.436   1.322 -0.6051  0.7577 -0.5615
   24GLOH   H02 8506   4.554   1.537   1.336  0.7999  1.3670 -1.0013
   24GLOH   H08 8507   4.507   1.375   1.293 -0.8241  0.6202  0.3607
   24GLOH    C2 8508   4.683   1.445   1.196 -0.4234  0.3429  0.1960
   24GLOH   H04 8509   4.710   1.338   1.187 -2.0798 -0.0763  0.0192
   24GLOH    O2 8510   4.600   1.488   1.087  0.3842 -0.7505  0.2746
   24GLOH   H05 8511   4.611   1.584   1.077  1.7995 -0.7051  2.0174
   24GLOH    C3 8512   4.806   1.524   1.236  0.6458 -0.4380  0.2042
   24GLOH   H06 8513   4.871   1.540   1.150 -1.4808 -1.5785 -1.6562
   24GLOH   H07 8514   4.865   1.458   1.299  1.0738 -0.8238 -0.5907
   24GLOH    O3 8515   4.767   1.642   1.302  0.3875  0.5964  0.0195
   24GLOH   H01 8516   4.819   1.667   1.380  1.9362  0.7290 -1.0261
   25GLOH   H03 8517   4.096   3.907   2.050 -1.0574  1.9502  0.0352
   25GLOH    O1 8518   4.059   3.896   1.961 -0.2511 -0.3282 -0.0439
   25GLOH    C1 8519   4.152   3.921   1.857 -0.1943  0.5692  0.1127
   25GLOH   H02 8520   4.243   3.966   1.897  0.3201  0.4475 -0.9049
   25GLOH   H08 8521   4.115   3.986   1.777 -0.8460  0.8761  0.6593
   25GLOH    C2 8522   4.191   3.786   1.785 -0.5128  0.1796 -0.1605
   25GLOH   H04 8523   4.235   3.716   1.858 -0.6655  0.0449 -0.1983
   25GLOH    O2 8524   4.083   3.722   1.720 -0.2034  0.3338 -0.1983
   25GLOH   H05 8525   4.084   3.702   1.625 -0.4384 -0.4396 -0.0379
   25GLOH    C3 8526   4.286   3.811   1.675  0.0597 -0.3723  0.6268
   25GLOH   H06 8527   4.241   3.867   1.592  0.4696 -0.6678  0.2005
   25GLOH   H07 8528   4.325   3.714   1.645  2.2522 -0.0989  2.4158
   25GLOH    O3 8529   4.398   3.889   1.719  0.0885  0.2755  0.3621
   25GLOH   H01 8530   4.409   3.964   1.658  2.1395  0.0391  0.4048
   26GLOH   H03 8531   4.280   1.851   2.609 -1.3500 -2.4059 -1.8943
   26GLOH    O1 8532   4.263   1.922   2.545 -0.0549  0.0271  0.3335
   26GLOH    C1 8533   4.120   1.926   2.519 -0.1343  0.1049 -0.8766
   26GLOH   H02 8534   4.076   1.992   2.594 -1.5989 -1.0989 -0.6602
   26GLOH   H08 8535   4.073   1.828   2.526 -0.7297  0.2618 -2.6693
   26GLOH    C2 8536   4.084   1.973   2.380 -0.1620 -0.6346  0.1878
   26GLOH   H04 8537   4.134   1.907   2.308  2.6537  1.9473 -0.3273
   26GLOH    O2 8538   3.950   1.967   2.362  0.1415  0.6525  0.1738
   26GLOH   H05 8539   3.903   1.994   2.443  1.2619  3.6025 -0.0836
   26GLOH    C3 8540   4.132   2.118   2.355  0.4960 -0.5387  0.1938
   26GLOH   H06 8541   4.061   2.185   2.406  2.4237  1.3883  0.4103
   26GLOH   H07 8542   4.125   2.143   2.249  0.0781  0.1906  0.3911
   26GLOH    O3 8543   4.270   2.139   2.396 -0.3947  0.2530 -0.1998
   26GLOH   H01 8544   4.287   2.070   2.463 -0.3759  1.1747  0.7715
   27GLOH   H03 8545   3.712   1.987   1.722  0.2897  0.4854  1.1046
   27GLOH    O1 8546   3.615   1.980   1.722  0.2975  0.2863  0.2067
   27GLOH    C1 8547   3.571   1.935   1.588 -0.8835  0.7452 -0.1877
   27GLOH   H02 8548   3.626   1.984   1.508  0.4525  2.8147  1.9588
   27GLOH   H08 8549   3.465   1.957   1.574 -1.0003  1.7062  2.0406
   27GLOH    C2 8550   3.591   1.779   1.580  0.4929 -0.2282 -0.3067
   27GLOH   H04 8551   3.536   1.744   1.491 -2.9402 -0.8714  1.9594
   27GLOH    O2 8552   3.729   1.743   1.560 -0.3119  0.2311  0.1888
   27GLOH   H05 8553   3.749   1.765   1.468 -0.6708 -0.7133 -0.1282
   27GLOH    C3 8554   3.514   1.718   1.696 -0.2008  0.1298  0.6017
   27GLOH   H06 8555   3.566   1.737   1.790  1.0854  0.5989 -0.2033
   27GLOH   H07 8556   3.522   1.611   1.677 -1.9063  0.6744 -3.7692
   27GLOH    O3 8557   3.380   1.765   1.715  0.0285 -0.7290 -0.0238
   27GLOH   H01 8558   3.348   1.722   1.796 -0.7219 -2.2752 -1.1115
   28GLOH   H03 8559   2.700   0.508   1.836 -0.2457  1.4101  0.0691
   28GLOH    O1 8560   2.724   0.502   1.930 -0.5949  0.1694  0.0948
   28GLOH    C1 8561   2.779   0.625   1.968  0.5295  0.3259  0.4217
   28GLOH   H02 8562   2.888   0.626   1.965  0.5049  3.5298 -1.9172
   28GLOH   H08 8563   2.762   0.639   2.075 -2.0745  0.1770  0.0523
   28GLOH    C2 8564   2.716   0.747   1.903 -0.1999 -0.1695  0.2053
   28GLOH   H04 8565   2.606   0.739   1.906 -0.0980 -1.5162  0.6865
   28GLOH    O2 8566   2.755   0.866   1.969  0.4754  0.3824 -0.2529
   28GLOH   H05 8567   2.687   0.935   1.961  0.7234  0.7333  0.5801
   28GLOH    C3 8568   2.757   0.745   1.752  0.4443  0.1639 -0.6562
   28GLOH   H06 8569   2.865   0.764   1.746 -0.1155  3.5744 -0.8103
   28GLOH   H07 8570   2.715   0.828   1.697 -0.1556 -1.1811 -2.2784
   28GLOH    O3 8571   2.711   0.625   1.684 -0.4571 -0.3738 -0.1602
   28GLOH   H01 8572   2.765   0.621   1.603  1.0105  2.3133  0.6500
   29GLOH   H03 8573   3.889   9.083   1.300  1.3638 -0.2548 -0.5062
   29GLOH    O1 8574   3.908   9.120   1.388 -0.4730 -0.4460 -0.0117
   29GLOH    C1 8575   3.795   9.129   1.472 -0.1772 -0.1509  0.2032
   29GLOH   H02 8576   3.793   9.045   1.542 -2.8922  0.5660  1.0304
   29GLOH   H08 8577   3.704   9.124   1.414 -0.0148  1.1494 -0.1791
   29GLOH    C2 8578   3.791   9.251   1.562  0.5298  0.4125  0.9581
   29GLOH   H04 8579   3.798   9.339   1.497  2.3022 -0.5725 -0.2409
   29GLOH    O2 8580   3.665   9.270   1.629 -0.4185  0.1957  0.1981
   29GLOH   H05 8581   3.614   9.337   1.581 -1.7169 -2.0283 -1.6402
   29GLOH    C3 8582   3.914   9.250   1.658  0.6397 -0.1109  0.0771
   29GLOH   H06 8583   3.887   9.169   1.725 -1.1280 -0.7862 -1.4005
   29GLOH   H07 8584   3.911   9.337   1.724 -1.0015 -1.2192  1.5216
   29GLOH    O3 8585   4.045   9.228   1.592  0.0358 -0.3220 -0.0100
   29GLOH   H01 8586   4.025   9.167   1.518  2.1965  0.7423 -1.5052
   30GLOH   H03 8587   3.777   4.255   2.423 -0.2443 -0.0108 -0.5540
   30GLOH    O1 8588   3.868   4.220   2.418 -0.1435  0.2196 -0.3219
   30GLOH    C1 8589   3.913   4.203   2.553  0.0557 -0.0681 -0.3192
   30GLOH   H02 8590   3.844   4.142   2.612  0.6428 -0.6506 -0.2274
   30GLOH   H08 8591   3.926   4.295   2.609  1.2552 -1.5469  1.9226
   30GLOH    C2 8592   4.042   4.117   2.562 -0.7251  0.6256  0.0034
   30GLOH   H04 8593   4.115   4.184   2.513 -1.5377  0.3448 -1.6570
   30GLOH    O2 8594   4.063   4.086   2.697  0.1353 -0.0402 -0.0274
   30GLOH   H05 8595   4.128   4.015   2.705  1.3247  1.1113  0.6711
   30GLOH    C3 8596   4.026   3.985   2.486 -0.6451 -0.7699  0.1965
   30GLOH   H06 8597   3.941   3.931   2.527  0.1175 -2.4571 -0.3735
   30GLOH   H07 8598   4.116   3.923   2.497  1.4235  1.9204 -1.0419
   30GLOH    O3 8599   4.014   4.023   2.346 -0.1801  0.0384  0.4986
   30GLOH   H01 8600   3.961   4.103   2.360 -1.3222 -0.3076 -1.7008
   31GLOH   H03 8601   2.523   1.099   1.899  0.3269  1.6340  1.2928
   31GLOH    O1 8602   2.563   1.049   1.972  0.3621 -0.0770  0.1399
   31GLOH    C1 8603   2.529   1.103   2.095  0.2573 -0.0994 -0.8040
   31GLOH   H02 8604   2.456   1.033   2.136  1.7977 -2.0511 -1.3511
   31GLOH   H08 8605   2.470   1.193   2.078 -1.0284 -0.3857  1.8639
   31GLOH    C2 8606   2.645   1.129   2.189  0.1014  0.2521 -0.5599
   31GLOH   H04 8607   2.675   1.034   2.235 -1.8655  0.0214  0.3071
   31GLOH    O2 8608   2.762   1.178   2.122  0.0646 -0.4144 -0.7897
   31GLOH   H05 8609   2.730   1.203   2.033 -3.0057  0.3519  0.4890
   31GLOH    C3 8610   2.587   1.226   2.291 -0.1182 -0.0489 -0.8282
   31GLOH   H06 8611   2.570   1.323   2.244 -0.2130  1.5164  2.2775
   31GLOH   H07 8612   2.669   1.249   2.360 -1.0372 -1.8033  0.9087
   31GLOH    O3 8613   2.483   1.167   2.375 -0.0117 -0.3198 -0.6915
   31GLOH   H01 8614   2.532   1.114   2.440  1.0167  0.5383 -0.7468
   32GLOH   H03 8615   4.180   1.522   0.896  0.9437 -2.1675 -1.5784
   32GLOH    O1 8616   4.242   1.582   0.851 -0.0089  0.3757  0.3245
   32GLOH    C1 8617   4.370   1.525   0.885  0.1649  0.1801 -0.3464
   32GLOH   H02 8618   4.361   1.487   0.987  1.8936 -0.0348 -0.2526
   32GLOH   H08 8619   4.448   1.601   0.879 -0.0252  0.3771 -0.3144
   32GLOH    C2 8620   4.406   1.398   0.799 -0.2697 -0.0991 -0.2216
   32GLOH   H04 8621   4.325   1.324   0.813  0.2702 -0.4083  1.3905
   32GLOH    O2 8622   4.416   1.431   0.664  0.1217 -0.9177  0.1774
   32GLOH   H05 8623   4.327   1.453   0.632  0.4731 -0.3050 -0.4017
   32GLOH    C3 8624   4.535   1.326   0.848  0.3033 -0.0566  0.5040
   32GLOH   H06 8625   4.625   1.387   0.840  2.2351 -2.6608  1.7918
   32GLOH   H07 8626   4.553   1.242   0.781  2.7857 -1.1815  2.5098
   32GLOH    O3 8627   4.522   1.261   0.975  0.2485 -0.2970  0.0114
   32GLOH   H01 8628   4.518   1.337   1.036  0.7806 -0.7505  0.6234
   33GLOH   H03 8629   3.953   1.053   1.472  1.5806  1.0601  0.6113
   33GLOH    O1 8630   3.982   1.054   1.379 -0.3154 -1.1711 -0.0450
   33GLOH    C1 8631   3.996   0.914   1.344  0.5575 -0.0687  0.1983
   33GLOH   H02 8632   3.907   0.860   1.377  0.3948 -0.3617 -0.7116
   33GLOH   H08 8633   4.080   0.864   1.393  0.6815  0.5573  0.6290
   33GLOH    C2 8634   4.013   0.894   1.191  0.1838 -0.2549 -0.5432
   33GLOH   H04 8635   4.107   0.944   1.165  0.2172 -0.7305 -1.3394
   33GLOH    O2 8636   4.015   0.757   1.141  0.3349 -0.1169  0.1574
   33GLOH   H05 8637   3.951   0.702   1.189  1.3290 -0.0034  1.6473
   33GLOH    C3 8638   3.887   0.967   1.133 -0.7087  0.9713 -0.0433
   33GLOH   H06 8639   3.798   0.924   1.179 -0.7599  1.4918  0.3437
   33GLOH   H07 8640   3.888   0.947   1.025  2.5282 -0.9306  0.2864
   33GLOH    O3 8641   3.902   1.117   1.147  0.1878 -0.5915 -0.1337
   33GLOH   H01 8642   3.933   1.126   1.239  1.4155 -1.2200 -0.4708
   34GLOH   H03 8643   3.823   3.389   0.436 -1.6502 -0.5792 -0.0299
   34GLOH    O1 8644   3.835   3.367   0.342 -0.5551 -0.6190  0.1108
   34GLOH    C1 8645   3.968   3.401   0.297  0.0180  0.2275  0.1936
   34GLOH   H02 8646   4.001   3.498   0.335  0.1394 -0.4409  1.8280
   34GLOH   H08 8647   3.961   3.405   0.188 -0.3370 -1.0202  0.1701
   34GLOH    C2 8648   4.074   3.293   0.331 -0.1817  0.6001  1.3047
   34GLOH   H04 8649   4.046   3.197   0.286 -0.2097  0.0997  2.3570
   34GLOH    O2 8650   4.204   3.333   0.278 -0.2048 -0.4464 -0.1437
   34GLOH   H05 8651   4.224   3.412   0.331 -2.0919  0.6552 -1.0189
   34GLOH    C3 8652   4.102   3.270   0.479  0.1936 -0.7507 -1.0410
   34GLOH   H06 8653   4.165   3.183   0.493 -1.2374 -1.7765 -0.8113
   34GLOH   H07 8654   4.007   3.243   0.526  0.9175  2.0333  2.2668
   34GLOH    O3 8655   4.146   3.394   0.542 -0.2393  0.5605  0.2897
   34GLOH   H01 8656   4.129   3.379   0.637 -1.7677 -3.2126 -0.5112
   35GLOH   H03 8657   3.979   2.872   1.670  2.4362 -0.8900  0.5026
   35GLOH    O1 8658   4.017   2.953   1.630  0.0808  0.2587  0.4784
   35GLOH    C1 8659   4.161   2.942   1.631 -0.2537  0.0523  0.5106
   35GLOH   H02 8660   4.195   2.923   1.733 -0.4624 -0.0668  0.5589
   35GLOH   H08 8661   4.209   3.031   1.591 -0.8579  0.8626  1.5506
   35GLOH    C2 8662   4.191   2.818   1.541  0.7255  0.0824 -0.0104
   35GLOH   H04 8663   4.139   2.733   1.588  0.6884  0.7883  1.2723
   35GLOH    O2 8664   4.157   2.828   1.397  0.0064  0.1757  0.0392
   35GLOH   H05 8665   4.099   2.755   1.368  1.0577  0.0552 -1.9078
   35GLOH    C3 8666   4.334   2.781   1.574  0.2547 -0.0967  0.3277
   35GLOH   H06 8667   4.348   2.768   1.681 -1.0682  1.0896  0.6659
   35GLOH   H07 8668   4.393   2.867   1.540 -0.5865  0.0286 -0.8686
   35GLOH    O3 8669   4.369   2.661   1.508  0.3631  0.0245  0.1621
   35GLOH   H01 8670   4.428   2.675   1.432  0.1066 -3.2938 -0.7419
   36GLOH   H03 8671   4.515   2.850   2.502 -2.4192  2.1886  2.7654
   36GLOH    O1 8672   4.550   2.788   2.568 -0.3585  0.0462 -0.2326
   36GLOH    C1 8673   4.447   2.691   2.585 -0.6786 -0.1576 -0.0445
   36GLOH   H02 8674   4.483   2.595   2.548  0.0206 -0.8167  2.2935
   36GLOH   H08 8675   4.351   2.707   2.535 -1.0381  1.5979  1.1615
   36GLOH    C2 8676   4.416   2.666   2.728  0.3246 -0.1805  0.0729
   36GLOH   H04 8677   4.371   2.759   2.766 -0.8639 -1.0352  0.7750
   36GLOH    O2 8678   4.301   2.575   2.737  0.0987  0.0755  0.8308
   36GLOH   H05 8679   4.262   2.593   2.824 -1.0972  0.5266  0.2220
   36GLOH    C3 8680   4.533   2.612   2.815 -0.1739 -0.1200 -0.1484
   36GLOH   H06 8681   4.562   2.511   2.786 -1.5727  0.0574 -2.2644
   36GLOH   H07 8682   4.498   2.604   2.918 -3.0354  0.4493 -1.0310
   36GLOH    O3 8683   4.640   2.712   2.801 -0.1569  0.3523 -0.3602
   36GLOH   H01 8684   4.627   2.748   2.712 -0.2240 -0.4883 -0.6948
   37GLOH   H03 8685   4.245   2.973   2.011 -0.4477 -0.2481  0.4644
   37GLOH    O1 8686   4.167   3.019   1.976  0.0621 -0.1349 -0.5535
   37GLOH    C1 8687   4.073   3.030   2.087  0.4008 -0.2234  0.0565
   37GLOH   H02 8688   4.043   3.134   2.089  0.5275 -0.1634 -0.7064
   37GLOH   H08 8689   4.133   3.021   2.177 -1.7175 -0.0426  1.5033
   37GLOH    C2 8690   3.942   2.943   2.080  0.2997 -0.1529  0.1910
   37GLOH   H04 8691   3.967   2.837   2.060  0.4718 -0.0455 -0.1727
   37GLOH    O2 8692   3.873   2.949   2.204 -0.2293 -0.4408  0.3864
   37GLOH   H05 8693   3.805   2.880   2.201  0.5644 -1.1760 -1.0046
   37GLOH    C3 8694   3.862   2.989   1.958 -0.3047 -0.0455 -0.1417
   37GLOH   H06 8695   3.779   2.921   1.939 -1.2937  0.9708  0.4158
   37GLOH   H07 8696   3.930   2.973   1.875 -0.1940 -1.3661  0.1917
   37GLOH    O3 8697   3.817   3.123   1.969 -0.4406  0.4213 -0.5979
   37GLOH   H01 8698   3.772   3.138   1.883  0.5632  1.3062 -0.9746
   38GLOH   H03 8699   3.114   1.829   0.644  0.1529 -2.6790  1.3713
   38GLOH    O1 8700   3.202   1.813   0.605  0.0110 -0.3117 -0.0377
   38GLOH    C1 8701   3.266   1.693   0.651  0.2695  0.3340  0.5047
   38GLOH   H02 8702   3.250   1.678   0.757 -0.7982  0.7248  0.4086
   38GLOH   H08 8703   3.374   1.704   0.649  0.0920  2.8547  2.3272
   38GLOH    C2 8704   3.219   1.564   0.585 -0.3427  0.6852 -0.0067
   38GLOH   H04 8705   3.218   1.600   0.481 -1.7347  1.3911  0.2389
   38GLOH    O2 8706   3.306   1.451   0.596 -0.3281 -0.3742  0.1126
   38GLOH   H05 8707   3.249   1.372   0.600 -0.6141 -0.3009 -2.1059
   38GLOH    C3 8708   3.078   1.527   0.631  0.0749 -0.3700  0.2188
   38GLOH   H06 8709   3.075   1.513   0.739 -0.7533  0.2297  0.2824
   38GLOH   H07 8710   3.049   1.432   0.586 -1.5957 -0.4677  1.4312
   38GLOH    O3 8711   2.985   1.635   0.610 -0.1237  0.3559  0.3535
   38GLOH   H01 8712   2.903   1.618   0.660  2.0611 -1.4740  3.4725
   39GLOH   H03 8713   4.116   2.100   1.007 -0.1715 -2.3574  1.3573
   39GLOH    O1 8714   4.189   2.126   1.067 -0.2325  0.1865  0.3638
   39GLOH    C1 8715   4.133   2.180   1.186  0.6160 -0.6674  1.1874
   39GLOH   H02 8716   4.217   2.203   1.251  2.9892 -1.6037 -1.4202
   39GLOH   H08 8717   4.064   2.110   1.233 -1.8080 -0.5967 -2.0476
   39GLOH    C2 8718   4.065   2.320   1.160 -0.5494 -0.4189 -0.2567
   39GLOH   H04 8719   3.977   2.310   1.094 -0.9378  2.4429 -0.2464
   39GLOH    O2 8720   4.032   2.384   1.282 -0.1155  0.4703 -0.1516
   39GLOH   H05 8721   4.107   2.389   1.344  0.1587  2.6434 -0.6025
   39GLOH    C3 8722   4.156   2.427   1.097  0.7682  0.2324  0.2945
   39GLOH   H06 8723   4.245   2.418   1.159  0.0414 -4.1073  0.8846
   39GLOH   H07 8724   4.117   2.528   1.108  3.0698  0.9891  1.6835
   39GLOH    O3 8725   4.184   2.398   0.959 -0.0796 -0.0637 -0.2098
   39GLOH   H01 8726   4.106   2.404   0.900  1.4143  0.0940 -2.2212
   40GLOH   H03 8727   4.029   1.336   0.344  0.1305  0.3852 -0.2748
   40GLOH    O1 8728   4.120   1.354   0.315  0.2428 -0.0076 -0.1743
   40GLOH    C1 8729   4.206   1.240   0.322  0.3402  0.4779  0.4485
   40GLOH   H02 8730   4.213   1.191   0.224  0.8487  1.2539  0.0970
   40GLOH   H08 8731   4.154   1.170   0.388  2.1716 -0.9605  0.4106
   40GLOH    C2 8732   4.344   1.264   0.389  0.0771  0.4899  0.2919
   40GLOH   H04 8733   4.348   1.373   0.405  0.9602  0.7244 -1.4203
   40GLOH    O2 8734   4.347   1.201   0.519 -0.5215 -0.2229 -0.5152
   40GLOH   H05 8735   4.373   1.276   0.575 -0.1014 -1.9301  1.6544
   40GLOH    C3 8736   4.466   1.244   0.302  0.1010  0.5136 -0.1910
   40GLOH   H06 8737   4.462   1.141   0.264  0.6764  0.5451 -0.3541
   40GLOH   H07 8738   4.557   1.254   0.361  0.0884 -0.8356  0.0785
   40GLOH    O3 8739   4.466   1.342   0.196 -0.0637 -0.0433 -0.6875
   40GLOH   H01 8740   4.396   1.330   0.129 -0.3374 -0.2879 -0.3608
   41GLOH   H03 8741   3.514   0.542   0.710  2.9571 -0.8161 -0.2253
   41GLOH    O1 8742   3.521   0.614   0.644 -0.1895  0.0125  0.2563
   41GLOH    C1 8743   3.406   0.687   0.613 -0.3991 -0.3821 -0.0949
   41GLOH   H02 8744   3.414   0.713   0.508 -0.4533 -2.8522 -0.7348
   41GLOH   H08 8745   3.397   0.779   0.672 -0.8659  0.1820 -1.0262
   41GLOH    C2 8746   3.270   0.607   0.629 -0.3698 -0.0459  0.0745
   41GLOH   H04 8747   3.270   0.532   0.549  2.0246 -0.6596  0.5957
   41GLOH    O2 8748   3.248   0.563   0.760 -0.4886 -0.3788  0.1260
   41GLOH   H05 8749   3.243   0.467   0.769 -1.8147 -0.4574 -1.2622
   41GLOH    C3 8750   3.156   0.709   0.604  0.0951  0.7355  0.2849
   41GLOH   H06 8751   3.168   0.794   0.672  3.6043  1.2177 -0.8345
   41GLOH   H07 8752   3.062   0.665   0.636  0.6483 -0.3312  0.4394
   41GLOH    O3 8753   3.150   0.749   0.464  0.1843  0.2581  0.7204
   41GLOH   H01 8754   3.154   0.665   0.414  2.6908  1.2281 -0.7944
   42GLOH   H03 8755   4.024   4.491   1.040  0.0252 -1.7227  0.4098
   42GLOH    O1 8756   4.100   4.507   0.981 -0.5277  0.0664  0.1546
   42GLOH    C1 8757   4.200   4.410   1.002  0.1480 -0.2239 -0.3034
   42GLOH   H02 8758   4.167   4.310   0.973 -1.5244  0.3798 -0.4888
   42GLOH   H08 8759   4.239   4.394   1.103  0.7420 -1.3476 -0.7069
   42GLOH    C2 8760   4.322   4.446   0.915 -0.5213  0.0983  0.5200
   42GLOH   H04 8761   4.349   4.545   0.954  1.6118 -0.7104  1.1701
   42GLOH    O2 8762   4.433   4.350   0.933 -0.5776  0.2191  0.4712
   42GLOH   H05 8763   4.403   4.260   0.912 -0.4023 -0.2015  1.9299
   42GLOH    C3 8764   4.279   4.452   0.771 -0.1722 -0.2348  0.4711
   42GLOH   H06 8765   4.366   4.462   0.706 -1.8884  0.2582 -1.8476
   42GLOH   H07 8766   4.217   4.542   0.760  1.9120  1.0897 -0.7765
   42GLOH    O3 8767   4.209   4.331   0.737 -0.0639  0.0559  0.5669
   42GLOH   H01 8768   4.287   4.274   0.748 -0.2938 -0.8220 -2.0000
   43GLOH   H03 8769   3.146   9.889   1.178  0.2538 -1.6617 -0.2155
   43GLOH    O1 8770   3.216   9.899   1.111 -0.1635 -0.0942 -0.4312
   43GLOH    C1 8771   3.215   9.776   1.026  0.8764 -1.0229  0.1277
   43GLOH   H02 8772   3.293   9.786   0.951  0.3103 -0.7596 -0.4339
   43GLOH   H08 8773   3.121   9.764   0.972  1.0860  0.5058 -0.6065
   43GLOH    C2 8774   3.235   9.635   1.092  0.0840 -0.0723  0.7112
   43GLOH   H04 8775   3.342   9.637   1.117 -0.0528  0.1710  1.2780
   43GLOH    O2 8776   3.158   9.631   1.215 -0.6195  0.1758 -0.3848
   43GLOH   H05 8777   3.206   9.576   1.279 -1.0862  1.2961  0.9386
   43GLOH    C3 8778   3.197   9.530   0.985  0.1751 -0.5462  0.2474
   43GLOH   H06 8779   3.092   9.547   0.960 -0.6405 -2.8173  1.9993
   43GLOH   H07 8780   3.204   9.430   1.029 -0.2394  0.0778  1.7809
   43GLOH    O3 8781   3.273   9.545   0.865  0.4031  0.3793 -0.1513
   43GLOH   H01 8782   3.364   9.525   0.895  0.6426 -0.4380 -1.4101
   44GLOH   H03 8783   3.844   3.150   2.805  0.3992 -0.4833  1.8972
   44GLOH    O1 8784   3.891   3.080   2.756 -0.2265 -0.0211  0.6020
   44GLOH    C1 8785   3.905   3.117   2.618 -0.2043 -0.1318  0.9791
   44GLOH   H02 8786   3.958   3.212   2.606  0.3851 -0.7340 -1.6470
   44GLOH   H08 8787   3.809   3.137   2.569  0.2360 -2.3455 -0.8642
   44GLOH    C2 8788   3.982   3.013   2.537  0.0124  0.2024  0.0253
   44GLOH   H04 8789   3.924   2.920   2.533  2.5375 -1.4455  0.1993
   44GLOH    O2 8790   4.015   3.062   2.405  0.0879  0.3255  0.0200
   44GLOH   H05 8791   3.951   3.024   2.343  0.2518  0.0815 -0.0024
   44GLOH    C3 8792   4.118   2.973   2.605  0.7891  0.5078  0.3990
   44GLOH   H06 8793   4.191   3.053   2.599  0.6404  0.6949  1.0385
   44GLOH   H07 8794   4.157   2.885   2.554 -1.4246 -0.5768  0.5105
   44GLOH    O3 8795   4.099   2.940   2.744 -0.0913 -0.1200 -0.2131
   44GLOH   H01 8796   4.024   2.994   2.775  0.4070 -0.9464  2.5542
   45GLOH   H03 8797   3.926   0.392   0.827  1.0622 -0.7587 -1.1801
   45GLOH    O1 8798   3.854   0.425   0.770  0.1076 -0.0049  0.4379
   45GLOH    C1 8799   3.770   0.521   0.838  0.8917 -0.2803  0.0177
   45GLOH   H02 8800   3.698   0.563   0.768  0.5911  1.4140  1.3150
   45GLOH   H08 8801   3.828   0.602   0.881  0.9311 -0.7429  0.8636
   45GLOH    C2 8802   3.687   0.465   0.958 -0.1715 -0.1102  0.4384
   45GLOH   H04 8803   3.753   0.411   1.026  0.0329  0.3281  0.5883
   45GLOH    O2 8804   3.617   0.580   1.020  0.2912  0.4296  0.2333
   45GLOH   H05 8805   3.520   0.586   1.006  0.1517 -1.3394  0.4482
   45GLOH    C3 8806   3.587   0.362   0.907  0.0144 -0.1398  0.0496
   45GLOH   H06 8807   3.519   0.336   0.988 -1.6733  5.7368  0.7268
   45GLOH   H07 8808   3.643   0.272   0.882  2.4250  1.5167 -0.7591
   45GLOH    O3 8809   3.497   0.413   0.809  0.1937 -0.0879 -0.3380
   45GLOH   H01 8810   3.414   0.361   0.811  0.2761 -0.2150 -0.2700
   46GLOH   H03 8811   3.646  -0.011   0.589  1.3658 -1.5758 -0.3854
   46GLOH    O1 8812   3.648   0.023   0.498  0.6775  0.2720  0.2713
   46GLOH    C1 8813   3.723   0.147   0.478 -0.2201 -0.1513  0.0314
   46GLOH   H02 8814   3.722   0.172   0.372  0.2388  1.7802  0.4757
   46GLOH   H08 8815   3.830   0.133   0.493 -0.0403 -1.0084 -1.8829
   46GLOH    C2 8816   3.670   0.272   0.547  0.8030  0.4600 -0.4627
   46GLOH   H04 8817   3.690   0.262   0.655 -1.3165 -0.1791 -0.1075
   46GLOH    O2 8818   3.737   0.395   0.504  0.7687 -0.2038  0.4116
   46GLOH   H05 8819   3.805   0.417   0.570  2.4660 -1.5615 -0.8401
   46GLOH    C3 8820   3.518   0.282   0.533  0.5246  0.0676  0.5050
   46GLOH   H06 8821   3.505   0.293   0.425 -3.5921 -1.0660  0.8245
   46GLOH   H07 8822   3.475   0.376   0.569 -0.0497  0.3500 -0.8573
   46GLOH    O3 8823   3.437   0.168   0.568 -0.5532 -0.2085  0.3617
   46GLOH   H01 8824   3.481   0.104   0.509 -1.8525  0.0140 -0.8757
   47GLOH   H03 8825   3.748   9.185   0.816  1.0118  2.4540  0.3314
   47GLOH    O1 8826   3.757   9.133   0.898  0.4047  0.0631 -1.0584
   47GLOH    C1 8827   3.727   8.990   0.873  0.0952 -0.4406 -0.8682
   47GLOH   H02 8828   3.819   8.946   0.835  0.6058 -1.9271  1.9386
   47GLOH   H08 8829   3.655   8.984   0.792  0.5705 -2.1389 -1.1772
   47GLOH    C2 8830   3.690   8.919   1.000 -0.0409 -0.5993 -0.5188
   47GLOH   H04 8831   3.608   8.974   1.048  0.1311 -1.5397  0.9003
   47GLOH    O2 8832   3.637   8.789   0.967  0.4504 -0.4959 -0.5227
   47GLOH   H05 8833   3.560   8.801   0.910 -1.4623  2.0572  2.4310
   47GLOH    C3 8834   3.806   8.925   1.096  1.2928 -0.2572  0.3645
   47GLOH   H06 8835   3.892   8.890   1.039  1.2549 -1.0150  0.7725
   47GLOH   H07 8836   3.789   8.858   1.180  2.0393  0.6030  1.2119
   47GLOH    O3 8837   3.854   9.052   1.143  0.0296 -0.2565  0.3292
   47GLOH   H01 8838   3.825   9.113   1.073  1.1028 -2.3457 -2.0115
   48GLOH   H03 8839   3.319   1.476   3.105 -0.4226 -0.8689 -0.2531
   48GLOH    O1 8840   3.356   1.513   3.023  0.3964  0.0709  0.5357
   48GLOH    C1 8841   3.452   1.414   2.971  0.4081  0.2097 -0.6941
   48GLOH   H02 8842   3.403   1.323   2.935 -2.3930  1.1928  0.4300
   48GLOH   H08 8843   3.524   1.381   3.046 -0.6591  0.5608  0.5232
   48GLOH    C2 8844   3.523   1.480   2.852  0.0840 -0.3817  0.3512
   48GLOH   H04 8845   3.567   1.571   2.895  2.0358 -2.3260  2.6108
   48GLOH    O2 8846   3.620   1.385   2.798  0.0199  0.1446 -0.0128
   48GLOH   H05 8847   3.584   1.317   2.740  0.8272 -0.4801  0.2161
   48GLOH    C3 8848   3.413   1.523   2.744 -0.6111 -0.2586 -0.3404
   48GLOH   H06 8849   3.449   1.575   2.655 -0.7471  1.8382  0.8059
   48GLOH   H07 8850   3.336   1.586   2.788 -0.1896 -0.3387  0.5157
   48GLOH    O3 8851   3.343   1.401   2.706 -0.1918  0.4941 -0.2019
   48GLOH   H01 8852   3.263   1.419   2.654 -1.9814 -1.6184  1.6902
   49GLOH   H03 8853   4.582   2.603   0.708  2.8212 -0.5596  0.7156
   49GLOH    O1 8854   4.568   2.696   0.736  0.7888 -0.5896 -0.1382
   49GLOH    C1 8855   4.445   2.733   0.677  0.0339 -0.0675  0.0531
   49GLOH   H02 8856   4.370   2.658   0.697  1.4143 -1.8933 -1.4001
   49GLOH   H08 8857   4.466   2.741   0.570 -0.9529 -1.2989 -0.2386
   49GLOH    C2 8858   4.400   2.875   0.734 -0.4994  0.2827  0.1679
   49GLOH   H04 8859   4.469   2.950   0.693  0.4247  0.9604  2.8637
   49GLOH    O2 8860   4.266   2.904   0.692 -0.0708  0.1682 -0.1376
   49GLOH   H05 8861   4.263   2.921   0.596 -0.8147 -2.2097 -0.5570
   49GLOH    C3 8862   4.405   2.869   0.890 -0.1048 -0.6313  0.6653
   49GLOH   H06 8863   4.349   2.784   0.928  1.3818 -0.5290  3.1779
   49GLOH   H07 8864   4.357   2.963   0.917 -0.7516 -0.9797  0.7344
   49GLOH    O3 8865   4.540   2.854   0.939  0.1033  0.2245 -0.0828
   49GLOH   H01 8866   4.576   2.790   0.875 -0.2125 -1.6685  1.5849
   50GLOH   H03 8867   3.702   2.854   2.386 -0.1373  0.3910 -1.8621
   50GLOH    O1 8868   3.654   2.934   2.414 -0.2617 -0.4482  0.3497
   50GLOH    C1 8869   3.565   2.884   2.515  0.1433  0.0097 -0.0608
   50GLOH   H02 8870   3.620   2.892   2.609  0.0781 -0.2937  0.0055
   50GLOH   H08 8871   3.552   2.778   2.495  1.0921 -0.2276  0.5363
   50GLOH    C2 8872   3.428   2.947   2.528 -0.3939 -0.4602  0.2494
   50GLOH   H04 8873   3.391   2.959   2.425 -0.2232  2.1754  0.4524
   50GLOH    O2 8874   3.345   2.872   2.614  0.0275 -0.4595 -0.5036
   50GLOH   H05 8875   3.403   2.860   2.691  1.7760  1.8640 -1.3815
   50GLOH    C3 8876   3.451   3.096   2.574  0.0717  0.8037 -0.9084
   50GLOH   H06 8877   3.556   3.114   2.551  1.2315 -0.3452  3.0056
   50GLOH   H07 8878   3.454   3.094   2.683  1.1780 -0.7824 -0.9442
   50GLOH    O3 8879   3.362   3.200   2.529 -0.3220  0.0215 -0.1431
   50GLOH   H01 8880   3.356   3.265   2.601 -1.2822  0.0999 -0.2768
   51GLOH   H03 8881   2.992   2.245   0.693 -0.9113 -1.4380 -3.6447
   51GLOH    O1 8882   2.940   2.175   0.735 -0.1291 -0.0726 -0.2710
   51GLOH    C1 8883   3.000   2.165   0.864 -0.0704 -0.0124 -0.1235
   51GLOH   H02 8884   2.925   2.163   0.943 -0.9878 -0.5838 -1.0011
   51GLOH   H08 8885   3.063   2.248   0.894 -1.1242  0.2896  1.3031
   51GLOH    C2 8886   3.088   2.041   0.871 -0.7552  0.2023 -0.4674
   51GLOH   H04 8887   3.169   2.068   0.801 -0.4914 -0.6326 -0.4920
   51GLOH    O2 8888   3.147   2.023   0.998  0.3610  0.0902 -0.2769
   51GLOH   H05 8889   3.144   2.100   1.057  0.7417  0.5009 -0.7934
   51GLOH    C3 8890   3.022   1.910   0.824 -0.2957 -0.2337  0.2479
   51GLOH   H06 8891   2.940   1.896   0.894 -0.0621 -2.3268  0.1313
   51GLOH   H07 8892   3.087   1.826   0.848 -1.3226 -0.8421  0.9275
   51GLOH    O3 8893   2.977   1.897   0.691  0.0590 -0.4362  0.3128
   51GLOH   H01 8894   2.885   1.868   0.704  0.1948 -0.6597  0.7795
   52GLOH   H03 8895   2.444   2.393   1.594  0.0275 -0.1033 -0.4198
   52GLOH    O1 8896   2.531   2.380   1.634 -0.1952 -0.5708 -0.0759
   52GLOH    C1 8897   2.634   2.434   1.543  0.4183 -0.0609 -0.9636
   52GLOH   H02 8898   2.734   2.445   1.586 -0.1518  1.9164 -0.0729
   52GLOH   H08 8899   2.608   2.532   1.504 -1.2382 -1.1297 -2.6112
   52GLOH    C2 8900   2.651   2.352   1.421 -0.1585 -0.2748  0.5977
   52GLOH   H04 8901   2.551   2.336   1.377  1.7099 -1.7180 -3.4355
   52GLOH    O2 8902   2.724   2.418   1.314 -0.3566  0.0037 -0.7574
   52GLOH   H05 8903   2.688   2.505   1.292 -0.1806  0.2930  0.0775
   52GLOH    C3 8904   2.706   2.216   1.459  0.4025  0.8159  0.8004
   52GLOH   H06 8905   2.813   2.235   1.466  0.3725  0.6367  1.8313
   52GLOH   H07 8906   2.688   2.150   1.374  0.8367  0.6289  0.8518
   52GLOH    O3 8907   2.659   2.161   1.582  0.1376 -0.2570  0.3084
   52GLOH   H01 8908   2.609   2.230   1.630  0.8619  0.3776  0.1555
   53GLOH   H03 8909   3.765   4.209   1.658  0.2115  2.1933  1.8691
   53GLOH    O1 8910   3.678   4.198   1.700 -0.3355  0.5365  0.3769
   53GLOH    C1 8911   3.703   4.135   1.828  0.0714  0.4181  0.4804
   53GLOH   H02 8912   3.785   4.192   1.871 -0.0835  2.6406 -2.0519
   53GLOH   H08 8913   3.750   4.037   1.819  1.2017  1.0711 -0.9770
   53GLOH    C2 8914   3.580   4.151   1.922  0.2658  1.0131 -0.4026
   53GLOH   H04 8915   3.509   4.081   1.876 -3.0042  2.9402  1.5588
   53GLOH    O2 8916   3.614   4.097   2.054 -0.1391 -0.1156  0.2924
   53GLOH   H05 8917   3.648   4.008   2.038 -2.1898 -0.1519 -5.1181
   53GLOH    C3 8918   3.533   4.299   1.926 -0.8470  0.3918  0.1180
   53GLOH   H06 8919   3.524   4.345   1.828  1.4345 -2.2821 -1.4192
   53GLOH   H07 8920   3.620   4.353   1.964 -0.2262  1.2354 -2.4661
   53GLOH    O3 8921   3.419   4.342   1.997  0.5805  0.2119 -0.1845
   53GLOH   H01 8922   3.433   4.349   2.094 -3.5349  1.7023  0.4469
   54GLOH   H03 8923   3.502   2.698   1.026 -2.9693 -2.3281  0.0125
   54GLOH    O1 8924   3.442   2.772   1.047  0.1499  0.3487 -0.0929
   54GLOH    C1 8925   3.312   2.757   0.980 -0.0565  0.2133  0.2894
   54GLOH   H02 8926   3.273   2.658   1.002  1.5424  0.0042  2.3357
   54GLOH   H08 8927   3.313   2.759   0.871 -2.8874  2.0595  0.2380
   54GLOH    C2 8928   3.210   2.857   1.031 -0.2938 -0.1993  0.3361
   54GLOH   H04 8929   3.255   2.955   1.006 -0.0382 -0.1699  0.9058
   54GLOH    O2 8930   3.081   2.833   0.966  0.0087 -0.3452 -0.3805
   54GLOH   H05 8931   3.039   2.762   1.018 -0.6691  1.3751  1.5171
   54GLOH    C3 8932   3.206   2.857   1.188 -0.0419 -0.1401  0.8912
   54GLOH   H06 8933   3.133   2.935   1.214 -2.0775 -1.9134  0.6852
   54GLOH   H07 8934   3.305   2.885   1.222 -0.1675  0.2088  0.9831
   54GLOH    O3 8935   3.150   2.735   1.241 -0.1389 -0.1987 -0.5962
   54GLOH   H01 8936   3.061   2.715   1.207 -0.1572  0.1033 -0.7280
   55GLOH   H03 8937   3.119   3.427   2.204 -0.7865 -1.4001 -1.1131
   55GLOH    O1 8938   3.169   3.434   2.121  0.3234 -0.1548 -0.3487
   55GLOH    C1 8939   3.103   3.506   2.014 -0.1580 -0.5570 -0.2495
   55GLOH   H02 8940   3.166   3.573   1.955  0.0560 -0.1203  0.4586
   55GLOH   H08 8941   3.025   3.566   2.062  0.2126  0.7120 -1.1956
   55GLOH    C2 8942   3.038   3.419   1.915 -0.2122 -0.3649  0.0518
   55GLOH   H04 8943   2.979   3.351   1.979 -2.0885  1.8494  0.7212
   55GLOH    O2 8944   2.967   3.496   1.819 -0.5525 -0.0439  0.2337
   55GLOH   H05 8945   2.968   3.590   1.842  2.5019  0.2881 -1.0721
   55GLOH    C3 8946   3.158   3.358   1.838 -0.1175  0.2290  0.5663
   55GLOH   H06 8947   3.200   3.420   1.759  0.2262 -0.9458 -0.1830
   55GLOH   H07 8948   3.118   3.278   1.776 -1.7739  0.8961  0.7419
   55GLOH    O3 8949   3.250   3.298   1.930  0.3374 -0.0074  0.4261
   55GLOH   H01 8950   3.227   3.331   2.019  0.9770 -1.2071  1.0437
   56GLOH   H03 8951   3.258   3.458   0.861 -0.4071  3.0691  0.7153
   56GLOH    O1 8952   3.162   3.445   0.873 -0.0468 -0.5907  0.2589
   56GLOH    C1 8953   3.128   3.307   0.866 -0.6037  0.9807 -0.0055
   56GLOH   H02 8954   3.202   3.245   0.917  0.3515  2.2505  0.1543
   56GLOH   H08 8955   3.140   3.283   0.760  2.0911  1.0029  0.2582
   56GLOH    C2 8956   2.984   3.274   0.908 -0.1693 -0.4269 -0.4819
   56GLOH   H04 8957   2.903   3.335   0.866  0.5401  0.4868 -0.5318
   56GLOH    O2 8958   2.956   3.135   0.886  0.7819  0.2245 -0.0757
   56GLOH   H05 8959   2.919   3.124   0.797 -1.3817  0.9995  0.6822
   56GLOH    C3 8960   2.983   3.278   1.062  0.1788 -0.9395  0.6630
   56GLOH   H06 8961   3.036   3.192   1.104  1.1572 -0.5325  0.2655
   56GLOH   H07 8962   2.883   3.258   1.102 -0.7594 -1.3039 -1.7628
   56GLOH    O3 8963   3.025   3.405   1.114  0.0464 -0.3380  0.1625
   56GLOH   H01 8964   3.117   3.411   1.082 -0.1871  0.6449 -0.3478
   57GLOH   H03 8965   3.176   0.842   1.692 -2.6418 -0.1642  1.0140
   57GLOH    O1 8966   3.186   0.745   1.703 -0.2143 -0.0670 -0.0948
   57GLOH    C1 8967   3.194   0.690   1.835  0.5550 -0.1156  0.0089
   57GLOH   H02 8968   3.213   0.582   1.829  1.1989  0.0121 -0.3039
   57GLOH   H08 8969   3.100   0.707   1.887 -1.0338  1.5894 -3.2575
   57GLOH    C2 8970   3.315   0.746   1.905  0.4832  0.0145  0.0083
   57GLOH   H04 8971   3.401   0.723   1.841 -0.9323 -1.6554 -1.3444
   57GLOH    O2 8972   3.299   0.892   1.923 -0.2901 -0.2367  0.4622
   57GLOH   H05 8973   3.211   0.929   1.939 -1.3906 -2.3632 -0.4885
   57GLOH    C3 8974   3.342   0.661   2.033 -1.2448  0.1697  0.4076
   57GLOH   H06 8975   3.426   0.706   2.086 -0.7429  1.4455 -1.4136
   57GLOH   H07 8976   3.359   0.559   2.000 -1.9014  0.9588 -2.4701
   57GLOH    O3 8977   3.229   0.637   2.123  0.5148 -0.3996 -0.1430
   57GLOH   H01 8978   3.200   0.544   2.112  1.4916 -0.7269  0.0054
   58GLOH   H03 8979   4.686   1.716   1.174  1.0386  1.4083 -0.3555
   58GLOH    O1 8980   4.622   1.749   1.109 -0.5307 -0.0469  0.4349
   58GLOH    C1 8981   4.516   1.804   1.188 -0.8385 -0.2939 -0.1246
   58GLOH   H02 8982   4.553   1.879   1.258  0.6642  0.4424 -1.6771
   58GLOH   H08 8983   4.474   1.725   1.251  0.2523 -1.5828 -1.0055
   58GLOH    C2 8984   4.409   1.869   1.096 -0.3619  0.1840 -0.4717
   58GLOH   H04 8985   4.379   1.792   1.023  1.4251  0.1436 -1.1734
   58GLOH    O2 8986   4.300   1.914   1.174  0.2681  0.2039 -0.0774
   58GLOH   H05 8987   4.251   1.984   1.127  1.1250  1.4773  0.9024
   58GLOH    C3 8988   4.472   1.979   1.016 -0.2754 -0.3193 -0.7058
   58GLOH   H06 8989   4.535   2.034   1.086 -0.5493  0.9174 -1.4194
   58GLOH   H07 8990   4.404   2.054   0.976 -2.3679 -1.2751  0.9215
   58GLOH    O3 8991   4.556   1.929   0.911 -0.3388 -0.1941 -0.1737
   58GLOH   H01 8992   4.614   1.862   0.952 -0.4252  0.1442  0.5153
   59GLOH   H03 8993   3.415   2.935   0.174  1.5926  0.4051  0.4629
   59GLOH    O1 8994   3.462   2.870   0.118 -0.3618 -0.0856 -0.6416
   59GLOH    C1 8995   3.528   2.768   0.196  0.1170  0.1162 -0.2069
   59GLOH   H02 8996   3.591   2.718   0.122 -0.0139  0.0163 -0.2501
   59GLOH   H08 8997   3.461   2.688   0.228  0.7011 -0.3274 -0.0648
   59GLOH    C2 8998   3.617   2.818   0.317  0.3602  0.1149 -0.0306
   59GLOH   H04 8999   3.674   2.728   0.345  1.6852  0.6382 -0.9930
   59GLOH    O2 9000   3.719   2.909   0.274 -0.0042  0.1598 -0.2915
   59GLOH   H05 9001   3.784   2.857   0.223  3.1067  1.8296  1.8220
   59GLOH    C3 9002   3.536   2.873   0.434  0.3150  0.2867  0.8575
   59GLOH   H06 9003   3.493   2.966   0.398  0.9679  0.5281  0.6918
   59GLOH   H07 9004   3.602   2.892   0.518  1.8779 -2.3615  0.2880
   59GLOH    O3 9005   3.425   2.783   0.475 -0.3423  0.0864  0.0054
   59GLOH   H01 9006   3.359   2.839   0.520  0.1987  0.6947  0.0492
   60GLOH   H03 9007   3.283   2.542   1.809 -0.3761  1.1864 -0.7121
   60GLOH    O1 9008   3.370   2.506   1.784 -0.4834  0.4804 -0.0894
   60GLOH    C1 9009   3.486   2.588   1.815 -0.0211 -0.0342 -0.6837
   60GLOH   H02 9010   3.577   2.536   1.785  0.1440 -0.6448  0.8490
   60GLOH   H08 9011   3.494   2.618   1.919  2.1037  5.8502 -2.3457
   60GLOH    C2 9012   3.498   2.717   1.738  0.7403  0.1129  0.4162
   60GLOH   H04 9013   3.408   2.773   1.767  3.2046  2.9088  3.0640
   60GLOH    O2 9014   3.607   2.791   1.791 -0.0217 -0.3947  0.1257
   60GLOH   H05 9015   3.645   2.849   1.723 -1.3322  0.4155  0.0654
   60GLOH    C3 9016   3.501   2.692   1.584  0.2993  0.1731 -0.1766
   60GLOH   H06 9017   3.414   2.631   1.562 -0.0576  0.7412 -0.3646
   60GLOH   H07 9018   3.574   2.616   1.556  2.5949  2.0000  0.6376
   60GLOH    O3 9019   3.522   2.802   1.494  0.1308 -0.6301 -0.0183
   60GLOH   H01 9020   3.602   2.853   1.518  1.2016 -2.2360 -0.0939
   61GLOH   H03 9021   2.856   0.650   2.306  0.4611 -0.7329  0.7036
   61GLOH    O1 9022   2.813   0.579   2.356 -0.2846 -0.5478  0.3267
   61GLOH    C1 9023   2.901   0.471   2.357 -0.2214  0.0496 -0.1225
   61GLOH   H02 9024   2.880   0.414   2.447 -1.2024 -0.8509 -0.9044
   61GLOH   H08 9025   3.004   0.505   2.373 -0.1853  1.3197 -2.7917
   61GLOH    C2 9026   2.895   0.374   2.234 -0.1175 -0.2246 -0.6947
   61GLOH   H04 9027   2.929   0.440   2.153  0.3844  1.2866  0.7275
   61GLOH    O2 9028   2.975   0.261   2.242 -0.2837 -0.0478  0.1259
   61GLOH   H05 9029   2.983   0.231   2.150 -3.0457 -1.8165  0.4297
   61GLOH    C3 9030   2.746   0.336   2.205 -0.1092 -0.1214 -0.7441
   61GLOH   H06 9031   2.679   0.420   2.226 -2.0993 -2.1615  1.3496
   61GLOH   H07 9032   2.712   0.256   2.270  2.2790 -0.3662  0.2485
   61GLOH    O3 9033   2.742   0.294   2.067  0.2807 -0.0984 -0.5427
   61GLOH   H01 9034   2.727   0.369   2.007 -3.5161  0.6663  1.1841
   62GLOH   H03 9035   4.454   3.451   1.807 -1.3882 -0.1883  1.2882
   62GLOH    O1 9036   4.377   3.460   1.748 -0.3865 -0.4244 -0.0760
   62GLOH    C1 9037   4.332   3.325   1.717 -0.2671 -0.0708 -0.2974
   62GLOH   H02 9038   4.402   3.250   1.754 -2.4115 -1.8773  0.2079
   62GLOH   H08 9039   4.328   3.304   1.610 -1.8034  0.8047 -0.4135
   62GLOH    C2 9040   4.191   3.295   1.764 -0.1584  1.0047  0.1168
   62GLOH   H04 9041   4.173   3.197   1.716  0.3482  0.9988 -0.0646
   62GLOH    O2 9042   4.195   3.278   1.905  0.0044  0.5973 -0.2844
   62GLOH   H05 9043   4.187   3.182   1.918 -0.4867  0.8931  1.7063
   62GLOH    C3 9044   4.084   3.395   1.723  0.3476 -0.6585 -0.1580
   62GLOH   H06 9045   4.110   3.488   1.775  0.1847 -0.2095 -0.8742
   62GLOH   H07 9046   3.992   3.356   1.766 -0.2963 -0.1383 -1.0596
   62GLOH    O3 9047   4.082   3.419   1.580 -0.2530 -0.0765 -0.0551
   62GLOH   H01 9048   4.063   3.332   1.539 -1.7857  0.2759 -0.1066
   63GLOH   H03 9049   3.260   9.907   2.528  0.8096  0.2273  0.0206
   63GLOH    O1 9050   3.272   9.887   2.623 -0.4008  0.6841  0.2794
   63GLOH    C1 9051   3.279  10.011   2.699  0.9752  0.5209  0.6750
   63GLOH   H02 9052   3.190  10.074   2.692  0.6742  0.1572  1.1781
   63GLOH   H08 9053   3.369  10.066   2.672  1.1991  1.0374  2.4285
   63GLOH    C2 9054   3.302   9.975   2.847 -0.0294 -0.0317  0.1618
   63GLOH   H04 9055   3.410   9.963   2.861 -0.3000 -0.5243  1.9276
   63GLOH    O2 9056   3.261  10.087   2.931  0.0681 -0.4522 -0.1281
   63GLOH   H05 9057   3.327  10.154   2.905 -0.0010 -0.7307 -1.0637
   63GLOH    C3 9058   3.234   9.849   2.888  0.4878  0.2001 -0.2928
   63GLOH   H06 9059   3.128   9.850   2.863  0.9882  0.4258 -2.5217
   63GLOH   H07 9060   3.230   9.837   2.996 -0.1946 -1.2323 -0.4624
   63GLOH    O3 9061   3.306   9.735   2.830  0.5264 -0.1894  0.3542
   63GLOH   H01 9062   3.328   9.759   2.738  1.0712 -2.6681 -0.2022
   64GLOH   H03 9063   3.382   2.349   3.021 -0.0567  0.7190  0.2847
   64GLOH    O1 9064   3.460   2.349   2.963 -0.3990 -0.2318 -0.1903
   64GLOH    C1 9065   3.487   2.218   2.915  0.5985  0.3838  0.2838
   64GLOH   H02 9066   3.506   2.153   3.000  0.4198  2.0363  1.6199
   64GLOH   H08 9067   3.574   2.226   2.849  0.9390  0.8186  0.7846
   64GLOH    C2 9068   3.368   2.168   2.832  0.0753  0.1081  0.2906
   64GLOH   H04 9069   3.409   2.085   2.772 -0.9981  0.9426 -1.6395
   64GLOH    O2 9070   3.268   2.125   2.925  0.7965 -0.0250  0.3056
   64GLOH   H05 9071   3.299   2.084   3.007 -0.8172  0.4096  1.1535
   64GLOH    C3 9072   3.302   2.255   2.724  0.1213 -0.1476  0.2816
   64GLOH   H06 9073   3.255   2.349   2.754  0.6517  0.1141  0.2948
   64GLOH   H07 9074   3.228   2.197   2.669  0.7258  0.9514 -1.7588
   64GLOH    O3 9075   3.400   2.283   2.623 -0.2984  0.0814 -0.3853
   64GLOH   H01 9076   3.350   2.294   2.540  1.4626 -1.5255 -1.7005
   65GLOH   H03 9077   4.609   1.506   2.851  0.6428  0.2931  1.4823
   65GLOH    O1 9078   4.624   1.597   2.820 -0.7373  0.0185 -0.0038
   65GLOH    C1 9079   4.508   1.676   2.854  0.0341 -0.1307  0.2490
   65GLOH   H02 9080   4.539   1.765   2.910 -2.3705 -0.3677  2.0021
   65GLOH   H08 9081   4.432   1.620   2.908  0.5731 -0.1253  1.0164
   65GLOH    C2 9082   4.439   1.734   2.731 -0.4822  0.0480 -0.1172
   65GLOH   H04 9083   4.396   1.652   2.671 -0.3742 -1.1230  1.3709
   65GLOH    O2 9084   4.323   1.814   2.769  0.1115 -0.4513 -0.3647
   65GLOH   H05 9085   4.268   1.756   2.825  0.8760 -0.4713  0.3842
   65GLOH    C3 9086   4.542   1.815   2.652 -0.3587 -1.0372  0.1268
   65GLOH   H06 9087   4.562   1.910   2.701  2.3359 -0.9348 -1.0873
   65GLOH   H07 9088   4.503   1.842   2.554  0.2764  0.4511  0.2795
   65GLOH    O3 9089   4.668   1.751   2.628  0.1053  0.1495 -0.1642
   65GLOH   H01 9090   4.672   1.695   2.708  1.5505  0.6830  0.1334
   66GLOH   H03 9091   3.520   9.422   2.591  0.2764  0.4316  0.7098
   66GLOH    O1 9092   3.477   9.388   2.510  0.4341 -0.0312  0.8186
   66GLOH    C1 9093   3.370   9.475   2.471  0.6844 -0.3233  0.0845
   66GLOH   H02 9094   3.301   9.480   2.556  1.1396  0.6800  0.4021
   66GLOH   H08 9095   3.314   9.434   2.387  0.8346  0.7393 -0.5468
   66GLOH    C2 9096   3.407   9.620   2.435 -0.1384 -0.0535 -0.5349
   66GLOH   H04 9097   3.317   9.680   2.420 -1.7559 -2.5086 -0.9524
   66GLOH    O2 9098   3.487   9.686   2.540 -0.3391  0.0861 -0.1912
   66GLOH   H05 9099   3.538   9.621   2.591 -0.1815  0.7792  0.5546
   66GLOH    C3 9100   3.485   9.626   2.300  0.2744  0.0177  0.2886
   66GLOH   H06 9101   3.581   9.576   2.310  0.2800 -0.4997 -2.0888
   66GLOH   H07 9102   3.498   9.731   2.275 -0.8496 -0.1880 -1.2048
   66GLOH    O3 9103   3.416   9.583   2.184 -0.0660 -0.4262 -0.3479
   66GLOH   H01 9104   3.410   9.655   2.118 -0.5336 -0.0049  0.1505
   67GLOH   H03 9105   4.475   1.110   1.885  2.7539 -1.5125  0.3507
   67GLOH    O1 9106   4.433   1.030   1.848  0.4721 -0.0330 -0.3273
   67GLOH    C1 9107   4.425   1.056   1.705 -0.3231 -0.2570 -0.0713
   67GLOH   H02 9108   4.323   1.089   1.685 -0.2107 -0.0563 -0.3323
   67GLOH   H08 9109   4.429   0.970   1.638  1.0841  1.9657 -2.9859
   67GLOH    C2 9110   4.516   1.171   1.649  0.2807 -0.6612  0.4523
   67GLOH   H04 9111   4.620   1.138   1.662  1.1008  2.1459  1.4537
   67GLOH    O2 9112   4.495   1.196   1.511  0.1315  0.1551  0.1308
   67GLOH   H05 9113   4.407   1.169   1.480  0.9521 -1.9014 -0.4606
   67GLOH    C3 9114   4.504   1.294   1.735  0.1037 -0.5143 -0.0650
   67GLOH   H06 9115   4.410   1.350   1.728 -0.2533 -1.1000 -0.0062
   67GLOH   H07 9116   4.572   1.366   1.689 -0.1101  0.2730  0.8472
   67GLOH    O3 9117   4.550   1.265   1.865 -0.4084 -0.2876 -0.2387
   67GLOH   H01 9118   4.636   1.310   1.876 -0.3681 -0.8315  1.9313
   68GLOH   H03 9119   4.510   3.793   1.807  1.2455 -1.6984 -2.7122
   68GLOH    O1 9120   4.576   3.745   1.860  0.2669  0.0199  0.1863
   68GLOH    C1 9121   4.688   3.700   1.780  0.1116 -0.3688 -0.2669
   68GLOH   H02 9122   4.778   3.709   1.840 -0.6550 -1.9160  1.1722
   68GLOH   H08 9123   4.704   3.767   1.696  2.3062  0.0814  0.4824
   68GLOH    C2 9124   4.689   3.550   1.726 -1.1283 -0.1444 -0.1745
   68GLOH   H04 9125   4.797   3.531   1.723 -0.9661  0.8316 -0.8270
   68GLOH    O2 9126   4.627   3.456   1.812 -0.0899 -0.2689  0.2973
   68GLOH   H05 9127   4.668   3.451   1.900 -1.7403  2.5730  1.2809
   68GLOH    C3 9128   4.629   3.528   1.582  0.3502  0.2538 -0.2537
   68GLOH   H06 9129   4.628   3.422   1.556  0.9396  0.1261  0.2462
   68GLOH   H07 9130   4.695   3.570   1.507  1.6145 -1.2481 -0.0036
   68GLOH    O3 9131   4.497   3.565   1.559 -0.7396 -0.6950 -0.9558
   68GLOH   H01 9132   4.450   3.529   1.637 -0.8743 -0.8720 -1.1188
   69GLOH   H03 9133   3.135   2.027   1.290  3.0415 -1.5980  0.1236
   69GLOH    O1 9134   3.098   1.951   1.337  0.2164 -0.3073  0.0627
   69GLOH    C1 9135   3.181   1.922   1.454 -0.1936 -0.3280  0.3911
   69GLOH   H02 9136   3.277   1.880   1.424 -0.4067 -2.0095  1.9784
   69GLOH   H08 9137   3.122   1.854   1.515  0.0055  0.5147  1.5354
   69GLOH    C2 9138   3.200   2.048   1.533  0.1643 -0.3101 -0.4987
   69GLOH   H04 9139   3.223   2.022   1.638  2.1330  0.7233 -0.6363
   69GLOH    O2 9140   3.309   2.133   1.482  0.2464  0.5221 -0.3035
   69GLOH   H05 9141   3.293   2.227   1.499 -0.8124  0.2796  0.1011
   69GLOH    C3 9142   3.075   2.134   1.555 -0.1133 -0.4388  0.6822
   69GLOH   H06 9143   3.038   2.182   1.464  0.2018 -0.2227  0.6665
   69GLOH   H07 9144   3.106   2.219   1.614  0.0611  0.3395 -0.5030
   69GLOH    O3 9145   2.960   2.071   1.617  0.1262  0.8593 -0.4325
   69GLOH   H01 9146   2.898   2.143   1.640  0.0325  0.0840  1.8004
   70GLOH   H03 9147   3.655   9.920   3.084  1.6859  2.2618 -1.1780
   70GLOH    O1 9148   3.673   9.863   3.008  0.2302 -0.2735  0.3193
   70GLOH    C1 9149   3.709   9.943   2.890 -0.4046 -0.1508 -1.1525
   70GLOH   H02 9150   3.808   9.988   2.896 -0.2976 -0.4757 -0.4695
   70GLOH   H08 9151   3.654  10.037   2.879 -2.0591 -0.9663 -0.1004
   70GLOH    C2 9152   3.700   9.865   2.760  0.1233  0.4245  0.4774
   70GLOH   H04 9153   3.599   9.853   2.719  0.1987 -0.4025  0.5231
   70GLOH    O2 9154   3.769   9.946   2.661 -0.3534 -0.0811 -0.3241
   70GLOH   H05 9155   3.742  10.040   2.667 -2.5142 -0.5827 -1.6266
   70GLOH    C3 9156   3.763   9.724   2.762  0.5014 -0.5563  0.1051
   70GLOH   H06 9157   3.869   9.741   2.780  0.4658 -2.1725  1.8969
   70GLOH   H07 9158   3.738   9.673   2.668  0.2798 -1.5733  0.7136
   70GLOH    O3 9159   3.706   9.651   2.872 -0.3562  0.6675 -0.2235
   70GLOH   H01 9160   3.689   9.717   2.942  1.0339  0.0629  0.7101
   71GLOH   H03 9161   3.913   2.681   1.662  3.5230 -1.7621  0.2548
   71GLOH    O1 9162   3.926   2.735   1.742 -0.2073 -0.5401  0.1579
   71GLOH    C1 9163   3.897   2.650   1.860  0.2198 -0.4293 -0.4654
   71GLOH   H02 9164   3.827   2.570   1.834 -0.1382 -0.2189 -0.1571
   71GLOH   H08 9165   3.841   2.703   1.937  0.5028  0.9642 -1.1999
   71GLOH    C2 9166   4.025   2.586   1.914  0.2292 -0.4531 -0.0256
   71GLOH   H04 9167   4.092   2.667   1.948  0.1234 -0.7920  1.0020
   71GLOH    O2 9168   3.992   2.506   2.021  0.0381  0.2090  0.1142
   71GLOH   H05 9169   4.060   2.518   2.090  0.9106  0.7710 -0.8287
   71GLOH    C3 9170   4.107   2.509   1.808  0.1470 -0.8382 -0.2775
   71GLOH   H06 9171   4.183   2.457   1.867  0.9864  2.5031  1.6979
   71GLOH   H07 9172   4.161   2.581   1.745  0.1536 -0.3250  0.3105
   71GLOH    O3 9173   4.021   2.424   1.723  0.0558  0.2308  0.2251
   71GLOH   H01 9174   3.987   2.466   1.642  0.1516 -0.2587 -0.0759
   72GLOH   H03 9175   2.909   1.655   1.124  0.2181  0.6071 -1.2552
   72GLOH    O1 9176   2.907   1.577   1.065  0.5173 -0.0071 -0.4636
   72GLOH    C1 9177   2.867   1.609   0.934  0.3522  0.1867  0.3103
   72GLOH   H02 9178   2.954   1.620   0.870 -0.4092 -3.7392 -1.5685
   72GLOH   H08 9179   2.824   1.708   0.924 -0.2066 -0.1848 -1.1948
   72GLOH    C2 9180   2.782   1.492   0.864 -0.2068  0.3587 -0.7762
   72GLOH   H04 9181   2.680   1.491   0.904 -1.1524  0.5751 -3.0764
   72GLOH    O2 9182   2.754   1.538   0.729 -0.3344  0.1302  0.5802
   72GLOH   H05 9183   2.680   1.601   0.728 -1.0693 -0.7038 -1.7904
   72GLOH    C3 9184   2.849   1.356   0.873 -0.1184  0.2779  0.9620
   72GLOH   H06 9185   2.932   1.343   0.805 -0.9475  1.0834 -0.2353
   72GLOH   H07 9186   2.767   1.288   0.849  0.5821 -0.4644  0.6604
   72GLOH    O3 9187   2.912   1.334   1.000  0.4140 -0.3949  0.4066
   72GLOH   H01 9188   2.928   1.418   1.046  1.4289 -0.8252  0.8530
   73GLOH   H03 9189   3.572   0.078   2.592 -2.0832  1.3462 -0.4207
   73GLOH    O1 9190   3.604   0.151   2.648  0.5807  0.1590 -0.3092
   73GLOH    C1 9191   3.677   0.245   2.571 -0.5589 -0.6027 -0.0793
   73GLOH   H02 9192   3.627   0.251   2.474  0.2377  2.2018 -0.3650
   73GLOH   H08 9193   3.781   0.213   2.558 -1.1881 -2.4324 -0.8552
   73GLOH    C2 9194   3.674   0.394   2.624  0.4040  0.0187  0.2955
   73GLOH   H04 9195   3.571   0.409   2.661 -0.2309 -1.8481 -0.6367
   73GLOH    O2 9196   3.768   0.411   2.733  0.2219 -0.9630  0.4994
   73GLOH   H05 9197   3.715   0.396   2.813  0.0718  1.9364  1.0188
   73GLOH    C3 9198   3.699   0.504   2.515  0.4610  0.8774 -0.5529
   73GLOH   H06 9199   3.789   0.484   2.457  0.3706 -1.0770 -0.0709
   73GLOH   H07 9200   3.709   0.599   2.568  0.0628  0.7917 -0.3194
   73GLOH    O3 9201   3.595   0.518   2.417 -0.7434 -0.1271  0.6731
   73GLOH   H01 9202   3.620   0.603   2.376 -1.1699  0.0831  0.8522
   74GLOH   H03 9203   3.875   2.522   0.861  0.8789  0.4543  1.5857
   74GLOH    O1 9204   3.805   2.590   0.865  0.2800 -0.0873  0.5823
   74GLOH    C1 9205   3.848   2.717   0.919  0.3882 -0.3594 -0.5548
   74GLOH   H02 9206   3.905   2.703   1.011 -0.0453  0.4352 -0.1624
   74GLOH   H08 9207   3.760   2.772   0.952 -0.1458 -0.9906 -0.9211
   74GLOH    C2 9208   3.946   2.797   0.826 -0.0102 -0.1690  0.0512
   74GLOH   H04 9209   4.022   2.727   0.790 -0.4050 -0.6858  0.2079
   74GLOH    O2 9210   3.866   2.847   0.719 -0.3601 -0.2366 -0.1100
   74GLOH   H05 9211   3.842   2.773   0.660  0.1434 -2.5991  2.5618
   74GLOH    C3 9212   4.003   2.910   0.913 -0.0820  0.8011  0.2321
   74GLOH   H06 9213   4.066   2.858   0.985 -0.5507 -0.2393 -0.0996
   74GLOH   H07 9214   3.926   2.959   0.973 -0.8576 -2.2556  1.8337
   74GLOH    O3 9215   4.092   2.998   0.845 -0.2783  0.5766  0.5571
   74GLOH   H01 9216   4.166   2.956   0.797 -2.3727  0.2779 -2.5270
   75GLOH   H03 9217   3.523   1.184   2.365 -0.5159 -1.2375  1.2559
   75GLOH    O1 9218   3.616   1.160   2.349 -0.6305 -0.6567 -0.3248
   75GLOH    C1 9219   3.707   1.207   2.450 -0.0789  0.0731  0.0757
   75GLOH   H02 9220   3.808   1.189   2.412  0.8654 -0.5783  2.7956
   75GLOH   H08 9221   3.699   1.160   2.548 -2.0172  2.9191  1.3568
   75GLOH    C2 9222   3.683   1.357   2.469  0.8335 -0.1825  0.5093
   75GLOH   H04 9223   3.576   1.374   2.489  0.7494 -0.1303  0.0091
   75GLOH    O2 9224   3.762   1.407   2.584 -0.0252  0.4138 -0.1883
   75GLOH   H05 9225   3.688   1.406   2.647 -0.9163  1.3805 -1.1946
   75GLOH    C3 9226   3.709   1.418   2.326 -0.9607  0.3515 -0.2903
   75GLOH   H06 9227   3.685   1.524   2.327 -1.3243  0.2705  0.4821
   75GLOH   H07 9228   3.640   1.367   2.259 -1.6642 -1.8199  1.9846
   75GLOH    O3 9229   3.848   1.406   2.290 -0.4813 -0.0006 -0.2097
   75GLOH   H01 9230   3.876   1.317   2.261  1.0793  0.3491  0.1703
   76GLOH   H03 9231   4.634   3.759   1.077 -1.2178 -0.0895 -0.1817
   76GLOH    O1 9232   4.666   3.847   1.105 -0.3203 -0.4025 -0.2125
   76GLOH    C1 9233   4.590   3.877   1.224 -0.4800  0.2843 -0.2394
   76GLOH   H02 9234   4.511   3.946   1.195  0.5218  1.6961  0.3587
   76GLOH   H08 9235   4.655   3.929   1.293  0.5128 -0.1525 -0.8278
   76GLOH    C2 9236   4.538   3.757   1.301 -0.0711  0.2877 -0.3801
   76GLOH   H04 9237   4.619   3.685   1.312  2.0358  2.4874 -0.9839
   76GLOH    O2 9238   4.481   3.795   1.437  0.0729 -0.2415  0.5577
   76GLOH   H05 9239   4.474   3.715   1.491 -0.2310  0.8555  2.1886
   76GLOH    C3 9240   4.422   3.689   1.224 -0.5654 -0.7095 -0.7035
   76GLOH   H06 9241   4.335   3.751   1.247  0.8063  0.3804  1.7260
   76GLOH   H07 9242   4.403   3.587   1.257 -1.8648 -0.1467  0.3820
   76GLOH    O3 9243   4.439   3.691   1.084  0.2960  1.0369  0.5307
   76GLOH   H01 9244   4.353   3.675   1.039 -0.1880 -0.8691  2.0385
   77GLOH   H03 9245   3.576   8.527   2.077  0.4480 -0.3539 -0.2580
   77GLOH    O1 9246   3.641   8.534   2.004  0.3593  0.1467 -0.2951
   77GLOH    C1 9247   3.571   8.506   1.884 -0.1708  0.0613 -0.8569
   77GLOH   H02 9248   3.468   8.475   1.902  0.0312 -1.1483 -1.7368
   77GLOH   H08 9249   3.619   8.427   1.826 -0.6074  0.6276 -2.0208
   77GLOH    C2 9250   3.561   8.633   1.788  0.6943 -1.1442 -0.8956
   77GLOH   H04 9251   3.664   8.666   1.772 -0.2786  2.3295 -0.3230
   77GLOH    O2 9252   3.499   8.595   1.661  0.2634 -0.1080 -0.1630
   77GLOH   H05 9253   3.566   8.607   1.592  0.9633  0.0436  0.5303
   77GLOH    C3 9254   3.481   8.747   1.860 -0.0056  0.0376  0.5874
   77GLOH   H06 9255   3.501   8.843   1.811 -1.3067  0.5597  1.0638
   77GLOH   H07 9256   3.525   8.766   1.958 -0.4143 -1.7105  1.1268
   77GLOH    O3 9257   3.344   8.715   1.883  0.3238 -0.0968 -0.4798
   77GLOH   H01 9258   3.298   8.685   1.802 -0.9102  2.4175 -0.7640
   78GLOH   H03 9259   3.775   2.329   2.224 -0.4778 -1.8730  0.5125
   78GLOH    O1 9260   3.722   2.357   2.300 -0.2638  0.1883 -0.0649
   78GLOH    C1 9261   3.792   2.459   2.368 -0.4120 -0.1757 -0.0513
   78GLOH   H02 9262   3.897   2.464   2.338 -0.5529  2.8225 -0.1758
   78GLOH   H08 9263   3.791   2.444   2.476  1.3610  1.5885  0.2481
   78GLOH    C2 9264   3.731   2.594   2.346  0.5580  0.1019  0.3633
   78GLOH   H04 9265   3.629   2.586   2.386  1.0666 -1.4525  1.4050
   78GLOH    O2 9266   3.795   2.703   2.424 -0.2936 -0.1492  0.1814
   78GLOH   H05 9267   3.770   2.684   2.516  0.1418  0.2157  0.3733
   78GLOH    C3 9268   3.730   2.634   2.197  0.1140 -0.1613  1.0889
   78GLOH   H06 9269   3.667   2.555   2.156  0.7617 -0.3622  0.4731
   78GLOH   H07 9270   3.828   2.621   2.152  0.4651  1.9740  1.2173
   78GLOH    O3 9271   3.667   2.763   2.169 -0.2960 -0.0897 -0.7174
   78GLOH   H01 9272   3.574   2.740   2.190 -0.1562 -0.4857 -0.5168
   79GLOH   H03 9273   4.146   0.674   1.126 -0.1582  0.5379 -0.5880
   79GLOH    O1 9274   4.236   0.648   1.101 -0.2129  0.1636 -0.4043
   79GLOH    C1 9275   4.253   0.513   1.153 -0.2088  0.2996  0.0679
   79GLOH   H02 9276   4.285   0.524   1.256 -1.1393 -2.8676  0.7387
   79GLOH   H08 9277   4.331   0.456   1.103 -0.6597 -1.1621  1.0164
   79GLOH    C2 9278   4.117   0.433   1.144  0.5248 -0.1013 -0.7908
   79GLOH   H04 9279   4.131   0.337   1.196  0.4598  1.0742  1.4197
   79GLOH    O2 9280   4.012   0.509   1.212  0.7198  0.0109  0.5883
   79GLOH   H05 9281   3.956   0.441   1.252  0.5429 -0.7180 -0.8567
   79GLOH    C3 9282   4.099   0.407   0.992  0.1908  0.1505  0.1279
   79GLOH   H06 9283   4.184   0.353   0.950  2.0339  2.7889  0.3857
   79GLOH   H07 9284   4.096   0.503   0.940  1.1166 -0.6214 -1.3821
   79GLOH    O3 9285   3.983   0.333   0.957 -0.5497  0.2311  0.0222
   79GLOH   H01 9286   3.990   0.255   1.015 -1.9374 -0.6148 -0.9151
   80GLOH   H03 9287   3.866   9.716   1.839 -0.5126  0.2376 -0.1409
   80GLOH    O1 9288   3.800   9.644   1.847  0.0815 -0.3371 -0.4116
   80GLOH    C1 9289   3.853   9.560   1.947  0.2314  0.1481 -0.3117
   80GLOH   H02 9290   3.872   9.611   2.041 -1.2806 -0.7147  0.4936
   80GLOH   H08 9291   3.955   9.540   1.916  0.5521  0.8958  0.2753
   80GLOH    C2 9292   3.778   9.425   1.971  0.0292 -0.2553  0.1193
   80GLOH   H04 9293   3.778   9.365   1.879 -1.4915  0.6705 -0.5030
   80GLOH    O2 9294   3.836   9.353   2.087  0.3882  0.0343 -0.2861
   80GLOH   H05 9295   3.777   9.278   2.106  1.0670  0.2884  3.1915
   80GLOH    C3 9296   3.629   9.468   1.996 -0.6045  0.0408  0.1843
   80GLOH   H06 9297   3.631   9.530   2.086  0.1972 -2.3050  1.8244
   80GLOH   H07 9298   3.574   9.375   2.010  1.0278 -0.9899 -0.0149
   80GLOH    O3 9299   3.570   9.530   1.881  0.5507 -0.0307 -0.1081
   80GLOH   H01 9300   3.641   9.591   1.854 -0.8018  1.4714 -0.3286
   81GLOH   H03 9301   4.637   3.816   1.957 -0.6807 -2.0381  0.8544
   81GLOH    O1 9302   4.665   3.860   2.040 -0.3244 -0.1816 -0.2338
   81GLOH    C1 9303   4.552   3.909   2.110  0.1346 -0.2944  0.1638
   81GLOH   H02 9304   4.461   3.924   2.050 -0.3988 -2.3931  0.4077
   81GLOH   H08 9305   4.578   4.005   2.153 -0.1827 -1.3446  2.7751
   81GLOH    C2 9306   4.513   3.821   2.230 -0.1409  0.1340 -0.1565
   81GLOH   H04 9307   4.601   3.805   2.295 -2.3006 -3.2745  2.0613
   81GLOH    O2 9308   4.407   3.893   2.303 -0.0522  0.2200 -0.3013
   81GLOH   H05 9309   4.367   3.828   2.362  1.4087 -3.3764 -3.0813
   81GLOH    C3 9310   4.466   3.686   2.173 -0.3895  0.7239 -0.2207
   81GLOH   H06 9311   4.559   3.636   2.148 -0.6323 -0.3127  0.8847
   81GLOH   H07 9312   4.407   3.702   2.083  0.3416 -0.9680 -1.0161
   81GLOH    O3 9313   4.390   3.598   2.254 -0.0201 -0.4386 -0.0734
   81GLOH   H01 9314   4.369   3.518   2.202 -0.9543 -1.4643  1.7890
   82GLOH   H03 9315   3.147   0.019   1.604 -0.1812 -0.6672  3.6558
   82GLOH    O1 9316   3.053   0.044   1.602 -0.0140 -0.0451 -0.0472
   82GLOH    C1 9317   3.013   0.113   1.482 -0.5135 -0.0053  0.4194
   82GLOH   H02 9318   2.909   0.088   1.465 -0.3444  0.9722 -2.1708
   82GLOH   H08 9319   3.066   0.068   1.398 -0.4951 -2.4324  1.6893
   82GLOH    C2 9320   3.029   0.267   1.492  0.2140  0.2598  0.1657
   82GLOH   H04 9321   2.975   0.290   1.586 -0.3605 -0.0750 -0.0797
   82GLOH    O2 9322   3.173   0.289   1.499 -0.3827  0.1871 -0.3056
   82GLOH   H05 9323   3.198   0.370   1.547  2.5486 -0.7124 -0.2179
   82GLOH    C3 9324   2.982   0.351   1.365 -0.4261 -0.4568 -1.0201
   82GLOH   H06 9325   3.046   0.331   1.279  0.3919 -0.4030 -0.4317
   82GLOH   H07 9326   3.002   0.457   1.380  3.6816 -1.5966  2.5919
   82GLOH    O3 9327   2.850   0.331   1.328 -0.2629 -0.1511 -0.0251
   82GLOH   H01 9328   2.834   0.387   1.249  0.4944 -2.4560 -1.8939
   83GLOH   H03 9329   4.888   1.892   1.814  2.8590  0.6697 -0.1805
   83GLOH    O1 9330   4.895   1.805   1.769  0.0687  0.1496  0.2961
   83GLOH    C1 9331   4.941   1.708   1.867 -0.9665 -0.5835 -0.6560
   83GLOH   H02 9332   5.032   1.749   1.911 -3.1100  2.4162  1.1911
   83GLOH   H08 9333   4.973   1.612   1.826 -0.9675 -0.9187  0.1262
   83GLOH    C2 9334   4.842   1.675   1.981 -0.1239 -0.1666 -0.1686
   83GLOH   H04 9335   4.898   1.608   2.048  0.8730  0.1785 -0.6352
   83GLOH    O2 9336   4.814   1.796   2.061 -0.1208 -0.0807 -0.0466
   83GLOH   H05 9337   4.758   1.776   2.138 -0.7508 -0.4879 -0.6050
   83GLOH    C3 9338   4.712   1.604   1.942 -0.1705 -0.3681 -0.4963
   83GLOH   H06 9339   4.649   1.676   1.890 -0.6774 -0.6723 -0.3116
   83GLOH   H07 9340   4.654   1.598   2.033 -2.3165 -2.3707 -1.9308
   83GLOH    O3 9341   4.730   1.481   1.867 -0.0589 -0.1835 -0.2997
   83GLOH   H01 9342   4.766   1.517   1.784  0.2114  0.2199 -0.0067
   84GLOH   H03 9343   3.576   0.913   1.650  0.9275  2.6043 -1.3951
   84GLOH    O1 9344   3.622   0.861   1.581  0.0493 -0.0918 -0.0016
   84GLOH    C1 9345   3.520   0.783   1.508  0.1912 -0.7035 -0.8231
   84GLOH   H02 9346   3.442   0.846   1.465 -0.7346 -3.0841 -2.7813
   84GLOH   H08 9347   3.458   0.719   1.571 -0.2830  0.4348 -0.1133
   84GLOH    C2 9348   3.588   0.690   1.410  0.7230  0.2951  0.2606
   84GLOH   H04 9349   3.662   0.633   1.469 -0.0799  0.5758  1.5524
   84GLOH    O2 9350   3.495   0.597   1.351  0.2315  0.4995 -0.3686
   84GLOH   H05 9351   3.417   0.641   1.313  0.0988 -0.7684 -1.5895
   84GLOH    C3 9352   3.664   0.770   1.295  0.4632 -0.1353 -0.3455
   84GLOH   H06 9353   3.703   0.862   1.338 -1.9746  0.9009 -0.2945
   84GLOH   H07 9354   3.603   0.806   1.212  1.0509  1.0352 -0.2759
   84GLOH    O3 9355   3.774   0.692   1.239 -0.1096  0.2923 -0.1431
   84GLOH   H01 9356   3.732   0.621   1.188  0.2181  0.9896 -1.4014
   85GLOH   H03 9357   3.304   3.751   2.559  0.4679 -3.2343 -0.8874
   85GLOH    O1 9358   3.221   3.722   2.601 -0.0106 -0.2773  0.3879
   85GLOH    C1 9359   3.177   3.816   2.703 -0.2503  0.1302 -0.4705
   85GLOH   H02 9360   3.250   3.896   2.710  0.3052 -0.2471 -1.7937
   85GLOH   H08 9361   3.173   3.755   2.794  4.3195  0.7217  0.2771
   85GLOH    C2 9362   3.035   3.872   2.678  0.3265  0.7282 -0.1328
   85GLOH   H04 9363   3.026   3.961   2.742 -0.2326 -0.4799  1.5195
   85GLOH    O2 9364   3.028   3.921   2.541 -0.3694  0.3550 -0.1070
   85GLOH   H05 9365   3.067   3.849   2.490 -0.8857  0.9450 -1.3411
   85GLOH    C3 9366   2.913   3.779   2.709 -0.4185  0.5384 -0.1267
   85GLOH   H06 9367   2.923   3.699   2.637  1.4235  0.2620  0.4136
   85GLOH   H07 9368   2.816   3.829   2.700 -0.0824  1.3498  0.6433
   85GLOH    O3 9369   2.917   3.723   2.843  0.2733 -0.3451 -0.0863
   85GLOH   H01 9370   2.946   3.784   2.913 -1.3025  1.4569 -0.9553
   86GLOH   H03 9371   3.849   3.703   0.715  1.2146  0.0179  1.4573
   86GLOH    O1 9372   3.921   3.677   0.655  0.2536 -0.0592  0.3327
   86GLOH    C1 9373   4.039   3.683   0.726  0.1197 -0.0502  0.4128
   86GLOH   H02 9374   4.056   3.780   0.773  2.0959 -0.5630  0.8005
   86GLOH   H08 9375   4.122   3.673   0.657 -1.2277 -0.6487 -1.1516
   86GLOH    C2 9376   4.065   3.573   0.834  0.0932 -0.7368 -0.1815
   86GLOH   H04 9377   3.986   3.577   0.911  0.7130 -0.8184  0.4712
   86GLOH    O2 9378   4.063   3.441   0.777 -0.7168  0.2025  0.0017
   86GLOH   H05 9379   4.064   3.377   0.850 -1.4733 -0.7328 -0.7857
   86GLOH    C3 9380   4.203   3.605   0.901 -0.5406  0.4749  0.1190
   86GLOH   H06 9381   4.267   3.638   0.819  0.7436 -2.2483 -0.0372
   86GLOH   H07 9382   4.251   3.517   0.943  1.5479  1.5130 -0.0259
   86GLOH    O3 9383   4.192   3.716   0.995  0.2745 -0.4003  0.5974
   86GLOH   H01 9384   4.098   3.737   1.009  0.5904 -0.0618  2.3230
   87GLOH   H03 9385   3.756   9.755   0.976 -0.6921 -1.5781  0.9087
   87GLOH    O1 9386   3.689   9.752   0.906  0.0948  0.0174  0.0677
   87GLOH    C1 9387   3.581   9.675   0.960  0.0366 -0.5152 -0.4432
   87GLOH   H02 9388   3.490   9.709   0.912 -0.0689  1.3726  1.0608
   87GLOH   H08 9389   3.567   9.692   1.067  1.4771 -0.0718 -0.3141
   87GLOH    C2 9390   3.606   9.526   0.942  0.2615 -0.0666 -0.2225
   87GLOH   H04 9391   3.696   9.505   1.002  0.2146  1.0392  0.2365
   87GLOH    O2 9392   3.493   9.460   0.992  0.1520 -0.1754  0.6943
   87GLOH   H05 9393   3.509   9.369   1.021 -0.3903 -1.1785 -1.9931
   87GLOH    C3 9394   3.631   9.495   0.787  0.5722 -0.4835 -0.3761
   87GLOH   H06 9395   3.652   9.388   0.784  0.1836 -0.7506  3.2424
   87GLOH   H07 9396   3.722   9.548   0.761  1.1715 -0.1847  2.1364
   87GLOH    O3 9397   3.522   9.533   0.709 -0.2894  0.7404  0.0011
   87GLOH   H01 9398   3.550   9.597   0.640  1.9552  0.8172  0.9544
   88GLOH   H03 9399   3.708   3.562   2.533  1.3456  0.0982 -0.4344
   88GLOH    O1 9400   3.676   3.636   2.588 -0.1347 -0.4865 -0.4898
   88GLOH    C1 9401   3.580   3.588   2.683  0.1887  0.4008  0.1220
   88GLOH   H02 9402   3.510   3.526   2.627  0.7868  0.5532 -0.8071
   88GLOH   H08 9403   3.523   3.668   2.732  1.1877  1.7545 -0.9065
   88GLOH    C2 9404   3.641   3.501   2.797  0.8275 -0.4189 -0.2427
   88GLOH   H04 9405   3.726   3.554   2.842 -0.6088  0.7441  1.1624
   88GLOH    O2 9406   3.532   3.487   2.895  1.0182 -0.1865  0.5196
   88GLOH   H05 9407   3.544   3.546   2.972 -1.0595  1.0602 -0.0770
   88GLOH    C3 9408   3.704   3.367   2.735  0.1815 -0.8890 -0.1298
   88GLOH   H06 9409   3.784   3.390   2.664  1.1665  0.4119  1.3454
   88GLOH   H07 9410   3.623   3.331   2.672  2.6188 -1.2737 -3.1074
   88GLOH    O3 9411   3.756   3.276   2.832 -0.1803  0.0377 -0.3244
   88GLOH   H01 9412   3.797   3.332   2.900  0.1055  1.7201 -1.8610
   89GLOH   H03 9413   4.039   1.524   1.095  0.5267 -0.3483  1.8863
   89GLOH    O1 9414   4.002   1.610   1.124  0.1742  0.4197 -0.6786
   89GLOH    C1 9415   4.015   1.631   1.269  0.3084 -0.5869  0.5622
   89GLOH   H02 9416   4.016   1.737   1.295 -3.5864 -0.6164  1.0740
   89GLOH   H08 9417   4.116   1.600   1.297  2.0043  1.6823 -2.7272
   89GLOH    C2 9418   3.906   1.561   1.361  0.2056  0.2338 -0.1096
   89GLOH   H04 9419   3.911   1.454   1.338 -0.5349  0.0929  0.3717
   89GLOH    O2 9420   3.941   1.575   1.504  0.3168  0.6082  0.1392
   89GLOH   H05 9421   3.875   1.636   1.542 -0.4849  0.0920 -0.3984
   89GLOH    C3 9422   3.768   1.604   1.308 -0.3857  0.4208  0.1772
   89GLOH   H06 9423   3.693   1.559   1.373  0.7313 -1.0574  0.4658
   89GLOH   H07 9424   3.738   1.543   1.222 -3.6740 -0.8941  2.1810
   89GLOH    O3 9425   3.754   1.750   1.305 -0.4224 -0.0788  0.4992
   89GLOH   H01 9426   3.786   1.780   1.218 -0.2086  0.6808  0.8424
   90GLOH   H03 9427   3.752   0.740   1.935 -0.1670 -0.5543  0.5834
   90GLOH    O1 9428   3.794   0.654   1.917  0.0537 -0.2791 -0.2184
   90GLOH    C1 9429   3.709   0.548   1.883 -0.0398 -0.0419  0.8135
   90GLOH   H02 9430   3.664   0.563   1.785  0.2589  1.2833  0.8798
   90GLOH   H08 9431   3.624   0.551   1.951 -0.8025  2.0091 -0.2016
   90GLOH    C2 9432   3.781   0.413   1.892 -0.6413 -0.4063  0.7792
   90GLOH   H04 9433   3.825   0.397   1.991  2.0891 -1.8077 -0.6046
   90GLOH    O2 9434   3.689   0.297   1.881 -0.9740  0.3059  0.1342
   90GLOH   H05 9435   3.738   0.220   1.850 -0.9444  0.1163  0.6470
   90GLOH    C3 9436   3.891   0.402   1.786 -0.5491 -0.2998  0.1297
   90GLOH   H06 9437   3.951   0.318   1.823  0.7077  0.2263 -0.6965
   90GLOH   H07 9438   3.954   0.490   1.794 -1.3327  0.5223 -2.3158
   90GLOH    O3 9439   3.853   0.387   1.646  0.1370  0.1740 -0.0123
   90GLOH   H01 9440   3.868   0.468   1.595 -1.1519  1.0531  0.9773
   91GLOH   H03 9441   3.954   3.653   1.817 -0.9542  0.8998 -0.3042
   91GLOH    O1 9442   3.911   3.595   1.883  0.5574 -0.0580 -0.1369
   91GLOH    C1 9443   3.986   3.576   2.002  0.5428  1.4284  0.7673
   91GLOH   H02 9444   3.972   3.662   2.068  0.7085  0.1737  2.4671
   91GLOH   H08 9445   4.090   3.575   1.968  0.8392 -3.6074  1.4805
   91GLOH    C2 9446   3.952   3.453   2.085  0.4669  0.0435 -0.0190
   91GLOH   H04 9447   3.989   3.372   2.020  0.1947 -0.3480  0.3105
   91GLOH    O2 9448   4.029   3.470   2.205 -0.2236  0.5648 -0.0093
   91GLOH   H05 9449   4.006   3.552   2.251  0.3211  2.2829 -2.7183
   91GLOH    C3 9450   3.799   3.430   2.108  0.0398  0.4846 -0.0445
   91GLOH   H06 9451   3.755   3.459   2.013 -0.5985  1.0390  0.4201
   91GLOH   H07 9452   3.760   3.500   2.181 -1.9919 -0.4127 -0.2508
   91GLOH    O3 9453   3.772   3.297   2.155 -0.3995  0.5236  0.0496
   91GLOH   H01 9454   3.805   3.237   2.086  2.8155 -0.6491  2.4708
   92GLOH   H03 9455   3.675   3.774   1.252  0.9343 -1.5462  1.3965
   92GLOH    O1 9456   3.717   3.861   1.240 -0.1123 -1.2387 -0.2835
   92GLOH    C1 9457   3.611   3.955   1.185 -0.3205 -0.1959 -0.6617
   92GLOH   H02 9458   3.546   3.977   1.270  0.7335  0.3466  0.0136
   92GLOH   H08 9459   3.550   3.924   1.100  1.1649  0.6295 -2.0640
   92GLOH    C2 9460   3.658   4.099   1.154  0.8767 -0.2277 -0.0877
   92GLOH   H04 9461   3.721   4.102   1.064 -1.3655  1.1143 -1.6879
   92GLOH    O2 9462   3.541   4.181   1.130  1.0419 -0.6732 -0.3466
   92GLOH   H05 9463   3.520   4.188   1.036  3.1051  2.3958 -0.6380
   92GLOH    C3 9464   3.741   4.152   1.275  0.3992  0.1757 -0.1695
   92GLOH   H06 9465   3.675   4.154   1.362 -1.7088  0.8723 -1.7421
   92GLOH   H07 9466   3.763   4.255   1.248 -0.3415  1.0164  2.2471
   92GLOH    O3 9467   3.864   4.075   1.299  0.0246  0.4655  0.2876
   92GLOH   H01 9468   3.837   3.985   1.275  2.8559 -0.2432 -0.3165
   93GLOH   H03 9469   4.000   9.851   1.761 -1.2301  0.3725 -0.7382
   93GLOH    O1 9470   3.973   9.800   1.840 -0.5558  0.2759 -0.5659
   93GLOH    C1 9471   3.965   9.894   1.944 -0.1508  0.3818  0.2472
   93GLOH   H02 9472   4.064   9.940   1.941 -1.1771  2.8036  2.0270
   93GLOH   H08 9473   3.951   9.848   2.041  0.1970 -1.0319 -0.3563
   93GLOH    C2 9474   3.859  10.004   1.940  0.0984  0.1079  0.1346
   93GLOH   H04 9475   3.879  10.068   2.027 -0.5346 -0.2331  0.5373
   93GLOH    O2 9476   3.863  10.097   1.832  0.1831  0.6284  0.2323
   93GLOH   H05 9477   3.857  10.050   1.747  0.2054 -0.0010  0.5706
   93GLOH    C3 9478   3.718   9.945   1.963  0.0707 -0.0207  1.0609
   93GLOH   H06 9479   3.676   9.893   1.877  0.1535  2.1976 -0.3686
   93GLOH   H07 9480   3.653  10.032   1.971  2.6268  1.8440  2.4134
   93GLOH    O3 9481   3.710   9.862   2.082  0.3288 -0.1146  0.1295
   93GLOH   H01 9482   3.619   9.831   2.094  1.4662 -3.1735  1.4218
   94GLOH   H03 9483   4.594   1.889   2.238  0.2558 -0.9365 -0.4161
   94GLOH    O1 9484   4.559   1.925   2.155 -0.6322  0.7406  0.6664
   94GLOH    C1 9485   4.422   1.969   2.177  0.4647  0.0158 -0.4049
   94GLOH   H02 9486   4.435   2.062   2.232 -2.2313  0.7077 -0.8655
   94GLOH   H08 9487   4.369   1.896   2.239 -0.0262  0.5309 -0.2159
   94GLOH    C2 9488   4.341   2.000   2.048 -0.2458  0.8214  0.0512
   94GLOH   H04 9489   4.247   2.054   2.067 -0.8803 -0.3367  0.1982
   94GLOH    O2 9490   4.425   2.090   1.971  0.4918 -0.4705 -0.1810
   94GLOH   H05 9491   4.515   2.066   1.999  1.2200  2.6271  0.3653
   94GLOH    C3 9492   4.304   1.868   1.976 -0.4125  0.1878  0.4001
   94GLOH   H06 9493   4.372   1.796   2.021 -0.0269  0.6426  0.5611
   94GLOH   H07 9494   4.319   1.873   1.868  2.0069 -0.1346  0.6809
   94GLOH    O3 9495   4.168   1.838   2.003  0.8794 -0.1935 -0.0289
   94GLOH   H01 9496   4.175   1.770   2.072  0.5802  0.1831  0.3799
   95GLOH   H03 9497   3.696   3.591   1.315  0.1613  0.7019 -0.1636
   95GLOH    O1 9498   3.626   3.636   1.264 -0.5060 -0.3873 -0.2226
   95GLOH    C1 9499   3.505   3.619   1.343 -0.2906  0.4647  0.2020
   95GLOH   H02 9500   3.436   3.704   1.347  1.9627  2.3311  0.8713
   95GLOH   H08 9501   3.524   3.594   1.448  0.3581 -0.4307 -0.1280
   95GLOH    C2 9502   3.425   3.499   1.308 -0.3321 -0.3331  0.5422
   95GLOH   H04 9503   3.494   3.413   1.301 -0.7545 -0.6595  0.4063
   95GLOH    O2 9504   3.322   3.472   1.407 -0.4114 -0.1006  0.2137
   95GLOH   H05 9505   3.349   3.389   1.450  1.8364  0.0853 -0.7871
   95GLOH    C3 9506   3.352   3.532   1.173  0.6057  0.6812  0.5841
   95GLOH   H06 9507   3.421   3.574   1.100 -1.0446  0.9629 -0.8472
   95GLOH   H07 9508   3.278   3.609   1.195 -0.5766  0.0251 -0.9929
   95GLOH    O3 9509   3.299   3.410   1.115  0.6606  0.9757 -0.2417
   95GLOH   H01 9510   3.312   3.332   1.172 -0.7543 -0.4905 -1.8821
   96GLOH   H03 9511   3.194   0.736   1.331 -1.8341  0.9649 -2.2263
   96GLOH    O1 9512   3.263   0.684   1.286 -0.3839  0.8518  0.0516
   96GLOH    C1 9513   3.209   0.628   1.164  0.1318  0.0126 -0.4518
   96GLOH   H02 9514   3.107   0.597   1.184  0.5600 -0.7709  0.5639
   96GLOH   H08 9515   3.266   0.540   1.131 -1.8396 -1.4537 -0.0236
   96GLOH    C2 9516   3.192   0.724   1.044  0.1850  0.0847 -0.4026
   96GLOH   H04 9517   3.130   0.680   0.964  1.0602 -1.3451 -0.3143
   96GLOH    O2 9518   3.112   0.835   1.081  0.4570 -0.4742 -0.2350
   96GLOH   H05 9519   3.025   0.834   1.037  0.2983  0.3826  0.0459
   96GLOH    C3 9520   3.327   0.768   0.992 -0.2303  0.2668 -0.5752
   96GLOH   H06 9521   3.391   0.793   1.076 -2.4387  0.5009  1.0729
   96GLOH   H07 9522   3.321   0.859   0.932  1.5681  2.6895  2.7929
   96GLOH    O3 9523   3.396   0.659   0.929  0.0964 -0.1715  0.1846
   96GLOH   H01 9524   3.346   0.610   0.861 -1.9386 -0.3022  1.7106
   97GLOH   H03 9525   4.673   4.025   0.855  0.4152  1.4202  1.5941
   97GLOH    O1 9526   4.584   4.063   0.842 -0.0456 -0.1836 -0.2475
   97GLOH    C1 9527   4.487   3.956   0.843 -0.5907 -0.2184 -0.1946
   97GLOH   H02 9528   4.491   3.902   0.937  0.3181  1.0286  0.5055
   97GLOH   H08 9529   4.511   3.884   0.764 -2.4705  0.7271 -1.6727
   97GLOH    C2 9530   4.354   4.012   0.804  0.2556  0.5296  0.1217
   97GLOH   H04 9531   4.293   3.921   0.808  0.1264  0.5778 -0.8134
   97GLOH    O2 9532   4.298   4.111   0.896 -0.7902 -0.1127 -0.1008
   97GLOH   H05 9533   4.310   4.079   0.987  1.6141 -0.0870 -0.3850
   97GLOH    C3 9534   4.341   4.063   0.662 -0.7523  0.5101  0.6510
   97GLOH   H06 9535   4.238   4.079   0.629 -0.7346 -1.4350 -0.4444
   97GLOH   H07 9536   4.373   3.982   0.596 -0.2702  2.6858 -1.8702
   97GLOH    O3 9537   4.411   4.183   0.640  0.2053 -0.1721 -0.5136
   97GLOH   H01 9538   4.503   4.180   0.673  0.3668  3.0442 -0.5157
   98GLOH   H03 9539   4.197   3.458   1.475 -0.4404  0.7988  0.1460
   98GLOH    O1 9540   4.260   3.477   1.403  0.0227  0.3074  0.4264
   98GLOH    C1 9541   4.217   3.418   1.273 -1.0637  0.9093 -0.3732
   98GLOH   H02 9542   4.235   3.485   1.189 -0.9749 -0.2180 -1.2796
   98GLOH   H08 9543   4.108   3.406   1.279 -0.9456 -0.3037 -0.5109
   98GLOH    C2 9544   4.291   3.283   1.242 -0.1924 -0.5835 -0.1778
   98GLOH   H04 9545   4.293   3.218   1.331 -0.7781 -0.3270  0.0251
   98GLOH    O2 9546   4.241   3.214   1.127 -0.2527 -0.1685 -0.4939
   98GLOH   H05 9547   4.273   3.123   1.137  0.5374 -0.0904 -2.0279
   98GLOH    C3 9548   4.439   3.324   1.213 -1.1458 -0.5308 -0.0290
   98GLOH   H06 9549   4.436   3.393   1.129 -0.2550  0.4866  0.7527
   98GLOH   H07 9550   4.486   3.230   1.186 -1.6566 -0.7418 -0.1893
   98GLOH    O3 9551   4.499   3.373   1.338  0.8163  0.3341  0.2219
   98GLOH   H01 9552   4.428   3.409   1.393  0.4716  0.0645 -0.0425
   99GLOH   H03 9553   3.913   1.378   2.588  0.8333  2.1311  0.6595
   99GLOH    O1 9554   4.007   1.355   2.581  0.3859  0.5131 -0.2472
   99GLOH    C1 9555   4.097   1.415   2.678 -0.2919  0.1144 -0.1876
   99GLOH   H02 9556   4.080   1.387   2.782  1.6016 -0.7338 -0.0842
   99GLOH   H08 9557   4.086   1.523   2.684 -0.7613 -0.0491  2.4207
   99GLOH    C2 9558   4.246   1.392   2.655  0.2941  0.5453 -0.0907
   99GLOH   H04 9559   4.300   1.460   2.722  1.3988 -0.3947  0.0001
   99GLOH    O2 9560   4.273   1.255   2.693  0.0561 -0.1053 -0.7206
   99GLOH   H05 9561   4.205   1.195   2.657  1.4657 -0.4385 -2.9402
   99GLOH    C3 9562   4.284   1.423   2.513  0.9222  0.0791 -0.1419
   99GLOH   H06 9563   4.234   1.351   2.449  1.1380 -1.1523  1.0587
   99GLOH   H07 9564   4.391   1.412   2.497  1.0190  0.1491  0.4498
   99GLOH    O3 9565   4.243   1.556   2.481  0.3422  0.1998 -0.0135
   99GLOH   H01 9566   4.146   1.565   2.486  0.0755 -2.9143  1.5427
  100GLOH   H03 9567   3.497   9.401   0.648  1.1870  0.8142 -1.2176
  100GLOH    O1 9568   3.481   9.323   0.591  0.9222 -0.2826  0.3149
  100GLOH    C1 9569   3.498   9.371   0.455  0.5531 -0.6752  0.6809
  100GLOH   H02 9570   3.597   9.410   0.431  0.7268 -2.2195 -1.2082
  100GLOH   H08 9571   3.426   9.451   0.436  1.0067 -0.7000 -1.2858
  100GLOH    C2 9572   3.478   9.264   0.343 -0.2084 -0.0032  0.3856
  100GLOH   H04 9573   3.411   9.185   0.380  1.5187 -1.2448  0.9075
  100GLOH    O2 9574   3.431   9.325   0.221  0.4251  0.6385  0.2962
  100GLOH   H05 9575   3.367   9.398   0.233 -0.4864 -0.5500  3.1591
  100GLOH    C3 9576   3.608   9.188   0.314  0.5359  0.1363  0.6079
  100GLOH   H06 9577   3.669   9.271   0.277  1.0412  0.2956  1.7638
  100GLOH   H07 9578   3.605   9.115   0.233 -1.8913  1.8149 -0.8972
  100GLOH    O3 9579   3.656   9.131   0.442  0.3828 -0.0857  0.4333
  100GLOH   H01 9580   3.587   9.073   0.479  1.4399 -0.7061  1.4762
  101GLOH   H03 9581   3.985   1.135   2.298  0.4689 -0.8932  0.0727
  101GLOH    O1 9582   3.949   1.166   2.213 -0.0214 -0.0818  0.5739
  101GLOH    C1 9583   4.051   1.145   2.120  0.3992 -0.2418 -0.1128
  101GLOH   H02 9584   4.016   1.079   2.041  1.5087 -0.4369 -0.4493
  101GLOH   H08 9585   4.141   1.105   2.166  0.0055  0.2227  1.1010
  101GLOH    C2 9586   4.105   1.275   2.054  0.5017 -0.8511  0.2226
  101GLOH   H04 9587   4.012   1.328   2.027  0.9821  0.9810  2.0808
  101GLOH    O2 9588   4.180   1.368   2.134  0.5797  0.0854 -0.9096
  101GLOH   H05 9589   4.256   1.399   2.083  1.7866  0.1764  0.9074
  101GLOH    C3 9590   4.169   1.240   1.914 -0.3550  0.2489 -0.2037
  101GLOH   H06 9591   4.258   1.187   1.948  0.4500  2.0992  0.6484
  101GLOH   H07 9592   4.204   1.327   1.860  2.1948 -0.7549 -0.2377
  101GLOH    O3 9593   4.104   1.153   1.817  0.2647  0.2473 -0.2010
  101GLOH   H01 9594   4.120   1.058   1.832  2.4128  0.6128 -0.0703
  102GLOH   H03 9595   4.601   3.246   1.353  0.1803 -0.1272 -0.2778
  102GLOH    O1 9596   4.657   3.167   1.367  0.0180 -0.2492 -0.3162
  102GLOH    C1 9597   4.593   3.084   1.464  0.1574  0.5804  0.5404
  102GLOH   H02 9598   4.620   2.980   1.445  1.7785  1.0715  0.1132
  102GLOH   H08 9599   4.488   3.079   1.435 -0.3001 -0.2427  2.3141
  102GLOH    C2 9600   4.614   3.120   1.610  0.4887  0.2829  0.2327
  102GLOH   H04 9601   4.594   3.228   1.608 -1.4575 -0.0763 -2.0307
  102GLOH    O2 9602   4.513   3.051   1.689 -0.0042 -0.7346  0.5394
  102GLOH   H05 9603   4.541   3.044   1.781 -1.0109 -2.0836  0.7637
  102GLOH    C3 9604   4.753   3.113   1.667 -0.4361  0.2461  0.0526
  102GLOH   H06 9605   4.783   3.010   1.688  1.3662  0.6405 -0.4330
  102GLOH   H07 9606   4.755   3.153   1.769  1.3818 -1.4674  0.7269
  102GLOH    O3 9607   4.850   3.179   1.582  0.4627 -0.1108  0.2607
  102GLOH   H01 9608   4.813   3.176   1.491  2.3851  2.1984 -0.6617
  103GLOH   H03 9609   2.925   0.756   2.665  0.6376  0.2229 -0.2557
  103GLOH    O1 9610   2.926   0.705   2.748  0.3436  0.2029 -0.2656
  103GLOH    C1 9611   2.787   0.708   2.780  0.4128 -0.1641 -0.5710
  103GLOH   H02 9612   2.763   0.806   2.823 -2.4714 -1.7588  1.6600
  103GLOH   H08 9613   2.767   0.646   2.867  1.1898 -2.4111 -1.9496
  103GLOH    C2 9614   2.685   0.688   2.669  0.4566  0.4805 -0.7030
  103GLOH   H04 9615   2.695   0.762   2.588  0.2172 -0.9271 -2.0551
  103GLOH    O2 9616   2.694   0.560   2.599 -0.4057  0.2205  0.2293
  103GLOH   H05 9617   2.741   0.570   2.515  0.7829  0.7039  0.9261
  103GLOH    C3 9618   2.551   0.718   2.726 -0.2209 -0.3912 -0.2689
  103GLOH   H06 9619   2.541   0.665   2.821 -0.8807 -2.0519 -1.2493
  103GLOH   H07 9620   2.480   0.678   2.655 -0.6174 -0.4262  0.1457
  103GLOH    O3 9621   2.530   0.864   2.738  0.1539  0.7338  0.4672
  103GLOH   H01 9622   2.460   0.875   2.804 -1.6053 -0.1143 -1.1990
  104GLOH   H03 9623   3.247   3.910   1.165  0.1769  1.1350 -0.5005
  104GLOH    O1 9624   3.317   3.863   1.117  0.1958  0.1706  0.4508
  104GLOH    C1 9625   3.287   3.792   0.992 -0.0418  0.1250 -0.1691
  104GLOH   H02 9626   3.230   3.703   1.018  0.0415  0.7242  2.1673
  104GLOH   H08 9627   3.382   3.766   0.944  2.1066  0.2799  3.7911
  104GLOH    C2 9628   3.199   3.865   0.885  0.5044  0.3723 -0.2172
  104GLOH   H04 9629   3.104   3.886   0.937  0.0882 -1.2533 -0.2896
  104GLOH    O2 9630   3.256   3.991   0.842  0.5397  0.3019 -0.2342
  104GLOH   H05 9631   3.221   4.069   0.888 -1.5743 -0.3177 -0.7391
  104GLOH    C3 9632   3.159   3.785   0.759  0.2988 -0.4905 -0.4376
  104GLOH   H06 9633   3.246   3.740   0.712  0.3616  0.7929 -1.5699
  104GLOH   H07 9634   3.125   3.861   0.689  2.5101  3.2951  2.3753
  104GLOH    O3 9635   3.057   3.689   0.784 -0.3304 -0.0424 -0.0434
  104GLOH   H01 9636   3.089   3.609   0.829  0.9241  1.4166  1.7284
  105GLOH   H03 9637   3.781   4.651   1.365 -0.7473  0.5225 -0.2553
  105GLOH    O1 9638   3.823   4.665   1.452 -0.1945 -0.0361 -0.4347
  105GLOH    C1 9639   3.958   4.608   1.464 -0.1387 -0.3007 -0.1646
  105GLOH   H02 9640   4.021   4.644   1.545  1.4555 -0.7219 -1.1904
  105GLOH   H08 9641   4.014   4.642   1.377 -0.9397  0.2458 -0.4737
  105GLOH    C2 9642   3.952   4.454   1.460 -0.8737  0.4820 -0.4100
  105GLOH   H04 9643   3.875   4.427   1.386  0.5039 -0.0008 -1.6938
  105GLOH    O2 9644   4.088   4.409   1.427 -0.2021  0.0305 -0.0416
  105GLOH   H05 9645   4.090   4.374   1.336  1.5600  0.3464 -0.1378
  105GLOH    C3 9646   3.908   4.395   1.597  0.2166  0.3865  0.9464
  105GLOH   H06 9647   3.819   4.440   1.641 -0.2183 -0.7020  1.2092
  105GLOH   H07 9648   3.991   4.423   1.661  0.6058  3.7127 -0.8879
  105GLOH    O3 9649   3.882   4.255   1.591  0.1116  0.1231 -0.3649
  105GLOH   H01 9650   3.969   4.211   1.583  0.0618 -1.0306  3.9430
  106GLOH   H03 9651   4.043   1.954   1.464  0.4349 -0.9577  1.0304
  106GLOH    O1 9652   3.949   1.953   1.488  0.1025  0.0998 -0.1701
  106GLOH    C1 9653   3.909   2.080   1.541  0.3583 -0.0110 -0.7267
  106GLOH   H02 9654   3.803   2.096   1.523  0.0953  0.7599  1.3837
  106GLOH   H08 9655   3.964   2.156   1.484 -0.8269  1.4420  0.0486
  106GLOH    C2 9656   3.933   2.093   1.698  0.3337 -0.6674  0.5828
  106GLOH   H04 9657   3.892   2.192   1.724  1.3800  0.3211 -1.4520
  106GLOH    O2 9658   3.864   1.989   1.761 -0.5637  0.1802  0.0299
  106GLOH   H05 9659   3.925   1.916   1.780  0.2807  1.3417  1.8566
  106GLOH    C3 9660   4.082   2.092   1.740  0.6034 -0.0084 -0.5165
  106GLOH   H06 9661   4.129   2.006   1.694  0.4429 -0.2230 -0.2806
  106GLOH   H07 9662   4.097   2.073   1.847 -1.4091 -1.5587 -0.4855
  106GLOH    O3 9663   4.149   2.201   1.684 -0.2990  0.2152  0.3537
  106GLOH   H01 9664   4.104   2.284   1.708  1.0566  0.6863  1.2790
  107GLOH   H03 9665   3.537   4.108   0.357  0.1427 -0.1416 -0.0802
  107GLOH    O1 9666   3.615   4.054   0.378  0.1293 -0.1701 -0.1057
  107GLOH    C1 9667   3.637   4.068   0.519 -0.0467 -0.3103 -0.4480
  107GLOH   H02 9668   3.599   4.167   0.544 -2.3458 -0.8240 -1.8066
  107GLOH   H08 9669   3.740   4.074   0.554 -0.6489  1.6968  1.1054
  107GLOH    C2 9670   3.565   3.955   0.598 -0.8696  0.0279 -0.1210
  107GLOH   H04 9671   3.597   3.861   0.549  1.0433 -0.2240  1.5351
  107GLOH    O2 9672   3.604   3.957   0.739  0.0168 -0.3703  0.5490
  107GLOH   H05 9673   3.641   3.869   0.756 -0.4405 -1.0339 -1.7438
  107GLOH    C3 9674   3.419   3.965   0.575 -0.0877 -0.2553  0.2089
  107GLOH   H06 9675   3.372   3.874   0.611  2.3202 -2.1463 -1.1844
  107GLOH   H07 9676   3.405   3.961   0.467  2.2026  0.5553 -0.1533
  107GLOH    O3 9677   3.368   4.078   0.638  0.7715 -0.3054 -0.5060
  107GLOH   H01 9678   3.339   4.044   0.725  0.3109 -0.2269 -0.6239
  108GLOH   H03 9679   3.249   1.949   2.517  1.1574 -2.1214  0.1796
  108GLOH    O1 9680   3.158   1.915   2.508  0.3827 -0.1173  0.3055
  108GLOH    C1 9681   3.130   1.819   2.613 -0.0026 -0.5442  0.6360
  108GLOH   H02 9682   3.221   1.783   2.660 -0.6999  0.2148  2.6289
  108GLOH   H08 9683   3.076   1.739   2.562  1.6438  0.3511 -2.6366
  108GLOH    C2 9684   3.034   1.876   2.714  0.7965 -0.2270  0.2845
  108GLOH   H04 9685   3.080   1.960   2.768 -1.9007  0.3047  1.8432
  108GLOH    O2 9686   2.914   1.926   2.650  0.0200  0.0290  0.8217
  108GLOH   H05 9687   2.906   2.021   2.667  2.2310  0.2591  0.6724
  108GLOH    C3 9688   2.996   1.771   2.818  1.0541 -0.2639 -0.1112
  108GLOH   H06 9689   2.964   1.677   2.774 -0.4468  0.4686 -0.6186
  108GLOH   H07 9690   2.917   1.819   2.876  0.3725  0.5161 -1.6360
  108GLOH    O3 9691   3.105   1.742   2.895 -0.2218  0.1764  0.0882
  108GLOH   H01 9692   3.068   1.707   2.978 -0.5573 -0.2332 -0.2336
  109GLOH   H03 9693   4.694   2.796   1.817  0.0155  0.0953  0.8020
  109GLOH    O1 9694   4.626   2.734   1.784  0.0445  0.6204 -0.2515
  109GLOH    C1 9695   4.677   2.728   1.646  0.3103  0.1563  0.4385
  109GLOH   H02 9696   4.712   2.823   1.608  1.2227  0.3455  1.6983
  109GLOH   H08 9697   4.602   2.685   1.579  2.7261 -2.7205 -0.5589
  109GLOH    C2 9698   4.807   2.637   1.637 -0.3839 -0.3932  0.4974
  109GLOH   H04 9699   4.832   2.632   1.529 -3.8757  0.7040 -0.4261
  109GLOH    O2 9700   4.912   2.701   1.721 -0.8042  0.8448  0.6119
  109GLOH   H05 9701   4.981   2.739   1.664 -0.2177  0.7317  1.2468
  109GLOH    C3 9702   4.776   2.490   1.679 -0.2133 -0.1495 -0.5331
  109GLOH   H06 9703   4.734   2.484   1.780 -0.1708 -1.5229 -0.5831
  109GLOH   H07 9704   4.875   2.446   1.683  0.2098  0.8750  0.6369
  109GLOH    O3 9705   4.690   2.423   1.582 -0.5000  0.5835 -0.5411
  109GLOH   H01 9706   4.661   2.338   1.620 -0.1306  0.2656 -0.9638
  110GLOH   H03 9707   2.992   1.150   0.715 -0.1141  0.6549 -1.7832
  110GLOH    O1 9708   3.086   1.175   0.715  0.0477  0.1188 -0.3249
  110GLOH    C1 9709   3.176   1.066   0.746 -1.0024  0.1576  0.7194
  110GLOH   H02 9710   3.159   0.989   0.671  0.5520  1.8081 -1.4127
  110GLOH   H08 9711   3.150   1.028   0.844 -0.7374  2.7272  1.8293
  110GLOH    C2 9712   3.325   1.096   0.729 -0.9289 -0.4635  0.0560
  110GLOH   H04 9713   3.375   1.000   0.748  0.2493 -0.1615 -1.4324
  110GLOH    O2 9714   3.353   1.137   0.594  0.5854 -0.0554  0.1775
  110GLOH   H05 9715   3.337   1.055   0.545  1.9330 -0.7381  0.8579
  110GLOH    C3 9716   3.362   1.202   0.831  0.4135  0.3155  0.1194
  110GLOH   H06 9717   3.307   1.294   0.808 -1.8411 -0.6584  1.4351
  110GLOH   H07 9718   3.468   1.223   0.814  0.5112 -1.1412 -1.1274
  110GLOH    O3 9719   3.327   1.157   0.968 -0.5186  0.0140  0.2435
  110GLOH   H01 9720   3.281   1.232   1.009 -0.4769 -0.3518  0.9761
  111GLOH   H03 9721   4.331   2.001   0.383  0.6394 -0.4207  0.0842
  111GLOH    O1 9722   4.267   1.934   0.416  0.0260 -0.0207 -0.2789
  111GLOH    C1 9723   4.329   1.828   0.484 -0.4414  0.1555  0.0553
  111GLOH   H02 9724   4.418   1.785   0.439 -1.2374 -2.1796  0.6272
  111GLOH   H08 9725   4.258   1.746   0.489 -0.4469  0.0865 -1.1275
  111GLOH    C2 9726   4.367   1.862   0.630  0.0127  0.0137 -0.4176
  111GLOH   H04 9727   4.420   1.771   0.659  0.2287  0.4541  0.5876
  111GLOH    O2 9728   4.453   1.979   0.651 -0.0264 -0.4588  0.4188
  111GLOH   H05 9729   4.514   1.958   0.724  0.6903  0.5767  0.1387
  111GLOH    C3 9730   4.237   1.877   0.717  0.2858  0.0068 -0.6349
  111GLOH   H06 9731   4.182   1.960   0.673  1.4791  0.2673 -1.6294
  111GLOH   H07 9732   4.267   1.903   0.819  0.9194 -0.9001 -0.5902
  111GLOH    O3 9733   4.148   1.762   0.712 -0.0818  0.3709 -0.3201
  111GLOH   H01 9734   4.183   1.691   0.769 -1.9339 -0.4580 -0.1607
  112GLOH   H03 9735   3.958   4.130   0.376  1.0356 -0.1781  0.2232
  112GLOH    O1 9736   3.945   4.090   0.464 -0.2444  0.1360  0.1897
  112GLOH    C1 9737   3.971   3.950   0.470 -0.0584  0.7724 -0.9194
  112GLOH   H02 9738   3.889   3.888   0.505 -0.4317  1.1216 -1.1745
  112GLOH   H08 9739   4.053   3.937   0.541 -0.2393 -0.6516 -0.9692
  112GLOH    C2 9740   4.019   3.893   0.336  0.0781 -0.3158  0.4026
  112GLOH   H04 9741   3.962   3.946   0.259 -0.3406 -0.6554  0.4814
  112GLOH    O2 9742   4.161   3.913   0.329 -0.3810  0.2408  0.4732
  112GLOH   H05 9743   4.187   4.000   0.362 -2.1787  0.2235  2.0153
  112GLOH    C3 9744   3.991   3.742   0.329 -0.4038  0.1740  0.6967
  112GLOH   H06 9745   4.029   3.702   0.423  0.3600 -2.8241 -0.8088
  112GLOH   H07 9746   4.058   3.694   0.257  2.4339  1.5097  2.3662
  112GLOH    O3 9747   3.852   3.718   0.304 -0.2096  0.4341  0.1147
  112GLOH   H01 9748   3.848   3.729   0.208  2.7515  0.4524 -0.0626
  113GLOH   H03 9749   4.363   2.787   2.002 -3.2240  1.5615 -2.8795
  113GLOH    O1 9750   4.336   2.847   2.074 -0.1993  0.0193 -0.3142
  113GLOH    C1 9751   4.434   2.849   2.179  0.4941 -0.0642  0.6516
  113GLOH   H02 9752   4.532   2.863   2.133 -0.4860 -2.0791 -2.2064
  113GLOH   H08 9753   4.427   2.757   2.237 -0.2018  0.4744  1.4255
  113GLOH    C2 9754   4.396   2.964   2.274  0.2477 -0.2492  0.0129
  113GLOH   H04 9755   4.297   2.944   2.317 -0.3939  1.6067 -0.5848
  113GLOH    O2 9756   4.488   2.963   2.384 -0.1120  0.2151  0.4787
  113GLOH   H05 9757   4.538   3.046   2.375 -0.2691  0.3804  1.0567
  113GLOH    C3 9758   4.405   3.104   2.203  0.7343 -0.0888 -0.1102
  113GLOH   H06 9759   4.386   3.175   2.283 -0.4163 -0.0505 -0.4199
  113GLOH   H07 9760   4.318   3.113   2.138  1.1241 -0.5112 -0.6967
  113GLOH    O3 9761   4.534   3.129   2.145  0.4021  0.1737 -0.0670
  113GLOH   H01 9762   4.594   3.149   2.220  1.5929 -0.3868 -0.8608
  114GLOH   H03 9763   2.442   2.539   1.035  0.3419  0.2824  0.1408
  114GLOH    O1 9764   2.435   2.442   1.024  0.2834  0.3270 -0.2304
  114GLOH    C1 9765   2.563   2.393   0.986 -0.4375  0.1352 -0.0745
  114GLOH   H02 9766   2.645   2.434   1.045  0.5666 -1.3315 -0.4186
  114GLOH   H08 9767   2.581   2.420   0.882 -0.2997 -1.1693 -0.3988
  114GLOH    C2 9768   2.561   2.239   0.994  0.0422 -0.6766 -0.6786
  114GLOH   H04 9769   2.499   2.203   0.911 -1.3721  1.6718 -0.6912
  114GLOH    O2 9770   2.694   2.193   0.971 -0.6668 -0.0400 -0.7806
  114GLOH   H05 9771   2.693   2.173   0.876 -2.0904 -0.4063 -0.7078
  114GLOH    C3 9772   2.498   2.187   1.126  0.1231 -0.0354 -0.2297
  114GLOH   H06 9773   2.553   2.238   1.205  1.6877  0.2877 -1.4981
  114GLOH   H07 9774   2.520   2.082   1.146 -1.0679 -0.7984 -2.6825
  114GLOH    O3 9775   2.361   2.225   1.130  0.6311  0.3374 -0.0566
  114GLOH   H01 9776   2.358   2.302   1.071 -1.3220 -0.3003 -0.8424
  115GLOH   H03 9777   5.074   3.204   1.841  2.5937  0.5277  0.2922
  115GLOH    O1 9778   5.054   3.242   1.929 -0.1698 -0.5073  0.1517
  115GLOH    C1 9779   4.978   3.365   1.906 -0.1548  0.0995 -0.4498
  115GLOH   H02 9780   4.891   3.342   1.844 -1.2142  0.9422  0.6915
  115GLOH   H08 9781   5.026   3.444   1.850 -1.7896  1.6221  0.2494
  115GLOH    C2 9782   4.908   3.415   2.034 -0.7336  0.4877  0.8909
  115GLOH   H04 9783   4.983   3.472   2.092  0.2515  0.2541 -0.1287
  115GLOH    O2 9784   4.797   3.500   2.001 -0.2422 -0.9913 -0.0184
  115GLOH   H05 9785   4.813   3.596   2.011 -2.1030 -0.8227  1.5745
  115GLOH    C3 9786   4.860   3.306   2.131 -0.2738 -0.0964  0.5425
  115GLOH   H06 9787   4.771   3.252   2.098  0.3383 -0.5655 -0.3614
  115GLOH   H07 9788   4.834   3.357   2.224 -0.0642  0.5038  0.2712
  115GLOH    O3 9789   4.966   3.212   2.154  0.2598 -0.5209  0.0875
  115GLOH   H01 9790   5.018   3.216   2.072 -0.7045  1.6827 -0.4505
  116GLOH   H03 9791   3.453   9.054   1.591  0.4983 -0.2605 -0.1981
  116GLOH    O1 9792   3.453   9.002   1.509  0.6259  0.1668 -0.4650
  116GLOH    C1 9793   3.507   8.871   1.540 -0.2121  0.3573  0.3383
  116GLOH   H02 9794   3.425   8.801   1.557  1.5675 -2.3868 -1.9548
  116GLOH   H08 9795   3.575   8.878   1.625 -1.0292 -1.3839  1.1777
  116GLOH    C2 9796   3.578   8.816   1.412  0.3587  0.1931 -0.5221
  116GLOH   H04 9797   3.654   8.893   1.394  0.0808  0.8229  0.9027
  116GLOH    O2 9798   3.634   8.687   1.430 -0.1723  0.6455  0.3173
  116GLOH   H05 9799   3.680   8.646   1.355  0.9340 -2.4547  2.5869
  116GLOH    C3 9800   3.488   8.813   1.290 -0.7035 -0.1113 -0.5862
  116GLOH   H06 9801   3.419   8.731   1.314 -0.0107 -0.6187 -0.3283
  116GLOH   H07 9802   3.549   8.781   1.206  1.2705  0.2704  0.6714
  116GLOH    O3 9803   3.422   8.938   1.268  0.1076 -0.4646 -0.5828
  116GLOH   H01 9804   3.427   8.984   1.354  1.0103  0.0842 -0.9170
  117GLOH   H03 9805   3.512   1.360   1.349  0.7709 -1.1221 -0.1569
  117GLOH    O1 9806   3.484   1.340   1.441  0.0698  0.0078 -0.1175
  117GLOH    C1 9807   3.373   1.427   1.472 -0.5028 -0.8099 -0.1954
  117GLOH   H02 9808   3.293   1.388   1.410 -1.5392 -1.4543  1.4946
  117GLOH   H08 9809   3.399   1.531   1.453 -0.0212 -0.8965 -0.0309
  117GLOH    C2 9810   3.323   1.421   1.613  0.4571 -0.4383 -0.3270
  117GLOH   H04 9811   3.419   1.425   1.666  0.7356 -1.3676 -0.7458
  117GLOH    O2 9812   3.234   1.529   1.637 -0.4018  0.4305  0.5070
  117GLOH   H05 9813   3.285   1.611   1.647 -3.4269  2.8920 -2.7839
  117GLOH    C3 9814   3.262   1.283   1.638  0.0989 -0.0718 -0.1524
  117GLOH   H06 9815   3.172   1.276   1.576  0.1361  0.7482 -0.3034
  117GLOH   H07 9816   3.226   1.264   1.739  3.7165 -0.5692  1.1287
  117GLOH    O3 9817   3.344   1.176   1.595 -0.0613 -0.3145  0.1520
  117GLOH   H01 9818   3.388   1.210   1.515 -0.7096  0.3789  0.0770
  118GLOH   H03 9819   3.984   0.769   2.943 -0.8455 -1.3264 -0.6349
  118GLOH    O1 9820   3.983   0.804   2.852  0.4606  0.1695 -0.1084
  118GLOH    C1 9821   3.989   0.946   2.852 -0.9564 -0.6827  0.4167
  118GLOH   H02 9822   4.077   0.980   2.906  0.9850 -1.7759 -1.9388
  118GLOH   H08 9823   3.904   0.982   2.909  0.1138  2.6137 -0.0011
  118GLOH    C2 9824   3.979   1.009   2.712  0.5970  0.6679 -0.0255
  118GLOH   H04 9825   3.972   1.117   2.731 -1.7919  0.4367  0.5873
  118GLOH    O2 9826   4.098   0.975   2.645  0.0024  0.1626 -0.5028
  118GLOH   H05 9827   4.123   0.882   2.634 -1.2303 -0.1896 -0.3676
  118GLOH    C3 9828   3.868   0.944   2.635  0.6203  0.7143  0.5377
  118GLOH   H06 9829   3.891   0.838   2.622 -0.6621  0.4052  0.7484
  118GLOH   H07 9830   3.870   0.985   2.534 -0.6435 -0.2446  0.1104
  118GLOH    O3 9831   3.740   0.980   2.698 -0.1475  0.7178  0.6360
  118GLOH   H01 9832   3.673   0.917   2.666  0.2961  0.4078  0.2928
  119GLOH   H03 9833   3.967   2.700   0.315 -1.7291  0.9371  0.8136
  119GLOH    O1 9834   3.993   2.690   0.409  0.2304  0.1172  0.2098
  119GLOH    C1 9835   4.063   2.807   0.446 -0.0771  0.4342  0.3028
  119GLOH   H02 9836   4.074   2.815   0.554 -0.4380  0.4754  0.3385
  119GLOH   H08 9837   3.989   2.883   0.420 -0.9826  0.1310  1.9041
  119GLOH    C2 9838   4.189   2.838   0.358  1.1038 -0.7818  0.2836
  119GLOH   H04 9839   4.150   2.861   0.257  2.0328  1.6996  0.4681
  119GLOH    O2 9840   4.277   2.944   0.409  0.0804 -0.7544  0.0682
  119GLOH   H05 9841   4.328   2.989   0.340  1.3472  0.4569  1.7470
  119GLOH    C3 9842   4.261   2.701   0.357 -1.0687 -0.1332 -0.1070
  119GLOH   H06 9843   4.270   2.650   0.452  0.7846 -1.1842 -0.8170
  119GLOH   H07 9844   4.363   2.726   0.329 -0.8083  0.3568  1.2832
  119GLOH    O3 9845   4.208   2.611   0.260  0.5646 -0.2402 -0.0124
  119GLOH   H01 9846   4.122   2.587   0.300 -0.7789  2.1193 -1.3416
  120GLOH   H03 9847   4.536   1.910   1.501 -0.5008  0.4111 -0.4494
  120GLOH    O1 9848   4.585   1.848   1.558 -0.2691  0.3357 -0.7298
  120GLOH    C1 9849   4.506   1.817   1.677 -0.0255 -0.3587 -0.0820
  120GLOH   H02 9850   4.410   1.869   1.673  0.6850  1.0813  1.0958
  120GLOH   H08 9851   4.557   1.859   1.764 -1.6325  1.0687  0.2007
  120GLOH    C2 9852   4.476   1.666   1.691  0.0533 -0.0038  0.3042
  120GLOH   H04 9853   4.569   1.608   1.689 -0.5247 -1.0060  1.6694
  120GLOH    O2 9854   4.408   1.641   1.819  0.9795  0.1699  0.5047
  120GLOH   H05 9855   4.313   1.627   1.805  1.0941 -2.0226  1.8160
  120GLOH    C3 9856   4.396   1.620   1.571 -0.5724 -0.2249 -0.3995
  120GLOH   H06 9857   4.397   1.511   1.584 -1.7403  0.0771  2.6924
  120GLOH   H07 9858   4.456   1.640   1.483 -0.9070  1.4152 -0.2598
  120GLOH    O3 9859   4.263   1.674   1.546 -0.3538 -0.2364 -0.1198
  120GLOH   H01 9860   4.203   1.645   1.618 -1.0955  1.9508  0.1788
  121ACOH    H4 9861   2.684   2.799   0.724  0.1400  0.2777  0.3365
  121ACOH    O2 9862   2.622   2.844   0.664  0.2295  0.4717  0.3877
  121ACOH    C2 9863   2.673   2.962   0.636  0.1779  0.0539 -0.5832
  121ACOH    O1 9864   2.780   3.002   0.662 -0.3142  0.4037  0.1097
  121ACOH    C1 9865   2.573   3.042   0.559 -0.5087 -0.0009 -0.6938
  121ACOH    H1 9866   2.576   3.017   0.453  1.5396  1.9254 -1.1103
  121ACOH    H2 9867   2.584   3.149   0.575  0.2819  0.0331 -1.4381
  121ACOH    H3 9868   2.470   3.019   0.589 -0.7794  1.0844 -0.7590
  123ACOH    H4 9869   4.243   3.186   2.952  0.9572  1.2336 -0.3717
  123ACOH    O2 9870   4.287   3.107   2.916  0.1137  0.6371 -0.1202
  123ACOH    C2 9871   4.365   3.141   2.809 -0.5157 -0.3555 -0.4957
  123ACOH    O1 9872   4.366   3.254   2.762 -0.2715  0.2706  0.4984
  123ACOH    C1 9873   4.432   3.025   2.753 -1.1475  0.2342  0.3566
  123ACOH    H1 9874   4.526   3.059   2.709 -1.3912  0.4803  0.0223
  123ACOH    H2 9875   4.360   2.983   2.684  0.4348  0.1637 -1.2899
  123ACOH    H3 9876   4.452   2.955   2.834 -0.8442  2.4425  2.2407
  124ACOH    H4 9877   2.288   2.397   0.923 -2.4320  1.4144  2.2719
  124ACOH    O2 9878   2.230   2.329   0.887  0.2660  0.1799  0.0398
  124ACOH    C2 9879   2.270   2.297   0.763  1.0652 -0.2162 -0.4265
  124ACOH    O1 9880   2.360   2.350   0.702 -0.6030  0.6097  0.0743
  124ACOH    C1 9881   2.192   2.183   0.703 -0.1863  0.5099  0.6874
  124ACOH    H1 9882   2.135   2.208   0.614  0.2513 -1.1054 -0.0716
  124ACOH    H2 9883   2.120   2.152   0.779 -0.7037 -1.4173 -0.5245
  124ACOH    H3 9884   2.259   2.100   0.679  3.1818  2.8927  1.6084
  125ACOH    H4 9885   4.437   2.131   0.608  0.5927 -0.2038 -0.8449
  125ACOH    O2 9886   4.419   2.212   0.557 -0.6258 -0.4047 -0.7641
  125ACOH    C2 9887   4.335   2.278   0.640 -0.5185  0.2288 -0.0676
  125ACOH    O1 9888   4.258   2.219   0.718  0.2652 -0.3970  0.5018
  125ACOH    C1 9889   4.284   2.403   0.581  0.6469  0.7644 -0.2018
  125ACOH    H1 9890   4.242   2.466   0.660 -0.2297  0.5007 -0.4435
  125ACOH    H2 9891   4.204   2.372   0.514 -0.4422  1.0690  0.9308
  125ACOH    H3 9892   4.363   2.449   0.522  3.3659 -0.2989  2.4683
  126ACOH    H4 9893   3.740   8.653   0.977 -0.0648  0.1022  0.1730
  126ACOH    O2 9894   3.787   8.567   0.978 -0.0876  0.0962  1.0840
  126ACOH    C2 9895   3.786   8.516   1.107  0.0997  0.1830 -0.7309
  126ACOH    O1 9896   3.714   8.556   1.191  0.4752  0.4829 -0.0524
  126ACOH    C1 9897   3.882   8.403   1.127 -0.2555  0.1260 -0.8096
  126ACOH    H1 9898   3.826   8.312   1.150 -0.1653  0.2308 -0.1427
  126ACOH    H2 9899   3.953   8.426   1.207 -0.9396  0.6314 -0.3509
  126ACOH    H3 9900   3.933   8.392   1.032  2.5310 -0.9578  0.7325
  127ACOH    H4 9901   4.940   3.927   0.848  1.7662 -1.3781  1.3701
  127ACOH    O2 9902   4.998   3.915   0.771 -0.2178 -0.0920 -0.4153
  127ACOH    C2 9903   4.949   3.980   0.667 -0.2904  0.5952  0.8793
  127ACOH    O1 9904   4.834   4.013   0.655 -0.0384 -0.2281 -0.1723
  127ACOH    C1 9905   5.049   3.992   0.555 -0.0274 -0.4374  0.2281
  127ACOH    H1 9906   5.121   3.911   0.563  0.1837 -0.5415 -2.2255
  127ACOH    H2 9907   5.091   4.092   0.553  0.8086 -0.7855 -0.0371
  127ACOH    H3 9908   4.996   3.979   0.461 -0.6263 -2.0965  0.7775
  128ACOH    H4 9909   3.510   4.545   0.402 -0.1776  0.4673  1.6207
  128ACOH    O2 9910   3.445   4.613   0.378  0.0320  0.1197  0.0135
  128ACOH    C2 9911   3.436   4.691   0.489  0.6884 -0.4206 -0.1700
  128ACOH    O1 9912   3.470   4.654   0.599  0.4038  0.3462 -0.1328
  128ACOH    C1 9913   3.357   4.811   0.451  0.0117 -0.0895 -0.0166
  128ACOH    H1 9914   3.257   4.782   0.418 -0.1476  0.8084 -0.3283
  128ACOH    H2 9915   3.407   4.858   0.367 -3.4955  0.9301 -1.6371
  128ACOH    H3 9916   3.348   4.886   0.529  0.6238  0.4980 -0.5046
  129ACOH    H4 9917   4.110   0.615   1.513 -0.0721 -0.3557 -0.7934
  129ACOH    O2 9918   4.206   0.604   1.508 -0.1010 -0.6941 -0.6430
  129ACOH    C2 9919   4.276   0.716   1.545  0.6297 -0.4601 -0.4801
  129ACOH    O1 9920   4.223   0.805   1.605  0.3623 -0.9311 -0.0211
  129ACOH    C1 9921   4.421   0.693   1.543  0.0252  0.2890  0.0081
  129ACOH    H1 9922   4.460   0.666   1.642 -2.0673 -2.4163  0.1498
  129ACOH    H2 9923   4.474   0.778   1.500 -1.0792  0.5209 -0.8933
  129ACOH    H3 9924   4.438   0.611   1.474  0.9086 -2.2465  3.1114
  130ACOH    H4 9925   2.079   2.994   2.057 -0.7462 -0.5607 -0.1626
  130ACOH    O2 9926   2.007   3.051   2.089 -0.1858 -0.1357  0.3303
  130ACOH    C2 9927   2.070   3.126   2.181  0.3385  0.2925  0.5088
  130ACOH    O1 9928   2.178   3.114   2.237  0.9091 -0.2835 -0.4900
  130ACOH    C1 9929   1.963   3.199   2.251  0.2561 -0.2428 -0.4358
  130ACOH    H1 9930   1.879   3.206   2.182 -1.4657 -0.4767  1.6056
  130ACOH    H2 9931   1.990   3.304   2.265 -0.8461  0.2359 -1.7445
  130ACOH    H3 9932   1.934   3.148   2.343  2.1889 -1.1309 -0.3079
  131ACOH    H4 9933   4.232   3.508   0.469 -0.1747  1.1081 -0.3382
  131ACOH    O2 9934   4.296   3.549   0.408  0.0322  0.3270 -0.6485
  131ACOH    C2 9935   4.352   3.653   0.477  0.1565  0.3094  0.6544
  131ACOH    O1 9936   4.356   3.647   0.598 -0.2668 -0.3292  0.3681
  131ACOH    C1 9937   4.431   3.741   0.395 -0.3540 -0.9584  1.1588
  131ACOH    H1 9938   4.437   3.710   0.290 -0.1009  0.9723  0.5852
  131ACOH    H2 9939   4.532   3.744   0.437 -0.2454 -0.2859  0.8566
  131ACOH    H3 9940   4.386   3.840   0.392 -1.9361 -1.7069 -1.0591
  132ACOH    H4 9941   4.758   2.747   0.218 -0.5744  0.8111  0.4135
  132ACOH    O2 9942   4.809   2.762   0.299  0.2152 -0.2671  0.1304
  132ACOH    C2 9943   4.788   2.647   0.371 -0.3790  0.2505  0.1014
  132ACOH    O1 9944   4.735   2.541   0.338 -0.5675 -0.0931  0.0918
  132ACOH    C1 9945   4.844   2.669   0.505  0.3704 -0.2388  0.2621
  132ACOH    H1 9946   4.952   2.677   0.501  0.4053 -0.8068  0.0519
  132ACOH    H2 9947   4.819   2.582   0.566 -0.1030 -0.9245 -0.8980
  132ACOH    H3 9948   4.810   2.762   0.551  2.5356  0.7562 -0.1026
  133ACOH    H4 9949   3.970   9.326   2.130 -0.6353 -2.5505  0.3320
  133ACOH    O2 9950   4.057   9.324   2.173 -0.3062  0.0323 -0.1322
  133ACOH    C2 9951   4.129   9.237   2.098 -0.0402  0.2409 -0.0261
  133ACOH    O1 9952   4.087   9.153   2.022  0.0494 -0.3067  0.1243
  133ACOH    C1 9953   4.271   9.258   2.119 -0.2113  0.5418  0.1846
  133ACOH    H1 9954   4.322   9.303   2.034 -0.0837  1.1388  0.5809
  133ACOH    H2 9955   4.322   9.163   2.133  1.6611  1.6232  0.8559
  133ACOH    H3 9956   4.290   9.313   2.211  1.0930  0.7350 -0.1862
  134ACOH    H4 9957   4.654   2.354   0.332 -1.8181  0.5687 -0.1060
  134ACOH    O2 9958   4.646   2.263   0.299 -0.1409  0.3328  0.0864
  134ACOH    C2 9959   4.702   2.189   0.394  0.1795  0.1142 -0.4553
  134ACOH    O1 9960   4.730   2.232   0.506 -0.1484  0.5117 -0.1489
  134ACOH    C1 9961   4.694   2.046   0.374  0.3829  0.4823  0.2725
  134ACOH    H1 9962   4.779   2.004   0.427  1.4759  0.1389 -1.7373
  134ACOH    H2 9963   4.696   2.023   0.268  2.4177  2.4351 -0.1525
  134ACOH    H3 9964   4.603   2.004   0.418 -0.2767 -1.4863 -2.7970
  135ACOH    H4 9965   3.102   8.887   2.200  0.4127 -1.3240 -0.2354
  135ACOH    O2 9966   3.009   8.863   2.188 -0.0020  0.3475 -0.5238
  135ACOH    C2 9967   2.947   8.941   2.096 -0.1765  0.7481 -0.0014
  135ACOH    O1 9968   2.984   9.033   2.034 -0.6048  0.1168  0.1342
  135ACOH    C1 9969   2.805   8.895   2.084 -0.6233 -0.6425 -0.2701
  135ACOH    H1 9970   2.742   8.964   2.028 -1.2881  0.9055  2.2979
  135ACOH    H2 9971   2.757   8.892   2.181 -1.1640  1.7455 -0.4220
  135ACOH    H3 9972   2.807   8.795   2.041 -2.6185 -0.5026 -0.7368
  136ACOH    H4 9973   4.800   3.897   2.128  1.7513 -0.3428 -1.9113
  136ACOH    O2 9974   4.864   3.879   2.199  0.2787 -0.4808 -0.5841
  136ACOH    C2 9975   4.957   3.794   2.142  0.4068 -0.0311 -0.8277
  136ACOH    O1 9976   4.942   3.735   2.039  0.1010 -0.3947  0.3787
  136ACOH    C1 9977   5.066   3.778   2.226  0.0183  0.3730  0.1247
  136ACOH    H1 9978   5.030   3.754   2.326 -0.1772 -2.3307 -0.5446
  136ACOH    H2 9979   5.113   3.876   2.231  1.4348 -0.3782  3.1505
  136ACOH    H3 9980   5.136   3.701   2.192 -2.7414 -2.3604  0.3750
  137ACOH    H4 9981   4.338   0.634   0.779 -1.8028  0.3537 -0.2236
  137ACOH    O2 9982   4.306   0.553   0.736  0.1083 -0.5946  0.0673
  137ACOH    C2 9983   4.207   0.602   0.646  0.2101 -0.0052 -0.1069
  137ACOH    O1 9984   4.196   0.714   0.598 -0.1193 -0.8399  0.1500
  137ACOH    C1 9985   4.138   0.496   0.582 -0.2827  0.3859 -0.6315
  137ACOH    H1 9986   4.146   0.411   0.650 -0.0342  0.6977 -0.2703
  137ACOH    H2 9987   4.199   0.466   0.496  2.5819 -0.0849  1.4828
  137ACOH    H3 9988   4.037   0.530   0.561 -0.7880  0.4289  1.8000
  138ACOH    H4 9989   2.961   9.932   1.662  0.7635 -0.3978  0.5057
  138ACOH    O2 9990   2.876   9.893   1.691  0.2002  0.0996 -0.4418
  138ACOH    C2 9991   2.845   9.811   1.587 -0.1650  0.4276  1.0751
  138ACOH    O1 9992   2.905   9.779   1.488 -0.0848 -0.2351  0.7626
  138ACOH    C1 9993   2.708   9.768   1.611  0.7772 -0.0498  0.3156
  138ACOH    H1 9994   2.686   9.676   1.557 -0.9971  0.7220 -0.2893
  138ACOH    H2 9995   2.642   9.850   1.584  0.6996  0.3262  1.6095
  138ACOH    H3 9996   2.687   9.745   1.715  0.5964  1.2303  0.5669
  139ACOH    H4 9997   3.263   8.630   2.243  0.6256 -2.1249 -2.4315
  139ACOH    O2 9998   3.273   8.568   2.316 -0.4172 -0.2642 -0.6450
  139ACOH    C2 9999   3.366   8.477   2.287 -0.6414 -0.6757 -0.2754
  139ACOH    O110000   3.445   8.476   2.195 -0.2836  0.1181 -0.4451
  139ACOH    C110001   3.371   8.381   2.400  0.7293 -0.3330 -0.1849
  139ACOH    H110002   3.311   8.297   2.365 -1.3980  1.0903 -0.0612
  139ACOH    H210003   3.324   8.420   2.491 -1.0314 -0.3565 -1.0498
  139ACOH    H310004   3.473   8.349   2.421  1.7602  2.6207 -0.4011
  140ACOH    H410005   4.011   4.608   0.900  0.3842 -0.6029  0.1507
  140ACOH    O210006   3.968   4.666   0.835 -0.2098 -0.8610  0.3087
  140ACOH    C210007   3.854   4.722   0.876  0.3701  0.3512  0.4435
  140ACOH    O110008   3.784   4.694   0.968  0.1861 -0.7444  0.1769
  140ACOH    C110009   3.790   4.812   0.779  0.4625 -0.4041 -0.3666
  140ACOH    H110010   3.785   4.765   0.681 -1.0766 -1.2735  0.1087
  140ACOH    H210011   3.863   4.892   0.774 -1.6545  1.9004  3.0417
  140ACOH    H310012   3.694   4.855   0.809  2.5591  2.5414  2.4588
  141ACOH    H410013   4.211   4.419   1.572  1.1277 -0.3068 -0.2719
  141ACOH    O210014   4.245   4.482   1.638 -0.4849 -0.2847  0.5782
  141ACOH    C210015   4.363   4.516   1.590 -0.0414  0.4283 -0.0678
  141ACOH    O110016   4.406   4.523   1.475 -0.4242  0.2769  0.0843
  141ACOH    C110017   4.446   4.575   1.695  0.3849 -0.1878  0.1828
  141ACOH    H110018   4.399   4.596   1.791  0.2738  3.8053 -0.6656
  141ACOH    H210019   4.474   4.675   1.663 -1.5957 -0.6221 -3.1548
  141ACOH    H310020   4.536   4.516   1.714  0.5472 -0.7994 -2.3189
  142ACOH    H410021   3.673   4.720   1.553  1.3820  0.2010 -0.0893
  142ACOH    O210022   3.627   4.778   1.615  0.5510 -0.4937 -0.0525
  142ACOH    C210023   3.520   4.707   1.659  0.3531 -0.2899 -0.3463
  142ACOH    O110024   3.499   4.585   1.643  0.5677 -0.2052 -0.3707
  142ACOH    C110025   3.425   4.794   1.730 -0.2572 -0.0826  0.3028
  142ACOH    H110026   3.406   4.881   1.667 -0.7186  0.1142  0.7107
  142ACOH    H210027   3.459   4.815   1.831  1.6121  1.9179 -0.7101
  142ACOH    H310028   3.327   4.745   1.732 -0.0144 -0.7551 -2.3820
  143ACOH    H410029   3.171   8.852   0.425 -0.8616  1.0881 -1.6160
  143ACOH    O210030   3.158   8.764   0.386  0.0600  0.3019 -0.1584
  143ACOH    C210031   3.262   8.689   0.422  0.3476 -0.0513  0.3961
  143ACOH    O110032   3.351   8.720   0.495 -0.6668  0.1066  0.1454
  143ACOH    C110033   3.252   8.555   0.365  0.5709 -0.3617  0.3509
  143ACOH    H110034   3.148   8.523   0.369  0.7996 -1.8205 -3.5558
  143ACOH    H210035   3.315   8.484   0.419 -0.3752 -0.3627  1.4674
  143ACOH    H310036   3.292   8.559   0.263 -2.2744 -0.9281 -0.8210
  144ACOH    H410037   4.986   3.114   2.277  2.1190  1.5979  1.2483
  144ACOH    O210038   4.978   3.064   2.360  0.3386 -0.0452  0.1197
  144ACOH    C210039   4.934   2.944   2.316 -0.3512  0.3875 -0.2409
  144ACOH    O110040   4.887   2.930   2.205  0.2905  0.1070 -0.0666
  144ACOH    C110041   4.900   2.859   2.428  0.5230  0.7465 -0.3722
  144ACOH    H110042   4.983   2.835   2.496  0.0971  2.2399  0.6915
  144ACOH    H210043   4.865   2.763   2.389 -1.2425  0.8588  0.9006
  144ACOH    H310044   4.821   2.907   2.485 -1.7553 -1.9918 -1.0945
  145ACOH    H410045   3.521   3.763   1.661 -0.0891 -0.4500  0.6105
  145ACOH    O210046   3.615   3.744   1.649  0.0405  0.6857 -0.2653
  145ACOH    C210047   3.660   3.857   1.594 -0.3856  0.3406  0.3126
  145ACOH    O110048   3.601   3.936   1.524  0.1884  0.0865 -0.3740
  145ACOH    C110049   3.812   3.850   1.602  0.0685 -0.2768 -1.2585
  145ACOH    H110050   3.837   3.850   1.708 -0.5724 -0.1257 -1.1096
  145ACOH    H210051   3.856   3.931   1.544 -1.8242  0.8065 -1.2127
  145ACOH    H310052   3.852   3.751   1.578 -2.4373 -2.0128  1.4289
  146ACOH    H410053   4.143   9.306   1.669  0.2542 -1.2704  0.7846
  146ACOH    O210054   4.206   9.346   1.730 -0.3404  0.2545  0.4081
  146ACOH    C210055   4.215   9.478   1.703 -0.7963 -0.0455 -0.1860
  146ACOH    O110056   4.166   9.538   1.611 -0.4921 -0.0203 -0.1679
  146ACOH    C110057   4.281   9.552   1.815 -0.1083 -0.2949  0.0591
  146ACOH    H110058   4.352   9.484   1.863 -0.3914 -1.8115 -1.6363
  146ACOH    H210059   4.215   9.592   1.892  1.8670 -0.3846  1.8629
  146ACOH    H310060   4.334   9.631   1.762  1.3239 -3.2488 -3.0782
  147ACOH    H410061   3.904   2.384   2.974  0.7496 -0.5614  3.0229
  147ACOH    O210062   3.998   2.368   2.952  0.0737 -0.1032 -0.3074
  147ACOH    C210063   4.006   2.301   2.828  0.4111 -0.3313 -1.0788
  147ACOH    O110064   3.919   2.292   2.748  0.6415  0.7005  0.2531
  147ACOH    C110065   4.148   2.267   2.803  0.5804  0.0532 -0.1144
  147ACOH    H110066   4.213   2.349   2.834 -0.2029  1.9070 -3.1845
  147ACOH    H210067   4.170   2.247   2.698 -1.8569 -0.0074 -0.6427
  147ACOH    H310068   4.166   2.179   2.865 -0.9546  0.0370  0.3269
  148ACOH    H410069   2.181   2.595   1.850 -0.4409 -1.0566  1.8561
  148ACOH    O210070   2.099   2.645   1.864 -0.0927  0.3642 -0.7552
  148ACOH    C210071   2.009   2.576   1.791  0.2892  0.2269 -0.8306
  148ACOH    O110072   2.024   2.467   1.744 -0.5758  0.3525 -0.0670
  148ACOH    C110073   1.876   2.643   1.789 -0.4692  0.1025  0.5547
  148ACOH    H110074   1.858   2.703   1.878  0.6873  0.8739  0.2831
  148ACOH    H210075   1.797   2.570   1.771 -0.9627  1.1216 -1.5542
  148ACOH    H310076   1.876   2.712   1.704 -1.4016 -0.9882 -0.3413
  149ACOH    H410077   2.056   3.161   1.344 -0.3480  1.1560 -1.4922
  149ACOH    O210078   1.967   3.124   1.356 -0.0065  0.6723 -0.4028
  149ACOH    C210079   1.980   3.036   1.456 -0.1321  0.1271 -0.3150
  149ACOH    O110080   2.080   2.982   1.509 -0.2553  0.0219 -0.1827
  149ACOH    C110081   1.838   3.005   1.510 -0.1428 -0.5713  0.3141
  149ACOH    H110082   1.792   3.079   1.576 -2.2151 -1.1769 -0.4109
  149ACOH    H210083   1.828   2.906   1.555  1.3283 -0.2893  1.2906
  149ACOH    H310084   1.775   3.000   1.421 -1.1097  3.0913  0.6955
  150ACOH    H410085   4.620   3.959   0.053 -0.2741  0.2431  0.2315
  150ACOH    O210086   4.689   3.993   0.113 -0.0194  0.0829  0.0329
  150ACOH    C210087   4.625   4.034   0.219  0.4631  0.4766 -0.1589
  150ACOH    O110088   4.506   4.024   0.243  0.1471  0.0977  0.0622
  150ACOH    C110089   4.729   4.080   0.323  0.2467  0.4087 -0.6974
  150ACOH    H110090   4.695   4.175   0.364  1.5144  0.1515  0.9785
  150ACOH    H210091   4.830   4.085   0.282  0.9600  2.5380  1.2667
  150ACOH    H310092   4.725   4.010   0.407  1.4303  0.4044 -0.6328
  151ACOH    H410093   2.702   9.469   1.807  1.0667 -0.1732  1.3661
  151ACOH    O210094   2.620   9.444   1.853  0.3968 -0.1561  0.2152
  151ACOH    C210095   2.621   9.495   1.976 -0.0877  0.3113  0.2985
  151ACOH    O110096   2.700   9.578   2.017  0.1791  0.2558  0.0370
  151ACOH    C110097   2.496   9.474   2.050 -0.1175 -0.7243 -0.3011
  151ACOH    H110098   2.437   9.565   2.038 -1.5852 -1.7128 -0.6597
  151ACOH    H210099   2.518   9.447   2.153  0.9472 -0.1962 -0.3781
  151ACOH    H310100   2.444   9.390   2.005 -0.2209 -1.4851  1.2034
  152SOL     OW10101   3.035   3.906   1.534  0.3415 -0.5217 -0.2725
  152SOL    HW110102   3.067   3.835   1.472 -0.2521  1.8426 -3.4383
  152SOL    HW210103   3.104   3.978   1.540 -0.1487 -0.1322  0.8502
  153SOL     OW10104   3.081   2.382   0.626 -0.0431 -0.0730 -0.9148
  153SOL    HW110105   3.172   2.395   0.666 -0.1020  0.5929 -0.9907
  153SOL    HW210106   3.045   2.470   0.596 -1.0296 -0.2279 -0.2119
  157SOL     OW10107   3.182   1.939   1.952 -0.3033 -0.2599  0.7672
  157SOL    HW110108   3.279   1.961   1.961 -0.0121 -0.6805 -1.1037
  157SOL    HW210109   3.128   2.021   1.971  0.4983  0.4248  0.1851
  158SOL     OW10110   2.564   2.417   0.167 -0.6302  0.1395 -0.0715
  158SOL    HW110111   2.642   2.458   0.214 -0.9254 -1.3088  1.7168
  158SOL    HW210112   2.579   2.319   0.157 -0.7607  0.3488 -2.6796
  161SOL     OW10113   2.920   1.713   0.373 -0.0221  0.1368 -0.2999
  161SOL    HW110114   2.953   1.702   0.467  0.3864  0.2213 -0.4330
  161SOL    HW210115   2.865   1.796   0.367 -2.0745 -1.1270  0.4211
  162SOL     OW10116   2.972   2.451   2.199  0.6585 -0.6915  0.0003
  162SOL    HW110117   2.877   2.475   2.181  1.3535  1.1741 -1.3043
  162SOL    HW210118   2.995   2.478   2.293  0.0419 -0.7211  0.1657
  164SOL     OW10119   4.840   2.930   1.908  0.7844  0.6751  0.1906
  164SOL    HW110120   4.873   2.930   2.003  0.8021 -1.0833  0.1872
  164SOL    HW210121   4.906   2.882   1.850 -0.9256 -1.3929 -0.1051
  165SOL     OW10122   3.940   1.420   0.752  0.4053  0.1303 -0.1048
  165SOL    HW110123   3.988   1.337   0.726  0.1213  0.1006 -0.5508
  165SOL    HW210124   3.926   1.477   0.671  1.7486  1.2145  0.4137
  166SOL     OW10125   2.251   1.811   1.353  0.0299 -0.4266 -0.4883
  166SOL    HW110126   2.196   1.893   1.335 -1.2376 -0.8567  1.3034
  166SOL    HW210127   2.322   1.833   1.420 -1.6262 -1.2413  1.6139
  168SOL     OW10128   4.024   3.198   1.475 -0.3517 -0.0250 -0.2547
  168SOL    HW110129   4.027   3.109   1.522 -4.1847  0.6167  1.3653
  168SOL    HW210130   3.985   3.186   1.383  0.3752 -0.1970 -0.5446
  169SOL     OW10131   3.888   0.821   1.701  0.0490 -0.2513 -0.1186
  169SOL    HW110132   3.816   0.817   1.770  0.3048  0.1621  0.1716
  169SOL    HW210133   3.902   0.915   1.672 -1.5425 -0.6681 -2.3073
  170SOL     OW10134   3.205   8.603   1.665 -0.0069 -0.0395 -0.2536
  170SOL    HW110135   3.131   8.546   1.630 -1.1392  0.6138  1.0156
  170SOL    HW210136   3.293   8.570   1.630 -0.9830 -0.1725 -2.6318
  171SOL     OW10137   2.950   9.847   1.189  0.1224  0.3227  0.1762
  171SOL    HW110138   2.885   9.806   1.125  0.4601  0.2059 -0.0947
  171SOL    HW210139   2.962   9.787   1.268  1.1032 -0.4103 -0.5224
  172SOL     OW10140   2.764   1.717   2.065 -0.0303  0.3109  0.1071
  172SOL    HW110141   2.786   1.670   1.980 -0.3467 -1.2892  0.8927
  172SOL    HW210142   2.670   1.695   2.093 -0.2414  1.5532  0.3845
  173SOL     OW10143   2.869   2.296   1.119 -0.4755  0.0918 -0.1351
  173SOL    HW110144   2.791   2.246   1.082 -0.0325 -0.0925 -0.8391
  173SOL    HW210145   2.840   2.351   1.197 -1.3226  0.0751 -0.4366
  174SOL     OW10146   3.748   2.928   1.552  0.2398 -0.3976  0.0705
  174SOL    HW110147   3.836   2.948   1.511  0.7829 -1.2077  0.8147
  174SOL    HW210148   3.723   3.001   1.616 -0.0716  0.2925 -0.8320
  176SOL     OW10149   3.548   1.404   1.212  0.2254  0.1368 -0.1417
  176SOL    HW110150   3.544   1.490   1.161  0.9632 -0.6126 -1.4979
  176SOL    HW210151   3.608   1.340   1.164  0.1194 -0.9461  1.1459
  177SOL     OW10152   4.408   2.653   1.922 -0.0674  0.2625 -0.0580
  177SOL    HW110153   4.373   2.578   1.867  0.8956 -0.3547  0.1499
  177SOL    HW210154   4.487   2.694   1.876  0.6346 -0.1458  0.7552
  178SOL     OW10155   3.260   4.140   1.900  0.1012 -0.2275  0.8667
  178SOL    HW110156   3.325   4.209   1.933  1.7746 -0.9277 -0.8500
  178SOL    HW210157   3.226   4.167   1.810  0.0263 -1.1850  0.6098
  179SOL     OW10158   2.873   0.573   0.511 -0.1708 -0.2590 -0.4053
  179SOL    HW110159   2.874   0.500   0.580  0.9074 -0.4454 -0.6126
  179SOL    HW210160   2.949   0.560   0.448 -1.1605 -0.0928 -1.6463
  180SOL     OW10161   2.254   2.131   1.637  0.8173  0.0457 -0.2062
  180SOL    HW110162   2.317   2.097   1.567  2.2416  1.3018  0.4510
  180SOL    HW210163   2.227   2.224   1.615  0.0097 -0.1171  0.0799
  181SOL     OW10164   3.606   1.110   0.497  0.4083 -0.3048 -0.0545
  181SOL    HW110165   3.608   1.098   0.398  0.4479  1.4457 -0.2737
  181SOL    HW210166   3.514   1.135   0.526  0.7945  0.9777  0.1168
  182SOL     OW10167   3.411   3.510   0.849 -0.0504  0.1977  0.0373
  182SOL    HW110168   3.498   3.528   0.897 -0.1672 -0.9332  0.6934
  182SOL    HW210169   3.430   3.484   0.755  0.1957  2.2707 -0.5036
  184SOL     OW10170   2.557   3.321   1.513  0.1229  0.1417  0.2713
  184SOL    HW110171   2.630   3.348   1.576 -0.0110  0.4831  0.2849
  184SOL    HW210172   2.580   3.352   1.421  0.9422 -1.5078 -0.0977
  185SOL     OW10173   2.880   4.208   0.493  0.0382  0.0231  0.1851
  185SOL    HW110174   2.974   4.208   0.527 -0.2641 -1.3023  1.0566
  185SOL    HW210175   2.821   4.158   0.557 -1.4397  1.6143  0.1134
  188SOL     OW10176   2.796   3.504   1.065  0.0909 -0.3534  0.0283
  188SOL    HW110177   2.884   3.481   1.106  0.4765  0.6533 -0.2324
  188SOL    HW210178   2.810   3.535   0.971 -0.5736 -0.4346 -0.1010
  189SOL     OW10179   3.207   4.219   0.942  0.3484 -0.2188 -0.1532
  189SOL    HW110180   3.139   4.222   1.015  0.4581 -1.7573  0.0174
  189SOL    HW210181   3.236   4.312   0.920 -0.6638  0.3394  0.8412
  191SOL     OW10182   3.423   1.736   1.259  0.1321 -0.0590 -0.5321
  191SOL    HW110183   3.437   1.835   1.268 -0.8306  0.3224 -2.9619
  191SOL    HW210184   3.474   1.702   1.180 -0.4933 -1.3103 -0.4011
  192SOL     OW10185   4.038   2.088   0.523 -0.0573  0.6770  0.9206
  192SOL    HW110186   4.126   2.049   0.498 -0.7642 -0.2341 -0.2154
  192SOL    HW210187   4.000   2.035   0.600  1.0849  2.0626  2.4770
  193SOL     OW10188   3.957   2.067   0.926  0.5003 -0.1809 -0.6267
  193SOL    HW110189   3.876   2.122   0.946  1.0033  0.6066 -0.7022
  193SOL    HW210190   3.948   2.027   0.834  0.9469  1.3106 -1.3396
  194SOL     OW10191   4.445   2.395   0.914 -0.1299 -0.0557  0.1538
  194SOL    HW110192   4.478   2.344   0.994  0.7733 -0.7196 -0.6339
  194SOL    HW210193   4.345   2.395   0.914 -0.1491  0.3786  1.5530
  195SOL     OW10194   2.241   2.973   1.755 -0.0508  0.1626 -0.4305
  195SOL    HW110195   2.332   2.991   1.718 -0.5543  1.3663 -1.1308
  195SOL    HW210196   2.173   2.986   1.682 -0.7960 -0.6132  0.1159
  196SOL     OW10197   2.949   9.893   0.689 -0.5278 -0.1275 -0.5155
  196SOL    HW110198   2.922   9.913   0.595  1.0274  0.2012 -0.9110
  196SOL    HW210199   2.999   9.806   0.691 -1.2704 -0.5489  0.1436
  197SOL     OW10200   2.471   1.208   1.758 -0.1543  0.1493  0.2764
  197SOL    HW110201   2.415   1.289   1.774 -2.2018 -1.1712  0.1336
  197SOL    HW210202   2.451   1.172   1.666  0.2227 -0.8857  0.5892
  198SOL     OW10203   2.426   1.732   0.965 -0.4307  0.5252  0.0551
  198SOL    HW110204   2.406   1.826   0.938  0.3097  0.4497 -0.7818
  198SOL    HW210205   2.487   1.732   1.044  0.6417  0.7495 -0.7661
  199SOL     OW10206   2.526   1.657   1.612 -0.0416  0.2390 -0.1239
  199SOL    HW110207   2.456   1.635   1.545  0.7533  1.2211 -1.2948
  199SOL    HW210208   2.487   1.717   1.683 -0.0745  1.8757 -1.4920
  200SOL     OW10209   2.355   3.507   0.642 -0.1250 -0.2717 -0.7255
  200SOL    HW110210   2.381   3.504   0.545 -0.0983  2.4714 -0.8485
  200SOL    HW210211   2.255   3.504   0.649 -0.0829 -3.3136 -0.6403
  201SOL     OW10212   2.488   0.617   1.501 -0.8872 -0.3134  0.7319
  201SOL    HW110213   2.563   0.646   1.561  0.1358 -2.4415  0.5139
  201SOL    HW210214   2.402   0.655   1.536  0.0203  0.5259  2.1199
  204SOL     OW10215   3.180   1.152   1.249 -0.5433 -0.2904  0.1077
  204SOL    HW110216   3.155   1.226   1.186 -0.4258  0.2329  0.6779
  204SOL    HW210217   3.252   1.096   1.207 -0.5319  0.0018 -0.2661
  205SOL     OW10218   2.325   1.575   1.445 -0.0995 -0.0976  0.0764
  205SOL    HW110219   2.288   1.655   1.397 -1.1158 -0.5021  0.1724
  205SOL    HW210220   2.319   1.495   1.385 -2.3165 -0.8223  1.2034
  206SOL     OW10221   3.221   3.864   1.936  0.2469  0.2379  0.0974
  206SOL    HW110222   3.303   3.836   1.985 -0.8336 -0.2039  1.6941
  206SOL    HW210223   3.205   3.962   1.950  0.7039  0.4014 -0.5200
  207SOL     OW10224   2.467   0.866   1.060  0.4699  0.1175 -0.1064
  207SOL    HW110225   2.374   0.892   1.033  1.1945  2.0743 -0.8243
  207SOL    HW210226   2.480   0.882   1.157  0.1399  0.0863 -0.0577
  210SOL     OW10227   3.177   9.105   1.514 -0.4267  0.0007 -0.2768
  210SOL    HW110228   3.125   9.092   1.598 -0.6702  0.5965 -0.3355
  210SOL    HW210229   3.224   9.020   1.491 -0.8098 -0.3327  0.1558
  211SOL     OW10230   4.397   3.371   2.041  0.3806 -0.1250 -0.0096
  211SOL    HW110231   4.445   3.294   2.081 -1.1341 -0.3053  1.5208
  211SOL    HW210232   4.331   3.338   1.974  0.2512 -0.1113  0.1105
  213SOL     OW10233   2.864   2.513   0.952 -0.1227 -0.1049  0.2097
  213SOL    HW110234   2.840   2.478   0.861 -1.9519 -0.2914  0.7348
  213SOL    HW210235   2.903   2.439   1.007  2.5739  0.4180 -0.9596
  214SOL     OW10236   2.880   2.265   1.788 -0.1432 -0.0322 -0.2371
  214SOL    HW110237   2.923   2.341   1.739  1.0821 -0.4928  0.0939
  214SOL    HW210238   2.916   2.261   1.881 -0.7523 -0.5639 -0.0254
  215SOL     OW10239   2.816   1.039   0.284 -0.7222 -0.0229 -0.1839
  215SOL    HW110240   2.745   0.969   0.282 -0.0575 -0.6874 -1.1072
  215SOL    HW210241   2.890   1.009   0.344 -1.3222  0.7795  0.9738
  217SOL     OW10242   2.819   9.795   2.159 -0.2512 -0.0563 -0.4136
  217SOL    HW110243   2.800   9.883   2.115 -1.3693  0.3080  0.7488
  217SOL    HW210244   2.764   9.724   2.115  0.7210 -0.1905 -1.4130
  218SOL     OW10245   2.695   1.313   1.909 -0.2093 -0.0312  0.4751
  218SOL    HW110246   2.652   1.397   1.943 -0.4109  0.2058 -0.3383
  218SOL    HW210247   2.659   1.292   1.818 -0.7265 -1.4309  1.0012
  219SOL     OW10248   2.407   1.123   1.481 -0.2983  0.1605 -0.2531
  219SOL    HW110249   2.477   1.161   1.420 -1.5374  2.8510 -0.0462
  219SOL    HW210250   2.332   1.086   1.426  0.6999 -1.6301 -0.4438
  220SOL     OW10251   3.645   0.456   0.240 -0.4256  0.5087 -0.0803
  220SOL    HW110252   3.576   0.529   0.244 -1.0505 -0.1273  0.8740
  220SOL    HW210253   3.694   0.453   0.327  0.2371  0.4079 -0.4593
  221SOL     OW10254   2.490   3.551   1.112 -0.5360  0.0215  0.1198
  221SOL    HW110255   2.528   3.616   1.178  1.3178 -1.4593  0.5739
  221SOL    HW210256   2.531   3.568   1.023 -0.5472 -0.0879  0.0944
  222SOL     OW10257   3.413   1.266   1.920 -0.0311 -0.6058 -0.1343
  222SOL    HW110258   3.431   1.176   1.958  0.4350 -0.5260 -0.1533
  222SOL    HW210259   3.483   1.330   1.952 -1.0443  0.0230  0.8510
  224SOL     OW10260   2.427   2.709   1.017  0.2665 -0.4894 -0.0773
  224SOL    HW110261   2.492   2.784   1.029  1.7196 -1.6654 -0.4110
  224SOL    HW210262   2.359   2.734   0.948  1.5858 -0.0268 -1.2240
  225SOL     OW10263   2.468   1.613   2.022  0.5946 -0.1439 -0.1816
  225SOL    HW110264   2.423   1.545   1.963  0.1547  1.5235 -1.8409
  225SOL    HW210265   2.436   1.705   1.996  0.7457  0.6602  2.3963
  226SOL     OW10266   3.516   4.186   0.854  0.3741  0.5711  0.2475
  226SOL    HW110267   3.431   4.228   0.822  1.0786  1.4163 -0.5557
  226SOL    HW210268   3.538   4.108   0.795  1.6100  2.0575 -1.3080
  227SOL     OW10269   3.203   2.343   0.354  0.0173  0.6389 -0.3573
  227SOL    HW110270   3.151   2.300   0.428  0.4797  0.4238 -0.1609
  227SOL    HW210271   3.168   2.311   0.266 -0.9743  1.3996 -0.2462
  228SOL     OW10272   3.701   2.181   0.991  0.0531  0.4197  0.5194
  228SOL    HW110273   3.708   2.206   1.088  0.0047 -0.2187  0.6904
  228SOL    HW210274   3.612   2.139   0.974  1.0939 -2.0332  0.8075
  230SOL     OW10275   4.801   2.015   1.901  0.1378  0.2862 -0.1124
  230SOL    HW110276   4.823   2.106   1.935  0.6560  0.4250 -0.8042
  230SOL    HW210277   4.804   1.949   1.976  2.5943  0.3609 -0.1010
  232SOL     OW10278   3.425   8.794   0.775 -0.3258  0.3441 -0.2257
  232SOL    HW110279   3.409   8.713   0.718  0.3356 -0.0030  0.0734
  232SOL    HW210280   3.442   8.873   0.716 -0.1504  0.0876 -0.5215
  233SOL     OW10281   3.466   1.022   1.781  0.4942 -0.1385  0.1266
  233SOL    HW110282   3.424   1.086   1.718 -0.9154 -0.3738  0.8143
  233SOL    HW210283   3.396   0.966   1.825  1.3612  0.4975  2.4309
  234SOL     OW10284   2.722   1.316   0.529 -0.6188 -0.3039 -0.0760
  234SOL    HW110285   2.739   1.401   0.580  3.1007 -2.3800  2.3782
  234SOL    HW210286   2.754   1.327   0.435  1.1760  0.6155  0.5988
  236SOL     OW10287   4.595   3.023   1.925 -0.2918  0.3977  0.2288
  236SOL    HW110288   4.566   3.064   2.011 -0.8363 -0.2327  0.3399
  236SOL    HW210289   4.679   2.970   1.939 -0.4448  0.2011  0.3884
  237SOL     OW10290   3.702   3.145   0.430  0.0833  0.0520  0.6726
  237SOL    HW110291   3.729   3.218   0.367 -0.8589  1.5630  1.9518
  237SOL    HW210292   3.697   3.058   0.382  1.7413  0.7448 -0.7802
  238SOL     OW10293   3.562   3.151   0.780 -0.5343  0.7013  0.3327
  238SOL    HW110294   3.526   3.233   0.737 -0.9609  0.0365 -0.6078
  238SOL    HW210295   3.642   3.119   0.729  0.8339  1.6430  1.8608
  239SOL     OW10296   3.571   9.696   0.511 -0.1984 -0.1632  0.3366
  239SOL    HW110297   3.574   9.784   0.558 -3.2384  0.0111  0.2968
  239SOL    HW210298   3.570   9.710   0.412 -1.6380 -0.1704  0.3381
  240SOL     OW10299   3.230   4.328   1.666  0.0072  0.2167 -0.5012
  240SOL    HW110300   3.220   4.407   1.727  1.5647 -0.4922  0.7006
  240SOL    HW210301   3.316   4.336   1.616 -0.5082 -0.0166 -1.4175
  241SOL     OW10302   2.599   2.625   1.821 -0.1189  0.3222  0.0978
  241SOL    HW110303   2.595   2.541   1.766  0.4993  0.3496  0.0165
  241SOL    HW210304   2.589   2.704   1.761 -0.2197  0.3242  0.1176
  243SOL     OW10305   3.325   4.394   0.767 -0.3823 -0.1735 -0.8902
  243SOL    HW110306   3.368   4.437   0.846 -0.5646  1.5294 -1.6937
  243SOL    HW210307   3.361   4.435   0.683 -0.9183 -1.2624 -1.6621
  244SOL     OW10308   2.804   2.518   0.284  0.4873 -0.7709 -0.4478
  244SOL    HW110309   2.811   2.596   0.346 -0.2077 -1.6079  0.7113
  244SOL    HW210310   2.852   2.439   0.324  0.8154 -1.0575 -1.4039
  246SOL     OW10311   2.599   2.925   1.984 -0.3181  0.0804  0.0361
  246SOL    HW110312   2.664   2.916   2.060  0.1093 -0.3684 -0.3818
  246SOL    HW210313   2.639   2.986   1.915 -1.1249  1.2956  0.6168
  247SOL     OW10314   3.298   1.655   1.951  0.2427  0.2784  0.0931
  247SOL    HW110315   3.255   1.729   2.002 -1.0419  0.0529 -0.6402
  247SOL    HW210316   3.250   1.569   1.970  0.6993 -0.0739 -0.3266
  248SOL     OW10317   3.762   3.454   1.687 -0.3352 -0.2959  0.2737
  248SOL    HW110318   3.813   3.503   1.757 -1.1028 -0.0453  0.6685
  248SOL    HW210319   3.778   3.496   1.598  1.0902 -0.9598  0.2052
  249SOL     OW10320   2.804   3.584   0.726 -0.0519 -0.6667 -0.0803
  249SOL    HW110321   2.870   3.650   0.763 -0.3554 -0.5877  0.3217
  249SOL    HW210322   2.776   3.612   0.635 -0.6550  0.0926  0.3387
  250SOL     OW10323   3.037   2.083   0.502 -0.1148 -0.2634 -0.0926
  250SOL    HW110324   3.113   2.052   0.445  1.2982 -0.0671  1.6389
  250SOL    HW210325   3.030   2.025   0.583 -0.2420  1.2125  0.9810
  251SOL     OW10326   3.816   3.430   0.596 -0.1208  0.6703 -0.4057
  251SOL    HW110327   3.847   3.519   0.628  0.1827  0.1733  0.7196
  251SOL    HW210328   3.833   3.361   0.667  1.3855 -0.6250 -1.9648
  252SOL     OW10329   2.526   3.288   1.853 -0.2074  0.3548 -0.0096
  252SOL    HW110330   2.483   3.265   1.941  0.0627  0.3108  0.1113
  252SOL    HW210331   2.548   3.385   1.851 -1.5448  0.6614 -0.6047
  253SOL     OW10332   2.891   2.659   1.869  0.1663 -0.3349  0.6747
  253SOL    HW110333   2.797   2.693   1.868  0.5697  0.7752 -0.0611
  253SOL    HW210334   2.951   2.730   1.906  0.7714 -0.8969  0.7669
  255SOL     OW10335   3.662   0.789   0.242  0.1377  0.1386  0.2734
  255SOL    HW110336   3.678   0.786   0.341  1.5599 -0.9775  0.0312
  255SOL    HW210337   3.749   0.782   0.194 -0.6582 -0.8428 -1.0695
  256SOL     OW10338   2.644   3.324   1.207  0.3815 -0.0427  0.2557
  256SOL    HW110339   2.575   3.396   1.204 -0.5183 -0.9794 -3.3914
  256SOL    HW210340   2.724   3.353   1.154  0.3178 -1.4092 -0.5962
  257SOL     OW10341   4.238   1.185   1.068 -0.3329 -0.5256 -0.1879
  257SOL    HW110342   4.284   1.135   0.994  0.6324 -1.1022  0.7920
  257SOL    HW210343   4.261   1.143   1.156 -0.0559  1.2176  0.5885
  259SOL     OW10344   3.035   2.228   2.011  0.1919 -0.3608  0.0387
  259SOL    HW110345   3.116   2.253   1.958  0.8339 -0.0606  1.1356
  259SOL    HW210346   3.019   2.298   2.082 -0.0458 -1.2681  0.8892
  260SOL     OW10347   4.424   4.057   1.487 -0.8441 -0.7377 -1.0586
  260SOL    HW110348   4.466   3.982   1.436 -0.3133  0.7249 -2.8247
  260SOL    HW210349   4.450   4.144   1.445  1.5473  0.6732  3.0861
  261SOL     OW10350   2.871   1.605   1.854 -0.2318  0.3818  0.6775
  261SOL    HW110351   2.921   1.680   1.810 -1.0099  0.7114  0.3560
  261SOL    HW210352   2.932   1.526   1.864  0.4845  0.9355  0.6938
  262SOL     OW10353   3.937   0.102   1.072 -0.8808  0.0125 -0.0384
  262SOL    HW110354   3.843   0.067   1.075 -0.8916  0.0952  1.0035
  262SOL    HW210355   3.998   0.039   1.120 -0.2998 -0.3287 -1.2140
  263SOL     OW10356   3.009   1.600   1.550 -0.4063  0.1248 -0.2274
  263SOL    HW110357   2.999   1.684   1.603  0.8617  0.0224  0.1753
  263SOL    HW210358   3.090   1.550   1.580 -1.3868 -1.4659 -0.1814
  267SOL     OW10359   3.576   9.889   0.714  0.1613 -0.2080  0.0907
  267SOL    HW110360   3.508   9.941   0.766  2.4217  1.6815  1.2603
  267SOL    HW210361   3.627   9.829   0.775 -0.7360 -2.0013 -0.8649
  268SOL     OW10362   3.256   2.468   1.260 -0.0124  0.0420 -0.3145
  268SOL    HW110363   3.252   2.452   1.359 -0.8686 -0.5045 -0.4327
  268SOL    HW210364   3.240   2.565   1.242 -0.4275  0.0450  0.0499
  269SOL     OW10365   3.432   4.478   1.302  0.0037 -0.4147 -0.4699
  269SOL    HW110366   3.352   4.423   1.281 -0.6736  0.2507  0.3236
  269SOL    HW210367   3.467   4.453   1.392 -1.4338  1.7191  0.7262
  272SOL     OW10368   2.800   3.106   1.313 -0.1439  0.3382 -0.0035
  272SOL    HW110369   2.733   3.180   1.317 -0.0443  0.3481  1.7231
  272SOL    HW210370   2.838   3.090   1.404  0.9394 -0.8329 -0.6415
  273SOL     OW10371   2.861   0.136   0.875 -0.3767 -0.2258  0.5775
  273SOL    HW110372   2.839   0.110   0.969  0.7730 -0.7860  0.6948
  273SOL    HW210373   2.851   0.056   0.815  0.3026 -0.2180  0.4580
  274SOL     OW10374   2.420   3.210   0.879 -0.1144 -0.0617 -0.1417
  274SOL    HW110375   2.481   3.138   0.913 -0.2074 -0.4159 -0.7225
  274SOL    HW210376   2.471   3.296   0.875  0.6678 -0.5797 -1.6384
  275SOL     OW10377   3.275   0.239   2.268  0.0599 -0.4416  0.8176
  275SOL    HW110378   3.175   0.247   2.269 -0.1075 -2.3383  0.2863
  275SOL    HW210379   3.310   0.270   2.179 -0.1502 -0.8006  0.6083
  276SOL     OW10380   3.087   1.370   0.198 -0.0811  0.6334  0.1866
  276SOL    HW110381   3.112   1.336   0.289  1.2538 -3.2885 -1.5464
  276SOL    HW210382   3.138   1.453   0.178  2.4267 -0.5072  1.5965
  277SOL     OW10383   2.675   0.329   1.540  0.0069 -0.3442  0.2999
  277SOL    HW110384   2.739   0.358   1.470 -1.3852  0.0147 -0.8284
  277SOL    HW210385   2.614   0.404   1.564 -1.0283 -1.1463  0.2221
  278SOL     OW10386   3.591   2.239   1.692  0.0995 -0.0445  0.2218
  278SOL    HW110387   3.581   2.141   1.709 -0.2013  0.1733  1.3575
  278SOL    HW210388   3.600   2.287   1.780 -1.2000  1.0942 -0.2506
  279SOL     OW10389   4.267   4.140   1.175 -0.4024  0.2467  0.2645
  279SOL    HW110390   4.182   4.193   1.164 -0.9260 -0.4633  0.8366
  279SOL    HW210391   4.331   4.191   1.232  0.3680  1.7002 -1.8239
  280SOL     OW10392   3.931   2.767   0.167 -0.2894 -0.4063  0.5261
  280SOL    HW110393   3.999   2.813   0.111  1.2327 -0.8101  2.0076
  280SOL    HW210394   3.875   2.708   0.109  0.8157 -0.3213 -0.6576
  281SOL     OW10395   4.403   2.070   1.455  0.1003  0.4141 -0.3996
  281SOL    HW110396   4.397   2.119   1.542 -2.1822  0.8041 -0.7583
  281SOL    HW210397   4.313   2.037   1.428  1.4306 -3.6049 -0.4261
  283SOL     OW10398   3.422   2.305   0.551 -0.0854 -0.2554  0.4657
  283SOL    HW110399   3.515   2.280   0.577  0.5106 -0.7914 -2.0840
  283SOL    HW210400   3.388   2.241   0.482 -0.9533  2.1178 -1.3733
  284SOL     OW10401   3.762   3.878   2.013 -0.1233 -0.4949 -0.5807
  284SOL    HW110402   3.774   3.847   2.107 -0.1110  1.7818  0.2122
  284SOL    HW210403   3.849   3.875   1.965  0.0165 -0.9802 -0.2953
  285SOL     OW10404   3.512   3.709   2.023 -0.0024  0.5991  0.3783
  285SOL    HW110405   3.609   3.728   2.012  0.4475 -0.8772  1.5656
  285SOL    HW210406   3.476   3.668   1.940  0.6185  0.2889  0.2611
  287SOL     OW10407   3.198   2.655   0.370  0.2883  0.2988  0.2082
  287SOL    HW110408   3.289   2.679   0.404  0.3183  0.7282 -0.1782
  287SOL    HW210409   3.191   2.556   0.360  1.2758  0.3720 -1.3483
  288SOL     OW10410   3.833   9.929   1.618 -0.0646  0.2761 -0.4588
  288SOL    HW110411   3.793   9.843   1.585 -0.1339  0.7451 -1.6329
  288SOL    HW210412   3.785  10.006   1.575  0.4278  0.8907  0.0890
  289SOL     OW10413   3.754   2.105   0.318  0.0858 -0.6846 -0.0080
  289SOL    HW110414   3.792   2.061   0.400  0.0391 -1.5216 -0.4236
  289SOL    HW210415   3.730   2.034   0.251 -1.7713 -0.1303  0.0508
  290SOL     OW10416   3.443   0.107   0.824 -0.4179  0.1646  0.1052
  290SOL    HW110417   3.368   0.146   0.877 -1.4652  1.2096 -2.0471
  290SOL    HW210418   3.444   0.150   0.733  1.6941 -1.1125 -0.4911
  291SOL     OW10419   2.705   0.032   2.028 -0.5589 -0.0109 -0.2066
  291SOL    HW110420   2.679   0.032   1.931  1.3966  0.8815 -0.7631
  291SOL    HW210421   2.696   0.125   2.065 -1.5273 -0.3938  0.5437
  292SOL     OW10422   3.112   2.863   0.204 -0.1811 -0.3369 -0.3144
  292SOL    HW110423   3.144   2.798   0.273  0.3965 -0.4167 -0.6531
  292SOL    HW210424   3.132   2.956   0.235  1.4838 -0.4259 -1.0553
  295SOL     OW10425   4.422   1.649   2.284 -0.0343 -0.1805  0.0467
  295SOL    HW110426   4.372   1.624   2.368 -2.2363 -0.2211 -1.2319
  295SOL    HW210427   4.429   1.568   2.225 -0.1319  0.2799 -0.6001
  296SOL     OW10428   3.429   9.777   2.005  0.5897  0.1484  0.3558
  296SOL    HW110429   3.399   9.872   1.994 -0.4273 -0.2749 -0.5740
  296SOL    HW210430   3.434   9.733   1.916  0.7898 -0.7658  0.8107
  297SOL     OW10431   4.019   4.046   0.944  0.2535  0.4458 -0.2729
  297SOL    HW110432   4.111   4.082   0.954  0.2983  0.9203 -2.2131
  297SOL    HW210433   3.964   4.110   0.890 -1.1394  0.0495  0.6495
  299SOL     OW10434   2.272   2.417   1.610  0.0206 -0.1990 -0.1435
  299SOL    HW110435   2.184   2.428   1.656 -0.7745  0.7914 -1.8505
  299SOL    HW210436   2.305   2.507   1.580 -0.4247 -1.0348 -3.2178
  300SOL     OW10437   3.223   2.931   2.205 -0.3583  0.1095 -0.1249
  300SOL    HW110438   3.176   2.869   2.268  1.0548 -1.1449 -0.2798
  300SOL    HW210439   3.255   3.011   2.254 -1.1977  0.1870  0.3055
  302SOL     OW10440   2.185   0.950   0.984 -0.0832 -0.8447  0.7507
  302SOL    HW110441   2.128   0.873   0.956  2.5006 -1.9274 -1.8551
  302SOL    HW210442   2.206   1.006   0.904  0.8497  0.6613  2.0276
  303SOL     OW10443   3.343   3.091   0.217 -0.1837  0.3943  0.0832
  303SOL    HW110444   3.352   3.146   0.133  0.5136  0.2454  0.0565
  303SOL    HW210445   3.269   3.128   0.273  0.9981  2.0584  0.5910
  305SOL     OW10446   2.696   2.109   0.717  0.3902 -0.3843 -0.0085
  305SOL    HW110447   2.643   2.110   0.632 -2.2751  1.6005  1.5889
  305SOL    HW210448   2.783   2.157   0.703 -0.1004  0.0851 -1.5355
  306SOL     OW10449   3.104   4.235   1.186 -0.2547 -0.0609  0.0551
  306SOL    HW110450   3.195   4.212   1.220 -0.6043  0.7128  1.5704
  306SOL    HW210451   3.045   4.260   1.263 -1.4227  0.5508 -1.0177
  307SOL     OW10452   2.303   2.703   1.592 -0.1959 -0.2174 -0.2068
  307SOL    HW110453   2.392   2.726   1.630 -0.1651  0.0815 -0.4604
  307SOL    HW210454   2.253   2.787   1.571  0.5199 -0.3543 -2.5630
  308SOL     OW10455   3.059   3.848   0.370  0.1067 -0.0867  0.0414
  308SOL    HW110456   2.976   3.900   0.393 -0.0636 -1.2206  2.1964
  308SOL    HW210457   3.128   3.909   0.333 -0.4003  1.5423  1.6871
  309SOL     OW10458   2.765   3.204   1.968  0.1393 -0.4241  0.0945
  309SOL    HW110459   2.756   3.235   2.063 -0.2847 -1.1855  0.3153
  309SOL    HW210460   2.703   3.256   1.910 -0.6534 -0.9324  0.4780
  310SOL     OW10461   3.858   0.847   0.737 -0.4770  0.2658 -0.2526
  310SOL    HW110462   3.947   0.836   0.781 -0.3845 -1.2359 -0.7830
  310SOL    HW210463   3.787   0.857   0.807  0.2336  2.7671  0.1655
  311SOL     OW10464   3.542   9.768   1.358 -0.1591 -0.3910 -0.3467
  311SOL    HW110465   3.597   9.696   1.317  0.0130 -0.0460 -0.7235
  311SOL    HW210466   3.509   9.831   1.287 -0.5819 -0.2865 -0.0606
  312SOL     OW10467   2.310   1.370   1.274 -0.5930 -0.3430  0.4982
  312SOL    HW110468   2.273   1.417   1.194  0.0374 -0.4779  0.1235
  312SOL    HW210469   2.296   1.271   1.263  2.0037 -0.6088 -0.7765
  313SOL     OW10470   3.923   1.666   0.514  0.0764 -0.2588 -0.0561
  313SOL    HW110471   3.987   1.716   0.455 -0.3180  1.5367  1.0082
  313SOL    HW210472   3.834   1.662   0.469 -0.1139  0.7379  0.2309
  314SOL     OW10473   3.093   0.489   0.383 -0.0450  0.0383  0.1489
  314SOL    HW110474   3.141   0.424   0.441  1.7797  0.5873 -0.7212
  314SOL    HW210475   3.085   0.452   0.290 -1.1832  0.0193  0.2425
  315SOL     OW10476   3.009   0.986   0.453 -0.2743 -0.3428 -0.1158
  315SOL    HW110477   3.075   0.911   0.450  0.4101  0.2617 -0.3547
  315SOL    HW210478   2.922   0.952   0.490 -0.2948 -1.4842 -1.1711
  316SOL     OW10479   3.855   2.586   1.551 -0.6627  0.3548 -0.7959
  316SOL    HW110480   3.875   2.637   1.467  0.3020 -0.5775 -1.1506
  316SOL    HW210481   3.804   2.503   1.527 -1.0071  0.4525 -0.3860
  318SOL     OW10482   2.559   2.951   1.045 -0.0074 -0.5974  0.4372
  318SOL    HW110483   2.518   2.993   1.126  1.0190  2.4541 -0.5398
  318SOL    HW210484   2.658   2.964   1.047  0.2135 -2.1082 -0.4165
  319SOL     OW10485   3.292   1.493   2.235 -0.1189  0.2481 -0.6684
  319SOL    HW110486   3.353   1.564   2.270 -0.3619  0.2303 -0.2110
  319SOL    HW210487   3.282   1.421   2.304 -0.4482  0.1232 -0.8485
  321SOL     OW10488   2.880   3.987   1.984 -0.0142 -0.0566  0.2885
  321SOL    HW110489   2.909   3.942   1.899  0.4601 -1.3874  1.1277
  321SOL    HW210490   2.947   4.056   2.010 -0.5272  0.8578 -0.7948
  322SOL     OW10491   2.286   1.116   0.461  0.3284  0.6917  0.2771
  322SOL    HW110492   2.375   1.097   0.501  0.8571  0.3999 -1.0266
  322SOL    HW210493   2.275   1.215   0.447  1.4214  0.5344 -1.7882
  323SOL     OW10494   3.944   1.935   2.083 -0.0930  0.0460  0.2081
  323SOL    HW110495   3.971   1.951   2.178 -0.0944 -0.6712  0.3382
  323SOL    HW210496   4.018   1.886   2.036 -0.1337  0.3110 -0.1281
  324SOL     OW10497   2.900   3.020   1.836  0.1537 -0.3069 -0.1112
  324SOL    HW110498   2.935   2.938   1.883 -0.1051 -0.1834  0.3037
  324SOL    HW210499   2.866   3.085   1.905  2.5561  1.1768 -0.2795
  325SOL     OW10500   3.764   1.603   0.896 -0.1928 -0.3270  0.0357
  325SOL    HW110501   3.830   1.535   0.864  0.2708 -0.1129  0.5374
  325SOL    HW210502   3.803   1.655   0.972 -0.6070  0.3793 -0.2226
  327SOL     OW10503   3.114   0.107   0.659 -0.3944  0.0199  0.1753
  327SOL    HW110504   3.057   0.106   0.577  1.6332  0.3188 -1.3009
  327SOL    HW210505   3.081   0.039   0.724 -0.6234 -1.9037 -1.9067
  328SOL     OW10506   2.856   3.784   1.170  0.1732  0.4447 -0.0477
  328SOL    HW110507   2.759   3.764   1.177  0.1400  0.4283 -0.5410
  328SOL    HW210508   2.909   3.703   1.193  0.1151  1.0201  2.2915
  329SOL     OW10509   2.608   0.558   0.354  0.6472 -0.5106 -0.8868
  329SOL    HW110510   2.564   0.483   0.305 -1.3233  0.7621 -1.1339
  329SOL    HW210511   2.692   0.525   0.397 -0.6757 -3.0912 -0.1583
  330SOL     OW10512   2.770   3.914   0.352  0.2315 -0.8804  0.1076
  330SOL    HW110513   2.746   3.856   0.430  0.0700  0.2343  0.9007
  330SOL    HW210514   2.737   4.007   0.368  1.1926 -0.3713 -0.7929
  331SOL     OW10515   3.530   3.367   1.742  0.3449 -0.7829  0.0011
  331SOL    HW110516   3.480   3.446   1.777  1.4192 -0.2944  0.4545
  331SOL    HW210517   3.623   3.395   1.718  1.5690 -2.4563  2.5915
  332SOL     OW10518   2.237   1.996   1.871  0.5351 -0.1177 -0.5777
  332SOL    HW110519   2.247   2.041   1.782 -0.0288 -1.8763 -1.5657
  332SOL    HW210520   2.139   1.982   1.890  0.5857  1.4245  0.9467
  333SOL     OW10521   4.626   4.234   1.073 -0.6691  0.8561 -0.3773
  333SOL    HW110522   4.587   4.319   1.037  0.5251  1.1880 -0.9151
  333SOL    HW210523   4.604   4.158   1.012 -1.0643  0.9272 -0.3187
  334SOL     OW10524   2.959   4.130   0.785 -0.0702  0.2650  0.1292
  334SOL    HW110525   3.012   4.147   0.702 -0.9351 -0.5207 -0.5993
  334SOL    HW210526   3.017   4.088   0.854  0.1070 -1.1854 -0.8854
  335SOL     OW10527   4.190   1.003   0.655 -0.2125 -0.5159 -0.0711
  335SOL    HW110528   4.211   0.907   0.639  0.4243 -0.4783  0.5201
  335SOL    HW210529   4.242   1.060   0.591 -0.7941 -0.5720 -0.6026
  336SOL     OW10530   3.654   0.865   0.927  0.1905 -0.2112 -0.1345
  336SOL    HW110531   3.614   0.910   1.007  0.3441  0.6542 -0.5518
  336SOL    HW210532   3.636   0.766   0.933 -0.1845 -0.0959  0.7416
  337SOL     OW10533   3.848   2.284   2.077  0.0156 -0.0063 -0.0084
  337SOL    HW110534   3.922   2.217   2.074 -0.6679 -0.8381  1.2113
  337SOL    HW210535   3.884   2.374   2.053  1.3412 -0.4740  0.1608
  338SOL     OW10536   3.408   4.197   0.362  0.0889  0.2761  0.1770
  338SOL    HW110537   3.370   4.280   0.321 -1.2383 -1.2056 -1.6923
  338SOL    HW210538   3.380   4.192   0.457 -0.1501  1.7732  0.2032
  340SOL     OW10539   3.348   8.993   1.022  0.0839 -0.0801 -0.2294
  340SOL    HW110540   3.331   8.920   0.956 -1.4584  0.1431 -0.0905
  340SOL    HW210541   3.345   8.956   1.115 -0.1409  0.0545 -0.1821
  341SOL     OW10542   2.694   3.576   0.459  0.5016 -0.4100 -0.7397
  341SOL    HW110543   2.597   3.552   0.449  0.7553 -2.2072  0.8371
  341SOL    HW210544   2.744   3.545   0.379 -0.1865  0.3701 -1.4831
  342SOL     OW10545   3.543   9.912   1.570 -0.1943  0.0854  0.1088
  342SOL    HW110546   3.566  10.004   1.539 -0.1535 -0.5397 -1.7669
  342SOL    HW210547   3.538   9.850   1.491 -0.6471 -1.4275  1.2984
  343SOL     OW10548   2.365   1.453   1.735 -0.4800 -0.2016 -0.2910
  343SOL    HW110549   2.432   1.505   1.682 -0.7979 -0.4478 -0.9360
  343SOL    HW210550   2.274   1.467   1.698 -0.4636 -1.9078 -1.0351
  344SOL     OW10551   2.488   0.603   0.938 -0.3709  0.5724  0.1693
  344SOL    HW110552   2.409   0.558   0.981 -0.8077  1.8056  0.6910
  344SOL    HW210553   2.481   0.702   0.951  0.5493  0.8080 -0.9959
  345SOL     OW10554   3.461   2.095   0.896  0.1016 -0.0059 -0.7638
  345SOL    HW110555   3.477   2.069   0.801  0.5203  0.0519 -0.7138
  345SOL    HW210556   3.415   2.021   0.944  0.0211 -0.0935 -0.9768
  348SOL     OW10557   2.629   2.657   1.220  0.6620 -0.3871  0.4673
  348SOL    HW110558   2.613   2.735   1.281  3.5921  0.3714  0.3138
  348SOL    HW210559   2.566   2.662   1.143 -0.8811  0.4292  1.7460
  349SOL     OW10560   2.821   0.510   1.134  0.1410 -0.0528 -0.2279
  349SOL    HW110561   2.826   0.526   1.036  0.3440  2.0335  0.1032
  349SOL    HW210562   2.732   0.540   1.168 -0.5853 -2.3287 -0.0248
  350SOL     OW10563   3.769   2.074   1.255  0.0792  0.0250 -0.0734
  350SOL    HW110564   3.810   2.029   1.334 -0.6835 -1.5167 -0.5439
  350SOL    HW210565   3.817   2.045   1.172 -0.8733 -0.4628 -0.4528
  351SOL     OW10566   3.784   2.652   0.581  0.2481 -0.1492 -0.4280
  351SOL    HW110567   3.705   2.590   0.576  1.3542 -1.6150  0.1118
  351SOL    HW210568   3.840   2.641   0.499  0.7250 -0.2173 -0.0872
  352SOL     OW10569   3.762   2.781   1.269  0.5092 -0.3898 -0.2401
  352SOL    HW110570   3.706   2.731   1.203  0.6545 -0.8320 -0.0328
  352SOL    HW210571   3.704   2.811   1.345 -0.3211  2.9535 -2.1065
  353SOL     OW10572   3.094   3.944   1.238  0.1111  0.4463  0.2741
  353SOL    HW110573   3.085   4.043   1.223  0.6435  0.3796 -0.5962
  353SOL    HW210574   3.010   3.898   1.209  0.9493  0.3718 -2.2251
  354SOL     OW10575   3.192   9.429   2.197 -0.3632  0.0042  0.3777
  354SOL    HW110576   3.202   9.343   2.148  2.5230 -0.0811  1.0461
  354SOL    HW210577   3.269   9.489   2.175 -0.7702  1.2419  2.2597
  355SOL     OW10578   3.509   1.036   1.089  0.2330  0.1999  0.6282
  355SOL    HW110579   3.590   1.092   1.072  0.4482  0.1924  1.6116
  355SOL    HW210580   3.432   1.073   1.037  0.7613  0.4520  0.0120
  356SOL     OW10581   3.299   3.170   1.260  0.2571 -0.2311  0.7897
  356SOL    HW110582   3.348   3.221   1.330  1.9164 -0.7269  0.0236
  356SOL    HW210583   3.364   3.128   1.197 -1.1677 -0.5888 -0.5015
  357SOL     OW10584   3.122   2.696   1.501 -0.0937 -0.2595  0.3909
  357SOL    HW110585   3.177   2.770   1.539  0.7177 -0.1192 -1.0253
  357SOL    HW210586   3.122   2.702   1.401 -1.2946 -1.2568  0.3229
  358SOL     OW10587   3.485   0.281   2.097 -0.2260 -0.1055  0.2934
  358SOL    HW110588   3.549   0.324   2.033 -2.4691  1.1960 -1.1472
  358SOL    HW210589   3.537   0.231   2.167  2.3115 -1.3072 -2.3041
  359SOL     OW10590   2.750   1.245   1.184  0.1616 -0.2809 -0.1809
  359SOL    HW110591   2.815   1.273   1.113  0.8173  0.9409  0.8850
  359SOL    HW210592   2.795   1.182   1.247  0.3371  0.5932  0.5769
  360SOL     OW10593   2.848   0.090   1.145 -0.1485  0.1797 -0.1619
  360SOL    HW110594   2.901   0.011   1.177 -0.6250 -0.0669  0.0154
  360SOL    HW210595   2.833   0.153   1.221 -1.7446 -0.6616  0.2447
  362SOL     OW10596   3.476   4.324   1.556  0.0173  0.7702 -0.0595
  362SOL    HW110597   3.541   4.262   1.598 -0.7971  0.4087  0.6608
  362SOL    HW210598   3.502   4.419   1.577 -0.8718  0.5734  1.9786
  363SOL     OW10599   3.033   9.485   1.966  0.0359  0.6921  0.4902
  363SOL    HW110600   3.005   9.542   2.043  0.0681 -0.5026  1.3818
  363SOL    HW210601   3.106   9.423   1.994  1.3261  1.5194 -0.9800
  364SOL     OW10602   4.599   2.439   0.695  0.0669 -0.0911  0.9500
  364SOL    HW110603   4.544   2.412   0.774  0.1654 -0.0437  1.0354
  364SOL    HW210604   4.636   2.357   0.651  0.0884 -0.1132  1.0086
  365SOL     OW10605   3.186   1.407   1.967 -0.0578 -0.0137  0.4282
  365SOL    HW110606   3.192   1.403   2.066  0.4627 -1.7194  0.3381
  365SOL    HW210607   3.262   1.358   1.926 -0.7766 -0.1331 -0.8125
  366SOL     OW10608   4.557   2.687   1.338 -0.1494 -0.0533 -0.1820
  366SOL    HW110609   4.542   2.598   1.294  0.4690 -0.3195  0.1506
  366SOL    HW210610   4.592   2.752   1.271 -0.6889 -0.0349 -0.4480
  367SOL     OW10611   2.816   2.984   1.045 -0.2531  0.1282 -0.2936
  367SOL    HW110612   2.856   3.052   0.984  0.8910 -0.7291 -0.5044
  367SOL    HW210613   2.839   3.007   1.140  1.3843 -0.7723 -0.4626
  368SOL     OW10614   3.271   0.164   1.069 -0.4540  0.4118  0.0282
  368SOL    HW110615   3.191   0.224   1.063 -1.0694 -0.3277  0.6310
  368SOL    HW210616   3.241   0.069   1.075  0.4775  0.1187  0.1651
  369SOL     OW10617   3.585   3.115   2.227  0.0246  0.1704 -0.6452
  369SOL    HW110618   3.672   3.156   2.199 -0.0296  0.1773 -0.8052
  369SOL    HW210619   3.602   3.041   2.292  0.0709  1.0474  0.3669
  370SOL     OW10620   2.847   0.352   0.690 -0.4105  0.0769 -0.0300
  370SOL    HW110621   2.843   0.280   0.759  1.7220  0.4162  0.4909
  370SOL    HW210622   2.863   0.311   0.600  1.9769 -0.0666  0.4276
  371SOL     OW10623   3.059   2.823   1.980 -0.2796  0.0529 -1.1273
  371SOL    HW110624   3.142   2.877   1.994  0.3488 -0.9656 -0.8470
  371SOL    HW210625   3.000   2.832   2.060 -0.4974  0.8738 -1.3767
  373SOL     OW10626   3.894   1.830   1.051  0.2862  0.4585 -0.1042
  373SOL    HW110627   3.954   1.752   1.066  0.0465  0.4331  0.8044
  373SOL    HW210628   3.941   1.900   0.997  1.0483  0.3403  0.4071
  374SOL     OW10629   3.060   0.802   1.403  0.9519  0.0945  1.0072
  374SOL    HW110630   3.035   0.864   1.328  0.6293 -1.2520 -0.0383
  374SOL    HW210631   3.099   0.854   1.479 -0.1939  1.6629  0.5377
  375SOL     OW10632   4.660   2.183   1.693 -0.3004 -0.5305  0.8054
  375SOL    HW110633   4.726   2.113   1.720  0.4011  0.4023  1.5421
  375SOL    HW210634   4.568   2.145   1.695  0.1434 -1.6462  0.4556
  377SOL     OW10635   3.706   0.186   1.546 -0.1271 -0.1542  0.1504
  377SOL    HW110636   3.662   0.239   1.473 -0.5263  0.0776  0.5557
  377SOL    HW210637   3.776   0.243   1.590  0.1822 -0.3272 -0.1099
  378SOL     OW10638   2.573   3.448   0.805  0.1373 -0.4030 -0.0822
  378SOL    HW110639   2.501   3.460   0.737  1.3758 -1.5410 -1.6325
  378SOL    HW210640   2.658   3.488   0.770  0.1016  1.6270  2.0517
  379SOL     OW10641   2.384   2.421   2.152 -0.1477 -0.1922 -0.0768
  379SOL    HW110642   2.377   2.322   2.139 -1.4225 -0.2075  0.6311
  379SOL    HW210643   2.348   2.445   2.242  1.1145  0.8005  0.1753
  380SOL     OW10644   3.248   2.396   1.528 -0.3361  0.0962 -0.9472
  380SOL    HW110645   3.323   2.381   1.593 -0.4588 -1.1704 -1.0936
  380SOL    HW210646   3.178   2.453   1.570  0.0393  0.0844 -0.3034
  381SOL     OW10647   3.163   3.650   1.503  0.7771 -0.0109 -0.0598
  381SOL    HW110648   3.207   3.660   1.592  0.4048  0.4736  0.0760
  381SOL    HW210649   3.218   3.591   1.444  1.3937  0.2575  0.2466
  382SOL     OW10650   2.216   1.238   0.768  0.5001 -0.3378 -0.0898
  382SOL    HW110651   2.209   1.274   0.675 -0.7536 -1.8723 -0.5867
  382SOL    HW210652   2.168   1.300   0.831 -0.7510 -0.5802 -0.7979
  384SOL     OW10653   3.427   3.254   1.480 -0.4971  0.0957 -0.2232
  384SOL    HW110654   3.481   3.269   1.563  0.2096  0.2361 -0.7060
  384SOL    HW210655   3.394   3.160   1.479 -0.9390  0.2404  0.4686
  385SOL     OW10656   3.145   3.423   0.166 -0.1721 -0.0599  0.1609
  385SOL    HW110657   3.057   3.378   0.182 -0.5977  0.1883 -1.3500
  385SOL    HW210658   3.159   3.495   0.233  0.2048 -1.9723  2.1972
  386SOL     OW10659   2.394   2.784   2.159  0.6410  0.3307 -0.7562
  386SOL    HW110660   2.476   2.796   2.103  0.3335  0.8468 -1.0976
  386SOL    HW210661   2.316   2.828   2.115  0.1171 -0.3835 -0.5610
  387SOL     OW10662   3.708   1.085   2.120 -0.4568  0.2571 -0.3050
  387SOL    HW110663   3.805   1.111   2.118  0.0405 -1.4672 -0.4302
  387SOL    HW210664   3.669   1.108   2.209  0.4818 -0.3835  0.2825
  389SOL     OW10665   3.267   9.548   0.283  0.4069  0.1195 -0.1432
  389SOL    HW110666   3.168   9.542   0.290  0.3484  1.8922  0.7976
  389SOL    HW210667   3.292   9.617   0.215  1.0167 -1.0797 -1.1704
  390SOL     OW10668   3.282   4.395   0.180 -0.4516 -0.3614 -0.0037
  390SOL    HW110669   3.202   4.405   0.120  0.9279  3.6346 -1.2649
  390SOL    HW210670   3.289   4.475   0.240  3.3569  0.0310 -0.8607
  391SOL     OW10671   3.750   4.299   0.220 -0.5125 -0.2574  0.2794
  391SOL    HW110672   3.837   4.294   0.172  1.5868  2.4253  3.5499
  391SOL    HW210673   3.709   4.208   0.226  1.4555 -1.3701 -2.3056
  392SOL     OW10674   3.333   2.002   0.470  0.1501 -0.0581  0.2607
  392SOL    HW110675   3.414   2.022   0.527  0.5012 -0.8971  0.0533
  392SOL    HW210676   3.277   1.933   0.515 -1.2157  1.5580  1.1044
  393SOL     OW10677   3.674   3.680   0.774  0.0895 -0.2372  0.0542
  393SOL    HW110678   3.654   3.629   0.858 -0.7386 -0.9403 -0.5656
  393SOL    HW210679   3.632   3.634   0.696  0.7540  0.4839 -0.7371
  394SOL     OW10680   3.819   1.361   1.838  0.1835 -0.1379 -0.3320
  394SOL    HW110681   3.767   1.295   1.783 -0.1430  0.8444 -1.2207
  394SOL    HW210682   3.756   1.416   1.892  0.4285 -0.2228  0.0405
  396SOL     OW10683   3.029   1.656   2.148 -0.1923 -0.2492  0.1843
  396SOL    HW110684   3.030   1.567   2.194 -1.2466  0.8138  2.3404
  396SOL    HW210685   2.942   1.667   2.099 -0.6571  0.1627  1.0933
  397SOL     OW10686   2.560   3.693   1.342 -0.0256  0.3079  0.0489
  397SOL    HW110687   2.556   3.791   1.361  1.8828  0.3554  0.3937
  397SOL    HW210688   2.630   3.651   1.400  0.3933 -0.9442 -1.3246
  398SOL     OW10689   3.564   2.359   1.990 -0.0878  0.2023 -0.2356
  398SOL    HW110690   3.499   2.373   2.065 -0.8269  1.1843 -1.0462
  398SOL    HW210691   3.657   2.357   2.027 -0.5790 -1.4693  0.9608
  399SOL     OW10692   2.943   1.297   2.284 -0.1168 -0.4471  0.0316
  399SOL    HW110693   2.874   1.285   2.212 -0.2378  0.3452  0.0084
  399SOL    HW210694   2.912   1.368   2.348 -0.4450 -1.8151  1.4047
  400SOL     OW10695   3.472   4.214   2.230 -0.5927  0.0129 -0.6822
  400SOL    HW110696   3.431   4.162   2.305 -1.9889 -0.9324 -2.0677
  400SOL    HW210697   3.501   4.152   2.158 -1.7219  1.0854 -2.1010
  401SOL     OW10698   4.115   4.125   1.557  0.2614 -0.4019 -0.4543
  401SOL    HW110699   4.215   4.130   1.569  0.3056 -0.4623 -0.8025
  401SOL    HW210700   4.094   4.090   1.466 -0.0810 -0.1178 -0.4883
  402SOL     OW10701   4.042   4.191   0.226 -0.2568  0.4759  0.0930
  402SOL    HW110702   4.118   4.187   0.291 -0.7769 -0.0207  0.6748
  402SOL    HW210703   4.068   4.142   0.143 -0.2722 -0.4653  0.6362
  404SOL     OW10704   3.493   2.008   1.312 -0.1237  0.6362  0.4917
  404SOL    HW110705   3.434   2.073   1.360  0.7278  1.5550  0.2982
  404SOL    HW210706   3.573   2.055   1.276  0.2796 -0.4374 -0.0462
  405SOL     OW10707   3.183   0.380   2.016 -0.2161  0.6903  0.2467
  405SOL    HW110708   3.122   0.303   1.998 -0.9547  1.1603  0.6843
  405SOL    HW210709   3.240   0.397   1.936 -1.9946  1.4371 -0.9078
  407SOL     OW10710   2.454   3.480   0.399  0.2401  0.4526 -0.1267
  407SOL    HW110711   2.426   3.515   0.310 -0.7051 -1.2638 -0.5384
  407SOL    HW210712   2.501   3.392   0.386  2.6553  1.5508  0.8502
  408SOL     OW10713   3.722   2.356   1.490 -0.2174  0.4520 -0.5681
  408SOL    HW110714   3.681   2.320   1.406 -0.8750  1.5820 -0.7522
  408SOL    HW210715   3.678   2.313   1.569 -0.6586  0.4894 -0.7876
  410SOL     OW10716   2.309   1.098   1.212 -0.0132 -0.2255 -0.1759
  410SOL    HW110717   2.235   1.057   1.159 -0.0848  0.4966 -0.6356
  410SOL    HW210718   2.367   1.153   1.152  0.3048  0.0355  0.3675
  411SOL     OW10719   3.510   2.393   1.165 -0.2892  0.4926 -0.1696
  411SOL    HW110720   3.422   2.425   1.200 -1.9800 -1.9410 -2.0257
  411SOL    HW210721   3.496   2.317   1.102  3.0142  1.4701 -2.2508
  412SOL     OW10722   4.093   3.703   1.436  0.2459 -0.3302 -0.0993
  412SOL    HW110723   4.170   3.643   1.413  1.9456  1.8778 -0.3681
  412SOL    HW210724   4.105   3.792   1.391 -2.5323  0.0452 -0.2135
  413SOL     OW10725   3.850   4.499   0.608 -0.0658 -0.0364 -0.1299
  413SOL    HW110726   3.883   4.405   0.618 -0.8297 -0.1777  1.1277
  413SOL    HW210727   3.914   4.562   0.652  0.2961  0.0026 -0.7149
  414SOL     OW10728   3.704   2.270   0.708 -0.1920 -0.2756  0.2525
  414SOL    HW110729   3.731   2.267   0.805  0.9251 -0.2643 -0.0563
  414SOL    HW210730   3.782   2.296   0.652 -0.8699 -0.1533 -0.6525
  415SOL     OW10731   2.739   4.007   0.662  0.3949 -0.5134  0.1596
  415SOL    HW110732   2.787   4.044   0.741  1.8146 -1.6429 -0.1526
  415SOL    HW210733   2.671   3.940   0.692  2.1918 -2.3066  0.3445
  416SOL     OW10734   3.256   1.385   1.070  0.2113  0.6003 -0.0254
  416SOL    HW110735   3.355   1.392   1.084  0.1558  3.1627 -0.7057
  416SOL    HW210736   3.210   1.459   1.118 -1.1107  1.2447 -2.1911
  418SOL     OW10737   3.429   9.276   1.317 -0.5567  0.1263  0.0021
  418SOL    HW110738   3.388   9.200   1.367  0.7231  0.0636  0.9992
  418SOL    HW210739   3.446   9.249   1.223 -1.8346 -0.1798 -0.1486
  419SOL     OW10740   3.584   1.480   0.655  0.2461 -0.1175  0.0040
  419SOL    HW110741   3.610   1.477   0.752  2.4035  0.7121 -0.5145
  419SOL    HW210742   3.485   1.466   0.647 -0.0981  0.5759  2.3879
  420SOL     OW10743   2.428   1.813   1.823  0.4952 -0.1492  0.6874
  420SOL    HW110744   2.355   1.870   1.861 -0.7128  0.6632 -2.7294
  420SOL    HW210745   2.510   1.869   1.809 -0.0397  0.2764 -0.7604
  421SOL     OW10746   2.454   1.986   1.505  0.4941  0.6057 -0.7312
  421SOL    HW110747   2.525   2.035   1.556  1.5093 -1.1901 -0.3766
  421SOL    HW210748   2.493   1.953   1.419  0.3070 -1.0528 -0.1836
  422SOL     OW10749   2.383   0.971   0.220 -0.1057 -0.6338  0.1760
  422SOL    HW110750   2.409   1.065   0.197  0.8397 -0.7352  0.7638
  422SOL    HW210751   2.294   0.971   0.264 -0.3944 -0.0792 -0.3992
  423SOL     OW10752   2.433   3.115   1.272  0.3389  0.1058  0.1602
  423SOL    HW110753   2.475   3.206   1.271 -0.0981  0.3712  2.4867
  423SOL    HW210754   2.336   3.124   1.293  0.4423 -0.9336  1.1211
  425SOL     OW10755   3.002   2.626   0.560 -0.7670 -0.1411 -0.2128
  425SOL    HW110756   3.065   2.648   0.485  0.8534  0.2759  1.2311
  425SOL    HW210757   2.986   2.708   0.615 -4.8837  0.5048 -2.1653
  427SOL     OW10758   4.195   3.946   2.170 -0.0924  0.0665 -0.5429
  427SOL    HW110759   4.139   3.985   2.243 -1.2183 -1.1334 -0.7645
  427SOL    HW210760   4.284   3.919   2.208 -0.8690 -1.0572  0.5240
  428SOL     OW10761   3.835   1.460   0.221 -0.2261 -0.4308 -0.3212
  428SOL    HW110762   3.758   1.433   0.164  0.0901 -0.3318 -0.8001
  428SOL    HW210763   3.832   1.410   0.308 -1.6954  0.7119  0.3037
  430SOL     OW10764   4.824   1.491   1.620  0.4941  0.3365  0.2053
  430SOL    HW110765   4.775   1.444   1.546  0.2741  0.0289  0.5460
  430SOL    HW210766   4.842   1.585   1.593  1.6778 -0.1781 -0.8298
  431SOL     OW10767   3.605   3.644   0.397  0.1450  0.3676  0.6799
  431SOL    HW110768   3.696   3.659   0.358  0.0102 -1.5364 -0.4653
  431SOL    HW210769   3.614   3.595   0.483  0.1900 -0.6956  0.0867
  432SOL     OW10770   2.719   1.827   0.723 -0.9467 -0.1083 -0.2331
  432SOL    HW110771   2.635   1.782   0.690 -1.7808  1.3846 -0.1905
  432SOL    HW210772   2.701   1.924   0.738  0.5119  0.0087  0.8453
  435SOL     OW10773   2.768   3.299   2.227  0.0935  0.2915  0.7263
  435SOL    HW110774   2.706   3.252   2.290 -0.2446  0.9894  0.9167
  435SOL    HW210775   2.840   3.344   2.279  1.5862 -1.6877  0.4272
  436SOL     OW10776   3.781   9.203   0.657  0.3216  0.1159 -0.0190
  436SOL    HW110777   3.868   9.239   0.624  0.9080 -1.0719  0.2028
  436SOL    HW210778   3.727   9.170   0.580 -0.4187  1.8548 -0.2746
  437SOL     OW10779   2.541   3.992   1.488  0.0940  0.0973 -0.3918
  437SOL    HW110780   2.562   4.082   1.451 -1.6223  0.6057 -0.1768
  437SOL    HW210781   2.618   3.959   1.543  0.8651  1.2716 -0.7642
  438SOL     OW10782   2.354   2.258   0.313 -0.4029  0.5529 -0.3655
  438SOL    HW110783   2.292   2.211   0.250  1.5412 -0.3692 -1.6053
  438SOL    HW210784   2.387   2.343   0.271 -0.6994  0.9766  0.2461
  440SOL     OW10785   3.498   1.041   0.227 -0.1033 -0.5107 -0.5119
  440SOL    HW110786   3.474   1.075   0.137 -2.3415 -2.5700 -0.7168
  440SOL    HW210787   3.574   0.977   0.219  1.8049  1.6849 -0.5216
  441SOL     OW10788   2.606   1.888   1.301  0.0351  0.1915  0.4046
  441SOL    HW110789   2.649   1.908   1.214 -0.1926 -0.0392  0.2380
  441SOL    HW210790   2.673   1.847   1.363  0.3977  1.0783  0.6076
  442SOL     OW10791   3.220   1.813   2.238  0.9081 -0.0116 -0.5614
  442SOL    HW110792   3.185   1.835   2.329  4.2786 -2.0362  1.3252
  442SOL    HW210793   3.150   1.763   2.187 -1.2043  1.5720  0.6847
  443SOL     OW10794   3.534   1.633   1.040  0.5991  0.5357  0.1112
  443SOL    HW110795   3.609   1.623   0.975 -0.4303  0.9933 -1.1586
  443SOL    HW210796   3.466   1.696   1.004 -0.5065 -0.0276  1.1651
  444SOL     OW10797   4.016   2.386   0.780 -0.2801  0.2674  0.3226
  444SOL    HW110798   4.068   2.300   0.776 -0.0584  0.4035  0.2926
  444SOL    HW210799   3.979   2.405   0.689 -0.9307 -0.1680  0.4952
  445SOL     OW10800   3.349   3.280   0.627  0.1400 -0.0010  0.1003
  445SOL    HW110801   3.357   3.180   0.626  0.0195 -0.0360  1.2957
  445SOL    HW210802   3.259   3.307   0.592  0.6379 -0.2409 -1.3990
  446SOL     OW10803   4.447   1.018   0.917  0.0348  0.0634 -0.1329
  446SOL    HW110804   4.452   1.031   0.818 -2.6388  0.2447 -0.2803
  446SOL    HW210805   4.497   1.091   0.962  1.4459 -0.1243 -1.3293
  447SOL     OW10806   3.964   0.750   0.382 -0.4004  0.5702  0.3284
  447SOL    HW110807   3.881   0.736   0.436 -0.0327  1.0771  1.0288
  447SOL    HW210808   4.043   0.751   0.443  0.0533  0.7492 -0.2665
  448SOL     OW10809   2.980   2.513   1.650 -0.5859  0.4222  0.3160
  448SOL    HW110810   2.918   2.556   1.717 -2.5961  0.4590 -1.5328
  448SOL    HW210811   3.011   2.582   1.585 -0.0055  0.0189  0.1593
  449SOL     OW10812   4.180   1.496   0.574  0.1103 -0.2134 -0.4549
  449SOL    HW110813   4.151   1.484   0.479 -1.8743  1.5277 -0.1053
  449SOL    HW210814   4.142   1.581   0.610 -0.7235 -1.7606  2.4825
  451SOL     OW10815   2.505   1.468   0.369  0.2163 -0.3088 -0.1712
  451SOL    HW110816   2.549   1.494   0.284 -0.5362 -3.0593 -1.4480
  451SOL    HW210817   2.559   1.397   0.414 -1.0198 -1.0861  0.0917
  452SOL     OW10818   2.984   9.490   0.296 -0.3888  0.1067  0.4400
  452SOL    HW110819   2.930   9.484   0.212 -1.5280 -0.7982  1.2139
  452SOL    HW210820   2.977   9.581   0.335  1.3620  0.9941 -1.2204
  454SOL     OW10821   3.562   1.517   1.960  0.0359 -0.1149 -0.2345
  454SOL    HW110822   3.640   1.549   2.014 -0.5207  0.7960  0.0511
  454SOL    HW210823   3.480   1.567   1.988 -0.6496 -1.0575 -0.5435
  455SOL     OW10824   3.488   3.608   2.288 -0.1764  0.3310  0.4162
  455SOL    HW110825   3.499   3.508   2.288 -1.3704  0.1972  0.7391
  455SOL    HW210826   3.459   3.638   2.198  0.1331  0.3878  0.3337
  456SOL     OW10827   2.775   3.362   1.655  0.9415  0.3532 -0.3062
  456SOL    HW110828   2.801   3.270   1.628 -0.7314 -0.5482  1.0293
  456SOL    HW210829   2.814   3.383   1.744 -0.1740  0.2226  0.2243
  457SOL     OW10830   2.258   1.399   0.520  0.0806  0.1384  0.3968
  457SOL    HW110831   2.190   1.472   0.526 -1.8951 -1.6301 -0.0444
  457SOL    HW210832   2.341   1.435   0.477 -1.1154  1.9468 -0.4632
  458SOL     OW10833   3.427   2.047   1.915 -0.0948  0.6671 -0.4059
  458SOL    HW110834   3.462   2.032   1.822 -2.0711  1.8330 -1.3859
  458SOL    HW210835   3.503   2.062   1.978  1.2321  0.8774 -2.0203
  459SOL     OW10836   4.189   1.897   1.418 -0.0558 -0.0176  0.1602
  459SOL    HW110837   4.236   1.878   1.332  1.3345 -0.1320  0.9310
  459SOL    HW210838   4.172   1.812   1.467  0.7449  0.1937  0.8128
  460SOL     OW10839   2.746   1.959   0.448 -0.1246  0.3334 -0.4761
  460SOL    HW110840   2.680   2.033   0.460 -0.2874 -0.3557  3.6784
  460SOL    HW210841   2.822   1.971   0.513  0.9469 -1.9200 -1.2546
  461SOL     OW10842   2.932   9.976   0.422  0.1772  0.5930  0.0118
  461SOL    HW110843   2.953  10.037   0.345  1.9259  0.4306  0.3454
  461SOL    HW210844   2.846   9.929   0.404 -0.0442  1.4601 -1.2971
  462SOL     OW10845   2.919   1.089   1.322 -0.3628  0.3322  0.7802
  462SOL    HW110846   2.993   1.112   1.257 -0.0487 -0.1217  0.9738
  462SOL    HW210847   2.957   1.083   1.414 -0.2343 -1.9340  0.6056
  463SOL     OW10848   3.025   1.833   1.727  0.7191 -0.2645 -0.0907
  463SOL    HW110849   3.100   1.855   1.788  2.1831 -0.3463 -1.8168
  463SOL    HW210850   2.999   1.915   1.675 -2.1326  0.4292  2.3085
  464SOL     OW10851   3.736   0.730   0.513 -0.2979  0.3601  0.0579
  464SOL    HW110852   3.781   0.774   0.590 -0.0029 -1.7082  1.1116
  464SOL    HW210853   3.646   0.697   0.542 -0.3170 -0.1486 -0.5725
  467SOL     OW10854   3.321   3.930   1.497 -0.0384  0.1339 -0.0176
  467SOL    HW110855   3.296   3.961   1.405  0.6204 -1.4001 -0.7169
  467SOL    HW210856   3.417   3.950   1.514  0.0197 -0.2209  0.0719
  468SOL     OW10857   2.817   2.475   0.679  0.9377  0.1462  0.3945
  468SOL    HW110858   2.897   2.508   0.628  1.0052 -0.7123 -0.0630
  468SOL    HW210859   2.733   2.499   0.630  0.9625  0.0517  0.3074
  469SOL     OW10860   3.836   3.094   0.662  0.3417 -0.1577 -0.3178
  469SOL    HW110861   3.792   3.110   0.574  0.9688  2.4005 -0.1802
  469SOL    HW210862   3.888   3.008   0.658 -0.6239 -0.6787 -2.0370
  471SOL     OW10863   2.662   3.842   2.125 -0.3672 -0.1791 -0.5024
  471SOL    HW110864   2.571   3.872   2.096 -0.0038  1.0885 -0.3666
  471SOL    HW210865   2.732   3.893   2.076  0.2525  1.3541  1.8945
  472SOL     OW10866   3.424   0.643   0.256  0.1773  0.4199 -0.3018
  472SOL    HW110867   3.504   0.699   0.233  0.0736 -0.0371 -1.8196
  472SOL    HW210868   3.394   0.593   0.175 -2.5285  1.6686 -0.1129
  473SOL     OW10869   3.778   3.285   0.920 -0.2355  0.2243  0.1692
  473SOL    HW110870   3.876   3.267   0.930  0.3144  2.6895 -0.5830
  473SOL    HW210871   3.731   3.200   0.895  1.2146 -1.7138  3.6671
  474SOL     OW10872   3.859   8.679   1.971 -0.4767  0.4352  0.4857
  474SOL    HW110873   3.907   8.635   2.047 -0.2146 -0.1503 -0.0198
  474SOL    HW210874   3.769   8.638   1.960  0.0362 -0.4487 -0.4295
  475SOL     OW10875   2.772   2.776   0.857  0.0350  0.2620  0.4202
  475SOL    HW110876   2.814   2.830   0.930  1.4030  0.5300 -0.5649
  475SOL    HW210877   2.813   2.685   0.855  0.2647  0.3777 -0.2600
  477SOL     OW10878   3.175   0.156   1.811 -0.0014 -0.1597  0.1916
  477SOL    HW110879   3.249   0.216   1.781 -0.2575 -0.1408 -0.4116
  477SOL    HW210880   3.110   0.143   1.736 -0.8904  0.2434  0.8685
  478SOL     OW10881   2.615   2.909   1.348  0.2976 -0.1875  0.4456
  478SOL    HW110882   2.538   2.968   1.325 -0.1214 -0.4658  1.1159
  478SOL    HW210883   2.700   2.959   1.336  0.0423 -0.0222 -0.7572
  479SOL     OW10884   3.350   3.744   1.694  0.1414  0.6713 -0.1817
  479SOL    HW110885   3.304   3.769   1.779 -0.6007 -0.6284 -0.1919
  479SOL    HW210886   3.323   3.809   1.622 -0.1006  1.1074  0.3026
  480SOL     OW10887   4.024   4.265   1.226  0.0977  0.1728 -0.3095
  480SOL    HW110888   3.966   4.317   1.163 -0.1513 -0.4557 -0.6031
  480SOL    HW210889   3.973   4.185   1.260  0.1090  0.6936  0.9510
  481SOL     OW10890   2.609   0.852   0.343  0.1490 -0.6005 -0.3790
  481SOL    HW110891   2.597   0.753   0.346  1.1057 -0.7068  0.1863
  481SOL    HW210892   2.523   0.896   0.317 -1.9610 -1.2180  4.9410
  483SOL     OW10893   4.088   1.393   1.011  0.0075  0.2465  0.1524
  483SOL    HW110894   4.027   1.384   0.932 -0.5772  2.8180  0.2637
  483SOL    HW210895   4.141   1.309   1.022 -1.3609 -0.9081 -1.7472
  484SOL     OW10896   3.669   0.077   1.078 -0.8325 -0.4981  0.4744
  484SOL    HW110897   3.622   0.007   1.131  0.7531 -1.7180  0.3021
  484SOL    HW210898   3.631   0.081   0.986 -0.5528 -1.5071  0.3182
  487SOL     OW10899   2.739   9.848   0.291  0.1623 -0.0969 -0.1200
  487SOL    HW110900   2.692   9.890   0.213  0.5078 -0.4337 -0.5132
  487SOL    HW210901   2.756   9.751   0.271 -1.0317 -0.5431  0.9659
  488SOL     OW10902   3.877   4.428   1.100  0.4885  0.4709  0.2583
  488SOL    HW110903   3.816   4.457   1.174 -0.3847  0.8670 -0.6109
  488SOL    HW210904   3.824   4.383   1.029  1.6191 -1.8465  0.8404
  490SOL     OW10905   3.464   1.772   0.388 -0.0414  0.1502  0.4626
  490SOL    HW110906   3.400   1.845   0.412 -0.7997 -0.7999  1.4318
  490SOL    HW210907   3.416   1.700   0.340  1.0302  0.9861 -1.9286
  491SOL     OW10908   3.391   0.197   1.317  0.8081  0.1567 -0.1433
  491SOL    HW110909   3.330   0.223   1.392 -0.2988 -1.4853 -0.4376
  491SOL    HW210910   3.351   0.226   1.230  1.6079  1.1734 -0.1807
  492SOL     OW10911   3.202   3.621   0.377  0.1383  0.2500  0.0895
  492SOL    HW110912   3.286   3.666   0.346  1.5765 -0.3068  3.0118
  492SOL    HW210913   3.127   3.687   0.380  0.6064  0.9127 -1.8522
  493SOL     OW10914   2.582   2.823   1.618 -0.0724  0.0419  0.3449
  493SOL    HW110915   2.605   2.829   1.521  0.8049 -0.7043  0.4949
  493SOL    HW210916   2.567   2.914   1.655  2.4404  0.5690  0.1689
  494SOL     OW10917   2.276   2.006   0.971  0.0487 -0.0786 -0.1172
  494SOL    HW110918   2.177   1.993   0.962 -0.3447  2.0857  0.7550
  494SOL    HW210919   2.296   2.058   1.054  2.0071 -1.2093  0.1710
  495SOL     OW10920   2.858   1.005   0.718  0.0849  0.1266 -0.0780
  495SOL    HW110921   2.826   0.922   0.673  0.5878  0.2942 -0.7491
  495SOL    HW210922   2.870   0.987   0.816  1.3307 -0.9375 -0.4144
  496SOL     OW10923   3.524   2.548   0.463 -0.1050 -0.3410  0.0878
  496SOL    HW110924   3.483   2.639   0.467  1.6631  0.6172 -2.0853
  496SOL    HW210925   3.464   2.482   0.507 -1.7234  1.7658  1.1374
  497SOL     OW10926   2.178   2.873   2.015  0.3779 -0.2757 -0.1540
  497SOL    HW110927   2.138   2.795   1.968  0.0393 -0.8735  1.0899
  497SOL    HW210928   2.238   2.923   1.953  0.6045 -1.5367 -0.9581
  498SOL     OW10929   3.733   1.114   0.732 -0.1081  0.6307 -0.5304
  498SOL    HW110930   3.730   1.036   0.795 -1.3883  1.9911  1.1361
  498SOL    HW210931   3.675   1.095   0.652  1.0407 -0.8505 -1.0306
  499SOL     OW10932   4.408   2.179   1.734  0.2376  0.8114 -0.0683
  499SOL    HW110933   4.310   2.174   1.715  0.6613 -0.1983 -2.0228
  499SOL    HW210934   4.423   2.168   1.832 -1.6302  1.4325  0.3108
  500SOL     OW10935   2.673   0.899   1.261  0.3545  0.1287 -0.2218
  500SOL    HW110936   2.750   0.942   1.309  0.1832  0.2521 -0.0559
  500SOL    HW210937   2.687   0.907   1.162  1.1541 -0.9318 -0.2023
  501SOL     OW10938   3.543   9.460   1.507 -0.0219  0.0363  0.0145
  501SOL    HW110939   3.493   9.385   1.464  1.5968 -0.4511 -1.0964
  501SOL    HW210940   3.483   9.539   1.517 -1.3031 -0.8896 -0.2839
  502SOL     OW10941   3.696   4.606   1.239  0.2533 -0.1600  0.5624
  502SOL    HW110942   3.598   4.584   1.243 -0.2845  1.8754 -0.7534
  502SOL    HW210943   3.714   4.666   1.162  2.5467 -0.3918  0.8766
  503SOL     OW10944   3.919   3.246   1.229 -0.3922 -0.2810 -0.4683
  503SOL    HW110945   3.995   3.254   1.164 -1.4270  1.7953 -1.4549
  503SOL    HW210946   3.848   3.187   1.189 -0.3382 -0.3025 -0.5334
  504SOL     OW10947   2.593   2.291   1.871  0.1226  0.3376  0.1375
  504SOL    HW110948   2.690   2.296   1.848 -0.0751 -0.4467 -0.8781
  504SOL    HW210949   2.537   2.306   1.790 -0.5777 -1.5715  0.2388
  505SOL     OW10950   2.907   1.362   1.461 -0.1533 -0.2042  0.0203
  505SOL    HW110951   2.836   1.361   1.390  0.1644  0.4830 -0.3132
  505SOL    HW210952   2.935   1.456   1.477  0.4119 -0.4452  0.4270
  508SOL     OW10953   3.095   3.065   1.445  0.2333 -0.0219  0.0891
  508SOL    HW110954   3.146   3.096   1.365 -0.7451 -3.0869 -1.8104
  508SOL    HW210955   3.153   3.006   1.501  0.5542  1.1883  1.0522
  509SOL     OW10956   2.504   3.091   1.673  0.4328  0.6012  0.0149
  509SOL    HW110957   2.493   3.160   1.744 -0.3520  0.3582  0.1314
  509SOL    HW210958   2.522   3.136   1.585 -0.3407  0.9625  0.0395
  510SOL     OW10959   3.418   2.734   2.222 -0.2281  0.0763  0.6097
  510SOL    HW110960   3.376   2.646   2.201  0.8352 -0.0762 -0.9560
  510SOL    HW210961   3.354   2.808   2.202 -0.2877 -0.2276 -0.3300
  511SOL     OW10962   4.119   1.635   0.206  0.5503 -0.0711  0.6653
  511SOL    HW110963   4.121   1.545   0.249  1.7204  0.5491  1.9523
  511SOL    HW210964   4.037   1.684   0.235  0.6322 -0.1864  1.0913
  512SOL     OW10965   3.020   0.946   1.940  0.9061 -0.5479  0.0360
  512SOL    HW110966   2.928   0.909   1.936  0.9062 -0.3904 -1.8075
  512SOL    HW210967   3.016   1.045   1.952  0.8688 -0.7185  1.5349
  513SOL     OW10968   3.712   1.235   1.025  0.2492  0.0530  0.2913
  513SOL    HW110969   3.795   1.206   1.073 -0.3911 -1.9932  0.2012
  513SOL    HW210970   3.724   1.220   0.926 -0.0446  0.2298  0.2287
  514SOL     OW10971   3.688   2.041   2.052  0.0875 -0.3496  0.2297
  514SOL    HW110972   3.706   2.139   2.060 -0.5844 -0.1635 -0.4742
  514SOL    HW210973   3.774   1.993   2.033  0.4867  0.0483  0.9995
  515SOL     OW10974   3.307   3.010   1.850 -0.3508 -0.3588  0.0286
  515SOL    HW110975   3.393   2.992   1.899  0.5041  0.7952 -1.0189
  515SOL    HW210976   3.271   3.099   1.878  0.4710  0.5910 -1.8754
  516SOL     OW10977   4.022   1.890   0.328 -0.7340 -0.2497 -0.5300
  516SOL    HW110978   4.116   1.901   0.358 -1.3582 -1.6742  2.1440
  516SOL    HW210979   3.977   1.979   0.323 -0.1125  0.1793  1.2637
  517SOL     OW10980   3.674   0.832   2.052 -0.6257  0.3173 -0.1654
  517SOL    HW110981   3.703   0.928   2.060 -0.2903  0.1931  0.1228
  517SOL    HW210982   3.654   0.796   2.143 -1.2775  0.2736 -0.3247
  519SOL     OW10983   3.235   3.988   0.226  0.7054 -0.3754  0.3190
  519SOL    HW110984   3.300   3.913   0.232  0.8887 -0.2469 -0.0641
  519SOL    HW210985   3.282   4.075   0.241  0.6883 -0.2564 -0.3075
  520SOL     OW10986   4.070   0.808   0.872  0.7983 -0.1945 -0.2408
  520SOL    HW110987   4.028   0.794   0.961 -2.2670  2.4952 -1.1553
  520SOL    HW210988   4.163   0.842   0.883  0.3650  0.3166  1.9557
  521SOL     OW10989   3.644   4.458   0.421 -0.1791 -0.9642  0.3385
  521SOL    HW110990   3.692   4.413   0.345 -0.6157 -3.0414  1.2578
  521SOL    HW210991   3.705   4.461   0.500  0.1098  0.7878  0.0753
  523SOL     OW10992   5.101   3.197   1.678  0.0788 -0.1028  0.3140
  523SOL    HW110993   5.019   3.192   1.622  1.0585  1.1701 -1.2547
  523SOL    HW210994   5.182   3.183   1.621  0.9637 -1.7438  1.9064
  525SOL     OW10995   4.070   1.388   1.636 -0.0667  0.7556 -0.1675
  525SOL    HW110996   4.025   1.451   1.574  0.0974 -0.2731 -1.3534
  525SOL    HW210997   4.006   1.360   1.707 -0.3477  1.7021 -0.0452
  526SOL     OW10998   3.476   3.066   1.063  0.5688  0.3288  0.6532
  526SOL    HW110999   3.462   3.101   0.970 -0.1150 -0.2823  0.5218
  526SOL    HW211000   3.493   2.967   1.060 -0.1024  0.1908  1.2250
  527SOL     OW11001   3.641   3.515   0.989  0.0302  0.8034 -0.0543
  527SOL    HW111002   3.665   3.556   1.077 -0.9542  0.7697  0.2349
  527SOL    HW211003   3.693   3.431   0.976  0.0862  0.7381  0.5540
  528SOL     OW11004   4.323   2.972   1.196 -0.0890 -0.0736  0.4737
  528SOL    HW111005   4.414   2.931   1.191 -0.1758 -0.3636  1.2367
  528SOL    HW211006   4.263   2.913   1.250 -0.2745  0.9586  1.4020
  529SOL     OW11007   3.739   9.595   1.265 -0.1918 -0.1431  0.2965
  529SOL    HW111008   3.815   9.592   1.330 -1.9544 -0.7445  2.3552
  529SOL    HW211009   3.717   9.503   1.235 -0.2931  0.0124 -0.1140
  530SOL     OW11010   4.150   1.618   1.764 -0.3641 -0.3931 -0.0378
  530SOL    HW111011   4.077   1.661   1.819 -1.3886  0.8663 -2.3258
  530SOL    HW211012   4.117   1.532   1.727 -1.1874  0.8166 -2.1708
  531SOL     OW11013   3.249   0.300   0.797  0.1853 -0.1375  0.3415
  531SOL    HW111014   3.234   0.229   0.728 -0.0080  0.0165  0.2258
  531SOL    HW211015   3.175   0.297   0.865 -1.9164  2.4366 -1.7598
  532SOL     OW11016   2.823   2.801   2.150 -0.1595  0.5223  0.2439
  532SOL    HW111017   2.825   2.814   2.249  0.5082 -0.3008  0.3435
  532SOL    HW211018   2.761   2.725   2.128 -1.3162  1.5298 -0.0745
  533SOL     OW11019   3.630   1.810   0.707 -0.7298 -0.3033  0.6603
  533SOL    HW111020   3.612   1.734   0.644 -0.0941 -1.5200  1.9344
  533SOL    HW211021   3.676   1.776   0.788 -0.4107  1.4660  1.2382
  534SOL     OW11022   3.188   9.029   0.472  0.0405  0.5188  0.3205
  534SOL    HW111023   3.148   9.113   0.434 -2.9546 -0.8254  0.4233
  534SOL    HW211024   3.142   9.006   0.558 -0.2381 -2.0777 -0.4884
  535SOL     OW11025   3.848   3.534   1.371  0.2028  0.3018  0.2765
  535SOL    HW111026   3.916   3.603   1.397  0.8192 -0.5100  0.8635
  535SOL    HW211027   3.873   3.446   1.412 -1.4934  0.1025  0.9149
  536SOL     OW11028   2.765   1.702   1.449  0.0201  0.0412  0.6255
  536SOL    HW111029   2.837   1.643   1.486  0.6830  1.2187  1.2376
  536SOL    HW211030   2.679   1.685   1.498  0.0241 -0.9460  0.2888
  537SOL     OW11031   3.462   9.054   0.605 -0.0774  0.4023  0.6124
  537SOL    HW111032   3.479   9.149   0.630 -0.2465  0.1020  1.9018
  537SOL    HW211033   3.367   9.044   0.575  0.1679  0.7983 -0.2861
  540SOL     OW11034   2.118   0.949   0.351 -0.8220 -0.2825 -0.1534
  540SOL    HW111035   2.045   0.915   0.410  0.6739 -0.9438  1.3475
  540SOL    HW211036   2.185   1.000   0.406 -0.9930  1.7663 -1.7628
  541SOL     OW11037   3.553   2.065   0.626 -0.7971  0.0662  0.0275
  541SOL    HW111038   3.599   1.978   0.648  0.3321  0.8293  0.7400
  541SOL    HW211039   3.607   2.141   0.662 -1.4635  1.1021 -1.1285
  542SOL     OW11040   2.890   3.121   1.589 -0.4938  0.2018 -0.0150
  542SOL    HW111041   2.892   3.081   1.680  1.6728  0.8436  0.2377
  542SOL    HW211042   2.977   3.104   1.542 -1.4293  0.2126 -1.8197
  545SOL     OW11043   2.200   3.260   1.350  0.2962  0.3497 -0.6456
  545SOL    HW111044   2.262   3.307   1.413 -0.5879  2.3039 -1.1740
  545SOL    HW211045   2.227   3.282   1.256 -0.7261  0.6051 -0.8806
  546SOL     OW11046   2.865   2.266   0.395  0.7332 -0.3195  0.0686
  546SOL    HW111047   2.934   2.213   0.443  0.4010 -1.1637 -0.3796
  546SOL    HW211048   2.775   2.245   0.432  0.7505  1.0913  0.9360
  547SOL     OW11049   3.733   9.637   1.592  0.9687 -0.3601  0.0769
  547SOL    HW111050   3.726   9.635   1.692  0.6674  0.5905  0.0857
  547SOL    HW211051   3.663   9.578   1.552  0.5990 -0.1558  0.4195
  548SOL     OW11052   2.207   3.041   0.831 -0.8841 -0.3380 -0.6638
  548SOL    HW111053   2.114   3.072   0.851 -0.6430  0.5450 -0.9255
  548SOL    HW211054   2.270   3.118   0.834 -0.0992 -0.9840 -0.1716
  549SOL     OW11055   3.273   2.911   1.573  0.0053  0.2942  0.3950
  549SOL    HW111056   3.364   2.887   1.539  0.3983  1.1209  0.8266
  549SOL    HW211057   3.279   2.937   1.670 -0.8035 -0.3061  0.6152
  550SOL     OW11058   3.641   3.102   1.774 -0.0579  0.1652  0.8124
  550SOL    HW111059   3.599   3.047   1.847 -3.0734 -1.6684 -2.1604
  550SOL    HW211060   3.587   3.185   1.761  0.4125  0.4369  0.5972
  551SOL     OW11061   4.536   2.406   1.296 -0.2255 -0.1000  0.1838
  551SOL    HW111062   4.483   2.321   1.295  1.7879 -1.4047 -0.8131
  551SOL    HW211063   4.577   2.418   1.387 -2.7799  1.3122  1.1917
  553SOL     OW11064   3.152   9.698   0.650  0.0405  0.0856  0.0916
  553SOL    HW111065   3.235   9.730   0.694  0.2580  0.6254 -0.6913
  553SOL    HW211066   3.156   9.599   0.638  0.7684  0.1631 -0.3325
  554SOL     OW11067   3.366   4.189   1.320 -0.5350  0.3028  0.0043
  554SOL    HW111068   3.428   4.162   1.246  0.0060 -0.8212  0.8454
  554SOL    HW211069   3.418   4.226   1.397 -1.0093  0.5665  0.2046
  555SOL     OW11070   3.273   9.503   1.400 -0.1579  0.3928  0.4087
  555SOL    HW111071   3.339   9.436   1.367 -1.0708  0.2845 -1.2349
  555SOL    HW211072   3.196   9.456   1.444 -0.5934  0.3610 -0.3707
  556SOL     OW11073   3.233   4.512   1.884 -0.1270  0.6777  0.6008
  556SOL    HW111074   3.165   4.494   1.956 -0.3256  0.2178  0.2982
  556SOL    HW211075   3.325   4.496   1.920 -0.1632  1.5216  1.0799
  557SOL     OW11076   2.996   4.274   1.424  0.2511  0.2015  0.3043
  557SOL    HW111077   3.067   4.316   1.480  0.8852 -1.2619  0.6097
  557SOL    HW211078   2.945   4.207   1.478 -0.5542  0.3345 -0.2668
  558SOL     OW11079   2.607   0.280   0.256 -0.0502  0.4266  0.0148
  558SOL    HW111080   2.647   0.301   0.166 -0.8153  0.7539 -0.2573
  558SOL    HW211081   2.562   0.191   0.253 -0.1582  0.4803  0.0487
  559SOL     OW11082   2.832   0.219   1.766  0.3305 -0.1441  0.2498
  559SOL    HW111083   2.767   0.254   1.698  0.1166  0.6851  0.8647
  559SOL    HW211084   2.842   0.120   1.755  0.3325 -0.0110 -1.0060
  561SOL     OW11085   3.298   1.807   1.008 -0.0070  0.2321  0.7465
  561SOL    HW111086   3.258   1.732   1.060  0.5860  0.0173  0.8887
  561SOL    HW211087   3.241   1.889   1.019 -1.0758 -0.3978 -0.0363
  562SOL     OW11088   2.428   3.145   2.053  0.5182  0.5176  0.0973
  562SOL    HW111089   2.478   3.059   2.046 -0.2198  0.1810 -1.2300
  562SOL    HW211090   2.378   3.148   2.140 -1.0431 -1.2760 -0.7073
  563SOL     OW11091   3.913   8.942   1.900 -0.1025  1.0822  0.0417
  563SOL    HW111092   3.964   8.979   1.978 -1.9964  1.1867  1.2590
  563SOL    HW211093   3.890   8.847   1.917  0.6978  0.6846 -1.0341
  564SOL     OW11094   2.994   3.781   1.778 -0.0535  0.1439  0.4559
  564SOL    HW111095   2.984   3.832   1.693  1.6255 -0.3618 -0.0489
  564SOL    HW211096   3.079   3.808   1.824  0.0721 -1.0692  0.9504
  565SOL     OW11097   4.244   1.041   1.410 -0.6540 -1.0521 -0.1443
  565SOL    HW111098   4.148   1.061   1.391 -0.5399 -0.8328 -0.4943
  565SOL    HW211099   4.250   0.969   1.479 -1.0764 -2.5687 -1.6632
  566SOL     OW11100   2.997   1.223   1.902 -0.2589  0.1498 -0.3717
  566SOL    HW111101   2.918   1.231   1.962 -1.2403  1.7337 -1.8199
  566SOL    HW211102   3.067   1.289   1.930  0.7156 -1.4746  1.1096
  567SOL     OW11103   3.910   1.915   0.697  0.1877  0.6714  0.1368
  567SOL    HW111104   3.840   1.855   0.657 -1.1859  2.1209  0.3063
  567SOL    HW211105   3.998   1.870   0.694 -0.4085 -0.4234 -1.8901
  570SOL     OW11106   3.425   1.061   2.095  0.0904 -0.1202  0.5560
  570SOL    HW111107   3.523   1.081   2.102  0.1558 -0.6687  1.2592
  570SOL    HW211108   3.411   0.983   2.035  0.0926 -0.1102  0.5426
  571SOL     OW11109   2.889   0.824   0.956 -0.0154  0.3965  0.0766
  571SOL    HW111110   2.869   0.734   0.917  2.0101  1.1686 -2.9454
  571SOL    HW211111   2.805   0.878   0.961 -0.7128 -0.5479 -1.1530
  572SOL     OW11112   3.104   3.139   0.407  0.3851 -0.1519 -0.1554
  572SOL    HW111113   3.078   3.216   0.466 -0.0220 -0.7108  0.4061
  572SOL    HW211114   3.022   3.100   0.366  0.6117 -0.1541 -0.6027
  573SOL     OW11115   2.322   2.802   0.790 -0.4735  0.5373  0.4623
  573SOL    HW111116   2.414   2.842   0.789 -0.5170  0.6138 -0.2738
  573SOL    HW211117   2.255   2.874   0.810 -0.3302  0.3820  1.5535
  574SOL     OW11118   2.662   3.498   1.970  0.4066  0.1783 -0.0679
  574SOL    HW111119   2.743   3.554   1.951 -0.2077  1.3306  0.6771
  574SOL    HW211120   2.667   3.463   2.064  0.4686 -0.4898 -0.3153
  575SOL     OW11121   3.676   9.098   1.833 -0.1286  0.3183  0.3490
  575SOL    HW111122   3.771   9.065   1.830 -0.1843  0.1555  0.3745
  575SOL    HW211123   3.662   9.166   1.761 -0.4610 -0.8979 -0.7472
  577SOL     OW11124   2.389   2.161   2.035 -0.2147 -0.0601 -0.6124
  577SOL    HW111125   2.452   2.201   1.969  2.0212 -2.6222 -0.0975
  577SOL    HW211126   2.324   2.102   1.987  0.5014 -0.7849 -0.7027
  578SOL     OW11127   4.390   2.121   0.269 -0.1306  0.2697 -0.3453
  578SOL    HW111128   4.352   2.113   0.177  0.7354  1.5332 -0.8252
  578SOL    HW211129   4.473   2.177   0.266 -0.1780  0.4396  1.2188
  579SOL     OW11130   3.589   0.350   1.383  0.3343 -0.9056 -0.3359
  579SOL    HW111131   3.506   0.300   1.361  1.0698 -1.7611 -1.2381
  579SOL    HW211132   3.570   0.448   1.380 -0.7294 -1.0985 -0.1436
  580SOL     OW11133   3.924   1.086   1.619  0.4369 -0.0849 -0.4131
  580SOL    HW111134   3.832   1.122   1.634  0.6457  0.1721  0.2530
  580SOL    HW211135   3.989   1.135   1.677  1.0623  0.0461 -1.2120
  581SOL     OW11136   2.502   1.648   0.724  0.6039  0.2953 -0.7423
  581SOL    HW111137   2.467   1.660   0.816 -0.4453 -0.3139 -1.0586
  581SOL    HW211138   2.432   1.606   0.666  2.2382 -2.0751 -1.0755
  582SOL     OW11139   3.651   1.209   1.672 -0.0945  0.0496 -0.2168
  582SOL    HW111140   3.591   1.148   1.724 -1.2525 -0.4037 -2.0236
  582SOL    HW211141   3.596   1.278   1.625  1.0712  1.4960  0.5129
  583SOL     OW11142   2.948   1.132   1.607  0.1482  0.0675 -0.0846
  583SOL    HW111143   2.938   1.139   1.707 -0.0680  1.3349 -0.1898
  583SOL    HW211144   2.925   1.220   1.565  1.1611 -0.1837 -1.1768
  584SOL     OW11145   3.012   9.729   0.404 -0.8148  0.0176 -0.1681
  584SOL    HW111146   3.077   9.716   0.479  0.1481 -1.2394 -1.1912
  584SOL    HW211147   2.981   9.824   0.404 -1.1195 -0.0483  2.0363
  585SOL     OW11148   3.040   0.320   0.978  0.1821  0.3122 -0.2501
  585SOL    HW111149   2.993   0.244   0.933  0.1296  1.0004 -1.3545
  585SOL    HW211150   2.978   0.398   0.987  0.6640  0.7185 -0.4090
  586SOL     OW11151   3.116   3.404   0.556  0.1221 -0.2078  0.3292
  586SOL    HW111152   3.047   3.437   0.620  1.0238  1.7764  0.3222
  586SOL    HW211153   3.153   3.482   0.505  1.0908 -1.4776 -0.9350
  588SOL     OW11154   2.829   1.327   0.278  0.1290  0.7533  0.1403
  588SOL    HW111155   2.926   1.327   0.253  0.4188  1.2614  1.2090
  588SOL    HW211156   2.797   1.233   0.284  0.6663  0.5658  0.1646
  589SOL     OW11157   3.418   3.799   0.266  0.5148 -0.2874  0.3890
  589SOL    HW111158   3.472   3.747   0.332  0.4328  0.0557  0.7321
  589SOL    HW211159   3.478   3.854   0.209  0.6771 -1.5692 -0.6921
  590SOL     OW11160   3.240   2.960   0.580  0.0398  0.0253  0.6826
  590SOL    HW111161   3.172   2.905   0.628  0.7674 -1.9470 -0.4793
  590SOL    HW211162   3.194   3.023   0.517 -0.7464 -0.4863  0.7412
  592SOL     OW11163   3.610   0.072   2.241  0.3938 -0.6102 -0.5620
  592SOL    HW111164   3.599   0.029   2.331 -0.6934 -0.8094 -0.7879
  592SOL    HW211165   3.658   0.008   2.180 -0.0434 -0.9917 -0.5107
  593SOL     OW11166   3.877   1.330   0.442 -0.3391  0.1940  0.2294
  593SOL    HW111167   3.926   1.318   0.528 -0.0423 -1.4173 -0.1464
  593SOL    HW211168   3.787   1.288   0.449  0.3772 -1.5976 -0.8235
  595SOL     OW11169   2.838   3.695   2.259 -0.5012  0.3962 -0.2885
  595SOL    HW111170   2.914   3.752   2.227 -0.5614  0.4358 -0.3628
  595SOL    HW211171   2.752   3.733   2.224 -0.4459 -0.4578 -1.3919
  596SOL     OW11172   2.497   1.216   1.060  0.2943 -0.3121 -0.7424
  596SOL    HW111173   2.526   1.186   0.970  0.3427 -1.3139 -0.4003
  596SOL    HW211174   2.572   1.263   1.106  0.8506 -1.4310 -0.5046
  597SOL     OW11175   3.998   1.186   0.636  0.0132  0.0615  0.0477
  597SOL    HW111176   4.068   1.115   0.642  1.2386  1.3277  0.7952
  597SOL    HW211177   3.912   1.151   0.674  0.9020 -0.6425  1.4280
  598SOL     OW11178   4.848   1.750   1.518  0.2275  0.3795  0.1659
  598SOL    HW111179   4.751   1.776   1.516  0.2280  0.4654  1.0793
  598SOL    HW211180   4.889   1.782   1.603  0.9121 -0.1991  0.0544
  599SOL     OW11181   3.007   0.152   2.004  0.0391  0.2682  0.2788
  599SOL    HW111182   2.912   0.172   1.980 -0.3532 -1.9580 -0.2015
  599SOL    HW211183   3.059   0.130   1.921  0.5211 -0.2094  0.7000
  601SOL     OW11184   3.383   9.189   1.702 -0.1458  0.0045  0.1084
  601SOL    HW111185   3.385   9.158   1.797 -1.5424 -1.0469 -0.1988
  601SOL    HW211186   3.388   9.289   1.699 -2.0479  0.1508  1.3739
  602SOL     OW11187   2.493   1.127   0.794  0.0691 -0.0208  0.5039
  602SOL    HW111188   2.399   1.159   0.783 -0.3273 -1.3802 -0.2109
  602SOL    HW211189   2.541   1.134   0.706  0.3309 -0.2864  0.6252
  603SOL     OW11190   3.357   0.036   2.006 -0.0660 -0.4808 -0.2437
  603SOL    HW111191   3.287   0.073   1.945  0.0965 -0.3757 -0.3682
  603SOL    HW211192   3.406   0.111   2.050 -4.5113 -0.4174  5.1382
  604SOL     OW11193   3.158   0.984   1.608 -0.1273  0.3076  0.2212
  604SOL    HW111194   3.072   1.034   1.612  0.1015  0.5674  2.1571
  604SOL    HW211195   3.233   1.048   1.592 -0.1120  0.2810  0.1853
  605SOL     OW11196   3.479   1.803   2.158 -0.0539  0.8730  0.3497
  605SOL    HW111197   3.475   1.845   2.068 -1.3917 -1.7334 -0.8712
  605SOL    HW211198   3.388   1.803   2.200 -0.0641 -0.6473  0.3646
  606SOL     OW11199   3.022   2.874   0.704 -0.3083  0.2517 -0.1229
  606SOL    HW111200   2.932   2.914   0.682 -0.4323  0.6876  1.1052
  606SOL    HW211201   3.029   2.864   0.803  1.1962  0.6544 -0.1904
  607SOL     OW11202   3.939   3.786   1.041 -0.0495 -0.4177 -0.3209
  607SOL    HW111203   3.878   3.794   1.120  2.2566  1.2502  1.3760
  607SOL    HW211204   3.939   3.872   0.989  0.6935 -0.4642 -0.4069
  608SOL     OW11205   3.233   0.251   0.418 -0.7985 -0.2624  0.0187
  608SOL    HW111206   3.297   0.232   0.493 -2.4826  1.1769  1.8533
  608SOL    HW211207   3.219   0.168   0.364  0.2547 -1.3610  1.4065
  609SOL     OW11208   3.355   0.333   1.751 -0.1344  0.3000 -1.1895
  609SOL    HW111209   3.369   0.400   1.677  0.5248  1.7038  0.1701
  609SOL    HW211210   3.444   0.299   1.782 -0.1453  2.5240  1.4442
  610SOL     OW11211   2.970   3.599   1.307 -0.3813  0.3092 -0.0421
  610SOL    HW111212   3.036   3.601   1.382 -1.1795 -0.2319  0.6898
  610SOL    HW211213   2.996   3.528   1.242 -1.2361 -1.1941  1.2003
  611SOL     OW11214   2.900   2.685   1.181  0.9661  0.0460  0.1770
  611SOL    HW111215   2.883   2.621   1.106  0.3131  1.7261 -1.1320
  611SOL    HW211216   2.814   2.726   1.211  1.5318  1.2815  0.1308
  612SOL     OW11217   4.600   2.942   1.176  0.3584  0.0418 -0.0637
  612SOL    HW111218   4.664   3.017   1.196 -0.7302  1.1936 -0.8354
  612SOL    HW211219   4.600   2.923   1.078 -1.5067  1.0060 -0.2724
  614SOL     OW11220   2.797   0.819   0.525  0.8896  0.4968 -0.5133
  614SOL    HW111221   2.710   0.827   0.476 -0.1746  0.2850  1.2814
  614SOL    HW211222   2.827   0.724   0.524  0.0739  0.2108  0.5211
  615SOL     OW11223   3.270   2.275   1.851 -0.0069 -0.6644  0.1155
  615SOL    HW111224   3.322   2.191   1.868  0.7486 -0.4064 -0.9424
  615SOL    HW211225   3.332   2.349   1.828 -0.7146  0.0880  0.6149
  616SOL     OW11226   3.511   9.209   1.059 -0.4574  0.1388 -0.1126
  616SOL    HW111227   3.604   9.176   1.076 -0.9781 -0.2040  2.2632
  616SOL    HW211228   3.453   9.131   1.034 -0.7413 -0.1100  1.2903
  617SOL     OW11229   2.640   2.575   2.078  0.0241 -0.3749 -0.2979
  617SOL    HW111230   2.573   2.503   2.099 -0.0735 -0.4705 -0.9244
  617SOL    HW211231   2.647   2.586   1.979 -0.3121  0.8142 -0.2003
  618SOL     OW11232   3.343   0.929   0.433 -0.2051  0.2522 -0.4795
  618SOL    HW111233   3.366   0.957   0.340  0.7175 -0.7361 -0.5650
  618SOL    HW211234   3.295   0.841   0.431 -0.5158  0.4107 -0.0466
  619SOL     OW11235   3.996   2.645   1.287 -0.1858  0.0180 -0.4366
  619SOL    HW111236   3.985   2.546   1.272 -0.6464  0.2987 -2.1041
  619SOL    HW211237   3.909   2.690   1.269 -0.5033  0.5264  2.2728
  620SOL     OW11238   3.951   9.640   1.430 -0.2171  0.6739 -0.8629
  620SOL    HW111239   4.038   9.641   1.481 -0.6448  0.0248 -0.1004
  620SOL    HW211240   3.875   9.628   1.494 -0.6203 -2.5378 -1.8257
  621SOL     OW11241   2.570   1.861   0.227 -0.1301 -0.1184  0.5247
  621SOL    HW111242   2.570   1.761   0.224  0.5762 -0.0942 -0.7594
  621SOL    HW211243   2.646   1.893   0.284  0.5658 -0.3050 -0.2814
  622SOL     OW11244   3.475   4.463   1.000  0.0757 -0.5517  0.0838
  622SOL    HW111245   3.475   4.449   1.099  1.5201 -3.2839 -0.2438
  622SOL    HW211246   3.561   4.505   0.972 -0.1716 -0.1418 -0.0732
  623SOL     OW11247   3.753   2.377   0.322  0.3085  0.5116 -0.4400
  623SOL    HW111248   3.746   2.279   0.308  1.0542  0.4338 -0.3022
  623SOL    HW211249   3.663   2.415   0.342 -0.1476  0.0291 -1.5617
  624SOL     OW11250   3.173   1.233   0.436 -0.1229 -0.1922  0.1137
  624SOL    HW111251   3.261   1.219   0.482  0.8122 -1.1298 -1.8561
  624SOL    HW211252   3.117   1.151   0.444 -0.5106  0.1320  0.7279
  625SOL     OW11253   4.261   4.151   0.391  0.5175  0.1371  0.1927
  625SOL    HW111254   4.286   4.203   0.472  1.4186 -0.9491  0.6202
  625SOL    HW211255   4.342   4.137   0.334  0.3941 -1.2453  0.3458
  626SOL     OW11256   3.668   1.617   0.454  0.6850  0.4241 -0.2473
  626SOL    HW111257   3.637   1.551   0.522  1.1428  2.6045  2.1597
  626SOL    HW211258   3.591   1.675   0.426  0.5311 -0.3648 -1.5040
  627SOL     OW11259   2.203   1.652   1.133  0.5417  0.1355 -0.1104
  627SOL    HW111260   2.201   1.727   1.199 -0.7906  0.3531 -0.3781
  627SOL    HW211261   2.276   1.668   1.066 -0.3566  1.6927 -0.7368
  628SOL     OW11262   2.883   4.150   0.196  0.1918 -0.0702 -0.2837
  628SOL    HW111263   2.888   4.199   0.283  3.2432 -3.3013  1.5167
  628SOL    HW211264   2.879   4.051   0.214 -1.0526 -0.7593 -3.8223
  629SOL     OW11265   3.130   2.201   1.189 -0.2243 -0.2555  0.4484
  629SOL    HW111266   3.039   2.241   1.178 -0.4818 -1.0275 -0.2910
  629SOL    HW211267   3.195   2.273   1.214 -0.6919  0.6238 -0.8002
  630SOL     OW11268   4.407   1.465   2.026  0.2456 -0.7634 -0.6803
  630SOL    HW111269   4.419   1.553   1.978 -2.9452 -0.3118 -0.7546
  630SOL    HW211270   4.443   1.391   1.969  3.1952  0.4731 -0.5177
  632SOL     OW11271   3.201   9.219   2.046 -0.1784  0.1885  0.2386
  632SOL    HW111272   3.116   9.166   2.046 -0.3103  0.3961 -0.2178
  632SOL    HW211273   3.276   9.161   2.014 -0.1448 -0.0024  0.6648
  633SOL     OW11274   4.230   2.423   1.467  0.2558 -0.2266 -0.5692
  633SOL    HW111275   4.237   2.428   1.567  1.2136  0.8768 -0.6878
  633SOL    HW211276   4.279   2.500   1.426 -1.3482  0.1170 -1.8589
  634SOL     OW11277   3.519   2.973   2.001 -0.0931 -0.1590  0.4203
  634SOL    HW111278   3.550   2.879   2.013  0.2983 -0.1175 -0.2553
  634SOL    HW211279   3.513   3.018   2.090  1.1373 -0.3774  0.6209
  635SOL     OW11280   4.461   4.273   1.315  0.2551  0.3023  0.2961
  635SOL    HW111281   4.542   4.289   1.258  0.3623 -0.8614  0.1048
  635SOL    HW211282   4.436   4.357   1.362  1.2820  0.8014 -0.0343
  636SOL     OW11283   3.150   2.564   1.919  0.2128 -0.3591 -0.5539
  636SOL    HW111284   3.056   2.540   1.894 -0.1235 -0.3868  0.6750
  636SOL    HW211285   3.156   2.662   1.935  0.0798 -0.5253  0.5930
  637SOL     OW11286   2.566   1.108   0.528 -0.0713  0.0588 -0.4565
  637SOL    HW111287   2.591   1.045   0.454  3.5300  0.4547  0.2915
  637SOL    HW211288   2.640   1.175   0.540 -2.5000  2.5953  0.7303
  638SOL     OW11289   2.705   1.006   0.986  0.8116  0.0538 -0.1749
  638SOL    HW111290   2.694   1.102   1.010  1.4364  0.7987 -2.6733
  638SOL    HW211291   2.631   0.979   0.923 -0.3370 -1.5924  1.8068
  640SOL     OW11292   4.104   1.622   2.183 -0.0038  0.5264  0.0202
  640SOL    HW111293   4.116   1.524   2.168 -1.1542  0.3037  0.5129
  640SOL    HW211294   4.071   1.638   2.276 -0.2456  1.3465 -0.2011
  642SOL     OW11295   2.943   1.759   1.246  0.0130 -0.0281  0.3147
  642SOL    HW111296   3.007   1.832   1.268  0.6527 -0.2486 -0.8043
  642SOL    HW211297   2.877   1.749   1.321  1.9768 -0.5571  2.0039
  643SOL     OW11298   2.805   3.491   0.207  0.2941  0.5782  0.6950
  643SOL    HW111299   2.843   3.583   0.207 -2.0727  1.6436  2.9771
  643SOL    HW211300   2.809   3.452   0.115  0.3674  3.3777 -0.5193
  644SOL     OW11301   2.771   3.621   1.509  0.0601  0.4239  0.0906
  644SOL    HW111302   2.846   3.593   1.449 -0.0937 -0.5632  0.3526
  644SOL    HW211303   2.748   3.547   1.571 -1.4273  0.5527 -0.2730
  645SOL     OW11304   2.557   2.171   0.486  0.3999 -0.3657 -0.3039
  645SOL    HW111305   2.504   2.211   0.561  1.1762  0.6642 -0.3007
  645SOL    HW211306   2.512   2.190   0.399  1.2566  1.3236 -0.3842
  646SOL     OW11307   2.337   2.541   1.895  0.3423 -0.2566  0.2696
  646SOL    HW111308   2.429   2.572   1.870  0.1982 -1.2794 -1.5882
  646SOL    HW211309   2.339   2.503   1.987  1.1787  2.2894  1.3716
  648SOL     OW11310   2.827   1.981   2.205 -0.0573 -0.6481  0.6109
  648SOL    HW111311   2.799   1.912   2.138 -1.0786  0.6644 -0.3312
  648SOL    HW211312   2.917   2.017   2.179 -0.4970 -0.0693 -0.1157
  649SOL     OW11313   2.321   3.322   1.109 -0.0641  0.4011  0.4667
  649SOL    HW111314   2.358   3.415   1.116  0.0621  0.3173  0.9224
  649SOL    HW211315   2.369   3.272   1.036  0.4844  0.4023  0.8253
  652SOL     OW11316   3.731   3.753   2.249 -0.2584 -0.0481 -0.0443
  652SOL    HW111317   3.655   3.689   2.249 -0.7382  0.5165 -0.5114
  652SOL    HW211318   3.723   3.815   2.327  1.4635 -2.0084  1.7727
  653SOL     OW11319   4.125   3.930   1.271 -0.2294  0.5221  0.4058
  653SOL    HW111320   4.196   4.001   1.264 -0.2341  0.4861 -0.0274
  653SOL    HW211321   4.069   3.931   1.188 -0.9347  0.7583  0.8761
  654SOL     OW11322   3.307   2.480   2.131  0.0896  0.4627 -0.3190
  654SOL    HW111323   3.253   2.447   2.208  0.6359  1.1689  0.3677
  654SOL    HW211324   3.246   2.496   2.053 -0.5605  0.3811  0.1646
  655SOL     OW11325   3.207   9.379   0.661  0.4346  0.1733 -0.0057
  655SOL    HW111326   3.299   9.360   0.626  0.5249  0.9826 -0.2250
  655SOL    HW211327   3.214   9.425   0.750  0.1930 -2.5346  1.4410
  657SOL     OW11328   2.841   0.648   1.459 -0.2527 -0.0804  0.0787
  657SOL    HW111329   2.930   0.688   1.440 -1.0853  1.4517 -0.7012
  657SOL    HW211330   2.792   0.634   1.373 -0.0462 -2.6764  0.3347
  659SOL     OW11331   3.257   0.546   1.551  0.2008  0.3238  0.5480
  659SOL    HW111332   3.284   0.582   1.462  1.7228 -1.3449  0.3137
  659SOL    HW211333   3.218   0.620   1.606 -2.2251  1.0640 -2.0434
  660SOL     OW11334   3.553   2.627   0.760  0.1194 -0.2979 -0.8618
  660SOL    HW111335   3.652   2.616   0.775  0.1540  0.7719 -0.2866
  660SOL    HW211336   3.537   2.679   0.677  0.0769  0.8192 -0.1675
  662SOL     OW11337   4.062   3.241   0.944  0.1412 -0.3553 -0.0122
  662SOL    HW111338   4.060   3.155   0.892 -0.6909  0.3327 -1.1445
  662SOL    HW211339   4.145   3.244   1.000  0.4490 -1.6517 -0.3644
  663SOL     OW11340   2.703   1.941   1.066  0.2702  0.0279 -0.3782
  663SOL    HW111341   2.734   1.883   0.990  0.6546  1.1383 -1.0897
  663SOL    HW211342   2.714   2.037   1.040  0.0269  0.4146  0.9402
  664SOL     OW11343   2.679   1.938   1.804  0.0777 -0.6837  0.2875
  664SOL    HW111344   2.751   1.978   1.860 -1.6256 -0.0449  2.0963
  664SOL    HW211345   2.707   1.938   1.708 -0.1236  5.6754  0.0099
  665SOL     OW11346   4.095   9.653   1.216  0.2110  0.2070  0.0029
  665SOL    HW111347   4.194   9.653   1.225  0.3055 -0.1923 -0.9728
  665SOL    HW211348   4.053   9.646   1.306  1.0508  1.6438  0.5115
  666SOL     OW11349   3.099   9.282   0.405  0.0155  0.2706  0.1383
  666SOL    HW111350   3.127   9.313   0.496 -0.3730  0.1306  0.3095
  666SOL    HW211351   3.043   9.352   0.361 -1.3137 -0.3877  0.7428
  670SOL     OW11352   3.937   4.261   0.672 -0.1515  0.1173  0.3270
  670SOL    HW111353   3.942   4.191   0.600  1.1781  2.5296 -2.0303
  670SOL    HW211354   4.029   4.296   0.690 -1.1266  3.3936 -0.7755
  671SOL     OW11355   3.548   3.482   0.615 -0.1540 -0.5385 -0.1606
  671SOL    HW111356   3.486   3.411   0.582 -0.2916 -1.5110  2.1464
  671SOL    HW211357   3.642   3.448   0.611  0.0239  0.0350 -1.2735
  672SOL     OW11358   2.767   3.870   1.601 -0.2640  0.6927  0.8520
  672SOL    HW111359   2.753   3.775   1.574 -0.5707  0.5934  1.3640
  672SOL    HW211360   2.859   3.899   1.573  0.0372  0.0784  1.1901
  673SOL     OW11361   2.771   0.569   0.888 -0.0519  0.7035 -0.1088
  673SOL    HW111362   2.790   0.527   0.799 -0.6016  0.2061  0.0083
  673SOL    HW211363   2.672   0.577   0.900  0.0184  0.5695  0.5568
  674SOL     OW11364   3.449   9.967   1.229  0.4610  0.2890  0.4910
  674SOL    HW111365   3.360   9.947   1.188 -0.4957 -0.3773  2.7877
  674SOL    HW211366   3.449  10.061   1.264  0.2097 -0.1227  1.6054
  675SOL     OW11367   3.945   0.617   1.532  0.0992 -0.5310  0.5316
  675SOL    HW111368   3.910   0.691   1.589  4.3858  1.1799  1.1743
  675SOL    HW211369   3.909   0.626   1.439 -2.3121  0.1261  1.4908
  676SOL     OW11370   3.870   9.755   1.085  0.1156  0.1410  0.4855
  676SOL    HW111371   3.815   9.719   1.160  0.1557  0.9792  0.9276
  676SOL    HW211372   3.967   9.738   1.103  0.1722  0.9572  0.9630
  677SOL     OW11373   2.946   0.749   2.216  0.9490 -0.2997  0.2631
  677SOL    HW111374   3.041   0.758   2.186  0.1489 -0.6103 -2.5012
  677SOL    HW211375   2.888   0.810   2.162 -0.6229 -1.1822  0.9114
  678SOL     OW11376   4.014   0.832   2.061  0.6440  0.2191  0.0437
  678SOL    HW111377   3.976   0.746   2.025  1.3678 -0.4153  0.7600
  678SOL    HW211378   4.090   0.861   2.003  0.7828  0.0548  0.1426
  679SOL     OW11379   4.201   2.552   2.203  0.3609  0.1898 -0.5200
  679SOL    HW111380   4.282   2.598   2.166  1.2892  0.2201  1.5113
  679SOL    HW211381   4.227   2.495   2.280 -1.1450 -1.9618 -1.5322
  680SOL     OW11382   3.650   2.613   1.105  0.1431  0.2989 -0.3006
  680SOL    HW111383   3.598   2.533   1.136  2.3822 -0.6033  1.2800
  680SOL    HW211384   3.696   2.591   1.019 -0.5901  0.4547 -0.7312
  683SOL     OW11385   4.931   4.213   1.077 -0.2110 -0.1414 -0.3193
  683SOL    HW111386   4.844   4.248   1.113  0.0197 -0.9092  1.0145
  683SOL    HW211387   4.998   4.288   1.074 -0.0945 -0.1569  1.3132
  684SOL     OW11388   3.662   1.896   0.177  0.1828 -0.0763 -0.2044
  684SOL    HW111389   3.745   1.847   0.150 -0.5763 -1.3737 -0.2386
  684SOL    HW211390   3.606   1.837   0.235 -0.6869  0.8175 -0.1206
  685SOL     OW11391   4.368   0.756   0.886 -0.1017 -0.4115  0.1449
  685SOL    HW111392   4.295   0.726   0.949  0.3714 -1.3452  0.2526
  685SOL    HW211393   4.433   0.813   0.936  0.2102 -1.0569  0.4835
  686SOL     OW11394   3.849   0.317   1.257  0.6512 -0.3744  0.0322
  686SOL    HW111395   3.761   0.333   1.303  1.2982  2.6999  0.3597
  686SOL    HW211396   3.834   0.263   1.175 -1.4035 -0.7969  0.6343
  687SOL     OW11397   3.904   2.332   0.542  0.1701  0.4339  0.5861
  687SOL    HW111398   3.955   2.246   0.533  1.0248  0.8560  1.3370
  687SOL    HW211399   3.858   2.353   0.456  1.3711  0.1062 -0.1410
  688SOL     OW11400   2.551   2.532   0.558 -0.3139  0.4707 -0.1463
  688SOL    HW111401   2.481   2.489   0.614 -0.1362 -0.7893 -0.8877
  688SOL    HW211402   2.514   2.614   0.515 -1.0274  0.3583  0.2461
  689SOL     OW11403   3.139   4.199   0.610  0.2058  0.1568 -0.2953
  689SOL    HW111404   3.146   4.261   0.688  0.5339 -0.0745 -0.1391
  689SOL    HW211405   3.224   4.147   0.601 -0.7603 -1.6601  0.7433
  690SOL     OW11406   2.614   3.259   0.295  0.3141  0.0156  0.0409
  690SOL    HW111407   2.687   3.198   0.327  0.2609 -0.6414 -1.0885
  690SOL    HW211408   2.651   3.328   0.234  0.3209  0.9537  1.0748
  691SOL     OW11409   3.164   1.607   1.201 -0.0383  0.2278 -0.2178
  691SOL    HW111410   3.224   1.659   1.262  1.4818 -0.5508 -0.9984
  691SOL    HW211411   3.069   1.629   1.220  0.4910  1.3905  1.1587
  692SOL     OW11412   3.790   1.619   2.072 -0.3142  0.1523  0.1374
  692SOL    HW111413   3.836   1.536   2.105  0.2896  0.0595 -0.9129
  692SOL    HW211414   3.774   1.681   2.149 -1.6584 -1.3455  1.1096
  695SOL     OW11415   4.403   2.478   1.715  0.2527 -0.2023 -0.0095
  695SOL    HW111416   4.442   2.387   1.700  2.5294  0.5613  1.0313
  695SOL    HW211417   4.424   2.536   1.636  1.0790  0.1662  0.4821
  696SOL     OW11418   3.926   1.734   1.828  0.4359  0.1519  0.0258
  696SOL    HW111419   3.853   1.718   1.761 -0.5327  2.4975  0.4407
  696SOL    HW211420   3.892   1.715   1.920  1.4538 -2.0854 -0.0256
  697SOL     OW11421   3.765   4.337   0.876  0.1830 -0.4710  0.4359
  697SOL    HW111422   3.679   4.286   0.866 -1.1012  1.5692  0.9003
  697SOL    HW211423   3.815   4.334   0.790 -0.5510 -1.2998  0.0181
  698SOL     OW11424   2.860   3.049   0.317  0.1960 -0.3975 -0.0412
  698SOL    HW111425   2.847   2.955   0.284 -2.2340  0.1999 -0.9118
  698SOL    HW211426   2.871   3.110   0.239  1.7869  0.0602  0.5266
  699SOL     OW11427   4.211   0.884   1.885  0.3065 -0.1961 -0.2062
  699SOL    HW111428   4.197   0.838   1.798  1.7139  1.8118 -1.5292
  699SOL    HW211429   4.302   0.927   1.886  0.1181  0.2399  2.0535
  700SOL     OW11430   2.616   0.626   1.264 -0.2071 -0.1249  0.1224
  700SOL    HW111431   2.579   0.601   1.353 -1.9448 -1.0439 -0.8250
  700SOL    HW211432   2.608   0.725   1.251 -2.0457 -0.2650  0.0764
  701SOL     OW11433   2.848   0.288   0.419 -0.2781 -0.1016  0.4129
  701SOL    HW111434   2.924   0.271   0.355 -0.4085 -1.3566  0.5777
  701SOL    HW211435   2.762   0.283   0.369 -0.2771  0.8507  0.3174
  703SOL     OW11436   4.857   3.970   0.979 -0.2518  0.3413 -0.2464
  703SOL    HW111437   4.887   4.055   1.023  2.7599 -1.3474  1.0904
  703SOL    HW211438   4.796   3.921   1.041  2.2481 -0.9770  1.2518
  704SOL     OW11439   3.290   8.768   2.140 -0.1800 -0.0535 -0.6390
  704SOL    HW111440   3.282   8.866   2.158  0.6479 -0.3773  1.6888
  704SOL    HW211441   3.301   8.752   2.042  1.3749  2.3002 -0.8698
  705SOL     OW11442   2.993   0.139   0.202 -0.8680 -0.3422  0.1672
  705SOL    HW111443   3.092   0.146   0.214 -0.9523  2.0419 -0.1919
  705SOL    HW211444   2.971   0.141   0.105 -1.3049 -0.0896  0.2705
  706SOL     OW11445   3.737   9.312   1.230 -0.1171 -0.7871  0.2458
  706SOL    HW111446   3.653   9.268   1.263  0.2305 -0.0216  2.2424
  706SOL    HW211447   3.812   9.294   1.293  0.2608  1.8210  0.6231
  707SOL     OW11448   3.341   2.434   0.768 -0.4334 -0.5242  0.3458
  707SOL    HW111449   3.371   2.365   0.702 -0.8624  0.1016 -0.5043
  707SOL    HW211450   3.416   2.498   0.785 -0.3951 -0.5537  0.2893
  10.00000  10.00000   2.87400
