chitosan Film  in water:acetic acid 2%
12803
    1CHTO  H203    1   4.996   7.113   2.065  1.8366 -1.3280 -0.9925
    1CHTO   O82    2   4.988   7.049   2.132 -0.1800 -0.0044  0.0806
    1CHTO  C123    3   5.106   7.048   2.214 -0.4673  0.1972 -0.9916
    1CHTO  H227    4   5.095   7.112   2.303  1.1635 -0.8098 -0.0242
    1CHTO   O77    5   5.099   6.912   2.263 -0.3807  0.0572  0.2719
    1CHTO  C118    6   5.190   6.869   2.363 -0.1691 -0.0457  0.2398
    1CHTO  H222    7   5.190   6.934   2.452  0.7940 -0.3338  0.4646
    1CHTO  C125    8   5.146   6.727   2.405  0.0229  0.2430  0.0558
    1CHTO   O84    9   5.203   6.698   2.528  0.2152  0.6436 -0.0412
    1CHTO  H205   10   5.287   6.659   2.515  0.9994  1.9790  0.9044
    1CHTO  C114   11   5.333   6.887   2.300 -0.1955 -0.1776  0.0286
    1CHTO  H218   12   5.331   6.819   2.215  2.1231  0.1006 -0.2676
    1CHTO  C116   13   5.352   7.025   2.234  0.3283  0.6086 -0.6965
    1CHTO  H220   14   5.376   7.092   2.319 -0.8581  0.1412  0.0029
    1CHTO   O79   15   5.476   7.021   2.159  0.1495  0.0151  0.4225
    1CHTO  H201   16   5.511   7.107   2.168 -0.1801  0.2250 -0.2855
    1CHTO  C120   17   5.244   7.069   2.138 -0.0443  0.5532 -0.1857
    1CHTO  H224   18   5.258   7.010   2.044 -1.7127  2.4795 -1.6963
    1CHTO   N21   19   5.263   7.213   2.101 -0.2519  0.1613 -0.0149
    1CHTO  H211   20   5.358   7.219   2.050 -1.1841 -2.1974 -2.1032
    1CHTO  H212   21   5.190   7.247   2.030 -0.1939 -0.1144 -0.2110
    1CHTO   O75   22   5.438   6.862   2.392  0.1643  0.1772  0.7026
    1CHTO  C112   23   5.524   6.736   2.352 -0.1575  0.2734  0.6374
    1CHTO  H216   24   5.536   6.733   2.243 -1.5668 -1.2388  0.5158
    1CHTO   O73   25   5.454   6.617   2.400 -0.3490 -0.7672 -0.0035
    1CHTO  C113   26   5.510   6.492   2.369  0.3566  0.5903  0.9809
    1CHTO  H217   27   5.491   6.466   2.263  3.8152  1.6984  0.0484
    1CHTO  C124   28   5.423   6.398   2.450  0.1122 -0.1523  0.9920
    1CHTO   O83   29   5.472   6.261   2.438  0.3186  0.4749  0.6294
    1CHTO  H204   30   5.472   6.218   2.521  1.3843  0.6629  0.7347
    1CHTO  C109   31   5.662   6.480   2.407  0.1844  0.2572 -0.3501
    1CHTO  H213   32   5.665   6.466   2.516 -0.9188 -0.0186 -0.3477
    1CHTO  C110   33   5.740   6.606   2.368 -0.0268  0.1218  0.2818
    1CHTO  H214   34   5.744   6.615   2.260  0.2006 -0.2835  0.2537
    1CHTO   O78   35   5.873   6.592   2.423 -0.1383  0.1219  0.5304
    1CHTO  H200   36   5.875   6.547   2.505  0.6300 -1.9460 -0.5816
    1CHTO  C111   37   5.665   6.738   2.415  0.2336  0.4092 -0.6765
    1CHTO  H215   38   5.660   6.746   2.524 -0.9438 -2.4665 -0.4658
    1CHTO   N19   39   5.742   6.851   2.364  0.3759 -0.2371 -0.3737
    1CHTO  H207   40   5.715   6.940   2.419 -2.5004 -0.4250 -1.3917
    1CHTO  H208   41   5.751   6.856   2.256  0.4490  0.2278 -0.3450
    1CHTO   O74   42   5.718   6.353   2.346  0.3909 -0.1399 -0.0268
    1CHTO  C115   43   5.839   6.278   2.453 -0.5315  0.0783 -0.3667
    1CHTO  H219   44   5.835   6.320   2.554 -0.2021 -0.9741  0.0925
    1CHTO   O76   45   5.813   6.119   2.464 -0.4461  0.4266  0.4356
    1CHTO  C122   46   5.809   6.044   2.338  0.6101 -0.7676 -0.3795
    1CHTO  H226   47   5.708   6.049   2.296  0.6976 -0.3930 -0.5469
    1CHTO  C126   48   5.830   5.893   2.358 -0.1879 -0.3571 -0.2610
    1CHTO   O85   49   5.727   5.833   2.433 -0.2472 -0.6218  0.5236
    1CHTO  H206   50   5.711   5.868   2.519 -2.3304 -0.9968  0.3036
    1CHTO  C121   51   5.906   6.103   2.225  0.3371  0.3529  0.6275
    1CHTO  H225   52   5.942   6.017   2.165 -0.1640 -0.4294  1.4300
    1CHTO   O81   53   5.845   6.194   2.134 -0.0071 -0.3689  0.0877
    1CHTO  H202   54   5.796   6.146   2.070  1.1603 -1.5826  0.0838
    1CHTO  C119   55   6.021   6.164   2.296  1.1426 -0.3429  0.4429
    1CHTO  H223   56   6.051   6.093   2.372  0.5706  0.7674  1.7362
    1CHTO  C117   57   5.984   6.292   2.384 -0.0358  0.7827 -0.1256
    1CHTO  H221   58   5.977   6.387   2.331 -1.4791 -0.5459 -2.4030
    1CHTO   N20   59   6.083   6.308   2.498 -0.0891 -0.5256  0.5588
    1CHTO  H209   60   6.058   6.388   2.567 -1.7988 -1.0151  0.5434
    1CHTO  H210   61   6.185   6.285   2.471  0.1708 -0.8515  1.7614
    1CHTO   O80   62   6.172   6.191   2.202  0.3771 -0.4373  0.0001
    1CHTO  C103   63   6.296   6.093   2.236  0.4435  0.5668 -0.2730
    1CHTO  H190   64   6.294   6.063   2.341  1.3022  1.2477 -0.0544
    1CHTO  C101   65   6.311   5.956   2.162 -0.3066 -0.5370 -0.5770
    1CHTO  H188   66   6.295   5.969   2.055 -1.7150  3.5700  0.0440
    1CHTO   O68   67   6.198   5.856   2.227 -0.5737 -0.5057 -0.2359
    1CHTO  H168   68   6.232   5.825   2.309  0.7797 -1.2493 -1.0519
    1CHTO   C99   69   6.454   5.900   2.179 -0.6440 -0.0861 -0.0252
    1CHTO  H186   70   6.463   5.873   2.286 -0.5670 -1.4447 -0.3666
    1CHTO   N17   71   6.478   5.770   2.106 -0.1272  0.5439 -0.2354
    1CHTO  H174   72   6.568   5.765   2.046  0.5454 -0.7752  0.8485
    1CHTO  H175   73   6.481   5.687   2.175  1.9113 -1.1428 -2.2607
    1CHTO   C97   74   6.567   6.007   2.159  0.0301 -0.1664 -0.8413
    1CHTO  H184   75   6.549   6.035   2.054  1.9817 -0.0231 -1.1642
    1CHTO   O64   76   6.542   6.115   2.252  0.4104  0.6129  0.2489
    1CHTO  C104   77   6.425   6.183   2.213  0.8015  0.5628 -0.0040
    1CHTO  H191   78   6.426   6.212   2.108  1.8272  0.2595 -0.0888
    1CHTO  C108   79   6.422   6.318   2.284 -0.0790  0.4150  0.1535
    1CHTO   O71   80   6.548   6.382   2.247  0.5261 -0.9460 -0.5342
    1CHTO  H171   81   6.572   6.437   2.320 -1.4923  0.1243 -0.6467
    1CHTO   O62   82   6.702   5.966   2.181 -0.5351 -0.0981  0.7674
    1CHTO   C91   83   6.791   5.941   2.074  0.0132 -0.4118  0.0477
    1CHTO  H178   84   6.732   5.915   1.986  1.1257  2.1361 -1.5014
    1CHTO   C92   85   6.872   5.813   2.115  0.3348 -1.2566  0.5619
    1CHTO  H179   86   6.896   5.824   2.222  1.7706  0.8181  0.0561
    1CHTO   O66   87   6.780   5.700   2.098 -0.0777 -0.5829 -0.3682
    1CHTO  H166   88   6.757   5.698   2.007  1.4935  2.0867 -0.8668
    1CHTO   C93   89   7.010   5.794   2.037  0.0933  0.9701  0.1376
    1CHTO  H180   90   6.994   5.783   1.928 -0.6372 -1.1059  0.4347
    1CHTO   N16   91   7.102   5.682   2.081 -0.1433 -0.0836 -0.1109
    1CHTO  H172   92   7.076   5.656   2.183 -0.2215 -1.0060 -0.3672
    1CHTO  H173   93   7.085   5.597   2.018  2.6951 -0.1025 -0.9449
    1CHTO   C94   94   7.079   5.936   2.041  0.1311 -0.3015  0.3858
    1CHTO  H181   95   7.096   5.972   2.142  1.0928 -1.0349  0.4971
    1CHTO   O61   96   6.997   6.034   1.975 -0.1806  0.3463  0.2590
    1CHTO   C95   97   6.882   6.072   2.056  0.9493 -0.1211 -0.1155
    1CHTO  H182   98   6.912   6.122   2.148  1.6498 -0.7540  0.0096
    1CHTO  C106   99   6.799   6.187   1.983  0.1406  0.5543  0.3245
    1CHTO   O69  100   6.875   6.305   2.009  0.0989 -0.1136  0.5570
    1CHTO  H169  101   6.818   6.379   1.998 -0.3297 -0.4352  0.6678
    1CHTO   O63  102   7.226   5.938   1.957  0.5230 -0.2408  0.5634
    1CHTO   C96  103   7.337   6.010   2.029  0.0567 -0.0440  0.5205
    1CHTO  H183  104   7.300   6.099   2.078  2.0788  0.6718  0.7950
    1CHTO   C98  105   7.446   6.061   1.928 -0.2516 -0.0785  0.7974
    1CHTO  H185  106   7.392   6.121   1.854  1.1822 -0.6607 -0.7640
    1CHTO   O67  107   7.536   6.156   1.996 -0.3330  0.3008 -0.4749
    1CHTO  H167  108   7.483   6.229   2.024  0.1558 -0.2123  1.8686
    1CHTO  C102  109   7.545   5.948   1.870 -0.3048 -1.0569 -0.3872
    1CHTO  H189  110   7.642   5.998   1.854  0.4459 -2.3927 -0.0523
    1CHTO   N18  111   7.509   5.889   1.740 -0.2218 -0.8698 -0.1775
    1CHTO  H176  112   7.436   5.948   1.686  1.1786  0.2110 -0.9065
    1CHTO  H177  113   7.469   5.789   1.749  1.1262 -1.2841  1.5433
    1CHTO  C105  114   7.562   5.841   1.983 -0.2023  0.5132  0.1852
    1CHTO  H192  115   7.485   5.766   1.966  0.5181 -0.0485 -0.6532
    1CHTO   O65  116   7.544   5.884   2.111  0.1996 -0.0018  0.7064
    1CHTO  C100  117   7.405   5.918   2.133  0.2911 -0.4974 -0.2917
    1CHTO  H187  118   7.350   5.825   2.156  1.4807 -0.7375  1.6167
    1CHTO  C107  119   7.401   5.997   2.262  0.4033 -0.3851 -0.4964
    1CHTO   O70  120   7.270   5.986   2.323 -0.5324  0.1201  0.0552
    1CHTO  H170  121   7.287   5.961   2.412  1.0948 -0.5143 -0.4156
    1CHTO   O57  122   7.722   5.792   1.955 -0.1955  0.1527 -0.5126
    1CHTO   C85  123   7.765   5.662   1.904  0.3779  1.2262 -0.4243
    1CHTO  H157  124   7.677   5.627   1.847 -1.5323  0.6391  2.7258
    1CHTO   C83  125   7.776   5.564   2.015 -0.5779 -0.8632  0.1526
    1CHTO  H155  126   7.686   5.558   2.076  0.9347  0.6797  2.6499
    1CHTO   O56  127   7.863   5.616   2.115 -0.0934 -0.0490  0.1737
    1CHTO  H135  128   7.953   5.617   2.089 -0.1141 -0.0870  0.1013
    1CHTO   C81  129   7.807   5.431   1.951  0.9107 -0.3382 -0.2547
    1CHTO  H153  130   7.727   5.411   1.879  0.7301 -0.1705 -0.1006
    1CHTO   N14  131   7.799   5.320   2.044 -0.7938 -0.0354 -0.2110
    1CHTO  H141  132   7.784   5.353   2.145  0.9078 -1.4624  0.5306
    1CHTO  H142  133   7.722   5.250   2.021 -1.0799 -0.8361  2.9498
    1CHTO   C79  134   7.945   5.435   1.872 -0.1103  0.3075 -0.0547
    1CHTO  H151  135   7.949   5.340   1.818 -0.3646  1.0044 -1.3160
    1CHTO   O52  136   7.944   5.538   1.773 -0.4468 -0.1957  0.0579
    1CHTO   C86  137   7.899   5.670   1.819  0.5807  0.2319 -0.2527
    1CHTO  H158  138   7.983   5.707   1.881  0.1971 -0.2668  0.5728
    1CHTO   C90  139   7.878   5.779   1.703  0.3225 -0.1312 -0.5127
    1CHTO   O60  140   7.997   5.787   1.625  0.0092 -0.0570 -0.1212
    1CHTO  H138  141   7.990   5.855   1.561 -1.0018 -0.3600 -0.3363
    1CHTO   O50  142   8.056   5.459   1.960 -0.4275  0.0016 -0.5380
    1CHTO   C73  143   8.185   5.400   1.933  0.9756  1.0170 -0.8708
    1CHTO  H145  144   8.209   5.400   1.825  1.6266  1.4822 -0.7274
    1CHTO   C74  145   8.203   5.247   1.969  0.2415  0.0700  0.0670
    1CHTO  H146  146   8.128   5.193   1.910  0.2971  0.4506 -0.3556
    1CHTO   O54  147   8.333   5.204   1.921 -0.8281 -0.1616  0.9278
    1CHTO  H133  148   8.400   5.263   1.948  1.9482 -2.2851 -0.9989
    1CHTO   C75  149   8.184   5.226   2.122 -0.3816  1.1209 -0.6108
    1CHTO  H147  150   8.082   5.254   2.153 -0.8306 -1.4588  0.3510
    1CHTO   N13  151   8.205   5.088   2.170  0.0801 -0.0596 -0.9674
    1CHTO  H139  152   8.306   5.056   2.149  0.5475  0.3745  0.4881
    1CHTO  H140  153   8.128   5.027   2.125 -0.5469  0.1609 -0.2150
    1CHTO   C76  154   8.273   5.324   2.207 -0.0957  0.0325  0.0436
    1CHTO  H148  155   8.375   5.285   2.198 -0.6774 -1.3072 -1.1361
    1CHTO   O49  156   8.280   5.466   2.156 -0.2616  0.1208 -0.6667
    1CHTO   C77  157   8.297   5.477   2.011 -0.1524  0.5856 -0.3374
    1CHTO  H149  158   8.396   5.447   1.978  1.4173  2.0065  2.9567
    1CHTO   C88  159   8.277   5.623   1.976  0.5808  0.6446 -0.1477
    1CHTO   O58  160   8.392   5.706   2.029  0.5195  0.1379  0.2349
    1CHTO  H136  161   8.387   5.796   2.003 -0.6437  0.2425  0.7765
    1CHTO   O51  162   8.226   5.318   2.365 -0.0457 -0.5451 -0.5498
    1CHTO   C78  163   8.148   5.467   2.406 -0.2252 -0.1420  0.4866
    1CHTO  H150  164   8.115   5.524   2.316 -0.4892 -0.0419  0.6429
    1CHTO   C80  165   8.234   5.556   2.492 -0.2390 -0.0662 -0.2803
    1CHTO  H152  166   8.279   5.499   2.576  2.1094 -0.0618 -1.4730
    1CHTO   O55  167   8.350   5.576   2.417 -0.2505 -0.1731  0.4058
    1CHTO  H134  168   8.402   5.500   2.398 -0.0292  0.1766 -0.4039
    1CHTO   C84  169   8.162   5.690   2.546  0.1874  0.0087  0.0007
    1CHTO  H156  170   8.152   5.759   2.462 -0.4970 -1.1263 -0.8566
    1CHTO   N15  171   8.245   5.759   2.652  0.3055  0.6664  0.0798
    1CHTO  H143  172   8.336   5.704   2.647 -0.0267  0.1747 -0.6635
    1CHTO  H144  173   8.268   5.863   2.638  0.3359  0.3175 -2.9343
    1CHTO   C87  174   8.024   5.652   2.600 -0.3834 -0.4522 -0.7310
    1CHTO  H159  175   8.030   5.592   2.691 -1.3854 -0.2618 -0.5409
    1CHTO   O53  176   7.943   5.561   2.503  0.0687  0.0605 -0.3623
    1CHTO   C82  177   8.015   5.436   2.478 -0.0717 -1.0279 -0.2377
    1CHTO  H154  178   8.023   5.376   2.568  0.3930 -1.1740 -0.3750
    1CHTO   C89  179   7.909   5.359   2.392  0.5236 -0.1078  0.3139
    1CHTO   O59  180   7.932   5.216   2.395  0.0386  0.5283  0.1598
    1CHTO  H137  181   7.985   5.189   2.323  0.5803 -0.1867  0.8238
    1CHTO   O45  182   7.932   5.766   2.635 -0.5073  0.4320 -0.2568
    1CHTO   C67  183   7.893   5.840   2.518  0.2300  0.0839 -0.1250
    1CHTO  H124  184   7.956   5.805   2.436  0.2016  1.8146 -0.9019
    1CHTO   C65  185   7.742   5.811   2.488 -1.0223 -0.3320 -0.2557
    1CHTO  H122  186   7.738   5.702   2.489  0.2977 -0.4104 -1.5863
    1CHTO   O44  187   7.700   5.859   2.357  0.1556 -0.5970  0.3025
    1CHTO  H102  188   7.622   5.910   2.368 -0.6736 -1.8448  0.3480
    1CHTO   C63  189   7.657   5.859   2.613 -0.0233 -0.7536  0.5937
    1CHTO  H120  190   7.699   5.814   2.703  1.4507 -2.0474 -0.7280
    1CHTO   N11  191   7.514   5.818   2.613  0.5439 -0.4667 -0.0004
    1CHTO  H108  192   7.468   5.865   2.697  1.7949  1.2923 -0.2578
    1CHTO  H109  193   7.499   5.712   2.609 -2.3677 -0.1218  0.6141
    1CHTO   C61  194   7.680   6.018   2.620 -0.6460  0.0158 -0.9173
    1CHTO  H118  195   7.644   6.046   2.721 -0.8968 -1.6771 -0.5363
    1CHTO   O40  196   7.819   6.063   2.619  0.0367  0.2151 -0.0353
    1CHTO   C68  197   7.921   5.995   2.539 -0.3364 -0.3608 -0.1597
    1CHTO  H125  198   8.013   6.016   2.598  0.4149  0.5063 -1.6008
    1CHTO   C72  199   7.945   6.063   2.406  0.3298  0.1821 -0.3059
    1CHTO   O48  200   8.036   6.169   2.419  0.4299 -0.2246 -0.0056
    1CHTO  H105  201   8.076   6.193   2.338  0.6473  1.2410  0.5063
    1CHTO   O38  202   7.606   6.099   2.530 -0.4753 -1.1588  0.4247
    1CHTO   C55  203   7.540   6.219   2.590 -0.2696  0.1444 -0.7359
    1CHTO  H112  204   7.609   6.267   2.661  0.4468 -3.5992  1.2579
    1CHTO   C56  205   7.408   6.182   2.654 -0.4724  0.2981 -0.3503
    1CHTO  H113  206   7.361   6.107   2.589 -2.0819  0.3792  0.6914
    1CHTO   O42  207   7.437   6.098   2.767 -0.1736 -0.1732 -0.1960
    1CHTO  H100  208   7.456   6.008   2.747 -0.4110 -0.6047  1.4563
    1CHTO   C57  209   7.319   6.309   2.701  0.5861 -0.0819 -0.4322
    1CHTO  H114  210   7.370   6.363   2.780 -1.6734  1.6758 -0.1170
    1CHTO   N10  211   7.192   6.258   2.763 -0.0722  0.1405  0.1743
    1CHTO  H106  212   7.131   6.228   2.679  1.0408  0.5803 -0.8141
    1CHTO  H107  213   7.144   6.340   2.814  1.0160  0.8642  0.0673
    1CHTO   C58  214   7.302   6.400   2.580 -0.7879  0.4382 -0.0086
    1CHTO  H115  215   7.240   6.350   2.503 -0.5685  1.6508 -0.9814
    1CHTO   O37  216   7.431   6.430   2.533 -0.7376 -0.1281  0.3086
    1CHTO   C59  217   7.503   6.321   2.480 -0.4794 -0.1367  0.3654
    1CHTO  H116  218   7.455   6.268   2.398  2.6678 -2.8372  0.1805
    1CHTO   C70  219   7.624   6.374   2.404  0.8706  0.3825  0.2489
    1CHTO   O46  220   7.585   6.428   2.273 -0.1428 -0.2579 -0.2306
    1CHTO  H103  221   7.494   6.445   2.259 -0.7378 -3.5738 -0.7496
    1CHTO   O39  222   7.246   6.529   2.610  0.0841  0.4457  0.1063
    1CHTO   C60  223   7.180   6.578   2.495  0.4413  0.7215  0.6085
    1CHTO  H117  224   7.193   6.518   2.405 -2.7069  1.3082 -0.3170
    1CHTO   C62  225   7.028   6.599   2.550 -0.3472  0.8159 -0.1544
    1CHTO  H119  226   6.983   6.503   2.584  0.8869  0.9066  1.8040
    1CHTO   O43  227   7.002   6.658   2.681 -0.1263 -0.0354  0.0467
    1CHTO  H101  228   7.058   6.733   2.694  2.3165 -1.6099 -0.9460
    1CHTO   C66  229   6.939   6.658   2.435  0.6195 -0.5998  0.1784
    1CHTO  H123  230   6.959   6.604   2.343 -1.8727 -1.9666  0.3927
    1CHTO   N12  231   6.795   6.655   2.466 -0.3202 -0.2261 -0.2373
    1CHTO  H110  232   6.751   6.556   2.459  1.3182 -1.0877  1.4474
    1CHTO  H111  233   6.778   6.710   2.557  0.6354  0.8462 -0.6956
    1CHTO   C69  234   7.000   6.795   2.395  0.5301  0.3934 -0.2559
    1CHTO  H126  235   7.006   6.848   2.492  1.0023  1.5055 -0.8871
    1CHTO   O41  236   7.155   6.792   2.353 -0.4152 -0.0528 -0.5176
    1CHTO   C64  237   7.236   6.717   2.456 -0.6917  0.2820  0.8135
    1CHTO  H121  238   7.257   6.771   2.551  1.1057  0.2329  0.4470
    1CHTO   C71  239   7.376   6.691   2.397  0.5911 -0.0194 -0.4440
    1CHTO   O47  240   7.441   6.820   2.381 -0.1241  0.0573  0.3794
    1CHTO  H104  241   7.530   6.807   2.406  0.5327  2.2605 -0.7349
    1CHTO   O34  242   6.916   6.881   2.288 -0.1249  0.7735 -0.0492
    1CHTO   C49  243   6.861   7.018   2.287  0.2254  0.1980 -0.1725
    1CHTO   H91  244   6.771   7.013   2.226  0.6568 -0.2667 -0.7719
    1CHTO   C47  245   6.952   7.127   2.230  0.8277  0.3324 -0.3890
    1CHTO   H89  246   6.899   7.223   2.212  3.8238  1.5121 -3.4104
    1CHTO   O33  247   6.999   7.078   2.101  0.3678  0.1283  0.0474
    1CHTO   H70  248   7.080   7.031   2.097  0.6750  0.6743 -0.2048
    1CHTO   C45  249   7.078   7.154   2.326 -0.3840  0.4241  0.0508
    1CHTO   H87  250   7.130   7.057   2.329 -0.0631  0.5611 -0.9660
    1CHTO    N8  251   7.175   7.254   2.269 -0.2556 -0.5484 -0.1372
    1CHTO   H75  252   7.257   7.251   2.340 -0.3930  0.3329  0.0555
    1CHTO   H76  253   7.124   7.348   2.266 -2.6122 -1.7007  1.6871
    1CHTO   C43  254   7.039   7.183   2.475  0.3400 -0.4358  1.0132
    1CHTO   H85  255   7.131   7.164   2.530 -0.0623 -2.0964  1.1468
    1CHTO   O29  256   6.937   7.095   2.516  0.1443 -0.2294 -0.6071
    1CHTO   C50  257   6.824   7.056   2.435  0.4399 -0.1419  0.4902
    1CHTO   H92  258   6.781   6.969   2.486 -2.9564  1.4033  0.4464
    1CHTO   C54  259   6.716   7.164   2.439  1.0567 -0.4575 -0.0882
    1CHTO   O36  260   6.594   7.120   2.382 -0.1191 -0.3152 -0.1642
    1CHTO   H72  261   6.536   7.193   2.389 -2.0734 -1.8292 -0.1301
    1CHTO   O27  262   6.999   7.319   2.508 -0.4265 -0.0348  0.0611
    1CHTO   C37  263   7.012   7.438   2.592  0.2505 -1.1877 -0.5071
    1CHTO   H79  264   7.036   7.403   2.693 -1.8119 -1.7947 -0.2297
    1CHTO   C38  265   7.130   7.530   2.540 -0.4226 -0.2657  0.0821
    1CHTO   H80  266   7.137   7.526   2.430  1.1507 -1.6015  0.1999
    1CHTO   O31  267   7.244   7.464   2.589  0.0959  0.2364 -0.0217
    1CHTO   H68  268   7.262   7.491   2.677 -0.9699  4.3699 -0.9832
    1CHTO   C39  269   7.120   7.674   2.587  0.2969 -0.0613  0.8038
    1CHTO   H81  270   7.132   7.690   2.694 -0.5746 -0.7468  1.0103
    1CHTO    N7  271   7.229   7.765   2.527 -0.3598 -0.5360 -0.8301
    1CHTO   H73  272   7.288   7.828   2.592 -0.4891  0.8169 -2.0042
    1CHTO   H74  273   7.297   7.710   2.464  1.9700 -0.6053  1.6275
    1CHTO   C40  274   6.974   7.734   2.559 -0.0371 -0.1175 -0.1515
    1CHTO   H82  275   6.955   7.722   2.452 -0.2493  0.5483 -0.1909
    1CHTO   O26  276   6.885   7.649   2.636 -0.0744 -0.1942 -0.0965
    1CHTO   C41  277   6.876   7.515   2.590  0.0123 -0.2356 -0.9102
    1CHTO   H83  278   6.834   7.520   2.488  0.0533  2.2121 -0.8421
    1CHTO   C52  279   6.776   7.453   2.686 -0.3863 -0.1257 -0.6602
    1CHTO   O35  280   6.817   7.457   2.818  0.2601  0.2102 -0.5322
    1CHTO   H71  281   6.911   7.463   2.817  0.2083  2.4029  1.9587
    1CHTO   O28  282   6.960   7.867   2.609  0.0726 -0.3439  0.9247
    1CHTO   C42  283   6.888   7.991   2.568 -1.0726  0.0861 -0.0381
    1CHTO   H84  284   6.889   7.991   2.459  2.6531  2.1754 -0.0781
    1CHTO   C44  285   6.964   8.115   2.614 -0.1624  0.0338  0.5355
    1CHTO   H86  286   6.951   8.124   2.721 -1.6482  0.5934  0.3217
    1CHTO   O32  287   7.105   8.106   2.583  0.0194  0.4948  0.4872
    1CHTO   H69  288   7.159   8.172   2.622  1.4645 -0.3397 -0.0689
    1CHTO   C48  289   6.896   8.248   2.554 -0.4996  0.3672  0.3391
    1CHTO   H90  290   6.894   8.242   2.446 -1.8136 -0.8930  0.4247
    1CHTO    N9  291   6.960   8.378   2.594 -0.1642 -0.1638 -0.4721
    1CHTO   H77  292   7.067   8.370   2.586 -0.0195  0.8886  0.3369
    1CHTO   H78  293   6.933   8.405   2.695 -2.9920  0.2680 -1.2974
    1CHTO   C51  294   6.738   8.237   2.581  0.5359  0.1779  0.0526
    1CHTO   H93  295   6.718   8.265   2.684  3.4294  0.4955  0.5678
    1CHTO   O30  296   6.673   8.118   2.547 -0.6261 -0.5422  0.7544
    1CHTO   C46  297   6.742   8.000   2.618  0.0557  0.0033  1.0104
    1CHTO   H88  298   6.730   8.020   2.724 -1.0946  1.8789  0.5539
    1CHTO   C53  299   6.664   7.877   2.556 -0.6584  0.7462 -0.3325
    1CHTO   O72  300   6.524   7.871   2.587 -0.7215 -0.0611  0.0406
    1CHTO  H199  301   6.479   7.947   2.555 -2.0861 -0.9291 -0.1047
    1CHTO   O22  302   6.668   8.345   2.502 -0.6627 -0.1305  0.2902
    1CHTO   C31  303   6.618   8.351   2.362  0.1602 -0.3617  1.3235
    1CHTO   H59  304   6.540   8.430   2.365  2.2984  1.9227 -0.6675
    1CHTO   C29  305   6.730   8.408   2.273 -0.3255 -0.3101  0.6045
    1CHTO   H57  306   6.822   8.353   2.295  0.7021  0.8432 -0.7771
    1CHTO   O21  307   6.753   8.541   2.304 -0.1808 -0.0922 -0.1473
    1CHTO   H37  308   6.820   8.575   2.248 -0.0724  0.7100  0.4749
    1CHTO   C27  309   6.705   8.384   2.117 -0.3130 -0.6985 -0.6091
    1CHTO   H55  310   6.626   8.452   2.080 -1.3622 -1.0701  0.8789
    1CHTO    N5  311   6.831   8.409   2.038  0.9011 -0.1853  0.4134
    1CHTO   H43  312   6.927   8.382   2.079  0.1342 -1.6669  1.2614
    1CHTO   H44  313   6.833   8.516   2.023  0.7871 -0.2409 -0.0150
    1CHTO   C25  314   6.641   8.245   2.086  0.4935 -0.6304  0.0206
    1CHTO   H53  315   6.718   8.172   2.112 -0.2560 -0.4087  3.1496
    1CHTO   O17  316   6.518   8.224   2.173  0.4625 -0.4238  0.0641
    1CHTO   C32  317   6.550   8.217   2.309  0.0289 -0.3347  0.2521
    1CHTO   H60  318   6.616   8.132   2.324 -0.9146 -0.9416  0.9999
    1CHTO   C36  319   6.415   8.197   2.374 -0.2195  0.1527 -0.0734
    1CHTO   O25  320   6.356   8.070   2.343 -0.2661  0.6366 -0.0821
    1CHTO   H40  321   6.265   8.074   2.367 -0.3184  1.0758 -0.3400
    1CHTO   O15  322   6.591   8.242   1.927 -0.2135 -0.4362 -0.1797
    1CHTO   C19  323   6.514   8.225   1.798 -0.0347 -0.0218 -0.2671
    1CHTO   H47  324   6.412   8.264   1.815 -0.1410 -1.2166  2.0412
    1CHTO   C20  325   6.585   8.292   1.683  0.3265  0.2055 -0.0713
    1CHTO   H48  326   6.683   8.246   1.662  0.8175  1.4821 -0.6291
    1CHTO   O19  327   6.619   8.429   1.713 -0.4237 -0.0822  0.0514
    1CHTO   H35  328   6.629   8.467   1.628 -2.2972 -2.4708 -1.2774
    1CHTO   C21  329   6.501   8.288   1.547  0.8000 -0.3132  0.2234
    1CHTO   H49  330   6.403   8.332   1.568  0.8488 -0.9884  1.9715
    1CHTO    N4  331   6.557   8.338   1.419  0.3043  0.5538  0.0325
    1CHTO   H41  332   6.579   8.442   1.437 -0.2548  0.8519 -0.9576
    1CHTO   H42  333   6.651   8.288   1.403 -0.3654  0.0926 -2.7707
    1CHTO   C22  334   6.461   8.135   1.533 -0.0549 -0.3761 -0.4866
    1CHTO   H50  335   6.547   8.071   1.515 -0.2223 -0.4554 -1.0011
    1CHTO   O14  336   6.397   8.084   1.650 -0.2185 -0.0137  0.2019
    1CHTO   C23  337   6.483   8.078   1.764 -0.1275 -0.3015  0.1424
    1CHTO   H51  338   6.574   8.024   1.733  1.1749  1.5225  0.7400
    1CHTO   C34  339   6.416   8.004   1.879 -0.2720  0.5524 -0.0709
    1CHTO   O23  340   6.508   7.954   1.981 -0.7097  0.2940 -0.1814
    1CHTO   H38  341   6.551   8.028   2.020  1.4250 -0.5239 -0.9050
    1CHTO   O16  342   6.355   8.090   1.438  0.2218 -0.6438 -0.0039
    1CHTO   C24  343   6.398   7.963   1.345  0.0620 -0.0242  0.1973
    1CHTO   H52  344   6.501   7.933   1.368  0.8003  2.1818 -0.1464
    1CHTO   C26  345   6.391   8.000   1.195 -0.2097 -0.1749  0.0850
    1CHTO   H54  346   6.288   8.029   1.164  0.6418  0.7519 -1.9775
    1CHTO   O20  347   6.469   8.117   1.178 -0.5605 -0.2310  0.6307
    1CHTO   H36  348   6.430   8.193   1.216 -3.4552 -0.7343 -1.2038
    1CHTO   C30  349   6.435   7.873   1.118  1.0029 -0.3309  0.5074
    1CHTO   H58  350   6.542   7.853   1.132  1.5284  0.9362 -1.5577
    1CHTO    N6  351   6.418   7.896   0.976 -0.1351 -0.5037  0.7265
    1CHTO   H45  352   6.478   7.973   0.931  0.5647 -0.7347  1.2696
    1CHTO   H46  353   6.421   7.804   0.918 -0.2622 -0.5120  0.7330
    1CHTO   C33  354   6.372   7.735   1.164  0.2624 -0.8080 -0.4869
    1CHTO   H61  355   6.271   7.725   1.121  0.2895  2.0909 -1.2810
    1CHTO   O18  356   6.362   7.728   1.311  0.3634 -0.1210  0.3029
    1CHTO   C28  357   6.308   7.842   1.375 -0.1482 -0.4271  0.8838
    1CHTO   H56  358   6.211   7.858   1.328  0.5484  0.2425 -0.3623
    1CHTO   C35  359   6.273   7.813   1.517 -0.2366 -0.0673  0.4530
    1CHTO   O24  360   6.395   7.787   1.585  0.6269  0.4343  0.0074
    1CHTO   H39  361   6.379   7.722   1.650  2.9508  0.3629  0.5247
    1CHTO    O9  362   6.454   7.625   1.113 -0.1648  0.2218 -0.2239
    1CHTO   C13  363   6.436   7.482   1.171  0.9410  0.0265 -0.2973
    1CHTO   H26  364   6.338   7.483   1.222  1.9778  2.3595  1.8048
    1CHTO   C11  365   6.555   7.468   1.270 -0.6304 -0.0035  0.5931
    1CHTO   H24  366   6.528   7.539   1.350 -3.4973 -1.9056  1.3847
    1CHTO    O8  367   6.680   7.496   1.209  0.0677 -0.4907 -0.1424
    1CHTO    H3  368   6.734   7.420   1.196 -0.9111 -1.1501 -0.4872
    1CHTO    C9  369   6.547   7.327   1.321 -0.4704 -0.0901  0.9576
    1CHTO   H22  370   6.449   7.311   1.369 -1.6303  0.7619 -1.0587
    1CHTO    N2  371   6.639   7.297   1.434 -0.6227 -0.1274 -0.6309
    1CHTO   H10  372   6.706   7.219   1.401 -0.3484 -0.0071 -0.3685
    1CHTO   H11  373   6.701   7.384   1.454 -0.7964  0.4997 -2.7709
    1CHTO    C7  374   6.578   7.221   1.204  0.0599  0.2333  0.4122
    1CHTO   H20  375   6.564   7.121   1.250  1.1172 -0.4687 -0.7499
    1CHTO    O4  376   6.495   7.239   1.088  0.4624  0.5918 -0.2490
    1CHTO   C14  377   6.425   7.365   1.060 -0.4143  0.3186 -0.1890
    1CHTO   H27  378   6.320   7.330   1.063 -0.3046  0.0608  1.3052
    1CHTO   C18  379   6.470   7.399   0.913 -0.3771 -0.3246  0.1261
    1CHTO   O13  380   6.612   7.433   0.912  0.2213  0.2324  0.1346
    1CHTO    H7  381   6.637   7.429   0.822 -0.4979  0.4634 -0.0779
    1CHTO    O2  382   6.752   7.224   1.154 -0.1658 -0.0243 -0.1377
    1CHTO    C1  383   6.820   7.100   1.129 -1.4743  0.1105  0.7350
    1CHTO   H14  384   6.751   7.028   1.080 -2.1390 -0.1145  1.9743
    1CHTO    C2  385   6.874   7.030   1.270 -0.3233  0.1522 -0.2075
    1CHTO   H15  386   6.953   7.097   1.308  0.1510 -0.0243 -0.8824
    1CHTO    O6  387   6.757   7.006   1.359  0.5285 -0.6533 -0.0272
    1CHTO    H1  388   6.696   7.078   1.363 -0.3252 -1.4234  0.8896
    1CHTO    C3  389   6.950   6.899   1.241  0.6370 -0.0914 -0.8870
    1CHTO   H16  390   6.870   6.835   1.200 -1.2989  1.9221 -0.3521
    1CHTO    N1  391   7.009   6.819   1.355  0.2221 -0.5791  0.1845
    1CHTO    H8  392   7.005   6.714   1.329 -0.5288 -0.7580  1.0287
    1CHTO    H9  393   7.107   6.851   1.386  1.0545  0.5486 -3.4114
    1CHTO    C4  394   7.052   6.913   1.122 -0.0192  0.6409 -0.7896
    1CHTO   H17  395   7.143   6.964   1.154  1.3221 -2.9118  1.3452
    1CHTO    O1  396   6.988   6.991   1.017  0.0430  0.0549 -0.5346
    1CHTO    C5  397   6.936   7.121   1.031  0.0577 -0.6436  0.3623
    1CHTO   H18  398   7.011   7.191   1.067 -1.8456  1.9672 -0.5565
    1CHTO   C16  399   6.898   7.170   0.881  0.0073 -0.0300  0.2946
    1CHTO   O11  400   6.824   7.083   0.808  0.0638 -0.2477 -0.0553
    1CHTO    H5  401   6.876   7.045   0.741  2.3003 -0.3937  1.6932
    1CHTO    O3  402   7.060   6.785   1.055 -0.6601  0.0213  0.3589
    1CHTO    C6  403   7.165   6.767   0.958 -0.5100 -0.8119  0.5676
    1CHTO   H19  404   7.184   6.855   0.897  0.4088 -1.2619  0.1921
    1CHTO    C8  405   7.307   6.729   1.022  0.0926 -0.1656  0.3432
    1CHTO   H21  406   7.301   6.643   1.087 -0.8863 -1.1406 -1.0173
    1CHTO    O7  407   7.349   6.846   1.099  0.6929 -0.1990 -0.0350
    1CHTO    H2  408   7.441   6.837   1.114  0.8496 -0.5937 -1.2258
    1CHTO   C12  409   7.413   6.686   0.909 -0.6917 -0.9425 -0.7123
    1CHTO   H25  410   7.422   6.781   0.852  0.9882  2.2844  4.5859
    1CHTO    N3  411   7.549   6.649   0.967 -0.1631  0.4316 -0.4408
    1CHTO   H12  412   7.538   6.555   1.018  2.6285 -0.1859 -0.9058
    1CHTO   H13  413   7.627   6.630   0.895 -2.2590 -0.4930 -2.5556
    1CHTO   C15  414   7.349   6.575   0.823  0.4100  0.2540  0.8864
    1CHTO   H28  415   7.325   6.488   0.884 -0.4313 -1.2205 -1.5034
    1CHTO   O10  416   7.434   6.528   0.699 -0.2288 -0.1023  0.0362
    1CHTO    H4  417   7.413   6.438   0.685 -0.8005  0.4642 -3.0242
    1CHTO    O5  418   7.225   6.615   0.768  0.8078 -0.0464  0.2318
    1CHTO   C10  419   7.123   6.648   0.862 -0.3050 -0.6443  0.1471
    1CHTO   H23  420   7.113   6.558   0.924 -0.6519 -0.0698  0.9363
    1CHTO   C17  421   6.994   6.653   0.782 -0.5113  0.4261 -0.1806
    1CHTO   O12  422   6.981   6.770   0.703 -0.2227 -0.1502 -0.2629
    1CHTO    H6  423   7.062   6.778   0.656 -0.8966 -1.2376 -1.6567
    2CHTO  H203  424   6.422   4.989   2.251 -0.6251  2.0681  1.2383
    2CHTO   O82  425   6.393   4.923   2.311 -0.0280  0.6437 -0.0113
    2CHTO  C123  426   6.286   4.972   2.390 -0.5261  0.4985 -0.2155
    2CHTO  H227  427   6.319   5.062   2.445  0.5899 -0.9414  1.5104
    2CHTO   O77  428   6.186   4.995   2.281 -0.3283 -0.4106  0.1762
    2CHTO  C118  429   6.056   5.044   2.330 -0.2288  0.0512  0.5852
    2CHTO  H222  430   6.075   5.143   2.375 -2.3036  1.9219 -2.4482
    2CHTO  C125  431   5.950   5.065   2.210  0.0330 -0.2529 -0.3359
    2CHTO   O84  432   5.897   4.945   2.148  0.3712  0.2340 -0.4319
    2CHTO  H205  433   5.807   4.929   2.171  0.3083  1.3580  0.1294
    2CHTO  C114  434   5.993   4.948   2.430  0.5171  0.2143  0.0490
    2CHTO  H218  435   5.965   4.856   2.379 -1.6664  0.6583  0.3808
    2CHTO  C116  436   6.093   4.902   2.545  0.0558  0.4440  0.9779
    2CHTO  H220  437   6.102   4.987   2.616  0.4685  0.4847  0.8789
    2CHTO   O79  438   6.034   4.795   2.620  0.4375 -0.2335 -0.1776
    2CHTO  H201  439   6.028   4.722   2.561 -1.5221 -1.6649  1.7100
    2CHTO  C120  440   6.234   4.854   2.484  0.7272  0.3525  0.1008
    2CHTO  H224  441   6.216   4.766   2.420  0.6124  1.4900 -1.4620
    2CHTO   N21  442   6.331   4.807   2.578 -0.6306 -0.2431 -0.1284
    2CHTO  H211  443   6.423   4.789   2.525  0.4959  1.8160  1.0956
    2CHTO  H212  444   6.345   4.875   2.660 -1.2697  0.0289 -0.2481
    2CHTO   O75  445   5.878   5.019   2.472  0.6398 -0.8529 -0.8286
    2CHTO  C112  446   5.748   4.941   2.495  0.4155  0.5051  0.5662
    2CHTO  H216  447   5.774   4.850   2.550 -0.4924  0.9459  1.7462
    2CHTO   O73  448   5.686   4.913   2.365 -0.1469 -0.7310 -0.4752
    2CHTO  C113  449   5.571   4.833   2.369  0.3120 -0.2832 -0.8243
    2CHTO  H217  450   5.605   4.732   2.401  1.4220  0.2391 -0.3651
    2CHTO  C124  451   5.526   4.791   2.229 -0.3663 -0.8062 -0.2888
    2CHTO   O83  452   5.618   4.707   2.158 -0.1146  0.4974 -1.1000
    2CHTO  H204  453   5.595   4.617   2.169 -1.1859  0.8155 -0.5946
    2CHTO  C109  454   5.464   4.905   2.446  0.9549 -0.6283 -0.6315
    2CHTO  H213  455   5.440   4.997   2.391 -1.6565 -0.9439 -0.0643
    2CHTO  C110  456   5.506   4.939   2.584 -0.2261  1.0201 -0.0165
    2CHTO  H214  457   5.504   4.848   2.644 -0.6686 -0.9818 -2.9594
    2CHTO   O78  458   5.392   5.019   2.635 -0.0541 -0.4285 -0.2446
    2CHTO  H200  459   5.385   5.101   2.591 -2.1513 -1.1954 -1.3787
    2CHTO  C111  460   5.642   5.021   2.580 -0.0975  0.5092 -0.6247
    2CHTO  H215  461   5.629   5.119   2.532  2.5356  0.5834 -1.2504
    2CHTO   N19  462   5.696   5.049   2.714  0.0368  1.1378  0.5547
    2CHTO  H207  463   5.705   4.965   2.781 -2.4691  1.0941  0.8738
    2CHTO  H208  464   5.627   5.111   2.769 -1.0909  1.6955 -1.4584
    2CHTO   O74  465   5.346   4.825   2.446 -0.7558  0.4843 -0.4682
    2CHTO  C115  466   5.209   4.885   2.376 -0.0535  0.8957  0.0479
    2CHTO  H219  467   5.202   4.993   2.388 -0.1389  0.8336  0.5541
    2CHTO   O76  468   5.203   4.847   2.227 -0.3722  0.0354  0.0240
    2CHTO  C122  469   5.164   4.714   2.205  0.5970 -0.0117 -0.0033
    2CHTO  H226  470   5.228   4.652   2.268  0.8090 -0.0674 -0.2776
    2CHTO  C126  471   5.183   4.676   2.058 -0.0150  0.3173  0.0985
    2CHTO   O85  472   5.099   4.754   1.967 -0.4693  0.1142 -0.3214
    2CHTO  H206  473   5.021   4.703   1.969 -0.2385 -0.2277  0.2273
    2CHTO  C121  474   5.016   4.694   2.251  0.8856  0.5453 -0.5749
    2CHTO  H225  475   4.956   4.693   2.158  0.7982  1.6664 -0.5316
    2CHTO   O81  476   5.001   4.561   2.305 -0.1842 -0.7289  0.5068
    2CHTO  H202  477   5.073   4.547   2.364  0.6655  4.2526  0.8581
    2CHTO  C119  478   4.970   4.811   2.347 -0.4651  0.6230 -0.7288
    2CHTO  H223  479   4.965   4.896   2.280  1.7258 -1.0519 -3.1389
    2CHTO  C117  480   5.092   4.821   2.454 -0.2013  0.2299 -0.5597
    2CHTO  H221  481   5.138   4.732   2.497  1.9380  1.9918  0.8494
    2CHTO   N20  482   5.056   4.905   2.572  0.1209  0.4733 -0.1431
    2CHTO  H209  483   5.146   4.952   2.609  1.2188 -1.8043  0.2075
    2CHTO  H210  484   5.004   4.840   2.641 -0.4185  1.0088 -0.0396
    2CHTO   O80  485   4.818   4.806   2.386 -0.0573 -0.2166  0.4661
    2CHTO  C103  486   4.720   4.921   2.312 -0.6228  0.0043 -0.7390
    2CHTO  H190  487   4.766   5.019   2.320  0.1659 -0.3673 -0.7211
    2CHTO  C101  488   4.673   4.895   2.166  0.0805 -0.1038  1.1346
    2CHTO  H188  489   4.616   4.803   2.170 -0.5582  0.2541  0.2231
    2CHTO   O68  490   4.805   4.881   2.074 -0.6274  0.2643  0.0921
    2CHTO  H168  491   4.842   4.962   2.044 -2.2594  0.8141 -0.4911
    2CHTO   C99  492   4.577   5.009   2.114  0.5615  0.4385  0.1467
    2CHTO  H186  493   4.635   5.103   2.120  0.4277  0.5894 -0.8632
    2CHTO   N17  494   4.531   4.994   1.974  0.6141  0.3725 -0.4161
    2CHTO  H174  495   4.426   4.970   1.970  0.0988  2.2066  1.4880
    2CHTO  H175  496   4.564   5.073   1.908  0.4950  0.5867 -0.2182
    2CHTO   C97  497   4.458   5.030   2.216  0.4946  0.0673 -0.6060
    2CHTO  H184  498   4.386   4.948   2.198  0.3099  0.4841 -1.8549
    2CHTO   O64  499   4.507   5.042   2.355  0.1537  0.2276 -0.2944
    2CHTO  C104  500   4.589   4.933   2.396  0.4082  0.8814  0.0320
    2CHTO  H191  501   4.537   4.837   2.390  0.9833  0.6760 -1.8894
    2CHTO  C108  502   4.625   4.965   2.539  0.2330  0.0400  0.4493
    2CHTO   O71  503   4.515   4.940   2.630 -0.1562 -0.1199 -0.0881
    2CHTO  H171  504   4.501   5.020   2.677 -0.0778  1.1517 -2.1843
    2CHTO   O62  505   4.390   5.151   2.186 -0.4434  0.1391 -0.1548
    2CHTO   C91  506   4.246   5.150   2.202 -0.2744  0.2400  0.2823
    2CHTO  H178  507   4.217   5.057   2.249 -1.9756 -0.1452 -1.4368
    2CHTO   C92  508   4.183   5.167   2.060  0.3407 -0.0693  0.0807
    2CHTO  H179  509   4.243   5.126   1.978  0.9433 -2.1821  1.5430
    2CHTO   O66  510   4.055   5.109   2.061  0.0385 -0.4589 -0.2389
    2CHTO  H166  511   4.005   5.135   1.986 -1.1964 -0.1547  0.6780
    2CHTO   C93  512   4.158   5.317   2.015 -0.5196 -0.3544  0.0430
    2CHTO  H180  513   4.097   5.315   1.923 -1.5121  2.1477  0.6136
    2CHTO   N16  514   4.276   5.403   1.975 -0.3101 -0.2171 -0.3760
    2CHTO  H172  515   4.232   5.497   1.943  1.5912  1.3115  1.3668
    2CHTO  H173  516   4.346   5.419   2.055  0.3011  0.5988 -1.0538
    2CHTO   C94  517   4.074   5.391   2.129  0.5728  0.9415 -0.0435
    2CHTO  H181  518   4.118   5.486   2.159  0.0468  1.3076 -0.4068
    2CHTO   O61  519   4.065   5.322   2.256  0.1170  0.0770  0.3477
    2CHTO   C95  520   4.192   5.272   2.298  0.5047 -0.0416 -0.4483
    2CHTO  H182  521   4.265   5.353   2.305  1.2874 -0.9025  1.5584
    2CHTO  C106  522   4.155   5.218   2.449 -0.0607 -0.0152  0.7760
    2CHTO   O69  523   4.268   5.240   2.532  0.0037  0.7238  0.3005
    2CHTO  H169  524   4.346   5.236   2.481 -0.7343  0.3086 -0.8149
    2CHTO   O63  525   3.920   5.427   2.071 -0.1841  0.0192 -0.0063
    2CHTO   C96  526   3.889   5.576   2.083  0.8893  0.5202 -0.0285
    2CHTO  H183  527   3.978   5.639   2.080  0.5019  1.1330  1.3455
    2CHTO   C98  528   3.824   5.611   2.221  0.3191  0.0204 -0.8346
    2CHTO  H185  529   3.752   5.530   2.240  0.5977  0.1332  0.7254
    2CHTO   O67  530   3.925   5.593   2.320 -0.4069  0.6329  0.4123
    2CHTO  H167  531   3.952   5.505   2.334 -1.0113  0.1790 -1.1703
    2CHTO  C102  532   3.760   5.756   2.240  0.5973 -0.0164 -0.0016
    2CHTO  H189  533   3.838   5.822   2.281  1.7580 -1.5646  0.3068
    2CHTO   N18  534   3.645   5.756   2.337 -0.2945 -0.1612  0.2297
    2CHTO  H176  535   3.600   5.658   2.340 -0.9937  0.1333 -0.6338
    2CHTO  H177  536   3.682   5.784   2.435 -0.5919 -1.8827  0.8472
    2CHTO  C105  537   3.708   5.814   2.104 -0.2669  0.3481  0.1157
    2CHTO  H192  538   3.604   5.785   2.091 -0.3230  0.5770  0.0619
    2CHTO   O65  539   3.781   5.767   1.987 -0.1517  0.4051  0.3598
    2CHTO  C100  540   3.797   5.624   1.971 -0.3607 -0.1411 -0.3095
    2CHTO  H187  541   3.696   5.580   1.970 -0.4636  0.0327  0.9885
    2CHTO  C107  542   3.858   5.605   1.827 -0.3465  0.4720  0.1974
    2CHTO   O70  543   3.787   5.659   1.720  0.0991  0.2263 -0.3796
    2CHTO  H170  544   3.840   5.698   1.653  0.3283 -2.4963 -1.8474
    2CHTO   O57  545   3.751   5.975   2.117 -0.0291  0.0524 -0.4872
    2CHTO   C85  546   3.711   6.071   2.019 -0.0754 -0.2199 -0.3686
    2CHTO  H157  547   3.601   6.062   2.015 -0.1309 -1.0567  2.3607
    2CHTO   C83  548   3.780   6.042   1.880  0.1239 -0.1734  0.7274
    2CHTO  H155  549   3.740   5.946   1.847  1.0401 -0.3398  0.0699
    2CHTO   O56  550   3.920   6.019   1.882  0.0505 -0.5516  0.5326
    2CHTO  H135  551   3.965   6.101   1.891  0.6592 -0.7893 -0.2957
    2CHTO   C81  552   3.736   6.146   1.778 -0.3656 -0.3061 -0.1565
    2CHTO  H153  553   3.627   6.144   1.778 -0.4250  1.3898  1.8431
    2CHTO   N14  554   3.783   6.123   1.637  0.0322  0.1472 -0.3511
    2CHTO  H141  555   3.845   6.036   1.631 -1.3787 -0.9841  1.1130
    2CHTO  H142  556   3.698   6.116   1.572 -1.5181 -0.3454  1.6704
    2CHTO   C79  557   3.779   6.285   1.822  0.9690 -0.3800  0.6579
    2CHTO  H151  558   3.735   6.358   1.753  0.4911 -0.6649  0.6597
    2CHTO   O52  559   3.722   6.313   1.956  0.2224 -0.3716 -0.4350
    2CHTO   C86  560   3.753   6.221   2.066 -0.1574  0.0514 -0.0611
    2CHTO  H158  561   3.864   6.227   2.070  0.0467 -2.3948 -1.0620
    2CHTO   C90  562   3.697   6.271   2.206 -0.3719  0.0165 -0.6897
    2CHTO   O60  563   3.801   6.351   2.262  0.2924  0.0240 -0.1158
    2CHTO  H138  564   3.770   6.395   2.339  0.8024 -1.6701  1.0850
    2CHTO   O50  565   3.923   6.302   1.824 -0.0335 -0.0076 -0.7876
    2CHTO   C73  566   4.013   6.407   1.802 -0.9396 -0.6603 -0.6249
    2CHTO  H145  567   3.960   6.504   1.798  2.7004  1.4260 -0.8218
    2CHTO   C74  568   4.078   6.395   1.655  0.1291  0.1215  0.3789
    2CHTO  H146  569   3.989   6.390   1.591  1.2850  1.6674 -1.3996
    2CHTO   O54  570   4.145   6.515   1.625  0.2673 -0.2430  0.1904
    2CHTO  H133  571   4.092   6.590   1.643  2.3740  1.3100  0.1400
    2CHTO   C75  572   4.164   6.269   1.650  0.3396 -0.3771  0.1614
    2CHTO  H147  573   4.103   6.179   1.668 -0.3533 -0.1801 -1.0908
    2CHTO   N13  574   4.235   6.250   1.523  0.1828 -0.8445  0.2391
    2CHTO  H139  575   4.266   6.147   1.528  2.4985 -0.1547  0.8180
    2CHTO  H140  576   4.165   6.252   1.441  0.6472 -1.0038 -0.1613
    2CHTO   C76  577   4.268   6.272   1.783 -0.2168 -0.5462  0.2035
    2CHTO  H148  578   4.335   6.358   1.777 -1.8167  0.7418  0.2304
    2CHTO   O49  579   4.191   6.290   1.907 -0.1693 -0.2856  0.2139
    2CHTO   C77  580   4.120   6.415   1.914  0.0408 -0.5438 -0.5486
    2CHTO  H149  581   4.185   6.497   1.883 -1.7327  0.9221 -0.4468
    2CHTO   C88  582   4.059   6.447   2.053 -0.1927  0.0535 -0.0099
    2CHTO   O58  583   3.992   6.589   2.060  0.1540 -0.0624  0.0800
    2CHTO  H136  584   4.051   6.651   2.098 -0.4308  1.2288 -1.0909
    2CHTO   O51  585   4.338   6.162   1.790  0.1501  0.4586 -0.2899
    2CHTO   C78  586   4.420   6.125   1.928 -0.9309  0.4094 -0.1023
    2CHTO  H150  587   4.386   6.175   2.021 -1.5356 -2.6685  1.4012
    2CHTO   C80  588   4.571   6.141   1.907  0.5027 -0.1017  0.7651
    2CHTO  H152  589   4.602   6.079   1.820  1.4559  0.2733  0.8341
    2CHTO   O55  590   4.601   6.273   1.860  0.5289  0.0679  0.2492
    2CHTO  H134  591   4.612   6.277   1.767  1.7542  2.2966  0.4433
    2CHTO   C84  592   4.647   6.098   2.044  0.3937 -0.0699 -0.3263
    2CHTO  H156  593   4.593   6.150   2.123  2.2751 -1.4233  1.8967
    2CHTO   N15  594   4.793   6.131   2.044 -0.3598  0.2716 -0.3179
    2CHTO  H143  595   4.818   6.173   1.949 -4.0862 -2.2959 -2.5472
    2CHTO  H144  596   4.831   6.196   2.121 -0.1221  1.8238 -1.7067
    2CHTO   C87  597   4.630   5.947   2.073  0.7017 -0.2620 -0.1638
    2CHTO  H159  598   4.674   5.879   2.000  1.2099  0.3450 -0.4280
    2CHTO   O53  599   4.473   5.929   2.079  0.2510  0.2993 -0.1119
    2CHTO   C82  600   4.399   5.975   1.962  0.6250 -0.4189 -0.1668
    2CHTO  H154  601   4.414   5.917   1.871  2.0308  0.6972 -0.6689
    2CHTO   C89  602   4.242   5.954   2.004 -0.3744 -0.4561  0.8354
    2CHTO   O59  603   4.203   5.815   1.982  0.1459 -0.6386  0.0130
    2CHTO  H137  604   4.240   5.784   1.902  1.7567  0.5786  0.2662
    2CHTO   O45  605   4.689   5.900   2.221 -0.8154  0.7028  0.0025
    2CHTO   C67  606   4.598   5.835   2.316 -0.1531  0.2437 -0.4211
    2CHTO  H124  607   4.493   5.864   2.306 -0.5962 -0.8410  0.9609
    2CHTO   C65  608   4.610   5.682   2.291 -0.5662  0.0729  0.2579
    2CHTO  H122  609   4.702   5.655   2.238 -1.3730  0.0646 -1.1520
    2CHTO   O44  610   4.498   5.647   2.203  0.3064 -0.0854  0.1186
    2CHTO  H102  611   4.516   5.668   2.113 -2.5547 -0.1496 -0.5374
    2CHTO   C63  612   4.612   5.592   2.426  0.0708  0.1808 -0.0161
    2CHTO  H120  613   4.710   5.598   2.474  1.2195  0.6504 -2.3541
    2CHTO   N11  614   4.587   5.446   2.407 -0.4221 -0.2018 -0.4256
    2CHTO  H108  615   4.650   5.409   2.329 -1.0989 -1.0904 -0.5644
    2CHTO  H109  616   4.597   5.397   2.502  0.2220 -1.2402 -1.0176
    2CHTO   C61  617   4.514   5.655   2.525  0.4314 -0.5601  0.2474
    2CHTO  H118  618   4.520   5.605   2.623 -0.9969  0.6974  0.9882
    2CHTO   O40  619   4.541   5.785   2.544  0.3556 -0.0249 -0.0472
    2CHTO   C68  620   4.634   5.862   2.466  0.7406 -0.2190  0.3677
    2CHTO  H125  621   4.743   5.840   2.476  0.9534  0.2431 -0.8091
    2CHTO   C72  622   4.619   6.010   2.498  0.4187 -0.4378  0.2726
    2CHTO   O48  623   4.731   6.091   2.454 -0.1945  0.1312  0.0470
    2CHTO  H105  624   4.812   6.058   2.487 -1.1617 -1.1837  1.1408
    2CHTO   O38  625   4.379   5.644   2.487  0.2217 -0.3973 -0.6528
    2CHTO   C55  626   4.280   5.680   2.586  0.9937 -0.2888 -0.1224
    2CHTO  H112  627   4.307   5.756   2.661 -3.2784  1.1318  0.1389
    2CHTO   C56  628   4.221   5.553   2.649  0.1193 -0.1669  0.9005
    2CHTO  H113  629   4.198   5.485   2.567  1.6806 -2.0746  2.0109
    2CHTO   O42  630   4.331   5.482   2.712  0.2604 -0.0712 -0.4822
    2CHTO  H100  631   4.368   5.546   2.771 -1.5527  1.2109 -0.7030
    2CHTO   C57  632   4.097   5.578   2.743 -0.2236 -0.0290 -0.1922
    2CHTO  H114  633   4.148   5.634   2.822  2.8890 -1.9998 -0.7250
    2CHTO   N10  634   4.029   5.454   2.791  0.6522 -0.1750 -0.2300
    2CHTO  H106  635   4.097   5.371   2.797 -1.2206 -1.6408  1.0329
    2CHTO  H107  636   3.981   5.469   2.886  0.1424  1.2282 -0.6835
    2CHTO   C58  637   3.995   5.671   2.667  0.9918 -0.2217 -0.6649
    2CHTO  H115  638   3.949   5.613   2.585 -2.4658  0.3741  0.7809
    2CHTO   O37  639   4.060   5.790   2.622 -0.2805  0.0782  0.3363
    2CHTO   C59  640   4.165   5.755   2.526 -0.1136 -0.2669  0.4900
    2CHTO  H116  641   4.115   5.707   2.443  1.6836 -0.6568 -0.3989
    2CHTO   C70  642   4.217   5.887   2.469 -0.7401  0.1546  0.1026
    2CHTO   O46  643   4.132   5.942   2.371  0.5936  0.1119 -0.1927
    2CHTO  H103  644   4.107   6.025   2.406  1.1979 -1.3220  3.8315
    2CHTO   O39  645   3.872   5.708   2.772 -0.6045  0.1879  0.7808
    2CHTO   C60  646   3.842   5.842   2.798  0.2991 -0.0076  0.1577
    2CHTO  H117  647   3.932   5.903   2.807  0.2120  0.2893 -0.8911
    2CHTO   C62  648   3.769   5.897   2.673 -0.2180  0.5407  0.0101
    2CHTO  H119  649   3.829   5.885   2.580 -0.5850 -0.3512 -0.1154
    2CHTO   O43  650   3.651   5.813   2.653 -0.4471 -0.1850  0.4449
    2CHTO  H101  651   3.592   5.844   2.588  2.0974  1.6071 -1.0816
    2CHTO   C66  652   3.717   6.050   2.699  0.3166  0.1061 -0.0036
    2CHTO  H123  653   3.809   6.107   2.718 -0.0597  0.5180  0.5956
    2CHTO   N12  654   3.653   6.114   2.584  0.0134 -0.0136  0.4682
    2CHTO  H110  655   3.636   6.221   2.594  1.9366  0.2179  1.4398
    2CHTO  H111  656   3.563   6.062   2.555 -0.4883  0.8895  0.3671
    2CHTO   C69  657   3.627   6.057   2.828  0.0603  0.1978 -0.1115
    2CHTO  H126  658   3.538   5.993   2.810  0.4106 -0.2216 -0.3599
    2CHTO   O41  659   3.720   6.008   2.946 -0.2373  0.2619 -0.2111
    2CHTO   C64  660   3.765   5.862   2.930  1.3784  0.2610 -0.0141
    2CHTO  H121  661   3.676   5.796   2.935  2.1704 -0.7286  1.7531
    2CHTO   C71  662   3.852   5.832   3.059 -0.4728  0.2978  0.4261
    2CHTO   O47  663   3.793   5.901   3.177  0.9195  0.3127 -0.1334
    2CHTO  H104  664   3.812   5.992   3.171  0.4396  0.3540 -1.0356
    2CHTO   O34  665   3.578   6.203   2.859  0.4505 -0.7242  0.0632
    2CHTO   C49  666   3.464   6.260   2.913 -0.0511 -0.5183  0.5941
    2CHTO   H91  667   3.434   6.201   2.999  1.1492 -0.8206  0.8255
    2CHTO   C47  668   3.352   6.269   2.803 -0.4507 -0.3012 -0.1913
    2CHTO   H89  669   3.264   6.314   2.854 -1.1244 -2.0678  0.2340
    2CHTO   O33  670   3.324   6.132   2.768 -0.0300 -0.1563  0.0871
    2CHTO   H70  671   3.391   6.094   2.713  0.2076  1.4862 -0.8061
    2CHTO   C45  672   3.398   6.366   2.682  0.0716  0.0722 -1.0880
    2CHTO   H87  673   3.497   6.330   2.648  0.6831  1.0769 -0.4049
    2CHTO    N8  674   3.296   6.362   2.571 -0.0553  0.3551  0.2966
    2CHTO   H75  675   3.195   6.349   2.607  0.5774 -3.0500  1.0224
    2CHTO   H76  676   3.319   6.288   2.495 -3.0808  1.2338 -1.5668
    2CHTO   C43  677   3.430   6.508   2.740 -0.4108 -0.6016 -0.5351
    2CHTO   H85  678   3.477   6.566   2.660  2.0690  0.4111  1.5842
    2CHTO   O29  679   3.522   6.501   2.852  0.3695  0.7760  0.3105
    2CHTO   C50  680   3.492   6.405   2.960 -0.4092 -0.8385  0.2774
    2CHTO   H92  681   3.581   6.402   3.024 -0.6055 -2.0549  0.4982
    2CHTO   C54  682   3.379   6.444   3.048  0.1284  0.0512  0.1711
    2CHTO   O36  683   3.409   6.570   3.109  0.2598 -0.6888 -0.3465
    2CHTO   H72  684   3.384   6.573   3.199 -0.2767  1.0416 -0.5345
    2CHTO   O27  685   3.307   6.574   2.780  0.3603 -0.0328  0.1164
    2CHTO   C37  686   3.277   6.700   2.712 -0.4391  0.3561 -0.3970
    2CHTO   H79  687   3.348   6.714   2.628 -0.0598  2.1214  0.1877
    2CHTO   C38  688   3.124   6.710   2.664  0.4891 -0.1064 -0.3313
    2CHTO   H80  689   3.066   6.670   2.749 -0.7557  0.4695 -0.8969
    2CHTO   O31  690   3.111   6.621   2.549  0.2705 -0.6494  0.7331
    2CHTO   H68  691   3.176   6.554   2.552  0.1801 -0.9244 -2.0014
    2CHTO   C39  692   3.078   6.857   2.640 -0.3636  0.9175  0.8452
    2CHTO   H81  693   3.126   6.890   2.548 -0.2707 -0.8865  0.2305
    2CHTO    N7  694   2.930   6.859   2.601 -0.0664 -0.2863 -0.7356
    2CHTO   H73  695   2.873   6.775   2.639  0.0104 -0.2363 -0.5087
    2CHTO   H74  696   2.878   6.953   2.616 -1.9361 -1.1789 -1.4556
    2CHTO   C40  697   3.118   6.950   2.756  0.1874 -0.5609 -0.5914
    2CHTO   H82  698   3.064   6.920   2.846 -0.3154 -0.2939 -0.8005
    2CHTO   O26  699   3.264   6.946   2.778  0.3299  0.3905 -0.3852
    2CHTO   C41  700   3.312   6.811   2.821 -0.3730 -0.2214  0.4306
    2CHTO   H83  701   3.262   6.785   2.915  0.6750  0.6764  1.2578
    2CHTO   C52  702   3.462   6.830   2.858  0.5747 -0.2211  0.6212
    2CHTO   O35  703   3.483   6.929   2.975  0.5071  0.0839 -0.9001
    2CHTO   H71  704   3.571   6.922   3.006  0.0577 -0.7480  0.2242
    2CHTO   O28  705   3.096   7.089   2.725 -0.4529 -0.1730  0.1962
    2CHTO   C42  706   3.117   7.199   2.827 -0.4007  0.1989  0.3824
    2CHTO   H84  707   3.070   7.284   2.778 -2.9313 -0.5008  1.5142
    2CHTO   C44  708   3.262   7.232   2.853 -0.3388 -0.1367 -0.0934
    2CHTO   H86  709   3.318   7.144   2.885  1.2745  1.8740  2.9051
    2CHTO   O32  710   3.308   7.269   2.721  0.0368 -0.5521 -0.3000
    2CHTO   H69  711   3.354   7.194   2.688 -2.8335 -3.1313  1.3878
    2CHTO   C48  712   3.280   7.348   2.963 -0.3688  0.1771  0.1411
    2CHTO   H90  713   3.232   7.437   2.922 -1.0756  1.2261  3.1071
    2CHTO    N9  714   3.421   7.370   2.994 -0.3937 -0.6154  0.0467
    2CHTO   H77  715   3.473   7.386   2.902 -2.8851  1.8896 -1.0051
    2CHTO   H78  716   3.432   7.442   3.074 -1.1260 -0.7038  0.2390
    2CHTO   C51  717   3.195   7.315   3.089 -0.2406  0.4456  0.4036
    2CHTO   H93  718   3.234   7.227   3.140 -0.3549  0.2880  0.2129
    2CHTO   O30  719   3.059   7.304   3.054  0.2149  0.2038 -0.1882
    2CHTO   C46  720   3.043   7.173   2.962 -0.2081  0.2131  0.1374
    2CHTO   H88  721   3.088   7.089   3.014  2.2437  0.8615 -0.8810
    2CHTO   C53  722   2.895   7.146   2.938  0.1818 -0.6061 -0.3487
    2CHTO   O72  723   2.831   7.112   3.060 -0.7761  0.3096 -0.1817
    2CHTO  H199  724   2.781   7.034   3.043 -0.8893  0.3546 -0.0574
    2CHTO   O22  725   3.199   7.427   3.181  0.1072  0.2590 -0.5271
    2CHTO   C31  726   3.166   7.423   3.325 -1.0490 -0.3664 -0.0881
    2CHTO   H59  727   3.153   7.530   3.352  0.3904  0.2525 -1.6871
    2CHTO   C29  728   3.030   7.349   3.356  0.5623 -0.7890  0.1892
    2CHTO   H57  729   3.014   7.248   3.315 -0.0984 -0.1336 -1.2018
    2CHTO   O21  730   2.919   7.419   3.290 -0.2860  0.3442 -0.4004
    2CHTO   H37  731   2.906   7.505   3.324 -1.0554  0.2150 -0.3417
    2CHTO   C27  732   3.000   7.352   3.510  0.1827  0.4672 -0.9088
    2CHTO   H55  733   3.002   7.457   3.542  2.7069  0.0491  0.4846
    2CHTO    N5  734   2.874   7.282   3.546  0.4408  0.3870 -0.2836
    2CHTO   H43  735   2.807   7.259   3.465  0.2939  0.0254 -0.0656
    2CHTO   H44  736   2.885   7.195   3.609 -0.5383  1.1514  0.9703
    2CHTO   C25  737   3.120   7.290   3.598  0.2207 -0.2229  0.4827
    2CHTO   H53  738   3.152   7.188   3.572 -0.4321 -0.2916 -0.0305
    2CHTO   O17  739   3.233   7.370   3.557 -0.6201  0.4650  0.1471
    2CHTO   C32  740   3.280   7.371   3.418 -0.4296 -0.4069  0.1677
    2CHTO   H60  741   3.309   7.271   3.387  1.2126  0.2142 -0.3818
    2CHTO   C36  742   3.393   7.470   3.398  0.0155  0.6623 -0.6432
    2CHTO   O25  743   3.486   7.429   3.497  0.0202 -0.4592 -0.4172
    2CHTO   H40  744   3.515   7.508   3.538  0.1587 -1.2985  1.1533
    2CHTO   O15  745   3.114   7.308   3.752 -0.1978  0.2774 -0.3980
    2CHTO   C19  746   3.116   7.225   3.872  0.2754  0.1987  0.1997
    2CHTO   H47  747   3.023   7.167   3.866  1.1738 -1.6718  3.2291
    2CHTO   C20  748   3.238   7.133   3.901  0.5963  0.0283 -1.3780
    2CHTO   H48  749   3.332   7.190   3.902 -0.7319  2.2758  0.0514
    2CHTO   O19  750   3.242   7.041   3.793  0.4586  0.6273  0.0579
    2CHTO   H35  751   3.330   7.010   3.786  0.1538 -0.2080 -0.0865
    2CHTO   C21  752   3.232   7.049   4.029 -0.3447 -0.5275  0.0216
    2CHTO   H49  753   3.147   6.982   4.024  0.1519 -1.2621  1.2054
    2CHTO    N4  754   3.348   6.962   4.052  0.4296 -0.0874  0.4017
    2CHTO   H41  755   3.435   7.015   4.017  0.6203 -0.0491  0.9231
    2CHTO   H42  756   3.340   6.867   4.001 -2.0089  0.2148  0.1443
    2CHTO   C22  757   3.203   7.152   4.141 -0.0514 -0.5620  0.1812
    2CHTO   H50  758   3.283   7.225   4.155  0.9456 -1.3864 -1.0905
    2CHTO   O14  759   3.084   7.222   4.123 -0.3610 -1.0893  0.4926
    2CHTO   C23  760   3.088   7.307   4.004 -0.7839  0.6143 -0.3358
    2CHTO   H51  761   3.173   7.372   4.031 -1.8530  1.4995  0.9840
    2CHTO   C34  762   2.957   7.376   3.994 -0.2952  0.0389 -0.4144
    2CHTO   O23  763   2.853   7.285   3.964  0.1672  0.4452 -0.5498
    2CHTO   H38  764   2.846   7.249   3.877  0.8141 -0.7251 -0.1243
    2CHTO   O16  765   3.186   7.089   4.261  0.1294  0.5460 -0.5563
    2CHTO   C24  766   3.218   7.179   4.381  0.5462  0.5007  0.0006
    2CHTO   H52  767   3.224   7.285   4.357  0.5733  0.5637  0.2768
    2CHTO   C26  768   3.365   7.148   4.433 -0.6868  1.1242 -0.4244
    2CHTO   H54  769   3.364   7.040   4.459  0.0583  1.1397 -0.3053
    2CHTO   O20  770   3.467   7.169   4.336 -0.2919 -0.7632 -0.0134
    2CHTO   H36  771   3.431   7.142   4.254  3.8596 -0.5760 -2.0672
    2CHTO   C30  772   3.397   7.231   4.565 -0.5203  0.3641  0.5047
    2CHTO   H58  773   3.403   7.338   4.540 -1.2770  0.2684 -0.1002
    2CHTO    N6  774   3.526   7.191   4.625 -0.1102 -0.4590  0.2474
    2CHTO   H45  775   3.518   7.096   4.676  2.1955 -1.1493 -0.6053
    2CHTO   H46  776   3.603   7.179   4.549  0.3880  0.5386  0.5839
    2CHTO   C33  777   3.277   7.228   4.668 -0.5277  0.1159  0.3961
    2CHTO   H61  778   3.268   7.129   4.715 -0.3641 -1.4176 -2.6536
    2CHTO   O18  779   3.152   7.265   4.605 -0.3659 -0.2744  0.9814
    2CHTO   C28  780   3.116   7.164   4.506  0.5840 -0.0619  0.0263
    2CHTO   H56  781   3.123   7.063   4.547  0.0090  0.0128  0.3219
    2CHTO   C35  782   2.972   7.188   4.462  0.1189 -0.1618 -0.2450
    2CHTO   O24  783   2.878   7.163   4.569  0.2290  0.2326  0.5207
    2CHTO   H39  784   2.794   7.189   4.538  0.4576 -2.0689 -2.2753
    2CHTO    O9  785   3.304   7.314   4.774  0.4438  0.2631  1.1717
    2CHTO   C13  786   3.180   7.333   4.875 -0.0364 -0.7979 -0.5374
    2CHTO   H26  787   3.123   7.239   4.893  0.3670 -1.1741 -1.1950
    2CHTO   C11  788   3.086   7.451   4.830 -0.1860  0.8491  0.1381
    2CHTO   H24  789   3.023   7.409   4.750 -0.0488 -2.0708  1.4943
    2CHTO    O8  790   3.146   7.568   4.781  0.4734 -0.5745  0.3169
    2CHTO    H3  791   3.179   7.555   4.695 -2.3593 -1.4378 -0.6794
    2CHTO    C9  792   2.978   7.484   4.942  0.3708 -0.5686  0.1212
    2CHTO   H22  793   2.917   7.393   4.948 -2.1604  0.8898 -2.1084
    2CHTO    N2  794   2.880   7.595   4.909  0.1753  0.6334 -0.1779
    2CHTO   H10  795   2.942   7.684   4.909  0.3038  0.5634  2.1596
    2CHTO   H11  796   2.809   7.606   4.989  0.8404 -4.0431  1.1461
    2CHTO    C7  797   3.051   7.500   5.082  0.1512 -0.2651 -0.1907
    2CHTO   H20  798   3.009   7.404   5.119 -1.5721  0.4462 -0.2488
    2CHTO    O4  799   3.193   7.487   5.083  0.4530 -0.1292  0.0669
    2CHTO   C14  800   3.236   7.364   5.022 -0.3851 -0.2830  0.3652
    2CHTO   H27  801   3.206   7.274   5.079  0.7146 -1.1571 -0.4269
    2CHTO   C18  802   3.387   7.374   5.033 -0.8090 -0.4886  0.0589
    2CHTO   O13  803   3.449   7.250   5.017  0.4035 -0.3963  0.4698
    2CHTO    H7  804   3.526   7.261   4.966 -0.4187 -1.4996 -1.0820
    2CHTO    O2  805   2.999   7.627   5.186 -0.1438  0.5039  0.4022
    2CHTO    C1  806   3.037   7.599   5.322  0.0559  0.0266 -0.0002
    2CHTO   H14  807   3.116   7.521   5.322 -0.8981 -1.0082  2.6949
    2CHTO    C2  808   2.918   7.558   5.410  0.6286  0.1775 -0.0966
    2CHTO   H15  809   2.840   7.630   5.382  0.3381 -0.4148 -0.8670
    2CHTO    O6  810   2.875   7.427   5.380  0.0235  0.0429  0.1871
    2CHTO    H1  811   2.829   7.418   5.299 -1.6972 -1.5300  1.3095
    2CHTO    C3  812   2.942   7.567   5.568 -0.3997  0.5108 -0.7491
    2CHTO   H16  813   3.000   7.483   5.608  0.6465 -0.0807 -3.4367
    2CHTO    N1  814   2.816   7.555   5.656 -0.1080  0.9027  0.1997
    2CHTO    H8  815   2.766   7.460   5.645  0.3870  0.7569 -0.9131
    2CHTO    H9  816   2.835   7.583   5.758 -0.0909 -2.2411  1.0917
    2CHTO    C4  817   3.026   7.686   5.609 -0.7823  0.1990  0.3139
    2CHTO   H17  818   2.964   7.776   5.602  1.8396  2.1775  1.5921
    2CHTO    O1  819   3.143   7.710   5.521  0.0178  0.1713  0.0182
    2CHTO    C5  820   3.112   7.723   5.374 -0.6899 -0.6739 -0.2121
    2CHTO   H18  821   3.045   7.805   5.347 -0.9116 -0.2751  1.4571
    2CHTO   C16  822   3.248   7.746   5.299 -0.5892  0.4301 -0.3920
    2CHTO   O11  823   3.317   7.856   5.347 -0.1960  0.0013  0.0016
    2CHTO    H5  824   3.384   7.832   5.407 -2.2910  1.2025  2.9459
    2CHTO    O3  825   3.096   7.668   5.733  0.2495  0.3502 -0.0558
    2CHTO    C6  826   3.081   7.788   5.823 -0.1830 -0.0101  0.3707
    2CHTO   H19  827   3.054   7.876   5.766 -2.7240 -1.1392 -0.2131
    2CHTO    C8  828   2.973   7.759   5.938 -0.3613 -0.3101 -0.0286
    2CHTO   H21  829   2.989   7.657   5.972 -1.6702  0.0061  1.5373
    2CHTO    O7  830   2.847   7.769   5.879  0.2251 -0.0044 -0.2373
    2CHTO    H2  831   2.771   7.733   5.920 -1.0776  1.5510 -1.1938
    2CHTO   C12  832   2.995   7.861   6.052 -0.1009  0.0331 -0.1997
    2CHTO   H25  833   2.963   7.963   6.021  1.3079  1.1149  1.7777
    2CHTO    N3  834   2.915   7.819   6.173  0.2173 -0.1862  0.0319
    2CHTO   H12  835   2.812   7.807   6.143  0.0767 -0.5017  0.6292
    2CHTO   H13  836   2.950   7.722   6.206 -0.4994 -0.2369  0.6727
    2CHTO   C15  837   3.145   7.878   6.096 -0.1907  0.0645 -0.2424
    2CHTO   H28  838   3.197   7.793   6.138  0.6513  1.0760  0.7951
    2CHTO   O10  839   3.163   8.000   6.202 -0.3093 -0.3520 -0.1127
    2CHTO    H4  840   3.092   8.009   6.262 -0.2392  3.3273 -0.4610
    2CHTO    O5  841   3.215   7.915   5.977  0.3129  0.1515 -0.8319
    2CHTO   C10  842   3.221   7.815   5.881  0.3094 -0.0985 -0.5500
    2CHTO   H23  843   3.255   7.725   5.933 -0.0887 -0.2390 -0.5334
    2CHTO   C17  844   3.323   7.870   5.779 -0.0983 -0.3371 -0.1264
    2CHTO   O12  845   3.350   7.780   5.673  0.4797  0.0126  0.0110
    2CHTO    H6  846   3.379   7.696   5.704 -2.8016 -0.7668  1.1324
    3CHTO  H203  847   7.836   1.708   1.191  1.5702  1.8266 -1.6039
    3CHTO   O82  848   7.778   1.765   1.237  0.1922 -0.6462 -0.1702
    3CHTO  C123  849   7.694   1.685   1.326  0.4749  0.2523  0.3780
    3CHTO  H227  850   7.759   1.639   1.401 -0.4545 -2.2788 -0.3083
    3CHTO   O77  851   7.587   1.771   1.377 -0.1142  0.2321  0.3795
    3CHTO  C118  852   7.474   1.723   1.441  0.4378 -0.5313 -0.1175
    3CHTO  H222  853   7.503   1.696   1.544 -3.4361  1.4516  1.5990
    3CHTO  C125  854   7.364   1.835   1.451 -0.4211  0.3209  0.0177
    3CHTO   O84  855   7.296   1.887   1.341  0.5819  0.2538  0.0382
    3CHTO  H205  856   7.238   1.956   1.368  1.3236  0.4969  1.0516
    3CHTO  C114  857   7.415   1.600   1.374  0.1539  0.0428 -0.8233
    3CHTO  H218  858   7.370   1.633   1.280  1.7190 -0.6689 -1.8326
    3CHTO  C116  859   7.514   1.495   1.335  0.2425 -0.0583 -0.2776
    3CHTO  H220  860   7.562   1.449   1.424 -0.1004 -2.7680 -1.4716
    3CHTO   O79  861   7.444   1.389   1.269 -0.1956 -0.9646  0.6228
    3CHTO  H201  862   7.357   1.366   1.292 -0.6033 -0.6789 -0.6130
    3CHTO  C120  863   7.625   1.565   1.246 -0.3409  0.0516  0.9299
    3CHTO  H224  864   7.577   1.614   1.159  0.3578  0.9072  1.0115
    3CHTO   N21  865   7.730   1.474   1.192  0.1445 -0.1391  0.0937
    3CHTO  H211  866   7.825   1.518   1.166  0.3871 -0.0905  1.0491
    3CHTO  H212  867   7.684   1.409   1.119 -1.9739  2.6064 -1.0838
    3CHTO   O75  868   7.309   1.565   1.468 -0.0787 -0.4196  0.0016
    3CHTO  C112  869   7.186   1.506   1.413 -0.4539 -0.5243  0.1047
    3CHTO  H216  870   7.220   1.437   1.334 -2.4248  0.5327 -1.7425
    3CHTO   O73  871   7.098   1.607   1.359  0.0576  0.1352  0.2290
    3CHTO  C113  872   6.968   1.572   1.312 -0.1702  0.4061  0.1381
    3CHTO  H217  873   6.973   1.494   1.234 -0.4148  0.6318 -0.1040
    3CHTO  C124  874   6.904   1.692   1.248  0.4904 -0.0261 -0.3586
    3CHTO   O83  875   6.793   1.674   1.169  0.6655 -0.1848 -0.2722
    3CHTO  H204  876   6.764   1.756   1.136  1.8527  0.8269  1.1139
    3CHTO  C109  877   6.887   1.524   1.432  0.0288  0.1752 -0.0315
    3CHTO  H213  878   6.880   1.609   1.502 -1.7261  0.0177  0.0136
    3CHTO  C110  879   6.961   1.403   1.496 -0.4765 -1.1030 -0.2886
    3CHTO  H214  880   6.971   1.325   1.419  1.7160 -0.9493 -0.2031
    3CHTO   O78  881   6.878   1.362   1.607  0.2607 -0.1752 -0.4860
    3CHTO  H200  882   6.922   1.380   1.688  0.1878 -1.0159 -0.2522
    3CHTO  C111  883   7.112   1.433   1.536 -0.1826  0.1157  0.6142
    3CHTO  H215  884   7.112   1.501   1.623 -2.5052 -1.2052  1.7060
    3CHTO   N19  885   7.183   1.305   1.572  0.1276 -0.3290 -0.2066
    3CHTO  H207  886   7.266   1.333   1.635  0.5442 -1.0458 -0.4279
    3CHTO  H208  887   7.126   1.235   1.632 -2.9153  1.0345 -1.3727
    3CHTO   O74  888   6.755   1.491   1.389  0.8563  0.0221 -0.0611
    3CHTO  C115  889   6.629   1.542   1.473  0.1108  0.1119 -0.7091
    3CHTO  H219  890   6.643   1.522   1.580 -0.0877  0.9956 -0.5089
    3CHTO   O76  891   6.603   1.694   1.459 -0.1094 -0.4051  0.0474
    3CHTO  C122  892   6.473   1.747   1.490  0.2702  0.1393  0.1579
    3CHTO  H226  893   6.479   1.849   1.451  1.4573  0.5749  1.4432
    3CHTO  C126  894   6.461   1.761   1.646  0.1570  0.3757  0.3835
    3CHTO   O85  895   6.329   1.810   1.677 -0.0740 -0.1069 -0.4930
    3CHTO  H206  896   6.320   1.868   1.750  1.1083 -0.7232  0.1446
    3CHTO  C121  897   6.357   1.670   1.424 -0.3128 -0.5323 -0.1776
    3CHTO  H225  898   6.259   1.707   1.459 -0.6911 -0.5262 -1.2225
    3CHTO   O81  899   6.373   1.692   1.283 -0.1819 -0.0108 -0.3674
    3CHTO  H202  900   6.443   1.643   1.245  0.1845 -0.0674  0.3632
    3CHTO  C119  901   6.370   1.523   1.461 -0.4335  0.0942  0.0798
    3CHTO  H223  902   6.359   1.513   1.569  2.1841  1.0049  0.4673
    3CHTO  C117  903   6.511   1.456   1.427  0.0667 -0.3184  0.0386
    3CHTO  H221  904   6.513   1.443   1.319 -2.2499  0.4820 -0.1416
    3CHTO   N20  905   6.514   1.319   1.480 -0.3630  0.1968  0.2871
    3CHTO  H209  906   6.483   1.318   1.584 -2.3568 -3.6389 -0.2296
    3CHTO  H210  907   6.456   1.252   1.419  0.4044 -0.9444  0.7819
    3CHTO   O80  908   6.242   1.438   1.408  0.2495  0.5791 -0.1360
    3CHTO  C103  909   6.096   1.475   1.465  0.2196 -0.5281 -0.0016
    3CHTO  H190  910   6.110   1.550   1.542  0.2683  1.0672 -1.5346
    3CHTO  C101  911   5.994   1.516   1.355  0.3082 -0.2530 -0.5225
    3CHTO  H188  912   6.018   1.457   1.266 -2.1616 -3.3454  0.7660
    3CHTO   O68  913   6.030   1.676   1.318 -0.1673 -0.0382  0.3571
    3CHTO  H168  914   6.122   1.690   1.321 -0.0975  0.5479 -2.7136
    3CHTO   C99  915   5.837   1.491   1.391  0.7223  0.3999 -0.6480
    3CHTO  H186  916   5.816   1.561   1.474  1.6125 -1.8685  1.5562
    3CHTO   N17  917   5.739   1.520   1.280  0.3663  0.6147 -0.2237
    3CHTO  H174  918   5.746   1.450   1.197  2.1178 -1.0336  1.2697
    3CHTO  H175  919   5.640   1.505   1.319  0.2246  0.1891 -0.7271
    3CHTO   C97  920   5.835   1.344   1.448  0.0441  1.0826  0.0700
    3CHTO  H184  921   5.863   1.270   1.372  0.1387 -1.2342  2.3216
    3CHTO   O64  922   5.923   1.334   1.562  0.2873  0.4461  0.0538
    3CHTO  C104  923   6.065   1.343   1.534 -0.1607  0.6866 -0.1499
    3CHTO  H191  924   6.105   1.258   1.478 -0.7506  0.3555 -0.0737
    3CHTO  C108  925   6.129   1.342   1.674  0.2965  0.1800  0.3031
    3CHTO   O71  926   6.131   1.211   1.739  0.4885 -0.1405 -0.4654
    3CHTO  H171  927   6.202   1.158   1.711  0.8195 -0.7683  1.4637
    3CHTO   O62  928   5.709   1.306   1.513  0.2692  0.4447 -0.7044
    3CHTO   C91  929   5.664   1.169   1.492 -0.2297 -0.2654 -0.0041
    3CHTO  H178  930   5.685   1.144   1.388 -0.1039 -1.5253  0.3208
    3CHTO   C92  931   5.502   1.175   1.495 -0.8826  0.2701  0.4178
    3CHTO  H179  932   5.478   1.230   1.588 -0.8478  0.2790  0.4217
    3CHTO   O66  933   5.459   1.252   1.383  0.3809  0.0461  0.1018
    3CHTO  H166  934   5.394   1.307   1.422 -1.3417 -1.9799  0.1936
    3CHTO   C93  935   5.434   1.031   1.485 -0.5529 -0.8834 -0.0282
    3CHTO  H180  936   5.445   1.001   1.380 -0.0503  0.2051 -0.2871
    3CHTO   N16  937   5.289   1.038   1.503 -0.0376 -0.3244 -0.2271
    3CHTO  H172  938   5.258   0.935   1.517  0.3637 -0.3649  0.3670
    3CHTO  H173  939   5.266   1.092   1.594 -0.4025 -1.7661  0.5665
    3CHTO   C94  940   5.508   0.932   1.575 -0.3959 -0.2618 -0.8262
    3CHTO  H181  941   5.442   0.888   1.650  0.5061 -0.5252 -0.1855
    3CHTO   O61  942   5.622   0.977   1.653 -0.0701 -0.1289  0.2048
    3CHTO   C95  943   5.721   1.063   1.599 -0.6674 -0.1988  0.8778
    3CHTO  H182  944   5.760   1.134   1.672  0.8183 -1.1957  1.0677
    3CHTO  C106  945   5.852   0.983   1.556  0.3176  0.2148 -0.1322
    3CHTO   O69  946   5.945   1.057   1.479  0.8719  0.0054 -0.2387
    3CHTO  H169  947   5.980   1.133   1.521  1.0624 -0.2160  0.0025
    3CHTO   O63  948   5.580   0.828   1.469  0.1273 -0.2724  0.1934
    3CHTO   C96  949   5.503   0.686   1.450 -0.1849 -0.4757 -0.1922
    3CHTO  H183  950   5.538   0.632   1.362  0.2894 -1.2996  0.4997
    3CHTO   C98  951   5.347   0.686   1.431  0.5876 -0.5820 -0.2293
    3CHTO  H185  952   5.300   0.760   1.497  1.9768  0.7736 -0.7358
    3CHTO   O67  953   5.334   0.736   1.301  0.0854  0.2617 -0.1971
    3CHTO  H167  954   5.250   0.709   1.270  1.4601 -3.7682 -0.7614
    3CHTO  C102  955   5.272   0.545   1.457  0.0038  0.2676 -0.3496
    3CHTO  H189  956   5.311   0.484   1.374  1.2750  1.2102 -0.4700
    3CHTO   N18  957   5.126   0.555   1.448  0.1921  0.1360 -0.2872
    3CHTO  H176  958   5.065   0.479   1.494 -0.0951  0.6136  0.1281
    3CHTO  H177  959   5.082   0.594   1.358 -1.1870 -1.1836 -0.1874
    3CHTO  C105  960   5.318   0.478   1.587 -0.4058 -0.5006  0.0596
    3CHTO  H192  961   5.286   0.535   1.675 -0.1190  0.5829 -0.5238
    3CHTO   O65  962   5.464   0.468   1.588  0.6458 -0.1212 -0.2060
    3CHTO  C100  963   5.534   0.597   1.580  0.2186  0.6555 -0.4653
    3CHTO  H187  964   5.496   0.654   1.666  0.7104 -0.1075  0.2664
    3CHTO  C107  965   5.687   0.579   1.590  0.2896  0.0380 -0.3748
    3CHTO   O70  966   5.732   0.499   1.477  0.4384 -0.7513 -0.5546
    3CHTO  H170  967   5.686   0.417   1.477  0.5164 -0.9001  3.2234
    3CHTO   O57  968   5.252   0.324   1.593  0.3206 -0.0753 -0.4454
    3CHTO   C85  969   5.214   0.258   1.718 -0.1436 -0.1558 -0.4663
    3CHTO  H157  970   5.221   0.151   1.688 -1.2972 -0.9183  1.8383
    3CHTO   C83  971   5.067   0.291   1.747 -0.9277 -0.0669  0.3136
    3CHTO  H155  972   5.013   0.248   1.663 -0.6858 -2.6643  1.4177
    3CHTO   O56  973   5.038   0.436   1.761 -0.2389  0.1008 -0.9169
    3CHTO  H135  974   5.072   0.476   1.684 -0.4996  0.3422 -0.9092
    3CHTO   C81  975   5.034   0.209   1.876  0.1818  0.7243 -0.5338
    3CHTO  H153  976   5.061   0.104   1.859 -2.5731 -0.0054 -0.6850
    3CHTO   N14  977   4.887   0.206   1.891 -0.4877 -0.0180  0.0967
    3CHTO  H141  978   4.858   0.110   1.927 -0.4650  0.0837  0.3856
    3CHTO  H142  979   4.850   0.221   1.792  0.7403  1.7430 -0.1148
    3CHTO   C79  980   5.121   0.261   2.002  0.2747  0.3654  0.0092
    3CHTO  H151  981   5.100   0.195   2.086 -0.7417 -0.4304 -0.8597
    3CHTO   O52  982   5.256   0.230   1.964 -0.3606  0.5811 -0.8206
    3CHTO   C86  983   5.304   0.290   1.841 -0.1180 -0.3248  0.2858
    3CHTO  H158  984   5.316   0.399   1.853 -3.4850 -0.0183  1.2026
    3CHTO   C90  985   5.448   0.236   1.805  0.0994  0.2864  0.6031
    3CHTO   O60  986   5.457   0.092   1.807  0.1924 -0.0052 -0.7739
    3CHTO  H138  987   5.432   0.060   1.892  4.0477  1.0250  0.8507
    3CHTO   O50  988   5.109   0.401   2.031  0.1044  0.5322 -0.2099
    3CHTO   C73  989   5.147   0.478   2.147  0.1446 -0.3393 -0.8391
    3CHTO  H145  990   5.230   0.433   2.203 -0.1345  0.3245  0.1212
    3CHTO   C74  991   5.021   0.489   2.236 -0.9930  0.3744 -0.3662
    3CHTO  H146  992   4.999   0.382   2.251  1.6500 -0.4354 -1.9483
    3CHTO   O54  993   5.060   0.543   2.360  0.1911 -0.2670  0.1474
    3CHTO  H133  994   5.095   0.629   2.351 -0.9034  0.2404  0.6027
    3CHTO   C75  995   4.899   0.563   2.166 -1.0156  0.0051 -0.0245
    3CHTO  H147  996   4.878   0.512   2.071 -0.1849 -2.0640  0.8821
    3CHTO   N13  997   4.772   0.561   2.243  0.0791 -0.6473 -0.6291
    3CHTO  H139  998   4.691   0.526   2.182  0.1515  0.4439 -1.3620
    3CHTO  H140  999   4.784   0.478   2.311 -3.8568 -1.0349 -0.3214
    3CHTO   C76 1000   4.940   0.708   2.117 -0.1026 -0.3690  0.1093
    3CHTO  H148 1001   4.950   0.762   2.211 -0.0598 -0.5491  0.2102
    3CHTO   O49 1002   5.075   0.702   2.047  0.2115  0.0428  0.5828
    3CHTO   C77 1003   5.181   0.628   2.107  0.3455  0.2613 -0.3613
    3CHTO  H149 1004   5.231   0.677   2.191  1.1731  1.8607 -1.7817
    3CHTO   C88 1005   5.297   0.632   2.002 -0.1458  0.0473  0.2181
    3CHTO   O58 1006   5.456   0.572   2.056 -0.0984  0.3473  0.3524
    3CHTO  H136 1007   5.520   0.634   2.086  0.0812  0.8694 -1.0849
    3CHTO   O51 1008   4.847   0.766   2.012 -0.2994 -0.3422  0.4624
    3CHTO   C78 1009   4.881   0.916   1.965  0.5065 -0.0322  0.0876
    3CHTO  H150 1010   4.976   0.951   2.011 -0.0714 -0.6894  1.8284
    3CHTO   C80 1011   4.764   1.001   2.020  0.0176 -0.0466  0.5254
    3CHTO  H152 1012   4.672   0.954   1.981 -0.0777 -1.0352  1.9137
    3CHTO   O55 1013   4.765   0.991   2.170  0.3095 -0.4344  0.5110
    3CHTO  H134 1014   4.684   1.033   2.193 -0.1673 -1.2483  0.3563
    3CHTO   C84 1015   4.772   1.154   1.976  0.0241 -1.0822  0.0345
    3CHTO  H156 1016   4.856   1.190   2.035  1.4849 -0.7435 -2.1931
    3CHTO   N15 1017   4.647   1.229   2.013 -0.4384 -0.1491  0.5296
    3CHTO  H143 1018   4.572   1.171   1.965  2.2955 -4.8593  1.6456
    3CHTO  H144 1019   4.622   1.234   2.117 -1.1346 -0.9573  0.4009
    3CHTO   C87 1020   4.804   1.168   1.828  0.0605 -0.0315  0.0694
    3CHTO  H159 1021   4.718   1.130   1.772 -0.3717 -1.0186  1.3754
    3CHTO   O53 1022   4.927   1.074   1.794  0.1486 -0.5182 -0.0085
    3CHTO   C82 1023   4.906   0.933   1.816  0.1001  0.3576 -0.0570
    3CHTO  H154 1024   4.826   0.900   1.750  1.0782 -1.1105 -0.5436
    3CHTO   C89 1025   5.030   0.848   1.780  0.7319 -0.2147  0.2139
    3CHTO   O59 1026   5.005   0.706   1.753 -0.6164 -0.2168 -0.5418
    3CHTO  H137 1027   4.947   0.659   1.810  0.7984 -0.1327  1.0196
    3CHTO   O45 1028   4.843   1.328   1.805  0.3057  0.5394 -1.1428
    3CHTO   C67 1029   4.976   1.357   1.805  1.2005 -0.3021  0.8418
    3CHTO  H124 1030   5.035   1.273   1.842 -0.6654 -1.7296  0.6596
    3CHTO   C65 1031   5.021   1.387   1.658 -0.0819  0.3095 -0.1407
    3CHTO  H122 1032   4.938   1.449   1.625  1.4453  2.2375 -0.4338
    3CHTO   O44 1033   5.018   1.264   1.589 -0.0701 -0.1072  0.2186
    3CHTO  H102 1034   5.076   1.198   1.622 -0.0250  0.1310  0.6124
    3CHTO   C63 1035   5.145   1.489   1.644 -0.0332 -0.5615 -0.0589
    3CHTO  H120 1036   5.107   1.591   1.649  0.6289 -0.2850 -0.5912
    3CHTO   N11 1037   5.211   1.500   1.514 -0.2512  0.4619 -0.2858
    3CHTO  H108 1038   5.287   1.575   1.523  0.6358 -0.3912 -0.5466
    3CHTO  H109 1039   5.252   1.407   1.483  3.6462  1.8656  0.3914
    3CHTO   C61 1040   5.237   1.471   1.765 -0.1762 -0.1870 -0.3450
    3CHTO  H118 1041   5.311   1.552   1.770 -0.2418 -0.2453  2.2554
    3CHTO   O40 1042   5.165   1.479   1.886 -0.2125  0.1430 -0.4346
    3CHTO   C68 1043   5.016   1.481   1.892 -0.0610  0.4681  0.7778
    3CHTO  H125 1044   4.975   1.579   1.858  1.7817  1.1328  0.4242
    3CHTO   C72 1045   4.968   1.453   2.032 -0.1193  0.2648  0.0828
    3CHTO   O48 1046   5.029   1.549   2.121  0.3276  0.2663 -0.1727
    3CHTO  H105 1047   4.997   1.552   2.209  1.6506 -0.2861  0.3392
    3CHTO   O38 1048   5.298   1.339   1.775  0.0420  0.3270  0.0776
    3CHTO   C55 1049   5.395   1.315   1.870  0.0563 -0.6154 -0.7727
    3CHTO  H112 1050   5.364   1.343   1.972 -0.6527  0.5190 -1.2918
    3CHTO   C56 1051   5.532   1.371   1.831 -1.1358  0.2767  0.9236
    3CHTO  H113 1052   5.551   1.332   1.730 -0.8496  0.8865  0.7387
    3CHTO   O42 1053   5.517   1.514   1.820 -0.0150  0.2158 -0.2289
    3CHTO  H100 1054   5.573   1.541   1.750 -0.3963  1.2340 -0.1541
    3CHTO   C57 1055   5.644   1.330   1.931  0.5700 -0.1914  0.3829
    3CHTO  H114 1056   5.622   1.378   2.026 -0.2111 -2.2143  1.2450
    3CHTO   N10 1057   5.785   1.368   1.895 -0.6325  0.4796 -0.6393
    3CHTO  H106 1058   5.794   1.468   1.856  3.4612  0.2794 -0.4580
    3CHTO  H107 1059   5.840   1.358   1.987 -0.1257  0.9581 -0.8849
    3CHTO   C58 1060   5.634   1.180   1.952 -0.4755 -0.0623  0.0229
    3CHTO  H115 1061   5.682   1.134   1.863  0.1785  1.9884 -0.7229
    3CHTO   O37 1062   5.500   1.132   1.990 -0.1357 -0.4450 -0.0112
    3CHTO   C59 1063   5.410   1.162   1.880 -0.2009 -0.0860  0.3753
    3CHTO  H116 1064   5.446   1.116   1.788 -0.0061  0.3970  0.2083
    3CHTO   C70 1065   5.266   1.113   1.899 -0.0265 -0.1080 -0.3164
    3CHTO   O46 1066   5.266   0.973   1.932  0.1585  0.2455 -0.4233
    3CHTO  H103 1067   5.291   0.929   1.853  2.3421  0.2670  0.2227
    3CHTO   O39 1068   5.727   1.116   2.074  0.3204  0.4498 -0.2550
    3CHTO   C60 1069   5.772   0.981   2.045  0.0739  0.6955  0.3216
    3CHTO  H117 1070   5.735   0.938   1.952  0.5554 -1.2848  1.0175
    3CHTO   C62 1071   5.924   0.973   2.009 -0.4041 -0.0109 -0.7055
    3CHTO  H119 1072   5.949   1.037   1.922  3.7427 -2.5095 -1.5001
    3CHTO   O43 1073   6.006   1.002   2.123  0.6730 -0.3596 -0.0713
    3CHTO  H101 1074   6.098   0.996   2.106  0.1816 -1.7122 -2.5284
    3CHTO   C66 1075   5.942   0.819   1.955  0.4501  0.4233  0.1937
    3CHTO  H123 1076   5.872   0.798   1.874  0.4407 -2.7568  0.9837
    3CHTO   N12 1077   6.067   0.796   1.881  0.2223  0.5953  0.0454
    3CHTO  H110 1078   6.152   0.818   1.944 -0.1826 -1.0487  1.1834
    3CHTO  H111 1079   6.063   0.850   1.787 -2.8638  1.8123  0.7945
    3CHTO   C69 1080   5.930   0.719   2.072  0.2970 -0.8164  1.0290
    3CHTO  H126 1081   6.006   0.742   2.150  0.8740 -1.8092  0.7703
    3CHTO   O41 1082   5.779   0.734   2.122 -0.0800  0.0795 -0.2794
    3CHTO   C64 1083   5.742   0.878   2.166 -0.6300  0.2734 -0.6040
    3CHTO  H121 1084   5.806   0.899   2.254 -0.8315  3.1662 -1.1013
    3CHTO   C71 1085   5.600   0.870   2.218 -0.2254  0.1360  0.2962
    3CHTO   O47 1086   5.502   0.883   2.119 -0.0019  0.5574  0.0767
    3CHTO  H104 1087   5.461   0.798   2.113 -0.6097  0.7687  1.0861
    3CHTO   O34 1088   5.953   0.574   2.028  0.0326  0.8496  0.2520
    3CHTO   C49 1089   6.023   0.439   1.973  0.6871  0.2609 -0.2060
    3CHTO   H91 1090   6.102   0.466   1.904  0.5653  0.1921 -0.3719
    3CHTO   C47 1091   5.917   0.372   1.884  0.2345 -0.3288  0.2154
    3CHTO   H89 1092   5.925   0.430   1.790  0.4279  1.7161  1.4548
    3CHTO   O33 1093   5.776   0.375   1.928  0.5516  0.5922 -0.9373
    3CHTO   H70 1094   5.726   0.447   1.898 -1.3684  0.1949  1.1358
    3CHTO   C45 1095   5.956   0.220   1.861 -0.3693  0.6858  0.2408
    3CHTO   H87 1096   5.900   0.162   1.935  1.3872 -0.3096  0.8024
    3CHTO    N8 1097   5.915   0.175   1.724  0.1522 -0.2325 -0.1632
    3CHTO   H75 1098   5.808   0.162   1.733 -0.3976  4.4131  1.0401
    3CHTO   H76 1099   5.951   0.210   1.629 -1.3074  2.3761  0.1857
    3CHTO   C43 1100   6.109   0.181   1.901  0.3413 -0.2008  0.0476
    3CHTO   H85 1101   6.115   0.072   1.896  0.4015 -0.1770 -0.3946
    3CHTO   O29 1102   6.132   0.226   2.041 -0.6126 -0.3092 -0.4298
    3CHTO   C50 1103   6.059   0.346   2.086  0.3289 -0.3313  0.1959
    3CHTO   H92 1104   5.972   0.299   2.135  0.8370 -1.7603 -0.2578
    3CHTO   C54 1105   6.136   0.422   2.198 -0.1595  0.5960 -0.3519
    3CHTO   O36 1106   6.243   0.502   2.151 -0.4948 -0.0939 -0.0231
    3CHTO   H72 1107   6.307   0.443   2.117 -0.3107  0.8947 -1.4261
    3CHTO   O27 1108   6.211   0.238   1.815  0.0216 -0.3150  0.4056
    3CHTO   C37 1109   6.335   0.311   1.786 -0.3269 -0.2348  0.0759
    3CHTO   H79 1110   6.344   0.397   1.855  1.2017 -0.6802  0.4489
    3CHTO   C38 1111   6.454   0.220   1.815  1.0195 -1.0168  0.4229
    3CHTO   H80 1112   6.432   0.121   1.774  2.4762  0.0457 -3.0847
    3CHTO   O31 1113   6.467   0.207   1.957  0.7035  0.2389 -0.5623
    3CHTO   H68 1114   6.527   0.136   1.970 -0.7413 -0.9713 -0.3668
    3CHTO   C39 1115   6.587   0.277   1.759  0.2012  0.1360  0.5179
    3CHTO   H81 1116   6.611   0.356   1.830 -0.8967 -1.3981  2.6552
    3CHTO    N7 1117   6.696   0.169   1.760 -0.2959 -0.2986 -0.0359
    3CHTO   H73 1118   6.760   0.166   1.672 -1.0587  2.0019 -0.7066
    3CHTO   H74 1119   6.651   0.072   1.776  1.4873 -1.0778  0.4387
    3CHTO   C40 1120   6.575   0.337   1.608  0.5322  0.0843 -1.0496
    3CHTO   H82 1121   6.574   0.255   1.535  2.1249  0.7001 -1.8015
    3CHTO   O26 1122   6.454   0.417   1.602 -0.0266  0.0732 -0.0624
    3CHTO   C41 1123   6.331   0.353   1.633 -0.3897  0.0405  0.4712
    3CHTO   H83 1124   6.332   0.260   1.575  1.2055 -0.3485  1.0852
    3CHTO   C52 1125   6.212   0.443   1.607  0.4649  0.4871 -0.3354
    3CHTO   O35 1126   6.246   0.595   1.658  0.5905 -0.5401 -1.1083
    3CHTO   H71 1127   6.207   0.658   1.599 -2.2803  0.0222  1.3030
    3CHTO   O28 1128   6.694   0.410   1.574  0.0453 -0.1728  0.4619
    3CHTO   C42 1129   6.690   0.539   1.500 -0.1342  0.5213  0.0125
    3CHTO   H84 1130   6.797   0.546   1.483  0.3547  1.8752  3.3325
    3CHTO   C44 1131   6.651   0.671   1.579 -0.1210 -0.0132 -0.3784
    3CHTO   H86 1132   6.557   0.647   1.630 -1.0220 -2.2906 -2.9898
    3CHTO   O32 1133   6.755   0.698   1.674 -0.0012 -0.7246  0.1912
    3CHTO   H69 1134   6.804   0.624   1.706  1.9071 -0.1770 -1.4184
    3CHTO   C48 1135   6.635   0.802   1.489 -0.0631 -0.1344 -0.4801
    3CHTO   H90 1136   6.733   0.839   1.461  0.9104  0.8702  3.8688
    3CHTO    N9 1137   6.581   0.922   1.572  0.3258 -0.2059 -0.3090
    3CHTO   H77 1138   6.655   0.999   1.588 -0.5942  0.7063 -0.4073
    3CHTO   H78 1139   6.530   0.890   1.662  0.3865 -1.0687 -0.5717
    3CHTO   C51 1140   6.563   0.769   1.356  0.8099 -0.1793 -0.3305
    3CHTO   H93 1141   6.461   0.746   1.385  1.0825 -0.2294  0.6234
    3CHTO   O30 1142   6.627   0.665   1.283  0.0559 -0.0516 -0.6630
    3CHTO   C46 1143   6.619   0.530   1.362 -0.8363  0.5582 -0.5469
    3CHTO   H88 1144   6.515   0.503   1.379  0.3195 -1.5316  3.6834
    3CHTO   C53 1145   6.690   0.423   1.272 -0.0630 -0.3647  0.2512
    3CHTO   O72 1146   6.682   0.286   1.294  0.2346  0.1537  0.1970
    3CHTO  H199 1147   6.757   0.272   1.349 -0.5335 -2.1716  0.6819
    3CHTO   O22 1148   6.558   0.880   1.266  0.8378 -0.1136  0.3917
    3CHTO   C31 1149   6.433   0.904   1.190 -0.7739  0.6024  0.0274
    3CHTO   H59 1150   6.386   0.803   1.187  0.6237 -0.1882  3.2511
    3CHTO   C29 1151   6.328   1.001   1.247  0.1083 -0.3277  0.8937
    3CHTO   H57 1152   6.384   1.094   1.267 -2.5817  1.0952  1.9840
    3CHTO   O21 1153   6.286   0.962   1.380  0.2272  0.2578  0.2610
    3CHTO   H37 1154   6.262   0.871   1.376 -1.4334  0.6834  0.3631
    3CHTO   C27 1155   6.211   1.032   1.144 -0.4229 -0.0031 -0.1912
    3CHTO   H55 1156   6.140   0.947   1.146 -1.3428  0.7602 -0.0530
    3CHTO    N5 1157   6.127   1.148   1.191  0.2389  0.1795 -0.0099
    3CHTO   H43 1158   6.124   1.224   1.114  2.1104  1.5534  1.2449
    3CHTO   H44 1159   6.032   1.116   1.230  0.9134 -1.8338  0.0101
    3CHTO   C25 1160   6.259   1.053   0.998  0.3555 -0.1487 -0.8009
    3CHTO   H53 1161   6.310   1.147   0.972  0.0390 -0.0089 -0.9091
    3CHTO   O17 1162   6.345   0.947   0.962 -0.4152 -0.1982  0.5838
    3CHTO   C32 1163   6.465   0.942   1.037 -0.7761  0.1996 -0.1857
    3CHTO   H60 1164   6.513   1.040   1.027 -3.2076  1.2786 -1.9087
    3CHTO   C36 1165   6.569   0.843   0.980  0.2269 -0.4007 -0.6096
    3CHTO   O25 1166   6.588   0.855   0.839  0.4330  0.0276 -0.1539
    3CHTO   H40 1167   6.677   0.849   0.809  0.4289 -0.1004 -0.1407
    3CHTO   O15 1168   6.134   1.040   0.903  0.0158 -0.5044 -0.2232
    3CHTO   C19 1169   6.090   1.141   0.807  0.3011 -0.9224  0.0011
    3CHTO   H47 1170   5.998   1.106   0.759  0.7179 -1.2753 -0.5590
    3CHTO   C20 1171   6.067   1.276   0.870  0.7616  0.2180  0.5990
    3CHTO   H48 1172   6.151   1.309   0.932  1.1282  1.0104 -0.3122
    3CHTO   O19 1173   5.962   1.259   0.971  0.1405 -0.2056 -0.1383
    3CHTO   H35 1174   5.977   1.178   1.016  0.4730  0.9562  1.9232
    3CHTO   C21 1175   6.032   1.384   0.764  0.4855  0.0870  0.1543
    3CHTO   H49 1176   5.939   1.350   0.719  1.7431 -1.9018 -1.0217
    3CHTO    N4 1177   6.021   1.519   0.826 -0.3216  1.0733 -0.0093
    3CHTO   H41 1178   5.928   1.565   0.798 -1.0345 -0.6761 -0.5983
    3CHTO   H42 1179   6.104   1.576   0.788 -1.3570  0.1132 -3.9035
    3CHTO   C22 1180   6.142   1.372   0.654  0.5268  0.0465 -0.4691
    3CHTO   H50 1181   6.235   1.404   0.700 -0.1925  0.1174  0.9877
    3CHTO   O14 1182   6.155   1.242   0.598 -0.2711  0.0523 -0.2567
    3CHTO   C23 1183   6.200   1.152   0.697 -0.5418 -0.5000  0.0762
    3CHTO   H51 1184   6.291   1.198   0.739 -0.8046 -0.3715  0.4998
    3CHTO   C34 1185   6.215   1.027   0.618  0.4350 -0.0905  0.2012
    3CHTO   O23 1186   6.274   0.914   0.683  0.6945  0.2501 -0.3598
    3CHTO   H38 1187   6.208   0.860   0.721 -0.0147  2.4727  1.6323
    3CHTO   O16 1188   6.118   1.451   0.539 -0.3207 -0.0746 -0.2852
    3CHTO   C24 1189   6.229   1.577   0.512  0.3342 -0.5918  0.0038
    3CHTO   H52 1190   6.271   1.614   0.605 -1.6157  0.6010  0.4510
    3CHTO   C26 1191   6.144   1.689   0.439 -0.5527  0.0817  0.0029
    3CHTO   H54 1192   6.084   1.647   0.356 -1.2360 -0.5184  0.7881
    3CHTO   O20 1193   6.052   1.741   0.536  0.3334  0.1948  0.5640
    3CHTO   H36 1194   6.100   1.794   0.596 -0.0404  1.1408  0.0290
    3CHTO   C30 1195   6.232   1.801   0.370  0.4166 -0.0078 -0.4459
    3CHTO   H58 1196   6.279   1.869   0.443  0.5326  0.1705 -0.6858
    3CHTO    N6 1197   6.144   1.886   0.287 -0.1589 -0.4125 -0.1986
    3CHTO   H45 1198   6.126   1.845   0.189 -0.7278 -2.2270  0.6413
    3CHTO   H46 1199   6.179   1.987   0.274 -0.5015 -0.2137  0.4195
    3CHTO   C33 1200   6.353   1.740   0.289  0.1537  0.1193  0.6897
    3CHTO   H61 1201   6.328   1.686   0.196 -0.5615  1.6226 -0.0096
    3CHTO   O18 1202   6.420   1.647   0.384  0.0731  0.2699 -0.2738
    3CHTO   C28 1203   6.348   1.529   0.427 -0.2136  0.4903  0.2653
    3CHTO   H56 1204   6.309   1.478   0.338 -0.2288  1.9384 -0.5764
    3CHTO   C35 1205   6.437   1.431   0.516  0.4930  0.7219 -0.3223
    3CHTO   O24 1206   6.560   1.409   0.444 -0.4564  0.1368  0.3040
    3CHTO   H39 1207   6.540   1.374   0.359  0.3575 -0.1510  0.2354
    3CHTO    O9 1208   6.438   1.842   0.251 -0.5156 -0.0020  0.5074
    3CHTO   C13 1209   6.526   1.916   0.365 -0.0077 -0.9009  0.0653
    3CHTO   H26 1210   6.475   1.901   0.463 -0.8891  0.4656 -0.1690
    3CHTO   C11 1211   6.537   2.070   0.333 -0.2737  0.1500 -0.5601
    3CHTO   H24 1212   6.436   2.113   0.330  0.4740  1.9764 -0.2678
    3CHTO    O8 1213   6.592   2.090   0.199  0.2126  0.2068 -0.2049
    3CHTO    H3 1214   6.629   2.009   0.170  0.1124  0.0284  0.1682
    3CHTO    C9 1215   6.622   2.138   0.440 -1.1595  0.2831 -0.7012
    3CHTO   H22 1216   6.569   2.120   0.535 -1.6467  0.3317 -0.9591
    3CHTO    N2 1217   6.621   2.288   0.432  0.0430  0.2838  0.8962
    3CHTO   H10 1218   6.689   2.298   0.349  0.4477 -0.0977  1.1780
    3CHTO   H11 1219   6.655   2.338   0.521 -0.8135 -0.2014  1.5086
    3CHTO    C7 1220   6.769   2.070   0.440  1.5177 -0.3765 -0.4271
    3CHTO   H20 1221   6.813   2.113   0.533  1.8798 -0.7659 -0.4149
    3CHTO    O4 1222   6.767   1.925   0.446 -0.2148  0.2311  0.1380
    3CHTO   C14 1223   6.664   1.841   0.384 -0.3845 -0.7596  0.4679
    3CHTO   H27 1224   6.665   1.750   0.447 -1.0771 -2.5330 -2.0107
    3CHTO   C18 1225   6.721   1.791   0.247  0.1728 -0.1966  0.1479
    3CHTO   O13 1226   6.830   1.698   0.262  0.2148 -0.3562  0.0078
    3CHTO    H7 1227   6.826   1.621   0.209  3.3332 -2.1868  2.2634
    3CHTO    O2 1228   6.870   2.124   0.304  0.6303  0.5448 -0.3209
    3CHTO    C1 1229   6.985   2.044   0.270 -0.0133  0.2009 -0.3269
    3CHTO   H14 1230   6.957   1.937   0.265 -1.7838  0.5628  1.3877
    3CHTO    C2 1231   7.107   2.066   0.371 -0.3008 -0.3238 -0.3541
    3CHTO   H15 1232   7.120   2.175   0.377  1.0130 -0.4732 -0.2122
    3CHTO    O6 1233   7.064   2.026   0.505 -0.6679  0.6611 -0.2280
    3CHTO    H1 1234   6.981   2.063   0.528 -0.9578 -0.7951  1.1772
    3CHTO    C3 1235   7.242   1.997   0.319 -1.2932 -0.3411 -0.3133
    3CHTO   H16 1236   7.236   1.888   0.320  1.7787 -0.5863 -1.3992
    3CHTO    N1 1237   7.360   2.033   0.401  0.4568 -0.4684 -0.2517
    3CHTO    H8 1238   7.450   2.004   0.350  1.8238  1.1099  1.1957
    3CHTO    H9 1239   7.350   1.994   0.501 -2.3141 -0.4143 -0.4649
    3CHTO    C4 1240   7.259   2.024   0.169 -0.2072  0.1403  0.4514
    3CHTO   H17 1241   7.297   2.125   0.157 -0.4673  0.3216  1.1574
    3CHTO    O1 1242   7.144   1.990   0.095  0.0102 -0.3897 -0.6281
    3CHTO    C5 1243   7.033   2.073   0.130  0.5394 -0.2435 -0.7857
    3CHTO   H18 1244   7.056   2.180   0.131  1.7452 -0.4972 -0.8277
    3CHTO   C16 1245   6.916   2.059   0.030  0.7877 -0.2856  0.0999
    3CHTO   O11 1246   6.951   2.094  -0.104 -0.1372  0.7489 -0.2237
    3CHTO    H5 1247   7.042   2.097  -0.123  0.8102  2.6670  3.9661
    3CHTO    O3 1248   7.349   1.927   0.118  0.0164  0.1671  0.3492
    3CHTO    C6 1249   7.424   1.978  -0.002 -0.3483 -0.0676  0.1390
    3CHTO   H19 1250   7.369   2.054  -0.057 -1.0718 -3.2491 -3.7331
    3CHTO    C8 1251   7.567   2.026   0.042  0.4910 -0.2351 -0.8198
    3CHTO   H21 1252   7.617   1.947   0.097 -2.0981 -1.2575  0.1615
    3CHTO    O7 1253   7.555   2.134   0.139  0.0531  0.1699 -0.2089
    3CHTO    H2 1254   7.634   2.179   0.160 -0.6682  1.1447  0.4702
    3CHTO   C12 1255   7.656   2.069  -0.080  0.5255 -0.0962 -0.2338
    3CHTO   H25 1256   7.609   2.159  -0.125 -0.9565 -0.2654  0.9560
    3CHTO    N3 1257   7.791   2.106  -0.042  0.0855  0.2320 -0.2247
    3CHTO   H12 1258   7.835   2.166  -0.121  0.0157  1.3179  0.5554
    3CHTO   H13 1259   7.847   2.015  -0.026  0.4107  0.1458 -1.7715
    3CHTO   C15 1260   7.653   1.950  -0.187  0.8956  0.8781 -0.1697
    3CHTO   H28 1261   7.710   1.863  -0.153 -2.2833 -2.3322 -2.6406
    3CHTO   O10 1262   7.711   1.993  -0.322  0.7236 -0.0980 -0.3976
    3CHTO    H4 1263   7.649   2.012  -0.390  2.8898 -0.5439 -2.5817
    3CHTO    O5 1264   7.518   1.912  -0.212 -0.0108 -0.0736 -0.2380
    3CHTO   C10 1265   7.444   1.861  -0.102  1.0415  0.3388 -0.3511
    3CHTO   H23 1266   7.493   1.770  -0.067  0.9009  0.5674  0.4690
    3CHTO   C17 1267   7.305   1.812  -0.152  0.0951 -0.4740  0.1981
    3CHTO   O12 1268   7.279   1.686  -0.090 -0.4142  0.1863  0.4839
    3CHTO    H6 1269   7.344   1.620  -0.108  0.0610  0.3524  1.5523
    4CHTO  H203 1270   5.610   7.256   2.036 -0.7459  0.5040 -0.3054
    4CHTO   O82 1271   5.678   7.314   2.009 -0.7784  0.6804 -0.0136
    4CHTO  C123 1272   5.638   7.448   2.031  0.6095  0.5545  0.4388
    4CHTO  H227 1273   5.545   7.438   2.089 -1.2928 -0.5913 -2.6412
    4CHTO   O77 1274   5.745   7.517   2.111  0.3126  0.1637 -0.2834
    4CHTO  C118 1275   5.698   7.643   2.165 -0.0743 -0.0796 -0.0116
    4CHTO  H222 1276   5.603   7.635   2.221 -1.0985 -0.2345 -1.7550
    4CHTO  C125 1277   5.801   7.708   2.262  0.2905 -0.3360  0.4069
    4CHTO   O84 1278   5.922   7.749   2.196  0.0562  0.0563  0.1104
    4CHTO  H205 1279   5.992   7.716   2.249  0.3387  2.9104  1.6210
    4CHTO  C114 1280   5.672   7.743   2.045 -0.3721 -0.0214  0.1554
    4CHTO  H218 1281   5.764   7.769   1.992 -1.1561  0.7285 -0.8300
    4CHTO  C116 1282   5.571   7.670   1.940 -0.7408 -0.0801  0.5052
    4CHTO  H220 1283   5.471   7.659   1.987 -0.4426 -0.2039  1.1189
    4CHTO   O79 1284   5.560   7.760   1.823  0.3699 -0.2410  0.0073
    4CHTO  H201 1285   5.641   7.784   1.780  0.9430  2.8915  2.6701
    4CHTO  C120 1286   5.611   7.525   1.898 -0.1987 -0.1749 -0.2990
    4CHTO  H224 1287   5.711   7.535   1.850  1.1740 -1.0620  2.2593
    4CHTO   N21 1288   5.518   7.458   1.803 -0.0217 -0.3860 -0.5707
    4CHTO  H211 1289   5.456   7.400   1.868 -0.9890 -0.0035 -1.1461
    4CHTO  H212 1290   5.465   7.523   1.735  1.2731 -0.8455 -2.0756
    4CHTO   O75 1291   5.608   7.855   2.104 -0.2253 -0.2603 -0.8517
    4CHTO  C112 1292   5.669   7.996   2.040  0.1244  0.3011 -0.2055
    4CHTO  H216 1293   5.671   8.002   1.931  2.7240  1.3097 -0.1525
    4CHTO   O73 1294   5.795   8.006   2.094  0.4124  0.8983  0.0245
    4CHTO  C113 1295   5.878   8.110   2.039  0.5825  0.1469 -0.0935
    4CHTO  H217 1296   5.876   8.112   1.928  0.5828  0.8824 -0.0819
    4CHTO  C124 1297   6.028   8.087   2.083  0.5196 -0.2086 -0.2904
    4CHTO   O83 1298   6.084   7.962   2.040  0.3757 -0.3988 -0.2580
    4CHTO  H204 1299   6.116   7.964   1.951  1.1934  0.0122  0.0393
    4CHTO  C109 1300   5.823   8.248   2.083  0.3031 -0.0745  0.0195
    4CHTO  H213 1301   5.835   8.263   2.192  1.1723  0.5082 -0.1508
    4CHTO  C110 1302   5.665   8.251   2.052 -0.6109 -0.0482 -0.2124
    4CHTO  H214 1303   5.652   8.279   1.947 -0.0499  4.6620  0.8225
    4CHTO   O78 1304   5.603   8.367   2.112  0.7896 -0.0633 -0.0976
    4CHTO  H200 1305   5.511   8.377   2.095  0.2068 -0.2348  2.6161
    4CHTO  C111 1306   5.588   8.122   2.088  0.0238  0.3420 -0.2093
    4CHTO  H215 1307   5.586   8.113   2.197  0.6566  0.8822 -0.1466
    4CHTO   N19 1308   5.450   8.106   2.039 -0.6841 -0.8792 -0.1271
    4CHTO  H207 1309   5.376   8.094   2.116  1.3791 -0.9401  1.9151
    4CHTO  H208 1310   5.421   8.172   1.958 -2.7186 -1.0432  0.4469
    4CHTO   O74 1311   5.896   8.360   2.014  0.2922 -0.3462 -0.2807
    4CHTO  C115 1312   5.906   8.494   2.123 -0.6069 -0.5227 -0.2963
    4CHTO  H219 1313   5.830   8.487   2.201  0.7169 -0.4176  1.0255
    4CHTO   O76 1314   6.029   8.492   2.193  0.1110  0.3336  0.1717
    4CHTO  C122 1315   6.135   8.503   2.097 -0.0712 -1.0644 -0.0721
    4CHTO  H226 1316   6.124   8.424   2.023 -1.0676 -1.0562  0.0537
    4CHTO  C126 1317   6.261   8.477   2.184  0.6983  0.4696  0.1148
    4CHTO   O85 1318   6.379   8.468   2.107 -0.0899  0.0391 -0.6914
    4CHTO  H206 1319   6.362   8.407   2.038  2.8445  0.6450 -2.0230
    4CHTO  C121 1320   6.127   8.644   2.028 -0.2938 -0.2171 -0.1725
    4CHTO  H225 1321   6.209   8.700   2.078 -0.0112 -2.3795  1.9165
    4CHTO   O81 1322   6.159   8.630   1.888  0.0315  0.4806  0.4322
    4CHTO  H202 1323   6.197   8.711   1.860  2.3280 -0.6347  0.1671
    4CHTO  C119 1324   6.000   8.723   2.051  0.0048 -0.2293 -0.5361
    4CHTO  H223 1325   6.010   8.767   2.150  1.3799 -0.7934 -0.4115
    4CHTO  C117 1326   5.874   8.629   2.046 -0.0130 -0.2489  0.3889
    4CHTO  H221 1327   5.841   8.598   1.947 -0.0687 -2.4236  1.0467
    4CHTO   N20 1328   5.757   8.698   2.105  0.5002  0.0706 -0.3411
    4CHTO  H209 1329   5.673   8.634   2.128 -0.6664  1.4439 -0.6929
    4CHTO  H210 1330   5.789   8.753   2.192 -0.3094  1.4869 -0.9279
    4CHTO   O80 1331   5.992   8.856   1.963 -0.8911  0.4908 -0.1189
    4CHTO  C103 1332   6.071   8.994   2.010  0.0212 -0.4728  0.5272
    4CHTO  H190 1333   6.053   9.016   2.116 -2.9432  0.9497 -0.2081
    4CHTO  C101 1334   6.222   8.992   1.990 -0.0206  0.3257  0.0201
    4CHTO  H188 1335   6.234   8.945   1.893 -1.8147 -0.4077  0.1341
    4CHTO   O68 1336   6.303   8.903   2.102  0.1444 -0.3722 -0.0855
    4CHTO  H168 1337   6.389   8.940   2.104 -0.1070  0.2398 -0.7204
    4CHTO   C99 1338   6.284   9.141   1.990  0.1669 -0.2979 -0.5849
    4CHTO  H186 1339   6.291   9.176   2.096  0.6733  2.8355 -1.5931
    4CHTO   N17 1340   6.418   9.147   1.938  0.3817 -0.5441 -0.0005
    4CHTO  H174 1341   6.480   9.221   1.986  0.7749 -1.3745  0.7868
    4CHTO  H175 1342   6.425   9.140   1.830 -1.4852 -0.2244 -0.1627
    4CHTO   C97 1343   6.193   9.246   1.928  0.4535  0.1000  0.2047
    4CHTO  H184 1344   6.208   9.245   1.819 -0.2782  0.2178  0.1010
    4CHTO   O64 1345   6.057   9.232   1.964  0.5349  0.7178 -0.0635
    4CHTO  C104 1346   5.995   9.106   1.930 -0.0092  0.7138  0.5806
    4CHTO  H191 1347   5.991   9.083   1.824 -1.1302 -1.0020  0.9697
    4CHTO  C108 1348   5.845   9.107   1.971  0.3964  0.0151  0.0584
    4CHTO   O71 1349   5.775   9.191   1.880  0.7627 -0.3291 -0.3597
    4CHTO  H171 1350   5.693   9.224   1.910  2.0886  2.1463  0.6962
    4CHTO   O62 1351   6.209   9.379   1.978 -0.2969  0.5218  0.8501
    4CHTO   C91 1352   6.199   9.494   1.899  0.0292 -1.0231 -0.0395
    4CHTO  H178 1353   6.162   9.463   1.801  1.5523 -1.8009 -0.3693
    4CHTO   C92 1354   6.346   9.533   1.870 -0.0020  0.2291  0.4923
    4CHTO  H179 1355   6.414   9.488   1.943  1.9605 -1.3518 -2.2045
    4CHTO   O66 1356   6.387   9.462   1.749  0.6909  0.5065 -0.1442
    4CHTO  H166 1357   6.436   9.382   1.759 -0.9251 -0.4592  0.2993
    4CHTO   C93 1358   6.382   9.684   1.837  0.0527 -0.1936  0.4989
    4CHTO  H180 1359   6.450   9.691   1.751 -0.8606  1.8984 -0.0819
    4CHTO   N16 1360   6.448   9.751   1.942 -0.8298  0.7456 -0.2583
    4CHTO  H172 1361   6.396   9.755   2.037 -0.5408 -1.3015  0.0030
    4CHTO  H173 1362   6.549   9.715   1.950 -0.1221  2.0703 -2.7215
    4CHTO   C94 1363   6.249   9.768   1.815 -1.0405 -0.0558  0.6638
    4CHTO  H181 1364   6.269   9.875   1.816  0.2225 -0.2756 -0.1694
    4CHTO   O61 1365   6.143   9.747   1.910  0.2460  0.4138 -0.4117
    4CHTO   C95 1366   6.107   9.613   1.953 -0.4315  0.5122  0.0248
    4CHTO  H182 1367   6.114   9.614   2.062 -0.1663 -0.0745  0.0184
    4CHTO  C106 1368   5.959   9.587   1.927  0.1169 -0.1304  0.0476
    4CHTO   O69 1369   5.913   9.636   1.797 -0.5870  0.5354 -0.4344
    4CHTO  H169 1370   5.830   9.604   1.767 -0.1098 -1.2294  0.0425
    4CHTO   O63 1371   6.183   9.727   1.666  0.1003  0.4045  0.0977
    4CHTO   C96 1372   6.273   9.760   1.533 -0.7320 -0.1210 -0.0729
    4CHTO  H183 1373   6.368   9.707   1.546 -0.4137  0.1489 -1.2270
    4CHTO   C98 1374   6.299   9.905   1.502  0.4366  0.2474 -0.6110
    4CHTO  H185 1375   6.203   9.953   1.525  0.4999 -0.7334  1.9117
    4CHTO   O67 1376   6.400   9.961   1.591 -0.0131 -0.3441 -0.2623
    4CHTO  H167 1377   6.482   9.918   1.576  0.1058 -0.2662  0.1357
    4CHTO  C102 1378   6.343   9.947   1.359  0.8040  0.2466  0.7604
    4CHTO  H189 1379   6.452   9.934   1.356  0.8889  1.0220 -0.0383
    4CHTO   N18 1380   6.326  10.091   1.331 -1.1020  0.1953  0.3143
    4CHTO  H176 1381   6.381  10.162   1.390 -0.7044 -0.5055  0.7972
    4CHTO  H177 1382   6.296  10.120   1.231  0.2459  0.6646  0.0321
    4CHTO  C105 1383   6.277   9.854   1.254  0.1926 -0.2780 -0.7966
    4CHTO  H192 1384   6.170   9.877   1.244  0.3507  1.3533  0.9638
    4CHTO   O65 1385   6.279   9.717   1.295 -0.0329 -0.1412 -0.2438
    4CHTO  C100 1386   6.203   9.691   1.412 -0.1349 -0.1029 -0.1771
    4CHTO  H187 1387   6.103   9.736   1.403  0.2695  0.7842 -0.2827
    4CHTO  C107 1388   6.193   9.538   1.432 -0.7303  0.0569 -0.4141
    4CHTO   O70 1389   6.137   9.500   1.558 -0.5891  0.8028 -0.1503
    4CHTO  H170 1390   6.147   9.567   1.622  0.3264 -1.3055  1.9875
    4CHTO   O57 1391   6.341   9.876   1.115  0.3300  0.6346 -0.1287
    4CHTO   C85 1392   6.273   9.864   0.988 -0.0313  1.4395 -0.6492
    4CHTO  H157 1393   6.180   9.921   1.011 -2.2610 -1.5126 -1.9122
    4CHTO   C83 1394   6.218   9.713   0.958  0.3737  0.4384  0.3339
    4CHTO  H155 1395   6.142   9.694   1.033  0.9529 -2.2038  0.3289
    4CHTO   O56 1396   6.323   9.623   0.979  0.6404  0.5636 -0.0424
    4CHTO  H135 1397   6.283   9.541   0.998  0.8223  0.6223  0.5897
    4CHTO   C81 1398   6.152   9.711   0.819 -0.4807 -0.0004  1.1704
    4CHTO  H153 1399   6.066   9.777   0.823 -0.2949  0.4298 -1.2222
    4CHTO   N14 1400   6.090   9.577   0.798  0.1225  0.4970 -0.0766
    4CHTO  H141 1401   5.992   9.578   0.841 -0.0605 -0.9899 -0.4017
    4CHTO  H142 1402   6.086   9.553   0.693  0.0572  1.4494 -0.2914
    4CHTO   C79 1403   6.250   9.763   0.709  1.1274 -0.7652  0.2287
    4CHTO  H151 1404   6.199   9.754   0.613  0.9880  0.9640  0.1196
    4CHTO   O52 1405   6.294   9.897   0.738  0.2283 -0.2587 -0.4634
    4CHTO   C86 1406   6.353   9.920   0.867  0.6732  0.1476 -0.3610
    4CHTO  H158 1407   6.447   9.863   0.856 -0.9653 -2.8060  0.6251
    4CHTO   C90 1408   6.385  10.065   0.885  0.3637 -0.9176  0.7154
    4CHTO   O60 1409   6.278  10.160   0.905 -0.5236 -0.3555 -0.5391
    4CHTO  H138 1410   6.274  10.236   0.851  3.4223 -0.8666 -1.7438
    4CHTO   O50 1411   6.367   9.683   0.686  0.1035 -0.1776 -0.5306
    4CHTO   C73 1412   6.460   9.616   0.600  0.4778 -0.0601 -0.4991
    4CHTO  H145 1413   6.484   9.676   0.511 -0.2307  0.1102 -0.5827
    4CHTO   C74 1414   6.393   9.486   0.542  0.5334 -0.1564 -0.3746
    4CHTO  H146 1415   6.301   9.508   0.487 -0.7379 -4.3209 -0.0963
    4CHTO   O54 1416   6.473   9.431   0.434 -0.2354  0.1106  0.1486
    4CHTO  H133 1417   6.565   9.446   0.446 -0.3887  1.3138 -0.0563
    4CHTO   C75 1418   6.367   9.374   0.659 -0.7516  0.1441 -0.1370
    4CHTO  H147 1419   6.297   9.416   0.732 -2.7798 -1.5321 -1.0425
    4CHTO   N13 1420   6.303   9.246   0.617 -0.5239 -0.3301  0.1569
    4CHTO  H139 1421   6.332   9.157   0.670  1.5080  0.5689  0.5682
    4CHTO  H140 1422   6.330   9.236   0.513  0.5224 -0.2161  0.4207
    4CHTO   C76 1423   6.510   9.353   0.729 -0.2794  0.3294 -0.6370
    4CHTO  H148 1424   6.571   9.310   0.650  0.2901 -0.3261  0.1595
    4CHTO   O49 1425   6.561   9.483   0.789  0.5859 -0.1004 -0.3777
    4CHTO   C77 1426   6.589   9.573   0.684  0.4818 -0.1969 -0.2648
    4CHTO  H149 1427   6.663   9.530   0.616 -0.2563 -1.3291 -0.3596
    4CHTO   C88 1428   6.658   9.695   0.742 -0.1172  1.1240 -0.3546
    4CHTO   O58 1429   6.798   9.653   0.776  0.0116  0.1716 -0.1845
    4CHTO  H136 1430   6.840   9.734   0.800 -0.5236  0.6719 -0.9040
    4CHTO   O51 1431   6.496   9.255   0.849 -1.0045 -0.1262 -0.3211
    4CHTO   C78 1432   6.640   9.164   0.872  0.5414  0.0246 -0.3638
    4CHTO  H150 1433   6.653   9.159   0.982 -0.1469 -2.7536 -0.3839
    4CHTO   C80 1434   6.770   9.212   0.805 -0.3933  0.4026 -0.1245
    4CHTO  H152 1435   6.754   9.207   0.696  1.8058  1.6366 -0.5409
    4CHTO   O55 1436   6.817   9.344   0.850  0.2120  0.6517  0.4322
    4CHTO  H134 1437   6.906   9.355   0.824 -0.4736 -0.3088 -2.4907
    4CHTO   C84 1438   6.883   9.099   0.830 -0.4615  0.1777 -0.0659
    4CHTO  H156 1439   6.899   9.089   0.937 -0.6658 -1.6997 -0.1955
    4CHTO   N15 1440   7.014   9.133   0.763  0.2828  0.1691 -0.3536
    4CHTO  H143 1441   7.059   9.228   0.783  0.1305  0.0847  0.4002
    4CHTO  H144 1442   7.024   9.106   0.660  1.7846  1.8330 -0.6775
    4CHTO   C87 1443   6.829   8.964   0.780 -0.0208  0.0342  0.6295
    4CHTO  H159 1444   6.803   8.959   0.675  1.0701 -0.2955  0.3725
    4CHTO   O53 1445   6.719   8.932   0.864 -0.0081 -0.1694  0.3281
    4CHTO   C82 1446   6.608   9.019   0.830 -0.0747  0.0833 -0.0446
    4CHTO  H154 1447   6.588   9.021   0.723  1.3645  1.1407 -0.3023
    4CHTO   C89 1448   6.476   8.965   0.894 -0.3669 -0.9049 -0.8539
    4CHTO   O59 1449   6.484   8.954   1.037 -0.0896 -0.7493 -0.3501
    4CHTO  H137 1450   6.427   9.001   1.095 -0.0680  0.7032 -1.4886
    4CHTO   O45 1451   6.941   8.845   0.824  1.0696  0.0973 -0.1200
    4CHTO   C67 1452   7.021   8.781   0.724  0.3853  0.5141 -0.9410
    4CHTO  H124 1453   7.058   8.857   0.655 -0.1652  0.9211 -0.7833
    4CHTO   C65 1454   7.150   8.701   0.785  0.1347  0.1330 -0.2431
    4CHTO  H122 1455   7.200   8.763   0.859 -1.6734  0.4383  0.7387
    4CHTO   O44 1456   7.243   8.664   0.686  0.7131 -0.4659 -0.1710
    4CHTO  H102 1457   7.312   8.614   0.726  1.6416  1.4268  0.6600
    4CHTO   C63 1458   7.091   8.575   0.864  0.1411 -0.1686  0.9490
    4CHTO  H120 1459   7.018   8.611   0.936 -0.4977 -1.3491  0.9115
    4CHTO   N11 1460   7.193   8.510   0.953  0.2583 -0.3079  0.2867
    4CHTO  H108 1461   7.263   8.581   0.991  0.4147  0.2297 -0.9786
    4CHTO  H109 1462   7.235   8.426   0.901  0.7883 -0.1309  0.4283
    4CHTO   C61 1463   7.016   8.474   0.764 -0.2483  0.0750  0.8501
    4CHTO  H118 1464   6.957   8.412   0.834 -0.9624  1.0136  1.0863
    4CHTO   O40 1465   6.923   8.540   0.682  0.0253  0.0998 -0.5911
    4CHTO   C68 1466   6.941   8.679   0.626  0.5862 -0.2842 -0.5274
    4CHTO  H125 1467   6.846   8.735   0.618  0.6088 -0.2541 -0.5799
    4CHTO   C72 1468   7.005   8.664   0.480  0.2892  0.4830 -0.4434
    4CHTO   O48 1469   6.919   8.599   0.382  0.3638  0.1573 -0.1558
    4CHTO  H105 1470   6.910   8.659   0.310  0.5170  1.2173  0.6985
    4CHTO   O38 1471   7.099   8.404   0.664  0.0548 -0.5725  0.2622
    4CHTO   C55 1472   7.073   8.262   0.655 -0.2153  0.0057 -0.7199
    4CHTO  H112 1473   6.975   8.236   0.698  0.1949  0.8681  0.7427
    4CHTO   C56 1474   7.191   8.175   0.728 -0.0045  0.0963  1.0033
    4CHTO  H113 1475   7.286   8.207   0.682  0.6651  0.4116  2.5949
    4CHTO   O42 1476   7.213   8.211   0.869 -0.1958 -0.9759  0.1388
    4CHTO  H100 1477   7.303   8.220   0.894 -0.4224 -1.9646  1.3426
    4CHTO   C57 1478   7.167   8.020   0.717 -0.7444 -0.0879  0.2935
    4CHTO  H114 1479   7.076   7.999   0.772 -2.4676 -0.0910 -2.4373
    4CHTO   N10 1480   7.286   7.939   0.755 -0.8175 -0.1674 -0.1761
    4CHTO  H106 1481   7.383   7.985   0.742  0.1179 -1.8909  0.5098
    4CHTO  H107 1482   7.274   7.886   0.848  2.7584 -0.8735 -0.0650
    4CHTO   C58 1483   7.131   7.983   0.568  0.3825 -0.4410  0.3877
    4CHTO  H115 1484   7.223   7.992   0.506  0.8265  1.0957  1.2366
    4CHTO   O37 1485   7.031   8.068   0.512 -0.0656 -0.2732  0.2675
    4CHTO   C59 1486   7.053   8.211   0.511 -0.1879  0.7650  0.0181
    4CHTO  H116 1487   7.143   8.231   0.452  0.4313  1.9394  1.3421
    4CHTO   C70 1488   6.929   8.277   0.445 -0.3778  1.1019 -0.2071
    4CHTO   O46 1489   6.914   8.230   0.312 -0.2441 -0.0417  0.1061
    4CHTO  H103 1490   6.911   8.137   0.296  0.1881 -0.0234 -0.0812
    4CHTO   O39 1491   7.069   7.834   0.586 -0.6676 -0.1160 -0.7964
    4CHTO   C60 1492   7.129   7.744   0.495 -0.0783  1.0642  0.7803
    4CHTO  H117 1493   7.199   7.796   0.430 -0.3839  0.5775  0.0433
    4CHTO   C62 1494   7.207   7.626   0.555 -0.0652  0.0241 -0.6079
    4CHTO  H119 1495   7.294   7.672   0.607 -1.2605  0.7673  0.7809
    4CHTO   O43 1496   7.127   7.556   0.658 -0.4671  0.2090  0.2230
    4CHTO  H101 1497   7.187   7.495   0.696  2.0996  2.5909  0.1193
    4CHTO   C66 1498   7.255   7.511   0.457  0.3680  0.3080  0.1154
    4CHTO  H123 1499   7.309   7.557   0.373  2.6789 -1.2413  0.7063
    4CHTO   N12 1500   7.357   7.412   0.510 -0.0740 -0.4782 -0.5371
    4CHTO  H110 1501   7.309   7.357   0.590 -0.8226  1.1423  0.1460
    4CHTO  H111 1502   7.443   7.463   0.551 -1.6517  0.9198  1.1007
    4CHTO   C69 1503   7.123   7.441   0.401 -0.5240  0.2597  0.0595
    4CHTO  H126 1504   7.062   7.415   0.490 -1.7982  0.3656 -0.7757
    4CHTO   O41 1505   7.047   7.561   0.309  0.3827 -0.2310 -0.2555
    4CHTO   C64 1506   7.007   7.685   0.406 -0.4469 -0.4038  0.1788
    4CHTO  H121 1507   6.930   7.653   0.479 -1.0471  0.3160 -0.1297
    4CHTO   C71 1508   6.951   7.801   0.313  0.8420 -0.6928 -0.3670
    4CHTO   O47 1509   6.826   7.765   0.254 -0.1464 -0.1571  0.2827
    4CHTO  H104 1510   6.847   7.753   0.163  2.1511 -2.7575  1.1047
    4CHTO   O34 1511   7.155   7.300   0.312 -0.7750 -0.2033  0.1694
    4CHTO   C49 1512   7.102   7.156   0.309  0.0211 -0.0081  0.0341
    4CHTO   H91 1513   6.993   7.158   0.314  0.0717  2.0956  0.9690
    4CHTO   C47 1514   7.144   7.083   0.437 -0.3400  0.2329 -0.4066
    4CHTO   H89 1515   7.089   6.987   0.424 -3.0356  1.5488  1.1483
    4CHTO   O33 1516   7.103   7.150   0.555  0.2447  0.1133 -0.0337
    4CHTO   H70 1517   7.161   7.219   0.580  0.4674  0.0688 -0.4307
    4CHTO   C45 1518   7.304   7.058   0.419 -0.4698 -0.0468 -0.2070
    4CHTO   H87 1519   7.355   7.154   0.402 -0.5706 -0.3242 -2.3162
    4CHTO    N8 1520   7.361   6.995   0.543 -0.3097 -0.8861 -0.0372
    4CHTO   H75 1521   7.364   6.887   0.529 -0.8328 -0.9000 -0.0547
    4CHTO   H76 1522   7.309   7.021   0.633 -1.4706  1.4050 -1.3255
    4CHTO   C43 1523   7.349   6.982   0.283 -0.1366  0.0059 -0.1802
    4CHTO   H85 1524   7.458   6.991   0.282 -0.2323  1.5215  1.2513
    4CHTO   O29 1525   7.286   7.043   0.167 -0.3016  0.5249 -0.3073
    4CHTO   C50 1526   7.149   7.084   0.183  0.2859 -0.0250  0.0040
    4CHTO   H92 1527   7.125   7.150   0.098  4.8274  0.6947 -0.8512
    4CHTO   C54 1528   7.056   6.960   0.149 -0.5872  0.3800 -0.0495
    4CHTO   O36 1529   7.048   6.929   0.012  0.0054 -0.0230 -0.6575
    4CHTO   H72 1530   7.128   6.883  -0.005 -0.2057  0.2453 -2.4133
    4CHTO   O27 1531   7.321   6.844   0.291  0.9282 -0.6388  0.9927
    4CHTO   C37 1532   7.357   6.708   0.251  0.9731  0.5781  0.1123
    4CHTO   H79 1533   7.288   6.682   0.170  0.7081  0.8148  0.2632
    4CHTO   C38 1534   7.510   6.710   0.207 -0.0371 -0.4423  0.2033
    4CHTO   H80 1535   7.573   6.739   0.293  0.0045 -0.1265  0.0671
    4CHTO   O31 1536   7.525   6.811   0.106 -0.0563  0.5097  0.1423
    4CHTO   H68 1537   7.617   6.823   0.091  0.3342 -2.0802  0.1978
    4CHTO   C39 1538   7.556   6.563   0.162  0.4115 -0.3281 -0.8914
    4CHTO   H81 1539   7.482   6.532   0.088 -0.5206  0.3730 -0.2808
    4CHTO    N7 1540   7.695   6.557   0.099 -0.2192 -0.4804 -0.4099
    4CHTO   H73 1541   7.697   6.613   0.006 -1.0542  0.4354  0.1226
    4CHTO   H74 1542   7.714   6.458   0.062  1.6857  0.2544 -1.5280
    4CHTO   C40 1543   7.536   6.460   0.283  0.0268 -0.5592  0.6570
    4CHTO   H82 1544   7.608   6.486   0.360 -0.1111  0.6821  0.3830
    4CHTO   O26 1545   7.403   6.470   0.330 -0.0148 -0.1035  0.3453
    4CHTO   C41 1546   7.348   6.602   0.366 -0.2485  0.7972 -0.2417
    4CHTO   H83 1547   7.402   6.635   0.456 -1.7291  2.0704  0.2101
    4CHTO   C52 1548   7.202   6.570   0.408 -0.1396  0.0274 -0.5576
    4CHTO   O35 1549   7.130   6.659   0.406  0.0139  0.7557  0.0901
    4CHTO   H71 1550   7.122   6.685   0.496 -2.3692 -0.4976  0.2942
    4CHTO   O28 1551   7.545   6.324   0.250 -0.8725  0.2220  0.5206
    4CHTO   C42 1552   7.607   6.230   0.342 -0.1888  1.1493 -0.5142
    4CHTO   H84 1553   7.633   6.287   0.431 -0.1357  2.0823 -1.1215
    4CHTO   C44 1554   7.743   6.163   0.294  0.2138 -0.0400  0.3972
    4CHTO   H86 1555   7.725   6.091   0.215  1.9389 -0.0918  0.0333
    4CHTO   O32 1556   7.840   6.257   0.235 -0.1949  0.8987 -0.0816
    4CHTO   H69 1557   7.799   6.308   0.167 -0.0005  2.1448  0.7109
    4CHTO   C48 1558   7.800   6.091   0.424  0.1991  0.7241  0.1408
    4CHTO   H90 1559   7.824   6.172   0.493  1.2133  0.0801  0.5543
    4CHTO    N9 1560   7.929   6.021   0.393 -0.1261 -0.4202  0.0463
    4CHTO   H77 1561   7.926   5.988   0.290  0.6849  0.5414 -0.2942
    4CHTO   H78 1562   8.011   6.085   0.422  0.3958 -0.4740 -1.2390
    4CHTO   C51 1563   7.692   5.985   0.465 -0.6379  0.1775 -0.3067
    4CHTO   H93 1564   7.678   5.920   0.378 -0.1407  0.0995 -0.3310
    4CHTO   O30 1565   7.568   6.049   0.506  0.8069  0.0446 -0.2714
    4CHTO   C46 1566   7.509   6.113   0.388 -0.5239 -0.4437  0.0628
    4CHTO   H88 1567   7.502   6.032   0.316 -1.1599  0.1806 -0.5863
    4CHTO   C53 1568   7.370   6.162   0.416  0.2547  0.2535 -0.3827
    4CHTO   O72 1569   7.353   6.260   0.519  0.3286 -0.1880 -0.3871
    4CHTO  H199 1570   7.362   6.345   0.479 -0.2581  0.2130  0.3284
    4CHTO   O22 1571   7.731   5.907   0.585 -0.3722  0.4370  0.0621
    4CHTO   C31 1572   7.703   5.940   0.729  0.5859  0.0330  0.1875
    4CHTO   H59 1573   7.656   6.041   0.728 -1.2897 -0.8222 -0.1861
    4CHTO   C29 1574   7.601   5.845   0.797  0.5471 -0.0217  0.5019
    4CHTO   H57 1575   7.643   5.744   0.785  1.7932  0.5044  0.3476
    4CHTO   O21 1576   7.480   5.843   0.721  0.2688 -0.2722 -0.5093
    4CHTO   H37 1577   7.487   5.821   0.630 -1.2259 -2.1751 -0.2082
    4CHTO   C27 1578   7.579   5.878   0.953  0.2905 -0.4862 -0.5397
    4CHTO   H55 1579   7.525   5.974   0.962 -1.1544 -1.3898  0.6221
    4CHTO    N5 1580   7.505   5.769   1.025  0.3127 -0.1242  0.1580
    4CHTO   H43 1581   7.399   5.787   1.018  0.3296  0.0193  0.2660
    4CHTO   H44 1582   7.520   5.668   0.988  0.4355 -0.2903  0.6586
    4CHTO   C25 1583   7.723   5.910   1.027  0.1774  0.4330 -0.1860
    4CHTO   H53 1584   7.777   5.814   1.036  0.0020  0.2001 -1.4588
    4CHTO   O17 1585   7.804   5.996   0.945 -0.0269  0.1569 -0.0728
    4CHTO   C32 1586   7.829   5.955   0.811  0.6387  0.1462 -0.4007
    4CHTO   H60 1587   7.883   5.861   0.820 -1.4365 -1.0841 -0.3341
    4CHTO   C36 1588   7.931   6.066   0.753  0.0594 -0.2276 -0.3586
    4CHTO   O25 1589   7.876   6.197   0.757  0.4013  0.1268  0.2614
    4CHTO   H40 1590   7.912   6.238   0.680 -1.7056  0.4166 -0.6221
    4CHTO   O15 1591   7.691   6.002   1.161  0.3786 -0.1467 -0.0979
    4CHTO   C19 1592   7.642   6.103   1.259 -0.7482  0.3497 -0.1166
    4CHTO   H47 1593   7.539   6.065   1.275 -0.2630 -0.1971  2.0130
    4CHTO   C20 1594   7.710   6.095   1.402 -0.0499 -0.2152  0.1743
    4CHTO   H48 1595   7.820   6.099   1.394 -0.1929  1.0981 -1.5561
    4CHTO   O19 1596   7.691   5.965   1.463 -0.5568  0.4303  0.0135
    4CHTO   H35 1597   7.738   5.957   1.543  1.6448 -0.0650 -1.2799
    4CHTO   C21 1598   7.652   6.206   1.500 -0.4816 -0.6607  0.1047
    4CHTO   H49 1599   7.550   6.177   1.525 -1.5403  0.1365 -3.1266
    4CHTO    N4 1600   7.737   6.202   1.625  0.0302  0.1335 -0.3388
    4CHTO   H41 1601   7.821   6.270   1.624 -1.1299  1.5861 -0.2618
    4CHTO   H42 1602   7.684   6.216   1.717  1.6285 -1.4636  0.8787
    4CHTO   C22 1603   7.641   6.346   1.433  0.2066  0.7813 -0.4180
    4CHTO   H50 1604   7.741   6.388   1.418  0.8170 -1.1435 -1.8927
    4CHTO   O14 1605   7.565   6.320   1.320  0.0954  0.5254 -0.6570
    4CHTO   C23 1606   7.632   6.251   1.216  0.3419  0.3308 -0.1191
    4CHTO   H51 1607   7.726   6.295   1.179 -1.3667  2.6343 -1.8322
    4CHTO   C34 1608   7.536   6.258   1.099 -0.6496  0.3766  0.6652
    4CHTO   O23 1609   7.598   6.235   0.968 -0.6446 -0.0157  0.1878
    4CHTO   H38 1610   7.627   6.146   0.969  0.5252  0.3445  2.3320
    4CHTO   O16 1611   7.563   6.434   1.515  0.3949  0.0958 -0.0904
    4CHTO   C24 1612   7.513   6.582   1.439 -0.0623 -0.7628 -0.7760
    4CHTO   H52 1613   7.464   6.564   1.344 -3.8084 -0.1659  0.9399
    4CHTO   C26 1614   7.626   6.684   1.409  0.4791  0.0726  0.6664
    4CHTO   H54 1615   7.685   6.709   1.500  1.7100  1.5570 -0.5192
    4CHTO   O20 1616   7.723   6.616   1.321  0.2734 -0.1820 -0.1291
    4CHTO   H36 1617   7.811   6.649   1.324 -0.7727  3.0400 -2.5629
    4CHTO   C30 1618   7.558   6.815   1.350  0.4104  0.0426 -0.0190
    4CHTO   H58 1619   7.499   6.794   1.260 -1.5822  1.6347  0.8860
    4CHTO    N6 1620   7.658   6.910   1.306 -0.0523  0.0967 -0.1637
    4CHTO   H45 1621   7.658   7.011   1.344 -0.8316 -0.3709  1.0853
    4CHTO   H46 1622   7.758   6.878   1.280 -1.2882 -2.9796 -1.2767
    4CHTO   C33 1623   7.460   6.869   1.446 -0.5401 -0.1407 -0.2350
    4CHTO   H61 1624   7.502   6.882   1.547 -0.5454 -0.1359 -0.2334
    4CHTO   O18 1625   7.363   6.769   1.463  0.1671  0.4938  0.6170
    4CHTO   C28 1626   7.407   6.647   1.528 -0.5560  0.6029  0.0213
    4CHTO   H56 1627   7.459   6.675   1.619  1.1821 -0.9306 -0.4782
    4CHTO   C35 1628   7.289   6.551   1.548 -0.3679 -0.3687  0.3195
    4CHTO   O24 1629   7.205   6.622   1.639 -0.0502 -0.4489 -0.4196
    4CHTO   H39 1630   7.119   6.630   1.603 -0.0312 -0.4534 -0.4656
    4CHTO    O9 1631   7.400   7.001   1.416  0.4096  0.0329  0.1250
    4CHTO   C13 1632   7.282   7.064   1.489 -0.7928  0.9676  0.4877
    4CHTO   H26 1633   7.201   6.989   1.491 -0.0464  0.0553 -1.5235
    4CHTO   C11 1634   7.236   7.184   1.408 -0.4541 -0.1631 -0.3783
    4CHTO   H24 1635   7.180   7.145   1.322  1.1482 -0.7204 -1.2077
    4CHTO    O8 1636   7.346   7.255   1.352 -0.5631 -0.0185  0.0357
    4CHTO    H3 1637   7.319   7.341   1.326  0.6374  0.6144  0.8337
    4CHTO    C9 1638   7.130   7.258   1.486  0.5642  0.2265  0.0660
    4CHTO   H22 1639   7.050   7.187   1.513  1.8876 -1.4387 -0.3592
    4CHTO    N2 1640   7.053   7.357   1.410 -0.3743 -0.3425 -0.2048
    4CHTO   H10 1641   7.053   7.455   1.456  0.3354  0.4299 -1.8050
    4CHTO   H11 1642   6.952   7.334   1.380 -0.9065 -1.3631  2.2316
    4CHTO    C7 1643   7.189   7.305   1.620 -0.6715 -0.4637  0.3183
    4CHTO   H20 1644   7.102   7.349   1.673 -0.2494 -0.1013  0.7109
    4CHTO    O4 1645   7.226   7.195   1.710  0.2959  0.4259 -0.5459
    4CHTO   C14 1646   7.325   7.103   1.641 -0.1332  0.5458 -0.2905
    4CHTO   H27 1647   7.321   7.008   1.698 -1.5688  0.6460 -0.1959
    4CHTO   C18 1648   7.468   7.166   1.654 -0.2390  0.0956 -0.1095
    4CHTO   O13 1649   7.521   7.171   1.785  0.3613 -0.6053 -0.0952
    4CHTO    H7 1650   7.493   7.250   1.826 -2.0605 -1.4153 -0.0968
    4CHTO    O2 1651   7.325   7.425   1.609  0.2747 -0.3831  0.0265
    4CHTO    C1 1652   7.285   7.555   1.648 -0.2486  0.0712  0.1323
    4CHTO   H14 1653   7.174   7.559   1.645 -0.2411  0.4409  0.2556
    4CHTO    C2 1654   7.338   7.669   1.554  0.1467 -0.2479  0.4862
    4CHTO   H15 1655   7.448   7.663   1.545  0.1138  0.9231 -0.9142
    4CHTO    O6 1656   7.290   7.649   1.419  0.2662  0.3785 -0.6180
    4CHTO    H1 1657   7.330   7.567   1.395 -1.3019  0.0097 -2.0086
    4CHTO    C3 1658   7.299   7.820   1.600 -0.2164 -0.0153 -0.2445
    4CHTO   H16 1659   7.195   7.844   1.574 -0.2281  2.1447  1.5919
    4CHTO    N1 1660   7.374   7.929   1.533  0.0367  0.1313 -0.0863
    4CHTO    H8 1661   7.353   8.023   1.582  0.6251  1.1510 -1.7475
    4CHTO    H9 1662   7.480   7.909   1.530  0.3930  1.8391  0.4400
    4CHTO    C4 1663   7.320   7.827   1.761 -0.1140  0.6578 -0.0519
    4CHTO   H17 1664   7.428   7.827   1.780 -0.2052  0.4172  0.4775
    4CHTO    O1 1665   7.264   7.714   1.829  0.1831  0.1729 -0.1113
    4CHTO    C5 1666   7.322   7.586   1.798  1.2448  0.2181  0.3276
    4CHTO   H18 1667   7.431   7.590   1.799  1.3288 -0.9706 -1.5796
    4CHTO   C16 1668   7.272   7.483   1.904  0.1968  0.2895  0.0481
    4CHTO   O11 1669   7.127   7.491   1.911  0.4286 -0.0872  0.4398
    4CHTO    H5 1670   7.104   7.582   1.904  1.7131  0.0811 -2.0347
    4CHTO    O3 1671   7.259   7.938   1.827 -0.3187  0.0594  0.2912
    4CHTO    C6 1672   7.323   7.983   1.948  0.3023  0.1702  0.1010
    4CHTO   H19 1673   7.419   7.933   1.966 -0.5038 -1.6788 -0.6662
    4CHTO    C8 1674   7.360   8.134   1.934  0.0994  0.1527  0.3034
    4CHTO   H21 1675   7.275   8.192   1.899  0.0351  0.1231  0.4101
    4CHTO    O7 1676   7.468   8.145   1.839  0.7627 -0.4419  0.3929
    4CHTO    H2 1677   7.477   8.230   1.799 -3.7869  1.2332  2.5475
    4CHTO   C12 1678   7.404   8.195   2.070 -0.0514 -0.2044  0.2579
    4CHTO   H25 1679   7.502   8.149   2.094 -0.6788 -1.4314  0.4778
    4CHTO    N3 1680   7.430   8.343   2.053 -0.9230 -0.1056 -0.2245
    4CHTO   H12 1681   7.457   8.390   2.146 -0.9593  0.7428 -0.6388
    4CHTO   H13 1682   7.505   8.368   1.979  0.5970 -1.8095  0.6989
    4CHTO   C15 1683   7.301   8.162   2.172  0.2077  0.4270 -0.5510
    4CHTO   H28 1684   7.204   8.204   2.148  1.2225  2.7046 -0.7642
    4CHTO   O10 1685   7.346   8.191   2.327 -0.6666  0.3772 -0.1825
    4CHTO    H4 1686   7.271   8.195   2.383 -1.3194 -1.8150 -0.8341
    4CHTO    O5 1687   7.286   8.016   2.183 -0.5495 -0.8038 -0.3719
    4CHTO   C10 1688   7.232   7.951   2.067 -0.4778  0.3930 -0.0899
    4CHTO   H23 1689   7.136   8.000   2.053 -2.3734 -3.4157 -0.9464
    4CHTO   C17 1690   7.219   7.809   2.114  0.0243 -0.6939 -0.2189
    4CHTO   O12 1691   7.343   7.763   2.178 -0.4604  0.1210 -0.5722
    4CHTO    H6 1692   7.323   7.695   2.239 -0.3057  0.2893 -0.3316
    5CHTO  H203 1693   7.899   4.450   0.878  3.3380  0.9473  0.7091
    5CHTO   O82 1694   7.934   4.373   0.837 -0.0505 -0.1008 -0.3884
    5CHTO  C123 1695   7.902   4.245   0.898 -0.1650  1.0522 -0.1193
    5CHTO  H227 1696   7.901   4.165   0.823 -2.0817 -0.0907  1.0622
    5CHTO   O77 1697   8.007   4.210   0.997 -0.1834 -0.2103  0.0934
    5CHTO  C118 1698   7.993   4.083   1.059 -0.8148  0.1412 -0.3280
    5CHTO  H222 1699   7.989   4.009   0.978  0.0242  1.6743 -1.7952
    5CHTO  C125 1700   8.125   4.057   1.145  0.7298  0.2149 -0.9770
    5CHTO   O84 1701   8.127   3.920   1.189 -0.0195 -0.2279 -0.0777
    5CHTO  H205 1702   8.150   3.862   1.118 -1.0927  0.3778 -0.9491
    5CHTO  C114 1703   7.865   4.085   1.148 -0.9458 -0.4237  0.0134
    5CHTO  H218 1704   7.882   4.162   1.223  3.3306 -0.0580 -1.2300
    5CHTO  C116 1705   7.744   4.124   1.059  1.1564 -0.2808 -0.1727
    5CHTO  H220 1706   7.714   4.039   0.995 -0.5546 -0.0673  0.3179
    5CHTO   O79 1707   7.625   4.148   1.136  0.1737 -0.5181  0.3281
    5CHTO  H201 1708   7.591   4.063   1.156  0.1980 -0.0257  2.6045
    5CHTO  C120 1709   7.768   4.254   0.968 -0.2792  0.6994  0.6514
    5CHTO  H224 1710   7.777   4.342   1.037 -0.8859  0.8373  0.5574
    5CHTO   N21 1711   7.655   4.279   0.871  0.2612  0.5592  0.0428
    5CHTO  H211 1712   7.658   4.385   0.851 -0.7394  0.6671  0.4426
    5CHTO  H212 1713   7.638   4.210   0.790  0.6017  0.2539  0.2277
    5CHTO   O75 1714   7.860   3.953   1.200 -0.5899  0.3090 -0.3357
    5CHTO  C112 1715   7.744   3.929   1.330  0.4575  0.3023  0.4367
    5CHTO  H216 1716   7.641   3.936   1.291  0.3580 -0.0316  0.6349
    5CHTO   O73 1717   7.766   4.019   1.434  0.4447 -0.4627  0.1048
    5CHTO  C113 1718   7.665   4.012   1.536  0.1595  0.1354  0.1726
    5CHTO  H217 1719   7.563   4.020   1.492  0.0193 -2.3408 -0.0251
    5CHTO  C124 1720   7.665   4.138   1.622  0.2761 -0.3542  0.4945
    5CHTO   O83 1721   7.787   4.169   1.692  0.4007 -0.4996  0.3598
    5CHTO  H204 1722   7.864   4.167   1.638  0.3763  2.2213  0.1457
    5CHTO  C109 1723   7.671   3.883   1.615 -0.5647 -0.0449 -0.4331
    5CHTO  H213 1724   7.769   3.883   1.665 -1.3037  0.3086  1.0499
    5CHTO  C110 1725   7.671   3.761   1.513 -0.0246 -0.3091 -0.2746
    5CHTO  H214 1726   7.567   3.746   1.482 -0.3715  1.4172  0.0224
    5CHTO   O78 1727   7.719   3.652   1.586  0.0631  0.2265 -0.0617
    5CHTO  H200 1728   7.732   3.582   1.526 -0.8979 -0.7672  0.8710
    5CHTO  C111 1729   7.761   3.784   1.390  0.9012 -0.7410 -0.0378
    5CHTO  H215 1730   7.867   3.774   1.419  1.1347  2.7780  0.5440
    5CHTO   N19 1731   7.735   3.682   1.285  0.6391 -0.7534 -0.0449
    5CHTO  H207 1732   7.818   3.690   1.216  0.4349  0.1786 -0.1913
    5CHTO  H208 1733   7.642   3.694   1.231 -0.2914 -1.4408  1.3665
    5CHTO   O74 1734   7.565   3.882   1.718  0.2188  0.5867 -0.4582
    5CHTO  C115 1735   7.620   3.812   1.857 -0.3397  0.0789  0.2677
    5CHTO  H219 1736   7.722   3.778   1.843  0.1623  2.0117 -0.9749
    5CHTO   O76 1737   7.627   3.903   1.961  0.1429  0.1386 -0.7483
    5CHTO  C122 1738   7.502   3.970   1.995  0.4315  0.7143 -0.6957
    5CHTO  H226 1739   7.494   4.059   1.932  1.3262  1.3967  0.1294
    5CHTO  C126 1740   7.526   4.028   2.141 -0.2402  0.2448  0.6172
    5CHTO   O85 1741   7.644   4.105   2.143  0.0049 -0.5775 -0.6773
    5CHTO  H206 1742   7.643   4.175   2.080 -2.0066 -1.0972 -1.2627
    5CHTO  C121 1743   7.375   3.878   2.002 -0.1837  0.0826  0.4252
    5CHTO  H225 1744   7.318   3.893   2.096  1.2113 -2.5704  1.7821
    5CHTO   O81 1745   7.297   3.918   1.889  0.2891  0.3114  0.2266
    5CHTO  H202 1746   7.346   3.908   1.809  1.2188  1.0280  0.6984
    5CHTO  C119 1747   7.412   3.729   1.994 -0.8475 -1.1295  0.6977
    5CHTO  H223 1748   7.465   3.717   2.089 -0.1812 -1.5425  0.2787
    5CHTO  C117 1749   7.516   3.695   1.883 -0.0580  0.1966  0.6959
    5CHTO  H221 1750   7.469   3.676   1.787 -2.6629  0.1643  1.9514
    5CHTO   N20 1751   7.584   3.566   1.916 -0.6424 -0.0105  0.0427
    5CHTO  H209 1752   7.667   3.587   1.981  0.5874 -0.2544 -1.4193
    5CHTO  H210 1753   7.508   3.492   1.934  1.6000 -2.2580  0.5532
    5CHTO   O80 1754   7.288   3.626   2.009  0.0095  0.0423  0.3541
    5CHTO  C103 1755   7.176   3.631   1.885  0.0533  1.1725  0.7129
    5CHTO  H190 1756   7.178   3.724   1.830 -3.0404  0.7656 -0.2011
    5CHTO  C101 1757   7.194   3.525   1.779  0.0533  0.8020  0.1319
    5CHTO  H188 1758   7.198   3.423   1.817 -2.3814  0.9855  0.9222
    5CHTO   O68 1759   7.286   3.545   1.713 -0.4677  0.5450 -0.7329
    5CHTO  H168 1760   7.363   3.543   1.766  0.6601  4.2327 -2.0681
    5CHTO   C99 1761   7.060   3.518   1.683  0.7171  0.0841 -0.2805
    5CHTO  H186 1762   7.054   3.620   1.640 -1.9158  0.9234  1.9479
    5CHTO   N17 1763   7.068   3.409   1.575 -0.0896  0.3246  0.7840
    5CHTO  H174 1764   7.015   3.318   1.599  2.1015 -1.6377 -1.4627
    5CHTO  H175 1765   7.175   3.396   1.568  0.4064  4.6125 -2.0712
    5CHTO   C97 1766   6.931   3.500   1.771 -0.3204  0.3625  0.4769
    5CHTO  H184 1767   6.946   3.402   1.819  1.9838  1.1629  1.4798
    5CHTO   O64 1768   6.925   3.610   1.866 -0.1053  0.4788 -0.4189
    5CHTO  C104 1769   7.037   3.621   1.957 -0.0623 -0.0804 -0.1537
    5CHTO  H191 1770   7.035   3.542   2.033  0.6726  0.2996  0.2656
    5CHTO  C108 1771   7.021   3.746   2.039 -0.3131  0.5211 -0.2478
    5CHTO   O71 1772   6.988   3.864   1.961 -0.5538 -0.1378  0.3810
    5CHTO  H171 1773   7.064   3.913   1.935 -0.7303 -1.1738 -2.2522
    5CHTO   O62 1774   6.807   3.506   1.695 -0.4663  0.3581  0.0385
    5CHTO   C91 1775   6.686   3.488   1.775 -0.6550 -0.4932 -0.7519
    5CHTO  H178 1776   6.717   3.477   1.879 -3.4304 -0.9240  0.0818
    5CHTO   C92 1777   6.613   3.361   1.728 -0.3408 -0.4107 -0.1122
    5CHTO  H179 1778   6.605   3.369   1.618 -2.2755 -0.3436  0.0202
    5CHTO   O66 1779   6.700   3.251   1.751 -0.1185  0.1831  0.0914
    5CHTO  H166 1780   6.778   3.250   1.700  1.1862 -0.2838  2.0103
    5CHTO   C93 1781   6.473   3.328   1.786  0.6875 -0.5725 -0.0646
    5CHTO  H180 1782   6.487   3.316   1.895 -1.2626 -1.3293  0.1155
    5CHTO   N16 1783   6.393   3.207   1.749  0.0942  0.1075  0.1652
    5CHTO  H172 1784   6.297   3.238   1.710  0.4902  0.5546 -0.4695
    5CHTO  H173 1785   6.436   3.150   1.669  0.3655 -1.1818  1.2175
    5CHTO   C94 1786   6.385   3.461   1.766 -0.0162 -0.3144  0.1087
    5CHTO  H181 1787   6.383   3.488   1.660  1.1779 -0.0649  0.1460
    5CHTO   O61 1788   6.450   3.574   1.829 -0.5023  0.3332  0.5692
    5CHTO   C95 1789   6.578   3.616   1.777  0.1724  0.2149 -0.0869
    5CHTO  H182 1790   6.567   3.660   1.678  0.0805  0.5021  0.0494
    5CHTO  C106 1791   6.612   3.743   1.866 -0.7150  0.2176  0.4470
    5CHTO   O69 1792   6.628   3.717   2.008 -0.0120  0.3260  0.2186
    5CHTO  H169 1793   6.551   3.690   2.053 -0.9403  0.9347 -0.9933
    5CHTO   O63 1794   6.221   3.451   1.828 -0.1602  0.5622 -0.3130
    5CHTO   C96 1795   6.118   3.411   1.715 -0.7774 -1.3569  0.0791
    5CHTO  H183 1796   6.177   3.375   1.631  0.8085 -0.1629  0.6604
    5CHTO   C98 1797   6.042   3.536   1.658  0.3728  0.3752  0.6014
    5CHTO  H185 1798   5.980   3.586   1.734 -0.9443 -0.3732  0.0507
    5CHTO   O67 1799   6.136   3.638   1.606 -0.5987  0.6320 -0.3092
    5CHTO  H167 1800   6.105   3.725   1.626 -0.2191  1.1321 -1.8017
    5CHTO  C102 1801   5.949   3.496   1.539 -0.0209  0.5675 -0.0423
    5CHTO  H189 1802   6.016   3.466   1.456  1.5646  0.2951  1.3061
    5CHTO   N18 1803   5.866   3.605   1.489 -0.1636 -0.2021 -0.2375
    5CHTO  H176 1804   5.852   3.689   1.556 -0.1459 -0.5960  0.2723
    5CHTO  H177 1805   5.890   3.624   1.386 -1.5448  0.0744 -0.5126
    5CHTO  C105 1806   5.865   3.373   1.570 -0.3613  0.6137 -0.3115
    5CHTO  H192 1807   5.784   3.396   1.639 -1.3536 -1.5460 -0.6843
    5CHTO   O65 1808   5.940   3.262   1.628 -1.0313  0.5663  0.1893
    5CHTO  C100 1809   6.003   3.310   1.755  0.9461  0.0957  0.3949
    5CHTO  H187 1810   5.930   3.361   1.819  1.2072 -0.1136  0.8559
    5CHTO  C107 1811   6.041   3.177   1.834  0.0391 -0.2766 -0.2968
    5CHTO   O70 1812   6.068   3.211   1.969  0.4379  0.4075 -0.6030
    5CHTO  H170 1813   6.099   3.138   2.019  0.4650  0.4491 -0.5596
    5CHTO   O57 1814   5.813   3.324   1.445  0.2480  0.1894 -0.0238
    5CHTO   C85 1815   5.682   3.265   1.432 -0.8072  0.4024 -0.7302
    5CHTO  H157 1816   5.604   3.318   1.491 -1.3846 -1.3092  0.0723
    5CHTO   C83 1817   5.682   3.112   1.485  0.2823  0.3822  0.4085
    5CHTO  H155 1818   5.696   3.111   1.593 -0.9422  2.6833  0.6042
    5CHTO   O56 1819   5.793   3.039   1.431 -0.0551  0.4830  0.3863
    5CHTO  H135 1820   5.871   3.054   1.480  0.9881 -1.4936 -0.5885
    5CHTO   C81 1821   5.544   3.045   1.457  0.2285 -0.5314 -0.1623
    5CHTO  H153 1822   5.466   3.109   1.499  0.6433 -1.2396  1.7519
    5CHTO   N14 1823   5.522   2.920   1.535 -0.0603  0.1888  0.2575
    5CHTO  H141 1824   5.532   2.841   1.464  0.3717  0.1799  0.3282
    5CHTO  H142 1825   5.424   2.910   1.579 -0.8406  2.5271 -0.8742
    5CHTO   C79 1826   5.526   3.032   1.301  0.6576 -0.2872 -0.4809
    5CHTO  H151 1827   5.422   3.000   1.289  0.6122 -0.4023  0.2006
    5CHTO   O52 1828   5.528   3.162   1.246 -0.2003 -0.2853 -0.0281
    5CHTO   C86 1829   5.644   3.251   1.278 -0.0793  0.1957 -0.2007
    5CHTO  H158 1830   5.728   3.212   1.217  3.1541  2.3778  2.6432
    5CHTO   C90 1831   5.616   3.387   1.211  0.2505 -0.0252  1.0300
    5CHTO   O60 1832   5.605   3.374   1.066  0.7697  0.0893 -0.1279
    5CHTO  H138 1833   5.544   3.436   1.029 -1.9976 -1.7621  1.1241
    5CHTO   O50 1834   5.624   2.946   1.230  0.2172 -0.0855 -0.6416
    5CHTO   C73 1835   5.663   2.846   1.131 -0.6260 -0.3390 -0.3772
    5CHTO  H145 1836   5.624   2.879   1.034  0.0936 -1.0224 -0.8999
    5CHTO   C74 1837   5.606   2.702   1.178 -0.0359 -0.1140 -0.3558
    5CHTO  H146 1838   5.498   2.696   1.200  0.0053 -4.2706 -0.8776
    5CHTO   O54 1839   5.616   2.608   1.067  0.3910 -0.0898 -0.2289
    5CHTO  H133 1840   5.568   2.639   0.993  2.0020  1.1429 -0.8008
    5CHTO   C75 1841   5.698   2.646   1.302 -0.0849  0.6869 -0.6455
    5CHTO  H147 1842   5.693   2.715   1.386 -0.4154  2.2878 -1.9584
    5CHTO   N13 1843   5.668   2.507   1.342 -0.0895 -0.2217  0.8600
    5CHTO  H139 1844   5.717   2.483   1.436  0.1311 -0.0396  0.7929
    5CHTO  H140 1845   5.676   2.428   1.270 -1.3451 -0.9881  1.5385
    5CHTO   C76 1846   5.852   2.660   1.262 -0.3284 -0.6145  0.1786
    5CHTO  H148 1847   5.867   2.602   1.171  0.3723  1.8373 -1.3147
    5CHTO   O49 1848   5.889   2.800   1.229  0.3497 -0.2542  0.1714
    5CHTO   C77 1849   5.813   2.850   1.116 -0.0361 -0.1049 -0.3458
    5CHTO  H149 1850   5.835   2.789   1.028 -0.1187  0.4235 -0.7357
    5CHTO   C88 1851   5.874   2.990   1.083  0.0465 -0.4176  0.0425
    5CHTO   O58 1852   5.803   3.065   0.976 -0.0451 -0.1860  0.1093
    5CHTO  H136 1853   5.858   3.136   0.947 -0.3483  0.2078  0.4898
    5CHTO   O51 1854   5.964   2.618   1.391  0.2425 -0.1988  0.2672
    5CHTO   C78 1855   6.111   2.643   1.345 -0.1969  0.3671 -0.6798
    5CHTO  H150 1856   6.120   2.707   1.255 -2.4803  0.1458 -1.0988
    5CHTO   C80 1857   6.184   2.510   1.315 -0.0796  0.0848 -0.6678
    5CHTO  H152 1858   6.166   2.440   1.399  0.1233  1.2316  0.3512
    5CHTO   O55 1859   6.123   2.476   1.187 -0.8018  0.1890 -0.4907
    5CHTO  H134 1860   6.147   2.391   1.156 -0.4124  0.9966 -2.5352
    5CHTO   C84 1861   6.338   2.523   1.287 -0.2077  0.2384 -0.3534
    5CHTO  H156 1862   6.350   2.588   1.200 -1.0350 -0.0451 -0.6831
    5CHTO   N15 1863   6.403   2.389   1.275 -0.1846 -0.0065 -0.4984
    5CHTO  H143 1864   6.336   2.310   1.248  1.1638 -1.0867 -0.7542
    5CHTO  H144 1865   6.470   2.399   1.193 -0.9313 -1.5507 -1.3055
    5CHTO   C87 1866   6.408   2.604   1.396 -0.9051  0.7744 -0.0706
    5CHTO  H159 1867   6.422   2.549   1.489 -0.8158  4.2494  2.0519
    5CHTO   O53 1868   6.326   2.734   1.412 -0.0983  0.4683 -0.1393
    5CHTO   C82 1869   6.193   2.712   1.455 -0.1516  0.6029  0.0417
    5CHTO  H154 1870   6.195   2.657   1.549  0.0674 -0.7990 -0.7668
    5CHTO   C89 1871   6.134   2.850   1.486 -0.4254 -0.6991 -0.2002
    5CHTO   O59 1872   6.141   2.940   1.376  0.1639 -0.4898 -0.2773
    5CHTO  H137 1873   6.219   2.989   1.391  0.5698 -1.5129  1.0752
    5CHTO   O45 1874   6.557   2.655   1.347 -0.0290  0.6775 -0.4942
    5CHTO   C67 1875   6.637   2.707   1.454 -0.8775  0.2065  0.5385
    5CHTO  H124 1876   6.575   2.736   1.538 -1.9203 -1.0917  0.2261
    5CHTO   C65 1877   6.735   2.598   1.496 -0.3397  0.6331  0.2043
    5CHTO  H122 1878   6.751   2.535   1.408 -0.4734 -1.2385  1.4917
    5CHTO   O44 1879   6.681   2.520   1.600  0.2810 -0.0757  0.6543
    5CHTO  H102 1880   6.663   2.576   1.673  2.4912  1.1389  0.3190
    5CHTO   C63 1881   6.881   2.659   1.524  0.5464  0.3535 -0.2890
    5CHTO  H120 1882   6.930   2.669   1.427 -0.1508  0.1579 -0.6684
    5CHTO   N11 1883   6.986   2.572   1.582  0.4508  0.0337 -0.6522
    5CHTO  H108 1884   7.066   2.637   1.612  0.1504  0.6398 -1.1519
    5CHTO  H109 1885   6.948   2.511   1.660 -1.0205  1.2348 -0.4113
    5CHTO   C61 1886   6.871   2.802   1.590  0.0863 -0.1310 -0.2215
    5CHTO  H118 1887   6.975   2.838   1.587 -0.1400  0.9269  2.8843
    5CHTO   O40 1888   6.792   2.896   1.516  0.7223  0.4586  0.0202
    5CHTO   C68 1889   6.707   2.846   1.407 -0.8647  0.1643  0.4574
    5CHTO  H125 1890   6.763   2.835   1.312 -3.0655  1.2785 -1.0346
    5CHTO   C72 1891   6.610   2.964   1.385  0.3544 -0.1259 -0.7497
    5CHTO   O48 1892   6.530   2.978   1.501 -0.0680  0.1988 -0.0587
    5CHTO  H105 1893   6.485   3.059   1.488 -0.0450  0.5056  1.6579
    5CHTO   O38 1894   6.824   2.780   1.726 -0.2685 -0.5414 -0.4051
    5CHTO   C55 1895   6.801   2.897   1.815 -0.5239  0.4767 -0.4480
    5CHTO  H112 1896   6.742   2.963   1.750  1.0232  0.5643 -1.7748
    5CHTO   C56 1897   6.932   2.965   1.857  0.7705  0.4078 -0.4035
    5CHTO  H113 1898   6.998   2.885   1.894 -0.1775 -1.7352 -3.1094
    5CHTO   O42 1899   6.989   3.020   1.736 -0.1400 -0.5397 -0.1083
    5CHTO  H100 1900   6.993   2.953   1.671 -0.3710  0.2284 -0.9291
    5CHTO   C57 1901   6.909   3.075   1.966 -0.3749  0.3126 -0.0653
    5CHTO  H114 1902   6.854   3.155   1.916 -3.4854 -1.4876  0.3733
    5CHTO   N10 1903   7.031   3.132   2.020 -0.3490  1.0883  0.3261
    5CHTO  H106 1904   7.116   3.065   2.020 -2.1589 -1.2645  0.3734
    5CHTO  H107 1905   7.019   3.182   2.115 -0.3896 -1.0862  1.5091
    5CHTO   C58 1906   6.815   3.019   2.079  0.1057  0.1253 -0.4164
    5CHTO  H115 1907   6.874   2.942   2.132  0.6309 -1.5658 -3.3294
    5CHTO   O37 1908   6.688   2.974   2.025  0.2494 -0.5303 -0.5967
    5CHTO   C59 1909   6.706   2.863   1.937  0.7986 -0.6567 -0.4640
    5CHTO  H116 1910   6.738   2.775   1.992 -0.6963 -0.9681 -0.0797
    5CHTO   C70 1911   6.565   2.824   1.892  0.4417  0.4012  0.1503
    5CHTO   O46 1912   6.558   2.712   1.808  0.2304 -0.0746 -0.5713
    5CHTO  H103 1913   6.561   2.628   1.850  1.0956  0.9581  1.5250
    5CHTO   O39 1914   6.764   3.140   2.192 -0.1738  0.1226 -0.1679
    5CHTO   C60 1915   6.654   3.220   2.153  0.1083 -0.1419 -0.6868
    5CHTO  H117 1916   6.656   3.228   2.044  1.3656  1.4520 -0.5674
    5CHTO   C62 1917   6.515   3.162   2.195 -0.8528 -0.0298 -0.5636
    5CHTO  H119 1918   6.501   3.075   2.127 -0.2206 -0.8551  0.3462
    5CHTO   O43 1919   6.524   3.128   2.338 -0.3951 -0.3712 -0.2279
    5CHTO  H101 1920   6.444   3.092   2.370 -0.0256  1.0282  2.4158
    5CHTO   C66 1921   6.393   3.265   2.160  1.1618 -0.0865 -0.0462
    5CHTO  H123 1922   6.372   3.268   2.053 -0.7247  1.2698  0.3455
    5CHTO   N12 1923   6.267   3.207   2.221 -0.6551  0.0403 -0.5415
    5CHTO  H110 1924   6.250   3.212   2.327 -1.1089  0.4780 -0.6344
    5CHTO  H111 1925   6.266   3.104   2.189  1.8600 -0.1436 -0.1956
    5CHTO   C69 1926   6.428   3.405   2.215  0.1499 -0.8232  0.4743
    5CHTO  H126 1927   6.432   3.417   2.326 -1.8446 -1.4789  0.6481
    5CHTO   O41 1928   6.562   3.450   2.149 -0.1815  0.0675 -0.3401
    5CHTO   C64 1929   6.672   3.368   2.211 -0.0412  0.1300 -0.6899
    5CHTO  H121 1930   6.655   3.375   2.320 -0.8082 -1.8244 -0.6615
    5CHTO   C71 1931   6.809   3.427   2.166  0.0362 -0.1683  0.3464
    5CHTO   O47 1932   6.834   3.559   2.219  0.0238  0.0163 -0.0934
    5CHTO  H104 1933   6.763   3.618   2.201 -1.5514 -1.9531 -0.5558
    5CHTO   O34 1934   6.302   3.522   2.181 -0.0302 -0.0264 -0.5788
    5CHTO   C49 1935   6.312   3.676   2.203 -0.0612 -0.3405  0.1014
    5CHTO   H91 1936   6.385   3.722   2.135  0.9797  0.8604  1.9624
    5CHTO   C47 1937   6.355   3.710   2.343  0.2917  0.2609  0.2623
    5CHTO   H89 1938   6.368   3.820   2.352  1.8991  0.0124  1.1021
    5CHTO   O33 1939   6.482   3.651   2.376 -0.5786 -0.0055 -0.3100
    5CHTO   H70 1940   6.529   3.688   2.448  0.5798 -2.9738  0.5395
    5CHTO   C45 1941   6.238   3.660   2.444  0.7300  0.7087  1.0516
    5CHTO   H87 1942   6.224   3.553   2.425  1.5997  0.7486  0.1782
    5CHTO    N8 1943   6.275   3.680   2.584  0.6474  0.9214  0.3808
    5CHTO   H75 1944   6.204   3.743   2.636 -2.3563 -0.4637 -1.9780
    5CHTO   H76 1945   6.374   3.725   2.586  0.5274  1.4435 -2.9223
    5CHTO   C43 1946   6.102   3.739   2.404  0.4416 -0.4953 -0.2933
    5CHTO   H85 1947   6.026   3.697   2.470  1.7626  1.3391  2.4776
    5CHTO   O29 1948   6.072   3.711   2.267  0.0787  0.0820 -0.1940
    5CHTO   C50 1949   6.177   3.739   2.174 -0.1517 -0.9727  0.4899
    5CHTO   H92 1950   6.148   3.706   2.073 -1.7718 -1.2873  1.0373
    5CHTO   C54 1951   6.193   3.888   2.154 -0.1799  0.4324  0.6556
    5CHTO   O36 1952   6.070   3.942   2.107  0.0722  0.1563  0.2201
    5CHTO   H72 1953   6.053   3.928   2.015  0.4564  0.6581  0.0688
    5CHTO   O27 1954   6.094   3.883   2.432 -0.5203  0.2092 -0.5602
    5CHTO   C37 1955   6.002   3.976   2.484  0.2437  0.4812  0.2354
    5CHTO   H79 1956   6.022   4.074   2.438  2.3620 -0.5063 -1.0420
    5CHTO   C38 1957   5.851   3.928   2.451 -0.0003  0.7042  0.8965
    5CHTO   H80 1958   5.843   3.824   2.487 -2.1035 -0.2193 -2.0838
    5CHTO   O31 1959   5.826   3.937   2.308  0.4086 -0.5764 -0.2985
    5CHTO   H68 1960   5.850   4.021   2.276 -3.2969  0.1611 -1.4783
    5CHTO   C39 1961   5.745   4.010   2.527  0.3697  0.2182  0.2793
    5CHTO   H81 1962   5.748   4.112   2.487 -0.4944  1.3460  2.9450
    5CHTO    N7 1963   5.603   3.952   2.504  0.0813 -0.4187  0.2942
    5CHTO   H73 1964   5.517   4.002   2.545  0.9379  0.8368  0.5935
    5CHTO   H74 1965   5.587   3.846   2.510  0.5967 -0.4729  0.7109
    5CHTO   C40 1966   5.784   4.042   2.676  0.7586  0.5608 -0.6186
    5CHTO   H82 1967   5.772   3.951   2.735 -1.8853  1.0826 -0.2997
    5CHTO   O26 1968   5.914   4.088   2.675  0.4555  0.6638 -0.0412
    5CHTO   C41 1969   6.015   3.992   2.636 -0.4150 -0.2798  0.1942
    5CHTO   H83 1970   6.007   3.900   2.696  0.9955  1.1967  2.6858
    5CHTO   C52 1971   6.157   4.042   2.670  0.9378  0.3590 -0.1855
    5CHTO   O35 1972   6.168   4.065   2.816 -0.0087  0.1178 -0.5012
    5CHTO   H71 1973   6.245   4.115   2.835 -1.2818  1.1626  2.0859
    5CHTO   O28 1974   5.699   4.149   2.726  0.4141 -0.4805 -0.3356
    5CHTO   C42 1975   5.663   4.181   2.859 -0.6110 -0.1764  0.0692
    5CHTO   H84 1976   5.602   4.269   2.842  2.4492  1.8098 -0.9621
    5CHTO   C44 1977   5.782   4.218   2.956 -0.0611 -0.2309  0.2915
    5CHTO   H86 1978   5.872   4.238   2.896  1.8142 -1.7597  2.4943
    5CHTO   O32 1979   5.738   4.333   3.029  0.0281 -0.0974 -0.0028
    5CHTO   H69 1980   5.670   4.381   2.984  0.6102  0.7529  0.0219
    5CHTO   C48 1981   5.824   4.106   3.070  0.5816 -0.1121 -0.6466
    5CHTO   H90 1982   5.757   4.104   3.156  0.6820 -2.9424 -0.5960
    5CHTO    N9 1983   5.966   4.117   3.127 -0.0770 -0.0026  0.2568
    5CHTO   H77 1984   5.971   4.071   3.224 -4.4439 -0.6739  0.2493
    5CHTO   H78 1985   6.040   4.088   3.053 -0.0257 -0.0977  0.3460
    5CHTO   C51 1986   5.790   3.959   3.007  0.0804 -0.4572  0.6010
    5CHTO   H93 1987   5.855   3.936   2.922 -0.7271 -2.1657  0.4275
    5CHTO   O30 1988   5.647   3.941   2.977  0.2932  0.1139 -0.2634
    5CHTO   C46 1989   5.568   4.078   2.922  0.4101 -0.5427 -0.4825
    5CHTO   H88 1990   5.505   4.046   2.838 -0.0943 -1.7690  0.3487
    5CHTO   C53 1991   5.483   4.131   3.051  0.4771  0.9450  0.1750
    5CHTO   O72 1992   5.407   4.017   3.100  0.2429 -0.7024  0.1797
    5CHTO  H199 1993   5.450   3.947   3.146 -0.8872 -1.1018  0.6527
    5CHTO   O22 1994   5.809   3.843   3.093  0.6759 -0.2744  0.0921
    5CHTO   C31 1995   5.850   3.713   3.036  0.1776  0.6495 -0.1471
    5CHTO   H59 1996   5.888   3.655   3.123  1.0915 -2.0572 -2.2772
    5CHTO   C29 1997   5.717   3.647   2.988  0.5895  0.8223  0.6071
    5CHTO   H57 1998   5.672   3.709   2.909  0.7115 -2.1486 -1.9178
    5CHTO   O21 1999   5.610   3.667   3.089 -0.0381  0.4714 -0.3125
    5CHTO   H37 2000   5.585   3.758   3.092 -0.1262  0.4378  0.0712
    5CHTO   C27 2001   5.739   3.503   2.935 -0.0870  0.0155 -0.0265
    5CHTO   H55 2002   5.764   3.439   3.022 -0.5493 -2.6538 -1.7842
    5CHTO    N5 2003   5.618   3.436   2.877  0.6705 -0.3423 -0.1508
    5CHTO   H43 2004   5.535   3.449   2.945  0.7201 -0.1948 -0.1179
    5CHTO   H44 2005   5.607   3.476   2.777  0.4717 -0.3808 -0.1432
    5CHTO   C25 2006   5.858   3.494   2.842 -0.7573  0.7007 -0.0392
    5CHTO   H53 2007   5.831   3.539   2.746  1.3740 -1.3574 -1.6601
    5CHTO   O17 2008   5.978   3.562   2.890  0.4520  0.5091  0.4518
    5CHTO   C32 2009   5.959   3.700   2.923 -0.0950  0.3911 -0.1032
    5CHTO   H60 2010   5.925   3.749   2.832  0.7101  1.3366  0.0997
    5CHTO   C36 2011   6.088   3.763   2.982 -0.0755 -0.4209  0.3697
    5CHTO   O25 2012   6.196   3.768   2.891 -0.1335  0.6582  0.3149
    5CHTO   H40 2013   6.241   3.687   2.881 -1.5220 -0.0719 -0.0389
    5CHTO   O15 2014   5.911   3.347   2.820  0.2420  0.2270 -0.3844
    5CHTO   C19 2015   6.003   3.251   2.875  0.1414  0.4198 -0.1930
    5CHTO   H47 2016   6.057   3.309   2.952  0.4216  0.3911 -0.3641
    5CHTO   C20 2017   5.944   3.127   2.949 -1.0396 -0.2490 -0.6590
    5CHTO   H48 2018   5.880   3.066   2.884  0.8557 -1.7368 -1.1792
    5CHTO   O19 2019   5.853   3.178   3.048 -0.0607 -0.1580 -0.1115
    5CHTO   H35 2020   5.770   3.208   3.017 -0.0193 -0.6395 -0.7010
    5CHTO   C21 2021   6.069   3.046   3.013 -0.1496  0.5763  0.6194
    5CHTO   H49 2022   6.109   3.115   3.087  1.4766  0.4995 -0.1684
    5CHTO    N4 2023   6.023   2.922   3.086  0.3005 -0.2672 -0.3369
    5CHTO   H41 2024   6.076   2.834   3.050  1.2751 -0.1267  0.7308
    5CHTO   H42 2025   5.916   2.909   3.079  0.0711  0.4436  1.5743
    5CHTO   C22 2026   6.170   3.022   2.898  0.4633 -0.5654  0.0354
    5CHTO   H50 2027   6.115   2.957   2.830 -0.9007  0.9696 -0.3462
    5CHTO   O14 2028   6.223   3.140   2.829  0.5041  0.0553 -0.4943
    5CHTO   C23 2029   6.111   3.211   2.768  0.5025  0.2989 -0.5763
    5CHTO   H51 2030   6.069   3.144   2.692  1.1769 -0.9878  0.1698
    5CHTO   C34 2031   6.168   3.339   2.710 -0.1512 -0.1294  0.5572
    5CHTO   O23 2032   6.221   3.320   2.580 -0.2418  0.4729 -0.0292
    5CHTO   H38 2033   6.257   3.234   2.590  1.1145  0.9222 -1.0060
    5CHTO   O16 2034   6.293   2.958   2.947 -0.1207 -1.0137 -0.1137
    5CHTO   C24 2035   6.369   2.868   2.846  0.0114  0.2531 -0.3681
    5CHTO   H52 2036   6.324   2.864   2.747  1.1477 -1.3628 -0.8262
    5CHTO   C26 2037   6.373   2.721   2.894 -0.0845 -0.6717  0.1378
    5CHTO   H54 2038   6.422   2.719   2.993  2.1019 -0.1720 -0.9022
    5CHTO   O20 2039   6.245   2.668   2.908 -0.7740 -0.0989 -0.1504
    5CHTO   H36 2040   6.205   2.705   2.984  1.8191 -0.3444  1.3898
    5CHTO   C30 2041   6.462   2.641   2.797 -0.3589 -0.2764  1.0332
    5CHTO   H58 2042   6.401   2.635   2.706 -0.0570  0.7135  0.7554
    5CHTO    N6 2043   6.477   2.494   2.843  0.2436 -0.1655 -0.1842
    5CHTO   H45 2044   6.563   2.439   2.809  1.4502  1.1557  0.6765
    5CHTO   H46 2045   6.386   2.444   2.815  0.7952 -0.5976 -1.2222
    5CHTO   C33 2046   6.602   2.710   2.779 -1.4272 -0.1940 -0.0866
    5CHTO   H61 2047   6.656   2.715   2.876 -0.9899  3.4747 -0.4451
    5CHTO   O18 2048   6.580   2.842   2.740 -0.2027 -0.2028  0.3240
    5CHTO   C28 2049   6.512   2.925   2.831 -0.6500 -0.6039 -0.6298
    5CHTO   H56 2050   6.560   2.917   2.929 -0.6972 -0.0679 -0.5587
    5CHTO   C35 2051   6.507   3.059   2.758  0.3146  0.0325  0.8141
    5CHTO   O24 2052   6.508   3.158   2.861 -0.5870 -0.2246 -0.0637
    5CHTO   H39 2053   6.595   3.190   2.879  0.0484 -0.3812 -2.5947
    5CHTO    O9 2054   6.692   2.641   2.692  0.4564  0.0769  0.1811
    5CHTO   C13 2055   6.663   2.643   2.524  0.3105 -0.5693 -0.0363
    5CHTO   H26 2056   6.555   2.652   2.500  0.3885  1.4515  0.2733
    5CHTO   C11 2057   6.725   2.499   2.473 -0.5767  0.3332 -0.1642
    5CHTO   H24 2058   6.659   2.421   2.514 -1.9820  2.0824  0.9864
    5CHTO    O8 2059   6.858   2.478   2.528  0.0499  0.1871 -1.0353
    5CHTO    H3 2060   6.889   2.394   2.500 -1.9459 -0.8521 -0.3011
    5CHTO    C9 2061   6.717   2.502   2.319  0.2181 -0.4906 -0.3876
    5CHTO   H22 2062   6.611   2.522   2.300  0.2658  0.7238  0.5418
    5CHTO    N2 2063   6.749   2.383   2.238 -0.2405 -0.0817  0.3322
    5CHTO   H10 2064   6.740   2.296   2.303 -2.4343  1.3279  2.0070
    5CHTO   H11 2065   6.683   2.373   2.153  0.2203  1.2818 -0.1832
    5CHTO    C7 2066   6.797   2.625   2.260 -0.1245  0.2351  0.2143
    5CHTO   H20 2067   6.757   2.643   2.157  0.2188  0.6519  0.1541
    5CHTO    O4 2068   6.761   2.744   2.323 -0.2078  1.0595 -0.1366
    5CHTO   C14 2069   6.738   2.764   2.462  0.0248  0.0040 -0.0816
    5CHTO   H27 2070   6.671   2.853   2.460  1.1398  0.8363 -0.9711
    5CHTO   C18 2071   6.865   2.801   2.550  0.1096  0.0396 -0.7402
    5CHTO   O13 2072   6.931   2.916   2.497 -0.4418 -0.1241 -0.2773
    5CHTO    H7 2073   6.888   2.998   2.515 -2.2621 -1.1216 -0.0258
    5CHTO    O2 2074   6.955   2.617   2.270  0.2075 -0.2327 -0.2604
    5CHTO    C1 2075   7.034   2.644   2.154  0.7473 -0.2595  0.8958
    5CHTO   H14 2076   6.991   2.728   2.096  1.4169 -0.7727 -0.3660
    5CHTO    C2 2077   7.062   2.526   2.052 -0.4327 -0.1917  0.6745
    5CHTO   H15 2078   7.092   2.444   2.119  1.1951  1.6232  2.2120
    5CHTO    O6 2079   6.937   2.494   1.985 -0.0172  0.2052  0.6170
    5CHTO    H1 2080   6.900   2.575   1.954 -0.3969  0.4359  1.6657
    5CHTO    C3 2081   7.183   2.558   1.953 -0.0665 -0.4394 -0.0977
    5CHTO   H16 2082   7.141   2.637   1.889  1.6544  0.6514  0.0913
    5CHTO    N1 2083   7.218   2.436   1.866 -0.3607 -0.1684 -0.0430
    5CHTO    H8 2084   7.155   2.353   1.894 -2.0436  0.8877 -0.6149
    5CHTO    H9 2085   7.324   2.417   1.857 -0.6842 -1.2504 -1.9126
    5CHTO    C4 2086   7.302   2.617   2.035 -0.1909 -0.3090 -0.6188
    5CHTO   H17 2087   7.334   2.547   2.112 -0.7375  1.2620  1.0584
    5CHTO    O1 2088   7.261   2.737   2.103 -0.2680 -0.3256  0.3231
    5CHTO    C5 2089   7.166   2.715   2.207  0.5717  0.2409 -0.2114
    5CHTO   H18 2090   7.205   2.651   2.286 -3.1829 -2.0157 -0.0860
    5CHTO   C16 2091   7.154   2.859   2.264  0.1158  0.6302 -0.2637
    5CHTO   O11 2092   7.263   2.915   2.340  0.3433 -0.0357 -0.0866
    5CHTO    H5 2093   7.246   2.897   2.431  2.0380  0.7188  0.4164
    5CHTO    O3 2094   7.414   2.656   1.947  0.5327  0.0556 -0.5549
    5CHTO    C6 2095   7.547   2.684   2.005  0.2007 -0.0362 -0.0798
    5CHTO   H19 2096   7.547   2.696   2.114 -0.7701 -1.3533  0.0716
    5CHTO    C8 2097   7.651   2.569   1.979  0.0493  0.5794 -0.7206
    5CHTO   H21 2098   7.652   2.552   1.871  1.2299 -1.3367 -0.4393
    5CHTO    O7 2099   7.610   2.448   2.045  0.3264  0.3069  0.6753
    5CHTO    H2 2100   7.640   2.372   1.999  0.2987  0.5845  0.2090
    5CHTO   C12 2101   7.797   2.612   2.030  0.5088 -0.6852  0.6152
    5CHTO   H25 2102   7.794   2.601   2.141  0.0547 -1.2375  0.5478
    5CHTO    N3 2103   7.909   2.515   1.987  0.3869 -0.2802 -0.4656
    5CHTO   H12 2104   7.963   2.477   2.072  1.1432 -0.4747 -1.0332
    5CHTO   H13 2105   7.864   2.438   1.926 -2.2466 -0.0819  1.1328
    5CHTO   C15 2106   7.831   2.761   1.994 -0.1530  0.1283 -0.4791
    5CHTO   H28 2107   7.879   2.774   1.897 -0.1609  1.8437 -0.2804
    5CHTO   O10 2108   7.931   2.814   2.096 -0.0279  0.2570 -0.1543
    5CHTO    H4 2109   7.993   2.878   2.068  2.5083 -1.4543  1.3689
    5CHTO    O5 2110   7.725   2.863   2.009  0.2539  0.2012 -0.6316
    5CHTO   C10 2111   7.609   2.818   1.945 -0.1307  0.5202 -0.2309
    5CHTO   H23 2112   7.624   2.814   1.837 -2.1952  0.0474 -0.5146
    5CHTO   C17 2113   7.509   2.931   1.960 -0.0969 -0.5507 -0.3999
    5CHTO   O12 2114   7.547   3.059   1.914 -0.2154 -0.2239  0.2057
    5CHTO    H6 2115   7.499   3.129   1.954 -1.2648 -1.6609  1.5230
    6CHTO  H203 2116   6.992   4.954   0.285  1.2675 -0.6551 -1.8622
    6CHTO   O82 2117   6.907   4.944   0.246  0.1774  0.1478  0.2331
    6CHTO  C123 2118   6.838   5.066   0.229 -0.5451  0.3702  0.8775
    6CHTO  H227 2119   6.884   5.122   0.146  1.4887  1.0881  2.4756
    6CHTO   O77 2120   6.705   5.025   0.187 -0.1334  0.2499  0.2059
    6CHTO  C118 2121   6.609   5.128   0.160 -0.3481 -0.7226  0.2039
    6CHTO  H222 2122   6.632   5.189   0.071 -1.6255  2.2680  1.8699
    6CHTO  C125 2123   6.481   5.045   0.138 -0.3433 -0.4399  0.6902
    6CHTO   O84 2124   6.447   4.969   0.258  0.3461  0.0419  0.5434
    6CHTO  H205 2125   6.372   4.915   0.243  0.5240  0.1383 -0.7505
    6CHTO  C114 2126   6.599   5.221   0.282  0.5209  0.4403  0.0613
    6CHTO  H218 2127   6.557   5.168   0.368  0.3624 -1.6571 -1.2750
    6CHTO  C116 2128   6.735   5.273   0.326  0.0000 -0.3189 -0.6701
    6CHTO  H220 2129   6.789   5.333   0.250 -1.2359 -0.1389 -1.4241
    6CHTO   O79 2130   6.714   5.356   0.439 -0.0159 -0.2487 -0.1504
    6CHTO  H201 2131   6.798   5.375   0.478  0.2690 -0.6076 -0.5863
    6CHTO  C120 2132   6.835   5.148   0.358  0.2166  0.3348  1.0804
    6CHTO  H224 2133   6.787   5.094   0.442 -1.4885  1.4451  0.8565
    6CHTO   N21 2134   6.972   5.203   0.396  0.6464  0.3830  0.5175
    6CHTO  H211 2135   7.041   5.122   0.374 -0.8529  0.1050 -3.6204
    6CHTO  H212 2136   6.965   5.213   0.504  0.8611  0.3345  0.5363
    6CHTO   O75 2137   6.513   5.331   0.241 -0.5594 -0.4864  0.8365
    6CHTO  C112 2138   6.402   5.381   0.337  0.3554 -0.3140 -0.2121
    6CHTO  H216 2139   6.435   5.357   0.439  0.2665 -1.6026 -0.4731
    6CHTO   O73 2140   6.290   5.305   0.302 -0.3224 -0.2074  0.3590
    6CHTO  C113 2141   6.161   5.330   0.363 -0.6414  0.1272 -0.6025
    6CHTO  H217 2142   6.169   5.314   0.472 -0.2616 -1.7024 -0.8939
    6CHTO  C124 2143   6.053   5.232   0.316  0.4805  0.1574  0.2993
    6CHTO   O83 2144   6.050   5.232   0.171  0.0304 -0.1698 -1.0688
    6CHTO  H204 2145   6.083   5.148   0.146 -1.0032 -0.8821 -0.0554
    6CHTO  C109 2146   6.119   5.482   0.329 -0.4551 -1.5249  0.2714
    6CHTO  H213 2147   6.119   5.492   0.219  2.2354  1.3749  0.4800
    6CHTO  C110 2148   6.233   5.571   0.386  0.2638 -0.8309 -0.4043
    6CHTO  H214 2149   6.246   5.560   0.493  1.5883  2.0958 -0.2066
    6CHTO   O78 2150   6.197   5.712   0.369 -0.3356 -0.4218 -0.3574
    6CHTO  H200 2151   6.229   5.767   0.437  0.2117  0.6293 -1.4358
    6CHTO  C111 2152   6.372   5.538   0.324 -0.0338 -0.4645 -0.6053
    6CHTO  H215 2153   6.366   5.558   0.216  2.0636  2.8959 -0.1701
    6CHTO   N19 2154   6.496   5.618   0.370  0.9340  0.0361 -0.0019
    6CHTO  H207 2155   6.556   5.647   0.285  0.9391  2.3105  0.7457
    6CHTO  H208 2156   6.483   5.694   0.445  1.9252 -1.5172  1.7947
    6CHTO   O74 2157   5.995   5.531   0.382 -0.2394  0.5389  0.3330
    6CHTO  C115 2158   5.976   5.538   0.556 -0.4162  0.3469 -0.7996
    6CHTO  H219 2159   6.071   5.530   0.609 -1.2765 -0.0899  0.7163
    6CHTO   O76 2160   5.927   5.670   0.601  0.0307 -0.3404  0.1081
    6CHTO  C122 2161   5.791   5.683   0.543  0.0612  0.1902 -0.7544
    6CHTO  H226 2162   5.792   5.699   0.435  3.6797  1.4395 -0.6047
    6CHTO  C126 2163   5.739   5.825   0.594 -0.1928  0.0949 -0.1094
    6CHTO   O85 2164   5.803   5.942   0.530 -0.0771  0.1283 -0.4874
    6CHTO  H206 2165   5.889   5.911   0.510 -0.2824 -1.0034  0.3628
    6CHTO  C121 2166   5.694   5.570   0.589  1.0052  1.0433 -0.0155
    6CHTO  H225 2167   5.604   5.613   0.638  0.1536 -0.0165 -0.6359
    6CHTO   O81 2168   5.642   5.503   0.471  0.1296  0.2559 -0.2424
    6CHTO  H202 2169   5.555   5.469   0.482  0.1961 -0.0140 -0.5322
    6CHTO  C119 2170   5.762   5.469   0.684 -0.7297  0.1931 -0.5680
    6CHTO  H223 2171   5.796   5.518   0.775  1.5897 -1.4814 -0.4829
    6CHTO  C117 2172   5.889   5.418   0.614  0.2712 -0.1991 -0.0377
    6CHTO  H221 2173   5.870   5.359   0.524  0.5893 -1.6112  0.7863
    6CHTO   N20 2174   5.968   5.321   0.698 -0.6557  0.3653 -0.0232
    6CHTO  H209 2175   6.068   5.344   0.664 -1.1183  2.5669  0.0362
    6CHTO  H210 2176   5.939   5.324   0.802 -0.8549  2.4516 -0.1119
    6CHTO   O80 2177   5.659   5.356   0.743  0.8166 -0.0708 -0.0667
    6CHTO  C103 2178   5.636   5.338   0.886 -0.3844  0.6412 -0.2704
    6CHTO  H190 2179   5.721   5.301   0.943 -0.7231 -0.9965 -0.8050
    6CHTO  C101 2180   5.576   5.470   0.958 -0.3060  0.2112 -0.3874
    6CHTO  H188 2181   5.504   5.519   0.893  0.2344 -2.1649 -2.8224
    6CHTO   O68 2182   5.685   5.574   0.984 -0.4859  0.2760  0.3075
    6CHTO  H168 2183   5.651   5.658   1.011  0.3651  0.4386  0.9031
    6CHTO   C99 2184   5.500   5.426   1.091  0.4570  1.1700 -0.1425
    6CHTO  H186 2185   5.574   5.397   1.169 -0.7345 -3.2227 -0.4779
    6CHTO   N17 2186   5.407   5.535   1.144  0.1079 -0.1967 -0.4213
    6CHTO  H174 2187   5.444   5.636   1.150  0.9660 -0.5410  0.1405
    6CHTO  H175 2188   5.309   5.535   1.100  0.6542 -1.7303 -1.7008
    6CHTO   C97 2189   5.406   5.302   1.073  0.0681 -0.2848  0.2843
    6CHTO  H184 2190   5.320   5.326   1.009  2.5311  1.2070 -2.5555
    6CHTO   O64 2191   5.488   5.199   1.014 -0.1229  0.1463 -0.4063
    6CHTO  C104 2192   5.525   5.225   0.881 -0.1187  0.4177 -0.5714
    6CHTO  H191 2193   5.449   5.259   0.811  1.8572  0.1146 -2.9109
    6CHTO  C108 2194   5.584   5.095   0.823 -0.2444  0.0977  0.5646
    6CHTO   O71 2195   5.480   5.001   0.800  0.3482 -0.1496  0.1306
    6CHTO  H171 2196   5.521   4.919   0.777  0.7351  0.1011 -0.0770
    6CHTO   O62 2197   5.343   5.257   1.200 -0.8863 -0.1843 -0.4969
    6CHTO   C91 2198   5.347   5.123   1.247  0.4359  0.4173 -0.1596
    6CHTO  H178 2199   5.288   5.127   1.339  1.0560 -0.0752  0.2669
    6CHTO   C92 2200   5.490   5.088   1.300  0.1952 -0.0118 -0.6666
    6CHTO  H179 2201   5.561   5.104   1.218 -0.6763 -2.1361 -1.8828
    6CHTO   O66 2202   5.519   5.184   1.405  0.4143 -0.1662  0.5328
    6CHTO  H166 2203   5.469   5.171   1.482  2.9124 -0.9969  2.0779
    6CHTO   C93 2204   5.504   4.939   1.357  0.3091 -0.0063  0.3352
    6CHTO  H180 2205   5.445   4.932   1.449  0.6808 -1.2777  0.4992
    6CHTO   N16 2206   5.643   4.895   1.391 -0.2747 -0.8450  0.1482
    6CHTO  H172 2207   5.646   4.857   1.492 -2.4782 -0.5925  0.3330
    6CHTO  H173 2208   5.716   4.974   1.379  0.0185 -1.5095 -2.7314
    6CHTO   C94 2209   5.436   4.845   1.249 -0.6352  0.4488  0.2628
    6CHTO  H181 2210   5.489   4.852   1.154  1.1220 -3.5178  0.8533
    6CHTO   O61 2211   5.299   4.883   1.224 -0.6361  0.6199  0.1984
    6CHTO   C95 2212   5.291   5.014   1.154 -0.2470 -0.0411  0.0364
    6CHTO  H182 2213   5.352   5.009   1.064  0.5171 -0.1898  0.5650
    6CHTO  C106 2214   5.138   5.060   1.115 -0.0383 -0.1449  0.7687
    6CHTO   O69 2215   5.076   4.956   1.040 -0.3874 -0.3453  0.0189
    6CHTO  H169 2216   5.114   4.871   1.041 -0.0424 -0.2115  2.4440
    6CHTO   O63 2217   5.425   4.691   1.305  0.7262  0.0295  0.4886
    6CHTO   C96 2218   5.368   4.588   1.191  0.0306  0.2800  0.7398
    6CHTO  H183 2219   5.354   4.647   1.101 -0.9102 -1.5219 -0.3205
    6CHTO   C98 2220   5.235   4.511   1.233  0.0469 -0.3820 -0.1451
    6CHTO  H185 2221   5.248   4.476   1.336 -3.2223  3.0726  1.5293
    6CHTO   O67 2222   5.127   4.606   1.244 -0.0640 -0.3402  0.2889
    6CHTO  H167 2223   5.129   4.648   1.327  0.9136 -0.4374  0.3219
    6CHTO  C102 2224   5.195   4.388   1.129 -0.1870 -0.5893  0.2356
    6CHTO  H189 2225   5.150   4.436   1.041  2.8089  1.1249 -0.4109
    6CHTO   N18 2226   5.087   4.309   1.178 -0.3490  0.0726 -0.3379
    6CHTO  H176 2227   5.085   4.303   1.286  0.8027 -0.6095 -0.3456
    6CHTO  H177 2228   5.112   4.209   1.146  1.7196  0.3042  0.4665
    6CHTO  C105 2229   5.318   4.304   1.093 -0.5934  0.1394  0.0486
    6CHTO  H192 2230   5.344   4.240   1.178  1.1458  0.5649 -0.1278
    6CHTO   O65 2231   5.431   4.390   1.060 -0.7487  0.0675 -0.7357
    6CHTO  C100 2232   5.475   4.488   1.155  0.4432  0.1438 -0.2282
    6CHTO  H187 2233   5.515   4.440   1.246  3.6036  1.2745 -0.9515
    6CHTO  C107 2234   5.603   4.559   1.102 -0.4902  0.1157  0.0704
    6CHTO   O70 2235   5.585   4.619   0.965  0.1897  0.1111  0.2211
    6CHTO  H170 2236   5.659   4.676   0.950 -1.5293  1.9692 -1.5274
    6CHTO   O57 2237   5.288   4.217   0.955  0.0387  0.0884  0.3217
    6CHTO   C85 2238   5.378   4.210   0.840 -0.2518  0.6011  0.8010
    6CHTO  H157 2239   5.317   4.160   0.762 -0.3796  1.0586  0.6029
    6CHTO   C83 2240   5.504   4.117   0.852  0.0706 -0.9479 -0.3029
    6CHTO  H155 2241   5.475   4.015   0.874  3.0207 -1.4090  1.7634
    6CHTO   O56 2242   5.572   4.170   0.973 -0.2516 -0.2251  0.6799
    6CHTO  H135 2243   5.662   4.143   0.981  0.0194  0.4365 -0.0919
    6CHTO   C81 2244   5.579   4.112   0.715  0.5678 -0.1917  0.3874
    6CHTO  H153 2245   5.514   4.062   0.643 -0.3528 -1.9118  2.3570
    6CHTO   N14 2246   5.697   4.014   0.721  0.5145  0.6103 -0.7809
    6CHTO  H141 2247   5.665   3.926   0.774 -2.4643  3.3656  2.2133
    6CHTO  H142 2248   5.765   4.065   0.786  1.5451 -2.0173  0.3029
    6CHTO   C79 2249   5.612   4.258   0.666  0.2005 -0.2629  0.0434
    6CHTO  H151 2250   5.648   4.249   0.564  0.8032 -0.5397  0.2748
    6CHTO   O52 2251   5.490   4.347   0.656  0.7093 -0.4487  0.0117
    6CHTO   C86 2252   5.423   4.357   0.788  0.6679  0.0920 -0.0505
    6CHTO  H158 2253   5.491   4.403   0.863 -1.9848  1.1995  1.7223
    6CHTO   C90 2254   5.301   4.453   0.781 -0.3309 -0.1042  0.7393
    6CHTO   O60 2255   5.345   4.579   0.739 -0.0262  0.6851 -0.3026
    6CHTO  H138 2256   5.336   4.635   0.813 -0.1910  1.4336 -0.8740
    6CHTO   O50 2257   5.718   4.326   0.743  0.0821  0.0193  0.1776
    6CHTO   C73 2258   5.837   4.378   0.681 -0.2235 -0.1169  0.7011
    6CHTO  H145 2259   5.836   4.356   0.574 -1.1529 -0.9195  0.8738
    6CHTO   C74 2260   5.958   4.309   0.752 -0.7267 -0.2659 -0.1087
    6CHTO  H146 2261   5.928   4.204   0.753  0.6400 -0.6871 -1.4200
    6CHTO   O54 2262   6.064   4.325   0.658 -0.6294 -0.2558  0.1860
    6CHTO  H133 2263   6.150   4.306   0.690 -0.2025 -0.5895 -1.1228
    6CHTO   C75 2264   5.968   4.370   0.897 -0.0790 -0.4072 -0.5073
    6CHTO  H147 2265   5.876   4.349   0.954 -0.0673  1.7697  0.3580
    6CHTO   N13 2266   6.075   4.310   0.973 -0.1407  0.6147  0.1062
    6CHTO  H139 2267   6.172   4.357   0.960  0.3769 -0.9564 -1.8649
    6CHTO  H140 2268   6.089   4.213   0.928 -1.5581 -0.3055  1.5963
    6CHTO   C76 2269   5.975   4.525   0.898  0.8497 -0.7667  0.0036
    6CHTO  H148 2270   6.066   4.558   0.847 -0.9470  1.8191 -1.6300
    6CHTO   O49 2271   5.855   4.577   0.833  0.0150 -0.0685  0.3486
    6CHTO   C77 2272   5.845   4.534   0.698  0.1308 -0.1542  0.0828
    6CHTO  H149 2273   5.937   4.571   0.653 -0.4939  1.6426  0.2536
    6CHTO   C88 2274   5.735   4.611   0.622  1.3475  0.4291  0.1924
    6CHTO   O58 2275   5.741   4.751   0.625  0.4815  0.5944  0.0774
    6CHTO  H136 2276   5.684   4.794   0.564 -1.9938  0.1765  2.0224
    6CHTO   O51 2277   5.976   4.576   1.043  0.0517  0.0278  0.4633
    6CHTO   C78 2278   6.022   4.721   1.085 -0.1131  0.1607  0.2240
    6CHTO  H150 2279   6.041   4.721   1.194  1.7006 -0.8526 -0.0595
    6CHTO   C80 2280   5.924   4.832   1.050  0.2235 -0.2868 -0.4658
    6CHTO  H152 2281   5.898   4.834   0.942  2.0027  0.3677 -0.8837
    6CHTO   O55 2282   5.791   4.811   1.105 -0.1034 -0.1253  0.8298
    6CHTO  H134 2283   5.733   4.881   1.084 -0.2560 -0.0977  1.3247
    6CHTO   C84 2284   5.979   4.972   1.091  0.3890 -0.0747  0.1218
    6CHTO  H156 2285   5.987   4.971   1.199 -1.2331 -0.7175  0.2451
    6CHTO   N15 2286   5.887   5.089   1.053  0.0568  0.1473  0.0004
    6CHTO  H143 2287   5.913   5.129   0.957 -0.2991 -1.8982 -0.9653
    6CHTO  H144 2288   5.784   5.061   1.051  0.0410  0.1975  0.0777
    6CHTO   C87 2289   6.120   4.992   1.025 -0.3841  0.7386  0.1373
    6CHTO  H159 2290   6.105   5.002   0.917 -0.8607  0.9700  0.2222
    6CHTO   O53 2291   6.206   4.890   1.064  0.1763 -0.0566  0.4534
    6CHTO   C82 2292   6.159   4.763   1.023  0.0465 -0.1689  0.0918
    6CHTO  H154 2293   6.153   4.764   0.914  2.0763 -0.0966 -0.0263
    6CHTO   C89 2294   6.256   4.650   1.061  0.4894  0.1269  0.1610
    6CHTO   O59 2295   6.387   4.663   0.994 -0.8781 -0.4978 -0.4132
    6CHTO  H137 2296   6.432   4.582   0.983 -0.3004 -0.1618 -0.5199
    6CHTO   O45 2297   6.189   5.140   1.090 -0.2497  0.0990 -0.1305
    6CHTO   C67 2298   6.321   5.171   1.040 -0.3834 -0.5234  0.0980
    6CHTO  H124 2299   6.384   5.086   1.063  0.6135 -0.2753 -1.6492
    6CHTO   C65 2300   6.320   5.206   0.888  0.3172  0.0966  0.1047
    6CHTO  H122 2301   6.219   5.202   0.847  0.0521  0.0184  0.7552
    6CHTO   O44 2302   6.377   5.094   0.826  0.1090 -0.7828 -0.4945
    6CHTO  H102 2303   6.471   5.098   0.834  0.0076  0.8004  0.2101
    6CHTO   C63 2304   6.378   5.341   0.840  0.1043 -0.5942 -0.0672
    6CHTO  H120 2305   6.310   5.422   0.865  0.1814 -0.5648  0.0462
    6CHTO   N11 2306   6.404   5.360   0.696 -0.6026  0.2602  0.1058
    6CHTO  H108 2307   6.401   5.465   0.674  1.5057  0.2812 -0.2087
    6CHTO  H109 2308   6.506   5.333   0.675 -1.4785 -2.6664 -0.6899
    6CHTO   C61 2309   6.517   5.364   0.919 -1.0410  0.5074  0.3662
    6CHTO  H118 2310   6.538   5.471   0.900  1.7578 -0.3954 -2.1129
    6CHTO   O40 2311   6.507   5.349   1.064 -0.4152  0.6765 -0.4455
    6CHTO   C68 2312   6.382   5.296   1.117  0.0189 -0.4963  0.1186
    6CHTO  H125 2313   6.311   5.381   1.114 -0.4976 -0.8557  1.6483
    6CHTO   C72 2314   6.402   5.260   1.264  0.8083 -1.3907 -0.0792
    6CHTO   O48 2315   6.430   5.384   1.332  0.1310  0.1233  0.3663
    6CHTO  H105 2316   6.356   5.419   1.378 -0.4357 -0.8262  0.1923
    6CHTO   O38 2317   6.626   5.277   0.872 -0.7088 -0.5685 -0.4888
    6CHTO   C55 2318   6.760   5.323   0.897 -0.3180 -0.3653 -0.4239
    6CHTO  H112 2319   6.764   5.383   0.989  1.6619 -2.1806  0.7504
    6CHTO   C56 2320   6.811   5.402   0.773 -0.2839 -0.5152 -0.3052
    6CHTO  H113 2321   6.818   5.329   0.692  0.5687 -2.1566  1.2168
    6CHTO   O42 2322   6.722   5.511   0.739  0.4472 -0.1082  0.1510
    6CHTO  H100 2323   6.636   5.474   0.726  0.4969  0.7146 -3.0604
    6CHTO   C57 2324   6.951   5.459   0.807  0.6217  0.4121  0.1370
    6CHTO  H114 2325   6.934   5.523   0.894 -0.1426  1.2827 -0.6402
    6CHTO   N10 2326   7.018   5.542   0.701 -0.2725 -0.4488 -0.2321
    6CHTO  H106 2327   7.031   5.489   0.608  4.4059 -0.1176  0.0809
    6CHTO  H107 2328   7.114   5.568   0.743 -1.0624 -0.5647  1.7230
    6CHTO   C58 2329   7.046   5.344   0.837 -0.5447 -0.2082 -0.0566
    6CHTO  H115 2330   7.075   5.292   0.743 -1.7329 -2.9256  1.0300
    6CHTO   O37 2331   6.997   5.251   0.942  0.8270 -0.1933  0.0824
    6CHTO   C59 2332   6.860   5.210   0.922  0.4372 -0.4982  0.3287
    6CHTO  H116 2333   6.857   5.138   0.840 -0.7511  0.4337 -0.4614
    6CHTO   C70 2334   6.809   5.132   1.043 -0.6895  0.1369  0.3978
    6CHTO   O46 2335   6.881   5.010   1.077 -0.2752  0.0313 -0.4195
    6CHTO  H103 2336   6.872   4.945   1.010 -1.6060 -0.0080 -0.2161
    6CHTO   O39 2337   7.172   5.414   0.914 -0.7325 -0.2735  0.0256
    6CHTO   C60 2338   7.302   5.357   0.908 -0.4167 -0.6905 -0.1350
    6CHTO  H117 2339   7.297   5.249   0.914 -2.1691 -0.5833  0.5896
    6CHTO   C62 2340   7.374   5.396   0.771 -0.2082  0.4770 -0.3672
    6CHTO  H119 2341   7.328   5.343   0.685  1.1451  0.3582 -1.0387
    6CHTO   O43 2342   7.362   5.537   0.747  0.1467 -0.5261  0.4857
    6CHTO  H101 2343   7.398   5.550   0.661 -0.5145 -2.4239 -0.1059
    6CHTO   C66 2344   7.532   5.352   0.773 -0.3029 -0.2074 -0.4842
    6CHTO  H123 2345   7.533   5.244   0.789 -2.4207  0.0498  1.6706
    6CHTO   N12 2346   7.602   5.369   0.641 -0.0137 -0.1950  0.7770
    6CHTO  H110 2347   7.702   5.334   0.659 -0.3608  0.4793  4.2538
    6CHTO  H111 2348   7.552   5.315   0.561  1.7948 -0.0029 -0.5100
    6CHTO   C69 2349   7.596   5.422   0.896  0.0010 -0.5444  0.0872
    6CHTO  H126 2350   7.568   5.530   0.893 -1.8401 -1.0503 -1.3609
    6CHTO   O41 2351   7.534   5.365   1.012  0.2390  0.1875 -0.3050
    6CHTO   C64 2352   7.383   5.402   1.025 -0.2787 -0.6569 -0.1334
    6CHTO  H121 2353   7.364   5.511   1.037 -0.9920 -0.7338 -0.5115
    6CHTO   C71 2354   7.342   5.335   1.153 -0.5786 -0.1625  0.0763
    6CHTO   O47 2355   7.341   5.192   1.145  0.2391 -0.0564  0.3647
    6CHTO  H104 2356   7.252   5.173   1.167 -0.4438  0.2165 -1.9632
    6CHTO   O34 2357   7.757   5.409   0.895 -0.6040 -0.6601 -0.1080
    6CHTO   C49 2358   7.903   5.396   0.832  0.3588 -0.0025  0.0049
    6CHTO   H91 2359   7.882   5.340   0.741  0.6730 -0.9659  0.5072
    6CHTO   C47 2360   7.988   5.313   0.930 -0.6881 -0.0092  0.8277
    6CHTO   H89 2361   8.080   5.301   0.869 -1.5492 -0.6660 -0.3582
    6CHTO   O33 2362   7.935   5.182   0.956  0.4086 -0.5026 -0.2493
    6CHTO   H70 2363   7.852   5.167   0.916 -0.2642  0.4995  0.7200
    6CHTO   C45 2364   8.023   5.394   1.067  0.5057 -0.2711  0.0515
    6CHTO   H87 2365   7.941   5.366   1.134  1.2500 -1.0782  0.6298
    6CHTO    N8 2366   8.157   5.357   1.118 -0.5052 -0.8609 -0.3556
    6CHTO   H75 2367   8.187   5.255   1.097 -0.1472 -1.0317  0.9555
    6CHTO   H76 2368   8.239   5.427   1.117 -0.7192 -0.6010 -0.0944
    6CHTO   C43 2369   8.005   5.556   1.040 -0.4754 -0.4507 -0.3132
    6CHTO   H85 2370   7.901   5.578   1.064  0.6154  2.1995  2.3613
    6CHTO   O29 2371   8.038   5.594   0.906  0.1452  0.6099 -0.4959
    6CHTO   C50 2372   7.963   5.534   0.800  0.4305 -0.0824 -0.4143
    6CHTO   H92 2373   7.878   5.599   0.773  1.5786  0.7862 -2.0042
    6CHTO   C54 2374   8.060   5.534   0.680  0.6686  0.4565  0.0457
    6CHTO   O36 2375   7.983   5.505   0.557  0.1962 -0.3197 -0.0561
    6CHTO   H72 2376   8.034   5.522   0.481 -1.5465 -1.5988 -1.5432
    6CHTO   O27 2377   8.058   5.644   1.138 -1.1673  0.7552  0.7261
    6CHTO   C37 2378   8.144   5.746   1.168 -0.5718 -0.6121  0.3375
    6CHTO   H79 2379   8.244   5.722   1.128 -1.0316  1.0836 -1.8947
    6CHTO   C38 2380   8.085   5.877   1.113 -0.4354  0.3405  0.2417
    6CHTO   H80 2381   7.981   5.889   1.147 -0.9259 -2.0541 -0.3136
    6CHTO   O31 2382   8.078   5.872   0.965  0.2334 -0.0231  0.1283
    6CHTO   H68 2383   8.163   5.844   0.936  0.3652 -0.4759  0.9255
    6CHTO   C39 2384   8.160   5.998   1.165  0.3970 -0.0093 -0.5719
    6CHTO   H81 2385   8.262   5.997   1.125 -0.2366 -1.7024 -2.1813
    6CHTO    N7 2386   8.098   6.126   1.118  0.6325 -0.1289  0.0642
    6CHTO   H73 2387   8.160   6.206   1.155 -0.1579  0.8066 -0.5924
    6CHTO   H74 2388   7.996   6.137   1.152  0.9474  0.4694  0.8359
    6CHTO   C40 2389   8.175   6.004   1.318  0.3542 -0.2032 -0.2847
    6CHTO   H82 2390   8.080   6.025   1.366  0.5050 -1.4272  0.5593
    6CHTO   O26 2391   8.233   5.884   1.368 -0.7880  0.2247  0.0465
    6CHTO   C41 2392   8.159   5.762   1.324 -0.3530  0.6360  1.2085
    6CHTO   H83 2393   8.058   5.751   1.367 -0.8306 -0.8733 -0.2354
    6CHTO   C52 2394   8.251   5.652   1.383 -0.4640 -0.5141 -0.5208
    6CHTO   O35 2395   8.266   5.675   1.558  0.3401  0.1897  0.1514
    6CHTO   H71 2396   8.289   5.764   1.575 -0.6457 -0.0591  3.1058
    6CHTO   O28 2397   8.278   6.097   1.375  0.1376 -0.0237  0.0715
    6CHTO   C42 2398   8.249   6.168   1.500 -1.3577 -0.3849  1.1051
    6CHTO   H84 2399   8.333   6.237   1.507 -2.3799  0.9831  0.0378
    6CHTO   C44 2400   8.254   6.076   1.626 -0.0206 -0.0553  0.8349
    6CHTO   H86 2401   8.177   5.999   1.624  0.2211 -0.2694 -2.7871
    6CHTO   O32 2402   8.378   5.997   1.617 -0.0412  0.0953  0.4276
    6CHTO   H69 2403   8.445   6.051   1.654  0.1489  0.6263 -0.6801
    6CHTO   C48 2404   8.250   6.167   1.756  0.2117  0.2124 -0.7770
    6CHTO   H90 2405   8.336   6.233   1.748  0.4745  0.2232  1.7722
    6CHTO    N9 2406   8.281   6.089   1.879 -0.0989  0.4738 -0.3470
    6CHTO   H77 2407   8.310   5.987   1.861 -1.0955 -0.1181  1.3671
    6CHTO   H78 2408   8.358   6.142   1.935  1.1827 -2.6332  0.9447
    6CHTO   C51 2409   8.123   6.249   1.767 -1.2373 -0.4152 -0.0242
    6CHTO   H93 2410   8.039   6.181   1.785 -1.2950 -0.4804 -0.5446
    6CHTO   O30 2411   8.101   6.327   1.650 -0.1724 -0.4782 -0.6777
    6CHTO   C46 2412   8.113   6.247   1.504 -0.5052  0.4295 -0.2013
    6CHTO   H88 2413   8.022   6.191   1.483  0.8417 -2.1297  0.5902
    6CHTO   C53 2414   8.117   6.365   1.405  0.4296 -0.1797 -0.5325
    6CHTO   O72 2415   7.995   6.445   1.392 -0.3092 -0.4077 -0.4752
    6CHTO  H199 2416   7.947   6.420   1.315 -0.2974 -0.1792 -0.5569
    6CHTO   O22 2417   8.128   6.345   1.875  0.1012  0.1390 -0.0099
    6CHTO   C31 2418   8.003   6.407   1.926 -0.3567 -0.0197  0.5038
    6CHTO   H59 2419   8.039   6.464   2.015  2.2693 -0.0958 -0.4879
    6CHTO   C29 2420   7.941   6.516   1.837  0.2319  0.3936 -0.1871
    6CHTO   H57 2421   7.929   6.464   1.741 -2.0719 -0.6796  0.6445
    6CHTO   O21 2422   8.034   6.619   1.813 -0.1805  0.9137 -0.0186
    6CHTO   H37 2423   8.016   6.664   1.733  0.8413  0.3732 -0.5772
    6CHTO   C27 2424   7.793   6.578   1.874 -0.1726 -0.5702 -0.2891
    6CHTO   H55 2425   7.804   6.646   1.960  0.0474 -2.9780  1.6221
    6CHTO    N5 2426   7.727   6.646   1.760  0.4091  0.7109  0.2509
    6CHTO   H43 2427   7.803   6.700   1.705  1.4859  1.1035  2.1007
    6CHTO   H44 2428   7.654   6.714   1.802 -0.0222  1.1349 -1.1323
    6CHTO   C25 2429   7.701   6.467   1.938 -0.9363 -0.0025  0.3381
    6CHTO   H53 2430   7.658   6.401   1.861 -0.5618 -0.9795  0.9595
    6CHTO   O17 2431   7.773   6.380   2.030  0.8122  0.1924 -0.9455
    6CHTO   C32 2432   7.885   6.311   1.973  0.4547 -0.2244  0.4593
    6CHTO   H60 2433   7.851   6.247   1.892 -0.7215 -0.6576  1.2787
    6CHTO   C36 2434   7.940   6.214   2.074 -0.9517 -0.5677 -0.3461
    6CHTO   O25 2435   7.870   6.083   2.052 -0.0903 -0.3395 -0.2768
    6CHTO   H40 2436   7.804   6.075   2.118 -0.3764  2.0685 -0.2292
    6CHTO   O15 2437   7.577   6.525   2.023 -0.8932 -0.4872 -0.4201
    6CHTO   C19 2438   7.465   6.611   2.043 -0.3012  0.4962 -0.8630
    6CHTO   H47 2439   7.452   6.593   2.151 -0.3486 -0.5352 -1.0333
    6CHTO   C20 2440   7.484   6.762   2.025  0.4103  0.5198  0.0232
    6CHTO   H48 2441   7.521   6.781   1.924  1.0701 -2.1851 -0.2805
    6CHTO   O19 2442   7.591   6.802   2.120 -0.0794  0.1017  0.2151
    6CHTO   H35 2443   7.625   6.885   2.092  2.0244 -1.1157 -0.9875
    6CHTO   C21 2444   7.342   6.827   2.047 -0.0486 -0.0464  0.9816
    6CHTO   H49 2445   7.318   6.821   2.153 -1.6937 -1.6583  0.5425
    6CHTO    N4 2446   7.350   6.970   2.019  0.3250 -0.2980  0.0515
    6CHTO   H41 2447   7.436   7.029   2.045 -1.1644  2.2696 -0.6237
    6CHTO   H42 2448   7.271   7.005   2.084  0.7421  2.6403 -0.9712
    6CHTO   C22 2449   7.229   6.763   1.962  0.2089 -0.9879  0.3239
    6CHTO   H50 2450   7.244   6.772   1.855 -0.0690 -0.6012  0.3161
    6CHTO   O14 2451   7.225   6.623   1.996  0.0944 -0.4359 -0.0824
    6CHTO   C23 2452   7.346   6.551   1.972 -0.0054 -0.0166 -0.5291
    6CHTO   H51 2453   7.362   6.544   1.863  0.0171 -1.3806 -0.4419
    6CHTO   C34 2454   7.309   6.409   2.015 -0.0126  0.2215 -0.0335
    6CHTO   O23 2455   7.266   6.325   1.908  0.3967 -0.2587  0.2499
    6CHTO   H38 2456   7.174   6.345   1.907  1.0153  2.8033  0.5243
    6CHTO   O16 2457   7.098   6.805   2.002  0.0593 -0.5969  0.1706
    6CHTO   C24 2458   6.973   6.790   1.889  0.4431  0.1382 -0.4441
    6CHTO   H52 2459   6.989   6.707   1.820 -1.5369 -0.6499 -0.0057
    6CHTO   C26 2460   6.965   6.926   1.815  0.4684 -0.0822  0.0979
    6CHTO   H54 2461   6.965   7.007   1.891  0.2308 -0.0484  0.0633
    6CHTO   O20 2462   7.077   6.933   1.733 -0.3410  0.3159  0.2158
    6CHTO   H36 2463   7.071   7.002   1.669 -1.6982  0.2822  0.2804
    6CHTO   C30 2464   6.835   6.951   1.729  0.1087 -0.2155  0.2839
    6CHTO   H58 2465   6.830   6.876   1.649 -0.7980  0.7168 -0.5554
    6CHTO    N6 2466   6.827   7.086   1.675 -0.6268 -0.7849 -0.1898
    6CHTO   H45 2467   6.724   7.092   1.643 -0.6300  0.3220  0.0237
    6CHTO   H46 2468   6.893   7.092   1.590  0.4146  2.2858  0.7567
    6CHTO   C33 2469   6.708   6.918   1.817 -0.4863  0.0689  0.1977
    6CHTO   H61 2470   6.697   6.986   1.902 -1.1428 -1.1679  1.1287
    6CHTO   O18 2471   6.724   6.790   1.868  0.3455  0.4244 -0.6781
    6CHTO   C28 2472   6.832   6.769   1.957  1.0760 -0.1609 -0.6850
    6CHTO   H56 2473   6.823   6.836   2.043 -0.4623 -1.9202  0.5765
    6CHTO   C35 2474   6.809   6.624   2.012 -0.8093 -0.0123  0.4241
    6CHTO   O24 2475   6.693   6.611   2.090  0.1015 -0.6790 -0.2776
    6CHTO   H39 2476   6.618   6.588   2.039 -1.5940  2.0506  0.9093
    6CHTO    O9 2477   6.581   6.927   1.747  0.2785 -0.4472 -0.1079
    6CHTO   C13 2478   6.457   6.938   1.846  0.1929 -0.0174 -0.5331
    6CHTO   H26 2479   6.466   7.035   1.899  1.6334  0.1306 -1.0161
    6CHTO   C11 2480   6.438   6.816   1.947 -0.6872  0.2842 -0.0949
    6CHTO   H24 2481   6.509   6.835   2.030 -0.4613  0.9600 -0.4350
    6CHTO    O8 2482   6.469   6.690   1.880 -0.4607  0.1777  0.4506
    6CHTO    H3 2483   6.544   6.707   1.825 -0.0027 -1.1145  0.6539
    6CHTO    C9 2484   6.296   6.809   2.000 -0.7497 -0.6901 -0.4656
    6CHTO   H22 2485   6.275   6.907   2.044 -1.3205  0.0738 -2.3596
    6CHTO    N2 2486   6.277   6.707   2.104 -0.4463  0.4517 -0.1430
    6CHTO   H10 2487   6.310   6.613   2.061 -0.5209  0.5622 -0.4414
    6CHTO   H11 2488   6.172   6.704   2.129 -0.6686 -0.5171 -1.1398
    6CHTO    C7 2489   6.186   6.799   1.886 -0.0996 -0.1670  0.5925
    6CHTO   H20 2490   6.098   6.861   1.917 -0.3307 -0.6593  0.9345
    6CHTO    O4 2491   6.237   6.848   1.761  0.0589  0.4555  0.1656
    6CHTO   C14 2492   6.318   6.962   1.767  0.1723 -0.3640  0.4784
    6CHTO   H27 2493   6.269   7.046   1.820 -0.0585  0.1722 -0.5701
    6CHTO   C18 2494   6.336   7.008   1.627  0.1949 -0.3077 -0.5522
    6CHTO   O13 2495   6.363   7.150   1.630  0.2555 -0.1314  0.3280
    6CHTO    H7 2496   6.280   7.193   1.631 -0.4030 -1.3680 -0.2070
    6CHTO    O2 2497   6.121   6.630   1.845 -0.0917  0.4110  0.0049
    6CHTO    C1 2498   5.977   6.611   1.830  0.3698  0.4730 -0.0751
    6CHTO   H14 2499   5.974   6.523   1.762 -0.3827 -0.3992  1.0789
    6CHTO    C2 2500   5.905   6.730   1.762  0.0883  0.7400  0.0821
    6CHTO   H15 2501   5.920   6.814   1.831 -1.5029  1.1777 -0.0951
    6CHTO    O6 2502   5.971   6.764   1.636 -0.5364 -0.5760 -0.5881
    6CHTO    H1 2503   5.923   6.838   1.605  1.1394  1.4929  1.5686
    6CHTO    C3 2504   5.750   6.695   1.731  0.6805  0.8364 -0.1566
    6CHTO   H16 2505   5.751   6.609   1.663 -1.7848  2.0092 -1.7649
    6CHTO    N1 2506   5.676   6.810   1.672  0.3056 -0.1873  0.0839
    6CHTO    H8 2507   5.683   6.910   1.713  0.0704  0.1389 -0.6694
    6CHTO    H9 2508   5.678   6.805   1.565 -1.6651  0.0310  0.0107
    6CHTO    C4 2509   5.685   6.637   1.868 -0.0026 -0.0355  0.1818
    6CHTO   H17 2510   5.655   6.721   1.930  0.5103 -0.5100  1.0848
    6CHTO    O1 2511   5.762   6.539   1.947 -0.2052  0.0476  0.3944
    6CHTO    C5 2512   5.898   6.587   1.968 -0.0187  0.1829  0.0083
    6CHTO   H18 2513   5.879   6.684   2.014 -0.9150  0.4254 -0.8562
    6CHTO   C16 2514   5.981   6.497   2.063  0.0039 -0.9328  0.0016
    6CHTO   O11 2515   6.020   6.369   2.015  0.1304  0.1966 -0.4667
    6CHTO    H5 2516   6.036   6.309   2.085 -1.3000  1.6299  1.1459
    6CHTO    O3 2517   5.573   6.556   1.831  0.4029 -0.5401  0.1499
    6CHTO    C6 2518   5.466   6.548   1.930 -0.2778  0.6055  0.3666
    6CHTO   H19 2519   5.501   6.569   2.031 -1.1660 -0.5744  0.9371
    6CHTO    C8 2520   5.354   6.657   1.897 -0.0332 -0.5460 -0.2358
    6CHTO   H21 2521   5.325   6.643   1.793  0.7724 -0.1962 -0.5106
    6CHTO    O7 2522   5.415   6.787   1.909  0.5350  0.0431  0.4252
    6CHTO    H2 2523   5.472   6.805   1.837  0.0347  0.1585  0.0562
    6CHTO   C12 2524   5.225   6.645   1.986  0.3396 -0.7764 -0.1147
    6CHTO   H25 2525   5.251   6.663   2.093  0.5631  0.2493 -0.3442
    6CHTO    N3 2526   5.128   6.746   1.946  0.7350  0.2065 -0.7234
    6CHTO   H12 2527   5.173   6.843   1.963 -0.1267  0.0823  2.5485
    6CHTO   H13 2528   5.108   6.739   1.840 -0.0344 -3.9181 -0.3824
    6CHTO   C15 2529   5.179   6.497   1.985  0.5693 -0.4685  0.3526
    6CHTO   H28 2530   5.139   6.475   1.886 -1.7307  2.5525  0.5445
    6CHTO   O10 2531   5.088   6.460   2.086 -0.0628  0.1118 -0.3318
    6CHTO    H4 2532   5.002   6.497   2.079 -0.3002 -0.0106  1.5862
    6CHTO    O5 2533   5.285   6.409   2.022  0.0044  0.0661 -0.9821
    6CHTO   C10 2534   5.394   6.403   1.933 -0.0392 -0.1471  0.1302
    6CHTO   H23 2535   5.349   6.373   1.839 -3.5233  2.2600  0.9542
    6CHTO   C17 2536   5.495   6.301   1.985 -1.0476  0.5956 -0.1059
    6CHTO   O12 2537   5.444   6.161   1.986 -0.6585 -0.7650 -0.9915
    6CHTO    H6 2538   5.499   6.120   2.050 -2.0874  1.0668  1.4922
    7CHTO  H203 2539   4.829   3.183   2.225 -0.2866 -1.8875  0.9770
    7CHTO   O82 2540   4.892   3.149   2.164 -0.2704  0.2761 -0.2427
    7CHTO  C123 2541   5.025   3.194   2.168  0.2262 -0.0923 -0.0295
    7CHTO  H227 2542   5.027   3.296   2.208  1.0161  0.6827 -2.0312
    7CHTO   O77 2543   5.084   3.097   2.265  0.2695 -0.3195  0.2725
    7CHTO  C118 2544   5.229   3.121   2.289 -0.1324  0.3115  0.4746
    7CHTO  H222 2545   5.241   3.228   2.312 -1.3325  0.7941 -1.0698
    7CHTO  C125 2546   5.255   3.028   2.414  0.0416 -0.2559  0.0357
    7CHTO   O84 2547   5.386   3.069   2.458  0.7003 -0.2175  0.0311
    7CHTO  H205 2548   5.386   3.073   2.552 -0.1068 -3.4443  0.2063
    7CHTO  C114 2549   5.298   3.077   2.158  0.2179 -0.1548  0.3170
    7CHTO  H218 2550   5.263   2.977   2.132 -2.0788  0.5497  0.6057
    7CHTO  C116 2551   5.259   3.184   2.051  0.1464  0.9604  0.4332
    7CHTO  H220 2552   5.294   3.284   2.082 -2.7365  1.7782  1.2248
    7CHTO   O79 2553   5.327   3.149   1.932  0.5778 -0.1490 -0.3676
    7CHTO  H201 2554   5.418   3.165   1.946  0.4173  0.5654 -0.1073
    7CHTO  C120 2555   5.094   3.185   2.030  0.1896 -0.1184 -0.1989
    7CHTO  H224 2556   5.080   3.092   1.971  1.7794 -1.2136  1.0872
    7CHTO   N21 2557   5.056   3.288   1.933 -0.5008 -0.4708 -0.4879
    7CHTO  H211 2558   4.979   3.349   1.978  1.9628  2.9946 -0.8419
    7CHTO  H212 2559   5.136   3.357   1.912 -1.9917  1.0264 -1.4616
    7CHTO   O75 2560   5.441   3.074   2.184  0.1024  0.0810  0.0291
    7CHTO  C112 2561   5.528   2.942   2.132  0.3587 -0.2001  0.0550
    7CHTO  H216 2562   5.467   2.899   2.051 -1.6930 -0.1129  1.5241
    7CHTO   O73 2563   5.547   2.847   2.245  0.3407 -0.3094 -0.4881
    7CHTO  C113 2564   5.614   2.726   2.202  0.1901 -0.4513  0.1132
    7CHTO  H217 2565   5.562   2.685   2.113  0.2459  0.4598 -0.3468
    7CHTO  C124 2566   5.595   2.617   2.312  0.4996  0.2108 -0.0905
    7CHTO   O83 2567   5.644   2.483   2.290  0.6161 -0.5915  0.0866
    7CHTO  H204 2568   5.591   2.419   2.333 -0.6420  0.2361 -0.1948
    7CHTO  C109 2569   5.754   2.771   2.178 -0.4014  0.9564  0.7047
    7CHTO  H213 2570   5.780   2.833   2.265  1.9712 -1.7433  2.0108
    7CHTO  C110 2571   5.757   2.868   2.059 -0.1725 -0.2090 -0.3324
    7CHTO  H214 2572   5.709   2.810   1.981  0.1678  0.1474 -0.8048
    7CHTO   O78 2573   5.893   2.904   2.024  0.0362  0.2514 -0.3433
    7CHTO  H200 2574   5.948   2.833   1.998 -0.5125 -0.1424 -0.4286
    7CHTO  C111 2575   5.670   2.991   2.082  0.3357 -0.3257  0.7849
    7CHTO  H215 2576   5.715   3.052   2.162  1.5748 -3.6061  2.6810
    7CHTO   N19 2577   5.652   3.072   1.961 -0.7035  0.4100 -0.4840
    7CHTO  H207 2578   5.606   3.166   1.986 -0.9925 -0.4199  2.2314
    7CHTO  H208 2579   5.751   3.070   1.919  0.1146 -1.3948  1.4366
    7CHTO   O74 2580   5.853   2.656   2.179  0.1432  0.3842  0.1614
    7CHTO  C115 2581   5.995   2.702   2.256 -0.2597  0.5047  0.4671
    7CHTO  H219 2582   5.998   2.810   2.269 -2.4081  0.9261 -2.0206
    7CHTO   O76 2583   6.009   2.641   2.396 -0.2535  0.0297  0.4211
    7CHTO  C122 2584   6.140   2.641   2.462 -0.1437  0.8417 -0.7204
    7CHTO  H226 2585   6.131   2.569   2.544 -0.8192 -0.4768 -1.9276
    7CHTO  C126 2586   6.176   2.787   2.525 -0.8937 -0.2339 -0.4004
    7CHTO   O85 2587   6.188   2.894   2.431  0.3114  0.1458 -0.4405
    7CHTO  H206 2588   6.261   2.948   2.451  0.3864  0.3110 -1.1466
    7CHTO  C121 2589   6.261   2.596   2.365 -0.4248 -0.0295 -0.2497
    7CHTO  H225 2590   6.317   2.688   2.336 -1.4433  0.8893  0.6352
    7CHTO   O81 2591   6.368   2.513   2.412 -0.8357 -0.8009  0.4407
    7CHTO  H202 2592   6.326   2.448   2.465 -2.8402 -0.2534 -0.4386
    7CHTO  C119 2593   6.202   2.549   2.236 -1.0770 -0.0681 -0.5471
    7CHTO  H223 2594   6.285   2.519   2.173 -0.8398 -0.7182  0.0648
    7CHTO  C117 2595   6.121   2.660   2.164 -0.6074  0.3319  0.1522
    7CHTO  H221 2596   6.073   2.617   2.076  2.1070  1.6558 -2.0761
    7CHTO   N20 2597   6.211   2.778   2.114  0.3812  1.1051 -0.0560
    7CHTO  H209 2598   6.174   2.870   2.158 -0.9670  0.8085 -0.5338
    7CHTO  H210 2599   6.196   2.796   2.009  3.0779  2.0461 -0.3218
    7CHTO   O80 2600   6.130   2.404   2.252  0.0452 -0.0003 -0.2193
    7CHTO  C103 2601   6.157   2.283   2.141  0.7106 -0.1028  0.8076
    7CHTO  H190 2602   6.127   2.316   2.041  1.4405 -2.2691 -0.1573
    7CHTO  C101 2603   6.297   2.202   2.136 -0.2838 -0.1931  0.4644
    7CHTO  H188 2604   6.328   2.169   2.235 -0.3300 -2.4087 -0.2237
    7CHTO   O68 2605   6.428   2.321   2.096  0.4898  0.6398  0.5252
    7CHTO  H168 2606   6.409   2.409   2.122 -0.7270  0.6161 -0.2660
    7CHTO   C99 2607   6.297   2.087   2.036 -0.4041 -0.8905 -0.5393
    7CHTO  H186 2608   6.256   2.123   1.939 -1.8049 -0.9646  0.0189
    7CHTO   N17 2609   6.428   2.012   2.008  0.7345  0.7956  0.5047
    7CHTO  H174 2610   6.416   1.907   2.027 -1.5835  0.8502 -0.3761
    7CHTO  H175 2611   6.456   2.032   1.905 -2.5902 -1.2972 -0.9107
    7CHTO   C97 2612   6.189   1.982   2.086  0.3441 -0.0410  0.5236
    7CHTO  H184 2613   6.212   1.938   2.185  0.2996  1.0087  1.0159
    7CHTO   O64 2614   6.060   2.053   2.089  0.2017 -0.0757 -0.0190
    7CHTO  C104 2615   6.054   2.164   2.178 -0.3979 -0.3766  0.2091
    7CHTO  H191 2616   6.079   2.124   2.276 -0.5309 -1.3678 -0.1513
    7CHTO  C108 2617   5.911   2.224   2.189 -0.5441  0.5825  0.5007
    7CHTO   O71 2618   5.803   2.130   2.198 -0.6069 -0.0540 -0.4072
    7CHTO  H171 2619   5.726   2.168   2.162 -0.5661  0.1393 -0.2964
    7CHTO   O62 2620   6.182   1.865   1.992 -0.2531  0.3260  0.2192
    7CHTO   C91 2621   6.073   1.775   1.976 -0.3610  0.8267 -0.4395
    7CHTO  H178 2622   6.119   1.692   1.921 -1.4893 -0.5644  0.6583
    7CHTO   C92 2623   5.971   1.844   1.874 -0.5168  0.6383 -0.5981
    7CHTO  H179 2624   5.948   1.948   1.903 -0.2122 -0.0720  2.3234
    7CHTO   O66 2625   6.033   1.844   1.744 -0.3676  0.7997 -0.0323
    7CHTO  H166 2626   6.035   1.933   1.714  0.4067  1.2694  1.3494
    7CHTO   C93 2627   5.843   1.762   1.881  0.2549 -0.6445 -0.3764
    7CHTO  H180 2628   5.879   1.658   1.887  1.8610 -0.0162  1.5504
    7CHTO   N16 2629   5.756   1.771   1.758 -0.4052  0.0501 -0.0254
    7CHTO  H172 2630   5.797   1.843   1.690 -2.6064  2.9956  1.6407
    7CHTO  H173 2631   5.667   1.826   1.784  0.9487  1.5897  1.4294
    7CHTO   C94 2632   5.770   1.800   2.013  0.1253 -0.4710 -0.2234
    7CHTO  H181 2633   5.736   1.903   2.014 -0.0424 -0.5118 -1.0951
    7CHTO   O61 2634   5.870   1.786   2.121  0.4218  0.3202 -0.4907
    7CHTO   C95 2635   6.003   1.732   2.105  0.0976 -0.6248  0.1301
    7CHTO  H182 2636   6.056   1.764   2.195  0.8550 -0.4273 -0.3800
    7CHTO  C106 2637   5.987   1.578   2.136 -0.0733  0.1031  0.0121
    7CHTO   O69 2638   6.111   1.505   2.119 -0.1479  0.3656  0.5349
    7CHTO  H169 2639   6.094   1.413   2.125  2.5360 -0.1706  0.1614
    7CHTO   O63 2640   5.659   1.704   2.045  0.3787 -0.1594 -0.2111
    7CHTO   C96 2641   5.536   1.773   2.135 -0.5885 -0.5201 -0.3699
    7CHTO  H183 2642   5.527   1.873   2.092  0.3755  0.2117  1.0993
    7CHTO   C98 2643   5.548   1.775   2.299  0.1871  0.2195 -0.0243
    7CHTO  H185 2644   5.641   1.825   2.330  1.0085 -2.4712  1.9811
    7CHTO   O67 2645   5.442   1.866   2.333  0.5173  0.4854 -0.4581
    7CHTO  H167 2646   5.437   1.873   2.426  0.2694  0.3839 -0.4634
    7CHTO  C102 2647   5.546   1.627   2.365 -0.2545 -0.6582  0.6978
    7CHTO  H189 2648   5.512   1.639   2.469  1.6104 -1.4626  1.4316
    7CHTO   N18 2649   5.683   1.567   2.374  0.1350 -0.4801 -0.5335
    7CHTO  H176 2650   5.747   1.641   2.419 -0.2036 -1.2542  1.2664
    7CHTO  H177 2651   5.673   1.486   2.445  0.1445 -0.2044 -0.2156
    7CHTO  C105 2652   5.452   1.533   2.277 -0.5703  0.2782 -0.4267
    7CHTO  H192 2653   5.516   1.473   2.212 -0.4626  0.0117 -0.0736
    7CHTO   O65 2654   5.347   1.615   2.212  0.5706 -0.5561  0.3100
    7CHTO  C100 2655   5.403   1.681   2.097 -0.9607 -0.0418 -0.3222
    7CHTO  H187 2656   5.429   1.592   2.037 -1.5744 -1.1078  0.9608
    7CHTO  C107 2657   5.290   1.755   2.028  0.0738 -0.1985 -0.1189
    7CHTO   O70 2658   5.313   1.810   1.896 -0.3506  0.0584  0.5097
    7CHTO  H170 2659   5.302   1.745   1.830 -0.5141 -0.0816  0.6737
    7CHTO   O57 2660   5.390   1.434   2.378 -0.1020 -0.1056  0.0888
    7CHTO   C85 2661   5.360   1.296   2.338 -0.1598 -0.2084  0.0241
    7CHTO  H157 2662   5.410   1.288   2.239  0.2822  0.0038  0.2308
    7CHTO   C83 2663   5.206   1.263   2.329 -0.5232 -0.1933 -0.1043
    7CHTO  H155 2664   5.163   1.331   2.255 -1.5503  0.5114  1.1231
    7CHTO   O56 2665   5.144   1.292   2.462  0.5018 -0.0083  0.2623
    7CHTO  H135 2666   5.177   1.237   2.530  1.2665  1.6404  1.2530
    7CHTO   C81 2667   5.192   1.118   2.282  0.7838  0.1247  0.9598
    7CHTO  H153 2668   5.246   1.110   2.188 -0.4356 -1.6804  0.3923
    7CHTO   N14 2669   5.056   1.089   2.237 -0.7539 -0.6130 -0.8985
    7CHTO  H141 2670   4.984   1.160   2.271 -0.1431 -0.2391 -0.3735
    7CHTO  H142 2671   5.054   1.091   2.130  3.0856  2.0735 -1.0024
    7CHTO   C79 2672   5.251   1.014   2.383  0.3145 -0.2657 -0.3510
    7CHTO  H151 2673   5.264   0.925   2.322  1.3434  0.1526 -0.7462
    7CHTO   O52 2674   5.387   1.051   2.409  0.2021 -0.3016 -0.4645
    7CHTO   C86 2675   5.418   1.192   2.441  0.0998  0.8118 -0.3374
    7CHTO  H158 2676   5.377   1.209   2.543  2.2097 -1.1668  0.8915
    7CHTO   C90 2677   5.572   1.204   2.458  0.1912 -0.0746  0.7757
    7CHTO   O60 2678   5.653   1.164   2.349 -0.6343 -0.3427  0.1393
    7CHTO  H138 2679   5.736   1.206   2.356 -0.7408 -0.3828  1.7427
    7CHTO   O50 2680   5.182   1.004   2.506 -0.0450  0.1671 -0.2205
    7CHTO   C73 2681   5.198   0.891   2.607  0.7227 -0.3504  0.8083
    7CHTO  H145 2682   5.293   0.838   2.593 -0.1462 -1.8238  0.3607
    7CHTO   C74 2683   5.091   0.785   2.577 -0.4081 -0.4993  0.1180
    7CHTO  H146 2684   5.110   0.759   2.472 -0.4697 -1.2326  0.2834
    7CHTO   O54 2685   5.116   0.670   2.664 -0.0304  0.1686  0.0451
    7CHTO  H133 2686   5.037   0.625   2.688 -0.0699 -0.5546 -1.4115
    7CHTO   C75 2687   4.946   0.855   2.597 -0.4880 -0.0711  0.4847
    7CHTO  H147 2688   4.945   0.942   2.530  0.7334 -0.5493 -0.1735
    7CHTO   N13 2689   4.826   0.774   2.564  0.0377 -0.3848  0.1097
    7CHTO  H139 2690   4.776   0.800   2.473  0.0125  2.4405  0.8711
    7CHTO  H140 2691   4.770   0.749   2.653 -0.5277 -0.5968 -0.3091
    7CHTO   C76 2692   4.936   0.915   2.753 -0.0317  0.0002 -0.2538
    7CHTO  H148 2693   4.916   0.828   2.816  1.2966 -0.2554 -0.1704
    7CHTO   O49 2694   5.057   0.995   2.791  0.1568 -0.2306  0.1166
    7CHTO   C77 2695   5.187   0.954   2.752 -0.3856 -0.2816  0.6452
    7CHTO  H149 2696   5.223   0.877   2.821 -0.6326 -0.9307  0.0574
    7CHTO   C88 2697   5.292   1.070   2.770  0.2266 -0.4542  0.4191
    7CHTO   O58 2698   5.312   1.102   2.914 -0.0369 -0.2763  0.8547
    7CHTO  H136 2699   5.365   1.034   2.952 -0.8563 -1.4861 -0.1021
    7CHTO   O51 2700   4.806   1.011   2.760  0.2413 -0.1837  0.4086
    7CHTO   C78 2701   4.757   1.009   2.916 -0.1239  0.2384 -0.2264
    7CHTO  H150 2702   4.835   0.954   2.974 -0.6733 -1.1220 -0.7642
    7CHTO   C80 2703   4.619   0.927   2.924 -0.5451 -0.6417 -0.2314
    7CHTO  H152 2704   4.553   0.959   2.841 -2.2758 -1.6015  0.7613
    7CHTO   O55 2705   4.657   0.789   2.890 -0.1766  0.6791 -0.1189
    7CHTO  H134 2706   4.747   0.767   2.904  0.2248  2.1466 -0.3886
    7CHTO   C84 2707   4.551   0.943   3.068  0.0622 -0.4950  0.5270
    7CHTO  H156 2708   4.613   0.892   3.141 -1.2654  0.2021  2.1636
    7CHTO   N15 2709   4.416   0.889   3.061  0.2946 -0.6148  0.6263
    7CHTO  H143 2710   4.413   0.806   3.129 -0.4201  0.2913  1.7095
    7CHTO  H144 2711   4.342   0.959   3.092  0.8450  0.1310  0.2717
    7CHTO   C87 2712   4.552   1.094   3.110 -0.0955  0.7964 -0.4207
    7CHTO  H159 2713   4.493   1.151   3.037 -1.6135 -0.9313 -0.5890
    7CHTO   O53 2714   4.679   1.143   3.102 -0.0875 -0.0634  0.3200
    7CHTO   C82 2715   4.733   1.150   2.969  0.2825 -1.1921  0.3265
    7CHTO  H154 2716   4.667   1.200   2.898  1.0859  1.4564  1.3849
    7CHTO   C89 2717   4.856   1.237   2.979 -0.7304  0.1321 -0.1546
    7CHTO   O59 2718   4.912   1.264   2.848  0.1718  1.0080  0.1099
    7CHTO  H137 2719   5.003   1.284   2.859  0.5107  1.2855 -2.9816
    7CHTO   O45 2720   4.509   1.105   3.268  0.4731  0.5180 -0.1198
    7CHTO   C67 2721   4.570   1.208   3.353 -0.0727  0.1928 -0.0613
    7CHTO  H124 2722   4.657   1.243   3.298 -1.3236 -1.1659 -3.0535
    7CHTO   C65 2723   4.473   1.325   3.374 -0.3288 -0.2489 -0.4644
    7CHTO  H122 2724   4.374   1.293   3.406 -0.6613  0.9150 -0.2833
    7CHTO   O44 2725   4.472   1.385   3.242 -0.0854 -0.0629  0.2374
    7CHTO  H102 2726   4.382   1.398   3.217 -0.1218 -0.4261  0.1625
    7CHTO   C63 2727   4.512   1.418   3.497  0.5655 -0.3990  0.2874
    7CHTO  H120 2728   4.454   1.391   3.585 -3.5118  1.0844 -1.7757
    7CHTO   N11 2729   4.480   1.564   3.481  0.9907  0.0650 -0.6836
    7CHTO  H108 2730   4.377   1.574   3.505  0.3157 -2.9399 -2.1363
    7CHTO  H109 2731   4.489   1.581   3.375 -0.9474  0.6769 -0.7635
    7CHTO   C61 2732   4.666   1.397   3.529 -0.4848 -0.6215  0.7897
    7CHTO  H118 2733   4.683   1.455   3.621  2.6012 -1.7986  0.9932
    7CHTO   O40 2734   4.679   1.258   3.563  0.2101  0.3074 -0.6581
    7CHTO   C68 2735   4.616   1.143   3.485 -1.0890 -0.4813  0.3346
    7CHTO  H125 2736   4.525   1.106   3.537  0.1552 -0.9569  2.2455
    7CHTO   C72 2737   4.719   1.027   3.481  0.0019 -0.2566  0.3462
    7CHTO   O48 2738   4.673   0.902   3.420 -0.2498 -1.2168  0.1431
    7CHTO  H105 2739   4.725   0.825   3.439 -0.4401 -2.2066 -2.9929
    7CHTO   O38 2740   4.760   1.437   3.430  0.1540 -0.8060  0.3046
    7CHTO   C55 2741   4.899   1.466   3.476  0.7724 -0.3564  0.0210
    7CHTO  H112 2742   4.911   1.418   3.574 -1.5630  1.3916  1.2201
    7CHTO   C56 2743   4.909   1.626   3.486  0.2547  0.6222 -0.0359
    7CHTO  H113 2744   4.866   1.674   3.396  0.0281 -2.9558 -1.9171
    7CHTO   O42 2745   4.820   1.664   3.592 -0.2228 -0.0879 -0.1703
    7CHTO  H100 2746   4.761   1.727   3.556  0.6054  0.0205 -1.3583
    7CHTO   C57 2747   5.060   1.659   3.519  1.0121  0.4562 -0.7362
    7CHTO  H114 2748   5.087   1.607   3.611  2.7643  2.2078 -0.2154
    7CHTO   N10 2749   5.085   1.797   3.539 -0.5062 -0.1334  0.1468
    7CHTO  H106 2750   4.990   1.836   3.573 -0.6966  1.5915 -2.2027
    7CHTO  H107 2751   5.114   1.856   3.454 -1.2360  1.4759  0.9824
    7CHTO   C58 2752   5.150   1.609   3.409 -0.0802  0.0358  0.0447
    7CHTO  H115 2753   5.106   1.653   3.317 -3.0329  2.1455  2.3325
    7CHTO   O37 2754   5.136   1.467   3.406  0.4402  0.0987  0.3431
    7CHTO   C59 2755   5.003   1.412   3.371  0.9381 -0.1295 -0.4896
    7CHTO  H116 2756   4.985   1.436   3.266  2.1414 -2.0978 -1.1717
    7CHTO   C70 2757   5.002   1.261   3.364 -0.0050 -0.0758  0.2534
    7CHTO   O46 2758   5.100   1.230   3.269 -0.2622 -0.4032  0.8360
    7CHTO  H103 2759   5.053   1.197   3.195  1.0250 -0.5817  0.0795
    7CHTO   O39 2760   5.318   1.646   3.420  0.4607  0.1811  0.2295
    7CHTO   C60 2761   5.390   1.596   3.304 -0.4565  0.0000 -0.1769
    7CHTO  H117 2762   5.407   1.489   3.319 -1.3389  0.2180  2.6491
    7CHTO   C62 2763   5.312   1.609   3.165 -0.0136 -0.8250  0.3221
    7CHTO  H119 2764   5.223   1.542   3.171 -0.5998 -0.0793  0.0242
    7CHTO   O43 2765   5.268   1.743   3.131  0.3486  0.3252 -0.3664
    7CHTO  H101 2766   5.340   1.798   3.104  1.4703 -1.7113 -1.6555
    7CHTO   C66 2767   5.397   1.546   3.042 -0.0015 -0.0422  0.2292
    7CHTO  H123 2768   5.413   1.441   3.067 -1.1779 -0.0539  0.9578
    7CHTO   N12 2769   5.322   1.544   2.912  0.0823  0.0016 -0.0047
    7CHTO  H110 2770   5.224   1.506   2.933 -0.1953  0.2858 -0.7741
    7CHTO  H111 2771   5.317   1.644   2.869 -0.3370 -0.6815 -1.5828
    7CHTO   C69 2772   5.532   1.617   3.040  0.0160  0.0686 -0.3858
    7CHTO  H126 2773   5.510   1.724   3.020  2.4617  0.5536 -0.6318
    7CHTO   O41 2774   5.613   1.604   3.186  0.3008 -0.4675 -0.2082
    7CHTO   C64 2775   5.526   1.663   3.299  1.0628 -0.5381 -0.3053
    7CHTO  H121 2776   5.505   1.771   3.286 -0.8660 -0.7536  0.8405
    7CHTO   C71 2777   5.609   1.636   3.427 -0.8679  0.4055  0.1681
    7CHTO   O47 2778   5.650   1.497   3.432 -0.1199 -1.1122 -0.1710
    7CHTO  H104 2779   5.581   1.441   3.463  0.7651  0.2419  4.8134
    7CHTO   O34 2780   5.623   1.550   2.939 -0.1597  0.4248  0.6677
    7CHTO   C49 2781   5.759   1.477   2.974 -0.1353 -0.8056 -0.0330
    7CHTO   H91 2782   5.797   1.531   3.061 -1.2890  1.3573 -0.8223
    7CHTO   C47 2783   5.853   1.493   2.852 -0.2792 -0.4198  1.1930
    7CHTO   H89 2784   5.949   1.462   2.898  0.2030 -1.4741 -0.4457
    7CHTO   O33 2785   5.855   1.627   2.822  0.1413  0.3497  0.2853
    7CHTO   H70 2786   5.928   1.634   2.764  1.0272  0.7568  1.4350
    7CHTO   C45 2787   5.816   1.391   2.737 -0.0715 -0.4096  0.0430
    7CHTO   H87 2788   5.712   1.410   2.706 -0.0162 -1.4385 -0.8086
    7CHTO    N8 2789   5.903   1.403   2.619 -0.1950 -0.3071 -0.3838
    7CHTO   H75 2790   5.974   1.321   2.611  2.2752  1.4651  2.2612
    7CHTO   H76 2791   5.843   1.406   2.529  0.0651  2.1174 -0.5074
    7CHTO   C43 2792   5.792   1.241   2.791  0.1987  0.1510 -0.1751
    7CHTO   H85 2793   5.759   1.176   2.711  0.7054  0.4131 -0.6017
    7CHTO   O29 2794   5.708   1.236   2.909 -0.7251 -0.2089 -0.3543
    7CHTO   C50 2795   5.722   1.333   3.016  0.3297  0.5755 -0.0934
    7CHTO   H92 2796   5.624   1.337   3.066  0.9193 -1.9455  1.3110
    7CHTO   C54 2797   5.817   1.296   3.133  0.4352 -0.2296  0.6610
    7CHTO   O36 2798   5.755   1.197   3.209 -0.2946  0.1907  0.4105
    7CHTO   H72 2799   5.728   1.227   3.293  2.3212  0.6637  1.1435
    7CHTO   O27 2800   5.922   1.188   2.825  0.6336 -0.4509  0.3520
    7CHTO   C37 2801   5.984   1.090   2.903 -0.1713  0.3660 -0.0335
    7CHTO   H79 2802   5.967   1.114   3.009  0.1103 -1.9096  0.5632
    7CHTO   C38 2803   5.926   0.947   2.877 -0.6306  0.0485  0.3660
    7CHTO   H80 2804   5.929   0.930   2.769 -1.9805  3.7033 -0.3276
    7CHTO   O31 2805   5.789   0.945   2.922 -0.3184  0.1098  0.0049
    7CHTO   H68 2806   5.766   1.011   2.984 -2.8998 -1.1461  0.4553
    7CHTO   C39 2807   6.002   0.831   2.948 -0.8572  0.2845 -0.7592
    7CHTO   H81 2808   5.980   0.847   3.053 -0.6548 -0.0565 -0.6625
    7CHTO    N7 2809   5.962   0.693   2.915 -0.1035 -0.3143  0.6637
    7CHTO   H73 2810   5.948   0.632   3.003 -1.7054 -1.1530 -0.1368
    7CHTO   H74 2811   6.020   0.645   2.838 -2.0998  0.2188 -1.2301
    7CHTO   C40 2812   6.164   0.852   2.941  0.2304 -0.1728  0.7429
    7CHTO   H82 2813   6.192   0.821   2.840  0.4315 -1.4055  1.1728
    7CHTO   O26 2814   6.194   0.989   2.966  0.0601  0.2586  0.0935
    7CHTO   C41 2815   6.142   1.089   2.879  0.0114  0.1447  0.6710
    7CHTO   H83 2816   6.154   1.066   2.772 -0.6028  0.8716  0.4438
    7CHTO   C52 2817   6.214   1.223   2.915  0.1194 -0.7226 -0.4699
    7CHTO   O35 2818   6.175   1.325   2.828  0.2609  0.2459 -0.0043
    7CHTO   H71 2819   6.180   1.414   2.859  2.1554 -0.3288  1.4652
    7CHTO   O28 2820   6.237   0.768   3.036  0.1829  0.0481 -0.3022
    7CHTO   C42 2821   6.377   0.725   3.025 -0.3469 -0.3352  0.4676
    7CHTO   H84 2822   6.402   0.699   3.128 -1.2128  1.5501  1.1918
    7CHTO   C44 2823   6.485   0.828   2.979  0.3876  0.2962 -0.6020
    7CHTO   H86 2824   6.461   0.866   2.880  0.5648  1.1566 -0.3199
    7CHTO   O32 2825   6.490   0.938   3.068  0.1174 -0.0795 -0.5177
    7CHTO   H69 2826   6.558   1.000   3.049  1.1142 -0.3637  1.9578
    7CHTO   C48 2827   6.628   0.755   2.972 -0.3815  0.2117 -0.7882
    7CHTO   H90 2828   6.649   0.708   3.067 -1.4494  1.8946  0.3112
    7CHTO    N9 2829   6.734   0.856   2.943 -0.4560 -0.4227 -0.5067
    7CHTO   H77 2830   6.707   0.959   2.927  0.7568 -0.1856 -1.1177
    7CHTO   H78 2831   6.808   0.852   3.021 -0.9207 -0.9672 -0.0939
    7CHTO   C51 2832   6.613   0.644   2.864 -0.8183  0.3364 -0.1041
    7CHTO   H93 2833   6.577   0.698   2.776 -3.9619 -0.1778  0.7817
    7CHTO   O30 2834   6.517   0.544   2.912  0.2785  0.7283 -0.3853
    7CHTO   C46 2835   6.372   0.595   2.941 -0.3726 -0.6119 -0.4565
    7CHTO   H88 2836   6.328   0.612   2.843 -0.3946 -1.3802 -0.5838
    7CHTO   C53 2837   6.301   0.480   3.023  0.3533 -0.2188  0.0421
    7CHTO   O72 2838   6.287   0.372   2.930 -0.7058 -0.0337 -0.5185
    7CHTO  H199 2839   6.280   0.298   2.988 -0.5416 -1.3404 -2.1072
    7CHTO   O22 2840   6.741   0.578   2.836 -0.6977 -0.2940  1.0256
    7CHTO   C31 2841   6.762   0.530   2.695  0.6324  0.0183  0.6304
    7CHTO   H59 2842   6.848   0.460   2.698  0.7379  0.1204 -0.0167
    7CHTO   C29 2843   6.642   0.449   2.640 -0.5148 -0.3398 -0.0381
    7CHTO   H57 2844   6.556   0.515   2.658 -0.0097 -0.2733  2.2928
    7CHTO   O21 2845   6.625   0.328   2.724 -0.2035  0.3025  0.0272
    7CHTO   H37 2846   6.539   0.291   2.710 -0.4177  0.3115  1.3049
    7CHTO   C27 2847   6.644   0.415   2.487  0.3976 -0.4161 -0.2418
    7CHTO   H55 2848   6.727   0.345   2.469  0.3574 -1.1018  2.0516
    7CHTO    N5 2849   6.518   0.359   2.433 -0.4516 -0.2496 -0.0395
    7CHTO   H43 2850   6.448   0.301   2.491 -0.0966 -0.4652  0.1729
    7CHTO   H44 2851   6.538   0.300   2.345  0.4385  0.5927 -0.4119
    7CHTO   C25 2852   6.701   0.544   2.409 -0.4177 -0.8476  0.4555
    7CHTO   H53 2853   6.629   0.628   2.403 -0.7660 -1.1541  0.3154
    7CHTO   O17 2854   6.827   0.594   2.467  0.1120  0.1822 -0.1122
    7CHTO   C32 2855   6.807   0.644   2.600  0.1273 -0.2380 -0.0614
    7CHTO   H60 2856   6.734   0.725   2.600  1.8795  1.3923  0.9632
    7CHTO   C36 2857   6.944   0.701   2.636  0.2039  0.0364 -0.1568
    7CHTO   O25 2858   6.968   0.826   2.568  0.6660  0.0114  0.0745
    7CHTO   H40 2859   6.912   0.899   2.589  2.2637  0.6901  2.1664
    7CHTO   O15 2860   6.739   0.508   2.272  0.3295  0.5114 -0.0716
    7CHTO   C19 2861   6.737   0.585   2.148 -0.0026 -0.7879  0.2035
    7CHTO   H47 2862   6.781   0.520   2.070 -0.1116  0.2508 -0.7354
    7CHTO   C20 2863   6.587   0.605   2.101  0.4348 -0.3081  0.3409
    7CHTO   H48 2864   6.523   0.636   2.185  2.6636 -0.1680  2.0545
    7CHTO   O19 2865   6.535   0.471   2.069 -0.4822  0.1108  0.5064
    7CHTO   H35 2866   6.446   0.472   2.042  0.5437 -0.6805 -3.1384
    7CHTO   C21 2867   6.579   0.708   1.984  0.1812  0.7303  0.2245
    7CHTO   H49 2868   6.626   0.660   1.898  0.2124  0.6645  0.2788
    7CHTO    N4 2869   6.442   0.731   1.944  0.0436  0.2720  0.2654
    7CHTO   H41 2870   6.417   0.653   1.875  3.3615  0.1802 -0.9006
    7CHTO   H42 2871   6.452   0.819   1.882  1.8081 -1.2134 -1.6157
    7CHTO   C22 2872   6.659   0.834   2.020  0.4889  0.2842 -0.6413
    7CHTO   H50 2873   6.617   0.876   2.112 -0.6271 -0.2087 -0.9195
    7CHTO   O14 2874   6.795   0.799   2.037 -0.6233  0.5482  0.1356
    7CHTO   C23 2875   6.818   0.717   2.152 -0.1296  0.4984  0.3521
    7CHTO   H51 2876   6.789   0.777   2.239 -0.3566  0.8390  0.0421
    7CHTO   C34 2877   6.964   0.666   2.149  0.5142 -0.7404 -0.1137
    7CHTO   O23 2878   7.051   0.760   2.215 -0.2733  0.3757 -0.8776
    7CHTO   H38 2879   7.094   0.805   2.145  1.4420  0.6257  0.3252
    7CHTO   O16 2880   6.676   0.932   1.914 -0.2617 -0.2562 -0.2144
    7CHTO   C24 2881   6.681   1.090   1.962 -0.2850 -0.2597  0.2342
    7CHTO   H52 2882   6.679   1.096   2.071  0.2813 -1.5359  0.3239
    7CHTO   C26 2883   6.555   1.173   1.913 -0.0214 -0.1725  0.8756
    7CHTO   H54 2884   6.555   1.172   1.802 -1.7073  0.6052  0.8574
    7CHTO   O20 2885   6.436   1.116   1.960  0.2916  0.6686 -0.7982
    7CHTO   H36 2886   6.446   1.095   2.051 -0.1608 -3.9826 -1.6802
    7CHTO   C30 2887   6.570   1.325   1.959 -0.4770 -0.8167 -0.1128
    7CHTO   H58 2888   6.556   1.345   2.067 -3.3339  3.2275 -1.1207
    7CHTO    N6 2889   6.454   1.397   1.914 -0.2850 -0.5521  0.3285
    7CHTO   H45 2890   6.442   1.486   1.975 -1.4930  0.4353 -1.3090
    7CHTO   H46 2891   6.363   1.339   1.919 -0.4883 -0.3429 -0.8208
    7CHTO   C33 2892   6.713   1.375   1.906  0.0923 -0.2093  0.5802
    7CHTO   H61 2893   6.720   1.363   1.797 -0.6079 -3.1931  0.7915
    7CHTO   O18 2894   6.815   1.297   1.955 -0.2895 -0.6060  0.8828
    7CHTO   C28 2895   6.813   1.156   1.918 -0.6093  0.0317  0.3322
    7CHTO   H56 2896   6.829   1.138   1.812 -0.3282 -2.1634  0.7370
    7CHTO   C35 2897   6.931   1.093   1.989  0.2262  0.4748 -0.1300
    7CHTO   O24 2898   6.975   0.957   1.956 -0.5304  0.0714 -0.1046
    7CHTO   H39 2899   6.957   0.950   1.864  1.1120  0.6788 -0.4929
    7CHTO    O9 2900   6.736   1.514   1.933  0.1053  0.1158  0.1734
    7CHTO   C13 2901   6.851   1.592   1.859 -0.0050  0.0841  0.0523
    7CHTO   H26 2902   6.847   1.558   1.754  1.8700 -0.7198  0.2275
    7CHTO   C11 2903   6.993   1.558   1.925  0.4127 -0.4181  0.5627
    7CHTO   H24 2904   7.021   1.460   1.883  0.6982 -1.4025  3.0106
    7CHTO    O8 2905   6.984   1.562   2.062  0.5957 -0.3781 -0.3816
    7CHTO    H3 2906   7.072   1.554   2.094  1.1433  0.0444 -1.7031
    7CHTO    C9 2907   7.099   1.661   1.867  0.4956  0.9062 -0.0965
    7CHTO   H22 2908   7.087   1.665   1.757 -1.6561  0.3606  0.1082
    7CHTO    N2 2909   7.241   1.617   1.891 -0.2133  0.3703  0.3571
    7CHTO   H10 2910   7.262   1.523   1.842  0.5293  1.4506 -1.4508
    7CHTO   H11 2911   7.267   1.615   1.996  1.3863  1.0586 -0.0159
    7CHTO    C7 2912   7.064   1.801   1.905  0.2943 -0.0063 -0.1754
    7CHTO   H20 2913   7.128   1.862   1.837  0.2157  1.6847  1.2089
    7CHTO    O4 2914   6.928   1.837   1.876  0.3783 -0.0570  0.0786
    7CHTO   C14 2915   6.818   1.756   1.857 -0.2161  0.1842  0.5009
    7CHTO   H27 2916   6.789   1.789   1.755 -0.6839 -0.8687  0.2887
    7CHTO   C18 2917   6.699   1.805   1.951  0.1979  1.1346  0.2604
    7CHTO   O13 2918   6.736   1.892   2.058  0.1019 -0.0331 -0.3172
    7CHTO    H7 2919   6.664   1.935   2.099  0.8118  0.7624  0.0934
    7CHTO    O2 2920   7.102   1.840   2.050  0.6565  0.0286  0.4572
    7CHTO    C1 2921   7.158   1.974   2.054 -0.5892  0.0532  0.5126
    7CHTO   H14 2922   7.093   2.038   1.991 -2.0538 -1.9627 -0.0882
    7CHTO    C2 2923   7.309   1.993   2.009 -0.3217 -0.1778 -0.0900
    7CHTO   H15 2924   7.354   1.899   2.046  0.5189 -0.5937 -2.1081
    7CHTO    O6 2925   7.316   1.998   1.864  0.5926 -0.0668  0.2042
    7CHTO    H1 2926   7.258   2.058   1.822  0.1669 -0.3890  0.3287
    7CHTO    C3 2927   7.384   2.117   2.074  0.8233 -0.6266  0.1330
    7CHTO   H16 2928   7.350   2.202   2.013  1.4157  1.0539  2.0430
    7CHTO    N1 2929   7.533   2.105   2.059 -0.2472 -0.0689 -0.1441
    7CHTO    H8 2930   7.586   2.079   2.149  1.1500  1.1218 -0.6070
    7CHTO    H9 2931   7.570   2.191   2.005 -0.0686  1.1619  1.8769
    7CHTO    C4 2932   7.341   2.155   2.223 -0.5303  0.0677 -0.0646
    7CHTO   H17 2933   7.383   2.083   2.293 -2.5117 -0.8091  0.2288
    7CHTO    O1 2934   7.192   2.147   2.230  0.2913 -0.1329  0.5530
    7CHTO    C5 2935   7.133   2.020   2.198  0.1588 -0.4116 -0.1969
    7CHTO   H18 2936   7.179   1.947   2.265 -1.6122 -1.6499 -0.3022
    7CHTO   C16 2937   6.987   2.030   2.234  0.8664  0.2304 -0.6765
    7CHTO   O11 2938   6.925   1.909   2.280 -0.3106  0.7863 -1.0456
    7CHTO    H5 2939   6.842   1.924   2.321  0.5742 -0.0245  1.1417
    7CHTO    O3 2940   7.360   2.288   2.272 -0.4652 -0.4120 -0.3747
    7CHTO    C6 2941   7.436   2.313   2.393  1.0450  0.6280  0.4835
    7CHTO   H19 2942   7.448   2.218   2.444 -0.5887 -0.7490 -1.6353
    7CHTO    C8 2943   7.571   2.391   2.364  0.7618  0.2650  0.2842
    7CHTO   H21 2944   7.549   2.472   2.295  0.5215 -1.4592 -1.7116
    7CHTO    O7 2945   7.651   2.291   2.314 -0.2104 -0.3881 -0.1669
    7CHTO    H2 2946   7.634   2.258   2.228  0.1826 -1.0061 -0.0078
    7CHTO   C12 2947   7.632   2.464   2.490 -0.9927 -0.1957 -1.0525
    7CHTO   H25 2948   7.667   2.385   2.560 -0.5503  0.8305 -0.1039
    7CHTO    N3 2949   7.749   2.561   2.466  0.7269  0.0609 -0.4730
    7CHTO   H12 2950   7.717   2.641   2.401 -1.3078 -0.6404 -0.3559
    7CHTO   H13 2951   7.829   2.508   2.416 -1.4757 -3.1774 -0.7297
    7CHTO   C15 2952   7.514   2.547   2.565 -0.3703  0.2165  0.2742
    7CHTO   H28 2953   7.468   2.623   2.502  0.2025 -0.9630 -1.6160
    7CHTO   O10 2954   7.547   2.605   2.704 -0.1412  0.1022 -0.2009
    7CHTO    H4 2955   7.574   2.536   2.763 -1.1044 -0.1596 -0.0520
    7CHTO    O5 2956   7.418   2.450   2.590 -0.0105 -0.3088  0.2420
    7CHTO   C10 2957   7.339   2.401   2.480  0.1078 -0.0479  0.8743
    7CHTO   H23 2958   7.294   2.487   2.431  1.7687  0.6274  0.5023
    7CHTO   C17 2959   7.223   2.311   2.531  0.0664  0.6533  0.3047
    7CHTO   O12 2960   7.135   2.397   2.591 -0.0162 -0.6025 -0.5092
    7CHTO    H6 2961   7.048   2.382   2.560  0.4278 -2.0372 -1.1027
    8CHTO  H203 2962   7.051   9.065   1.031 -0.3620 -2.3212 -0.8513
    8CHTO   O82 2963   7.089   9.050   1.115  0.6543  0.4329 -0.7589
    8CHTO  C123 2964   6.978   9.028   1.213 -0.1988 -0.4702 -0.3644
    8CHTO  H227 2965   7.026   9.027   1.312 -2.0230 -3.4474  0.5623
    8CHTO   O77 2966   6.891   9.139   1.199  0.9956  0.7422  0.1666
    8CHTO  C118 2967   6.788   9.155   1.297 -0.0675  0.1864 -0.3873
    8CHTO  H222 2968   6.830   9.172   1.397 -1.5614 -1.9208  0.6429
    8CHTO  C125 2969   6.704   9.280   1.250 -0.4391 -0.3530 -0.0381
    8CHTO   O84 2970   6.780   9.402   1.249 -0.5647 -0.0035 -0.0831
    8CHTO  H205 2971   6.864   9.397   1.208 -0.2223  3.6275 -0.0145
    8CHTO  C114 2972   6.702   9.032   1.301  0.2761 -0.2628 -0.3340
    8CHTO  H218 2973   6.647   9.019   1.208  0.8100 -0.0349 -0.6819
    8CHTO  C116 2974   6.783   8.904   1.319 -0.4774 -0.3943  0.7839
    8CHTO  H220 2975   6.823   8.903   1.423  1.4070  2.6841  0.1453
    8CHTO   O79 2976   6.692   8.794   1.314 -0.4421 -0.2270 -0.0432
    8CHTO  H201 2977   6.736   8.724   1.359  0.4347 -0.0273 -0.5655
    8CHTO  C120 2978   6.893   8.890   1.200 -0.3024  0.4121  1.0150
    8CHTO  H224 2979   6.838   8.876   1.105 -1.8943  1.7495  1.7250
    8CHTO   N21 2980   6.980   8.773   1.213  0.4479 -0.0203  0.0917
    8CHTO  H211 2981   7.055   8.792   1.288  0.5194 -1.9268  0.5349
    8CHTO  H212 2982   6.932   8.677   1.229 -0.4852  0.6592  1.4319
    8CHTO   O75 2983   6.608   9.049   1.408 -0.1064 -1.0248  0.5908
    8CHTO  C112 2984   6.482   8.997   1.377 -0.7825 -0.2567  0.2913
    8CHTO  H216 2985   6.484   8.912   1.307  2.3172 -0.3812  0.4824
    8CHTO   O73 2986   6.416   9.113   1.316  0.6840  0.7034  0.3004
    8CHTO  C113 2987   6.273   9.099   1.297 -0.0059 -0.2555 -0.1073
    8CHTO  H217 2988   6.250   9.004   1.243  0.4669 -0.7812  0.6129
    8CHTO  C124 2989   6.229   9.212   1.202 -0.3311 -0.3009  0.2529
    8CHTO   O83 2990   6.297   9.211   1.079  0.3336  0.0606 -0.1890
    8CHTO  H204 2991   6.344   9.292   1.069 -0.5052  0.6023  0.2248
    8CHTO  C109 2992   6.205   9.095   1.435 -1.1005  1.0201 -0.2999
    8CHTO  H213 2993   6.240   9.185   1.488  1.8989  0.9458 -2.0339
    8CHTO  C110 2994   6.251   8.965   1.506 -0.4473 -0.0691 -0.1705
    8CHTO  H214 2995   6.206   8.876   1.462 -1.6558 -0.2132  1.3108
    8CHTO   O78 2996   6.189   8.956   1.636 -0.0856 -0.7973  0.1015
    8CHTO  H200 2997   6.233   8.997   1.708  2.6385 -2.0801 -0.7937
    8CHTO  C111 2998   6.411   8.957   1.517  0.2471  0.1970  0.4658
    8CHTO  H215 2999   6.455   9.034   1.581 -1.7306  1.0092  0.8720
    8CHTO   N19 3000   6.453   8.826   1.573  0.0764  0.0441  0.2679
    8CHTO  H207 3001   6.391   8.809   1.660 -1.0185 -1.3313 -0.7586
    8CHTO  H208 3002   6.560   8.838   1.584 -0.0498 -0.7189  2.4252
    8CHTO   O74 3003   6.059   9.094   1.429  0.0588  0.6365  0.0757
    8CHTO  C115 3004   5.981   8.974   1.360 -0.0870 -0.4626  0.6441
    8CHTO  H219 3005   6.045   8.908   1.301 -2.3965 -0.3071 -2.0976
    8CHTO   O76 3006   5.915   8.870   1.479 -0.3050 -0.5131  0.9741
    8CHTO  C122 3007   5.826   8.934   1.572 -0.5307  0.6524  0.4868
    8CHTO  H226 3008   5.886   9.004   1.630 -0.0973  0.6435  0.0574
    8CHTO  C126 3009   5.789   8.815   1.664  0.3917  0.6510  0.0493
    8CHTO   O85 3010   5.740   8.852   1.792 -0.2032  0.4267  0.6740
    8CHTO  H206 3011   5.810   8.890   1.840  0.6362  2.0550 -1.7720
    8CHTO  C121 3012   5.708   9.002   1.486  0.3144  0.4010  0.4871
    8CHTO  H225 3013   5.663   8.911   1.439  1.5958 -0.0426  0.1045
    8CHTO   O81 3014   5.612   9.068   1.576  0.1234  0.2734 -0.4644
    8CHTO  H202 3015   5.525   9.041   1.556  0.1728 -0.2378  0.0114
    8CHTO  C119 3016   5.766   9.097   1.375  0.3833 -0.2853 -0.4035
    8CHTO  H223 3017   5.684   9.126   1.310  0.4664 -1.0267 -0.8516
    8CHTO  C117 3018   5.868   9.033   1.278 -0.5089 -0.7803  0.3797
    8CHTO  H221 3019   5.919   9.103   1.212 -1.6056  2.1665  2.5362
    8CHTO   N20 3020   5.804   8.926   1.188 -0.3854 -0.0455 -0.3400
    8CHTO  H209 3021   5.871   8.899   1.108 -0.1291 -4.1488  1.1071
    8CHTO  H210 3022   5.775   8.839   1.246 -0.4861  0.9089  1.0503
    8CHTO   O80 3023   5.821   9.245   1.430  0.2127  0.7332 -0.1527
    8CHTO  C103 3024   5.731   9.390   1.407  0.2436  0.8545 -0.1082
    8CHTO  H190 3025   5.625   9.370   1.392  0.6647 -1.3283 -0.2638
    8CHTO  C101 3026   5.743   9.509   1.520  0.0803  0.1060  0.0027
    8CHTO  H188 3027   5.849   9.510   1.546  0.0493  2.3390  0.1878
    8CHTO   O68 3028   5.659   9.473   1.641 -0.4564  0.3526  0.0239
    8CHTO  H168 3029   5.657   9.544   1.702  0.1566  1.4120 -1.1507
    8CHTO   C99 3030   5.702   9.651   1.467 -0.4587  0.3087  1.0112
    8CHTO  H186 3031   5.596   9.644   1.434  0.4751 -0.7755 -1.9309
    8CHTO   N17 3032   5.702   9.768   1.554  0.8653 -0.0617  0.3181
    8CHTO  H174 3033   5.615   9.761   1.618  1.1303  1.0345  0.8241
    8CHTO  H175 3034   5.681   9.852   1.489 -1.3474 -1.1545 -0.3971
    8CHTO   C97 3035   5.774   9.682   1.333 -0.0682  0.0746  0.4772
    8CHTO  H184 3036   5.882   9.680   1.350  0.0912 -1.5629 -0.5632
    8CHTO   O64 3037   5.737   9.578   1.239 -0.7029  0.0772  0.0849
    8CHTO  C104 3038   5.784   9.447   1.275 -0.5122 -0.8454 -0.1481
    8CHTO  H191 3039   5.893   9.448   1.275 -0.5081  0.4652 -0.7764
    8CHTO  C108 3040   5.748   9.365   1.151  0.0949 -0.3992  0.1127
    8CHTO   O71 3041   5.819   9.407   1.038  0.1516  0.2149  0.4965
    8CHTO  H171 3042   5.907   9.421   1.067  0.0064  0.5109  0.8091
    8CHTO   O62 3043   5.730   9.795   1.255 -0.3029  0.3971 -0.3367
    8CHTO   C91 3044   5.822   9.863   1.171  0.1483 -0.4464 -0.7468
    8CHTO  H178 3045   5.912   9.802   1.181 -0.9502 -1.9864  0.0014
    8CHTO   C92 3046   5.855   9.996   1.250 -0.3617  0.0195  0.3098
    8CHTO  H179 3047   5.765  10.049   1.282 -1.0021 -2.2651  2.4148
    8CHTO   O66 3048   5.918   9.972   1.375  0.4343  0.8517 -0.0850
    8CHTO  H166 3049   5.921  10.051   1.425  2.2263 -0.2826  1.6702
    8CHTO   C93 3050   5.945  10.094   1.157 -0.0544  0.3537 -0.3636
    8CHTO  H180 3051   6.045  10.050   1.141 -1.2649 -1.5966 -2.9476
    8CHTO   N16 3052   5.957  10.221   1.218  0.4073 -0.3670 -0.0296
    8CHTO  H172 3053   5.995  10.210   1.319 -1.5324 -1.6065  0.6119
    8CHTO  H173 3054   6.018  10.279   1.151 -0.4850  1.8996  1.0557
    8CHTO   C94 3055   5.878  10.103   1.015  0.3588  0.5148  0.2731
    8CHTO  H181 3056   5.775  10.140   1.015 -1.1533 -3.4324 -0.2640
    8CHTO   O61 3057   5.882   9.967   0.965  0.5968  0.0501  0.3461
    8CHTO   C95 3058   5.777   9.884   1.020  0.6063  0.2338  0.8155
    8CHTO  H182 3059   5.683   9.938   1.020  1.1283  1.1544  0.8596
    8CHTO  C106 3060   5.760   9.749   0.932  0.0834  0.2514  0.6706
    8CHTO   O69 3061   5.642   9.679   0.969 -0.5195 -0.9076 -0.2066
    8CHTO  H169 3062   5.568   9.722   0.929 -0.5717 -0.7968  0.0054
    8CHTO   O63 3063   5.980  10.206   0.909  0.4070 -0.2334 -0.2648
    8CHTO   C96 3064   5.903  10.213   0.763 -0.2507 -0.1631 -0.1084
    8CHTO  H183 3065   5.837  10.127   0.760 -0.6150  0.0596  1.1710
    8CHTO   C98 3066   5.999  10.221   0.639 -0.6879 -0.3417 -0.0921
    8CHTO  H185 3067   6.071  10.303   0.651 -0.3824 -0.3914 -1.4720
    8CHTO   O67 3068   6.084  10.106   0.650 -0.6069 -0.1892  0.1572
    8CHTO  H167 3069   6.120  10.069   0.572 -1.7425 -0.4721 -0.2465
    8CHTO  C102 3070   5.922  10.226   0.494 -0.4877 -0.6794  0.3060
    8CHTO  H189 3071   5.873  10.128   0.484 -0.2136 -0.9438  1.5158
    8CHTO   N18 3072   6.006  10.243   0.374 -0.0062 -0.2513 -0.0349
    8CHTO  H176 3073   5.966  10.185   0.292  0.8790 -2.2924  0.9517
    8CHTO  H177 3074   6.105  10.207   0.398  0.2737 -0.8248 -1.9281
    8CHTO  C105 3075   5.812  10.338   0.503 -1.1205 -0.1562 -0.5396
    8CHTO  H192 3076   5.857  10.437   0.497 -0.2270 -0.3776  1.7882
    8CHTO   O65 3077   5.739  10.333   0.631 -0.2445 -0.5582 -0.1266
    8CHTO  C100 3078   5.813  10.345   0.752  0.1322  0.5237 -0.4227
    8CHTO  H187 3079   5.890  10.424   0.749  0.9767 -0.0794  2.6859
    8CHTO  C107 3080   5.712  10.371   0.863 -0.1992  0.1142 -0.4700
    8CHTO   O70 3081   5.770  10.405   0.979  0.1041  0.1949  0.0631
    8CHTO  H170 3082   5.725  10.356   1.045  0.0861 -0.0538 -0.1357
    8CHTO   O57 3083   5.690  10.315   0.384  0.2382  0.2264 -0.2423
    8CHTO   C85 3084   5.637  10.430   0.308  0.0358 -0.0155 -0.1146
    8CHTO  H157 3085   5.726  10.474   0.259  0.2141  1.2964  1.3383
    8CHTO   C83 3086   5.586  10.540   0.396 -0.0602 -0.4756 -0.5031
    8CHTO  H155 3087   5.680  10.585   0.425  0.2123 -0.7054 -1.0348
    8CHTO   O56 3088   5.514  10.480   0.507 -0.6379 -0.3040 -0.1085
    8CHTO  H135 3089   5.476  10.548   0.559  0.5559  0.5213 -0.2840
    8CHTO   C81 3090   5.509  10.648   0.313 -0.3354  0.4084  1.2544
    8CHTO  H153 3091   5.577  10.679   0.235 -0.7300 -0.8241  0.4007
    8CHTO   N14 3092   5.478  10.764   0.399 -0.0717  0.5569 -0.0124
    8CHTO  H141 3093   5.406  10.749   0.476 -1.4183  0.0256 -1.3434
    8CHTO  H142 3094   5.445  10.844   0.337 -2.0397 -0.5207 -0.4102
    8CHTO   C79 3095   5.384  10.578   0.240  0.1490  0.1374 -0.2259
    8CHTO  H151 3096   5.339  10.658   0.181  0.4171 -0.2664 -0.9806
    8CHTO   O52 3097   5.427  10.480   0.147  0.0493  0.3245 -0.0434
    8CHTO   C86 3098   5.521  10.377   0.199  0.1369  0.2663 -0.7644
    8CHTO  H158 3099   5.462  10.299   0.252  0.9220 -0.0494 -0.3328
    8CHTO   C90 3100   5.596  10.297   0.093 -0.9269 -0.1184 -0.2364
    8CHTO   O60 3101   5.508  10.198   0.028 -0.4253  0.9092  0.1345
    8CHTO  H138 3102   5.560  10.153  -0.035  1.0833  2.1604  0.4734
    8CHTO   O50 3103   5.293  10.518   0.328  0.4448  0.2137  0.7359
    8CHTO   C73 3104   5.148  10.503   0.299 -0.2584  0.4320  0.3034
    8CHTO  H145 3105   5.134  10.470   0.195  1.0052 -0.5110  0.4110
    8CHTO   C74 3106   5.065  10.634   0.308  0.2114 -0.1334 -0.1629
    8CHTO  H146 3107   5.101  10.705   0.232 -0.2901  0.0019 -0.2817
    8CHTO   O54 3108   4.932  10.616   0.270  0.3741  0.0560  0.1852
    8CHTO  H133 3109   4.942  10.608   0.177 -2.3504 -1.2450 -0.0467
    8CHTO   C75 3110   5.083  10.692   0.456 -0.1231  0.0391  0.5356
    8CHTO  H147 3111   5.191  10.703   0.471 -0.2595  0.6462  1.1095
    8CHTO   N13 3112   5.016  10.823   0.483 -0.2650 -0.4505 -0.6010
    8CHTO  H139 3113   4.966  10.866   0.397 -0.7989  0.2555  0.0583
    8CHTO  H140 3114   5.095  10.890   0.513 -0.2346 -0.7130 -0.0965
    8CHTO   C76 3115   5.055  10.574   0.567  0.4800 -0.6974 -0.5184
    8CHTO  H148 3116   4.946  10.571   0.575  0.4037  1.6179 -0.3825
    8CHTO   O49 3117   5.117  10.442   0.528 -0.0378  0.6552  0.5879
    8CHTO   C77 3118   5.091  10.401   0.394  0.6018  0.2415 -0.3929
    8CHTO  H149 3119   4.983  10.399   0.385  0.4387  0.2630  1.5325
    8CHTO   C88 3120   5.145  10.257   0.359 -0.3221 -0.6742 -0.2670
    8CHTO   O58 3121   5.086  10.186   0.224 -0.0564 -0.2359  0.2235
    8CHTO  H136 3122   4.994  10.169   0.224 -0.5028  1.6297 -3.2606
    8CHTO   O51 3123   5.126  10.608   0.698  0.0085 -0.8816  0.5134
    8CHTO   C78 3124   5.130  10.508   0.807  0.0826 -0.5458  0.4388
    8CHTO  H150 3125   5.160  10.410   0.764  0.8105 -0.1124 -0.0508
    8CHTO   C80 3126   4.995  10.500   0.875 -0.4841  0.3059  0.4789
    8CHTO  H152 3127   4.973  10.605   0.903  0.4999  0.2849  1.3742
    8CHTO   O55 3128   4.901  10.435   0.788 -0.9849  0.0233 -0.7214
    8CHTO  H134 3129   4.817  10.453   0.825  0.7451  3.6750  1.7325
    8CHTO   C84 3130   5.005  10.426   1.016 -0.3371 -0.5551 -0.1898
    8CHTO  H156 3131   5.000  10.319   0.996 -0.5187 -0.7541  0.8882
    8CHTO   N15 3132   4.890  10.461   1.109  0.0859 -0.2907  0.1420
    8CHTO  H143 3133   4.875  10.368   1.159  0.4592 -1.4788 -1.9366
    8CHTO  H144 3134   4.925  10.536   1.177  1.0142 -1.3468  0.8452
    8CHTO   C87 3135   5.136  10.451   1.096 -0.1066 -0.5295 -0.0616
    8CHTO  H159 3136   5.133  10.541   1.158  1.9791  0.9334 -2.0280
    8CHTO   O53 3137   5.266  10.449   1.003 -0.7187 -0.3291 -0.6989
    8CHTO   C82 3138   5.241  10.552   0.906  0.4115 -0.2096  0.0399
    8CHTO  H154 3139   5.213  10.644   0.958  1.4791  1.2286 -1.8560
    8CHTO   C89 3140   5.374  10.582   0.826 -0.6994  0.3121  0.2283
    8CHTO   O59 3141   5.470  10.615   0.930  0.4615 -0.3060  0.4609
    8CHTO  H137 3142   5.504  10.702   0.916 -0.2333  0.1909  1.7553
    8CHTO   O45 3143   5.148  10.332   1.219  0.0262  0.1696 -0.1416
    8CHTO   C67 3144   5.184  10.201   1.162  0.5835 -0.6142  0.8063
    8CHTO  H124 3145   5.152  10.201   1.058 -2.0496 -2.7611  1.5628
    8CHTO   C65 3146   5.337  10.173   1.177 -0.4648  0.7865  0.0641
    8CHTO  H122 3147   5.402  10.254   1.143 -2.3119  2.4684  0.4718
    8CHTO   O44 3148   5.387  10.065   1.096  0.0826  0.0187  0.1020
    8CHTO  H102 3149   5.311  10.035   1.051  0.8569 -0.4479 -0.9137
    8CHTO   C63 3150   5.368  10.158   1.330  1.0303 -0.6553  0.0948
    8CHTO  H120 3151   5.323  10.243   1.382  0.2910 -0.3689 -1.0102
    8CHTO   N11 3152   5.511  10.180   1.365 -0.3368  0.5028  0.1307
    8CHTO  H108 3153   5.560  10.085   1.371  0.1905  0.6872 -0.9983
    8CHTO  H109 3154   5.570  10.236   1.295 -0.0999 -1.7648 -1.5579
    8CHTO   C61 3155   5.297  10.037   1.393  0.4622  0.2084 -0.7996
    8CHTO  H118 3156   5.309  10.032   1.502  0.2441 -1.8542 -0.8483
    8CHTO   O40 3157   5.146  10.050   1.365 -0.4418  0.1605  0.0007
    8CHTO   C68 3158   5.101  10.098   1.233 -0.2051  0.1839 -0.0772
    8CHTO  H125 3159   5.005  10.152   1.242 -0.9116 -1.1400  0.4999
    8CHTO   C72 3160   5.076   9.980   1.139  0.4682 -0.1737 -0.0340
    8CHTO   O48 3161   4.993   9.886   1.210  0.7085  0.2674  0.1870
    8CHTO  H105 3162   5.037   9.858   1.288  1.2239  0.4119 -0.0437
    8CHTO   O38 3163   5.345   9.910   1.339 -0.2429  0.1622  0.2742
    8CHTO   C55 3164   5.275   9.787   1.374  0.2002 -0.3536  0.0220
    8CHTO  H112 3165   5.169   9.790   1.346 -0.1248  1.2905  1.3644
    8CHTO   C56 3166   5.296   9.739   1.526  0.0460 -0.4025 -0.4068
    8CHTO  H113 3167   5.402   9.728   1.553 -0.2788  1.9304  2.0760
    8CHTO   O42 3168   5.251   9.830   1.630 -0.1894 -0.0730  0.2708
    8CHTO  H100 3169   5.277   9.919   1.619  0.5698 -0.1798  1.0814
    8CHTO   C57 3170   5.227   9.599   1.557 -0.1567  0.5507  0.6729
    8CHTO  H114 3171   5.121   9.622   1.554 -0.3949 -0.6463 -1.3531
    8CHTO   N10 3172   5.250   9.541   1.692  0.5252 -0.9925 -0.0892
    8CHTO  H106 3173   5.342   9.485   1.696  1.3474  0.3342 -0.3606
    8CHTO  H107 3174   5.253   9.615   1.770 -0.6282 -0.7208 -0.2910
    8CHTO   C58 3175   5.258   9.493   1.449 -0.4222  0.2195  0.1690
    8CHTO  H115 3176   5.362   9.456   1.463 -0.3137  0.4577 -0.0020
    8CHTO   O37 3177   5.243   9.551   1.320 -0.0893  0.0929  0.0651
    8CHTO   C59 3178   5.329   9.668   1.293 -0.4100 -0.0098  0.3653
    8CHTO  H116 3179   5.433   9.643   1.314  0.3307  1.3950 -1.5761
    8CHTO   C70 3180   5.330   9.704   1.144  0.0938 -0.1110  0.7217
    8CHTO   O46 3181   5.356   9.594   1.057  0.1635  0.7762  0.0515
    8CHTO  H103 3182   5.423   9.613   0.994 -0.7981  0.3474 -1.1093
    8CHTO   O39 3183   5.160   9.361   1.448  0.1372 -1.0249 -0.3080
    8CHTO   C60 3184   5.015   9.380   1.421 -0.1009 -0.0808 -0.2603
    8CHTO  H117 3185   4.981   9.471   1.469  2.8051 -0.0616  1.9267
    8CHTO   C62 3186   4.985   9.382   1.271  0.4853 -0.0101  0.6759
    8CHTO  H119 3187   5.041   9.466   1.225  0.7424 -0.3737  0.3119
    8CHTO   O43 3188   5.028   9.263   1.202 -0.6766  0.4878  0.0233
    8CHTO  H101 3189   4.973   9.188   1.210  1.4315 -1.3795 -2.4548
    8CHTO   C66 3190   4.831   9.423   1.250 -0.0792  0.6952 -0.3012
    8CHTO  H123 3191   4.810   9.508   1.315 -0.8763  2.0266 -2.2223
    8CHTO   N12 3192   4.802   9.478   1.115 -0.3509  0.5848 -0.1313
    8CHTO  H110 3193   4.765   9.576   1.141  2.7838  0.8692  3.7281
    8CHTO  H111 3194   4.727   9.418   1.067  2.1253 -1.3871 -1.7039
    8CHTO   C69 3195   4.742   9.304   1.297  0.4450  0.6266 -0.6015
    8CHTO  H126 3196   4.748   9.218   1.227  3.5687 -0.4314  0.8554
    8CHTO   O41 3197   4.791   9.262   1.450 -0.0888  0.5448  1.1191
    8CHTO   C64 3198   4.939   9.263   1.488  0.2120  0.3522  0.0242
    8CHTO  H121 3199   4.978   9.166   1.451 -1.7653  0.6118 -2.9848
    8CHTO   C71 3200   4.948   9.264   1.645 -0.7743 -0.4950  0.2392
    8CHTO   O47 3201   4.875   9.362   1.710  0.8872  0.1688 -0.3025
    8CHTO  H104 3202   4.785   9.336   1.718  1.1283 -1.0575 -1.4740
    8CHTO   O34 3203   4.593   9.339   1.294  0.4487 -0.0514  0.2492
    8CHTO   C49 3204   4.502   9.390   1.399 -0.3519 -0.0553 -0.5084
    8CHTO   H91 3205   4.490   9.318   1.479 -2.1862 -0.0824 -0.7858
    8CHTO   C47 3206   4.362   9.413   1.331  0.7338  0.4558 -0.2712
    8CHTO   H89 3207   4.299   9.448   1.414  0.4208  0.1677 -0.3872
    8CHTO   O33 3208   4.295   9.292   1.282  0.1941 -0.1378  0.5303
    8CHTO   H70 3209   4.327   9.216   1.326  2.0203 -0.6183 -1.5182
    8CHTO   C45 3210   4.382   9.522   1.212 -0.9695 -0.0904  0.6267
    8CHTO   H87 3211   4.465   9.487   1.149 -1.8592 -0.1637 -0.5181
    8CHTO    N8 3212   4.260   9.539   1.124  0.0229  0.7513  0.0728
    8CHTO   H75 3213   4.298   9.530   1.024  0.8164  0.1620  0.4188
    8CHTO   H76 3214   4.182   9.470   1.152  1.2155 -0.9715 -0.7938
    8CHTO   C43 3215   4.438   9.654   1.284 -0.3801 -1.0896  0.0794
    8CHTO   H85 3216   4.464   9.727   1.208 -1.8553  0.6552  1.2284
    8CHTO   O29 3217   4.541   9.642   1.385 -0.8375  0.4053  0.4477
    8CHTO   C50 3218   4.549   9.520   1.457  0.2107  0.5839  0.5039
    8CHTO   H92 3219   4.654   9.497   1.480  0.0493 -1.5174 -0.7622
    8CHTO   C54 3220   4.491   9.547   1.596  0.6468 -0.7205  0.1994
    8CHTO   O36 3221   4.592   9.600   1.678 -0.8263 -0.3283  0.4117
    8CHTO   H72 3222   4.561   9.685   1.706 -1.4566 -0.3079 -0.3399
    8CHTO   O27 3223   4.326   9.721   1.351 -0.0929  0.4460  0.4310
    8CHTO   C37 3224   4.286   9.847   1.394  0.1603 -0.1964 -0.5840
    8CHTO   H79 3225   4.227   9.840   1.487 -0.6113  1.9939 -0.8838
    8CHTO   C38 3226   4.408   9.938   1.423 -0.5052  0.1799  0.0471
    8CHTO   H80 3227   4.479   9.925   1.341  0.2078  2.4802  0.2544
    8CHTO   O31 3228   4.463   9.886   1.541  0.3193  0.3483  0.7290
    8CHTO   H68 3229   4.527   9.818   1.528  0.3933  0.3604  1.0099
    8CHTO   C39 3230   4.368  10.083   1.441 -0.6941  0.2147  0.4338
    8CHTO   H81 3231   4.301  10.089   1.527 -2.5142 -1.4950 -0.8186
    8CHTO    N7 3232   4.489  10.178   1.456  0.7180  0.1705 -0.1903
    8CHTO   H73 3233   4.525  10.175   1.558  0.8428  0.4439 -0.2262
    8CHTO   H74 3234   4.446  10.277   1.457 -1.8759 -0.9178 -0.4654
    8CHTO   C40 3235   4.276  10.136   1.322  0.1552 -0.0045 -0.6018
    8CHTO   H82 3236   4.338  10.158   1.235  0.2033  1.9526 -0.1113
    8CHTO   O26 3237   4.165  10.047   1.301  0.0888 -0.4621  0.0493
    8CHTO   C41 3238   4.206   9.911   1.276  0.0617  0.1719 -0.6414
    8CHTO   H83 3239   4.274   9.918   1.190 -0.4038 -1.6613 -1.1747
    8CHTO   C52 3240   4.076   9.830   1.235  0.3015  0.3100 -0.3820
    8CHTO   O35 3241   4.011   9.892   1.108  0.7904 -0.8950  0.1213
    8CHTO   H71 3242   4.076   9.939   1.060  0.8286 -1.1568 -0.0878
    8CHTO   O28 3243   4.213  10.267   1.352 -0.3158  0.1334  0.1904
    8CHTO   C42 3244   4.168  10.359   1.253 -0.5915 -0.8206  0.5765
    8CHTO   H84 3245   4.139  10.450   1.306  1.7375  0.4631 -0.2794
    8CHTO   C44 3246   4.036  10.316   1.172 -0.0272 -0.0678 -0.1090
    8CHTO   H86 3247   4.051  10.217   1.129  2.1596  0.6626 -1.0875
    8CHTO   O32 3248   3.941  10.302   1.271  0.1083 -0.3476 -0.0880
    8CHTO   H69 3249   3.854  10.284   1.240 -0.3656  1.9882 -0.1591
    8CHTO   C48 3250   4.001  10.407   1.052  0.4782  0.5042  0.1627
    8CHTO   H90 3251   3.966  10.498   1.100  1.4568  0.8873  0.1503
    8CHTO    N9 3252   3.905  10.346   0.954  0.0653  0.7421  0.1858
    8CHTO   H77 3253   3.885  10.419   0.877 -1.1180  2.2658  1.9020
    8CHTO   H78 3254   3.811  10.307   0.990  0.7035  0.9997  2.1449
    8CHTO   C51 3255   4.133  10.444   0.968 -0.4876  0.4640  0.2474
    8CHTO   H93 3256   4.167  10.347   0.933 -0.9102  0.7000 -0.8276
    8CHTO   O30 3257   4.224  10.505   1.056 -0.3029  0.1834 -0.3057
    8CHTO   C46 3258   4.270  10.408   1.156 -0.8659 -0.3412  0.6705
    8CHTO   H88 3259   4.310  10.325   1.098 -2.9858 -2.0426  1.6100
    8CHTO   C53 3260   4.378  10.485   1.231  0.2113  0.6031 -0.1703
    8CHTO   O72 3261   4.480  10.522   1.140 -0.5972 -0.0228 -0.8936
    8CHTO  H199 3262   4.507  10.451   1.084 -0.3576  0.1693 -1.0253
    8CHTO   O22 3263   4.112  10.535   0.861  0.1298  0.4138  0.8960
    8CHTO   C31 3264   4.196  10.562   0.745  0.5434  0.4421  0.0769
    8CHTO   H59 3265   4.171  10.663   0.705  2.4188  0.5338 -0.9512
    8CHTO   C29 3266   4.347  10.570   0.780  0.3204 -0.0167 -0.4640
    8CHTO   H57 3267   4.378  10.477   0.831  1.5379  0.5569 -0.1445
    8CHTO   O21 3268   4.364  10.667   0.890 -0.4225  0.2428 -0.5668
    8CHTO   H37 3269   4.454  10.664   0.917  0.9198 -1.9828 -4.8415
    8CHTO   C27 3270   4.437  10.596   0.659 -0.1281 -0.0945 -0.1953
    8CHTO   H55 3271   4.411  10.693   0.614  1.2383  0.1900 -0.3652
    8CHTO    N5 3272   4.579  10.589   0.687 -0.2853 -0.4145 -0.0422
    8CHTO   H43 3273   4.633  10.614   0.596 -0.4281  0.4583  0.1025
    8CHTO   H44 3274   4.603  10.495   0.734 -2.1743 -1.8219 -1.7911
    8CHTO   C25 3275   4.408  10.485   0.549  0.8045  0.1840  0.4065
    8CHTO   H53 3276   4.422  10.382   0.585 -0.3852 -0.2724 -0.4340
    8CHTO   O17 3277   4.269  10.491   0.518 -0.4545 -0.4681  0.3244
    8CHTO   C32 3278   4.182  10.457   0.623  0.5051  0.9038 -0.1045
    8CHTO   H60 3279   4.209  10.357   0.657 -0.2130  0.2676 -1.3835
    8CHTO   C36 3280   4.031  10.451   0.580 -0.3079  0.8031 -0.1201
    8CHTO   O25 3281   4.022  10.347   0.487  0.4469  0.6395 -0.1551
    8CHTO   H40 3282   3.936  10.310   0.483 -0.3218  1.8427  3.3879
    8CHTO   O15 3283   4.485  10.519   0.405 -0.0023  0.3624 -0.4423
    8CHTO   C19 3284   4.503  10.426   0.292  0.6963  0.2905  0.3415
    8CHTO   H47 3285   4.415  10.362   0.309  0.8569  0.8000  3.4192
    8CHTO   C20 3286   4.487  10.490   0.153  0.1465  0.2524  0.7254
    8CHTO   H48 3287   4.562  10.569   0.139  1.0972 -0.3029  2.5457
    8CHTO   O19 3288   4.356  10.549   0.152  0.0205  0.4938  0.2464
    8CHTO   H35 3289   4.287  10.511   0.203 -1.3782  1.4686 -0.9088
    8CHTO   C21 3290   4.510  10.383   0.035  0.2446 -0.2583  0.3742
    8CHTO   H49 3291   4.426  10.314   0.037 -1.3554  1.6384  0.1765
    8CHTO    N4 3292   4.507  10.445  -0.100  0.3115  0.3655  0.0058
    8CHTO   H41 3293   4.592  10.406  -0.154  0.1690 -1.8354  1.3392
    8CHTO   H42 3294   4.499  10.553  -0.102 -0.5053  0.2991 -0.7858
    8CHTO   C22 3295   4.639  10.298   0.060  0.6694 -0.1009 -1.2808
    8CHTO   H50 3296   4.728  10.360   0.061  0.3965  0.2703 -0.0779
    8CHTO   O14 3297   4.618  10.242   0.195 -0.0227  0.0845 -0.2107
    8CHTO   C23 3298   4.627  10.335   0.298  0.6155 -0.1050 -0.5717
    8CHTO   H51 3299   4.721  10.390   0.284  1.0816 -0.0165  2.6309
    8CHTO   C34 3300   4.631  10.251   0.427 -0.5533  0.0867 -0.6984
    8CHTO   O23 3301   4.749  10.175   0.437 -0.2512 -0.3745  0.1166
    8CHTO   H38 3302   4.756  10.133   0.354  0.5891  1.9850 -1.0350
    8CHTO   O16 3303   4.641  10.178  -0.027  0.6839 -0.6527  0.4450
    8CHTO   C24 3304   4.801  10.113  -0.039  0.3934 -0.1655 -0.7522
    8CHTO   H52 3305   4.861  10.140   0.049  0.7237  1.0930 -1.3559
    8CHTO   C26 3306   4.875  10.177  -0.156 -0.7328 -0.2423 -0.4059
    8CHTO   H54 3307   4.803  10.203  -0.237 -1.9615 -1.0177  0.4135
    8CHTO   O20 3308   4.913  10.307  -0.106  0.3779 -0.2694 -0.0599
    8CHTO   H36 3309   4.938  10.365  -0.175  1.0939 -1.2828 -0.6772
    8CHTO   C30 3310   5.002  10.097  -0.202 -0.2423  0.1774  0.0827
    8CHTO   H58 3311   5.080  10.106  -0.125 -1.5257 -0.3739  1.4704
    8CHTO    N6 3312   5.066  10.146  -0.324 -0.3944  0.7797 -0.1575
    8CHTO   H45 3313   5.159  10.106  -0.359 -1.2199 -0.1461 -1.3401
    8CHTO   H46 3314   4.994  10.147  -0.405 -1.5613 -0.7122  0.8293
    8CHTO   C33 3315   4.977   9.941  -0.203 -0.5380 -0.4235 -0.3461
    8CHTO   H61 3316   4.896   9.927  -0.275 -0.8809  0.3440 -0.1118
    8CHTO   O18 3317   4.935   9.909  -0.068 -0.0820 -0.5885  0.1827
    8CHTO   C28 3318   4.805   9.958  -0.047  0.0347  0.0667  0.5526
    8CHTO   H56 3319   4.741   9.934  -0.132  0.1310 -1.0673  0.7829
    8CHTO   C35 3320   4.738   9.892   0.071 -0.2488 -0.0317  0.3022
    8CHTO   O24 3321   4.812   9.904   0.195  0.2237 -0.0003 -0.3278
    8CHTO   H39 3322   4.857   9.984   0.217  0.7312  0.1747 -1.9213
    8CHTO    O9 3323   5.083   9.856  -0.247  0.0176 -0.1077 -0.1813
    8CHTO   C13 3324   5.031   9.717  -0.306  0.1817  0.3756  0.2590
    8CHTO   H26 3325   4.929   9.734  -0.348  0.3039  1.2946  0.3285
    8CHTO   C11 3326   5.032   9.606  -0.198  0.1701  0.5431 -0.4513
    8CHTO   H24 3327   4.936   9.608  -0.145  1.5712 -0.6953  2.1991
    8CHTO    O8 3328   5.139   9.633  -0.106 -0.1869 -0.2010  0.1392
    8CHTO    H3 3329   5.144   9.719  -0.070  2.5328  0.3216 -1.3240
    8CHTO    C9 3330   5.031   9.463  -0.262 -0.0235 -0.6401 -0.9009
    8CHTO   H22 3331   4.947   9.468  -0.332 -0.5980 -1.5654 -0.3009
    8CHTO    N2 3332   4.988   9.355  -0.163 -0.4205 -0.4032  0.7836
    8CHTO   H10 3333   4.896   9.376  -0.111 -1.9170 -0.2439 -1.8547
    8CHTO   H11 3334   4.990   9.263  -0.221 -0.7870 -0.5118  0.9391
    8CHTO    C7 3335   5.168   9.442  -0.337  0.2532  0.3049 -0.9020
    8CHTO   H20 3336   5.158   9.375  -0.425  0.6489  1.9106 -2.2072
    8CHTO    O4 3337   5.223   9.568  -0.386 -0.1007 -0.4999 -0.5450
    8CHTO   C14 3338   5.120   9.663  -0.429  0.3024  0.0056 -0.5295
    8CHTO   H27 3339   5.052   9.611  -0.500  1.4462 -1.4947 -0.5593
    8CHTO   C18 3340   5.179   9.775  -0.504 -0.4617  0.2098  0.1123
    8CHTO   O13 3341   5.230   9.760  -0.631  0.0779  0.3799 -0.0347
    8CHTO    H7 3342   5.286   9.834  -0.647  2.4337 -1.1992  0.7002
    8CHTO    O2 3343   5.280   9.367  -0.231  0.2883 -0.0041 -0.3226
    8CHTO    C1 3344   5.410   9.348  -0.283 -0.0895  0.6073  0.2454
    8CHTO   H14 3345   5.435   9.428  -0.356  1.1289 -0.8919 -1.0023
    8CHTO    C2 3346   5.416   9.213  -0.361 -0.2228  0.4299 -0.5403
    8CHTO   H15 3347   5.380   9.126  -0.304 -1.4960  0.5945 -1.0824
    8CHTO    O6 3348   5.332   9.217  -0.482 -0.6632  0.0117 -0.2509
    8CHTO    H1 3349   5.355   9.296  -0.528  0.4625 -1.3014 -1.9562
    8CHTO    C3 3350   5.565   9.188  -0.407 -0.1199  0.4896 -0.0484
    8CHTO   H16 3351   5.600   9.249  -0.492  0.1366  1.4349  0.7309
    8CHTO    N1 3352   5.575   9.051  -0.458 -0.0376 -0.5423  0.4664
    8CHTO    H8 3353   5.526   8.979  -0.395  0.0239 -0.5375  0.5202
    8CHTO    H9 3354   5.678   9.020  -0.472  0.8058  1.9967  0.7991
    8CHTO    C4 3355   5.666   9.223  -0.290 -0.7122  0.0461  0.1462
    8CHTO   H17 3356   5.673   9.138  -0.222  0.2207 -0.1047 -0.1350
    8CHTO    O1 3357   5.646   9.349  -0.229  0.2589  0.5688 -0.2299
    8CHTO    C5 3358   5.515   9.360  -0.172 -0.4041 -1.1093  0.0537
    8CHTO   H18 3359   5.497   9.269  -0.114  0.1632  0.1278  2.1974
    8CHTO   C16 3360   5.500   9.486  -0.077  0.5209  0.7660  0.3325
    8CHTO   O11 3361   5.378   9.473   0.000  0.6618 -0.1442  0.4459
    8CHTO    H5 3362   5.300   9.499  -0.046  0.0690 -2.1653  0.2418
    8CHTO    O3 3363   5.796   9.228  -0.352 -0.3186  0.1955  0.1496
    8CHTO    C6 3364   5.924   9.209  -0.279 -0.5092  0.4343 -0.6348
    8CHTO   H19 3365   5.922   9.244  -0.176 -0.6350  2.2738 -1.2444
    8CHTO    C8 3366   5.971   9.061  -0.272 -0.1561  0.6010 -0.8402
    8CHTO   H21 3367   5.956   9.012  -0.368 -2.0841 -1.3501  0.4142
    8CHTO    O7 3368   5.883   8.994  -0.179  0.0521 -0.2530  0.7045
    8CHTO    H2 3369   5.936   8.943  -0.121 -1.7263 -1.3072  1.3962
    8CHTO   C12 3370   6.122   9.040  -0.241 -0.5994 -0.5201 -0.0439
    8CHTO   H25 3371   6.143   9.061  -0.134 -0.7382  1.9253 -0.4541
    8CHTO    N3 3372   6.165   8.902  -0.261 -0.0334 -0.4661 -0.0658
    8CHTO   H12 3373   6.273   8.892  -0.256 -0.0833 -2.2011 -1.7459
    8CHTO   H13 3374   6.126   8.845  -0.178  1.6311 -0.6555  0.6053
    8CHTO   C15 3375   6.203   9.147  -0.321  0.2553  0.2685  0.2824
    8CHTO   H28 3376   6.203   9.115  -0.426  1.5201 -0.6044  0.5278
    8CHTO   O10 3377   6.348   9.157  -0.265  0.3335 -0.2576  0.0643
    8CHTO    H4 3378   6.404   9.092  -0.302 -0.3798 -0.4136 -0.7738
    8CHTO    O5 3379   6.154   9.277  -0.318 -0.1982  0.0792  0.4659
    8CHTO   C10 3380   6.020   9.298  -0.358 -0.2496 -0.1800  0.1243
    8CHTO   H23 3381   6.022   9.284  -0.466  1.3962  3.0939 -0.3626
    8CHTO   C17 3382   5.984   9.445  -0.342 -0.0052 -0.8236  0.4219
    8CHTO   O12 3383   6.031   9.526  -0.448  0.0529 -0.2162  0.1708
    8CHTO    H6 3384   6.013   9.615  -0.425  1.7623  0.3533 -0.6621
    9CHTO  H203 3385   7.940   5.131   0.514 -1.7024 -0.4020 -0.5521
    9CHTO   O82 3386   7.949   5.071   0.586  0.6192 -0.2067 -0.6358
    9CHTO  C123 3387   8.068   5.003   0.577  0.5518  0.4806 -0.3896
    9CHTO  H227 3388   8.084   4.977   0.471  0.5563 -1.7679  0.1341
    9CHTO   O77 3389   8.162   5.096   0.620  0.0800 -0.1414 -0.3878
    9CHTO  C118 3390   8.296   5.039   0.603  0.4916 -0.7041  0.0908
    9CHTO  H222 3391   8.315   5.030   0.495 -0.6053 -2.3247  0.0168
    9CHTO  C125 3392   8.394   5.160   0.665  0.3842  0.2635 -0.9042
    9CHTO   O84 3393   8.376   5.169   0.810 -0.4460  0.9756  0.3873
    9CHTO  H205 3394   8.430   5.242   0.837  0.6603 -0.0005  0.8489
    9CHTO  C114 3395   8.320   4.902   0.674  0.3019 -0.9969 -0.3039
    9CHTO  H218 3396   8.335   4.922   0.780  0.0526  0.3506 -0.5147
    9CHTO  C116 3397   8.201   4.804   0.660 -0.0360 -0.7150  0.4849
    9CHTO  H220 3398   8.199   4.746   0.565  1.4668 -0.0932  0.0626
    9CHTO   O79 3399   8.226   4.700   0.760 -0.0696  0.5122  0.2058
    9CHTO  H201 3400   8.302   4.658   0.726  0.3401  2.0600 -0.8457
    9CHTO  C120 3401   8.059   4.876   0.674 -0.5976 -0.2756  0.2014
    9CHTO  H224 3402   8.057   4.906   0.780  2.0624  2.9326 -0.5991
    9CHTO   N21 3403   7.947   4.774   0.648 -0.1840 -0.1686 -0.1097
    9CHTO  H211 3404   7.953   4.700   0.726  1.6052  1.2677  1.1662
    9CHTO  H212 3405   7.942   4.740   0.546  0.2465  0.9011 -0.4945
    9CHTO   O75 3406   8.448   4.856   0.611  0.5812 -0.9511 -0.1911
    9CHTO  C112 3407   8.447   4.797   0.457 -0.4819  0.0436 -1.4192
    9CHTO  H216 3408   8.372   4.848   0.395 -2.2722 -0.7234  0.0928
    9CHTO   O73 3409   8.416   4.651   0.471  0.3299  0.2857  0.5874
    9CHTO  C113 3410   8.407   4.585   0.343 -0.3310 -0.3669 -0.3992
    9CHTO  H217 3411   8.337   4.640   0.277  1.1576 -0.3343 -1.9892
    9CHTO  C124 3412   8.341   4.453   0.371  0.4460 -0.6188 -0.7426
    9CHTO   O83 3413   8.345   4.350   0.275  0.4459 -0.1446  0.0108
    9CHTO  H204 3414   8.288   4.283   0.309  0.2557 -0.5252 -1.0369
    9CHTO  C109 3415   8.545   4.574   0.277 -0.4170  0.4355 -0.5368
    9CHTO  H213 3416   8.600   4.503   0.340 -1.5089  0.0652  0.0222
    9CHTO  C110 3417   8.615   4.717   0.268 -0.0612 -0.5719 -0.3779
    9CHTO  H214 3418   8.580   4.770   0.180 -0.8943 -0.7163 -0.1451
    9CHTO   O78 3419   8.755   4.690   0.247  0.1427 -0.3450  0.4505
    9CHTO  H200 3420   8.797   4.774   0.244 -0.3921 -0.1177 -1.3355
    9CHTO  C111 3421   8.593   4.801   0.394  0.3947  0.1044 -0.1235
    9CHTO  H215 3422   8.660   4.759   0.471  2.4413  2.2029 -0.6863
    9CHTO   N19 3423   8.632   4.948   0.378 -0.3510  0.0631 -0.3986
    9CHTO  H207 3424   8.652   4.978   0.276  2.0029  0.3113  0.1168
    9CHTO  H208 3425   8.547   5.009   0.406 -0.0489 -0.2060  1.1597
    9CHTO   O74 3426   8.530   4.513   0.142 -0.1825  0.3989  0.2065
    9CHTO  C115 3427   8.649   4.440   0.097 -0.1629  0.7212  0.3987
    9CHTO  H219 3428   8.741   4.489   0.129  0.7493 -0.8857  0.2636
    9CHTO   O76 3429   8.657   4.278   0.171  0.5847 -1.0030 -0.6139
    9CHTO  C122 3430   8.584   4.168   0.115  0.2271 -0.1298  0.4180
    9CHTO  H226 3431   8.483   4.181   0.153  0.7845  2.4529  1.1542
    9CHTO  C126 3432   8.636   4.030   0.171 -0.6876 -0.0865  0.8720
    9CHTO   O85 3433   8.613   4.016   0.316 -0.5844  0.4769 -0.6770
    9CHTO  H206 3434   8.654   4.091   0.354  0.3480  0.6673 -2.0244
    9CHTO  C121 3435   8.580   4.170  -0.043  0.7920  0.0734  0.3690
    9CHTO  H225 3436   8.681   4.149  -0.084  1.4936  1.5908  1.2902
    9CHTO   O81 3437   8.486   4.074  -0.101 -0.0447 -0.3435 -0.1569
    9CHTO  H202 3438   8.499   3.990  -0.062 -0.6734  0.5318  2.0166
    9CHTO  C119 3439   8.538   4.311  -0.096  0.1664  0.3126  0.5518
    9CHTO  H223 3440   8.535   4.304  -0.204  1.4355  2.4510  0.3649
    9CHTO  C117 3441   8.640   4.425  -0.063 -0.0089  0.5349  0.1270
    9CHTO  H221 3442   8.616   4.526  -0.093 -2.2712 -0.0860 -0.2401
    9CHTO   N20 3443   8.773   4.398  -0.123 -0.4309  0.2520  0.1254
    9CHTO  H209 3444   8.814   4.308  -0.079  0.8077 -0.0460 -1.6212
    9CHTO  H210 3445   8.844   4.478  -0.114  1.9271 -1.8962  1.2281
    9CHTO   O80 3446   8.394   4.347  -0.070 -0.7813 -0.7163 -0.5752
    9CHTO  C103 3447   8.313   4.427  -0.187  0.1402 -0.1578  0.5532
    9CHTO  H190 3448   8.211   4.452  -0.160 -0.2267 -0.6248 -0.3938
    9CHTO  C101 3449   8.381   4.566  -0.246 -0.2964 -0.2650  0.2233
    9CHTO  H188 3450   8.488   4.544  -0.243 -0.5365 -1.7228 -1.2429
    9CHTO   O68 3451   8.348   4.685  -0.136 -0.1097 -0.1231  0.2377
    9CHTO  H168 3452   8.421   4.694  -0.079 -0.0134  1.2079 -0.0806
    9CHTO   C99 3453   8.323   4.614  -0.379 -0.6319 -0.5845 -0.0178
    9CHTO  H186 3454   8.222   4.655  -0.355 -0.3434 -0.3557  0.8272
    9CHTO   N17 3455   8.397   4.731  -0.439 -0.4826 -0.2346  1.0188
    9CHTO  H174 3456   8.344   4.766  -0.526  2.1744  1.5772  0.0565
    9CHTO  H175 3457   8.481   4.679  -0.484 -1.9992 -0.4303 -1.6860
    9CHTO   C97 3458   8.293   4.496  -0.478 -0.1908  0.3378  0.6526
    9CHTO  H184 3459   8.388   4.459  -0.520 -0.4440 -0.0430  0.4126
    9CHTO   O64 3460   8.221   4.393  -0.415 -0.2277 -0.6272 -0.1515
    9CHTO  C104 3461   8.296   4.331  -0.308 -0.2527 -0.2241 -0.7848
    9CHTO  H191 3462   8.396   4.299  -0.339 -0.4600 -2.0644  0.3852
    9CHTO  C108 3463   8.217   4.210  -0.255 -0.1577  0.3349  0.2919
    9CHTO   O71 3464   8.188   4.112  -0.356 -0.5506 -0.3460 -0.4605
    9CHTO  H171 3465   8.255   4.104  -0.421  1.9938 -1.5361  2.1850
    9CHTO   O62 3466   8.199   4.537  -0.581  0.9087  0.1176  0.0814
    9CHTO   C91 3467   8.200   4.453  -0.696  0.2726  0.2405  0.3559
    9CHTO  H178 3468   8.269   4.371  -0.677 -1.3206 -1.0929  0.4482
    9CHTO   C92 3469   8.255   4.535  -0.817 -0.3423  0.3646 -0.0307
    9CHTO  H179 3470   8.356   4.576  -0.799 -0.8110  2.4701 -1.9515
    9CHTO   O66 3471   8.276   4.442  -0.928 -0.0512 -0.5815  0.6443
    9CHTO  H166 3472   8.341   4.376  -0.918 -0.7036 -1.6323 -1.6245
    9CHTO   C93 3473   8.154   4.641  -0.869 -0.2765 -0.4038  0.6066
    9CHTO  H180 3474   8.162   4.647  -0.979 -0.3449 -0.4753  0.5971
    9CHTO   N16 3475   8.201   4.773  -0.823  0.2443 -0.1414  0.0393
    9CHTO  H172 3476   8.233   4.774  -0.720 -0.5334  0.3102  0.2820
    9CHTO  H173 3477   8.121   4.842  -0.845 -0.6014 -0.6132  1.5937
    9CHTO   C94 3478   8.008   4.614  -0.828 -0.0001  0.9373  0.1639
    9CHTO  H181 3479   7.994   4.626  -0.720  0.8211 -0.9513  0.5020
    9CHTO   O61 3480   7.987   4.470  -0.845  0.0838 -0.3902  0.9757
    9CHTO   C95 3481   8.055   4.399  -0.741  0.2486  0.0283 -0.4558
    9CHTO  H182 3482   7.994   4.401  -0.651  0.8193 -2.2120  0.0179
    9CHTO  C106 3483   8.058   4.247  -0.794 -0.6325  0.0036 -0.1651
    9CHTO   O69 3484   8.106   4.159  -0.692 -0.2559  0.6807 -0.1730
    9CHTO  H169 3485   8.197   4.182  -0.684 -0.1748  0.1852  0.3618
    9CHTO   O63 3486   7.900   4.692  -0.910  0.0377 -0.3572 -0.0563
    9CHTO   C96 3487   7.755   4.721  -0.804  1.0675  0.4147  0.7833
    9CHTO  H183 3488   7.781   4.709  -0.699 -1.6712 -2.4025  1.2116
    9CHTO   C98 3489   7.630   4.640  -0.848  0.2188 -0.5094 -0.3586
    9CHTO  H185 3490   7.613   4.655  -0.955 -0.0105 -2.0025 -0.5384
    9CHTO   O67 3491   7.668   4.503  -0.839  0.1792 -0.2733  0.4471
    9CHTO  H167 3492   7.668   4.461  -0.755 -2.2513 -0.7067  0.2650
    9CHTO  C102 3493   7.492   4.683  -0.767 -0.1296 -0.3835  0.0792
    9CHTO  H189 3494   7.510   4.652  -0.663 -0.7489 -2.0873 -0.3129
    9CHTO   N18 3495   7.366   4.615  -0.814 -0.4982  1.1619 -0.3611
    9CHTO  H176 3496   7.405   4.532  -0.871 -1.1324  0.2341  0.5421
    9CHTO  H177 3497   7.306   4.569  -0.736  0.4050 -1.7496 -1.3088
    9CHTO  C105 3498   7.478   4.840  -0.780 -0.4628 -0.3192  0.3393
    9CHTO  H192 3499   7.441   4.867  -0.879 -3.9443 -2.1649  1.0541
    9CHTO   O65 3500   7.600   4.909  -0.748 -0.0493 -0.4635 -0.5294
    9CHTO  C100 3501   7.715   4.875  -0.822  0.0043 -0.2613 -0.1004
    9CHTO  H187 3502   7.687   4.912  -0.921 -1.2075 -0.4346  0.1685
    9CHTO  C107 3503   7.842   4.960  -0.768 -0.1085 -0.2136 -0.1000
    9CHTO   O70 3504   7.858   4.950  -0.620 -0.7497  0.0153 -0.3455
    9CHTO  H170 3505   7.775   4.933  -0.580 -1.5459  0.9776 -1.5411
    9CHTO   O57 3506   7.365   4.880  -0.660  0.3340 -0.0639  0.1877
    9CHTO   C85 3507   7.301   5.008  -0.662 -0.5868  0.2584  0.9365
    9CHTO  H157 3508   7.281   5.042  -0.766 -1.5806 -1.8787  0.4061
    9CHTO   C83 3509   7.399   5.118  -0.598  0.4876 -0.1454  0.8333
    9CHTO  H155 3510   7.491   5.132  -0.656 -0.9141  2.1769 -0.8954
    9CHTO   O56 3511   7.437   5.078  -0.463 -0.2931  0.1541  0.0507
    9CHTO  H135 3512   7.357   5.062  -0.417  1.6700 -0.5472  3.3788
    9CHTO   C81 3513   7.317   5.251  -0.596 -0.0893  0.6305  0.3400
    9CHTO  H153 3514   7.302   5.281  -0.700 -1.6500 -2.4913 -0.3879
    9CHTO   N14 3515   7.401   5.366  -0.548 -0.9720 -0.5087  0.3156
    9CHTO  H141 3516   7.370   5.398  -0.451 -0.5608  1.2302 -0.1052
    9CHTO  H142 3517   7.399   5.449  -0.617  2.8598  0.1969  0.9248
    9CHTO   C79 3518   7.173   5.242  -0.526  0.0204  0.3735  0.0291
    9CHTO  H151 3519   7.123   5.330  -0.568 -1.4678 -1.1129 -1.4199
    9CHTO   O52 3520   7.100   5.125  -0.573  0.4956 -0.0600  0.1332
    9CHTO   C86 3521   7.169   4.999  -0.581  0.0766 -0.0505  0.0562
    9CHTO  H158 3522   7.180   4.965  -0.476  1.0628 -0.5530 -0.2060
    9CHTO   C90 3523   7.090   4.882  -0.650  0.2075 -0.0834 -0.6805
    9CHTO   O60 3524   6.954   4.882  -0.602  0.0361  0.1424 -0.5346
    9CHTO  H138 3525   6.909   4.961  -0.626 -2.0067 -0.6385  0.5789
    9CHTO   O50 3526   7.179   5.237  -0.383 -0.0406  0.2301 -0.1597
    9CHTO   C73 3527   7.082   5.264  -0.284  0.0662 -0.1879  0.5153
    9CHTO  H145 3528   6.989   5.212  -0.313  0.3928  0.1583 -1.1882
    9CHTO   C74 3529   7.060   5.415  -0.265  0.1290 -0.1021 -0.6265
    9CHTO  H146 3530   7.013   5.453  -0.357 -0.6401 -1.9723 -1.0355
    9CHTO   O54 3531   6.949   5.432  -0.173  0.2735  0.1381  0.3147
    9CHTO  H133 3532   6.976   5.432  -0.084  0.6175 -2.2788  0.2511
    9CHTO   C75 3533   7.198   5.488  -0.232 -0.0542  1.1322  0.8352
    9CHTO  H147 3534   7.256   5.484  -0.326 -0.7252  1.5342  0.3976
    9CHTO   N13 3535   7.191   5.631  -0.199 -0.0710  0.5893 -0.7895
    9CHTO  H139 3536   7.158   5.693  -0.281 -0.2880  1.0813 -0.3374
    9CHTO  H140 3537   7.117   5.644  -0.122  0.1310  4.4374 -1.1266
    9CHTO   C76 3538   7.281   5.402  -0.123 -0.3242 -0.0239  0.4131
    9CHTO  H148 3539   7.257   5.446  -0.027 -0.5604  2.2599 -0.6757
    9CHTO   O49 3540   7.264   5.253  -0.122 -0.5162 -1.0566  0.8287
    9CHTO   C77 3541   7.131   5.205  -0.146  0.1494  0.3331 -0.4516
    9CHTO  H149 3542   7.060   5.237  -0.069 -0.6994 -0.1743 -1.0126
    9CHTO   C88 3543   7.138   5.050  -0.135  0.7523  0.4117 -0.2320
    9CHTO   O58 3544   7.007   4.961  -0.183  0.3308  0.4248  0.2888
    9CHTO  H136 3545   7.029   4.873  -0.157  0.3115  0.6367  1.0474
    9CHTO   O51 3546   7.428   5.418  -0.162 -0.2606  0.0554 -0.0418
    9CHTO   C78 3547   7.521   5.364  -0.024 -0.3658  0.5130  0.6173
    9CHTO  H150 3548   7.455   5.313   0.049  0.1116 -0.8536  0.1033
    9CHTO   C80 3549   7.587   5.487   0.047 -0.4174 -0.7687 -0.6804
    9CHTO  H152 3550   7.603   5.562  -0.033  1.7533  1.4241  1.7489
    9CHTO   O55 3551   7.480   5.549   0.123  0.3762 -0.1120 -0.5499
    9CHTO  H134 3552   7.504   5.630   0.164 -1.1287 -0.0065  0.1632
    9CHTO   C84 3553   7.714   5.456   0.139 -1.2346 -0.1367 -0.0760
    9CHTO  H156 3554   7.672   5.413   0.231 -1.4540  0.0825 -0.0724
    9CHTO   N15 3555   7.782   5.586   0.177  0.1431 -0.7339  0.1169
    9CHTO  H143 3556   7.867   5.556   0.235  2.2017  2.4754 -1.1387
    9CHTO  H144 3557   7.815   5.640   0.091  0.6855 -0.9588  0.1824
    9CHTO   C87 3558   7.807   5.360   0.068  0.5984 -0.6134  0.8382
    9CHTO  H159 3559   7.837   5.400  -0.029 -0.6115 -1.6569  0.0150
    9CHTO   O53 3560   7.708   5.231   0.027 -0.5245  0.7131  0.6618
    9CHTO   C82 3561   7.624   5.268  -0.078 -0.3691 -0.0144  0.6305
    9CHTO  H154 3562   7.684   5.303  -0.161 -1.4527 -3.0080 -1.5200
    9CHTO   C89 3563   7.556   5.134  -0.130 -0.3262 -0.5464  0.4047
    9CHTO   O59 3564   7.640   5.062  -0.218  0.6524 -0.3931  0.0953
    9CHTO  H137 3565   7.596   4.984  -0.245 -2.1445  1.3550 -0.6002
    9CHTO   O45 3566   7.931   5.312   0.156  0.2775  0.1264  0.3772
    9CHTO   C67 3567   7.973   5.180   0.137  0.3156  0.1296  0.0118
    9CHTO  H124 3568   7.917   5.143   0.051 -1.4644  2.6663  0.0215
    9CHTO   C65 3569   8.128   5.166   0.107 -0.0625  0.2856 -0.1163
    9CHTO  H122 3570   8.179   5.254   0.146  0.6070 -0.3988  0.5638
    9CHTO   O44 3571   8.126   5.169  -0.038 -0.0223  0.3089  0.2150
    9CHTO  H102 3572   8.209   5.140  -0.071 -0.1527  0.8699 -0.6245
    9CHTO   C63 3573   8.208   5.047   0.179 -0.3330  0.9289 -0.2933
    9CHTO  H120 3574   8.228   5.074   0.283 -0.2015 -1.8128  0.4191
    9CHTO   N11 3575   8.346   5.043   0.124  0.7634  0.4264  0.3991
    9CHTO  H108 3576   8.419   5.089   0.189  2.6927 -0.2709 -1.2401
    9CHTO  H109 3577   8.375   4.941   0.114  1.7479  0.9453 -2.4526
    9CHTO   C61 3578   8.122   4.915   0.191  0.4268 -0.1222 -0.0805
    9CHTO  H118 3579   8.175   4.850   0.263  0.7818 -1.5513 -1.5917
    9CHTO   O40 3580   7.987   4.944   0.243 -0.6818  0.0306  0.0318
    9CHTO   C68 3581   7.941   5.084   0.259 -0.3497 -0.5327  0.0601
    9CHTO  H125 3582   7.981   5.133   0.350 -2.0989 -0.2530  0.7120
    9CHTO   C72 3583   7.788   5.071   0.281 -0.0614 -0.1931  0.2514
    9CHTO   O48 3584   7.706   5.019   0.184 -0.0311  0.0947  0.2203
    9CHTO  H105 3585   7.738   4.934   0.161 -1.2629 -0.1915 -0.4892
    9CHTO   O38 3586   8.106   4.852   0.069  0.5927  0.4039  0.4942
    9CHTO   C55 3587   8.006   4.745   0.046 -0.3704  0.1040  0.3433
    9CHTO  H112 3588   7.909   4.782   0.081 -0.1569 -0.2130  1.2845
    9CHTO   C56 3589   8.049   4.608   0.120 -0.0345 -0.4763 -0.5202
    9CHTO  H113 3590   8.154   4.592   0.092 -0.4765 -4.2563 -0.2465
    9CHTO   O42 3591   8.051   4.628   0.259  0.5365  0.5148  0.3680
    9CHTO  H100 3592   7.965   4.616   0.296  1.1209 -1.0689  1.2379
    9CHTO   C57 3593   7.950   4.495   0.085  0.4032 -0.1324  0.0528
    9CHTO  H114 3594   7.855   4.502   0.138 -0.2892 -3.7464 -0.5720
    9CHTO   N10 3595   8.006   4.358   0.128 -0.0242  0.4452 -0.3116
    9CHTO  H106 3596   7.949   4.325   0.213 -1.0714  2.5715 -0.1456
    9CHTO  H107 3597   7.989   4.285   0.051  1.5636 -0.1700 -0.0795
    9CHTO   C58 3598   7.926   4.491  -0.067  0.1810 -0.4635  0.3279
    9CHTO  H115 3599   8.010   4.440  -0.119  0.2161  1.4444 -1.5880
    9CHTO   O37 3600   7.889   4.616  -0.120 -0.0481 -0.2582  0.1792
    9CHTO   C59 3601   7.977   4.729  -0.103 -0.5949  0.2679  0.4107
    9CHTO  H116 3602   8.074   4.713  -0.149 -0.4495 -0.4419  0.9442
    9CHTO   C70 3603   7.921   4.847  -0.177 -0.2455 -0.0358  0.1005
    9CHTO   O46 3604   7.927   4.827  -0.316  0.4972  0.2685 -0.1442
    9CHTO  H103 3605   7.855   4.773  -0.341 -0.1583 -0.5247  3.2092
    9CHTO   O39 3606   7.781   4.419  -0.093  0.4184 -0.5614 -0.3460
    9CHTO   C60 3607   7.770   4.276  -0.106  0.4425  0.4586  0.7690
    9CHTO  H117 3608   7.867   4.230  -0.085 -0.3627 -0.8781  1.6831
    9CHTO   C62 3609   7.671   4.213  -0.006 -0.4708 -0.2363  0.3063
    9CHTO  H119 3610   7.717   4.233   0.093 -0.8061  1.7951  0.0797
    9CHTO   O43 3611   7.547   4.281  -0.024 -0.6859  0.4586 -0.1309
    9CHTO  H101 3612   7.534   4.290  -0.117 -0.1739 -1.3906 -0.4011
    9CHTO   C66 3613   7.674   4.054  -0.027  0.1504 -0.3047 -0.4058
    9CHTO  H123 3614   7.777   4.024  -0.009  0.7041  2.2944  1.0373
    9CHTO   N12 3615   7.594   3.989   0.074 -0.6503 -0.0107 -0.6225
    9CHTO  H110 3616   7.629   4.017   0.172  0.7967  2.1343 -1.7277
    9CHTO  H111 3617   7.486   3.979   0.067 -0.8690  1.2246  0.9864
    9CHTO   C69 3618   7.640   4.023  -0.174 -0.9698  0.5142  0.0752
    9CHTO  H126 3619   7.536   4.046  -0.205 -2.5651 -4.2819  1.3531
    9CHTO   O41 3620   7.734   4.114  -0.283  0.6586 -0.6416  0.5901
    9CHTO   C64 3621   7.734   4.239  -0.258  0.1294  0.8637  0.0110
    9CHTO  H121 3622   7.632   4.282  -0.270  0.0527  0.9801  1.0050
    9CHTO   C71 3623   7.840   4.316  -0.349 -0.1349 -0.2617  0.2762
    9CHTO   O47 3624   7.786   4.347  -0.477 -0.2669  0.6318 -0.2738
    9CHTO  H104 3625   7.854   4.330  -0.539 -1.1010 -0.8111 -0.8281
    9CHTO   O34 3626   7.678   3.890  -0.200 -0.3255  0.0675  0.4035
    9CHTO   C49 3627   7.768   3.816  -0.305  0.3370 -0.1691  0.0496
    9CHTO   H91 3628   7.751   3.865  -0.401  0.6895 -2.8938 -1.4493
    9CHTO   C47 3629   7.716   3.669  -0.316  0.8340 -0.6411  0.2133
    9CHTO   H89 3630   7.784   3.624  -0.392  1.3799  0.0775  0.2752
    9CHTO   O33 3631   7.586   3.672  -0.370 -0.4843 -0.2637  0.1767
    9CHTO   H70 3632   7.562   3.588  -0.405 -1.1443 -0.3803  0.8866
    9CHTO   C45 3633   7.716   3.590  -0.173  0.0996  0.5482 -0.1002
    9CHTO   H87 3634   7.613   3.584  -0.135  0.2934 -2.4811  0.0046
    9CHTO    N8 3635   7.759   3.448  -0.203 -0.0347  0.1663  0.1453
    9CHTO   H75 3636   7.698   3.403  -0.280  1.6910  0.1030 -1.2076
    9CHTO   H76 3637   7.753   3.389  -0.112 -1.1456 -0.1633 -0.1312
    9CHTO   C43 3638   7.819   3.660  -0.066  0.0706  0.3378  0.6889
    9CHTO   H85 3639   7.768   3.743  -0.018 -1.9871 -0.4997 -0.0184
    9CHTO   O29 3640   7.934   3.705  -0.142  0.0871  0.5828  0.1555
    9CHTO   C50 3641   7.912   3.808  -0.245 -0.0826 -0.0505 -0.3507
    9CHTO   H92 3642   7.946   3.906  -0.209 -0.0011 -0.8395  1.7978
    9CHTO   C54 3643   8.017   3.803  -0.363 -0.3007  0.0422 -0.0254
    9CHTO   O36 3644   8.157   3.792  -0.326 -0.1128 -0.5420 -0.5639
    9CHTO   H72 3645   8.183   3.868  -0.278 -0.5409 -0.4055 -0.5407
    9CHTO   O27 3646   7.854   3.579   0.051 -0.0572  0.3256 -0.1040
    9CHTO   C37 3647   7.912   3.618   0.178  0.1148 -0.9883 -0.1098
    9CHTO   H79 3648   7.966   3.535   0.226 -1.4237 -1.9156  0.0461
    9CHTO   C38 3649   8.013   3.736   0.164  0.2023  0.4589  0.1320
    9CHTO   H80 3650   7.960   3.812   0.104 -0.0275 -1.1534 -1.7365
    9CHTO   O31 3651   8.126   3.687   0.093  0.6320 -0.4832 -0.0207
    9CHTO   H68 3652   8.199   3.671   0.150  1.3049  0.0191 -0.7207
    9CHTO   C39 3653   8.054   3.807   0.303  0.2657  0.6465 -0.4072
    9CHTO   H81 3654   8.118   3.742   0.362  0.0166  0.2069 -0.6177
    9CHTO    N7 3655   8.133   3.937   0.285 -0.3920 -0.3982  0.1957
    9CHTO   H73 3656   8.164   3.952   0.182  1.9703  0.3726  0.9911
    9CHTO   H74 3657   8.222   3.928   0.344 -0.3911 -2.3444 -0.0776
    9CHTO   C40 3658   7.916   3.836   0.384  0.8590  0.4636  0.1255
    9CHTO   H82 3659   7.855   3.902   0.321 -2.2812 -2.9035 -0.5544
    9CHTO   O26 3660   7.849   3.707   0.400 -0.1474  0.2737 -0.0210
    9CHTO   C41 3661   7.800   3.652   0.274  0.0820 -0.0651 -0.7059
    9CHTO   H83 3662   7.722   3.720   0.237  1.4340  0.8791 -1.8695
    9CHTO   C52 3663   7.720   3.525   0.318  0.1118 -0.3003 -0.5104
    9CHTO   O35 3664   7.616   3.547   0.413 -0.0294 -0.2921 -0.3272
    9CHTO   H71 3665   7.538   3.584   0.375  0.4995  1.4064  0.1841
    9CHTO   O28 3666   7.926   3.904   0.506 -1.0083  0.1014  0.1835
    9CHTO   C42 3667   7.821   3.983   0.552 -0.6357  0.3732 -0.1099
    9CHTO   H84 3668   7.829   3.993   0.660 -2.6548  0.3723  0.0657
    9CHTO   C44 3669   7.673   3.935   0.531 -0.2565  0.5608  0.1004
    9CHTO   H86 3670   7.667   3.907   0.426  0.4713 -2.5831  0.8484
    9CHTO   O32 3671   7.659   3.810   0.605  0.6597 -0.1017 -0.5586
    9CHTO   H69 3672   7.730   3.751   0.595 -1.2381 -2.4387 -0.6732
    9CHTO   C48 3673   7.563   4.034   0.575 -0.6234  0.2936  0.2721
    9CHTO   H90 3674   7.564   4.069   0.678  1.3431  0.4966  0.2005
    9CHTO    N9 3675   7.423   3.975   0.553 -0.5788 -0.3051 -0.3152
    9CHTO   H77 3676   7.407   3.967   0.446 -0.7459 -2.7256 -0.1429
    9CHTO   H78 3677   7.420   3.875   0.594 -1.2350 -0.0015  0.3780
    9CHTO   C51 3678   7.594   4.164   0.503  0.4510  0.2085  0.0368
    9CHTO   H93 3679   7.592   4.147   0.396  1.0372 -0.8415  0.1794
    9CHTO   O30 3680   7.723   4.215   0.542  0.2180 -0.6845  0.1239
    9CHTO   C46 3681   7.837   4.124   0.498  0.2940 -0.7807 -0.2174
    9CHTO   H88 3682   7.833   4.116   0.390 -0.7614 -1.0034 -0.1680
    9CHTO   C53 3683   7.969   4.188   0.542 -0.5982 -0.1345  0.4170
    9CHTO   O72 3684   7.986   4.312   0.460  0.1410  0.3064 -0.1363
    9CHTO  H199 3685   7.927   4.374   0.498  0.0742 -0.6376  1.3254
    9CHTO   O22 3686   7.498   4.264   0.544  0.0794  0.4816  0.7659
    9CHTO   C31 3687   7.483   4.395   0.468  0.2551  0.3467  0.0190
    9CHTO   H59 3688   7.411   4.457   0.525  0.8454 -0.4393  1.6644
    9CHTO   C29 3689   7.612   4.477   0.463 -0.0976 -0.0547  0.4654
    9CHTO   H57 3690   7.680   4.416   0.402  1.3277 -1.7783  3.6573
    9CHTO   O21 3691   7.671   4.476   0.593  0.4138 -0.0858  0.1943
    9CHTO   H37 3692   7.609   4.453   0.660  0.5565 -0.5154  0.1796
    9CHTO   C27 3693   7.583   4.615   0.386  0.2747  0.0890 -0.7669
    9CHTO   H55 3694   7.504   4.668   0.442  1.1971  0.1927  0.4409
    9CHTO    N5 3695   7.704   4.703   0.381 -0.4192  0.5975  0.6467
    9CHTO   H43 3696   7.699   4.790   0.444 -1.0269  0.6138  0.5746
    9CHTO   H44 3697   7.709   4.731   0.277 -0.8365 -1.8802 -0.0848
    9CHTO   C25 3698   7.527   4.579   0.242  0.1492  0.2648 -0.3806
    9CHTO   H53 3699   7.607   4.532   0.183  1.2488  1.4797  0.1061
    9CHTO   O17 3700   7.412   4.497   0.248  0.1649  0.7149  0.3489
    9CHTO   C32 3701   7.425   4.373   0.322 -0.3414  0.1927 -0.0773
    9CHTO   H60 3702   7.494   4.307   0.268  0.7206 -0.3796  1.9436
    9CHTO   C36 3703   7.300   4.289   0.325  0.4794  0.2447  0.5877
    9CHTO   O25 3704   7.278   4.228   0.198  0.4282  0.3066 -0.4433
    9CHTO   H40 3705   7.340   4.159   0.182 -0.8438 -1.0930  0.5312
    9CHTO   O15 3706   7.473   4.698   0.159  0.3317 -0.2708  0.0513
    9CHTO   C19 3707   7.424   4.723   0.021 -0.7461  0.3752 -0.5814
    9CHTO   H47 3708   7.395   4.829   0.018  1.7363  1.0821 -0.4605
    9CHTO   C20 3709   7.534   4.692  -0.088 -0.4931 -0.5176  0.1004
    9CHTO   H48 3710   7.585   4.596  -0.070  0.7035 -0.2406 -1.5985
    9CHTO   O19 3711   7.630   4.788  -0.050 -0.6495  0.3717  0.1767
    9CHTO   H35 3712   7.696   4.802  -0.115 -0.1544 -0.1022  0.5771
    9CHTO   C21 3713   7.480   4.698  -0.232  0.6258  0.0591  0.4621
    9CHTO   H49 3714   7.441   4.798  -0.254  1.0095  0.2609  0.6990
    9CHTO    N4 3715   7.575   4.675  -0.343  0.2017 -0.0118  0.1392
    9CHTO   H41 3716   7.514   4.655  -0.430 -0.1361 -1.7809  0.7467
    9CHTO   H42 3717   7.628   4.768  -0.354  0.9314 -0.5097 -0.5946
    9CHTO   C22 3718   7.361   4.600  -0.241  0.2100  0.0378  0.6033
    9CHTO   H50 3719   7.384   4.496  -0.218  1.1087  0.2747  0.8163
    9CHTO   O14 3720   7.259   4.639  -0.146  0.0551  0.2479 -0.4445
    9CHTO   C23 3721   7.296   4.642  -0.008  0.8582 -0.2580  0.3596
    9CHTO   H51 3722   7.305   4.536   0.023  0.7157  0.3701  2.6509
    9CHTO   C34 3723   7.184   4.716   0.069  0.5044  0.5841 -0.1451
    9CHTO   O23 3724   7.055   4.656   0.067 -0.2743  0.3248  0.0604
    9CHTO   H38 3725   6.997   4.708   0.014 -2.2330  0.5428  2.3167
    9CHTO   O16 3726   7.294   4.597  -0.368  0.0571  0.5171 -0.2079
    9CHTO   C24 3727   7.181   4.486  -0.371 -0.0456 -0.8480  0.1544
    9CHTO   H52 3728   7.165   4.438  -0.274  1.6772 -2.1152 -0.1685
    9CHTO   C26 3729   7.209   4.386  -0.483  0.0763 -0.5059  0.5434
    9CHTO   H54 3730   7.220   4.444  -0.577  2.5969  0.5561  1.4530
    9CHTO   O20 3731   7.337   4.328  -0.459  0.9099 -0.0724  0.3121
    9CHTO   H36 3732   7.347   4.252  -0.406 -1.7767 -2.0137 -1.8295
    9CHTO   C30 3733   7.096   4.281  -0.515 -0.3682  0.0769 -0.4220
    9CHTO   H58 3734   7.067   4.207  -0.438  0.5290 -0.4399 -0.5780
    9CHTO    N6 3735   7.126   4.199  -0.637  0.7281 -0.9454 -0.6833
    9CHTO   H45 3736   7.162   4.099  -0.615  3.5723  0.5466  1.9228
    9CHTO   H46 3737   7.039   4.194  -0.700  0.3602 -1.1441 -0.1640
    9CHTO   C33 3738   6.958   4.364  -0.527  0.4533 -0.4729  0.3273
    9CHTO   H61 3739   6.959   4.413  -0.625 -0.6861 -0.8284  0.1264
    9CHTO   O18 3740   6.944   4.461  -0.418  0.1339  0.3705  0.2930
    9CHTO   C28 3741   7.045   4.559  -0.410  0.0669 -0.3282 -0.1216
    9CHTO   H56 3742   7.061   4.613  -0.503 -1.6627 -1.6868 -1.2260
    9CHTO   C35 3743   6.977   4.648  -0.303 -0.1996 -0.3541  0.2145
    9CHTO   O24 3744   6.835   4.672  -0.307 -0.0162 -0.1959 -0.3419
    9CHTO   H39 3745   6.826   4.762  -0.331 -1.1917 -0.2603 -0.1411
    9CHTO    O9 3746   6.849   4.274  -0.525  0.0360  0.2657  0.0641
    9CHTO   C13 3747   6.702   4.349  -0.590  0.5344  0.0734 -0.3362
    9CHTO   H26 3748   6.736   4.419  -0.669 -2.7171  1.8170 -0.2715
    9CHTO   C11 3749   6.624   4.427  -0.476  0.1287 -0.4192  0.0150
    9CHTO   H24 3750   6.695   4.498  -0.430  0.4436  0.3058 -1.5638
    9CHTO    O8 3751   6.596   4.340  -0.365  0.3898  0.5809  0.2473
    9CHTO    H3 3752   6.677   4.314  -0.324  0.5825 -0.2860 -0.6649
    9CHTO    C9 3753   6.508   4.493  -0.544  0.1272 -0.5100  0.2777
    9CHTO   H22 3754   6.545   4.560  -0.623  0.5996 -1.3489 -0.2132
    9CHTO    N2 3755   6.438   4.585  -0.452 -0.8450 -0.1368  0.5294
    9CHTO   H10 3756   6.498   4.674  -0.442 -1.1055 -0.0919  1.7751
    9CHTO   H11 3757   6.346   4.611  -0.502 -0.5422 -2.7784 -1.4922
    9CHTO    C7 3758   6.418   4.380  -0.602  0.0319  0.5128 -0.7646
    9CHTO   H20 3759   6.329   4.433  -0.643 -1.4594 -1.9747 -0.8761
    9CHTO    O4 3760   6.479   4.297  -0.700 -0.6939  0.2385  0.3324
    9CHTO   C14 3761   6.607   4.250  -0.666 -0.3534  0.1500  0.6500
    9CHTO   H27 3762   6.646   4.229  -0.767 -0.7290 -0.2660  0.5911
    9CHTO   C18 3763   6.589   4.112  -0.596  0.1924 -0.0398 -0.6184
    9CHTO   O13 3764   6.712   4.038  -0.604  0.2489  0.4031 -0.0690
    9CHTO    H7 3765   6.731   4.023  -0.695 -0.2341 -0.8047  0.0151
    9CHTO    O2 3766   6.345   4.282  -0.477  0.4163  0.2235 -0.7499
    9CHTO    C1 3767   6.207   4.288  -0.439 -0.1772  0.1139 -0.1667
    9CHTO   H14 3768   6.175   4.188  -0.402  0.4181 -0.9719 -2.4688
    9CHTO    C2 3769   6.109   4.318  -0.554 -0.5825 -0.0443 -0.6337
    9CHTO   H15 3770   6.137   4.415  -0.597 -1.4600  0.0928 -0.9207
    9CHTO    O6 3771   6.114   4.219  -0.659 -0.8554 -0.8855 -0.6679
    9CHTO    H1 3772   6.091   4.134  -0.626 -3.0107  0.0199  0.3218
    9CHTO    C3 3773   5.961   4.328  -0.496  0.0465  0.1342  0.6055
    9CHTO   H16 3774   5.930   4.228  -0.463  1.0492  0.4250  2.4781
    9CHTO    N1 3775   5.866   4.374  -0.602  0.0544 -0.0077 -0.0515
    9CHTO    H8 3776   5.904   4.470  -0.634 -0.4049  0.0294 -0.4890
    9CHTO    H9 3777   5.861   4.302  -0.682 -0.0082 -1.4593  1.2223
    9CHTO    C4 3778   5.951   4.412  -0.366 -0.8012 -0.3882  0.3927
    9CHTO   H17 3779   5.944   4.518  -0.391 -3.3152 -0.5790  0.1849
    9CHTO    O1 3780   6.064   4.391  -0.275 -0.0691 -0.2101  0.5433
    9CHTO    C5 3781   6.196   4.386  -0.324  0.2741 -0.4347  0.3645
    9CHTO   H18 3782   6.209   4.490  -0.356 -0.0042 -0.3432  0.5435
    9CHTO   C16 3783   6.294   4.352  -0.205 -0.4055  0.6168  0.2918
    9CHTO   O11 3784   6.291   4.453  -0.104 -0.0155 -0.0997 -0.5708
    9CHTO    H5 3785   6.341   4.429  -0.028 -0.8631  2.6064  0.8751
    9CHTO    O3 3786   5.829   4.376  -0.295  0.3175 -0.4056  0.5970
    9CHTO    C6 3787   5.706   4.466  -0.262 -0.7511 -0.1846 -0.1660
    9CHTO   H19 3788   5.717   4.568  -0.299  0.2996 -0.0852  0.3998
    9CHTO    C8 3789   5.574   4.395  -0.306 -0.5380 -0.0898  0.5421
    9CHTO   H21 3790   5.571   4.297  -0.258 -1.0835 -0.6457 -0.5939
    9CHTO    O7 3791   5.590   4.367  -0.450  0.3037  0.4452 -0.7033
    9CHTO    H2 3792   5.643   4.292  -0.471  2.1131  1.1486  1.1981
    9CHTO   C12 3793   5.452   4.486  -0.262 -0.8634 -0.4630  0.1653
    9CHTO   H25 3794   5.461   4.584  -0.313  0.6132 -0.5178  0.3002
    9CHTO    N3 3795   5.322   4.424  -0.305  0.2852 -0.4163 -0.0046
    9CHTO   H12 3796   5.243   4.493  -0.279  0.2039  0.5792 -2.7356
    9CHTO   H13 3797   5.323   4.415  -0.412  1.7281 -4.0690  0.2693
    9CHTO   C15 3798   5.465   4.519  -0.105 -0.3719 -0.3586  0.6776
    9CHTO   H28 3799   5.441   4.433  -0.042 -0.7314 -1.1676 -0.5512
    9CHTO   O10 3800   5.391   4.628  -0.055  0.2380  0.6148 -0.2736
    9CHTO    H4 3801   5.298   4.618  -0.049  0.2209  1.0916  0.1853
    9CHTO    O5 3802   5.593   4.579  -0.082 -0.9343  0.8599  0.2622
    9CHTO   C10 3803   5.700   4.484  -0.108  0.1381 -0.0641 -0.3558
    9CHTO   H23 3804   5.679   4.386  -0.065 -0.2596  0.1296 -0.1051
    9CHTO   C17 3805   5.827   4.532  -0.043 -0.0708 -0.2198  0.1950
    9CHTO   O12 3806   5.927   4.427  -0.036 -0.0075  0.0431  0.1521
    9CHTO    H6 3807   5.906   4.384   0.045 -1.1357 -0.1549 -0.2362
   10CHTO  H203 3808   4.500   6.183   2.260  0.4517  1.1255  0.1976
   10CHTO   O82 3809   4.423   6.180   2.314  0.2432 -0.8276 -0.1949
   10CHTO  C123 3810   4.336   6.294   2.312  0.1067 -0.0952  0.7033
   10CHTO  H227 3811   4.287   6.304   2.214  0.3988 -2.0330  0.3357
   10CHTO   O77 3812   4.244   6.254   2.415 -0.3085 -0.5603  0.5819
   10CHTO  C118 3813   4.128   6.337   2.425  0.2877  0.8130  0.4104
   10CHTO  H222 3814   4.077   6.362   2.331 -0.6231 -0.4314  0.5638
   10CHTO  C125 3815   4.036   6.251   2.507  0.2799  0.1744 -0.0487
   10CHTO   O84 3816   3.911   6.317   2.524 -0.3587  0.3859 -0.3758
   10CHTO  H205 3817   3.868   6.270   2.593 -1.8969  2.3332  0.0224
   10CHTO  C114 3818   4.171   6.474   2.485  0.5053 -1.0156 -0.4725
   10CHTO  H218 3819   4.206   6.461   2.587 -0.5204 -0.2449 -0.0181
   10CHTO  C116 3820   4.283   6.538   2.393  0.1379 -0.4764 -0.6099
   10CHTO  H220 3821   4.241   6.573   2.296 -1.1919 -2.5973 -0.8125
   10CHTO   O79 3822   4.335   6.660   2.456 -0.6637 -0.6255 -0.9350
   10CHTO  H201 3823   4.295   6.681   2.538 -0.3600  0.5236 -1.0798
   10CHTO  C120 3824   4.401   6.438   2.362  0.4482  0.5064  0.3480
   10CHTO  H224 3825   4.452   6.436   2.460  0.4647  1.0172  0.3471
   10CHTO   N21 3826   4.501   6.486   2.267  0.5203 -0.2457  0.0017
   10CHTO  H211 3827   4.579   6.529   2.328  0.1385  0.6529 -0.1380
   10CHTO  H212 3828   4.546   6.418   2.197  3.5919 -0.8027  2.4031
   10CHTO   O75 3829   4.064   6.561   2.485  0.8701  0.3075  0.8422
   10CHTO  C112 3830   4.039   6.618   2.645 -0.0857  0.4614 -0.2091
   10CHTO  H216 3831   4.135   6.661   2.678 -0.1896  1.5841 -1.3508
   10CHTO   O73 3832   4.002   6.497   2.721 -0.1018 -0.1484  0.5773
   10CHTO  C113 3833   3.993   6.519   2.864  0.0761  0.9724  0.5091
   10CHTO  H217 3834   4.096   6.530   2.903  0.4295 -2.1344  0.5732
   10CHTO  C124 3835   3.949   6.384   2.922  0.7758 -0.2001 -0.1149
   10CHTO   O83 3836   3.983   6.387   3.060  0.2565 -0.0495  0.5111
   10CHTO  H204 3837   3.926   6.441   3.111 -0.2540  0.2786 -0.4079
   10CHTO  C109 3838   3.898   6.638   2.896 -0.2690  0.2453 -0.3880
   10CHTO  H213 3839   3.794   6.606   2.875 -0.1691  1.6781 -3.2178
   10CHTO  C110 3840   3.926   6.764   2.809 -0.1904 -0.2983 -0.3842
   10CHTO  H214 3841   4.027   6.792   2.839  0.2913 -0.4963 -1.8054
   10CHTO   O78 3842   3.814   6.858   2.842  0.4158  0.4821  0.0286
   10CHTO  H200 3843   3.829   6.910   2.918  1.3307  2.3911 -1.4022
   10CHTO  C111 3844   3.933   6.731   2.659  0.9051  0.9509  0.5819
   10CHTO  H215 3845   3.838   6.685   2.628  1.6671  1.2321 -2.2233
   10CHTO   N19 3846   3.968   6.836   2.565  0.1837 -0.6084  0.8660
   10CHTO  H207 3847   4.067   6.878   2.577 -0.2267  0.2242  1.3256
   10CHTO  H208 3848   3.969   6.813   2.459 -0.7844 -1.3455  1.0096
   10CHTO   O74 3849   3.910   6.669   3.037 -0.3533  0.0114  0.2791
   10CHTO  C115 3850   3.772   6.690   3.111 -0.3987  0.3453 -0.2033
   10CHTO  H219 3851   3.692   6.717   3.041 -0.0888  0.8968 -0.3412
   10CHTO   O76 3852   3.719   6.557   3.174  0.5221  0.0354 -0.0279
   10CHTO  C122 3853   3.787   6.539   3.302  0.7696  0.2118 -0.6041
   10CHTO  H226 3854   3.895   6.528   3.287  0.7265 -0.2321 -0.5975
   10CHTO  C126 3855   3.743   6.403   3.368  0.3362  0.1211  0.5619
   10CHTO   O85 3856   3.808   6.378   3.497  0.2595 -0.7071 -0.0321
   10CHTO  H206 3857   3.777   6.300   3.538  1.5301  0.3558  3.1168
   10CHTO  C121 3858   3.739   6.651   3.405  0.2297 -0.0523 -0.1040
   10CHTO  H225 3859   3.658   6.623   3.475  0.3238 -0.4106 -0.1348
   10CHTO   O81 3860   3.846   6.686   3.490  0.0639  0.6482  0.4360
   10CHTO  H202 3861   3.911   6.734   3.443  0.1446 -1.4902 -1.7375
   10CHTO  C119 3862   3.689   6.779   3.335 -0.0912  0.2104  0.5941
   10CHTO  H223 3863   3.589   6.757   3.298 -0.3880  2.1173  0.2224
   10CHTO  C117 3864   3.782   6.811   3.214  0.0568 -0.0525 -0.0878
   10CHTO  H221 3865   3.888   6.818   3.237 -0.2018  0.2889  1.0397
   10CHTO   N20 3866   3.740   6.941   3.159  0.3371 -0.7411 -0.0054
   10CHTO  H209 3867   3.809   7.024   3.167  0.5960 -1.0221  0.6935
   10CHTO  H210 3868   3.693   6.931   3.063 -0.2007 -0.3510  0.2161
   10CHTO   O80 3869   3.663   6.899   3.439  0.2961 -0.4366  0.6149
   10CHTO  C103 3870   3.515   6.949   3.474  0.7988 -0.1020  0.5553
   10CHTO  H190 3871   3.516   7.033   3.543  3.0651 -1.1912  1.8666
   10CHTO  C101 3872   3.422   6.985   3.353 -0.1414 -0.3093  0.8241
   10CHTO  H188 3873   3.449   6.924   3.267 -1.6898  0.0448  0.0764
   10CHTO   O68 3874   3.438   7.110   3.315 -0.1432  0.2875  0.1545
   10CHTO  H168 3875   3.454   7.123   3.223  0.0778 -1.0808 -0.0039
   10CHTO   C99 3876   3.264   6.967   3.376 -0.4076  0.1604  0.0395
   10CHTO  H186 3877   3.213   7.051   3.427 -2.3645 -2.3006  2.3328
   10CHTO   N17 3878   3.184   6.956   3.250 -0.0354  0.1446  0.8207
   10CHTO  H174 3879   3.228   6.950   3.151 -2.2600 -1.0406 -0.1207
   10CHTO  H175 3880   3.102   7.026   3.249 -1.0008 -0.9711 -0.3954
   10CHTO   C97 3881   3.231   6.847   3.469 -0.4970  0.2296 -0.3466
   10CHTO  H184 3882   3.248   6.753   3.416 -1.3345 -0.7883  1.1432
   10CHTO   O64 3883   3.313   6.855   3.587 -0.2992  0.0450  0.4943
   10CHTO  C104 3884   3.450   6.831   3.556  0.5358 -0.3409  0.8775
   10CHTO  H191 3885   3.473   6.738   3.505 -1.6730 -1.7364  2.3410
   10CHTO  C108 3886   3.533   6.826   3.681 -0.2487  0.1181  0.7676
   10CHTO   O71 3887   3.471   6.762   3.791  0.6001 -0.4042 -0.0922
   10CHTO  H171 3888   3.513   6.791   3.870 -1.2454  0.0549  0.7650
   10CHTO   O62 3889   3.094   6.860   3.518  0.4316 -0.1867 -0.3174
   10CHTO   C91 3890   3.009   6.738   3.522 -0.9243 -0.4228  0.4016
   10CHTO  H178 3891   3.014   6.701   3.419  0.8912  1.0291 -0.0386
   10CHTO   C92 3892   2.867   6.779   3.570  0.0062  0.8868 -0.0007
   10CHTO  H179 3893   2.830   6.866   3.514 -2.9943  0.4517  1.2312
   10CHTO   O66 3894   2.777   6.677   3.541  0.5070  0.2423  0.4292
   10CHTO  H166 3895   2.692   6.717   3.539 -0.1655 -1.1532  0.6638
   10CHTO   C93 3896   2.868   6.805   3.724  0.1263  0.5980 -0.7556
   10CHTO  H180 3897   2.763   6.784   3.749  0.3995  1.2831  1.0261
   10CHTO   N16 3898   2.896   6.944   3.756 -0.0637 -0.0800 -0.0580
   10CHTO  H172 3899   2.802   6.984   3.791  0.8341  1.6670  0.4342
   10CHTO  H173 3900   2.920   6.990   3.661 -1.7353  0.1950 -0.3658
   10CHTO   C94 3901   2.956   6.717   3.815 -0.3349  0.9116  0.2420
   10CHTO  H181 3902   3.054   6.761   3.836 -0.9348  1.7681  1.2800
   10CHTO   O61 3903   2.993   6.601   3.732  0.3013  0.3050  0.0014
   10CHTO   C95 3904   3.071   6.626   3.614 -0.1816  0.4354  0.3089
   10CHTO  H182 3905   3.174   6.648   3.645  0.3225 -2.0898  0.5720
   10CHTO  C106 3906   3.075   6.483   3.538 -0.1197  0.1931  0.2165
   10CHTO   O69 3907   3.158   6.497   3.421 -0.0527 -0.2923 -0.2876
   10CHTO  H169 3908   3.249   6.500   3.442 -0.3601 -2.4084  1.5862
   10CHTO   O63 3909   2.885   6.674   3.946  0.0345 -0.1528  0.5994
   10CHTO   C96 3910   2.981   6.665   4.064  0.3129  0.0156  0.2694
   10CHTO  H183 3911   3.060   6.740   4.054 -1.0615  1.4233 -0.3013
   10CHTO   C98 3912   3.051   6.531   4.084 -0.1541  0.7141 -0.3076
   10CHTO  H185 3913   2.977   6.450   4.081  1.2605 -0.6309  0.0915
   10CHTO   O67 3914   3.135   6.518   3.971 -0.4368  0.1637  0.2788
   10CHTO  H167 3915   3.122   6.438   3.924  2.0284 -0.6117  0.8122
   10CHTO  C102 3916   3.143   6.519   4.214 -0.3939 -0.1803 -0.7392
   10CHTO  H189 3917   3.236   6.572   4.189 -0.3173  0.6765  1.2753
   10CHTO   N18 3918   3.175   6.375   4.242  0.3288 -0.2423 -0.1816
   10CHTO  H176 3919   3.124   6.304   4.178 -0.5047 -2.0488  2.4218
   10CHTO  H177 3920   3.280   6.351   4.240 -0.0920 -2.0829 -1.1976
   10CHTO  C105 3921   3.078   6.584   4.332  0.3033  0.0183  1.3380
   10CHTO  H192 3922   2.999   6.517   4.367 -2.5042  2.2678 -0.4746
   10CHTO   O65 3923   3.008   6.702   4.297  0.1308  0.0872  0.4159
   10CHTO  C100 3924   2.907   6.706   4.196 -0.0384 -0.0200  0.0552
   10CHTO  H187 3925   2.837   6.626   4.225 -0.7322  0.6102  0.1541
   10CHTO  C107 3926   2.848   6.847   4.194 -0.9101 -0.3665  0.4520
   10CHTO   O70 3927   2.777   6.883   4.313 -0.0575 -0.2033 -0.6195
   10CHTO  H170 3928   2.734   6.966   4.304  1.6845  0.5234 -2.8342
   10CHTO   O57 3929   3.191   6.613   4.435  0.1973 -0.1574  0.3259
   10CHTO   C85 3930   3.156   6.619   4.574 -0.3318 -0.6202 -0.1532
   10CHTO  H157 3931   3.045   6.621   4.579 -0.4297  1.4549 -2.3328
   10CHTO   C83 3932   3.191   6.766   4.616 -0.1116 -0.2732 -1.2057
   10CHTO  H155 3933   3.113   6.824   4.566 -1.0571 -0.6171 -0.1665
   10CHTO   O56 3934   3.321   6.818   4.568 -0.6551 -0.6715  0.3926
   10CHTO  H135 3935   3.322   6.821   4.474 -2.4752 -1.4603  0.3207
   10CHTO   C81 3936   3.157   6.768   4.771  0.0844 -0.0729 -0.2741
   10CHTO  H153 3937   3.054   6.734   4.786  0.3973 -0.4768  1.0363
   10CHTO   N14 3938   3.164   6.905   4.835  0.1597 -0.1576  0.5065
   10CHTO  H141 3939   3.093   6.965   4.781 -0.5274 -2.3285 -1.0777
   10CHTO  H142 3940   3.260   6.951   4.832  1.0021 -2.0416 -2.1112
   10CHTO   C79 3941   3.254   6.663   4.848 -0.1509  0.1928 -0.1317
   10CHTO  H151 3942   3.235   6.673   4.954 -0.6104 -1.2020 -0.0727
   10CHTO   O52 3943   3.211   6.522   4.808 -0.8206 -0.0210 -0.2211
   10CHTO   C86 3944   3.220   6.503   4.667  0.2371 -0.1254  0.3448
   10CHTO  H158 3945   3.329   6.500   4.651  0.2129  2.5374 -0.5695
   10CHTO   C90 3946   3.164   6.362   4.638 -0.2326  0.1703  0.1454
   10CHTO   O60 3947   3.048   6.307   4.705 -0.2956  0.3857  0.0373
   10CHTO  H138 3948   2.984   6.373   4.723 -0.1290  0.9785 -1.5126
   10CHTO   O50 3949   3.399   6.685   4.830  0.4538  0.8508  0.0408
   10CHTO   C73 3950   3.511   6.646   4.904  0.5299 -0.1378 -0.6451
   10CHTO  H145 3951   3.512   6.537   4.919 -1.7879  0.0720  1.3401
   10CHTO   C74 3952   3.497   6.703   5.050  0.0909 -0.3564  0.6702
   10CHTO  H146 3953   3.399   6.672   5.089 -0.1421  0.5191  0.7969
   10CHTO   O54 3954   3.594   6.639   5.136  0.1894  0.2701 -0.7365
   10CHTO  H133 3955   3.564   6.571   5.193  2.4729 -0.0573  0.1172
   10CHTO   C75 3956   3.510   6.866   5.040  0.3365 -0.0620  0.5618
   10CHTO  H147 3957   3.424   6.905   4.984 -0.5660  0.2193  2.1426
   10CHTO   N13 3958   3.500   6.931   5.174  1.1614 -0.2098  0.1379
   10CHTO  H139 3959   3.397   6.924   5.203  0.4346  0.4757 -2.1733
   10CHTO  H140 3960   3.525   7.036   5.166 -0.2229  0.0425 -1.0732
   10CHTO   C76 3961   3.644   6.905   4.961  0.6063 -0.1612  0.9620
   10CHTO  H148 3962   3.725   6.870   5.025 -0.5113 -0.9623  1.9408
   10CHTO   O49 3963   3.664   6.834   4.839 -0.1122 -0.0342 -0.2985
   10CHTO   C77 3964   3.645   6.693   4.836  0.5812  0.2927 -1.4443
   10CHTO  H149 3965   3.726   6.632   4.875  0.4677 -0.5717 -2.5327
   10CHTO   C88 3966   3.652   6.654   4.689 -0.5269  0.6380 -0.0395
   10CHTO   O58 3967   3.522   6.605   4.620 -0.4686 -0.3959  0.3646
   10CHTO  H136 3968   3.480   6.681   4.584 -0.8994  0.8343  3.3151
   10CHTO   O51 3969   3.660   7.041   4.921 -0.6546 -0.7427  0.3887
   10CHTO   C78 3970   3.807   7.109   4.940  0.0243  1.1558  0.4139
   10CHTO  H150 3971   3.880   7.039   4.986 -0.3740  0.8569  0.5944
   10CHTO   C80 3972   3.792   7.229   5.034  0.3715 -0.5691  0.3507
   10CHTO  H152 3973   3.713   7.294   4.990  0.1664 -2.1888 -1.6969
   10CHTO   O55 3974   3.759   7.183   5.161  0.2211 -0.0232 -0.1705
   10CHTO  H134 3975   3.704   7.108   5.168 -0.6342  0.7186  1.4060
   10CHTO   C84 3976   3.932   7.309   5.038  0.6002  0.0058 -0.1134
   10CHTO  H156 3977   4.001   7.234   5.075  1.1248 -1.6545 -4.2451
   10CHTO   N15 3978   3.925   7.429   5.135  0.8330  0.0267  0.0425
   10CHTO  H143 3979   4.018   7.478   5.150  0.4346 -0.3200  4.3075
   10CHTO  H144 3980   3.886   7.398   5.230 -0.2263  0.4172 -0.2596
   10CHTO   C87 3981   3.955   7.359   4.891 -0.4603  0.4130  0.1149
   10CHTO  H159 3982   3.874   7.424   4.858 -1.0184  0.4467  1.4965
   10CHTO   O53 3983   3.970   7.240   4.811  0.3715 -0.5283  0.4956
   10CHTO   C82 3984   3.850   7.160   4.797  0.4894  0.2596  0.2298
   10CHTO  H154 3985   3.772   7.222   4.752 -0.7033 -1.1509  0.3122
   10CHTO   C89 3986   3.876   7.043   4.698 -0.0586  0.4913 -0.2229
   10CHTO   O59 3987   3.995   6.966   4.728 -0.0517  0.0301 -0.5490
   10CHTO  H137 3988   4.062   7.031   4.737  1.3308 -1.3421 -0.6729
   10CHTO   O45 3989   4.073   7.421   4.881 -0.5257 -0.1661  0.4593
   10CHTO   C67 3990   4.095   7.521   4.786  0.4929  0.0748 -0.2201
   10CHTO  H124 3991   4.053   7.500   4.688  0.8984  1.2237 -0.6438
   10CHTO   C65 3992   4.043   7.653   4.847  0.5706  0.9085  0.5198
   10CHTO  H122 3993   3.958   7.629   4.912 -1.1578 -1.5895 -2.5256
   10CHTO   O44 3994   3.995   7.737   4.744 -0.1875  0.4187  0.8654
   10CHTO  H102 3995   4.056   7.808   4.739  1.1345 -0.7007  0.9631
   10CHTO   C63 3996   4.154   7.714   4.939 -0.2267  0.3004  0.0211
   10CHTO  H120 3997   4.175   7.641   5.018  0.7185  0.6404  0.0843
   10CHTO   N11 3998   4.109   7.832   5.016  1.0534  0.8555  0.1561
   10CHTO  H108 3999   4.088   7.910   4.945 -0.9599  0.1366 -0.0853
   10CHTO  H109 4000   4.193   7.869   5.069  3.5869 -0.4728 -2.7408
   10CHTO   C61 4001   4.293   7.733   4.857 -0.8345  0.0908 -0.1668
   10CHTO  H118 4002   4.378   7.717   4.926 -0.3933 -2.6254 -1.2780
   10CHTO   O40 4003   4.318   7.640   4.755  0.0892 -0.3946 -0.5866
   10CHTO   C68 4004   4.257   7.506   4.770  0.3146  0.6764  0.2800
   10CHTO  H125 4005   4.306   7.465   4.861  0.6501 -1.0783 -0.6878
   10CHTO   C72 4006   4.297   7.413   4.658 -0.4557 -0.0851  0.0429
   10CHTO   O48 4007   4.232   7.286   4.671 -0.2929 -0.0760  0.5735
   10CHTO  H105 4008   4.208   7.258   4.585  0.4623 -0.3656  0.4505
   10CHTO   O38 4009   4.291   7.863   4.788  0.2682  0.4491 -0.9093
   10CHTO   C55 4010   4.405   7.948   4.782  0.1553  0.1768 -0.1946
   10CHTO  H112 4011   4.494   7.888   4.759  0.1668  0.4693 -0.9373
   10CHTO   C56 4012   4.424   8.034   4.917  0.1467 -0.0761  0.1785
   10CHTO  H113 4013   4.325   8.074   4.945  0.6663  1.1371  0.3026
   10CHTO   O42 4014   4.453   7.942   5.028 -0.4177  0.0934  0.7950
   10CHTO  H100 4015   4.386   7.876   5.034 -1.5724  1.2199  0.4653
   10CHTO   C57 4016   4.532   8.150   4.903 -0.0104 -1.3009  0.6517
   10CHTO  H114 4017   4.635   8.115   4.892 -0.5123 -2.7335  0.3939
   10CHTO   N10 4018   4.538   8.244   5.020  0.2866 -0.4176 -0.3943
   10CHTO  H106 4019   4.584   8.340   5.000 -2.6011  1.0108 -0.4152
   10CHTO  H107 4020   4.579   8.196   5.107  1.7722  1.1195 -0.2135
   10CHTO   C58 4021   4.496   8.226   4.776 -0.2072  0.1038  0.0365
   10CHTO  H115 4022   4.391   8.260   4.786 -0.7712 -1.6350  0.1332
   10CHTO   O37 4023   4.492   8.140   4.661 -0.2637 -0.0475 -0.2797
   10CHTO   C59 4024   4.384   8.048   4.662 -0.7313 -0.7374  0.6613
   10CHTO  H116 4025   4.287   8.097   4.663 -1.1309 -1.4633 -0.8220
   10CHTO   C70 4026   4.392   7.964   4.530 -1.1892 -0.2280 -0.1378
   10CHTO   O46 4027   4.384   8.052   4.416  0.8042 -0.0711  0.7443
   10CHTO  H103 4028   4.363   8.004   4.337  0.1047  0.9859  0.2871
   10CHTO   O39 4029   4.606   8.354   4.751 -0.7752  0.0313  0.6444
   10CHTO   C60 4030   4.529   8.478   4.734  0.2376  0.0020 -0.1545
   10CHTO  H117 4031   4.421   8.467   4.743  0.1616 -1.1000 -2.0880
   10CHTO   C62 4032   4.575   8.583   4.842 -0.0707  0.2202  0.5589
   10CHTO  H119 4033   4.545   8.543   4.941  0.0569  3.1867  1.8619
   10CHTO   O43 4034   4.718   8.590   4.826 -0.1313  0.2006 -0.4335
   10CHTO  H101 4035   4.755   8.676   4.839  1.2980 -0.6610  1.3705
   10CHTO   C66 4036   4.496   8.715   4.816  0.0593 -0.0021  0.6850
   10CHTO  H123 4037   4.389   8.696   4.806 -0.2975  1.4695  1.5551
   10CHTO   N12 4038   4.519   8.816   4.922  0.2044 -0.7006 -0.0702
   10CHTO  H110 4039   4.625   8.837   4.927 -0.0938  1.0849 -0.9713
   10CHTO  H111 4040   4.461   8.906   4.906 -1.8248 -1.9403  0.1540
   10CHTO   C69 4041   4.525   8.778   4.680 -0.1568  0.3048  0.0800
   10CHTO  H126 4042   4.632   8.805   4.667 -0.3491  0.5896 -0.9786
   10CHTO   O41 4043   4.488   8.662   4.572 -0.8035  0.0406  0.1399
   10CHTO   C64 4044   4.558   8.532   4.597 -0.2188  0.5444 -0.1747
   10CHTO  H121 4045   4.668   8.547   4.594 -0.0618 -0.8698 -2.7995
   10CHTO   C71 4046   4.504   8.433   4.488  0.3242 -0.8145 -0.7489
   10CHTO   O47 4047   4.585   8.321   4.466  0.0144 -0.3191  0.5890
   10CHTO  H104 4048   4.671   8.342   4.496  0.7376 -2.9862  0.4685
   10CHTO   O34 4049   4.435   8.912   4.644 -0.1223  0.0675 -0.7753
   10CHTO   C49 4050   4.301   8.979   4.609 -0.3365 -0.6544  0.5655
   10CHTO   H91 4051   4.334   9.083   4.605  1.0388 -1.1059  0.0158
   10CHTO   C47 4052   4.188   8.968   4.720 -0.3426 -0.9545  0.4136
   10CHTO   H89 4053   4.212   9.038   4.803  0.7273 -3.4221  2.2504
   10CHTO   O33 4054   4.197   8.831   4.767  0.5913  0.3086  0.0856
   10CHTO   H70 4055   4.127   8.814   4.826 -0.9737  1.7909 -1.2695
   10CHTO   C45 4056   4.041   8.981   4.663 -0.2406 -0.3257  0.3976
   10CHTO   H87 4057   4.004   8.881   4.637 -0.5475 -0.4365  1.2585
   10CHTO    N8 4058   3.954   9.039   4.770  1.1452  0.6136 -0.5622
   10CHTO   H75 4059   3.897   9.119   4.725 -0.1695 -0.2781 -0.5162
   10CHTO   H76 4060   3.890   8.961   4.810 -0.0475 -0.4887 -4.4407
   10CHTO   C43 4061   4.046   9.070   4.525 -0.0892 -0.5824 -0.4354
   10CHTO   H85 4062   3.940   9.084   4.499 -0.3261 -0.8484  0.3772
   10CHTO   O29 4063   4.114   8.985   4.424 -0.4949  0.1016 -0.1617
   10CHTO   C50 4064   4.246   8.942   4.463 -0.5410 -0.2436  0.8086
   10CHTO   H92 4065   4.267   8.838   4.436 -1.2563  0.1967 -1.6254
   10CHTO   C54 4066   4.325   9.015   4.360 -0.1476 -0.3178  0.5017
   10CHTO   O36 4067   4.290   8.966   4.233 -0.1214  0.2310  0.1224
   10CHTO   H72 4068   4.348   8.905   4.192 -0.6364 -1.7429  2.2771
   10CHTO   O27 4069   4.103   9.201   4.552 -0.6682 -0.6359  0.2071
   10CHTO   C37 4070   4.152   9.333   4.509  0.6014 -0.7918 -0.7236
   10CHTO   H79 4071   4.262   9.340   4.500  0.7581  0.5103  1.5795
   10CHTO   C38 4072   4.085   9.364   4.372  0.1741  0.4073 -0.0158
   10CHTO   H80 4073   3.976   9.348   4.376  0.1976  0.4408  0.6864
   10CHTO   O31 4074   4.127   9.271   4.278  0.2978 -0.2553  0.0675
   10CHTO   H68 4075   4.082   9.189   4.286  1.6889 -1.2726 -2.1362
   10CHTO   C39 4076   4.119   9.507   4.328 -0.9244 -0.5709 -0.1479
   10CHTO   H81 4077   4.227   9.499   4.314 -0.3568 -0.1956  3.5017
   10CHTO    N7 4078   4.061   9.547   4.199  0.0295 -0.4584 -0.5905
   10CHTO   H73 4079   3.973   9.609   4.196  0.0190 -0.5052 -1.2578
   10CHTO   H74 4080   4.146   9.569   4.136  0.3407 -0.4258 -0.1635
   10CHTO   C40 4081   4.097   9.611   4.444  0.9368 -0.2092  0.8261
   10CHTO   H82 4082   3.990   9.632   4.450  0.9134 -0.1150  0.1168
   10CHTO   O26 4083   4.153   9.575   4.568  0.0503 -0.5683  0.4321
   10CHTO   C41 4084   4.109   9.443   4.613  0.4745  0.3954 -0.5953
   10CHTO   H83 4085   4.000   9.452   4.625  0.4280  0.8789 -1.4081
   10CHTO   C52 4086   4.166   9.420   4.754 -0.4750  0.0738  0.2431
   10CHTO   O35 4087   4.077   9.473   4.857 -0.6887  0.0532 -0.3553
   10CHTO   H71 4088   4.077   9.414   4.930  1.7680 -3.0034 -2.7099
   10CHTO   O28 4089   4.161   9.733   4.407 -0.0902 -0.1742  0.1266
   10CHTO   C42 4090   4.116   9.864   4.462  0.4064 -0.3412  0.1744
   10CHTO   H84 4091   4.040   9.845   4.538 -0.4084 -1.8565 -0.9905
   10CHTO   C44 4092   4.044   9.950   4.356  0.0633 -0.8513 -0.1467
   10CHTO   H86 4093   4.118   9.981   4.282 -0.1504  4.5786  1.6792
   10CHTO   O32 4094   3.940   9.869   4.300 -0.1129 -0.5588 -0.6810
   10CHTO   H69 4095   3.898   9.919   4.232 -0.1716  1.6776  0.9499
   10CHTO   C48 4096   4.001  10.095   4.413 -0.0724  0.1150  0.6902
   10CHTO   H90 4097   3.931  10.089   4.496 -0.8022  0.6692  0.1281
   10CHTO    N9 4098   3.937  10.171   4.302  0.3994 -0.4576  0.6079
   10CHTO   H77 4099   3.861  10.236   4.341  0.0933 -0.4235 -0.0456
   10CHTO   H78 4100   3.892  10.101   4.234 -1.8501  0.5097  1.0649
   10CHTO   C51 4101   4.128  10.166   4.463 -0.3074  0.6437  0.1211
   10CHTO   H93 4102   4.205  10.174   4.385 -0.7901 -4.0568 -0.9766
   10CHTO   O30 4103   4.175  10.085   4.576 -0.0584 -0.6822  0.2393
   10CHTO   C46 4104   4.224   9.947   4.531  0.3476 -0.5387 -0.8039
   10CHTO   H88 4105   4.307   9.968   4.462  0.7822  0.5269  0.0231
   10CHTO   C53 4106   4.273   9.882   4.661  0.4146 -0.2855  0.2392
   10CHTO   O72 4107   4.173   9.871   4.766  0.3023  0.2808  0.5612
   10CHTO  H199 4108   4.212   9.830   4.841  2.8831 -0.6784 -1.2440
   10CHTO   O22 4109   4.102  10.296   4.512  0.1897 -0.6778  0.2204
   10CHTO   C31 4110   4.207  10.404   4.518  0.2177 -0.4545 -0.4704
   10CHTO   H59 4111   4.170  10.478   4.592  1.2661  0.4259 -0.8208
   10CHTO   C29 4112   4.346  10.358   4.567  0.1210  0.0593 -0.7909
   10CHTO   H57 4113   4.373  10.279   4.495 -0.0101 -0.4324 -0.3075
   10CHTO   O21 4114   4.337  10.291   4.697  0.2943  0.4239  0.0820
   10CHTO   H37 4115   4.412  10.241   4.723 -0.5505 -1.8057 -1.5883
   10CHTO   C27 4116   4.449  10.469   4.571  0.4295  0.1367 -0.1918
   10CHTO   H55 4117   4.420  10.544   4.646  1.2477  2.3219 -1.9983
   10CHTO    N5 4118   4.589  10.422   4.606  0.6852 -0.1024 -0.2742
   10CHTO   H43 4119   4.655  10.498   4.647 -2.2812  1.9420  0.8966
   10CHTO   H44 4120   4.593  10.328   4.659 -2.7813  0.9304  1.9945
   10CHTO   C25 4121   4.450  10.550   4.435 -0.4870 -0.2496  0.4096
   10CHTO   H53 4122   4.482  10.491   4.348  0.4755 -0.3649  0.8389
   10CHTO   O17 4123   4.316  10.590   4.400 -0.6864  0.5541  0.9365
   10CHTO   C32 4124   4.229  10.478   4.384  0.2015  0.7227 -0.6085
   10CHTO   H60 4125   4.267  10.413   4.306  0.3404 -0.6255  0.5747
   10CHTO   C36 4126   4.088  10.516   4.329 -0.3014  0.5754  0.3525
   10CHTO   O25 4127   4.094  10.570   4.197 -0.1163  0.4442 -0.5125
   10CHTO   H40 4128   4.010  10.585   4.158  0.0017  0.5512 -0.7262
   10CHTO   O15 4129   4.547  10.677   4.435 -0.4977  0.0863 -0.1744
   10CHTO   C19 4130   4.549  10.767   4.317 -0.4095  0.3547  0.2729
   10CHTO   H47 4131   4.469  10.736   4.248  0.9256 -0.0940 -1.0894
   10CHTO   C20 4132   4.523  10.920   4.359  0.2955  0.1469  0.0611
   10CHTO   H48 4133   4.592  10.953   4.438  1.9579 -0.7330 -1.0215
   10CHTO   O19 4134   4.380  10.930   4.400 -0.0886 -0.4638 -0.2375
   10CHTO   H35 4135   4.377  11.004   4.458  3.7845  1.0911 -1.7988
   10CHTO   C21 4136   4.536  11.013   4.229 -0.4368  0.1543 -0.4339
   10CHTO   H49 4137   4.458  10.983   4.159 -1.7083 -0.5514  1.2503
   10CHTO    N4 4138   4.517  11.160   4.260  0.1666 -0.3618  0.2076
   10CHTO   H41 4139   4.572  11.221   4.190  1.9941  0.7065  2.5078
   10CHTO   H42 4140   4.563  11.168   4.357  1.5942  0.3593 -0.5298
   10CHTO   C22 4141   4.669  10.981   4.157 -0.2666 -0.5701  0.4381
   10CHTO   H50 4142   4.752  11.019   4.216 -0.7835  1.0891  0.1125
   10CHTO   O14 4143   4.687  10.842   4.127  0.2377 -0.0179  0.9575
   10CHTO   C23 4144   4.684  10.749   4.238 -0.3106  0.0135 -0.2924
   10CHTO   H51 4145   4.774  10.767   4.299 -0.6322 -1.3657  0.6035
   10CHTO   C34 4146   4.703  10.607   4.171  0.1659  0.2485  0.0513
   10CHTO   O23 4147   4.754  10.509   4.259  0.5233  0.0509  0.1059
   10CHTO   H38 4148   4.794  10.443   4.205  0.2334 -0.8543  0.9888
   10CHTO   O16 4149   4.673  11.045   4.025 -0.0609 -0.0162 -0.4774
   10CHTO   C24 4150   4.839  11.115   3.988 -0.1638  0.4793  0.7706
   10CHTO   H52 4151   4.908  11.111   4.073  2.2800 -1.4748 -1.2119
   10CHTO   C26 4152   4.830  11.261   3.946 -0.1343  0.8692  0.0172
   10CHTO   H54 4153   4.772  11.263   3.851  2.3487  0.0214 -1.5554
   10CHTO   O20 4154   4.755  11.336   4.048 -0.6030 -0.4988 -0.1629
   10CHTO   H36 4155   4.823  11.340   4.113 -0.8082 -2.4697  0.2012
   10CHTO   C30 4156   4.970  11.313   3.914  0.4844  0.5998  0.1268
   10CHTO   H58 4157   5.039  11.304   3.999  1.1171  3.1848 -0.0756
   10CHTO    N6 4158   4.961  11.457   3.873  0.4657  0.6971 -0.0627
   10CHTO   H45 4159   4.915  11.489   3.781  0.6873  0.2624 -0.3247
   10CHTO   H46 4160   5.065  11.487   3.875  1.3101 -1.8367 -2.8488
   10CHTO   C33 4161   5.043  11.221   3.806  0.1797  0.0169  0.3524
   10CHTO   H61 4162   4.997  11.230   3.707 -0.4886 -0.3162  0.6326
   10CHTO   O18 4163   5.041  11.083   3.850  0.2009  0.5330 -0.0115
   10CHTO   C28 4164   4.914  11.023   3.875  0.3635 -0.4736 -0.2635
   10CHTO   H56 4165   4.858  11.024   3.781 -0.5225 -0.3349  0.2564
   10CHTO   C35 4166   4.952  10.885   3.932 -1.1547 -0.1619  0.3703
   10CHTO   O24 4167   5.076  10.822   3.890  0.1201 -0.1077 -0.5008
   10CHTO   H39 4168   5.155  10.870   3.907  0.8464 -0.7040 -2.1490
   10CHTO    O9 4169   5.177  11.267   3.789 -0.3077 -0.2084  0.3594
   10CHTO   C13 4170   5.252  11.251   3.647  0.2593 -0.1125 -0.1832
   10CHTO   H26 4171   5.197  11.314   3.574  1.0162  0.8733  0.0829
   10CHTO   C11 4172   5.254  11.100   3.598 -0.8438 -0.3047 -0.2845
   10CHTO   H24 4173   5.157  11.081   3.551 -1.7669  2.3362  0.4628
   10CHTO    O8 4174   5.272  10.998   3.698 -0.1464  0.0717 -0.2800
   10CHTO    H3 4175   5.198  11.001   3.757  0.3398  1.7470  0.2578
   10CHTO    C9 4176   5.359  11.089   3.483  0.1647 -0.0697 -0.1366
   10CHTO   H22 4177   5.331  11.169   3.413  0.8973  0.5313  0.2435
   10CHTO    N2 4178   5.347  10.968   3.400  0.3449 -0.3026  0.1350
   10CHTO   H10 4179   5.247  10.950   3.363  0.9861 -0.8123 -1.3665
   10CHTO   H11 4180   5.407  10.980   3.312  0.7422 -0.4916  0.3782
   10CHTO    C7 4181   5.500  11.115   3.540 -0.0791 -0.4448  0.1145
   10CHTO   H20 4182   5.555  11.141   3.448 -1.0715  2.9294  0.3943
   10CHTO    O4 4183   5.513  11.225   3.640 -0.6190  0.0303  0.0489
   10CHTO   C14 4184   5.403  11.317   3.649 -0.0938 -0.2224  0.0090
   10CHTO   H27 4185   5.407  11.372   3.553 -0.1394 -3.4709 -1.9399
   10CHTO   C18 4186   5.424  11.415   3.759  0.1826 -0.3565  0.1771
   10CHTO   O13 4187   5.341  11.533   3.727  0.1968  0.8281  1.0534
   10CHTO    H7 4188   5.283  11.548   3.799 -1.5186 -2.2924  0.3961
   10CHTO    O2 4189   5.548  10.989   3.606 -0.3953  0.1715 -0.2648
   10CHTO    C1 4190   5.681  10.949   3.581 -0.3075 -0.1081 -0.3069
   10CHTO   H14 4191   5.749  11.037   3.583 -0.5174  0.0509 -0.1434
   10CHTO    C2 4192   5.704  10.859   3.444 -0.7093  0.5995  0.0235
   10CHTO   H15 4193   5.638  10.771   3.453  1.1462 -0.7631  0.4930
   10CHTO    O6 4194   5.675  10.946   3.332 -0.1146  0.2786  0.3187
   10CHTO    H1 4195   5.748  10.999   3.307  0.8527 -1.0660  0.1913
   10CHTO    C3 4196   5.863  10.807   3.433  0.4743  0.5661  0.5975
   10CHTO   H16 4197   5.926  10.896   3.418  2.2852 -1.0200 -1.6544
   10CHTO    N1 4198   5.873  10.711   3.319 -1.1406 -0.2482 -0.1636
   10CHTO    H8 4199   5.953  10.740   3.252  0.2392 -3.3934 -0.0027
   10CHTO    H9 4200   5.775  10.721   3.275 -0.1952 -0.0814 -2.2856
   10CHTO    C4 4201   5.908  10.744   3.570  0.3773 -0.6105  0.0833
   10CHTO   H17 4202   5.856  10.649   3.582  2.2604 -1.6718 -0.1374
   10CHTO    O1 4203   5.875  10.832   3.679  0.0069 -0.1685 -0.5814
   10CHTO    C5 4204   5.737  10.866   3.700 -0.2731 -0.0090  0.1135
   10CHTO   H18 4205   5.670  10.780   3.704 -1.3203  0.8486  1.3599
   10CHTO   C16 4206   5.721  10.939   3.833 -0.3181  0.1727  0.0384
   10CHTO   O11 4207   5.725  10.850   3.942  0.0123  0.3372 -0.0406
   10CHTO    H5 4208   5.647  10.853   3.993  0.5732 -2.7800  1.1359
   10CHTO    O3 4209   6.050  10.732   3.588  0.4791 -0.0287  0.3261
   10CHTO    C6 4210   6.115  10.605   3.604 -1.0328 -0.4429 -0.7802
   10CHTO   H19 4211   6.046  10.520   3.607 -2.0227  0.3733 -0.2669
   10CHTO    C8 4212   6.219  10.593   3.496  0.3983  0.0027 -0.4309
   10CHTO   H21 4213   6.283  10.682   3.497  0.3279  0.0482  0.1630
   10CHTO    O7 4214   6.163  10.568   3.364 -0.1878 -0.2663  0.2329
   10CHTO    H2 4215   6.194  10.637   3.309 -1.1373 -0.6512 -0.7802
   10CHTO   C12 4216   6.332  10.485   3.525  0.0448  0.0878  0.1319
   10CHTO   H25 4217   6.279  10.388   3.507 -2.5744  0.7543  3.6928
   10CHTO    N3 4218   6.448  10.492   3.427  0.0640 -0.0748  0.1868
   10CHTO   H12 4219   6.501  10.399   3.443 -2.6259 -1.6172  0.4284
   10CHTO   H13 4220   6.423  10.507   3.323  0.4610 -4.2302 -0.6125
   10CHTO   C15 4221   6.379  10.492   3.672 -0.6092  0.6426  0.1657
   10CHTO   H28 4222   6.432  10.585   3.694  1.1201 -0.2713 -0.0160
   10CHTO   O10 4223   6.446  10.357   3.731  0.6473  0.4092  0.1461
   10CHTO    H4 4224   6.512  10.319   3.675 -0.7467 -0.0329 -1.2484
   10CHTO    O5 4225   6.264  10.485   3.756  0.2067  0.2617 -0.2073
   10CHTO   C10 4226   6.178  10.602   3.743 -0.0871  0.3365 -0.1830
   10CHTO   H23 4227   6.240  10.688   3.769 -2.4648  1.0161  3.6108
   10CHTO   C17 4228   6.063  10.605   3.845 -0.2059  0.0514 -0.1630
   10CHTO   O12 4229   6.102  10.623   3.980  0.4336 -0.0674  0.3849
   10CHTO    H6 4230   6.026  10.610   4.034 -0.4018  1.4875 -0.3449
   11CHTO  H203 4231   7.150   5.411   0.199  1.4151  0.8359 -0.8526
   11CHTO   O82 4232   7.174   5.453   0.280 -0.1174 -0.2111  0.1714
   11CHTO  C123 4233   7.172   5.595   0.265 -0.2278 -0.6053  0.4159
   11CHTO  H227 4234   7.216   5.627   0.170 -0.3542 -3.8497 -0.7883
   11CHTO   O77 4235   7.026   5.611   0.258  0.9165  0.1943 -0.1473
   11CHTO  C118 4236   6.982   5.748   0.257 -0.3721  0.3170 -0.1316
   11CHTO  H222 4237   7.030   5.811   0.182 -0.2748  2.6109  1.7862
   11CHTO  C125 4238   6.823   5.746   0.224 -0.0684 -0.0759 -0.4700
   11CHTO   O84 4239   6.788   5.727   0.090 -0.6373 -0.0188  0.6485
   11CHTO  H205 4240   6.827   5.648   0.057  0.4208 -0.0877  2.0277
   11CHTO  C114 4241   7.008   5.809   0.394 -0.1376 -0.0674  0.1214
   11CHTO  H218 4242   6.963   5.749   0.473 -0.1761  1.8093  1.5803
   11CHTO  C116 4243   7.162   5.813   0.426  0.3635  0.6362  0.6494
   11CHTO  H220 4244   7.211   5.895   0.368 -0.9841  1.0866  0.1157
   11CHTO   O79 4245   7.191   5.849   0.562 -0.5908 -0.0379  0.2158
   11CHTO  H201 4246   7.281   5.870   0.576  0.3400 -3.4432 -0.0884
   11CHTO  C120 4247   7.222   5.671   0.396 -0.0708 -0.0137  0.0069
   11CHTO  H224 4248   7.200   5.600   0.478 -1.0992 -0.2083 -0.4263
   11CHTO   N21 4249   7.370   5.676   0.388  0.4160 -0.0174 -0.0822
   11CHTO  H211 4250   7.401   5.725   0.297  0.1743 -0.0653 -0.1936
   11CHTO  H212 4251   7.404   5.573   0.391  2.3180  0.5964 -0.5867
   11CHTO   O75 4252   6.948   5.943   0.383  0.0289  0.5587  0.3483
   11CHTO  C112 4253   6.862   5.983   0.503 -0.6750 -0.3254  0.0812
   11CHTO  H216 4254   6.904   5.936   0.594 -0.6259  2.8835  1.7848
   11CHTO   O73 4255   6.728   5.941   0.476  0.1075 -0.7952 -0.2308
   11CHTO  C113 4256   6.632   6.010   0.555  0.0468  0.4854  0.1946
   11CHTO  H217 4257   6.652   5.973   0.658  1.2870  0.3110 -0.1063
   11CHTO  C124 4258   6.494   5.954   0.500 -0.1932 -0.0156  0.0918
   11CHTO   O83 4259   6.468   5.982   0.363 -0.2151  0.0581  0.7465
   11CHTO  H204 4260   6.430   6.068   0.359 -0.5740 -0.1472 -0.2695
   11CHTO  C109 4261   6.639   6.162   0.536 -0.6891  0.0424  0.4946
   11CHTO  H213 4262   6.643   6.176   0.427 -0.6727 -0.9229  0.3626
   11CHTO  C110 4263   6.776   6.210   0.587 -0.6423 -0.5219 -0.8554
   11CHTO  H214 4264   6.781   6.198   0.696 -0.1794  2.0139 -0.5682
   11CHTO   O78 4265   6.799   6.356   0.580  0.3809 -0.4491  0.1896
   11CHTO  H200 4266   6.891   6.375   0.576 -0.0613  1.6396 -1.2533
   11CHTO  C111 4267   6.892   6.138   0.512  0.4253  0.5117  0.4072
   11CHTO  H215 4268   6.895   6.180   0.410 -0.7680  2.3901  1.1188
   11CHTO   N19 4269   7.022   6.156   0.575  0.5165  0.4866 -0.5179
   11CHTO  H207 4270   7.043   6.260   0.594 -0.2756  0.6710 -0.6560
   11CHTO  H208 4271   7.105   6.106   0.526  2.2449  2.0182  0.7376
   11CHTO   O74 4272   6.531   6.229   0.597  0.3343  0.1159  0.0534
   11CHTO  C115 4273   6.470   6.332   0.520  0.1031 -0.0288 -0.4918
   11CHTO  H219 4274   6.529   6.358   0.432  2.3363 -0.2057  0.9350
   11CHTO   O76 4275   6.325   6.280   0.448  0.5710  0.0158 -0.3582
   11CHTO  C122 4276   6.245   6.225   0.547  0.0589  0.5444  0.4018
   11CHTO  H226 4277   6.294   6.142   0.598 -2.0709 -0.5855  0.6619
   11CHTO  C126 4278   6.109   6.170   0.491 -0.6269 -0.0862  0.2314
   11CHTO   O85 4279   6.044   6.265   0.402  0.9029 -0.6624 -0.0783
   11CHTO  H206 4280   5.976   6.227   0.350  0.6991 -0.4703  0.0447
   11CHTO  C121 4281   6.223   6.324   0.658  0.1613 -0.1303  0.4298
   11CHTO  H225 4282   6.114   6.329   0.679  0.1380  1.8717 -0.0448
   11CHTO   O81 4283   6.282   6.284   0.779 -0.1864  0.4148 -0.0409
   11CHTO  H202 4284   6.236   6.326   0.850  0.8256 -0.0636  0.9160
   11CHTO  C119 4285   6.279   6.463   0.622  0.0658  0.2454  0.0936
   11CHTO  H223 4286   6.238   6.480   0.523 -1.7535  0.4037  0.8526
   11CHTO  C117 4287   6.435   6.462   0.604  0.1126 -0.1106 -0.1146
   11CHTO  H221 4288   6.488   6.461   0.699  1.0977 -1.4142 -0.6640
   11CHTO   N20 4289   6.474   6.596   0.541 -0.0685 -0.3606 -0.2538
   11CHTO  H209 4290   6.567   6.576   0.488  0.1454  2.0474 -0.8427
   11CHTO  H210 4291   6.477   6.671   0.619  2.6404 -1.2193  0.5217
   11CHTO   O80 4292   6.204   6.583   0.706  0.5141  0.1362  0.3305
   11CHTO  C103 4293   6.248   6.624   0.850 -0.1539  0.7703  0.0136
   11CHTO  H190 4294   6.288   6.544   0.913  1.2298 -0.7430 -2.7239
   11CHTO  C101 4295   6.342   6.746   0.865 -0.0246 -0.1316  0.5951
   11CHTO  H188 4296   6.310   6.833   0.806 -2.3231 -0.3650  1.4730
   11CHTO   O68 4297   6.475   6.709   0.822  0.2581  0.1480  0.3500
   11CHTO  H168 4298   6.465   6.654   0.747 -2.6364  0.4931  0.4540
   11CHTO   C99 4299   6.336   6.798   1.014 -0.1472 -0.6192 -0.6214
   11CHTO  H186 4300   6.369   6.721   1.087  0.0776  0.4301  0.3943
   11CHTO   N17 4301   6.427   6.922   1.037 -0.3279 -0.4334 -0.0117
   11CHTO  H174 4302   6.365   7.005   1.008  0.2397  0.6872  1.9442
   11CHTO  H175 4303   6.445   6.933   1.142 -2.8647 -0.4160  0.4387
   11CHTO   C97 4304   6.188   6.839   1.046 -0.6966  0.2499  0.3884
   11CHTO  H184 4305   6.157   6.907   0.965 -1.7938 -1.0948 -0.3755
   11CHTO   O64 4306   6.113   6.715   1.042  0.4715 -0.1591 -0.1680
   11CHTO  C104 4307   6.110   6.662   0.910  0.1194 -0.0787 -0.6222
   11CHTO  H191 4308   6.063   6.738   0.848 -1.5137  0.3752  1.1042
   11CHTO  C108 4309   6.015   6.542   0.905  0.1839 -0.7211 -0.2008
   11CHTO   O71 4310   5.885   6.596   0.938 -0.2910 -0.4700  0.1690
   11CHTO  H171 4311   5.817   6.534   0.917  0.1005 -0.0870 -2.3387
   11CHTO   O62 4312   6.164   6.891   1.177 -0.1520 -0.1619  0.2990
   11CHTO   C91 4313   6.054   6.981   1.205 -0.2071  0.0524  0.1388
   11CHTO  H178 4314   5.984   6.979   1.121 -1.3384  0.4219  1.0611
   11CHTO   C92 4315   6.119   7.123   1.217 -0.4197 -0.2839 -0.2653
   11CHTO  H179 4316   6.217   7.125   1.268 -2.0272  0.6899  2.9124
   11CHTO   O66 4317   6.125   7.168   1.084 -0.0955 -0.5677 -0.4703
   11CHTO  H166 4318   6.186   7.239   1.079  0.3626 -0.5778  3.5479
   11CHTO   C93 4319   6.031   7.220   1.311 -0.8422  0.6274 -0.4445
   11CHTO  H180 4320   5.943   7.257   1.258  0.1857  1.6835 -1.4468
   11CHTO   N16 4321   6.103   7.345   1.331  0.7221  0.5809 -0.1409
   11CHTO  H172 4322   6.208   7.325   1.337  0.9046  1.7591  0.7096
   11CHTO  H173 4323   6.080   7.413   1.251  0.4782  0.4863 -0.1553
   11CHTO   C94 4324   5.989   7.144   1.439  0.2556 -0.0287 -0.2139
   11CHTO  H181 4325   6.072   7.100   1.495 -1.5785 -1.9067  1.1067
   11CHTO   O61 4326   5.902   7.034   1.405 -0.3102 -0.5526 -0.6180
   11CHTO   C95 4327   5.976   6.935   1.340  0.1383 -0.3141 -0.5818
   11CHTO  H182 4328   6.044   6.887   1.411  1.5058 -0.8092 -2.1620
   11CHTO  C106 4329   5.867   6.833   1.308  0.2551 -0.1011  0.7458
   11CHTO   O69 4330   5.919   6.708   1.258 -0.1727 -0.2178 -0.2387
   11CHTO  H169 4331   5.851   6.661   1.213  0.5411 -1.6449  0.1484
   11CHTO   O63 4332   5.897   7.250   1.527 -0.5717 -0.1032  0.3387
   11CHTO   C96 4333   5.986   7.263   1.672  0.1535 -0.4396  0.2362
   11CHTO  H183 4334   6.092   7.272   1.646 -0.2605 -0.4025 -1.4384
   11CHTO   C98 4335   5.958   7.138   1.770 -0.2085  0.7367  0.2578
   11CHTO  H185 4336   5.850   7.113   1.770 -0.2057  0.6475  3.0152
   11CHTO   O67 4337   6.025   7.029   1.706 -0.2263  0.4025  0.0472
   11CHTO  H167 4338   6.060   6.964   1.763 -3.8415 -0.2104  1.7273
   11CHTO  C102 4339   6.008   7.156   1.927 -0.5016 -0.0188  0.0426
   11CHTO  H189 4340   6.109   7.114   1.933 -0.6988 -0.3708  0.9749
   11CHTO   N18 4341   5.936   7.071   2.027  0.4772 -0.0534  0.7455
   11CHTO  H176 4342   5.994   7.070   2.118  1.2322 -4.2184  0.3085
   11CHTO  H177 4343   5.914   6.971   1.993 -0.2764 -0.1824  1.6194
   11CHTO  C105 4344   6.012   7.310   1.958 -0.6122  0.0758 -0.5508
   11CHTO  H192 4345   5.967   7.332   2.055  1.1065  1.9861 -0.1610
   11CHTO   O65 4346   5.929   7.397   1.876 -0.1999 -0.0202 -0.7816
   11CHTO  C100 4347   5.933   7.394   1.735  0.1255  0.6647 -0.5658
   11CHTO  H187 4348   5.829   7.406   1.701  0.2934 -1.0381 -1.7439
   11CHTO  C107 4349   6.010   7.514   1.695 -0.0214  0.1320 -0.1121
   11CHTO   O70 4350   5.950   7.625   1.754 -0.3649 -0.0067 -0.5854
   11CHTO  H170 4351   5.962   7.695   1.693  0.0747  0.5789  0.1638
   11CHTO   O57 4352   6.175   7.343   1.961  0.1431  0.1612  0.1958
   11CHTO   C85 4353   6.236   7.384   2.089 -0.4608 -0.2588  0.6372
   11CHTO  H157 4354   6.155   7.371   2.164  1.2897 -3.3700  2.0718
   11CHTO   C83 4355   6.257   7.542   2.070  0.1480 -0.1407  0.2435
   11CHTO  H155 4356   6.157   7.586   2.061  0.0938 -0.1585  0.7641
   11CHTO   O56 4357   6.332   7.564   1.945  0.1147 -0.4456  0.0470
   11CHTO  H135 4358   6.326   7.655   1.921  1.2440 -0.0590  1.2317
   11CHTO   C81 4359   6.324   7.605   2.192  1.0449 -0.4268 -0.1538
   11CHTO  H153 4360   6.253   7.590   2.273  2.8401  1.0477  1.7535
   11CHTO   N14 4361   6.339   7.753   2.181 -0.4203  0.6722 -0.3588
   11CHTO  H141 4362   6.244   7.802   2.174  0.3365  2.0463 -1.4029
   11CHTO  H142 4363   6.393   7.791   2.265 -0.3429  2.7381 -1.3055
   11CHTO   C79 4364   6.456   7.528   2.240 -0.3813 -0.4041 -0.2779
   11CHTO  H151 4365   6.475   7.557   2.343 -0.4716 -0.1408 -0.3353
   11CHTO   O52 4366   6.433   7.386   2.246 -0.3071  0.2432  0.2047
   11CHTO   C86 4367   6.372   7.322   2.131 -0.2611 -0.2140  0.3194
   11CHTO  H158 4368   6.449   7.332   2.051 -2.0024 -1.0514 -1.5098
   11CHTO   C90 4369   6.354   7.168   2.156  0.3713  0.1657 -0.2893
   11CHTO   O60 4370   6.256   7.159   2.258  0.0551 -0.5308 -1.0939
   11CHTO  H138 4371   6.170   7.180   2.228 -0.8639 -2.6073  0.0400
   11CHTO   O50 4372   6.564   7.546   2.152 -0.1181 -0.3872  0.1240
   11CHTO   C73 4373   6.703   7.505   2.156  0.4855  0.6891  0.9418
   11CHTO  H145 4374   6.716   7.410   2.211 -4.0171 -0.6998 -0.1187
   11CHTO   C74 4375   6.792   7.624   2.212  0.3448  0.8101 -0.5691
   11CHTO  H146 4376   6.764   7.644   2.316  2.6986 -2.2692  0.7318
   11CHTO   O54 4377   6.932   7.580   2.220  0.0370 -0.5156 -0.6590
   11CHTO  H133 4378   6.984   7.651   2.250 -0.5511 -0.7390  0.9385
   11CHTO   C75 4379   6.767   7.751   2.125 -0.4922  0.2758 -0.3965
   11CHTO  H147 4380   6.659   7.771   2.136 -0.3037 -0.2273  3.1909
   11CHTO   N13 4381   6.830   7.875   2.173  0.1116  0.4704  0.2927
   11CHTO  H139 4382   6.936   7.864   2.190  0.1799 -0.2433 -0.5813
   11CHTO  H140 4383   6.790   7.901   2.270 -1.8193  2.3318 -0.9683
   11CHTO   C76 4384   6.803   7.718   1.970 -0.0872  0.4353 -0.2582
   11CHTO  H148 4385   6.911   7.703   1.958 -0.4966 -2.5726 -0.6251
   11CHTO   O49 4386   6.727   7.594   1.925 -0.2361  0.5624 -0.3941
   11CHTO   C77 4387   6.752   7.477   2.003  0.2620 -0.7245 -0.2412
   11CHTO  H149 4388   6.859   7.456   2.005  0.2104 -0.9687  4.1187
   11CHTO   C88 4389   6.679   7.363   1.929 -0.2174 -0.0590  0.2564
   11CHTO   O58 4390   6.700   7.227   1.988 -0.5561  0.4292  0.1045
   11CHTO  H136 4391   6.792   7.210   1.995 -0.5938  0.2401  0.1656
   11CHTO   O51 4392   6.741   7.846   1.869  1.0992  0.0082  0.3065
   11CHTO   C78 4393   6.844   7.890   1.760  0.1174  0.6169  0.5747
   11CHTO  H150 4394   6.931   7.821   1.760  0.2126  0.5631 -3.8097
   11CHTO   C80 4395   6.889   8.037   1.768  0.5020  0.2544  0.2409
   11CHTO  H152 4396   6.794   8.094   1.763  0.9219  0.7956 -2.3831
   11CHTO   O55 4397   6.953   8.071   1.894 -0.0657 -0.2771  0.4849
   11CHTO  H134 4398   7.041   8.043   1.910  0.0768  0.7585  1.6314
   11CHTO   C84 4399   6.981   8.081   1.650 -0.4233 -1.0143 -0.1600
   11CHTO  H156 4400   7.074   8.025   1.662 -1.5810 -3.4938 -2.3820
   11CHTO   N15 4401   7.018   8.230   1.646 -0.0529 -0.5128  0.0224
   11CHTO  H143 4402   7.125   8.235   1.657 -0.0509  0.5895 -0.4286
   11CHTO  H144 4403   6.972   8.286   1.724 -1.2345  1.6306 -2.1625
   11CHTO   C87 4404   6.926   8.040   1.515  0.1751  0.2333  0.3444
   11CHTO  H159 4405   6.838   8.098   1.486  0.8776  1.2299  0.2108
   11CHTO   O53 4406   6.900   7.904   1.527  0.5584  0.1298 -0.2187
   11CHTO   C82 4407   6.791   7.879   1.617 -0.8213 -0.0233 -0.2740
   11CHTO  H154 4408   6.716   7.956   1.595  0.7185  1.6687  0.2493
   11CHTO   C89 4409   6.723   7.744   1.600  0.1350  0.0523  0.1614
   11CHTO   O59 4410   6.817   7.634   1.612  0.0031  0.5436  0.6738
   11CHTO  H137 4411   6.786   7.559   1.566 -0.1473  1.4572 -0.7344
   11CHTO   O45 4412   7.036   8.062   1.399  0.6123 -0.2303 -0.1346
   11CHTO   C67 4413   6.991   8.035   1.265  0.7141 -0.1106 -0.4386
   11CHTO  H124 4414   6.964   7.930   1.258 -1.4648  0.4720 -1.2478
   11CHTO   C65 4415   6.861   8.127   1.231 -0.7622 -0.1285  0.7464
   11CHTO  H122 4416   6.868   8.210   1.301  2.0818 -0.0908  0.4671
   11CHTO   O44 4417   6.751   8.044   1.255 -0.4962 -0.2339 -0.5919
   11CHTO  H102 4418   6.670   8.092   1.256 -0.8178 -0.7834 -0.0451
   11CHTO   C63 4419   6.870   8.190   1.089 -0.1992 -0.2991  0.0805
   11CHTO  H120 4420   6.950   8.264   1.090 -0.1174 -0.3756 -0.7958
   11CHTO   N11 4421   6.757   8.273   1.045  0.0056  0.1749 -0.4452
   11CHTO  H108 4422   6.670   8.213   1.029  0.1675 -0.3908  0.7270
   11CHTO  H109 4423   6.791   8.340   0.968  1.4776 -1.3751 -1.1864
   11CHTO   C61 4424   6.911   8.073   0.994  0.3764 -0.5593  0.8276
   11CHTO  H118 4425   6.927   8.133   0.903 -0.8323  1.0428  1.6433
   11CHTO   O40 4426   7.039   8.020   1.029 -0.4558  0.4995  0.4547
   11CHTO   C68 4427   7.098   8.055   1.159  0.3725 -0.0512 -0.2158
   11CHTO  H125 4428   7.141   8.157   1.165 -2.8924  1.3136  1.6523
   11CHTO   C72 4429   7.217   7.962   1.181  0.0498 -0.1358 -0.6149
   11CHTO   O48 4430   7.192   7.818   1.169  0.0624  0.2594  0.6084
   11CHTO  H105 4431   7.271   7.768   1.168  0.1118  0.3414  0.4717
   11CHTO   O38 4432   6.814   7.967   0.979 -0.0065 -0.0323  0.2855
   11CHTO   C55 4433   6.811   7.894   0.858 -0.2949  0.2545 -0.4676
   11CHTO  H112 4434   6.915   7.888   0.822 -0.7133  1.5860 -1.9508
   11CHTO   C56 4435   6.720   7.965   0.751  0.3670 -0.0531 -0.3188
   11CHTO  H113 4436   6.627   8.001   0.796  0.7846  0.5926  0.0434
   11CHTO   O42 4437   6.787   8.088   0.712 -0.4601  0.4069 -0.3930
   11CHTO  H100 4438   6.737   8.131   0.645  1.3065  2.2361 -0.5848
   11CHTO   C57 4439   6.691   7.871   0.621  0.3458 -0.8518  0.2400
   11CHTO  H114 4440   6.775   7.880   0.552 -0.5656  3.0005 -0.4935
   11CHTO   N10 4441   6.571   7.913   0.544  0.1406 -0.4472  0.1824
   11CHTO  H106 4442   6.545   8.017   0.556  3.1179  0.2183  1.2831
   11CHTO  H107 4443   6.486   7.847   0.552  0.2499 -0.6708 -0.4516
   11CHTO   C58 4444   6.671   7.724   0.659  0.6520  0.0884  0.2029
   11CHTO  H115 4445   6.574   7.713   0.711 -0.0415  0.3472 -1.0324
   11CHTO   O37 4446   6.766   7.676   0.750 -0.3017 -0.6365  0.1914
   11CHTO   C59 4447   6.769   7.747   0.876  0.7345  0.1918  0.0525
   11CHTO  H116 4448   6.676   7.735   0.932 -0.0304  2.8672 -0.5847
   11CHTO   C70 4449   6.872   7.666   0.964  0.1214  0.5851 -0.2680
   11CHTO   O46 4450   6.877   7.724   1.098  0.5500  0.1255  1.0801
   11CHTO  H103 4451   6.952   7.779   1.105  2.2116 -1.3035 -3.5389
   11CHTO   O39 4452   6.690   7.625   0.523  0.4282  0.1136 -0.5641
   11CHTO   C60 4453   6.596   7.520   0.511  0.2060  0.0208  0.0572
   11CHTO  H117 4454   6.554   7.512   0.611 -0.4424  3.8673  0.1704
   11CHTO   C62 4455   6.467   7.544   0.417 -0.1065 -0.0189  0.1438
   11CHTO  H119 4456   6.404   7.625   0.459 -0.1501  0.9379 -1.7068
   11CHTO   O43 4457   6.516   7.581   0.283 -0.4268  0.3648 -0.0105
   11CHTO  H101 4458   6.439   7.582   0.230 -1.0797  0.1945  0.9287
   11CHTO   C66 4459   6.374   7.413   0.410 -0.8349 -0.2555 -0.0669
   11CHTO  H123 4460   6.336   7.396   0.511 -2.0633 -0.3390 -0.5359
   11CHTO   N12 4461   6.247   7.434   0.327  0.4808 -0.0900  0.4185
   11CHTO  H110 4462   6.253   7.515   0.256 -3.6799  0.0368  0.0821
   11CHTO  H111 4463   6.227   7.337   0.285 -0.1211  0.3486 -0.2990
   11CHTO   C69 4464   6.446   7.282   0.375 -0.0701  0.4966 -0.4086
   11CHTO  H126 4465   6.481   7.278   0.270 -0.0786 -0.7689 -0.3660
   11CHTO   O41 4466   6.552   7.270   0.464 -0.5687 -0.1250  0.2166
   11CHTO   C64 4467   6.663   7.385   0.473  0.3313  0.2893  0.3089
   11CHTO  H121 4468   6.713   7.405   0.376 -0.6855  2.8384  0.2605
   11CHTO   C71 4469   6.779   7.355   0.571 -0.2518 -0.2917  0.4015
   11CHTO   O47 4470   6.845   7.245   0.521 -0.1622  0.3027  0.1444
   11CHTO  H104 4471   6.912   7.215   0.579  1.9702  2.8216 -0.9446
   11CHTO   O34 4472   6.366   7.175   0.400 -0.3876  0.3621  0.4405
   11CHTO   C49 4473   6.296   7.094   0.546 -0.2575  0.3021  0.5314
   11CHTO   H91 4474   6.381   7.085   0.614  0.2620  0.1437 -0.1240
   11CHTO   C47 4475   6.264   6.953   0.494  0.5491 -0.0392  0.1879
   11CHTO   H89 4476   6.226   6.894   0.579 -2.4024  3.8277  1.7011
   11CHTO   O33 4477   6.392   6.904   0.454 -0.0722  0.6375  0.0027
   11CHTO   H70 4478   6.409   6.904   0.362 -1.4666 -1.7389 -0.2961
   11CHTO   C45 4479   6.143   6.973   0.382 -1.3495 -0.2139 -0.1457
   11CHTO   H87 4480   6.181   7.047   0.310 -0.0333 -0.6233  0.1222
   11CHTO    N8 4481   6.127   6.840   0.313 -0.0982  0.1864  0.1377
   11CHTO   H75 4482   6.051   6.788   0.370 -0.3580 -2.3028 -2.3776
   11CHTO   H76 4483   6.217   6.781   0.300 -0.5907 -0.9572  1.7441
   11CHTO   C43 4484   6.017   7.029   0.458  0.6334 -0.2414 -0.4980
   11CHTO   H85 4485   5.932   7.043   0.391  0.2518  0.1574  0.0663
   11CHTO   O29 4486   6.051   7.160   0.521  0.1634  0.4215 -0.1107
   11CHTO   C50 4487   6.166   7.165   0.602 -0.5497 -0.3919  0.0243
   11CHTO   H92 4488   6.199   7.270   0.615 -0.8740 -0.3855  0.8334
   11CHTO   C54 4489   6.143   7.113   0.745  0.4585 -0.3589  0.0079
   11CHTO   O36 4490   6.037   7.171   0.817  0.6235  0.2992  0.0183
   11CHTO   H72 4491   5.990   7.111   0.871 -0.0878 -0.2371 -1.2108
   11CHTO   O27 4492   5.964   6.935   0.558  0.3568 -0.3702  0.2480
   11CHTO   C37 4493   5.829   6.900   0.608  0.3738 -0.0615 -0.0637
   11CHTO   H79 4494   5.833   6.882   0.717  0.9311 -1.3932 -0.2900
   11CHTO   C38 4495   5.730   7.006   0.592  0.8746 -0.4427  0.2689
   11CHTO   H80 4496   5.723   7.035   0.487 -0.5800  0.5986  0.6374
   11CHTO   O31 4497   5.780   7.116   0.677  0.3959  0.1927 -0.4301
   11CHTO   H68 4498   5.715   7.181   0.695 -0.7991 -0.7007 -1.4570
   11CHTO   C39 4499   5.579   6.965   0.626 -0.2643 -0.3401  0.2058
   11CHTO   H81 4500   5.566   6.965   0.734  1.4167  2.3616  0.4367
   11CHTO    N7 4501   5.467   7.060   0.583  0.1171  0.0306  0.1603
   11CHTO   H73 4502   5.415   7.101   0.668 -0.6911  0.2387 -0.4341
   11CHTO   H74 4503   5.516   7.134   0.522  1.1551 -0.8774 -0.1257
   11CHTO   C40 4504   5.551   6.825   0.570  0.2978 -0.3154  0.0401
   11CHTO   H82 4505   5.521   6.838   0.466  3.6642  0.9121 -0.8448
   11CHTO   O26 4506   5.656   6.730   0.586 -0.0438  0.9004  0.7017
   11CHTO   C41 4507   5.786   6.767   0.535  0.8473  0.7329 -0.1774
   11CHTO   H83 4508   5.772   6.784   0.427 -1.0983  1.2031  0.1370
   11CHTO   C52 4509   5.872   6.637   0.562 -0.0709  0.1149  0.5705
   11CHTO   O35 4510   5.825   6.527   0.467  0.5620  0.2569 -0.1094
   11CHTO   H71 4511   5.775   6.461   0.512  1.0316 -1.6544 -2.2959
   11CHTO   O28 4512   5.447   6.757   0.643  0.8379  0.4705  0.3148
   11CHTO   C42 4513   5.385   6.635   0.594  0.0493 -0.3242  0.2369
   11CHTO   H84 4514   5.441   6.605   0.506  0.0432 -0.7977  0.3931
   11CHTO   C44 4515   5.238   6.650   0.553 -0.1159  0.8399 -0.0550
   11CHTO   H86 4516   5.180   6.687   0.638  0.7451 -0.2340  1.0254
   11CHTO   O32 4517   5.221   6.751   0.446 -0.9134  0.0176  0.2583
   11CHTO   H69 4518   5.144   6.739   0.394 -0.1879 -1.6370 -0.4552
   11CHTO   C48 4519   5.172   6.514   0.519  0.1843 -0.0958 -0.0600
   11CHTO   H90 4520   5.216   6.478   0.425 -0.8528 -2.3385  0.2647
   11CHTO    N9 4521   5.022   6.523   0.487  0.0403 -0.2749  0.5638
   11CHTO   H77 4522   4.961   6.572   0.562 -1.3587  1.3696 -1.5685
   11CHTO   H78 4523   4.986   6.561   0.392  0.2307 -0.8436  0.2643
   11CHTO   C51 4524   5.208   6.407   0.630 -0.4519  0.0366  0.0547
   11CHTO   H93 4525   5.155   6.434   0.721 -0.4690 -1.0934  0.3931
   11CHTO   O30 4526   5.350   6.396   0.653  0.3962  0.1978 -0.5570
   11CHTO   C46 4527   5.399   6.530   0.700  0.2515  0.5405 -0.5588
   11CHTO   H88 4528   5.344   6.556   0.790 -0.7983 -2.5190 -0.2698
   11CHTO   C53 4529   5.536   6.493   0.734 -0.7126  0.3218 -0.6397
   11CHTO   O72 4530   5.595   6.584   0.829  0.1364  0.4119 -0.1093
   11CHTO  H199 4531   5.671   6.538   0.859 -0.2126 -0.8144 -1.0739
   11CHTO   O22 4532   5.170   6.279   0.592 -0.1017  0.2007  0.0743
   11CHTO   C31 4533   5.157   6.165   0.684 -0.2239 -0.5783 -0.8887
   11CHTO   H59 4534   5.217   6.185   0.775 -0.1099 -3.2308 -0.3615
   11CHTO   C29 4535   5.014   6.128   0.735 -0.0720  0.6800  0.1619
   11CHTO   H57 4536   4.953   6.105   0.646 -0.1346  5.1796 -1.0339
   11CHTO   O21 4537   4.961   6.247   0.792  0.5556  0.3121  0.1934
   11CHTO   H37 4538   4.949   6.313   0.726  0.7067 -0.6639 -0.8336
   11CHTO   C27 4539   5.031   5.998   0.828 -0.2770 -0.6657 -0.2669
   11CHTO   H55 4540   5.096   6.026   0.913  0.3829 -3.5186  0.1977
   11CHTO    N5 4541   4.900   5.956   0.882 -0.8740  0.4352 -0.0412
   11CHTO   H43 4542   4.868   6.031   0.954  3.6025  0.8044  1.7183
   11CHTO   H44 4543   4.898   5.855   0.920  0.1223  0.1174 -0.8050
   11CHTO   C25 4544   5.101   5.885   0.753 -0.0959 -0.7959  0.4576
   11CHTO   H53 4545   5.028   5.850   0.679  1.1912  0.4268 -1.4495
   11CHTO   O17 4546   5.230   5.935   0.701 -0.2751  0.0984  0.1033
   11CHTO   C32 4547   5.227   6.045   0.616  0.0632 -0.0057 -0.8381
   11CHTO   H60 4548   5.172   6.019   0.526 -1.0356  0.8240 -0.4261
   11CHTO   C36 4549   5.372   6.076   0.576 -0.3046 -0.1006  0.3559
   11CHTO   O25 4550   5.420   5.967   0.496 -0.0243  0.1178  0.1327
   11CHTO   H40 4551   5.512   5.980   0.481 -0.1133 -0.6273 -1.2170
   11CHTO   O15 4552   5.144   5.769   0.839  0.1844 -0.1436  0.4623
   11CHTO   C19 4553   5.108   5.626   0.871  0.0836 -0.3182  0.5128
   11CHTO   H47 4554   5.185   5.604   0.946  0.6476  3.7334  1.1956
   11CHTO   C20 4555   4.974   5.605   0.936 -0.0871  0.5677  0.6786
   11CHTO   H48 4556   4.891   5.638   0.870 -0.7748  0.6480  1.5749
   11CHTO   O19 4557   4.978   5.677   1.062 -0.5471  0.0065  0.2209
   11CHTO   H35 4558   4.901   5.673   1.115 -1.3861 -0.3315 -1.0070
   11CHTO   C21 4559   4.956   5.446   0.971  0.5214  0.6684 -0.6283
   11CHTO   H49 4560   5.040   5.411   1.030  0.0220  0.0769 -0.2653
   11CHTO    N4 4561   4.833   5.422   1.047 -0.0876  0.0059 -0.5760
   11CHTO   H41 4562   4.812   5.317   1.028 -0.0988  0.0026 -0.5458
   11CHTO   H42 4563   4.758   5.483   0.999  1.3375  0.5417 -2.1868
   11CHTO   C22 4564   4.958   5.370   0.841 -0.2696  0.9307 -0.1758
   11CHTO   H50 4565   4.875   5.406   0.779  0.1810 -1.6916 -2.4213
   11CHTO   O14 4566   5.075   5.392   0.772 -0.2854 -0.1527  0.4423
   11CHTO   C23 4567   5.127   5.523   0.752 -0.2115 -0.6709  0.8635
   11CHTO   H51 4568   5.078   5.557   0.660  1.2935  0.9877  0.6639
   11CHTO   C34 4569   5.280   5.509   0.727  0.3770  0.5380 -0.8645
   11CHTO   O23 4570   5.346   5.622   0.670 -0.2878 -0.1427  0.0801
   11CHTO   H38 4571   5.371   5.690   0.730  0.5640  0.2812 -0.7314
   11CHTO   O16 4572   4.954   5.229   0.859 -0.1565  0.2484  0.4288
   11CHTO   C24 4573   4.875   5.146   0.755  0.4163 -0.7295  0.1570
   11CHTO   H52 4574   4.869   5.196   0.659 -3.0901 -0.6139  0.3868
   11CHTO   C26 4575   4.727   5.118   0.794  0.6865  0.4105 -0.0944
   11CHTO   H54 4576   4.728   5.047   0.879 -0.5793 -1.2385 -1.4027
   11CHTO   O20 4577   4.665   5.240   0.831  0.5436  0.4571  0.1445
   11CHTO   H36 4578   4.716   5.304   0.877 -0.4565  0.1632  1.7162
   11CHTO   C30 4579   4.651   5.044   0.681 -0.2466  0.1910 -0.7678
   11CHTO   H58 4580   4.636   5.123   0.606  0.6148  1.1010 -0.0069
   11CHTO    N6 4581   4.518   4.992   0.716  0.5888  0.9180 -0.6539
   11CHTO   H45 4582   4.504   4.900   0.770  0.9524  2.0923  1.5241
   11CHTO   H46 4583   4.466   5.074   0.764  1.3091 -0.2294  2.2129
   11CHTO   C33 4584   4.746   4.931   0.612  0.7986  0.4890 -0.4919
   11CHTO   H61 4585   4.730   4.842   0.675 -3.7165  0.6583 -1.2565
   11CHTO   O18 4586   4.888   4.961   0.613 -0.1186 -0.8291  0.1472
   11CHTO   C28 4587   4.947   5.013   0.731  0.2344 -0.3051 -0.0750
   11CHTO   H56 4588   4.924   4.946   0.814  0.1998 -1.8681 -1.3213
   11CHTO   C35 4589   5.099   5.031   0.713 -0.0422  0.6034  0.3323
   11CHTO   O24 4590   5.153   4.899   0.680 -0.1288 -0.5627 -0.3241
   11CHTO   H39 4591   5.153   4.847   0.758  1.4252 -1.7025 -1.0627
   11CHTO    O9 4592   4.695   4.899   0.482 -0.0688  0.3492 -0.3922
   11CHTO   C13 4593   4.734   5.037   0.387 -0.8544 -0.0621  0.5219
   11CHTO   H26 4594   4.775   5.124   0.442  0.0900  0.1899 -0.5808
   11CHTO   C11 4595   4.609   5.074   0.301 -0.4483  0.5621 -0.4811
   11CHTO   H24 4596   4.522   5.093   0.367  0.1087 -0.7622  0.6632
   11CHTO    O8 4597   4.589   4.961   0.210  0.2732 -0.3042  0.2802
   11CHTO    H3 4598   4.502   4.927   0.202 -0.6161  1.9981 -0.2442
   11CHTO    C9 4599   4.635   5.206   0.228  0.3549 -1.3799  0.5501
   11CHTO   H22 4600   4.636   5.281   0.308 -1.5307 -0.6214 -0.0982
   11CHTO    N2 4601   4.520   5.250   0.142 -0.6660  0.3914 -0.5319
   11CHTO   H10 4602   4.543   5.307   0.053 -0.4562 -2.2534 -2.2310
   11CHTO   H11 4603   4.443   5.176   0.127  0.2748 -0.5479 -0.8186
   11CHTO    C7 4604   4.784   5.205   0.170 -0.1060 -0.8744 -0.1255
   11CHTO   H20 4605   4.842   5.271   0.238  0.9410 -1.6025 -0.3121
   11CHTO    O4 4606   4.845   5.076   0.171  0.3549 -0.3104  0.1016
   11CHTO   C14 4607   4.856   5.005   0.289 -0.4786 -0.0628  0.5016
   11CHTO   H27 4608   4.948   5.048   0.333  0.4768 -0.0740 -1.4382
   11CHTO   C18 4609   4.886   4.853   0.260  0.4867 -0.6795 -0.0289
   11CHTO   O13 4610   4.949   4.783   0.365 -0.1024 -0.1046 -0.3185
   11CHTO    H7 4611   4.897   4.785   0.443  0.8507  1.3077  0.3048
   11CHTO    O2 4612   4.789   5.285   0.018 -0.2794  0.1720 -0.1472
   11CHTO    C1 4613   4.874   5.405   0.025  0.5576 -0.2056 -0.3857
   11CHTO   H14 4614   4.962   5.387   0.090  0.2574 -1.2128 -0.2520
   11CHTO    C2 4615   4.807   5.538   0.068  0.2354 -0.4436  0.0158
   11CHTO   H15 4616   4.714   5.548   0.009  0.3555 -0.3811 -0.1615
   11CHTO    O6 4617   4.783   5.531   0.206 -0.1702  0.3986  0.4327
   11CHTO    H1 4618   4.705   5.579   0.228 -1.0863 -0.8584 -0.0174
   11CHTO    C3 4619   4.898   5.671   0.039  0.2774  0.0291  0.8531
   11CHTO   H16 4620   4.982   5.668   0.110  3.1149 -0.3969 -2.4398
   11CHTO    N1 4621   4.813   5.794   0.070  0.1798 -0.7889 -0.7974
   11CHTO    H8 4622   4.722   5.771   0.123 -0.3376 -0.7159 -1.6431
   11CHTO    H9 4623   4.792   5.859  -0.014  0.2330  0.3103  0.0161
   11CHTO    C4 4624   4.965   5.662  -0.100  0.5575 -0.1186  0.2596
   11CHTO   H17 4625   4.888   5.681  -0.174  0.6591  0.5743  0.3317
   11CHTO    O1 4626   5.036   5.542  -0.108 -0.2614  0.1599 -0.0059
   11CHTO    C5 4627   4.955   5.428  -0.111  0.1660  0.8515  0.0402
   11CHTO   H18 4628   4.877   5.436  -0.187  1.2271 -1.3516 -1.3453
   11CHTO   C16 4629   5.035   5.303  -0.156 -0.3571  0.0776 -0.0996
   11CHTO   O11 4630   5.146   5.272  -0.073 -0.2413  0.1692 -0.7430
   11CHTO    H5 4631   5.214   5.337  -0.076 -0.9909  1.0041 -0.0246
   11CHTO    O3 4632   5.069   5.761  -0.103  0.2125  0.3765 -0.3404
   11CHTO    C6 4633   5.128   5.788  -0.234  0.1806 -0.6559  0.4315
   11CHTO   H19 4634   5.085   5.719  -0.307  0.6157 -2.4824  1.8619
   11CHTO    C8 4635   5.094   5.937  -0.274 -0.3993  0.3429  0.0351
   11CHTO   H21 4636   5.092   5.997  -0.182 -0.5473  0.8956 -0.3255
   11CHTO    O7 4637   4.954   5.930  -0.313  1.1790 -0.0206 -0.4729
   11CHTO    H2 4638   4.910   6.012  -0.319 -0.2567 -0.7396  0.0501
   11CHTO   C12 4639   5.180   5.997  -0.390  0.5826 -0.3001  0.5924
   11CHTO   H25 4640   5.150   5.932  -0.475 -1.2649  0.4218  0.6672
   11CHTO    N3 4641   5.141   6.144  -0.417 -0.0226  0.4041 -0.7390
   11CHTO   H12 4642   5.238   6.192  -0.421  0.9514 -1.4064  0.7539
   11CHTO   H13 4643   5.094   6.148  -0.514  1.9384  1.6244 -1.6919
   11CHTO   C15 4644   5.331   5.963  -0.355  0.0139 -0.2185  0.2420
   11CHTO   H28 4645   5.363   6.019  -0.267  1.5191  0.3982 -0.6762
   11CHTO   O10 4646   5.407   5.985  -0.470 -0.4978  0.7138 -0.1306
   11CHTO    H4 4647   5.466   6.056  -0.454  0.9976  0.2486 -3.1919
   11CHTO    O5 4648   5.343   5.821  -0.346  0.3367  0.1281 -0.1667
   11CHTO   C10 4649   5.281   5.772  -0.230  0.5554  0.2001  0.3409
   11CHTO   H23 4650   5.326   5.831  -0.151 -1.5572  0.7275  1.1789
   11CHTO   C17 4651   5.333   5.630  -0.214  0.2780  0.3042 -0.2166
   11CHTO   O12 4652   5.470   5.609  -0.224 -0.6201  1.0078  0.5965
   11CHTO    H6 4653   5.516   5.623  -0.305 -1.5974 -2.1470 -0.6034
   12CHTO  H203 4654   5.263   2.491   2.223 -1.1006  1.3389 -1.2364
   12CHTO   O82 4655   5.183   2.478   2.271 -0.1764  0.2766  0.0217
   12CHTO  C123 4656   5.177   2.351   2.333  0.0366  0.8978 -0.4618
   12CHTO  H227 4657   5.243   2.348   2.421 -0.5565 -1.1494 -0.0579
   12CHTO   O77 4658   5.036   2.350   2.376 -0.6973  0.4042 -0.8105
   12CHTO  C118 4659   4.992   2.234   2.446  0.1174 -0.5860 -0.3101
   12CHTO  H222 4660   5.060   2.227   2.532  1.9057  1.3978 -1.5282
   12CHTO  C125 4661   4.847   2.247   2.500 -0.4984  0.5745  0.1695
   12CHTO   O84 4662   4.843   2.321   2.616  0.4862  0.0925  0.1920
   12CHTO  H205 4663   4.914   2.305   2.675 -0.7835  2.6098  2.5793
   12CHTO  C114 4664   5.007   2.102   2.360 -0.0234  0.7883  0.4315
   12CHTO  H218 4665   4.945   2.102   2.270  1.5256 -1.2834 -0.6860
   12CHTO  C116 4666   5.157   2.097   2.305  0.7921  0.0969 -0.6865
   12CHTO  H220 4667   5.222   2.067   2.390 -0.5154  0.1095  0.3450
   12CHTO   O79 4668   5.163   1.993   2.209  0.1681  0.0036 -0.1829
   12CHTO  H201 4669   5.253   1.990   2.184  0.6141  0.5164  1.3061
   12CHTO  C120 4670   5.198   2.232   2.234 -0.1257 -0.1397 -0.2338
   12CHTO  H224 4671   5.137   2.244   2.142 -0.6100 -1.7638 -0.1426
   12CHTO   N21 4672   5.340   2.224   2.197  0.1356  0.5098 -0.3113
   12CHTO  H211 4673   5.360   2.136   2.138  1.2232  1.2973 -1.1502
   12CHTO  H212 4674   5.384   2.314   2.155 -0.3443  0.0613 -1.8164
   12CHTO   O75 4675   4.954   2.002   2.448 -0.5169 -0.4051  0.0691
   12CHTO  C112 4676   4.921   1.861   2.379  0.1560 -0.1751 -0.0201
   12CHTO  H216 4677   4.980   1.850   2.287  1.8309  0.3817  0.9771
   12CHTO   O73 4678   4.781   1.864   2.353  0.2988  0.7598  0.5969
   12CHTO  C113 4679   4.737   1.741   2.301  0.2270 -0.2080 -0.6968
   12CHTO  H217 4680   4.808   1.715   2.220  1.0433 -0.0023 -0.0431
   12CHTO  C124 4681   4.602   1.771   2.239 -0.6738  0.5514 -0.0490
   12CHTO   O83 4682   4.610   1.847   2.120  0.4170 -0.3964 -0.2863
   12CHTO  H204 4683   4.548   1.814   2.058 -1.0501  1.7706 -0.0467
   12CHTO  C109 4684   4.744   1.632   2.414  0.4841 -0.9978  0.3432
   12CHTO  H213 4685   4.693   1.678   2.499  0.1068  0.3086 -0.5708
   12CHTO  C110 4686   4.901   1.607   2.441 -0.4137  0.1281 -0.0394
   12CHTO  H214 4687   4.941   1.565   2.349  1.2556  0.1067  0.6655
   12CHTO   O78 4688   4.920   1.506   2.538 -0.4247 -0.2435  0.0512
   12CHTO  H200 4689   4.908   1.529   2.628  1.4314  1.8338 -0.2067
   12CHTO  C111 4690   4.968   1.745   2.482  0.1438 -0.0683 -0.1989
   12CHTO  H215 4691   4.923   1.776   2.578  0.1192 -0.4324 -0.0945
   12CHTO   N19 4692   5.118   1.744   2.494  0.3014 -0.1348 -0.0131
   12CHTO  H207 4693   5.143   1.784   2.592  1.9326 -2.7838  0.6860
   12CHTO  H208 4694   5.177   1.781   2.411  0.0851 -0.7486 -0.4395
   12CHTO   O74 4695   4.689   1.497   2.387  0.2534 -0.3857  0.2258
   12CHTO  C115 4696   4.635   1.417   2.511 -0.3392 -0.2754  0.1809
   12CHTO  H219 4697   4.705   1.421   2.594 -1.5255 -1.5307  1.2492
   12CHTO   O76 4698   4.496   1.488   2.571  0.3477 -0.0470 -0.3914
   12CHTO  C122 4699   4.435   1.422   2.680  0.3984  0.6032 -0.4038
   12CHTO  H226 4700   4.342   1.470   2.712 -1.1085 -1.1406 -2.0262
   12CHTO  C126 4701   4.536   1.424   2.810  0.2310 -0.1707  0.7008
   12CHTO   O85 4702   4.481   1.375   2.930  0.1074  0.7958  0.0064
   12CHTO  H206 4703   4.529   1.300   2.958  0.2781  1.0534  0.4037
   12CHTO  C121 4704   4.398   1.271   2.640 -0.9085  0.0102 -0.5428
   12CHTO  H225 4705   4.361   1.216   2.729  1.4557 -1.8328 -0.6276
   12CHTO   O81 4706   4.291   1.267   2.550  0.2671 -0.1418  0.4194
   12CHTO  H202 4707   4.219   1.318   2.581  0.1294 -0.1986  0.1937
   12CHTO  C119 4708   4.528   1.196   2.589 -0.4610  0.1695 -0.3087
   12CHTO  H223 4709   4.604   1.202   2.666 -0.8417 -0.5026  0.1229
   12CHTO  C117 4710   4.605   1.270   2.471  0.3042  0.2962 -0.5246
   12CHTO  H221 4711   4.554   1.283   2.375 -1.2665 -2.5259 -0.0969
   12CHTO   N20 4712   4.733   1.196   2.444  0.3332  0.7990  0.0807
   12CHTO  H209 4713   4.734   1.102   2.497 -2.8881  0.3955 -0.4548
   12CHTO  H210 4714   4.739   1.184   2.337 -2.9628  0.1657 -0.1037
   12CHTO   O80 4715   4.514   1.053   2.575  0.2015 -0.3832 -0.1250
   12CHTO  C103 4716   4.404   0.997   2.479 -0.3534 -0.2177  0.1479
   12CHTO  H190 4717   4.324   1.067   2.454  1.0547  1.2441 -0.3596
   12CHTO  C101 4718   4.457   0.938   2.341 -0.4202  0.5278 -0.4824
   12CHTO  H188 4719   4.546   0.875   2.354  0.5364  1.6378 -1.5078
   12CHTO   O68 4720   4.504   1.067   2.252  0.3679 -0.1304 -0.1193
   12CHTO  H168 4721   4.480   1.064   2.161  1.2235 -0.0942 -0.3482
   12CHTO   C99 4722   4.344   0.847   2.266 -0.7726 -0.1331 -1.0401
   12CHTO  H186 4723   4.257   0.914   2.248  0.1736  1.3547 -0.2017
   12CHTO   N17 4724   4.386   0.786   2.138 -0.0547 -1.0080 -0.2520
   12CHTO  H174 4725   4.477   0.729   2.155  1.0017  0.4300 -0.9141
   12CHTO  H175 4726   4.309   0.720   2.102 -0.9508 -1.1867  1.9357
   12CHTO   C97 4727   4.304   0.736   2.373  0.4181  0.4550  0.0045
   12CHTO  H184 4728   4.388   0.668   2.395 -1.6968 -2.6140 -0.9780
   12CHTO   O64 4729   4.255   0.803   2.493 -0.2248 -0.1367 -0.0966
   12CHTO  C104 4730   4.343   0.889   2.564  0.2563  0.2531 -0.4265
   12CHTO  H191 4731   4.418   0.820   2.603 -0.5534 -1.2896 -1.5163
   12CHTO  C108 4732   4.265   0.939   2.689 -0.2705  0.4654  0.2440
   12CHTO   O71 4733   4.238   0.833   2.781 -0.3741 -0.1014 -0.0210
   12CHTO  H171 4734   4.207   0.871   2.861 -1.2343 -1.7635  0.4659
   12CHTO   O62 4735   4.184   0.666   2.338 -0.2368 -0.6379  0.1806
   12CHTO   C91 4736   4.187   0.531   2.395 -0.4007  0.4080  0.3186
   12CHTO  H178 4737   4.264   0.529   2.471  2.1287 -1.2210 -2.2289
   12CHTO   C92 4738   4.229   0.418   2.291 -0.3847 -0.0398  0.8527
   12CHTO  H179 4739   4.166   0.421   2.201 -1.1453 -0.5120  1.3629
   12CHTO   O66 4740   4.365   0.433   2.237  0.2477 -0.3963 -0.3820
   12CHTO  H166 4741   4.380   0.525   2.229 -2.2626  0.2499  1.5563
   12CHTO   C93 4742   4.208   0.279   2.357 -0.3854 -0.4030  0.5580
   12CHTO  H180 4743   4.291   0.267   2.428 -2.4313 -0.5909  2.9893
   12CHTO   N16 4744   4.216   0.163   2.259  0.2953 -0.4183  0.3236
   12CHTO  H172 4745   4.284   0.088   2.296  0.3931 -0.1422  0.7105
   12CHTO  H173 4746   4.125   0.132   2.212  0.0589 -0.9169  1.1117
   12CHTO   C94 4747   4.069   0.260   2.430  0.1024  0.0897 -0.1977
   12CHTO  H181 4748   3.988   0.258   2.357  1.0615 -2.2478 -1.2512
   12CHTO   O61 4749   4.042   0.361   2.521 -0.0400 -0.1024 -0.0031
   12CHTO   C95 4750   4.051   0.497   2.463  0.1567 -0.2884  0.4222
   12CHTO  H182 4751   3.970   0.506   2.391  1.5220  2.4450 -0.8425
   12CHTO  C106 4752   4.008   0.595   2.583  0.3794 -0.7279 -0.1807
   12CHTO   O69 4753   4.108   0.589   2.686 -0.4042 -0.2682  0.5426
   12CHTO  H169 4754   4.079   0.652   2.750 -1.6665  0.1962 -0.4576
   12CHTO   O63 4755   4.063   0.128   2.521 -0.7616  0.3855 -0.0336
   12CHTO   C96 4756   4.151   0.114   2.660  0.1304  0.0577  0.0340
   12CHTO  H183 4757   4.206   0.207   2.678  1.6187 -1.1992  2.2506
   12CHTO   C98 4758   4.243  -0.014   2.651 -0.0885  0.7456  1.1241
   12CHTO  H185 4759   4.189  -0.096   2.601  2.4762 -0.2190 -0.1400
   12CHTO   O67 4760   4.345   0.019   2.556  0.5233  0.8623  0.7714
   12CHTO  H167 4761   4.322  -0.012   2.471  2.9736  1.6121 -0.2243
   12CHTO  C102 4762   4.317  -0.065   2.772  0.4518 -0.2332 -0.3287
   12CHTO  H189 4763   4.400   0.007   2.779 -0.4011  0.8245 -0.8788
   12CHTO   N18 4764   4.379  -0.198   2.758 -0.0759  0.5843 -0.4031
   12CHTO  H176 4765   4.295  -0.266   2.761  0.1546  0.3374  0.7561
   12CHTO  H177 4766   4.447  -0.219   2.840  0.3080 -0.3683 -0.9491
   12CHTO  C105 4767   4.224  -0.064   2.896 -0.1175 -0.0477 -0.2225
   12CHTO  H192 4768   4.158  -0.150   2.883  0.3061 -0.2863 -0.8552
   12CHTO   O65 4769   4.154   0.062   2.909 -0.1801 -0.6395  0.6565
   12CHTO  C100 4770   4.067   0.094   2.798  0.4193 -0.4158 -0.2740
   12CHTO  H187 4771   3.997   0.009   2.784  0.7557 -0.5274 -1.3751
   12CHTO  C107 4772   3.978   0.226   2.840  0.1608  0.1510  0.4829
   12CHTO   O70 4773   4.066   0.336   2.863  0.0582 -0.2569  0.4986
   12CHTO  H170 4774   4.028   0.387   2.932  0.5827 -0.7790  1.1781
   12CHTO   O57 4775   4.315  -0.094   3.038 -0.2399 -0.7656 -0.1855
   12CHTO   C85 4776   4.237  -0.117   3.154  0.2698  0.1664  0.3030
   12CHTO  H157 4777   4.132  -0.134   3.121  0.7272 -2.8087  0.3071
   12CHTO   C83 4778   4.227   0.013   3.240 -0.2664  0.4782  0.0736
   12CHTO  H155 4779   4.179   0.089   3.179  0.2857  2.7023  2.3244
   12CHTO   O56 4780   4.357   0.068   3.269 -0.1091  0.6918  0.2668
   12CHTO  H135 4781   4.411   0.038   3.199 -2.5721 -1.1556 -0.8832
   12CHTO   C81 4782   4.138  -0.018   3.361 -0.5978 -0.5891  0.3129
   12CHTO  H153 4783   4.042  -0.057   3.326 -0.4062 -1.4855  0.7652
   12CHTO   N14 4784   4.112   0.107   3.446 -0.6236 -0.1896 -0.0724
   12CHTO  H141 4785   4.208   0.153   3.454 -1.3576  1.6590 -1.6928
   12CHTO  H142 4786   4.043   0.182   3.414 -0.6671 -2.5850 -6.2689
   12CHTO   C79 4787   4.220  -0.134   3.446  0.0143 -0.2218  0.1416
   12CHTO  H151 4788   4.153  -0.162   3.528  0.3512 -1.8864 -0.1288
   12CHTO   O52 4789   4.224  -0.255   3.368 -0.3965  0.9131 -0.0746
   12CHTO   C86 4790   4.287  -0.239   3.240  0.0535 -0.0107 -0.8516
   12CHTO  H158 4791   4.392  -0.226   3.274  0.7847  1.3501 -3.4549
   12CHTO   C90 4792   4.283  -0.359   3.160 -0.1545  0.4742 -0.8360
   12CHTO   O60 4793   4.354  -0.466   3.225 -0.1610  0.3711  0.3499
   12CHTO  H138 4794   4.322  -0.547   3.189  1.4986 -1.3090  2.5206
   12CHTO   O50 4795   4.343  -0.085   3.499  0.0589  0.1591 -0.5941
   12CHTO   C73 4796   4.423  -0.112   3.615 -0.0290  0.5895 -0.1975
   12CHTO  H145 4797   4.367  -0.153   3.700  0.5344  2.3860  1.0624
   12CHTO   C74 4798   4.492   0.021   3.659 -0.0153 -0.7821  0.8185
   12CHTO  H146 4799   4.413   0.091   3.690  1.1979  0.8362  0.3027
   12CHTO   O54 4800   4.561   0.004   3.786  0.3870  0.0533  0.5978
   12CHTO  H133 4801   4.592   0.089   3.809  3.0160 -1.0420  1.2217
   12CHTO   C75 4802   4.570   0.071   3.533  0.0004 -0.1531 -0.2451
   12CHTO  H147 4803   4.502   0.084   3.448  0.8623  1.0912 -0.7709
   12CHTO   N13 4804   4.632   0.204   3.552 -0.1905 -0.1606  0.2312
   12CHTO  H139 4805   4.684   0.211   3.646 -3.0539 -1.7904  2.0033
   12CHTO  H140 4806   4.714   0.228   3.485 -1.3777  2.2986 -0.3959
   12CHTO   C76 4807   4.678  -0.036   3.488  0.3347 -0.0372 -0.1568
   12CHTO  H148 4808   4.738  -0.057   3.576  1.1821  2.0490 -0.2254
   12CHTO   O49 4809   4.610  -0.154   3.452 -0.6626 -0.3677 -0.2581
   12CHTO   C77 4810   4.532  -0.210   3.562 -0.2281 -0.0993  0.0510
   12CHTO  H149 4811   4.601  -0.227   3.645  0.1537  0.2248 -0.1950
   12CHTO   C88 4812   4.484  -0.352   3.522  0.2385 -0.9572  0.6040
   12CHTO   O58 4813   4.575  -0.449   3.498  0.0436 -0.7677  0.1683
   12CHTO  H136 4814   4.580  -0.462   3.405  0.1092 -1.7113  0.3030
   12CHTO   O51 4815   4.762   0.009   3.357  0.1313 -0.0171  0.0366
   12CHTO   C78 4816   4.910  -0.038   3.368 -0.2580 -0.2618  0.4202
   12CHTO  H150 4817   4.918  -0.112   3.450  1.5839  0.2679  0.7289
   12CHTO   C80 4818   5.009   0.077   3.399 -0.2542  1.5328  0.1267
   12CHTO  H152 4819   5.022   0.143   3.311  1.6778  1.7266  0.5340
   12CHTO   O55 4820   4.972   0.139   3.521 -0.0979 -0.0935  0.0448
   12CHTO  H134 4821   4.992   0.231   3.517  1.3183 -0.3116  1.6489
   12CHTO   C84 4822   5.148   0.009   3.414 -0.1449  0.1022  0.1202
   12CHTO  H156 4823   5.123  -0.075   3.479 -0.3803 -0.0877 -0.2170
   12CHTO   N15 4824   5.262   0.092   3.469  0.7746  0.5194  0.1429
   12CHTO  H143 4825   5.294   0.050   3.562  0.4982 -0.3842 -0.1671
   12CHTO  H144 4826   5.234   0.195   3.472  1.6764  0.8135 -0.9499
   12CHTO   C87 4827   5.184  -0.068   3.288 -0.2822  0.3746 -0.0148
   12CHTO  H159 4828   5.201   0.010   3.214  0.2149  0.4338  0.1611
   12CHTO   O53 4829   5.069  -0.171   3.242 -0.1508  0.1015 -0.2280
   12CHTO   C82 4830   4.941  -0.111   3.242 -0.4213  0.6844 -0.1529
   12CHTO  H154 4831   4.942  -0.049   3.153  2.2142 -1.3797 -1.6546
   12CHTO   C89 4832   4.832  -0.219   3.216  0.1047 -0.3395 -0.6479
   12CHTO   O59 4833   4.838  -0.316   3.317 -0.2289  0.0881  0.0084
   12CHTO  H137 4834   4.813  -0.293   3.404 -3.0479 -3.2803  0.2069
   12CHTO   O45 4835   5.319  -0.160   3.299 -0.4489 -0.2436  0.6774
   12CHTO   C67 4836   5.387  -0.212   3.182 -1.1019 -0.4045 -1.4066
   12CHTO  H124 4837   5.462  -0.283   3.215 -2.1468 -1.0813 -0.4628
   12CHTO   C65 4838   5.307  -0.285   3.073 -0.4963  0.0629 -0.1386
   12CHTO  H122 4839   5.219  -0.320   3.126 -0.8796 -2.1568 -2.1957
   12CHTO   O44 4840   5.375  -0.397   3.017 -0.0482 -0.1179  0.0018
   12CHTO  H102 4841   5.321  -0.465   2.981 -0.3239  0.9100 -1.5965
   12CHTO   C63 4842   5.267  -0.175   2.970  0.1476  0.1849  0.2177
   12CHTO  H120 4843   5.236  -0.085   3.024  1.5292  1.0532 -0.3998
   12CHTO   N11 4844   5.146  -0.201   2.892  0.1123 -0.5690  0.4362
   12CHTO  H108 4845   5.160  -0.288   2.832  0.9633 -2.1207  2.8010
   12CHTO  H109 4846   5.145  -0.124   2.819 -1.2581 -1.5422 -0.5883
   12CHTO   C61 4847   5.397  -0.128   2.894 -0.3672 -0.0707  0.2532
   12CHTO  H118 4848   5.367  -0.030   2.854 -2.3144  0.4099  2.7513
   12CHTO   O40 4849   5.502  -0.110   2.985  0.3848  0.5433  0.2750
   12CHTO   C68 4850   5.464  -0.093   3.127  0.8048 -0.3804  0.4225
   12CHTO  H125 4851   5.405   0.000   3.141  0.1815 -0.7405  0.1853
   12CHTO   C72 4852   5.601  -0.066   3.203  0.1507  0.0902  0.0455
   12CHTO   O48 4853   5.590  -0.039   3.345  0.3381  0.0443 -0.5533
   12CHTO  H105 4854   5.667  -0.043   3.398 -0.6251 -0.7051  0.8184
   12CHTO   O38 4855   5.445  -0.214   2.781 -0.4739 -0.2109  0.6049
   12CHTO   C55 4856   5.526  -0.137   2.687  0.8300 -0.2183  0.4187
   12CHTO  H112 4857   5.560  -0.038   2.722 -1.0317  0.7559 -0.4708
   12CHTO   C56 4858   5.452  -0.130   2.555  0.5236  0.2191 -0.4354
   12CHTO  H113 4859   5.447  -0.234   2.518  0.5921  0.6442 -1.6781
   12CHTO   O42 4860   5.325  -0.082   2.580 -0.3504  0.8744 -0.3350
   12CHTO  H100 4861   5.289  -0.062   2.496  0.4324  1.9023 -0.4286
   12CHTO   C57 4862   5.542  -0.039   2.459 -0.7684  0.4142 -0.2448
   12CHTO  H114 4863   5.547   0.058   2.508  1.3450  0.7472 -1.0916
   12CHTO   N10 4864   5.483  -0.011   2.325  0.8087  0.3354 -0.5577
   12CHTO  H106 4865   5.560  -0.003   2.249  2.0098 -0.8137  0.5169
   12CHTO  H107 4866   5.421   0.078   2.328  0.3265 -0.0455  2.8431
   12CHTO   C58 4867   5.683  -0.099   2.451  0.2303  0.3210 -0.5160
   12CHTO  H115 4868   5.676  -0.189   2.387 -0.9289 -0.5978  0.8969
   12CHTO   O37 4869   5.741  -0.131   2.575 -0.0850  0.0335  0.3258
   12CHTO   C59 4870   5.663  -0.216   2.659 -0.4130  0.6464 -0.6377
   12CHTO  H116 4871   5.663  -0.314   2.611  1.4293 -0.8556  2.2758
   12CHTO   C70 4872   5.745  -0.224   2.790 -0.0146  0.2806 -0.2703
   12CHTO   O46 4873   5.701  -0.322   2.883  0.9992  0.2965 -0.1862
   12CHTO  H103 4874   5.675  -0.404   2.847 -0.4241  0.9516 -0.6504
   12CHTO   O39 4875   5.790   0.006   2.373  0.3617 -0.0834 -0.2883
   12CHTO   C60 4876   5.932  -0.006   2.400  0.0961 -0.3036 -0.1160
   12CHTO  H117 4877   5.935  -0.071   2.487  0.5069  0.2608  0.2938
   12CHTO   C62 4878   6.019  -0.060   2.278 -0.3425  0.1437  0.4823
   12CHTO  H119 4879   5.979  -0.161   2.257 -0.9495  0.6594 -0.9074
   12CHTO   O43 4880   5.994   0.020   2.163 -0.7517  0.5363 -0.2086
   12CHTO  H101 4881   6.041   0.099   2.180 -0.8254  0.2402  1.4613
   12CHTO   C66 4882   6.166  -0.067   2.321 -0.6029 -0.2826 -0.0386
   12CHTO  H123 4883   6.176  -0.129   2.409 -1.7383  1.4604  1.3588
   12CHTO   N12 4884   6.258  -0.129   2.219 -0.0877  0.6647  0.5289
   12CHTO  H110 4885   6.232  -0.116   2.115 -0.7250 -0.8547  0.4780
   12CHTO  H111 4886   6.364  -0.122   2.234  0.3156  0.7819 -2.1151
   12CHTO   C69 4887   6.215   0.073   2.380 -0.3371 -0.3406  0.2744
   12CHTO  H126 4888   6.212   0.138   2.291 -2.8600  3.0211  2.6852
   12CHTO   O41 4889   6.118   0.108   2.492  0.3225 -0.3275  0.3857
   12CHTO   C64 4890   5.985   0.135   2.454  0.4748  0.0566  0.7394
   12CHTO  H121 4891   5.984   0.216   2.379  0.6200 -1.4088 -0.8908
   12CHTO   C71 4892   5.896   0.182   2.576 -0.1649 -0.6311  0.2776
   12CHTO   O47 4893   5.919   0.118   2.698 -0.9410  0.0452  0.2083
   12CHTO  H104 4894   5.849   0.142   2.755 -0.2080  1.5096  0.5389
   12CHTO   O34 4895   6.377   0.061   2.443 -0.7121 -0.0543 -0.5399
   12CHTO   C49 4896   6.432   0.013   2.582 -0.3127  0.8128  0.0196
   12CHTO   H91 4897   6.514   0.077   2.615 -2.0854  2.1908  1.7827
   12CHTO   C47 4898   6.501  -0.126   2.563  0.1036  0.3538 -0.3321
   12CHTO   H89 4899   6.563  -0.144   2.653  0.7638 -1.7497 -1.1650
   12CHTO   O33 4900   6.591  -0.107   2.455 -0.1051  0.0960 -0.2523
   12CHTO   H70 4901   6.640  -0.186   2.439  0.7166  0.3455  0.9788
   12CHTO   C45 4902   6.384  -0.248   2.555 -1.2841  0.4771 -0.7265
   12CHTO   H87 4903   6.335  -0.242   2.457 -0.7205 -1.5877 -1.1620
   12CHTO    N8 4904   6.461  -0.381   2.558  0.2582 -0.9450 -0.3309
   12CHTO   H75 4905   6.538  -0.373   2.483 -0.9014  0.4934 -1.4207
   12CHTO   H76 4906   6.391  -0.456   2.525 -0.9602 -0.0100  0.0824
   12CHTO   C43 4907   6.268  -0.230   2.663  0.0698  0.0288  0.5124
   12CHTO   H85 4908   6.183  -0.283   2.620  0.3728 -2.6721  3.1053
   12CHTO   O29 4909   6.231  -0.093   2.687  0.2232 -0.2061 -0.0082
   12CHTO   C50 4910   6.330   0.011   2.696  0.1513  0.0845 -0.1988
   12CHTO   H92 4911   6.272   0.104   2.707  0.6899  0.3779  0.2162
   12CHTO   C54 4912   6.401   0.016   2.835  0.1890  0.0209  0.1406
   12CHTO   O36 4913   6.505   0.104   2.844 -0.4210  0.0741 -0.1821
   12CHTO   H72 4914   6.554   0.077   2.919 -0.1549 -0.6682 -0.6093
   12CHTO   O27 4915   6.300  -0.284   2.787 -0.6316 -0.2624 -0.5094
   12CHTO   C37 4916   6.233  -0.355   2.899 -0.3055  0.8775  0.1892
   12CHTO   H79 4917   6.316  -0.374   2.969  3.5012 -0.8221 -4.5172
   12CHTO   C38 4918   6.128  -0.267   2.974 -0.3291 -0.1627  0.4495
   12CHTO   H80 4919   6.063  -0.224   2.897  1.8159  1.1362 -0.6814
   12CHTO   O31 4920   6.193  -0.157   3.034 -0.1089  0.6264  0.2629
   12CHTO   H68 4921   6.191  -0.081   2.979 -0.8132  0.4329  0.0218
   12CHTO   C39 4922   6.043  -0.341   3.080  0.1570  0.1141 -0.0711
   12CHTO   H81 4923   6.106  -0.376   3.162  1.0869  0.0793 -0.8041
   12CHTO    N7 4924   5.927  -0.260   3.136  0.6040 -0.0126 -0.0293
   12CHTO   H73 4925   5.836  -0.245   3.080  1.2390  0.4751 -0.9462
   12CHTO   H74 4926   5.902  -0.322   3.221  0.9257 -0.3020 -0.1468
   12CHTO   C40 4927   5.990  -0.471   3.017  0.5641  0.2662 -0.6411
   12CHTO   H82 4928   5.916  -0.459   2.938  0.2387  1.0875 -0.2115
   12CHTO   O26 4929   6.101  -0.551   2.965  0.1705  0.0379 -0.1611
   12CHTO   C41 4930   6.168  -0.491   2.856  0.8238 -0.6735 -0.3255
   12CHTO   H83 4931   6.104  -0.458   2.772  0.8932  0.9797  0.2489
   12CHTO   C52 4932   6.272  -0.579   2.796  0.0125  0.6136 -0.0523
   12CHTO   O35 4933   6.207  -0.685   2.728 -0.4541 -0.0649 -0.1663
   12CHTO   H71 4934   6.189  -0.656   2.641  2.6803  0.9148 -0.5644
   12CHTO   O28 4935   5.932  -0.563   3.113  0.0759  0.1681  0.1934
   12CHTO   C42 4936   5.826  -0.662   3.091  0.0056 -0.2888  0.2702
   12CHTO   H84 4937   5.842  -0.732   3.174  2.5816 -1.1270 -0.8653
   12CHTO   C44 4938   5.819  -0.747   2.964  0.2019 -0.6936  0.5638
   12CHTO   H86 4939   5.797  -0.680   2.881  1.7185 -1.9493 -0.8948
   12CHTO   O32 4940   5.948  -0.815   2.949 -0.0781 -0.4728  0.2250
   12CHTO   H69 4941   5.951  -0.864   2.869  1.6453 -0.4857  0.2733
   12CHTO   C48 4942   5.696  -0.850   2.972 -0.4420  0.1138  0.0597
   12CHTO   H90 4943   5.726  -0.920   3.051  1.0565  1.8872  1.1119
   12CHTO    N9 4944   5.684  -0.925   2.843  0.0811 -0.3178 -0.3997
   12CHTO   H77 4945   5.766  -0.995   2.833 -0.6794 -1.1776 -0.6462
   12CHTO   H78 4946   5.583  -0.957   2.825  0.0239 -1.4006  1.6879
   12CHTO   C51 4947   5.573  -0.773   3.004  0.6565  0.2102  0.1285
   12CHTO   H93 4948   5.542  -0.704   2.925 -2.6952  0.4565  1.5873
   12CHTO   O30 4949   5.593  -0.708   3.128 -0.6534  0.2868  0.1962
   12CHTO   C46 4950   5.683  -0.602   3.110 -0.2507 -0.0022  0.4839
   12CHTO   H88 4951   5.659  -0.555   3.015 -2.3298  0.7741  1.3721
   12CHTO   C53 4952   5.671  -0.498   3.228 -0.5845 -0.3370 -0.3867
   12CHTO   O72 4953   5.648  -0.556   3.353 -0.5186  0.5733 -0.4571
   12CHTO  H199 4954   5.557  -0.574   3.361 -0.1481 -1.2556 -0.0505
   12CHTO   O22 4955   5.457  -0.859   3.033 -0.2124 -0.1661 -0.0569
   12CHTO   C31 4956   5.319  -0.811   3.067  0.0972 -0.4096 -0.4722
   12CHTO   H59 4957   5.260  -0.898   3.102 -0.3015 -1.1470 -2.9001
   12CHTO   C29 4958   5.307  -0.705   3.180  0.3787 -0.0844 -0.2285
   12CHTO   H57 4959   5.368  -0.618   3.151 -0.4029  0.8753  0.9402
   12CHTO   O21 4960   5.382  -0.756   3.290  0.6974 -0.2919  0.0979
   12CHTO   H37 4961   5.382  -0.689   3.355 -3.5116  0.2405 -0.3178
   12CHTO   C27 4962   5.160  -0.661   3.217  0.9343 -0.1220  0.4263
   12CHTO   H55 4963   5.097  -0.747   3.242 -2.8432  2.2817 -0.3377
   12CHTO    N5 4964   5.155  -0.560   3.328 -0.0704 -0.1037 -0.1832
   12CHTO   H43 4965   5.077  -0.596   3.394  0.8972 -1.6784  0.1196
   12CHTO   H44 4966   5.253  -0.547   3.373  0.2103 -0.3346 -0.7279
   12CHTO   C25 4967   5.085  -0.612   3.083  0.0010  0.0169  0.0125
   12CHTO   H53 4968   5.121  -0.517   3.043  0.6026  0.0571  0.6367
   12CHTO   O17 4969   5.105  -0.721   2.982 -0.5945  0.2232 -0.3659
   12CHTO   C32 4970   5.240  -0.755   2.944  0.6464 -0.2892  0.4124
   12CHTO   H60 4971   5.296  -0.678   2.891 -0.0829 -0.1342 -0.1445
   12CHTO   C36 4972   5.222  -0.871   2.841 -0.4415  0.1420  0.8707
   12CHTO   O25 4973   5.211  -0.803   2.715 -0.3088  1.4523 -0.1910
   12CHTO   H40 4974   5.153  -0.730   2.709 -0.2186  1.6977  1.6027
   12CHTO   O15 4975   4.935  -0.599   3.110  0.3465 -0.4159 -0.5369
   12CHTO   C19 4976   4.813  -0.604   3.038  0.3414  0.1545 -0.4443
   12CHTO   H47 4977   4.745  -0.555   3.108  2.2408  1.3017  0.6391
   12CHTO   C20 4978   4.810  -0.529   2.902  0.1362  0.3016  0.7931
   12CHTO   H48 4979   4.879  -0.573   2.829 -2.4926 -1.5592 -0.6673
   12CHTO   O19 4980   4.848  -0.394   2.934 -0.2191  0.4638  0.3556
   12CHTO   H35 4981   4.940  -0.379   2.933 -0.4362  1.7993 -0.4397
   12CHTO   C21 4982   4.664  -0.533   2.833  0.4357  0.6263 -0.1837
   12CHTO   H49 4983   4.599  -0.463   2.886 -0.5906 -0.1556 -0.3922
   12CHTO    N4 4984   4.658  -0.497   2.684 -0.2507  0.1610  0.6524
   12CHTO   H41 4985   4.708  -0.403   2.666  1.3517  0.0083  3.7771
   12CHTO   H42 4986   4.720  -0.576   2.645 -2.4918 -0.7414 -1.1786
   12CHTO   C22 4987   4.615  -0.684   2.852  0.0701  0.1394 -0.4779
   12CHTO   H50 4988   4.667  -0.749   2.781 -1.2535  0.3677 -1.6871
   12CHTO   O14 4989   4.634  -0.734   2.981 -0.3120 -0.2007 -0.0049
   12CHTO   C23 4990   4.766  -0.748   3.027  0.7495  0.3987  0.2235
   12CHTO   H51 4991   4.827  -0.808   2.958 -0.6447 -0.5881 -0.1766
   12CHTO   C34 4992   4.746  -0.817   3.164  0.2366  0.3278 -0.2688
   12CHTO   O23 4993   4.677  -0.744   3.261 -0.4481  0.4059 -0.4456
   12CHTO   H38 4994   4.584  -0.746   3.250 -0.5301 -2.6674  0.1108
   12CHTO   O16 4995   4.472  -0.700   2.833  0.7913 -0.1521 -0.2678
   12CHTO   C24 4996   4.440  -0.840   2.763  0.0064  0.3930  0.3290
   12CHTO   H52 4997   4.526  -0.907   2.764 -0.8849 -0.7363  0.9113
   12CHTO   C26 4998   4.402  -0.816   2.614  0.2562 -0.7249 -0.4279
   12CHTO   H54 4999   4.335  -0.728   2.614  1.0218 -0.1304 -1.0712
   12CHTO   O20 5000   4.519  -0.784   2.534 -0.3116  0.3537  0.5250
   12CHTO   H36 5001   4.510  -0.733   2.456  0.2551 -1.5614 -0.8161
   12CHTO   C30 5002   4.329  -0.930   2.545  0.2666  0.2854  0.8332
   12CHTO   H58 5003   4.401  -1.011   2.532  2.5479  2.0247  2.2937
   12CHTO    N6 5004   4.269  -0.891   2.410 -0.2138 -0.5395 -0.6166
   12CHTO   H45 5005   4.170  -0.931   2.393  0.5603 -1.8771 -2.1032
   12CHTO   H46 5006   4.332  -0.935   2.334 -0.1279 -0.9577 -0.3053
   12CHTO   C33 5007   4.222  -0.993   2.640 -0.1722 -0.9630 -0.5727
   12CHTO   H61 5008   4.149  -0.914   2.660 -0.2197 -1.0882 -0.2408
   12CHTO   O18 5009   4.286  -1.029   2.760 -0.2623 -0.9361  0.6618
   12CHTO   C28 5010   4.329  -0.915   2.840  0.6674  0.0805  0.1005
   12CHTO   H56 5011   4.247  -0.845   2.856  1.6885  1.3852 -0.2813
   12CHTO   C35 5012   4.367  -0.983   2.971  0.1916 -0.6803 -0.3124
   12CHTO   O24 5013   4.472  -1.085   2.953 -0.2866 -0.5048 -0.2525
   12CHTO   H39 5014   4.557  -1.049   2.941  0.0874 -0.8604  1.2622
   12CHTO    O9 5015   4.143  -1.097   2.589 -0.1711 -0.4225 -0.6357
   12CHTO   C13 5016   4.220  -1.227   2.530 -0.3025  0.6286  0.4133
   12CHTO   H26 5017   4.326  -1.200   2.513 -1.0837  3.1665 -0.5050
   12CHTO   C11 5018   4.158  -1.289   2.394 -0.2445  0.1257  0.1882
   12CHTO   H24 5019   4.178  -1.209   2.321  0.4458 -0.8673 -0.7242
   12CHTO    O8 5020   4.018  -1.291   2.407 -0.3216  0.4070 -0.1977
   12CHTO    H3 5021   3.979  -1.298   2.322  0.4129 -0.9939 -0.4272
   12CHTO    C9 5022   4.223  -1.427   2.352  0.3912 -0.4111  0.3281
   12CHTO   H22 5023   4.329  -1.405   2.336  0.6210 -0.0330  2.1656
   12CHTO    N2 5024   4.172  -1.479   2.222 -0.1162  0.4214  0.7024
   12CHTO   H10 5025   4.211  -1.572   2.183 -2.3358  0.9327 -2.9459
   12CHTO   H11 5026   4.064  -1.482   2.220 -0.1299  1.3270 -0.8071
   12CHTO    C7 5027   4.206  -1.529   2.476  0.1021 -0.6079 -0.6718
   12CHTO   H20 5028   4.279  -1.609   2.451 -0.0145 -0.8554 -0.2315
   12CHTO    O4 5029   4.248  -1.473   2.603 -0.2257 -0.0257  0.2640
   12CHTO   C14 5030   4.226  -1.341   2.639 -0.5424 -0.3390 -0.4916
   12CHTO   H27 5031   4.311  -1.318   2.706  0.5118 -3.3591 -0.7178
   12CHTO   C18 5032   4.103  -1.342   2.735  0.6559  0.3273 -0.5033
   12CHTO   O13 5033   3.987  -1.371   2.661 -0.0015 -0.3444 -0.3656
   12CHTO    H7 5034   3.910  -1.338   2.702  1.2471  1.5266  0.5562
   12CHTO    O2 5035   4.095  -1.585   2.486  0.6063  0.0944  0.0930
   12CHTO    C1 5036   4.071  -1.686   2.594 -0.1866 -0.2294  0.1815
   12CHTO   H14 5037   4.076  -1.623   2.684  1.0855  0.4027 -0.3221
   12CHTO    C2 5038   4.172  -1.807   2.601 -0.8808 -0.0816 -0.3008
   12CHTO   H15 5039   4.191  -1.835   2.496  0.4670  2.2231 -0.7031
   12CHTO    O6 5040   4.295  -1.756   2.664  0.3613 -0.1117 -0.9003
   12CHTO    H1 5041   4.369  -1.756   2.606  1.9483  1.0008  1.0138
   12CHTO    C3 5042   4.123  -1.928   2.690 -0.0881 -0.5599  0.0909
   12CHTO   H16 5043   4.132  -1.894   2.794  0.4179 -0.1680 -0.0807
   12CHTO    N1 5044   4.209  -2.051   2.662  0.3038 -0.6325  0.1669
   12CHTO    H8 5045   4.313  -2.021   2.658  0.3234 -0.7433 -0.1499
   12CHTO    H9 5046   4.198  -2.108   2.753  2.8565 -0.6398  0.5260
   12CHTO    C4 5047   3.971  -1.956   2.673 -0.1918 -0.3555  0.0715
   12CHTO   H17 5048   3.964  -2.009   2.578  0.6102  0.8417 -0.6789
   12CHTO    O1 5049   3.887  -1.838   2.680  0.0020  0.2874  0.3538
   12CHTO    C5 5050   3.924  -1.742   2.582 -0.7606  0.0575 -0.0773
   12CHTO   H18 5051   3.903  -1.791   2.487 -0.1066  1.5510 -1.0159
   12CHTO   C16 5052   3.821  -1.627   2.594 -0.3825  0.7424 -0.8596
   12CHTO   O11 5053   3.837  -1.561   2.724  0.2595  0.5124 -1.0581
   12CHTO    H5 5054   3.762  -1.511   2.750 -1.5100 -2.6625  0.1478
   12CHTO    O3 5055   3.924  -2.042   2.777 -0.1064  0.1993 -0.1756
   12CHTO    C6 5056   3.801  -2.120   2.750 -0.4147  0.6043  0.0096
   12CHTO   H19 5057   3.761  -2.097   2.652  0.9394  0.4049 -0.6052
   12CHTO    C8 5058   3.835  -2.274   2.751  0.3064  0.1843 -0.3051
   12CHTO   H21 5059   3.883  -2.301   2.845  1.6016  1.4195 -0.5933
   12CHTO    O7 5060   3.919  -2.287   2.640 -0.1448 -0.9788  0.1207
   12CHTO    H2 5061   3.979  -2.359   2.654  2.2820  0.5585 -1.8566
   12CHTO   C12 5062   3.709  -2.371   2.743 -0.8201 -0.0589  0.5303
   12CHTO   H25 5063   3.666  -2.365   2.640  1.2845 -0.1126 -0.3799
   12CHTO    N3 5064   3.742  -2.513   2.759 -0.4917  0.1421 -0.1942
   12CHTO   H12 5065   3.828  -2.524   2.823 -0.0413  2.3601 -0.3658
   12CHTO   H13 5066   3.657  -2.564   2.802 -0.5182 -2.8655 -3.5969
   12CHTO   C15 5067   3.600  -2.320   2.844 -0.5635  0.1341 -0.3363
   12CHTO   H28 5068   3.615  -2.349   2.948  2.7031 -0.5524 -0.9616
   12CHTO   O10 5069   3.459  -2.384   2.794 -0.2506  0.2586 -0.6398
   12CHTO    H4 5070   3.387  -2.340   2.836  0.9816  2.0587 -0.3326
   12CHTO    O5 5071   3.574  -2.176   2.827  0.0217 -0.4207  0.3128
   12CHTO   C10 5072   3.689  -2.092   2.852  0.2666  0.4868  0.3366
   12CHTO   H23 5073   3.735  -2.114   2.948  0.1410  0.5194  0.4039
   12CHTO   C17 5074   3.656  -1.944   2.868 -0.0924 -0.7626  0.3919
   12CHTO   O12 5075   3.568  -1.912   2.976 -0.4701 -0.3528  0.3797
   12CHTO    H6 5076   3.568  -1.818   2.968  0.7947 -0.3449  0.3429
   13CHTO  H203 5077   8.188   4.888   1.566 -0.5955 -2.8816  0.3052
   13CHTO   O82 5078   8.104   4.917   1.595  0.2522 -0.0056  0.0366
   13CHTO  C123 5079   8.053   5.024   1.517  0.3853 -0.9394 -0.1797
   13CHTO  H227 5080   8.077   5.001   1.412 -0.1299 -2.8419  0.1187
   13CHTO   O77 5081   7.906   5.003   1.535  0.6350 -0.2148 -0.4415
   13CHTO  C118 5082   7.829   5.089   1.444  0.3972 -0.5781 -0.2771
   13CHTO  H222 5083   7.866   5.078   1.341  0.7773 -1.4417 -0.0517
   13CHTO  C125 5084   7.672   5.062   1.443 -0.3073  0.1524  0.9014
   13CHTO   O84 5085   7.617   4.946   1.375 -0.1518 -0.3507  0.2001
   13CHTO  H205 5086   7.661   4.922   1.296 -1.0343 -0.7546 -0.1783
   13CHTO  C114 5087   7.851   5.232   1.490  0.2329  0.0797 -0.3578
   13CHTO  H218 5088   7.824   5.236   1.596 -1.6651  1.8944 -0.8963
   13CHTO  C116 5089   8.000   5.272   1.468  0.3095 -0.4750 -0.1412
   13CHTO  H220 5090   8.023   5.260   1.360  2.4506  1.0970  0.0924
   13CHTO   O79 5091   8.012   5.414   1.514  0.5558 -0.3695  0.1686
   13CHTO  H201 5092   8.104   5.434   1.508  0.5121 -0.4753 -0.9543
   13CHTO  C120 5093   8.082   5.168   1.560 -0.0043  0.0852 -0.4276
   13CHTO  H224 5094   8.045   5.188   1.662 -0.7956 -0.0381 -0.6876
   13CHTO   N21 5095   8.225   5.205   1.559  0.2362 -0.4174  0.2374
   13CHTO  H211 5096   8.261   5.256   1.647 -0.8707 -0.7402  0.8807
   13CHTO  H212 5097   8.285   5.123   1.524 -0.0474  0.6217 -2.9076
   13CHTO   O75 5098   7.761   5.318   1.407  0.0937 -0.6903 -0.4035
   13CHTO  C112 5099   7.676   5.440   1.487  0.3075 -0.3214 -0.2475
   13CHTO  H216 5100   7.748   5.488   1.555 -1.2704 -0.2131  1.3898
   13CHTO   O73 5101   7.565   5.379   1.559  0.5360 -0.4759 -0.5425
   13CHTO  C113 5102   7.481   5.468   1.637  0.1843  0.1730  0.3929
   13CHTO  H217 5103   7.547   5.527   1.704  1.2292  0.3087 -0.7498
   13CHTO  C124 5104   7.409   5.372   1.730  0.4189 -0.0792 -0.1059
   13CHTO   O83 5105   7.305   5.437   1.803 -0.0418 -0.6497  0.0369
   13CHTO  H204 5106   7.302   5.404   1.891  2.7460  0.0776  0.4435
   13CHTO  C109 5107   7.396   5.550   1.535 -0.0792 -0.1505  0.3956
   13CHTO  H213 5108   7.345   5.478   1.470  0.6103 -0.9500  0.7266
   13CHTO  C110 5109   7.496   5.634   1.446 -0.0471  0.0196 -0.1189
   13CHTO  H214 5110   7.538   5.713   1.509 -0.2159  0.0576 -0.0510
   13CHTO   O78 5111   7.428   5.699   1.337  0.4889 -0.2964 -0.0407
   13CHTO  H200 5112   7.453   5.789   1.329 -0.6785 -0.0032 -0.4822
   13CHTO  C111 5113   7.613   5.546   1.385 -0.0260 -0.4824  0.1273
   13CHTO  H215 5114   7.574   5.494   1.296  1.9462  0.4078 -1.3141
   13CHTO   N19 5115   7.728   5.634   1.338 -0.0259  0.3272  0.0246
   13CHTO  H207 5116   7.730   5.668   1.236  0.8978  0.7154  0.1679
   13CHTO  H208 5117   7.821   5.586   1.365  1.0562  0.9213 -2.5197
   13CHTO   O74 5118   7.297   5.629   1.605 -0.0706 -0.3014 -0.4771
   13CHTO  C115 5119   7.189   5.706   1.528  0.5844 -0.1159  0.3811
   13CHTO  H219 5120   7.227   5.787   1.465  2.5580 -0.9513  0.4680
   13CHTO   O76 5121   7.101   5.610   1.423  0.1941 -0.2371  0.1965
   13CHTO  C122 5122   7.029   5.501   1.481  0.3911 -0.0910  0.0931
   13CHTO  H226 5123   7.102   5.422   1.500  1.3490  0.6478 -0.4428
   13CHTO  C126 5124   6.935   5.446   1.371  0.3028  0.1609 -0.3947
   13CHTO   O85 5125   6.991   5.411   1.244  0.2293 -0.5364 -0.7457
   13CHTO  H206 5126   7.062   5.350   1.254 -0.7705 -1.4333  1.3105
   13CHTO  C121 5127   6.956   5.540   1.615  0.3628 -0.5600  0.0549
   13CHTO  H225 5128   6.852   5.502   1.621  0.9253 -1.9563  1.2464
   13CHTO   O81 5129   7.022   5.479   1.725  0.2224  0.4475 -0.5000
   13CHTO  H202 5130   7.107   5.515   1.739  0.0717  0.1314  1.3418
   13CHTO  C119 5131   6.948   5.700   1.624  0.6330 -0.0150 -0.0395
   13CHTO  H223 5132   6.909   5.734   1.528  1.8081  3.1043  0.5366
   13CHTO  C117 5133   7.090   5.763   1.640 -0.0535  0.4592 -0.2595
   13CHTO  H221 5134   7.137   5.743   1.736  0.6365  2.2690 -0.2014
   13CHTO   N20 5135   7.088   5.911   1.635  0.6685  0.0762  0.2351
   13CHTO  H209 5136   6.999   5.945   1.685 -0.3039 -1.2223 -0.5691
   13CHTO  H210 5137   7.086   5.941   1.531 -0.4215  1.4772  0.6466
   13CHTO   O80 5138   6.838   5.753   1.732 -0.7204 -0.5458 -0.2843
   13CHTO  C103 5139   6.690   5.814   1.684  0.1142  0.4872 -0.3607
   13CHTO  H190 5140   6.639   5.874   1.759  1.4276  2.0966 -0.7124
   13CHTO  C101 5141   6.686   5.910   1.554  0.8944 -0.4025 -0.6968
   13CHTO  H188 5142   6.746   5.867   1.474  2.2249 -1.7523  0.9632
   13CHTO   O68 5143   6.772   6.045   1.603 -0.3000  0.2718  0.0875
   13CHTO  H168 5144   6.860   6.033   1.574 -1.3866 -1.0477 -2.9323
   13CHTO   C99 5145   6.535   5.939   1.506 -0.8134 -0.2140 -0.2657
   13CHTO  H186 5146   6.482   5.991   1.588  1.5000 -1.3914  2.0654
   13CHTO   N17 5147   6.524   6.021   1.379  0.0413  0.1353 -0.7191
   13CHTO  H174 5148   6.618   6.036   1.328 -0.6401 -0.7286 -2.2663
   13CHTO  H175 5149   6.474   6.113   1.401  1.2642  0.3054  1.5301
   13CHTO   C97 5150   6.461   5.800   1.485 -0.4434  0.8789  0.3178
   13CHTO  H184 5151   6.514   5.738   1.411 -1.6811 -0.5123  0.5748
   13CHTO   O64 5152   6.463   5.738   1.617 -0.3360  0.2879 -0.4199
   13CHTO  C104 5153   6.593   5.686   1.656  1.2172  0.2713  0.9185
   13CHTO  H191 5154   6.628   5.633   1.568  0.3438  0.3708  0.5024
   13CHTO  C108 5155   6.580   5.585   1.769  0.1488  0.2003  1.2956
   13CHTO   O71 5156   6.706   5.533   1.811  0.9727  0.1120  0.4888
   13CHTO  H171 5157   6.696   5.501   1.899  0.4275  0.1228  0.4305
   13CHTO   O62 5158   6.319   5.822   1.450  0.5077 -0.5502  0.3232
   13CHTO   C91 5159   6.236   5.709   1.434  0.5717  0.0529 -0.5514
   13CHTO  H178 5160   6.281   5.616   1.468 -2.0334 -1.2002 -0.3692
   13CHTO   C92 5161   6.204   5.689   1.278 -0.2745 -0.2498  0.1800
   13CHTO  H179 5162   6.158   5.781   1.240 -1.8417 -0.5235  1.3969
   13CHTO   O66 5163   6.334   5.673   1.204  0.6281  0.2083  0.0289
   13CHTO  H166 5164   6.350   5.583   1.185 -0.1665  0.2942 -1.1059
   13CHTO   C93 5165   6.109   5.563   1.254 -0.1685 -0.1008 -0.7715
   13CHTO  H180 5166   6.165   5.470   1.274 -3.6564 -2.1737 -0.2942
   13CHTO   N16 5167   6.074   5.545   1.118  0.8020 -0.1814 -0.1490
   13CHTO  H172 5168   6.028   5.634   1.077  3.4168  0.6283 -1.4044
   13CHTO  H173 5169   6.164   5.530   1.061  0.0762 -0.6654 -1.1720
   13CHTO   C94 5170   5.987   5.573   1.349 -0.8283  0.1115 -0.1436
   13CHTO  H181 5171   5.923   5.657   1.321 -0.4515  0.4289 -0.0557
   13CHTO   O61 5172   6.019   5.601   1.485 -0.3072  0.2769  0.4139
   13CHTO   C95 5173   6.097   5.721   1.509 -0.0109 -0.4602 -0.3272
   13CHTO  H182 5174   6.046   5.803   1.459 -0.0203 -0.0707  0.3172
   13CHTO  C106 5175   6.102   5.760   1.663 -0.4116 -0.2167  0.6227
   13CHTO   O69 5176   6.180   5.883   1.690  0.1125  0.5984  0.4561
   13CHTO  H169 5177   6.178   5.892   1.783  1.5178  0.2670  0.5219
   13CHTO   O63 5178   5.903   5.430   1.340 -0.9415  0.4043  0.4478
   13CHTO   C96 5179   5.758   5.450   1.421 -0.1850 -0.0737  0.4027
   13CHTO  H183 5180   5.681   5.389   1.374  0.5310 -0.1890 -0.6306
   13CHTO   C98 5181   5.690   5.589   1.429 -0.3865  0.0026 -0.9087
   13CHTO  H185 5182   5.763   5.655   1.478  2.9066 -2.8100 -1.8352
   13CHTO   O67 5183   5.682   5.647   1.297 -0.0910  0.3583  0.0677
   13CHTO  H167 5184   5.770   5.674   1.277  0.5650 -2.0618 -0.4611
   13CHTO  C102 5185   5.549   5.582   1.506 -0.2563  0.1713  0.2754
   13CHTO  H189 5186   5.479   5.527   1.442  0.3138 -0.9066  0.5643
   13CHTO   N18 5187   5.484   5.718   1.536  0.3559 -0.0275  0.4010
   13CHTO  H176 5188   5.437   5.757   1.447  1.4028 -3.1036 -1.6097
   13CHTO  H177 5189   5.424   5.716   1.625  1.5036 -1.6513  1.1701
   13CHTO  C105 5190   5.562   5.504   1.641  0.6403  0.2639 -0.0083
   13CHTO  H192 5191   5.616   5.568   1.711  0.7840  0.3395 -0.1873
   13CHTO   O65 5192   5.633   5.382   1.623 -0.1107 -0.4816  0.1207
   13CHTO  C100 5193   5.765   5.408   1.575 -0.5054 -0.0402 -0.2222
   13CHTO  H187 5194   5.814   5.494   1.622 -0.1691  0.0485 -0.7398
   13CHTO  C107 5195   5.863   5.290   1.601 -0.2274 -1.2148 -0.2115
   13CHTO   O70 5196   5.806   5.172   1.552  0.4013  0.2673 -0.2799
   13CHTO  H170 5197   5.804   5.103   1.616  0.0167 -0.9856 -1.5972
   13CHTO   O57 5198   5.408   5.474   1.692  0.3781  0.2358 -0.2598
   13CHTO   C85 5199   5.315   5.386   1.631  0.6192  1.3341  0.6514
   13CHTO  H157 5200   5.374   5.340   1.549 -0.9623 -2.5851  1.6397
   13CHTO   C83 5201   5.198   5.459   1.563 -0.1167  0.1308  0.0206
   13CHTO  H155 5202   5.246   5.524   1.489  1.5758  1.2095  2.0229
   13CHTO   O56 5203   5.131   5.535   1.665 -0.4605  0.5439 -0.1669
   13CHTO  H135 5204   5.162   5.624   1.664  0.5517  0.2000 -0.2451
   13CHTO   C81 5205   5.112   5.356   1.487 -0.0254 -0.7345  0.1252
   13CHTO  H153 5206   5.173   5.312   1.408 -1.7060 -0.1486 -1.5356
   13CHTO   N14 5207   5.007   5.428   1.402 -0.0757 -0.5692 -0.1960
   13CHTO  H141 5208   4.983   5.365   1.319 -2.1800 -0.6681  0.4656
   13CHTO  H142 5209   5.052   5.518   1.366 -1.4532 -0.3146 -1.3099
   13CHTO   C79 5210   5.060   5.241   1.578 -0.5620 -0.5243 -0.2612
   13CHTO  H151 5211   5.009   5.170   1.514 -0.5151 -1.8952  1.2050
   13CHTO   O52 5212   5.171   5.173   1.638  0.3358 -0.5318  0.2992
   13CHTO   C86 5213   5.249   5.269   1.721 -0.4088 -0.1027 -0.0389
   13CHTO  H158 5214   5.174   5.298   1.798  0.4151  0.4227  0.5875
   13CHTO   C90 5215   5.353   5.195   1.801 -0.5005  0.0635  0.3262
   13CHTO   O60 5216   5.292   5.087   1.878 -0.1463 -0.7469  0.3572
   13CHTO  H138 5217   5.364   5.067   1.936 -0.3074 -1.0853  0.4431
   13CHTO   O50 5218   4.974   5.287   1.680 -0.0482 -0.1656  0.4297
   13CHTO   C73 5219   4.845   5.239   1.729 -0.1139  0.5911  0.0270
   13CHTO  H145 5220   4.799   5.181   1.647 -0.8015 -0.2812  1.0204
   13CHTO   C74 5221   4.753   5.363   1.765  0.6072  0.4345 -0.0063
   13CHTO  H146 5222   4.739   5.431   1.680 -1.0397  0.2288  0.0922
   13CHTO   O54 5223   4.626   5.307   1.801  0.1649  0.0534 -0.2852
   13CHTO  H133 5224   4.574   5.380   1.830  0.3248  0.2446 -0.4743
   13CHTO   C75 5225   4.816   5.439   1.891 -0.0694  0.1135 -0.2077
   13CHTO  H147 5226   4.912   5.481   1.857 -0.3047  0.6278 -0.2430
   13CHTO   N13 5227   4.727   5.552   1.939  0.1752  0.3610  0.5039
   13CHTO  H139 5228   4.788   5.633   1.977  1.0071  0.0935 -0.2373
   13CHTO  H140 5229   4.660   5.583   1.861 -0.3673 -2.8855 -0.3973
   13CHTO   C76 5230   4.837   5.332   2.008 -0.9144 -0.0243 -0.1638
   13CHTO  H148 5231   4.739   5.298   2.040 -0.4890 -1.4443 -0.3267
   13CHTO   O49 5232   4.906   5.211   1.969 -0.2069 -0.4507  0.6133
   13CHTO   C77 5233   4.859   5.144   1.850 -0.1797 -0.1096 -0.0825
   13CHTO  H149 5234   4.763   5.096   1.869  0.0551 -0.7239 -0.4196
   13CHTO   C88 5235   4.949   5.021   1.831 -0.0293  0.4893 -0.5138
   13CHTO   O58 5236   4.930   4.928   1.706  0.3983  0.1490  0.1889
   13CHTO  H136 5237   5.006   4.914   1.653  0.2466 -1.3321  0.3351
   13CHTO   O51 5238   4.928   5.404   2.145 -0.3068 -0.3678  0.0921
   13CHTO   C78 5239   5.082   5.462   2.149  0.3882  0.5569  0.1523
   13CHTO  H150 5240   5.115   5.483   2.253 -1.9726  4.5140  0.2090
   13CHTO   C80 5241   5.090   5.592   2.072  0.1021  0.2445 -0.5611
   13CHTO  H152 5242   5.043   5.576   1.973 -0.4521 -1.7721  0.0088
   13CHTO   O55 5243   5.010   5.681   2.148 -0.1217 -0.1745 -0.2007
   13CHTO  H134 5244   5.005   5.764   2.105  0.0777  0.2521  0.5822
   13CHTO   C84 5245   5.244   5.636   2.060  0.4306  0.0924  0.6208
   13CHTO  H156 5246   5.286   5.650   2.160 -1.9087  0.2673  1.6035
   13CHTO   N15 5247   5.255   5.761   1.975  0.1341  0.0361 -0.4650
   13CHTO  H143 5248   5.237   5.733   1.873 -0.7726  1.3784 -0.6908
   13CHTO  H144 5249   5.355   5.800   1.982 -0.4222  1.1479  1.8355
   13CHTO   C87 5250   5.328   5.518   2.012  0.1676  0.5931 -0.5425
   13CHTO  H159 5251   5.318   5.479   1.911  1.9857  0.3988 -0.6672
   13CHTO   O53 5252   5.300   5.401   2.110 -0.1517  0.5357  0.2118
   13CHTO   C82 5253   5.170   5.349   2.097 -0.2677 -0.4369  0.3624
   13CHTO  H154 5254   5.147   5.319   1.995  0.2743  3.1847 -0.8721
   13CHTO   C89 5255   5.162   5.225   2.192 -0.3746  0.4280  0.3483
   13CHTO   O59 5256   5.257   5.118   2.157  0.1059 -0.2008 -0.0475
   13CHTO  H137 5257   5.275   5.071   2.236  2.4152  1.3709  0.3849
   13CHTO   O45 5258   5.483   5.550   2.027 -0.2656 -0.2685  0.1359
   13CHTO   C67 5259   5.577   5.448   2.053  0.6891  0.2008 -0.1997
   13CHTO  H124 5260   5.532   5.356   2.018 -0.6506  0.0191  1.8984
   13CHTO   C65 5261   5.711   5.465   1.982 -0.5423  0.6759 -0.2181
   13CHTO  H122 5262   5.695   5.489   1.877 -0.3006  0.9386 -0.1969
   13CHTO   O44 5263   5.792   5.344   1.985  0.3982  0.6013  0.0042
   13CHTO  H102 5264   5.846   5.325   1.911 -0.3660 -1.0796 -0.1366
   13CHTO   C63 5265   5.781   5.595   2.045  0.1702  0.0189  0.3960
   13CHTO  H120 5266   5.706   5.673   2.039  0.7471  0.4897 -0.7037
   13CHTO   N11 5267   5.893   5.660   1.980  0.9865 -0.1132  0.6305
   13CHTO  H108 5268   5.931   5.605   1.896 -0.4929 -0.0696 -0.0808
   13CHTO  H109 5269   5.983   5.677   2.035  1.6116 -0.0983 -0.3700
   13CHTO   C61 5270   5.810   5.566   2.195  0.0800  0.2827 -0.2921
   13CHTO  H118 5271   5.853   5.656   2.242 -1.3330  0.6295  0.3788
   13CHTO   O40 5272   5.684   5.535   2.267  0.0399 -0.2515  0.6063
   13CHTO   C68 5273   5.593   5.435   2.212 -0.1170 -0.1766  0.3154
   13CHTO  H125 5274   5.495   5.464   2.255 -0.9855 -0.8893 -1.1461
   13CHTO   C72 5275   5.627   5.291   2.265  0.2614 -0.1722  0.0670
   13CHTO   O48 5276   5.564   5.179   2.195  0.4468  0.0426 -0.1305
   13CHTO  H105 5277   5.504   5.131   2.248  1.6336 -0.3685  0.8615
   13CHTO   O38 5278   5.908   5.458   2.218 -0.3946 -0.5685 -0.1444
   13CHTO   C55 5279   5.996   5.452   2.332  0.5319  0.0466 -0.3176
   13CHTO  H112 5280   6.050   5.357   2.333 -0.0181 -0.2589  1.7693
   13CHTO   C56 5281   5.922   5.481   2.477 -0.0881  0.2581  0.0412
   13CHTO  H113 5282   5.845   5.558   2.459  0.2846  0.4192 -0.8866
   13CHTO   O42 5283   5.853   5.358   2.518 -0.7177  0.3238  0.3347
   13CHTO  H100 5284   5.780   5.340   2.461 -0.1667  0.5744 -0.4578
   13CHTO   C57 5285   6.024   5.533   2.594  0.4089  1.0685  0.6796
   13CHTO  H114 5286   6.074   5.455   2.651 -1.4398 -1.0639 -0.5237
   13CHTO   N10 5287   5.945   5.596   2.702 -0.1313  0.1664 -0.1465
   13CHTO  H106 5288   5.928   5.697   2.667 -0.0860 -0.5162 -2.1786
   13CHTO  H107 5289   5.846   5.553   2.714 -0.2820  0.2408 -1.0606
   13CHTO   C58 5290   6.134   5.625   2.538  0.0506 -0.4159 -0.4560
   13CHTO  H115 5291   6.091   5.726   2.519 -0.8089 -0.6877  0.0148
   13CHTO   O37 5292   6.195   5.573   2.417 -0.4807 -0.4309 -0.5453
   13CHTO   C59 5293   6.105   5.561   2.301  0.5115  0.5949 -0.8099
   13CHTO  H116 5294   6.060   5.658   2.280  0.8975  1.1952  1.0544
   13CHTO   C70 5295   6.201   5.508   2.194 -0.5135  0.1455 -0.1383
   13CHTO   O46 5296   6.147   5.466   2.068 -0.2108 -0.0387 -0.5585
   13CHTO  H103 5297   6.163   5.526   1.998 -0.2779  0.1933 -0.3781
   13CHTO   O39 5298   6.251   5.623   2.638 -0.8232 -0.0981 -0.1676
   13CHTO   C60 5299   6.329   5.743   2.615 -0.5245  0.5921  0.3091
   13CHTO  H117 5300   6.334   5.779   2.512 -0.0225 -1.1905 -0.3130
   13CHTO   C62 5301   6.273   5.859   2.694 -0.3326  0.3951  0.0123
   13CHTO  H119 5302   6.170   5.881   2.658  0.1475  1.3005 -0.8281
   13CHTO   O43 5303   6.256   5.817   2.830  0.1413 -0.0657 -0.3427
   13CHTO  H101 5304   6.285   5.880   2.893  0.1057 -0.2273 -0.1619
   13CHTO   C66 5305   6.359   5.991   2.664  0.3726 -0.0406 -0.4335
   13CHTO  H123 5306   6.346   6.017   2.559  2.3019  2.5933 -0.0789
   13CHTO   N12 5307   6.313   6.113   2.736 -0.0217 -0.4457  0.4085
   13CHTO  H110 5308   6.323   6.092   2.842  0.1712  0.0549  0.4917
   13CHTO  H111 5309   6.212   6.119   2.701 -0.3979 -1.5125  1.2792
   13CHTO   C69 5310   6.509   5.957   2.701  0.4562 -1.3094 -0.0136
   13CHTO  H126 5311   6.515   5.947   2.811 -2.3838 -1.4948  0.1567
   13CHTO   O41 5312   6.562   5.843   2.626 -0.4857 -0.2309 -0.6554
   13CHTO   C64 5313   6.476   5.709   2.656  0.2618  0.2449  0.0528
   13CHTO  H121 5314   6.489   5.679   2.762  2.2433 -2.7541 -0.9892
   13CHTO   C71 5315   6.536   5.593   2.582  0.3388 -0.1028 -0.2033
   13CHTO   O47 5316   6.481   5.464   2.609 -0.1119 -0.1943 -0.2611
   13CHTO  H104 5317   6.503   5.406   2.539  1.4196  0.6411 -0.4774
   13CHTO   O34 5318   6.597   6.090   2.652  0.2111 -0.0189  0.2419
   13CHTO   C49 5319   6.748   6.130   2.644 -0.5231 -0.4180  0.3461
   13CHTO   H91 5320   6.806   6.045   2.607 -1.8876 -1.1488 -0.1551
   13CHTO   C47 5321   6.794   6.181   2.783 -0.4939  0.8130 -0.2773
   13CHTO   H89 5322   6.901   6.197   2.759 -0.8084  0.6180 -1.8678
   13CHTO   O33 5323   6.789   6.077   2.880  0.0521 -0.1247  0.0223
   13CHTO   H70 5324   6.875   6.079   2.917 -0.7263 -0.6842  1.9528
   13CHTO   C45 5325   6.707   6.306   2.835  0.5253  0.1196 -0.0415
   13CHTO   H87 5326   6.617   6.272   2.888  0.9781 -0.1256  0.5764
   13CHTO    N8 5327   6.785   6.388   2.936 -0.5278 -0.1497 -0.1212
   13CHTO   H75 5328   6.822   6.476   2.885 -0.1487  0.0030  0.4080
   13CHTO   H76 5329   6.714   6.406   3.015  1.2607 -2.0712  2.0012
   13CHTO   C43 5330   6.654   6.392   2.708  0.5116 -0.5242  0.2154
   13CHTO   H85 5331   6.557   6.350   2.685  0.3398  0.0878 -0.2013
   13CHTO   O29 5332   6.749   6.378   2.601  0.8140 -0.2104  0.3734
   13CHTO   C50 5333   6.765   6.247   2.543  1.0152 -0.0859  0.3785
   13CHTO   H92 5334   6.693   6.226   2.463 -1.4129  1.3974  2.0993
   13CHTO   C54 5335   6.900   6.248   2.472 -0.1296  0.4509  0.1689
   13CHTO   O36 5336   6.933   6.121   2.422  0.5660 -0.0753  0.2429
   13CHTO   H72 5337   6.864   6.073   2.380  1.4600 -0.3666 -0.9200
   13CHTO   O27 5338   6.629   6.531   2.738  0.7507  0.7834  0.2987
   13CHTO   C37 5339   6.556   6.650   2.788 -0.7576  0.0949  0.6706
   13CHTO   H79 5340   6.499   6.627   2.879 -0.5657 -0.0258  0.7592
   13CHTO   C38 5341   6.655   6.770   2.813 -0.2871 -0.1583 -0.2261
   13CHTO   H80 5342   6.726   6.775   2.729  0.1451  0.6714  0.1827
   13CHTO   O31 5343   6.751   6.734   2.917 -0.1472  0.2821 -0.2001
   13CHTO   H68 5344   6.811   6.804   2.933  0.2856 -0.1980  0.3102
   13CHTO   C39 5345   6.583   6.897   2.851  0.3122  0.0230 -0.0998
   13CHTO   H81 5346   6.543   6.884   2.952  1.6121 -0.2831  0.3807
   13CHTO    N7 5347   6.674   7.015   2.851 -0.1654  0.0880 -0.5766
   13CHTO   H73 5348   6.611   7.093   2.892  1.3566  2.2233 -2.1294
   13CHTO   H74 5349   6.716   7.041   2.755  2.1800 -3.2783 -0.5169
   13CHTO   C40 5350   6.463   6.926   2.744  0.2310  0.2794 -0.6461
   13CHTO   H82 5351   6.507   6.950   2.647 -1.1718 -0.3522 -1.4502
   13CHTO   O26 5352   6.380   6.807   2.739 -0.6756  0.3210  0.4469
   13CHTO   C41 5353   6.451   6.695   2.678 -0.2516 -0.0980 -1.1397
   13CHTO   H83 5354   6.488   6.715   2.577  0.1176  1.9647 -0.6229
   13CHTO   C52 5355   6.335   6.601   2.645 -0.9196 -0.2530 -0.2933
   13CHTO   O35 5356   6.246   6.668   2.539  0.0030  0.2913  0.6517
   13CHTO   H71 5357   6.272   6.624   2.460  0.7836 -1.2956  1.7769
   13CHTO   O28 5358   6.372   7.025   2.780  0.4560 -0.1244  0.0140
   13CHTO   C42 5359   6.318   7.118   2.683  0.7233 -0.5018  0.0213
   13CHTO   H84 5360   6.349   7.085   2.584  3.3113  2.8372 -0.3605
   13CHTO   C44 5361   6.372   7.263   2.708  0.0550  0.3349 -0.2394
   13CHTO   H86 5362   6.341   7.299   2.806 -4.6128 -0.7389 -1.1833
   13CHTO   O32 5363   6.515   7.255   2.699  0.2623 -0.0537  0.0199
   13CHTO   H69 5364   6.551   7.317   2.759 -2.0952  2.7466 -1.2765
   13CHTO   C48 5365   6.310   7.371   2.611  0.2838 -0.8870 -0.2789
   13CHTO   H90 5366   6.334   7.338   2.510 -1.3052 -0.9660 -0.6459
   13CHTO    N9 5367   6.356   7.513   2.641 -0.0446  0.0485  0.2485
   13CHTO   H77 5368   6.402   7.521   2.738 -1.2462  0.8355  0.7599
   13CHTO   H78 5369   6.433   7.543   2.571 -0.3091 -1.2865 -0.6477
   13CHTO   C51 5370   6.151   7.359   2.619  0.5158  0.0180 -0.7394
   13CHTO   H93 5371   6.116   7.383   2.720 -3.4828  0.5756 -2.1854
   13CHTO   O30 5372   6.119   7.224   2.582 -0.1375  0.0071 -0.0314
   13CHTO   C46 5373   6.160   7.123   2.690 -0.3323 -0.7112  0.6110
   13CHTO   H88 5374   6.137   7.164   2.788  0.5070 -1.8009  1.2828
   13CHTO   C53 5375   6.086   6.988   2.666 -0.7993  0.7550 -0.2972
   13CHTO   O72 5376   6.108   6.937   2.529  0.2590 -0.9645  0.2341
   13CHTO  H199 5377   6.198   6.915   2.516  0.3406 -0.2661 -0.4533
   13CHTO   O22 5378   6.081   7.441   2.528 -0.2155 -0.7102  0.3519
   13CHTO   C31 5379   5.936   7.470   2.517 -0.3239 -0.5142 -0.3400
   13CHTO   H59 5380   5.925   7.566   2.462 -2.4586  0.5692  1.8530
   13CHTO   C29 5381   5.853   7.365   2.441 -0.5608  0.1440  0.4267
   13CHTO   H57 5382   5.864   7.271   2.496 -0.4284 -0.7980 -1.1621
   13CHTO   O21 5383   5.919   7.341   2.318 -0.6884 -0.4217  0.7451
   13CHTO   H37 5384   5.863   7.302   2.253 -0.7365  0.3774  0.2946
   13CHTO   C27 5385   5.697   7.398   2.433 -0.2974  0.5848 -0.3863
   13CHTO   H55 5386   5.680   7.500   2.394  0.2823  0.4499 -0.9720
   13CHTO    N5 5387   5.622   7.296   2.357  0.3381  0.6042 -0.1526
   13CHTO   H43 5388   5.647   7.309   2.253  1.7459  0.5401  0.1696
   13CHTO   H44 5389   5.661   7.199   2.384  2.2809  1.7031  1.1281
   13CHTO   C25 5390   5.650   7.406   2.585 -0.6389  0.4378  0.0728
   13CHTO   H53 5391   5.673   7.310   2.633  0.4432  0.7226  0.1282
   13CHTO   O17 5392   5.720   7.515   2.644 -0.0102 -0.0876 -0.1809
   13CHTO   C32 5393   5.867   7.496   2.655 -0.1897  0.2663 -0.4076
   13CHTO   H60 5394   5.897   7.415   2.721  0.6324  0.0605 -1.0151
   13CHTO   C36 5395   5.904   7.629   2.725  0.6498 -0.7853 -0.5478
   13CHTO   O25 5396   6.035   7.631   2.775  0.3863 -0.2986  0.0542
   13CHTO   H40 5397   6.110   7.620   2.720 -0.1831 -1.2305 -0.5603
   13CHTO   O15 5398   5.503   7.438   2.598 -0.0572  0.0803  0.7128
   13CHTO   C19 5399   5.381   7.505   2.560  0.7594  0.8196  0.5069
   13CHTO   H47 5400   5.327   7.524   2.654  0.6569 -1.9132  1.0314
   13CHTO   C20 5401   5.403   7.648   2.487  0.2020  0.1335 -0.4052
   13CHTO   H48 5402   5.452   7.644   2.388 -0.8719  1.0274 -0.9905
   13CHTO   O19 5403   5.486   7.729   2.572 -0.3630 -0.2005 -0.2420
   13CHTO   H35 5404   5.572   7.692   2.583  0.2915  1.2769 -0.3693
   13CHTO   C21 5405   5.259   7.721   2.462  0.2665 -0.2674 -0.7319
   13CHTO   H49 5406   5.208   7.734   2.558  1.7434 -0.6644  0.1148
   13CHTO    N4 5407   5.277   7.850   2.391  0.4378  1.0252  0.4666
   13CHTO   H41 5408   5.197   7.866   2.321 -1.3765 -0.6445  2.0841
   13CHTO   H42 5409   5.373   7.847   2.341  0.5715 -1.2638  0.8110
   13CHTO   C22 5410   5.171   7.620   2.387  0.7938  0.8640  0.0759
   13CHTO   H50 5411   5.215   7.593   2.291  1.3792 -0.8544  0.8069
   13CHTO   O14 5412   5.164   7.496   2.467 -0.4491 -0.3406  0.8590
   13CHTO   C23 5413   5.288   7.423   2.468  0.2156 -0.3233  0.4022
   13CHTO   H51 5414   5.329   7.420   2.366 -2.1529 -0.8119 -0.5657
   13CHTO   C34 5415   5.254   7.284   2.521  0.5029 -0.1644  0.0321
   13CHTO   O23 5416   5.163   7.273   2.630 -0.0173  0.5695 -0.4082
   13CHTO   H38 5417   5.193   7.217   2.699 -0.4841 -0.1404 -0.7662
   13CHTO   O16 5418   5.040   7.672   2.350  0.0328  0.0560 -0.2517
   13CHTO   C24 5419   4.902   7.589   2.378  0.3170  0.1915 -0.5422
   13CHTO   H52 5420   4.914   7.515   2.457  0.7628 -0.3541 -1.1086
   13CHTO   C26 5421   4.866   7.510   2.252 -0.1431  0.0028  0.0214
   13CHTO   H54 5422   4.856   7.574   2.162 -0.0581  2.6158  1.8387
   13CHTO   O20 5423   4.971   7.417   2.225 -0.3775  0.2390  0.9795
   13CHTO   H36 5424   4.965   7.349   2.289  1.2747  0.3354  1.2558
   13CHTO   C30 5425   4.733   7.429   2.279 -0.6278 -0.6790  0.0495
   13CHTO   H58 5426   4.742   7.367   2.369 -1.7875 -1.1807 -0.1830
   13CHTO    N6 5427   4.697   7.334   2.169 -0.7514 -0.2475 -0.3590
   13CHTO   H45 5428   4.756   7.349   2.080 -1.4622 -1.6226 -1.0715
   13CHTO   H46 5429   4.710   7.231   2.198  0.6606 -0.0962 -0.3849
   13CHTO   C33 5430   4.620   7.530   2.312  0.5183 -1.3412  0.2267
   13CHTO   H61 5431   4.603   7.600   2.229  0.0753 -2.0889 -0.3266
   13CHTO   O18 5432   4.660   7.610   2.424  0.1325  0.3410 -0.0326
   13CHTO   C28 5433   4.786   7.686   2.421 -0.1071  0.4727 -0.4563
   13CHTO   H56 5434   4.784   7.768   2.348  0.5050 -1.2660 -2.4827
   13CHTO   C35 5435   4.811   7.735   2.563  1.4749 -0.2038  0.0344
   13CHTO   O24 5436   4.828   7.633   2.656 -0.1786  0.1454 -0.0133
   13CHTO   H39 5437   4.921   7.624   2.661 -0.3078 -0.6396  1.0592
   13CHTO    O9 5438   4.497   7.467   2.335 -0.1235 -0.0023 -0.2119
   13CHTO   C13 5439   4.485   7.355   2.453 -0.5261 -0.6444  0.5903
   13CHTO   H26 5440   4.587   7.333   2.489 -1.1356 -1.0555  2.1335
   13CHTO   C11 5441   4.410   7.220   2.402 -0.1042  0.1191  0.1359
   13CHTO   H24 5442   4.461   7.176   2.315 -2.3904 -0.1227 -1.1333
   13CHTO    O8 5443   4.286   7.265   2.344 -0.0043 -0.2077  0.0030
   13CHTO    H3 5444   4.238   7.186   2.326  2.9058 -2.3638  1.2890
   13CHTO    C9 5445   4.408   7.116   2.519 -1.1773 -0.3368  0.5114
   13CHTO   H22 5446   4.515   7.095   2.538 -0.9623  1.4185  1.3294
   13CHTO    N2 5447   4.355   6.988   2.480  0.3607 -0.9334 -0.0768
   13CHTO   H10 5448   4.371   6.907   2.550 -0.1550 -0.3790  0.6912
   13CHTO   H11 5449   4.248   7.004   2.487  0.9740  3.5742  0.0413
   13CHTO    C7 5450   4.345   7.177   2.646  0.2103 -0.1080 -0.1284
   13CHTO   H20 5451   4.423   7.171   2.725 -0.0616  0.3692  0.1772
   13CHTO    O4 5452   4.304   7.315   2.638 -0.1147  0.2110  0.8796
   13CHTO   C14 5453   4.410   7.402   2.590  0.4274  0.0317  0.5283
   13CHTO   H27 5454   4.480   7.408   2.676  1.0912 -1.1411  0.0765
   13CHTO   C18 5455   4.355   7.546   2.570  0.4113 -0.1619 -0.8345
   13CHTO   O13 5456   4.315   7.604   2.694  0.0443 -0.1441  0.2843
   13CHTO    H7 5457   4.386   7.608   2.756 -0.0836  2.1151  0.3071
   13CHTO    O2 5458   4.222   7.087   2.714  0.2524 -0.9776  0.3830
   13CHTO    C1 5459   4.203   7.112   2.852 -0.8203 -0.3012 -0.7211
   13CHTO   H14 5460   4.239   7.214   2.878  0.0349 -0.2781 -2.0078
   13CHTO    C2 5461   4.271   7.004   2.945 -0.8715 -0.5362 -1.1081
   13CHTO   H15 5462   4.227   6.910   2.907 -0.9400 -1.0066  0.1220
   13CHTO    O6 5463   4.412   7.009   2.919  0.0354 -0.6384  0.4449
   13CHTO    H1 5464   4.450   6.948   2.979  0.3247 -0.4579  0.4499
   13CHTO    C3 5465   4.234   7.027   3.106  0.2543 -0.4651  0.0654
   13CHTO   H16 5466   4.292   7.119   3.126  0.1853 -0.0562 -1.5560
   13CHTO    N1 5467   4.283   6.923   3.195  0.1735  0.4323  0.3101
   13CHTO    H8 5468   4.270   6.943   3.300  0.1939 -3.9603  1.2213
   13CHTO    H9 5469   4.381   6.885   3.172 -1.0110 -1.0808 -2.5865
   13CHTO    C4 5470   4.086   7.071   3.132  0.4484 -0.4219 -0.0779
   13CHTO   H17 5471   4.020   6.984   3.129  1.8942 -1.6014  0.9740
   13CHTO    O1 5472   4.041   7.163   3.027  0.0787  0.6780  0.7784
   13CHTO    C5 5473   4.056   7.116   2.888  0.4162  0.7094 -0.0083
   13CHTO   H18 5474   4.026   7.011   2.893  0.5968  0.5991 -1.0396
   13CHTO   C16 5475   3.965   7.191   2.785 -0.2767 -0.1395  0.0552
   13CHTO   O11 5476   3.830   7.177   2.834  0.0236  0.1780  0.7341
   13CHTO    H5 5477   3.811   7.201   2.922 -0.7399 -1.6164  1.0715
   13CHTO    O3 5478   4.083   7.162   3.247  0.6628  0.2468 -0.1206
   13CHTO    C6 5479   3.970   7.160   3.333  0.1237  0.0646 -0.2699
   13CHTO   H19 5480   3.894   7.098   3.286 -1.9415 -0.1792  3.2119
   13CHTO    C8 5481   4.003   7.099   3.479  1.1019 -0.4348  0.5002
   13CHTO   H21 5482   4.091   7.147   3.521  1.3554 -0.3779 -0.0806
   13CHTO    O7 5483   4.042   6.965   3.449  0.5352  0.7628  0.0318
   13CHTO    H2 5484   4.124   6.969   3.403  1.0815  0.1616  0.9255
   13CHTO   C12 5485   3.876   7.102   3.571  0.4449 -0.4996  0.3941
   13CHTO   H25 5486   3.801   7.035   3.524 -0.1768  0.5043 -0.0551
   13CHTO    N3 5487   3.902   7.049   3.711 -0.1459  0.0871 -0.1465
   13CHTO   H12 5488   3.984   7.104   3.756  0.6691  0.3960 -1.9587
   13CHTO   H13 5489   3.934   6.946   3.705 -1.0226 -0.3495  2.2357
   13CHTO   C15 5490   3.822   7.247   3.567  0.1886 -0.5377 -0.1021
   13CHTO   H28 5491   3.885   7.319   3.619 -0.1286 -0.4070  0.1054
   13CHTO   O10 5492   3.703   7.258   3.619 -0.3289  0.6575 -0.2776
   13CHTO    H4 5493   3.721   7.274   3.710 -0.8196  1.2856 -0.2898
   13CHTO    O5 5494   3.793   7.287   3.428 -0.1689 -0.5242  0.2665
   13CHTO   C10 5495   3.908   7.304   3.346  0.1904  0.3338 -0.0186
   13CHTO   H23 5496   3.974   7.369   3.403  0.6911 -0.2975  0.1299
   13CHTO   C17 5497   3.861   7.373   3.218 -0.1650 -0.2567  0.3631
   13CHTO   O12 5498   3.806   7.507   3.231  0.3763  0.3964 -0.1722
   13CHTO    H6 5499   3.865   7.565   3.274 -0.6786  0.9935  0.4822
   14CHTO  H203 5500   6.875   5.131   2.246  0.6037 -0.6070 -0.9443
   14CHTO   O82 5501   6.781   5.133   2.248  0.6152 -0.1472 -0.6014
   14CHTO  C123 5502   6.714   5.153   2.121 -0.2371  0.8334  0.1441
   14CHTO  H227 5503   6.786   5.200   2.054 -0.7440  0.5166 -0.6285
   14CHTO   O77 5504   6.693   5.012   2.088 -0.2447  0.2581 -0.3463
   14CHTO  C118 5505   6.622   5.011   1.959 -0.4190 -0.7750  0.1781
   14CHTO  H222 5506   6.683   5.064   1.885 -3.3846  0.8805 -1.1377
   14CHTO  C125 5507   6.614   4.869   1.910 -0.1919 -0.0298 -0.3869
   14CHTO   O84 5508   6.740   4.804   1.893  0.3712  0.1156 -0.2702
   14CHTO  H205 5509   6.735   4.711   1.902  1.5083  0.0901  0.1133
   14CHTO  C114 5510   6.479   5.080   1.971  0.0493  0.4660  0.1174
   14CHTO  H218 5511   6.423   5.021   2.043 -0.3419  1.8704  0.9585
   14CHTO  C116 5512   6.485   5.220   2.020 -0.8770  0.0657 -0.4543
   14CHTO  H220 5513   6.526   5.285   1.939 -2.7351  0.4179 -1.1322
   14CHTO   O79 5514   6.347   5.252   2.044 -0.1815  0.5242 -0.2156
   14CHTO  H201 5515   6.300   5.278   1.967 -0.7569  0.6257  0.1739
   14CHTO  C120 5516   6.572   5.236   2.144  0.7948  0.6976 -1.1047
   14CHTO  H224 5517   6.516   5.187   2.226  1.9126 -1.5923 -1.6480
   14CHTO   N21 5518   6.583   5.375   2.192  0.1055  0.1084 -0.0148
   14CHTO  H211 5519   6.650   5.385   2.277  0.9886  0.8657 -0.7971
   14CHTO  H212 5520   6.607   5.437   2.108  0.1647 -0.4087 -0.3781
   14CHTO   O75 5521   6.424   5.080   1.839  0.3886  0.8398  0.3839
   14CHTO  C112 5522   6.271   5.033   1.847 -0.1889  0.1798 -1.0419
   14CHTO  H216 5523   6.219   5.101   1.917 -0.9818 -0.2944 -1.1550
   14CHTO   O73 5524   6.277   4.894   1.892 -0.1183 -0.0689  0.9204
   14CHTO  C113 5525   6.152   4.849   1.935 -0.7446  0.0535  0.1299
   14CHTO  H217 5526   6.108   4.914   2.014  1.8930  2.4913 -0.3044
   14CHTO  C124 5527   6.170   4.706   1.992 -0.3941  0.0472  0.4668
   14CHTO   O83 5528   6.051   4.668   2.062 -0.1415  0.0447  0.1517
   14CHTO  H204 5529   5.996   4.610   2.014  0.2851 -0.5222  0.3352
   14CHTO  C109 5530   6.053   4.845   1.808 -0.0389 -0.0022 -0.7821
   14CHTO  H213 5531   6.083   4.758   1.748  1.0572 -0.1548 -0.0309
   14CHTO  C110 5532   6.058   4.974   1.726  0.2390 -0.0778 -0.2029
   14CHTO  H214 5533   6.000   5.051   1.777  0.9968 -1.5756  3.0636
   14CHTO   O78 5534   5.981   4.951   1.606 -0.3709  0.3653  0.5211
   14CHTO  H200 5535   6.012   4.887   1.545 -0.7398  1.2163 -0.5766
   14CHTO  C111 5536   6.200   5.028   1.701 -0.0051  0.2126 -0.4802
   14CHTO  H215 5537   6.252   4.952   1.640 -0.6473  0.4309 -1.3157
   14CHTO   N19 5538   6.210   5.161   1.628 -0.2326  0.3664  0.3689
   14CHTO  H207 5539   6.144   5.233   1.675  0.4244  1.5669 -0.5170
   14CHTO  H208 5540   6.162   5.156   1.531 -0.6615  0.1409  0.5908
   14CHTO   O74 5541   5.918   4.820   1.853 -0.3414  0.3756  0.2671
   14CHTO  C115 5542   5.838   4.714   1.730 -0.1764 -0.4120 -0.0489
   14CHTO  H219 5543   5.824   4.763   1.633  1.0498 -0.1525 -0.0997
   14CHTO   O76 5544   5.925   4.567   1.703  0.0884 -0.0822 -0.5530
   14CHTO  C122 5545   5.848   4.482   1.618 -0.5309 -0.0883 -0.3687
   14CHTO  H226 5546   5.905   4.389   1.610  2.1010  1.4176  0.3184
   14CHTO  C126 5547   5.842   4.535   1.474 -0.1582 -0.4882  0.0738
   14CHTO   O85 5548   5.782   4.429   1.396 -0.1677  0.0586  0.0225
   14CHTO  H206 5549   5.812   4.438   1.308 -1.4348 -1.9612 -0.6435
   14CHTO  C121 5550   5.694   4.452   1.670 -0.2880  0.0830  0.3620
   14CHTO  H225 5551   5.645   4.394   1.589 -0.2063 -0.6742  0.8475
   14CHTO   O81 5552   5.692   4.377   1.795  0.1162 -0.6785  0.5878
   14CHTO  H202 5553   5.695   4.284   1.783 -1.0686 -0.4280 -1.8671
   14CHTO  C119 5554   5.618   4.587   1.699 -0.5829 -0.6710 -0.3488
   14CHTO  H223 5555   5.604   4.639   1.605  1.5914  1.2868  0.3601
   14CHTO  C117 5556   5.698   4.685   1.792 -0.2193  0.1926 -0.6737
   14CHTO  H221 5557   5.718   4.645   1.891  0.5876  1.9268 -0.1059
   14CHTO   N20 5558   5.627   4.812   1.819 -0.5235  0.3662  0.0482
   14CHTO  H209 5559   5.598   4.811   1.923 -0.6191 -0.4058  0.0207
   14CHTO  H210 5560   5.534   4.820   1.765 -2.7949 -1.6999  3.5087
   14CHTO   O80 5561   5.467   4.560   1.749 -0.0444  0.6409  0.1517
   14CHTO  C103 5562   5.363   4.496   1.646 -0.3244 -0.2586 -0.4859
   14CHTO  H190 5563   5.398   4.513   1.544  0.2544  4.4677  0.3771
   14CHTO  C101 5564   5.304   4.351   1.671 -0.5185  0.6387 -0.2971
   14CHTO  H188 5565   5.249   4.354   1.765 -1.9944  0.1037 -1.1397
   14CHTO   O68 5566   5.428   4.232   1.682 -0.3157 -0.5529 -0.0874
   14CHTO  H168 5567   5.418   4.167   1.615  0.8287  0.4352 -1.2472
   14CHTO   C99 5568   5.186   4.311   1.576  0.3971 -0.1766 -0.5138
   14CHTO  H186 5569   5.216   4.310   1.470  1.5628 -0.7799 -0.1881
   14CHTO   N17 5570   5.127   4.177   1.595 -0.0091  0.0517  0.1377
   14CHTO  H174 5571   5.102   4.153   1.697  0.3661 -0.7493  0.0455
   14CHTO  H175 5572   5.192   4.105   1.548 -0.0071  0.7644 -0.9608
   14CHTO   C97 5573   5.072   4.418   1.591  0.0582  0.8340  0.7620
   14CHTO  H184 5574   5.020   4.410   1.688 -0.0902  1.4433  0.7378
   14CHTO   O64 5575   5.130   4.549   1.573  0.5785  0.6160  0.2579
   14CHTO  C104 5576   5.235   4.589   1.666  0.7422 -0.2989 -0.1499
   14CHTO  H191 5577   5.214   4.588   1.773  0.1441  0.9379 -0.2492
   14CHTO  C108 5578   5.275   4.733   1.625  0.1570 -0.0239 -0.1615
   14CHTO   O71 5579   5.309   4.805   1.743  0.3220  0.1320 -0.5172
   14CHTO  H171 5580   5.302   4.898   1.734 -1.4366  0.3855  2.7299
   14CHTO   O62 5581   4.960   4.426   1.499  0.1478 -0.0304 -0.2349
   14CHTO   C91 5582   4.830   4.446   1.556  0.2660  0.0867 -0.2561
   14CHTO  H178 5583   4.823   4.368   1.632 -0.3844 -1.1227 -1.5371
   14CHTO   C92 5584   4.720   4.429   1.455  0.1369 -0.5805  0.2960
   14CHTO  H179 5585   4.734   4.339   1.393  0.5192  1.0816 -2.0847
   14CHTO   O66 5586   4.606   4.394   1.527  0.4643 -0.7196  0.0401
   14CHTO  H166 5587   4.585   4.464   1.585 -1.4520  0.5708 -2.1103
   14CHTO   C93 5588   4.696   4.552   1.359 -0.2429 -0.5333 -0.0553
   14CHTO  H180 5589   4.591   4.544   1.330 -0.7198 -0.2538  1.5581
   14CHTO   N16 5590   4.774   4.544   1.236 -0.0178 -0.2877 -0.6826
   14CHTO  H172 5591   4.874   4.585   1.248  0.0866 -0.0923 -2.0841
   14CHTO  H173 5592   4.779   4.442   1.202 -0.7196  0.0406 -1.8166
   14CHTO   C94 5593   4.715   4.683   1.447  0.1060 -0.1357  0.1889
   14CHTO  H181 5594   4.811   4.729   1.426 -0.1287 -0.6773 -2.2207
   14CHTO   O61 5595   4.693   4.662   1.593  0.3106 -0.3193 -0.0780
   14CHTO   C95 5596   4.803   4.580   1.637  0.3382 -0.1825  0.2555
   14CHTO  H182 5597   4.897   4.633   1.620  0.1109 -0.0298 -0.5953
   14CHTO  C106 5598   4.792   4.561   1.795 -0.8877  0.1307  0.3196
   14CHTO   O69 5599   4.772   4.678   1.860 -0.0609  0.2055 -0.1271
   14CHTO  H169 5600   4.683   4.704   1.846 -0.5037 -1.5065 -0.6107
   14CHTO   O63 5601   4.609   4.781   1.400 -0.1441  0.3593  0.0548
   14CHTO   C96 5602   4.602   4.923   1.460  0.8702  0.3578  0.3726
   14CHTO  H183 5603   4.693   4.931   1.521  1.7500  1.1947 -1.0362
   14CHTO   C98 5604   4.475   4.945   1.541  0.7632  0.0153  0.4648
   14CHTO  H185 5605   4.389   4.909   1.483  0.3590  1.0884  0.3713
   14CHTO   O67 5606   4.483   4.864   1.655 -0.5037  0.1315  0.4793
   14CHTO  H167 5607   4.401   4.864   1.701 -1.3030 -0.4374 -0.9079
   14CHTO  C102 5608   4.454   5.101   1.582 -0.5988 -0.4524 -0.6249
   14CHTO  H189 5609   4.526   5.115   1.664 -2.3856  0.6612  0.7863
   14CHTO   N18 5610   4.326   5.140   1.638 -0.0814 -0.4643  0.0920
   14CHTO  H176 5611   4.305   5.075   1.722  1.1535  1.3118  1.8169
   14CHTO  H177 5612   4.248   5.124   1.566 -1.3477 -1.5185  1.6515
   14CHTO  C105 5613   4.492   5.191   1.457  0.3880  0.3611 -0.1175
   14CHTO  H192 5614   4.413   5.174   1.383  0.1166 -0.7895  0.4267
   14CHTO   O65 5615   4.620   5.161   1.408  0.3588 -0.2102 -0.1935
   14CHTO  C100 5616   4.630   5.030   1.347 -0.0929 -0.5861 -0.6855
   14CHTO  H187 5617   4.561   5.014   1.263  1.5109 -1.5061 -1.8614
   14CHTO  C107 5618   4.767   4.998   1.290 -0.3043  0.1815  0.0824
   14CHTO   O70 5619   4.877   5.056   1.363 -1.0316 -0.0903  0.2608
   14CHTO  H170 5620   4.929   4.984   1.395 -1.0360 -0.1863  0.0477
   14CHTO   O57 5621   4.493   5.346   1.520 -0.3911  0.1795 -0.3211
   14CHTO   C85 5622   4.455   5.460   1.443  0.2246  0.2565  0.7873
   14CHTO  H157 5623   4.377   5.423   1.374 -0.3109  0.0540  1.4889
   14CHTO   C83 5624   4.573   5.514   1.357  0.4879 -0.0923  0.1381
   14CHTO  H155 5625   4.608   5.438   1.287  3.5191  1.8648 -0.5847
   14CHTO   O56 5626   4.693   5.528   1.438 -0.3833  0.3316  0.1452
   14CHTO  H135 5627   4.700   5.480   1.518  0.1560 -1.0578 -0.7173
   14CHTO   C81 5628   4.525   5.641   1.279 -0.0344  0.0085 -0.1533
   14CHTO  H153 5629   4.443   5.608   1.215 -1.2284  0.9436  0.8820
   14CHTO   N14 5630   4.619   5.695   1.172  0.2972  0.5746 -0.3498
   14CHTO  H141 5631   4.640   5.618   1.101  0.9883  2.6115 -2.4062
   14CHTO  H142 5632   4.574   5.781   1.127 -0.7464 -1.1066 -2.5894
   14CHTO   C79 5633   4.477   5.756   1.378  0.6406  0.5157 -0.8117
   14CHTO  H151 5634   4.451   5.843   1.319  0.1298  0.6610 -0.3722
   14CHTO   O52 5635   4.370   5.702   1.458 -0.5854  0.5678  0.4676
   14CHTO   C86 5636   4.404   5.582   1.533  0.0032 -0.2540  0.6500
   14CHTO  H158 5637   4.487   5.614   1.600  0.0615  0.6405  0.1518
   14CHTO   C90 5638   4.294   5.550   1.626 -0.2469 -0.2515 -0.2834
   14CHTO   O60 5639   4.245   5.659   1.704  0.1139  0.4801  0.5377
   14CHTO  H138 5640   4.189   5.624   1.771  1.2543 -0.0981  1.2059
   14CHTO   O50 5641   4.590   5.808   1.459  0.4957 -0.5902 -0.9489
   14CHTO   C73 5642   4.613   5.915   1.549  0.4940 -0.3004 -0.6239
   14CHTO  H145 5643   4.552   5.901   1.640  1.7409  0.9539  0.4229
   14CHTO   C74 5644   4.562   6.042   1.472 -0.0036 -0.9608 -0.4065
   14CHTO  H146 5645   4.456   6.031   1.445 -0.1605 -1.5132  0.3842
   14CHTO   O54 5646   4.560   6.153   1.565 -0.0887  0.0052  0.3878
   14CHTO  H133 5647   4.498   6.139   1.634  0.7928  1.3464  1.4905
   14CHTO   C75 5648   4.650   6.066   1.350 -0.1910  0.6928  0.5871
   14CHTO  H147 5649   4.628   5.994   1.269  2.7181  0.6901 -0.2802
   14CHTO   N13 5650   4.633   6.189   1.275  0.0433 -0.1854  0.1023
   14CHTO  H139 5651   4.658   6.272   1.339  1.1918 -0.2525 -0.2483
   14CHTO  H140 5652   4.704   6.192   1.193 -0.0504 -0.4234  0.0128
   14CHTO   C76 5653   4.813   6.052   1.384  0.8019  0.6760  0.1447
   14CHTO  H148 5654   4.838   6.144   1.437  0.3252  0.6260  0.4541
   14CHTO   O49 5655   4.844   5.942   1.474 -0.1886 -0.3757  0.2565
   14CHTO   C77 5656   4.765   5.926   1.592 -0.4466 -0.1327  0.7311
   14CHTO  H149 5657   4.778   6.020   1.646  1.5002 -0.9821  1.7912
   14CHTO   C88 5658   4.814   5.815   1.683  0.0019 -0.9159 -0.3551
   14CHTO   O58 5659   4.954   5.852   1.725  0.2827  0.0274  0.5301
   14CHTO  H136 5660   4.990   5.778   1.770  0.3336  0.8638  1.8730
   14CHTO   O51 5661   4.890   6.025   1.263 -0.1899  0.3177  0.4522
   14CHTO   C78 5662   5.050   6.066   1.265  0.2179 -0.5956  0.3104
   14CHTO  H150 5663   5.074   6.100   1.369  0.1227 -1.7683  0.7202
   14CHTO   C80 5664   5.072   6.183   1.165  0.2435 -0.4880 -0.0668
   14CHTO  H152 5665   5.049   6.148   1.062  2.2375  0.2423 -0.7899
   14CHTO   O55 5666   4.986   6.298   1.196 -0.6370  0.5935 -0.2979
   14CHTO  H134 5667   4.984   6.304   1.290  1.8298  1.1223 -0.2538
   14CHTO   C84 5668   5.227   6.221   1.163 -0.0555  0.0917 -0.6307
   14CHTO  H156 5669   5.250   6.259   1.262 -1.8406 -0.9720  0.2276
   14CHTO   N15 5670   5.261   6.327   1.064 -0.1432 -0.4508 -0.4595
   14CHTO  H143 5671   5.312   6.290   0.978 -2.3699 -2.0825 -1.1115
   14CHTO  H144 5672   5.170   6.376   1.033 -1.1912  0.2577  3.3908
   14CHTO   C87 5673   5.313   6.096   1.140  0.6633  0.5517 -0.8807
   14CHTO  H159 5674   5.305   6.062   1.037 -1.8544 -0.3394 -0.4323
   14CHTO   O53 5675   5.275   5.985   1.241  0.2610 -0.0195 -0.2042
   14CHTO   C82 5676   5.140   5.947   1.231 -0.8431 -0.3031  0.6531
   14CHTO  H154 5677   5.117   5.919   1.128 -1.1374  0.3748  0.5351
   14CHTO   C89 5678   5.120   5.815   1.315  0.1742  0.0937  0.5774
   14CHTO   O59 5679   5.171   5.830   1.445  0.0082  0.0668 -0.4112
   14CHTO  H137 5680   5.122   5.893   1.493 -0.4104 -2.2435  2.3214
   14CHTO   O45 5681   5.449   6.139   1.174 -0.0445 -0.3470  0.0945
   14CHTO   C67 5682   5.553   6.043   1.147  0.0791 -0.1834  0.5040
   14CHTO  H124 5683   5.518   5.943   1.174  0.0285 -1.3040 -3.3515
   14CHTO   C65 5684   5.599   6.033   1.001 -0.3722 -0.5276 -0.2529
   14CHTO  H122 5685   5.509   6.035   0.939 -0.7052  0.6661  0.2369
   14CHTO   O44 5686   5.666   5.904   0.975  0.2237  0.1794  0.0016
   14CHTO  H102 5687   5.601   5.837   0.963  1.1817 -0.5598 -1.2035
   14CHTO   C63 5688   5.675   6.160   0.962 -0.2452 -0.4406 -0.0708
   14CHTO  H120 5689   5.612   6.248   0.979  2.0918  1.3840 -0.4994
   14CHTO   N11 5690   5.705   6.174   0.810  0.3324 -0.3039  0.3822
   14CHTO  H108 5691   5.778   6.098   0.790  0.3931 -0.3831  0.8729
   14CHTO  H109 5692   5.717   6.276   0.784  0.1525  0.5467  3.3822
   14CHTO   C61 5693   5.804   6.173   1.051 -0.2876 -0.1417  0.4599
   14CHTO  H118 5694   5.853   6.267   1.021 -0.7679  0.0415  0.2487
   14CHTO   O40 5695   5.760   6.190   1.194 -0.3189 -0.1785 -0.0843
   14CHTO   C68 5696   5.670   6.084   1.246 -1.3393 -0.8368  0.2111
   14CHTO  H125 5697   5.616   6.120   1.336 -3.6140  2.4906 -2.3509
   14CHTO   C72 5698   5.756   5.960   1.285 -0.1394 -0.3903  0.4779
   14CHTO   O48 5699   5.871   5.987   1.360 -0.0660 -0.5101  0.1082
   14CHTO  H105 5700   5.936   6.029   1.307  0.6485 -0.9379  0.6401
   14CHTO   O38 5701   5.892   6.061   1.038 -0.2471  0.1422 -0.5319
   14CHTO   C55 5702   6.024   6.077   0.976  0.4205 -0.3008 -0.5294
   14CHTO  H112 5703   6.033   6.172   0.923  2.0723  1.5667  2.9078
   14CHTO   C56 5704   6.051   5.951   0.888  0.4128  0.5546  0.3922
   14CHTO  H113 5705   6.030   5.860   0.945 -0.5540  1.0998  0.9271
   14CHTO   O42 5706   5.963   5.949   0.775  0.1736  0.1412  0.0071
   14CHTO  H100 5707   6.003   5.989   0.699  1.7379 -0.8086  0.2960
   14CHTO   C57 5708   6.195   5.935   0.841  0.3698  0.0029 -0.6124
   14CHTO  H114 5709   6.213   6.015   0.769  1.5345  1.4616  1.2438
   14CHTO   N10 5710   6.227   5.804   0.769  0.1232  0.0770  0.0642
   14CHTO  H106 5711   6.130   5.769   0.736 -0.1856 -0.1054  1.1351
   14CHTO  H107 5712   6.277   5.734   0.834  1.7649  4.0236  3.2731
   14CHTO   C58 5713   6.300   5.952   0.959  0.4795  0.3992  0.8681
   14CHTO  H115 5714   6.302   5.860   1.021 -1.0794 -0.2594 -0.0377
   14CHTO   O37 5715   6.267   6.071   1.037  0.0065  0.3323  0.0646
   14CHTO   C59 5716   6.132   6.066   1.090  0.6543  0.5619  0.8764
   14CHTO  H116 5717   6.118   5.968   1.136  2.1115  0.1616  0.4894
   14CHTO   C70 5718   6.110   6.172   1.193 -0.0236  0.1952  0.0130
   14CHTO   O46 5719   6.206   6.161   1.305  0.3317 -0.3637  0.0983
   14CHTO  H103 5720   6.294   6.185   1.283  0.1931  1.3895  1.2946
   14CHTO   O39 5721   6.454   5.980   0.877  0.5681 -0.0039 -0.1603
   14CHTO   C60 5722   6.560   5.981   0.970  0.6872  0.0908  0.9299
   14CHTO  H117 5723   6.529   5.993   1.074 -2.1441 -0.5638  0.2253
   14CHTO   C62 5724   6.623   5.840   0.976  0.3541  0.2122 -0.4023
   14CHTO  H119 5725   6.546   5.771   1.016  0.8618  0.6450  1.3336
   14CHTO   O43 5726   6.660   5.794   0.845  0.5325 -0.1156 -0.5015
   14CHTO  H101 5727   6.579   5.781   0.799 -0.2041  0.4785  0.6033
   14CHTO   C66 5728   6.752   5.843   1.084  0.5114 -0.2489 -0.0719
   14CHTO  H123 5729   6.718   5.875   1.182 -3.4422 -2.0931 -0.7388
   14CHTO   N12 5730   6.803   5.706   1.104 -0.3529  0.5071  0.3829
   14CHTO  H110 5731   6.902   5.696   1.061 -0.8668  2.6698 -1.4028
   14CHTO  H111 5732   6.787   5.667   1.203 -1.5215 -0.2024 -0.0650
   14CHTO   C69 5733   6.864   5.936   1.025  0.3758  0.1290 -0.7098
   14CHTO  H126 5734   6.896   5.911   0.922  2.0942  1.4831 -0.5488
   14CHTO   O41 5735   6.786   6.076   1.034  0.0332 -0.5600  0.4423
   14CHTO   C64 5736   6.662   6.084   0.932  0.2428 -0.2507 -0.3884
   14CHTO  H121 5737   6.693   6.064   0.827 -0.9964  0.6717 -0.9489
   14CHTO   C71 5738   6.581   6.217   0.943  0.2434  0.0160 -0.3503
   14CHTO   O47 5739   6.670   6.326   0.965 -0.2899 -0.1824 -0.5847
   14CHTO  H104 5740   6.693   6.363   0.882  2.5933  0.5011  0.4644
   14CHTO   O34 5741   7.006   5.945   1.122  0.6132  0.7019  0.1180
   14CHTO   C49 5742   7.136   6.002   1.068  0.2798 -0.1697  0.1174
   14CHTO   H91 5743   7.170   5.933   0.991 -1.4311  1.0055 -1.7609
   14CHTO   C47 5744   7.236   6.029   1.180  0.2801 -0.0262 -0.8524
   14CHTO   H89 5745   7.321   6.078   1.128  0.3060  0.1393 -0.6567
   14CHTO   O33 5746   7.287   5.905   1.230 -0.0990 -0.1921 -0.0793
   14CHTO   H70 5747   7.364   5.917   1.283 -0.6954  0.5865  0.6368
   14CHTO   C45 5748   7.169   6.118   1.294 -0.3566  0.2107 -0.0521
   14CHTO   H87 5749   7.118   6.047   1.361 -1.5366  0.4801 -0.6478
   14CHTO    N8 5750   7.277   6.186   1.372  0.2467 -0.1208  0.2210
   14CHTO   H75 5751   7.334   6.259   1.316 -0.9231  0.0232 -0.8041
   14CHTO   H76 5752   7.344   6.110   1.411  0.3390  0.0663  0.4261
   14CHTO   C43 5753   7.066   6.222   1.244  0.2200 -0.3560 -0.2500
   14CHTO   H85 5754   6.972   6.168   1.251 -0.7037  0.9952 -1.8474
   14CHTO   O29 5755   7.095   6.257   1.105 -0.2385 -0.1526  1.0751
   14CHTO   C50 5756   7.103   6.142   1.014  0.0874  0.4054 -0.2304
   14CHTO   H92 5757   7.011   6.142   0.953 -0.1202  0.6037  0.0837
   14CHTO   C54 5758   7.206   6.197   0.908  0.3432 -0.1024 -0.1793
   14CHTO   O36 5759   7.223   6.091   0.813 -0.1355  0.2180 -0.1635
   14CHTO   H72 5760   7.273   6.021   0.849 -0.6061  0.3300  0.7246
   14CHTO   O27 5761   7.042   6.340   1.328  0.1932  0.6438 -0.3323
   14CHTO   C37 5762   6.945   6.436   1.372 -0.3464 -0.8751 -0.6366
   14CHTO   H79 5763   6.998   6.528   1.401 -0.7426 -0.6025 -0.7616
   14CHTO   C38 5764   6.846   6.464   1.263 -0.0636 -0.4069  0.6370
   14CHTO   H80 5765   6.816   6.370   1.215  0.8791  0.6718 -2.2006
   14CHTO   O31 5766   6.921   6.541   1.169  0.2873 -0.0398  0.3256
   14CHTO   H68 5767   7.011   6.518   1.164  0.4483  0.5292  0.5471
   14CHTO   C39 5768   6.720   6.549   1.317 -0.1647 -0.0299  0.5749
   14CHTO   H81 5769   6.756   6.649   1.342 -3.1722  0.6549  2.3764
   14CHTO    N7 5770   6.614   6.574   1.215 -0.2483 -0.0616 -0.2260
   14CHTO   H73 5771   6.527   6.603   1.271  0.7431 -0.3409  1.5209
   14CHTO   H74 5772   6.585   6.490   1.154 -1.6658  0.8244 -0.7951
   14CHTO   C40 5773   6.647   6.482   1.435  0.0342  0.0128 -0.2381
   14CHTO   H82 5774   6.581   6.397   1.415 -1.6169  1.3770 -0.7238
   14CHTO   O26 5775   6.750   6.451   1.528 -0.3334 -0.8526 -0.7220
   14CHTO   C41 5776   6.859   6.373   1.487  0.1580  0.1702  0.3576
   14CHTO   H83 5777   6.817   6.281   1.445  0.8403  0.1229 -0.2292
   14CHTO   C52 5778   6.937   6.336   1.613  0.1281 -0.4710 -0.5713
   14CHTO   O35 5779   7.065   6.273   1.596 -0.0102  0.5882 -0.2486
   14CHTO   H71 5780   7.125   6.346   1.594 -0.8897  1.2973 -1.3524
   14CHTO   O28 5781   6.565   6.566   1.519  0.1184  0.3059 -0.1810
   14CHTO   C42 5782   6.448   6.520   1.594 -0.0732  0.4367 -0.4283
   14CHTO   H84 5783   6.424   6.594   1.669 -0.7362  0.1883 -0.3904
   14CHTO   C44 5784   6.473   6.385   1.671  0.2153 -0.0473  0.1735
   14CHTO   H86 5785   6.508   6.308   1.603 -0.0920 -0.0082 -0.0338
   14CHTO   O32 5786   6.586   6.404   1.748  0.1130  0.1404  0.0340
   14CHTO   H69 5787   6.595   6.337   1.813  2.2256 -0.5902 -0.9780
   14CHTO   C48 5788   6.343   6.337   1.747  0.4417  0.4184  0.2565
   14CHTO   H90 5789   6.335   6.411   1.827  2.0240  0.5608  0.2987
   14CHTO    N9 5790   6.361   6.204   1.819 -0.2154 -0.4611 -0.6988
   14CHTO   H77 5791   6.293   6.186   1.901 -1.3246 -0.4185 -1.6053
   14CHTO   H78 5792   6.464   6.195   1.852 -0.4885  0.4204  0.4139
   14CHTO   C51 5793   6.214   6.328   1.655 -0.4871 -1.0273 -0.1213
   14CHTO   H93 5794   6.232   6.251   1.579  0.2296 -0.5040 -0.4927
   14CHTO   O30 5795   6.194   6.457   1.601 -0.2584 -0.3103  0.5748
   14CHTO   C46 5796   6.330   6.503   1.504 -0.5471 -0.0134 -0.0319
   14CHTO   H88 5797   6.353   6.425   1.432  0.2547  1.5890 -1.5802
   14CHTO   C53 5798   6.285   6.629   1.428  0.0736 -0.1999 -0.4121
   14CHTO   O72 5799   6.186   6.601   1.320  0.1164  0.3303 -0.4339
   14CHTO  H199 5800   6.155   6.684   1.290  2.2020  1.0678 -0.6040
   14CHTO   O22 5801   6.092   6.302   1.727 -0.1126  0.1649  0.5104
   14CHTO   C31 5802   5.976   6.231   1.676 -0.1455  0.4180 -0.7795
   14CHTO   H59 5803   6.012   6.157   1.601 -0.8960  0.0879 -0.8203
   14CHTO   C29 5804   5.903   6.150   1.788  0.2756 -0.1213  0.5527
   14CHTO   H57 5805   5.866   6.228   1.855  0.7152  0.8093 -0.2764
   14CHTO   O21 5806   5.994   6.071   1.865  0.0558 -0.4685 -0.2633
   14CHTO   H37 5807   6.011   5.994   1.815  0.4640  0.1173 -1.0367
   14CHTO   C27 5808   5.776   6.077   1.731 -0.0520  0.6701  0.0295
   14CHTO   H55 5809   5.806   6.007   1.652 -2.0276  1.8812 -1.8396
   14CHTO    N5 5810   5.702   6.000   1.836 -0.4820  0.3210  0.4070
   14CHTO   H43 5811   5.620   5.948   1.790  0.7013 -0.8200 -0.4387
   14CHTO   H44 5812   5.641   6.064   1.898  0.2005 -0.3762  1.8091
   14CHTO   C25 5813   5.679   6.182   1.665  1.1540  0.0242 -0.3170
   14CHTO   H53 5814   5.663   6.269   1.731  1.7436 -0.2509  0.1959
   14CHTO   O17 5815   5.760   6.247   1.561 -0.3890  0.2059 -0.1458
   14CHTO   C32 5816   5.869   6.324   1.603 -0.2117  0.9265 -0.0420
   14CHTO   H60 5817   5.834   6.395   1.677 -1.3227 -0.5535  0.8753
   14CHTO   C36 5818   5.934   6.393   1.483  0.1350 -0.0076  0.5912
   14CHTO   O25 5819   5.850   6.488   1.425 -0.0504 -0.4177  0.0225
   14CHTO   H40 5820   5.899   6.549   1.373 -0.8259 -0.5564 -0.8932
   14CHTO   O15 5821   5.540   6.130   1.606 -0.0645 -0.0468  0.2663
   14CHTO   C19 5822   5.402   6.154   1.578  0.2219 -0.2650 -0.8246
   14CHTO   H47 5823   5.388   6.091   1.489  0.0086  0.0798 -1.0354
   14CHTO   C20 5824   5.297   6.120   1.688 -0.1949  0.6062 -0.1918
   14CHTO   H48 5825   5.324   6.161   1.787  0.7618 -1.0839  0.2701
   14CHTO   O19 5826   5.295   5.978   1.711  0.3495  0.1267  0.1742
   14CHTO   H35 5827   5.384   5.950   1.711  0.4130  0.3223  0.0434
   14CHTO   C21 5828   5.150   6.163   1.654 -0.3443 -0.5458 -0.1001
   14CHTO   H49 5829   5.110   6.084   1.590 -0.5552 -1.2051  0.8353
   14CHTO    N4 5830   5.059   6.151   1.769  0.3066  0.0831 -0.1644
   14CHTO   H41 5831   5.035   6.244   1.817  0.6241 -0.6034  1.3754
   14CHTO   H42 5832   4.964   6.102   1.751 -0.0213 -1.5113  5.0244
   14CHTO   C22 5833   5.145   6.304   1.591 -0.1022 -0.5460 -0.3306
   14CHTO   H50 5834   5.170   6.376   1.669  2.5925 -2.0924  0.2992
   14CHTO   O14 5835   5.247   6.312   1.490  0.2527  0.3374 -0.2951
   14CHTO   C23 5836   5.381   6.303   1.537  0.7415 -0.4325  0.0655
   14CHTO   H51 5837   5.400   6.373   1.620 -1.8184  3.5425 -2.4972
   14CHTO   C34 5838   5.479   6.354   1.429  0.1492  0.0057  0.6469
   14CHTO   O23 5839   5.461   6.493   1.380  0.4296 -0.2323 -0.2105
   14CHTO   H38 5840   5.402   6.513   1.309 -0.1157 -0.7520  0.0892
   14CHTO   O16 5841   5.027   6.334   1.521  0.1510  0.0398 -0.0961
   14CHTO   C24 5842   4.977   6.499   1.497  0.5718 -0.0632 -0.3560
   14CHTO   H52 5843   4.900   6.508   1.420  0.5803  0.7092 -0.2742
   14CHTO   C26 5844   5.098   6.586   1.449  0.4440  0.4990  0.3604
   14CHTO   H54 5845   5.178   6.581   1.526 -0.1136  1.5224  1.0248
   14CHTO   O20 5846   5.138   6.544   1.320 -0.0770 -0.1602 -0.0315
   14CHTO   H36 5847   5.222   6.578   1.295  0.7484 -1.9517  0.2126
   14CHTO   C30 5848   5.059   6.735   1.435 -0.1102 -0.0315 -0.1110
   14CHTO   H58 5849   4.988   6.745   1.352  0.6410  1.1244 -0.6316
   14CHTO    N6 5850   5.173   6.830   1.402  0.1691  0.2585  0.0924
   14CHTO   H45 5851   5.183   6.919   1.463  0.1791  0.7971 -0.6966
   14CHTO   H46 5852   5.266   6.777   1.399 -0.9235 -1.6712 -0.6043
   14CHTO   C33 5853   4.975   6.786   1.561  0.0333 -0.5235 -0.1112
   14CHTO   H61 5854   5.042   6.808   1.645  0.5643 -0.1152 -0.6367
   14CHTO   O18 5855   4.875   6.691   1.605 -0.0385  0.9594  0.0142
   14CHTO   C28 5856   4.924   6.556   1.632  0.4953  0.4809  0.4085
   14CHTO   H56 5857   5.004   6.561   1.705  2.2102 -2.1417 -1.1923
   14CHTO   C35 5858   4.804   6.475   1.683 -0.2466  0.3777  0.5603
   14CHTO   O24 5859   4.756   6.537   1.801  0.0863 -0.8023  0.1818
   14CHTO   H39 5860   4.792   6.504   1.881  1.4922 -1.0166 -0.5050
   14CHTO    O9 5861   4.916   6.912   1.534  0.0303  0.5399  0.2741
   14CHTO   C13 5862   4.877   6.992   1.684 -0.2596  0.1305 -0.1487
   14CHTO   H26 5863   4.855   6.915   1.761 -1.6567  0.0411 -0.6241
   14CHTO   C11 5864   4.753   7.088   1.661  0.2235 -0.4280 -0.9360
   14CHTO   H24 5865   4.662   7.035   1.631  0.2383  0.2483 -2.2115
   14CHTO    O8 5866   4.785   7.181   1.554  0.1643  0.3378  0.8094
   14CHTO    H3 5867   4.874   7.173   1.528  0.0489 -0.8083  0.7088
   14CHTO    C9 5868   4.729   7.157   1.800 -0.1509  0.3199  0.1339
   14CHTO   H22 5869   4.721   7.079   1.877  0.9120 -0.5850 -0.6499
   14CHTO    N2 5870   4.596   7.220   1.823 -0.0474  0.3035  0.3503
   14CHTO   H10 5871   4.601   7.326   1.843 -2.5703  0.3336  0.9994
   14CHTO   H11 5872   4.557   7.184   1.917  1.3593  0.1451  0.8873
   14CHTO    C7 5873   4.847   7.259   1.820 -0.9417 -0.7141 -0.5665
   14CHTO   H20 5874   4.835   7.305   1.920  1.4859 -0.8923 -0.1673
   14CHTO    O4 5875   4.980   7.194   1.826 -0.8271  0.1678 -0.2713
   14CHTO   C14 5876   5.002   7.080   1.738  0.4435  0.0296 -0.7438
   14CHTO   H27 5877   5.069   7.007   1.789 -0.3187 -1.3917 -1.7118
   14CHTO   C18 5878   5.088   7.130   1.624 -0.2113  0.6129 -0.2601
   14CHTO   O13 5879   5.213   7.177   1.670 -0.6559  0.0228  0.4540
   14CHTO    H7 5880   5.204   7.225   1.750 -1.4893 -1.1692  1.0940
   14CHTO    O2 5881   4.847   7.392   1.706 -0.0707  0.4373  0.3867
   14CHTO    C1 5882   4.904   7.514   1.753 -0.2639  0.9339  0.1161
   14CHTO   H14 5883   4.920   7.583   1.668 -1.2791  0.9915 -0.0333
   14CHTO    C2 5884   5.039   7.492   1.822 -0.0926  0.2938  0.3105
   14CHTO   H15 5885   5.029   7.413   1.899  0.9125 -0.8433 -0.7093
   14CHTO    O6 5886   5.120   7.434   1.715  0.2403  0.2521  0.0763
   14CHTO    H1 5887   5.191   7.486   1.681  0.6166 -0.0902  0.3359
   14CHTO    C3 5888   5.098   7.620   1.882 -0.1517  0.0252 -0.3919
   14CHTO   H16 5889   5.138   7.662   1.789 -1.0819  2.4555  0.2586
   14CHTO    N1 5890   5.208   7.593   1.987 -0.4131  0.0249 -0.0515
   14CHTO    H8 5891   5.297   7.641   1.948 -0.9516 -0.0334 -1.3690
   14CHTO    H9 5892   5.184   7.631   2.086  0.2262  0.2562  0.0219
   14CHTO    C4 5893   4.983   7.724   1.934 -0.1888 -0.2619 -0.4171
   14CHTO   H17 5894   4.960   7.701   2.038  1.2903 -0.2977 -0.0870
   14CHTO    O1 5895   4.858   7.720   1.864 -0.4829 -0.4615  0.7136
   14CHTO    C5 5896   4.802   7.587   1.854  0.0141  0.3223  0.2602
   14CHTO   H18 5897   4.793   7.535   1.949 -1.6594 -2.8705 -1.5410
   14CHTO   C16 5898   4.660   7.595   1.799 -0.2620  0.1405 -0.0853
   14CHTO   O11 5899   4.579   7.657   1.896  0.1461  0.1690 -0.1184
   14CHTO    H5 5900   4.502   7.691   1.854  1.1869 -0.9661 -3.0755
   14CHTO    O3 5901   5.037   7.855   1.916  0.7419 -0.2281 -0.4382
   14CHTO    C6 5902   4.960   7.967   1.974  0.5555  0.1041 -0.0062
   14CHTO   H19 5903   4.858   7.939   1.998 -0.3346  1.1518 -2.4822
   14CHTO    C8 5904   5.027   8.014   2.106 -0.6273 -0.5791  0.6031
   14CHTO   H21 5905   5.132   8.032   2.085 -1.8346  4.5709 -2.0572
   14CHTO    O7 5906   4.985   7.922   2.215  0.1190  0.0075 -0.0502
   14CHTO    H2 5907   5.024   7.837   2.218 -0.6617 -0.3486  0.0242
   14CHTO   C12 5908   4.980   8.162   2.154  0.5376  0.4316  0.3042
   14CHTO   H25 5909   4.873   8.158   2.186  0.3765 -3.2136 -0.4435
   14CHTO    N3 5910   5.052   8.216   2.276  0.4797  0.2107  0.9287
   14CHTO   H12 5911   5.120   8.145   2.320  2.7924  0.4964 -2.0419
   14CHTO   H13 5912   4.974   8.247   2.344  0.4863 -0.7061  1.3593
   14CHTO   C15 5913   4.991   8.255   2.025  0.4831 -0.0200  0.1073
   14CHTO   H28 5914   5.093   8.248   1.987  0.5528 -0.1588  0.3196
   14CHTO   O10 5915   4.941   8.398   2.053  0.1619  0.1379 -0.1951
   14CHTO    H4 5916   4.953   8.455   1.980 -1.0260 -2.9729 -2.9634
   14CHTO    O5 5917   4.901   8.208   1.927  0.2898 -0.2280 -0.1271
   14CHTO   C10 5918   4.948   8.082   1.868  0.1611 -0.5479 -0.2935
   14CHTO   H23 5919   5.050   8.104   1.836 -0.0396 -0.1884 -0.6995
   14CHTO   C17 5920   4.860   8.050   1.746 -0.3042 -0.3836 -0.1348
   14CHTO   O12 5921   4.847   8.157   1.654 -0.4818 -0.3393  0.0650
   14CHTO    H6 5922   4.789   8.123   1.588 -0.8962 -1.9766  1.2282
   15CHTO  H203 5923   7.046   5.239   1.809  0.2719 -0.1830  0.4229
   15CHTO   O82 5924   7.059   5.147   1.824 -0.0337 -0.2861  0.0714
   15CHTO  C123 5925   7.005   5.071   1.716  0.0081  0.1766  1.1387
   15CHTO  H227 5926   6.988   4.966   1.743  0.7134 -0.1141  0.4621
   15CHTO   O77 5927   6.880   5.138   1.690 -0.1934  1.1191  0.4226
   15CHTO  C118 5928   6.801   5.081   1.581 -0.0077 -0.1474 -0.7349
   15CHTO  H222 5929   6.763   4.983   1.613  0.0622  0.2561  0.6382
   15CHTO  C125 5930   6.682   5.179   1.561  0.4437  0.4818 -0.3740
   15CHTO   O84 5931   6.623   5.216   1.680 -0.3150  0.4014 -0.0912
   15CHTO  H205 5932   6.572   5.293   1.671 -0.3776  0.5991  1.7951
   15CHTO  C114 5933   6.880   5.077   1.447 -0.4702 -0.4203 -0.4056
   15CHTO  H218 5934   6.905   5.180   1.420  0.8892 -0.1250  1.7932
   15CHTO  C116 5935   7.027   5.013   1.474 -0.3367  0.5192 -0.4747
   15CHTO  H220 5936   7.010   4.907   1.505 -0.9729  0.8614  0.3825
   15CHTO   O79 5937   7.091   5.022   1.346 -0.4741 -0.0508  0.2139
   15CHTO  H201 5938   7.163   4.962   1.348 -0.9730 -0.6275  1.7787
   15CHTO  C120 5939   7.099   5.085   1.593  0.0093 -0.4580  0.8573
   15CHTO  H224 5940   7.112   5.191   1.560 -0.1794 -1.4204 -2.4760
   15CHTO   N21 5941   7.238   5.029   1.616  0.2271  0.0372  0.4864
   15CHTO  H211 5942   7.275   4.981   1.527  1.5675 -0.3615  1.2486
   15CHTO  H212 5943   7.231   4.949   1.687  2.1882 -0.5297  0.0513
   15CHTO   O75 5944   6.793   5.006   1.350 -0.2254 -0.1314  0.6242
   15CHTO  C112 5945   6.777   4.844   1.365 -0.8025  0.5117  0.5539
   15CHTO  H216 5946   6.766   4.823   1.473  0.1907  1.3669  0.8314
   15CHTO   O73 5947   6.898   4.781   1.310 -0.0195  0.4190 -0.0617
   15CHTO  C113 5948   6.892   4.639   1.317 -0.1754 -0.3041 -0.3207
   15CHTO  H217 5949   6.898   4.604   1.423  4.1197  0.8377 -0.0757
   15CHTO  C124 5950   7.025   4.574   1.268  0.4088 -0.1300  0.5193
   15CHTO   O83 5951   7.136   4.628   1.333 -0.1149  0.3969  0.0411
   15CHTO  H204 5952   7.134   4.599   1.423 -0.5567  1.3286  0.3422
   15CHTO  C109 5953   6.769   4.583   1.238  0.3107 -1.1889 -0.2371
   15CHTO  H213 5954   6.787   4.611   1.133  2.7921 -0.2820  0.3833
   15CHTO  C110 5955   6.635   4.647   1.297  0.3638 -0.0140 -0.2507
   15CHTO  H214 5956   6.627   4.622   1.403 -0.8204  0.5108 -0.2048
   15CHTO   O78 5957   6.517   4.605   1.225  0.2231  0.1542 -0.1314
   15CHTO  H200 5958   6.487   4.529   1.271  0.8732 -0.0136  0.0118
   15CHTO  C111 5959   6.649   4.799   1.290 -0.4272 -0.4223 -0.1898
   15CHTO  H215 5960   6.653   4.834   1.186  0.3751  1.3617  0.4119
   15CHTO   N19 5961   6.533   4.872   1.351  0.5695 -0.5264  0.2573
   15CHTO  H207 5962   6.470   4.802   1.404  0.5004 -1.1639 -0.6426
   15CHTO  H208 5963   6.483   4.942   1.286 -0.0240 -1.1246  0.0563
   15CHTO   O74 5964   6.766   4.438   1.247 -0.2565  0.2871 -0.2600
   15CHTO  C115 5965   6.679   4.382   1.115 -0.7247 -0.3221 -0.1943
   15CHTO  H219 5966   6.596   4.446   1.086 -2.2418 -1.5550  1.2859
   15CHTO   O76 5967   6.778   4.373   0.979 -0.4451 -0.2096 -0.0462
   15CHTO  C122 5968   6.884   4.273   1.004  0.7863 -0.7355  0.2349
   15CHTO  H226 5969   6.944   4.309   1.087  0.4124  0.1755  0.1264
   15CHTO  C126 5970   6.974   4.282   0.878  0.0293  0.0890  0.4994
   15CHTO   O85 5971   7.018   4.413   0.839 -0.3903  0.3953  0.0441
   15CHTO  H206 5972   7.081   4.414   0.769 -0.0625 -0.8061  0.3091
   15CHTO  C121 5973   6.832   4.120   1.036 -0.0972  0.4338  0.0997
   15CHTO  H225 5974   6.850   4.056   0.947  1.8080  0.5592  0.3763
   15CHTO   O81 5975   6.889   4.077   1.157 -0.3251 -0.2131 -0.5516
   15CHTO  H202 5976   6.911   4.147   1.215 -0.6086  0.6204 -1.4369
   15CHTO  C119 5977   6.675   4.128   1.049  0.0729 -0.6106  0.1480
   15CHTO  H223 5978   6.647   4.151   0.946  4.4141 -0.0104 -1.0261
   15CHTO  C117 5979   6.620   4.238   1.149 -0.7587 -0.4100 -0.2684
   15CHTO  H221 5980   6.662   4.221   1.248  0.1376  0.0426 -0.5560
   15CHTO   N20 5981   6.474   4.236   1.166 -0.3187 -0.7773  0.3274
   15CHTO  H209 5982   6.431   4.334   1.154  1.2205 -0.2440 -1.0533
   15CHTO  H210 5983   6.435   4.188   1.254  0.3969 -4.4115 -1.2431
   15CHTO   O80 5984   6.623   3.977   1.064 -0.9129  0.2041  0.2365
   15CHTO  C103 5985   6.542   3.907   0.935  0.8873  0.8884  0.4001
   15CHTO  H190 5986   6.481   3.829   0.980  0.0769  0.9224 -0.6085
   15CHTO  C101 5987   6.443   3.996   0.836  0.5914  0.6921 -0.1497
   15CHTO  H188 5988   6.501   4.074   0.786  1.8326 -0.6428 -0.8152
   15CHTO   O68 5989   6.309   4.058   0.928 -0.4070  0.5425  0.2400
   15CHTO  H168 5990   6.249   4.103   0.872 -0.1396 -0.4293 -0.8328
   15CHTO   C99 5991   6.379   3.898   0.727 -0.2276  0.6649  0.3793
   15CHTO  H186 5992   6.315   3.820   0.775 -0.2807  1.8814  2.3381
   15CHTO   N17 5993   6.295   3.959   0.619 -0.3365 -0.2437 -0.2750
   15CHTO  H174 5994   6.307   3.903   0.527  1.5112 -0.3890  0.0356
   15CHTO  H175 5995   6.319   4.063   0.601 -0.9055 -0.0204  0.2669
   15CHTO   C97 5996   6.493   3.813   0.656  1.1094 -0.4962  0.1134
   15CHTO  H184 5997   6.539   3.879   0.581 -1.8835  1.5171 -0.0181
   15CHTO   O64 5998   6.585   3.755   0.751 -0.0290 -0.2751 -0.3992
   15CHTO  C104 5999   6.650   3.833   0.855  0.6304 -0.3218  1.1166
   15CHTO  H191 6000   6.718   3.907   0.811  0.9597 -0.6069  1.1451
   15CHTO  C108 6001   6.743   3.743   0.935  0.4101  0.4040 -1.0748
   15CHTO   O71 6002   6.858   3.808   0.983 -0.9182 -0.3044  0.4522
   15CHTO  H171 6003   6.913   3.835   0.911  0.5921  1.0562  2.0796
   15CHTO   O62 6004   6.441   3.696   0.587 -0.3813  0.0876 -0.4351
   15CHTO   C91 6005   6.511   3.631   0.483  0.3359 -0.6930  0.5003
   15CHTO  H178 6006   6.565   3.709   0.431  0.1599 -0.1801  1.0804
   15CHTO   C92 6007   6.400   3.586   0.375  0.8098  0.0487 -0.2537
   15CHTO  H179 6008   6.325   3.666   0.370  2.3225  1.5107  0.5112
   15CHTO   O66 6009   6.473   3.588   0.249 -0.2031 -0.3581  0.9380
   15CHTO  H166 6010   6.549   3.532   0.252 -0.6867 -1.2073 -1.6096
   15CHTO   C93 6011   6.340   3.443   0.402  0.3143 -0.1884  0.0579
   15CHTO  H180 6012   6.320   3.392   0.307 -0.1695 -0.4734  0.3077
   15CHTO   N16 6013   6.214   3.446   0.483  0.5122 -0.0520 -0.4595
   15CHTO  H172 6014   6.124   3.442   0.424  0.5127 -1.0561 -0.4110
   15CHTO  H173 6015   6.218   3.522   0.559 -0.8398 -1.8116  1.4267
   15CHTO   C94 6016   6.436   3.354   0.490 -0.2489 -0.5445  0.0697
   15CHTO  H181 6017   6.424   3.371   0.597 -0.8204 -1.6716  0.1964
   15CHTO   O61 6018   6.568   3.390   0.461  0.1740  1.0552  0.2608
   15CHTO   C95 6019   6.609   3.511   0.523  0.4758 -0.4287 -0.6137
   15CHTO  H182 6020   6.615   3.490   0.630  0.3892  0.9361 -0.3239
   15CHTO  C106 6021   6.763   3.536   0.481 -0.2763 -0.0971  0.8656
   15CHTO   O69 6022   6.782   3.538   0.338  0.1695  0.5675  0.5156
   15CHTO  H169 6023   6.755   3.617   0.295 -1.5460  0.0190  0.5284
   15CHTO   O63 6024   6.419   3.207   0.464  0.5073 -0.4362 -0.4986
   15CHTO   C96 6025   6.444   3.098   0.574  0.1720 -1.1087  0.0325
   15CHTO  H183 6026   6.468   3.139   0.673  1.1589 -1.8664  0.1184
   15CHTO   C98 6027   6.555   2.999   0.542  0.2155 -0.1390  0.2140
   15CHTO  H185 6028   6.553   2.995   0.432  2.0159  0.5022  0.1318
   15CHTO   O67 6029   6.685   3.043   0.572 -0.6157 -0.0351  0.0854
   15CHTO  H167 6030   6.697   3.063   0.663 -1.5165  0.4206  0.1049
   15CHTO  C102 6031   6.533   2.850   0.587  0.0161  0.0669  0.1377
   15CHTO  H189 6032   6.552   2.845   0.696  0.7161  1.2644  0.0764
   15CHTO   N18 6033   6.613   2.741   0.520 -0.1942  0.8097  0.4795
   15CHTO  H176 6034   6.589   2.643   0.559 -2.4896  0.9675 -0.4311
   15CHTO  H177 6035   6.719   2.746   0.539  0.4867 -0.7432 -2.5462
   15CHTO  C105 6036   6.383   2.811   0.579  1.3924  0.5022 -0.4993
   15CHTO  H192 6037   6.345   2.821   0.477 -0.5764  1.7772  0.3252
   15CHTO   O65 6038   6.309   2.907   0.659  0.2911 -0.7189  0.6101
   15CHTO  C100 6039   6.300   3.035   0.587  0.0502 -0.1661 -0.8066
   15CHTO  H187 6040   6.258   3.018   0.487  0.1762  0.3195 -0.9444
   15CHTO  C107 6041   6.210   3.126   0.666  0.2169 -0.2787  0.1263
   15CHTO   O70 6042   6.083   3.067   0.679  0.0925  0.4818 -0.4026
   15CHTO  H170 6043   6.019   3.132   0.701 -0.0907  0.8640 -2.0400
   15CHTO   O57 6044   6.347   2.663   0.628  0.1852 -0.1232  0.1442
   15CHTO   C85 6045   6.344   2.606   0.757  0.1895 -0.2741  0.4363
   15CHTO  H157 6046   6.397   2.664   0.835 -0.5704 -1.9002  2.1986
   15CHTO   C83 6047   6.420   2.474   0.742  0.1378  0.1906 -0.3662
   15CHTO  H155 6048   6.526   2.494   0.726  0.8631 -0.8765  2.7309
   15CHTO   O56 6049   6.366   2.403   0.629 -0.4718  0.2678  0.4378
   15CHTO  H135 6050   6.402   2.317   0.617 -1.1054  0.0046  0.3838
   15CHTO   C81 6051   6.405   2.387   0.873  0.1730 -0.0271  0.7195
   15CHTO  H153 6052   6.453   2.435   0.959  3.7722  0.0312 -1.2127
   15CHTO   N14 6053   6.483   2.259   0.868  0.3720  0.5579  0.4023
   15CHTO  H141 6054   6.439   2.191   0.939  0.2866  0.9716  0.7467
   15CHTO  H142 6055   6.586   2.264   0.896 -0.1434  0.0031  2.5159
   15CHTO   C79 6056   6.257   2.366   0.915  1.1277 -0.7972  0.3210
   15CHTO  H151 6057   6.253   2.328   1.017  1.0481  0.7163  0.9010
   15CHTO   O52 6058   6.175   2.489   0.910 -0.5942  0.1920  0.0578
   15CHTO   C86 6059   6.196   2.571   0.793  0.2023 -0.0973  0.3985
   15CHTO  H158 6060   6.153   2.509   0.712  1.4455 -0.8208  0.2874
   15CHTO   C90 6061   6.105   2.698   0.802 -0.5596 -0.9908  0.1814
   15CHTO   O60 6062   6.117   2.756   0.937 -0.2920  0.4829  1.2487
   15CHTO  H138 6063   6.138   2.848   0.936 -0.0043  0.4137  0.2530
   15CHTO   O50 6064   6.186   2.258   0.842  0.4758 -0.5602 -0.4923
   15CHTO   C73 6065   6.097   2.149   0.815  0.7533  0.0791 -0.1857
   15CHTO  H145 6066   6.010   2.194   0.766  0.7741 -2.0474 -2.2934
   15CHTO   C74 6067   6.055   2.076   0.943 -0.5415  1.0828 -0.2282
   15CHTO  H146 6068   6.016   2.152   1.014  0.1397 -0.6650  2.0803
   15CHTO   O54 6069   5.943   1.987   0.919 -0.3457 -0.2374  0.0616
   15CHTO  H133 6070   5.962   1.898   0.894 -1.4083 -0.9210  1.5550
   15CHTO   C75 6071   6.181   2.006   1.002 -0.1402 -0.0400  0.4932
   15CHTO  H147 6072   6.254   2.086   1.020 -1.6038  1.4834 -0.3021
   15CHTO   N13 6073   6.161   1.933   1.133 -0.0779  0.3509  0.0677
   15CHTO  H139 6074   6.110   2.002   1.199  1.7243  0.6388  1.2025
   15CHTO  H140 6075   6.255   1.912   1.181  0.1981  2.1356  0.3474
   15CHTO   C76 6076   6.243   1.906   0.901  0.0527 -0.2448  0.2085
   15CHTO  H148 6077   6.167   1.830   0.883  0.0040 -0.2727  0.5400
   15CHTO   O49 6078   6.279   1.976   0.780  0.6947 -0.3366  0.4355
   15CHTO   C77 6079   6.169   2.039   0.720  0.5270 -0.5722 -0.0555
   15CHTO  H149 6080   6.091   1.971   0.687  0.3134  0.1564 -1.0962
   15CHTO   C88 6081   6.220   2.105   0.596  0.0425  0.6314  0.1942
   15CHTO   O58 6082   6.122   2.122   0.498 -0.7730 -0.5345  0.4347
   15CHTO  H136 6083   6.153   2.186   0.438  0.0568 -0.8572  0.5050
   15CHTO   O51 6084   6.385   1.832   0.952  0.5543 -0.1670  0.3289
   15CHTO   C78 6085   6.446   1.702   0.870 -0.2262 -0.1542  0.3136
   15CHTO  H150 6086   6.389   1.681   0.777 -0.9670  0.0802  0.7078
   15CHTO   C80 6087   6.449   1.569   0.950  0.2930  0.2160 -0.1508
   15CHTO  H152 6088   6.477   1.593   1.055 -1.6880  1.6155  0.0734
   15CHTO   O55 6089   6.316   1.523   0.970 -0.1888 -0.6215  0.0770
   15CHTO  H134 6090   6.306   1.444   0.920  1.1517  0.0312 -1.2346
   15CHTO   C84 6091   6.540   1.454   0.889 -0.4157 -0.5441 -0.1792
   15CHTO  H156 6092   6.497   1.402   0.804 -1.8834  3.9335 -2.3214
   15CHTO   N15 6093   6.567   1.344   0.994  0.1527  0.1743 -0.0374
   15CHTO  H143 6094   6.551   1.375   1.096  0.3036 -0.4466  0.1753
   15CHTO  H144 6095   6.498   1.264   0.977 -0.2679  0.5019  0.1027
   15CHTO   C87 6096   6.674   1.520   0.846  0.6540  0.3615  0.2547
   15CHTO  H159 6097   6.720   1.559   0.937 -0.1075  0.3382  0.6566
   15CHTO   O53 6098   6.646   1.636   0.748 -0.0702  0.1311  0.4053
   15CHTO   C82 6099   6.589   1.742   0.824  0.7522  0.0810 -0.0936
   15CHTO  H154 6100   6.651   1.762   0.912 -1.0631  0.2014  1.1690
   15CHTO   C89 6101   6.606   1.859   0.727  0.3258  0.0858  0.2076
   15CHTO   O59 6102   6.596   1.999   0.768 -0.0452 -0.3222  0.2613
   15CHTO  H137 6103   6.667   2.058   0.749 -0.5828 -0.7593 -3.5105
   15CHTO   O45 6104   6.781   1.432   0.762  0.5489  0.4616 -0.4940
   15CHTO   C67 6105   6.921   1.469   0.793 -0.4714 -0.4886 -0.1913
   15CHTO  H124 6106   6.927   1.573   0.825  0.4725 -0.5447 -0.1680
   15CHTO   C65 6107   6.979   1.381   0.907  0.6176 -0.4700  0.6561
   15CHTO  H122 6108   6.953   1.279   0.878 -1.6740 -0.2253  1.7574
   15CHTO   O44 6109   6.905   1.407   1.023  0.2434 -0.0610  0.6058
   15CHTO  H102 6110   6.822   1.362   1.026 -0.4912  1.0898 -1.3146
   15CHTO   C63 6111   7.136   1.380   0.907 -0.1204 -0.5140  0.1879
   15CHTO  H120 6112   7.171   1.303   0.837  1.8662  0.8520 -0.3814
   15CHTO   N11 6113   7.191   1.329   1.033 -0.5131 -0.1297 -0.4966
   15CHTO  H108 6114   7.171   1.225   1.046  0.1412 -0.2042 -0.0371
   15CHTO  H109 6115   7.294   1.346   1.058 -0.8204  1.1071 -0.0241
   15CHTO   C61 6116   7.192   1.511   0.849  0.5790  0.0392  0.0607
   15CHTO  H118 6117   7.301   1.505   0.847  0.4276 -2.8955 -1.6164
   15CHTO   O40 6118   7.151   1.531   0.708  0.2073  0.1223 -0.5696
   15CHTO   C68 6119   7.025   1.464   0.671  0.9523  0.0373 -0.6474
   15CHTO  H125 6120   7.043   1.357   0.648  1.6414  0.5289 -2.5179
   15CHTO   C72 6121   6.966   1.537   0.544 -0.0398 -0.4723 -0.0592
   15CHTO   O48 6122   6.944   1.672   0.579 -0.8156  0.5617  0.0044
   15CHTO  H105 6123   6.997   1.732   0.530  2.0189 -0.9022  1.1132
   15CHTO   O38 6124   7.144   1.625   0.924  0.0982  0.0598 -0.4789
   15CHTO   C55 6125   7.195   1.759   0.894  0.2797 -0.5584 -0.3500
   15CHTO  H112 6126   7.207   1.774   0.786  0.5058  2.3475  0.0171
   15CHTO   C56 6127   7.332   1.780   0.974 -0.0611  0.6523  0.3283
   15CHTO  H113 6128   7.306   1.755   1.078 -1.4876 -1.2045 -0.4465
   15CHTO   O42 6129   7.427   1.686   0.928  0.2850 -0.0230 -0.0907
   15CHTO  H100 6130   7.385   1.606   0.904  1.3850 -0.9470  1.0153
   15CHTO   C57 6131   7.397   1.924   0.970 -0.1647 -0.6249  0.1233
   15CHTO  H114 6132   7.440   1.939   0.871  1.8978 -1.8666  0.7944
   15CHTO   N10 6133   7.518   1.959   1.054  0.3965  0.3686 -0.5415
   15CHTO  H106 6134   7.477   2.004   1.143  2.6239  0.8131  0.2826
   15CHTO  H107 6135   7.587   1.879   1.078  1.7823  1.6687 -0.1646
   15CHTO   C58 6136   7.289   2.031   1.002  0.5713 -0.5475 -0.0971
   15CHTO  H115 6137   7.260   2.015   1.108 -2.9164  0.4563 -0.8185
   15CHTO   O37 6138   7.171   1.999   0.921 -0.0804  0.6577  0.3204
   15CHTO   C59 6139   7.099   1.878   0.943  0.5169 -0.1334  0.6514
   15CHTO  H116 6140   7.080   1.871   1.050  1.3130 -3.2546  0.6467
   15CHTO   C70 6141   6.975   1.892   0.857 -0.4421 -0.1028 -0.1536
   15CHTO   O46 6142   6.888   2.001   0.895  0.7510 -0.0551  0.1066
   15CHTO  H103 6143   6.818   2.009   0.832 -2.5816 -1.9719  3.3520
   15CHTO   O39 6144   7.340   2.210   0.969 -0.3525 -0.4564 -0.7970
   15CHTO   C60 6145   7.319   2.240   0.832  0.0435 -0.2164 -0.2555
   15CHTO  H117 6146   7.323   2.147   0.776 -3.0164  0.2755 -1.3652
   15CHTO   C62 6147   7.182   2.312   0.823 -0.3293  0.2786  0.0410
   15CHTO  H119 6148   7.115   2.243   0.878  0.6782 -1.1736 -0.5090
   15CHTO   O43 6149   7.188   2.443   0.883 -0.2189  0.4854 -0.5034
   15CHTO  H101 6150   7.218   2.505   0.819 -0.4712  1.0180 -0.1067
   15CHTO   C66 6151   7.144   2.308   0.669  0.4898 -0.1150 -0.1146
   15CHTO  H123 6152   7.156   2.208   0.626 -1.4942 -0.2270 -0.4519
   15CHTO   N12 6153   7.003   2.349   0.648  0.1542  0.2617 -0.2871
   15CHTO  H110 6154   6.999   2.454   0.624 -0.2748  0.6700  1.5537
   15CHTO  H111 6155   6.927   2.328   0.720  0.4832  0.6089  0.1634
   15CHTO   C69 6156   7.241   2.393   0.588  0.0725 -0.1589 -0.0817
   15CHTO  H126 6157   7.233   2.497   0.624  1.4255  0.3426 -1.2148
   15CHTO   O41 6158   7.379   2.345   0.601  0.1488 -0.1489  0.1149
   15CHTO   C64 6159   7.429   2.332   0.774  0.5823  0.5014  0.0490
   15CHTO  H121 6160   7.430   2.430   0.827  2.7476  0.4608  0.1293
   15CHTO   C71 6161   7.575   2.267   0.794 -0.4816  0.3773 -0.1923
   15CHTO   O47 6162   7.585   2.151   0.719 -0.0256  0.1065 -0.9077
   15CHTO  H104 6163   7.598   2.076   0.772 -2.9641 -0.5584 -1.0937
   15CHTO   O34 6164   7.216   2.384   0.450 -0.1684 -0.1216  0.3484
   15CHTO   C49 6165   7.202   2.474   0.323 -0.0076 -0.0885  0.5385
   15CHTO   H91 6166   7.212   2.406   0.238 -0.1003  0.5838 -0.0167
   15CHTO   C47 6167   7.323   2.571   0.315  0.0371 -0.0219  0.3012
   15CHTO   H89 6168   7.325   2.597   0.207 -1.7165 -3.6701 -0.6733
   15CHTO   O33 6169   7.439   2.502   0.354 -0.0584 -0.9040 -0.6000
   15CHTO   H70 6170   7.446   2.419   0.309  2.4783 -0.3321 -1.3242
   15CHTO   C45 6171   7.299   2.706   0.410  0.4275 -0.3582  0.0939
   15CHTO   H87 6172   7.283   2.672   0.514  0.6456  0.8655  0.5330
   15CHTO    N8 6173   7.418   2.800   0.401 -0.0774 -0.0492  0.0517
   15CHTO   H75 6174   7.501   2.743   0.439 -0.9029 -0.2103  1.6527
   15CHTO   H76 6175   7.438   2.832   0.299  1.4698  0.1804  0.4068
   15CHTO   C43 6176   7.157   2.771   0.378  0.6728 -0.3702  0.3742
   15CHTO   H85 6177   7.133   2.843   0.456  1.4614 -0.6238  0.8573
   15CHTO   O29 6178   7.049   2.676   0.370 -0.1348  0.0833  0.2672
   15CHTO   C50 6179   7.066   2.544   0.318 -0.2345  0.0143  0.2763
   15CHTO   H92 6180   6.998   2.484   0.379  1.2777 -0.3806  1.5913
   15CHTO   C54 6181   7.002   2.543   0.175  0.3785  0.8207  0.1799
   15CHTO   O36 6182   7.068   2.643   0.089  0.3009 -0.3357  0.3493
   15CHTO   H72 6183   7.026   2.725   0.109  0.8299 -0.1187  0.5663
   15CHTO   O27 6184   7.159   2.849   0.251 -0.8061  0.0610 -0.5863
   15CHTO   C37 6185   7.090   2.938   0.163 -0.1094  0.1102 -0.8688
   15CHTO   H79 6186   7.038   2.883   0.083 -0.0049 -0.6002 -0.4584
   15CHTO   C38 6187   6.982   3.023   0.246  0.1185  0.2303 -0.1276
   15CHTO   H80 6188   7.037   3.066   0.331  0.5390 -2.3410  0.9446
   15CHTO   O31 6189   6.897   2.929   0.296  0.0238  0.0194  0.1305
   15CHTO   H68 6190   6.928   2.895   0.377  0.7370  0.4052  0.0198
   15CHTO   C39 6191   6.914   3.132   0.158  0.1540  0.0361  0.4212
   15CHTO   H81 6192   6.835   3.083   0.100  0.7517 -2.2987  1.5161
   15CHTO    N7 6193   6.842   3.237   0.239  0.1764  0.0542 -0.2417
   15CHTO   H73 6194   6.789   3.308   0.178 -1.9761 -0.2917  1.1760
   15CHTO   H74 6195   6.909   3.296   0.300 -1.5313 -1.2083  2.9483
   15CHTO   C40 6196   7.011   3.209   0.059  0.1824  0.0169 -0.2654
   15CHTO   H82 6197   7.061   3.291   0.111 -1.0542  1.5733 -1.4831
   15CHTO   O26 6198   7.102   3.120  -0.006  0.7446  0.6196  0.4522
   15CHTO   C41 6199   7.183   3.045   0.090 -0.3430  0.4255 -0.4963
   15CHTO   H83 6200   7.226   3.113   0.165  1.5730  0.6568 -1.7762
   15CHTO   C52 6201   7.295   2.973   0.023  0.2630  0.6493 -0.1835
   15CHTO   O35 6202   7.393   3.074  -0.040 -0.0815  0.3927 -0.0386
   15CHTO   H71 6203   7.346   3.143  -0.083  1.9943  1.3200 -0.8502
   15CHTO   O28 6204   6.934   3.252  -0.050 -0.0540  0.1881  0.0034
   15CHTO   C42 6205   6.954   3.381  -0.126  0.6713 -0.3890 -0.0250
   15CHTO   H84 6206   6.945   3.345  -0.229 -2.4023  0.9737 -0.2976
   15CHTO   C44 6207   7.098   3.447  -0.122 -0.1861 -0.5155  0.2412
   15CHTO   H86 6208   7.132   3.468  -0.021  0.7445 -2.7582  0.4265
   15CHTO   O32 6209   7.191   3.352  -0.185  0.6274 -0.0186 -0.0994
   15CHTO   H69 6210   7.252   3.337  -0.116  0.3790  1.1790  0.4019
   15CHTO   C48 6211   7.104   3.576  -0.211 -0.1710  0.1668 -0.1605
   15CHTO   H90 6212   7.084   3.546  -0.314  0.0022  0.6113 -0.3240
   15CHTO    N9 6213   7.237   3.643  -0.215  0.1178 -0.7401  0.4009
   15CHTO   H77 6214   7.312   3.578  -0.172 -0.2805 -0.8629  0.9182
   15CHTO   H78 6215   7.229   3.732  -0.155 -0.2445 -0.0838 -0.6204
   15CHTO   C51 6216   6.987   3.672  -0.183  0.2016  0.7795 -0.1660
   15CHTO   H93 6217   7.010   3.723  -0.090 -0.4751  0.6161  0.0943
   15CHTO   O30 6218   6.853   3.609  -0.182  0.3926 -0.3410  0.2898
   15CHTO   C46 6219   6.839   3.486  -0.093 -0.4119  0.1131  0.2258
   15CHTO   H88 6220   6.834   3.519   0.011 -0.7406 -0.2844  0.3428
   15CHTO   C53 6221   6.697   3.433  -0.116 -0.1900  0.4859 -0.0450
   15CHTO   O72 6222   6.603   3.533  -0.079  0.0513 -0.2929 -0.0487
   15CHTO  H199 6223   6.584   3.584  -0.156 -2.0115  0.4448  0.9050
   15CHTO   O22 6224   6.980   3.770  -0.293 -0.1932  0.2080 -0.0331
   15CHTO   C31 6225   6.921   3.902  -0.293  0.2070 -0.4801  0.3618
   15CHTO   H59 6226   6.937   3.941  -0.396  0.1419  1.3523  1.0094
   15CHTO   C29 6227   6.773   3.905  -0.266 -0.6580  0.3973 -0.0319
   15CHTO   H57 6228   6.755   3.849  -0.173  0.2107 -0.7620 -0.5638
   15CHTO   O21 6229   6.719   3.831  -0.380 -0.4206  0.6031  0.2571
   15CHTO   H37 6230   6.692   3.887  -0.451  1.3446 -1.0935 -1.8062
   15CHTO   C27 6231   6.714   4.051  -0.250 -0.0333  0.2847 -0.0807
   15CHTO   H55 6232   6.704   4.103  -0.346 -0.1273  0.1486 -0.1457
   15CHTO    N5 6233   6.577   4.042  -0.191 -0.2826 -0.1715 -0.3332
   15CHTO   H43 6234   6.508   4.074  -0.267 -0.9705 -2.0684 -0.5395
   15CHTO   H44 6235   6.558   3.944  -0.150  4.4157 -1.4738 -0.9812
   15CHTO   C25 6236   6.809   4.134  -0.165 -0.2528  0.4969  0.3254
   15CHTO   H53 6237   6.825   4.083  -0.068  0.2456  1.7292  0.8952
   15CHTO   O17 6238   6.947   4.138  -0.214  0.2724 -0.3372 -0.1005
   15CHTO   C32 6239   7.002   4.002  -0.209 -0.9667 -0.3886 -0.1465
   15CHTO   H60 6240   7.006   3.970  -0.105  1.1841  1.4994  0.3867
   15CHTO   C36 6241   7.150   4.002  -0.260  0.2249  0.3512  0.1409
   15CHTO   O25 6242   7.241   4.040  -0.153 -0.3676  0.1539 -0.2363
   15CHTO   H40 6243   7.237   3.981  -0.080  0.0729  0.4696  0.0401
   15CHTO   O15 6244   6.758   4.274  -0.136 -0.0164  0.6199 -0.6299
   15CHTO   C19 6245   6.783   4.380  -0.038 -0.2760  0.8623  0.2604
   15CHTO   H47 6246   6.860   4.436  -0.092 -0.4128  0.0078 -0.8352
   15CHTO   C20 6247   6.658   4.470  -0.010  0.8016 -0.0983  0.8413
   15CHTO   H48 6248   6.578   4.413   0.038 -0.9287  3.0518  1.7822
   15CHTO   O19 6249   6.613   4.519  -0.144  0.1155  0.0378 -0.8752
   15CHTO   H35 6250   6.570   4.454  -0.195  0.8262  0.4842 -2.0658
   15CHTO   C21 6251   6.691   4.595   0.084  0.1970 -0.4823 -1.1027
   15CHTO   H49 6252   6.755   4.666   0.032 -0.0128 -1.4336 -2.7103
   15CHTO    N4 6253   6.564   4.666   0.120 -0.5610 -0.2101  0.8983
   15CHTO   H41 6254   6.515   4.712   0.036 -0.7694 -0.5760  0.8183
   15CHTO   H42 6255   6.575   4.738   0.200  0.7784  1.7869 -1.0059
   15CHTO   C22 6256   6.758   4.541   0.211  0.1345  0.8139 -0.1456
   15CHTO   H50 6257   6.692   4.496   0.285  0.7607  1.4695  0.8290
   15CHTO   O14 6258   6.875   4.454   0.183  0.3577  0.4247  0.1403
   15CHTO   C23 6259   6.846   4.342   0.103 -0.4141  0.5526 -0.0563
   15CHTO   H51 6260   6.774   4.284   0.162  1.7177 -1.0460  1.0444
   15CHTO   C34 6261   6.975   4.269   0.085 -0.2184  0.5502  0.2047
   15CHTO   O23 6262   7.069   4.341  -0.002  0.8583  0.3839 -0.5672
   15CHTO   H38 6263   7.084   4.284  -0.075  2.8392  1.5163 -1.0857
   15CHTO   O16 6264   6.826   4.652   0.278 -0.3753  0.2127 -0.2801
   15CHTO   C24 6265   6.835   4.640   0.431  0.8089  0.6749 -0.6296
   15CHTO   H52 6266   6.801   4.542   0.465 -1.4989  1.5847 -0.1910
   15CHTO   C26 6267   6.750   4.759   0.480  0.4551  0.2303  0.7856
   15CHTO   H54 6268   6.769   4.848   0.416  2.7799 -0.7628  0.0276
   15CHTO   O20 6269   6.615   4.715   0.451  0.7036  0.5345 -0.9300
   15CHTO   H36 6270   6.595   4.635   0.496  0.6066 -0.7612 -3.1889
   15CHTO   C30 6271   6.778   4.799   0.626 -0.1276 -0.5302 -0.4430
   15CHTO   H58 6272   6.749   4.717   0.694  0.2598  0.1279  0.5203
   15CHTO    N6 6273   6.691   4.917   0.659  0.3648  0.0750 -0.8407
   15CHTO   H45 6274   6.680   4.984   0.576  0.3124 -0.1600 -1.0228
   15CHTO   H46 6275   6.738   4.970   0.741 -0.7609 -0.1785 -0.0120
   15CHTO   C33 6276   6.931   4.815   0.642 -0.0838  0.8003  0.0742
   15CHTO   H61 6277   6.959   4.895   0.572  1.2244 -0.7341 -1.1929
   15CHTO   O18 6278   7.000   4.697   0.615  0.7810  0.1226  0.3127
   15CHTO   C28 6279   6.979   4.657   0.478  0.7284  0.3410 -0.1068
   15CHTO   H56 6280   7.025   4.733   0.415 -1.6313  2.2094  0.3392
   15CHTO   C35 6281   7.051   4.531   0.441  0.4847 -0.0928  0.1855
   15CHTO   O24 6282   7.005   4.423   0.524  0.0226 -0.5279 -0.3498
   15CHTO   H39 6283   7.022   4.337   0.490  3.2134 -0.0570 -0.0901
   15CHTO    O9 6284   6.969   4.870   0.768 -0.8287  0.3647 -0.5132
   15CHTO   C13 6285   7.129   4.957   0.759  0.4208 -0.3508 -0.0793
   15CHTO   H26 6286   7.104   5.060   0.727  1.1790 -0.1764 -0.1299
   15CHTO   C11 6287   7.241   4.896   0.668  0.7038  0.3115 -0.0231
   15CHTO   H24 6288   7.208   4.905   0.563  0.8305  1.9020  0.0618
   15CHTO    O8 6289   7.263   4.756   0.684  0.1274 -0.2883 -0.1134
   15CHTO    H3 6290   7.185   4.706   0.693  0.5260 -0.9554 -0.3086
   15CHTO    C9 6291   7.373   4.975   0.680  0.8739 -0.5866 -0.1826
   15CHTO   H22 6292   7.344   5.081   0.669 -0.1177 -0.6959  1.2263
   15CHTO    N2 6293   7.477   4.949   0.578 -0.1639  0.0067 -0.2832
   15CHTO   H10 6294   7.486   5.038   0.518  0.0229  2.9395  3.8294
   15CHTO   H11 6295   7.457   4.869   0.508 -0.2714  2.0922 -2.6949
   15CHTO    C7 6296   7.424   4.963   0.822 -0.2146 -0.0833  0.2294
   15CHTO   H20 6297   7.516   5.023   0.836 -0.1420 -0.9921  4.4534
   15CHTO    O4 6298   7.322   5.005   0.914  0.0229  0.1681  0.5707
   15CHTO   C14 6299   7.185   4.963   0.906  0.0482 -0.5484 -0.1875
   15CHTO   H27 6300   7.141   5.045   0.966  3.9732  2.1698 -0.8866
   15CHTO   C18 6301   7.167   4.829   0.987 -0.0376 -0.8832  0.2150
   15CHTO   O13 6302   7.143   4.853   1.121  0.0274 -0.3058 -0.0697
   15CHTO    H7 6303   7.061   4.818   1.148  1.0280 -1.2103  1.9527
   15CHTO    O2 6304   7.465   4.801   0.873  0.0580 -0.1630 -0.0461
   15CHTO    C1 6305   7.564   4.791   0.978  0.3963 -0.2963 -0.1944
   15CHTO   H14 6306   7.525   4.848   1.065 -2.1644 -0.1486 -1.3916
   15CHTO    C2 6307   7.708   4.835   0.948  0.0857  0.5096  0.4373
   15CHTO   H15 6308   7.736   4.776   0.859  0.2792  0.4549  0.5354
   15CHTO    O6 6309   7.708   4.977   0.920  0.0980  0.6034  0.3631
   15CHTO    H1 6310   7.702   5.027   0.999 -0.8146 -1.9278  1.9352
   15CHTO    C3 6311   7.820   4.809   1.061 -0.4954 -0.6180 -0.0224
   15CHTO   H16 6312   7.802   4.877   1.145  1.1359 -0.5683  0.3037
   15CHTO    N1 6313   7.962   4.837   1.024 -0.3969 -0.2020 -0.7345
   15CHTO    H8 6314   8.010   4.878   1.112 -0.9226 -1.2971  0.0787
   15CHTO    H9 6315   8.018   4.745   1.011  2.6378  1.5122 -0.1887
   15CHTO    C4 6316   7.798   4.667   1.118  0.1904  0.0760 -0.1483
   15CHTO   H17 6317   7.821   4.596   1.038 -2.3402 -0.5662 -0.3566
   15CHTO    O1 6318   7.664   4.646   1.142  0.1125  0.3269  0.0641
   15CHTO    C5 6319   7.575   4.649   1.028 -0.3475  0.1692 -0.6709
   15CHTO   H18 6320   7.614   4.585   0.949  1.2423 -2.1242  1.8654
   15CHTO   C16 6321   7.437   4.588   1.085  0.4836 -0.7653  0.5716
   15CHTO   O11 6322   7.442   4.449   1.121 -0.7928 -0.1367  0.1112
   15CHTO    H5 6323   7.384   4.396   1.069 -0.2973 -0.2304 -0.3410
   15CHTO    O3 6324   7.861   4.651   1.247 -0.3902  0.0707 -0.2608
   15CHTO    C6 6325   7.919   4.523   1.291  0.1668 -0.5336 -0.6264
   15CHTO   H19 6326   7.883   4.439   1.231  1.8763 -1.5387 -0.2664
   15CHTO    C8 6327   8.074   4.524   1.287  0.0426 -0.6804 -0.0832
   15CHTO   H21 6328   8.110   4.602   1.354  1.8034 -0.1291 -1.6326
   15CHTO    O7 6329   8.114   4.542   1.149 -0.1940  0.5167  0.5401
   15CHTO    H2 6330   8.145   4.629   1.135  2.0080 -0.4110 -0.5538
   15CHTO   C12 6331   8.134   4.394   1.343  0.1258 -0.4346 -0.3905
   15CHTO   H25 6332   8.115   4.312   1.270 -2.9689 -0.5851  0.5060
   15CHTO    N3 6333   8.280   4.404   1.367 -0.1882 -0.1226  0.5978
   15CHTO   H12 6334   8.295   4.502   1.410  0.7186  1.0813 -2.3092
   15CHTO   H13 6335   8.325   4.408   1.268 -0.3469  3.3750  0.6091
   15CHTO   C15 6336   8.062   4.354   1.479  0.5995  0.2706 -0.7925
   15CHTO   H28 6337   8.099   4.421   1.557 -2.4758  0.9956  0.1105
   15CHTO   O10 6338   8.061   4.209   1.505  0.1757  0.0047  0.6739
   15CHTO    H4 6339   8.012   4.204   1.585 -0.3369 -1.0777  0.3032
   15CHTO    O5 6340   7.924   4.376   1.482 -0.0209  0.0319  0.3213
   15CHTO   C10 6341   7.872   4.501   1.432 -0.0868 -0.0815  0.2025
   15CHTO   H23 6342   7.905   4.581   1.498  1.9372 -1.7758  1.3391
   15CHTO   C17 6343   7.721   4.490   1.449 -0.2810  0.6308 -0.4295
   15CHTO   O12 6344   7.676   4.480   1.585  0.0791 -0.1399 -0.1592
   15CHTO    H6 6345   7.588   4.450   1.591  0.4793 -2.2655 -3.9101
   16CHTO  H203 6346   5.939   4.971   0.361  0.3846  0.6882 -1.8863
   16CHTO   O82 6347   6.003   4.914   0.324  0.6141 -0.0157 -0.4326
   16CHTO  C123 6348   6.039   4.813   0.411 -0.3363 -0.2596 -0.3788
   16CHTO  H227 6349   5.951   4.772   0.462 -0.4791 -1.4605 -1.5468
   16CHTO   O77 6350   6.105   4.715   0.327 -0.6911  0.2862 -0.0600
   16CHTO  C118 6351   6.132   4.587   0.392 -0.6519  0.2920  0.1406
   16CHTO  H222 6352   6.037   4.564   0.442 -1.6807  0.2277 -1.8222
   16CHTO  C125 6353   6.163   4.487   0.279  0.3591  0.6286  0.6705
   16CHTO   O84 6354   6.271   4.520   0.194 -0.6330 -0.0737  0.0741
   16CHTO  H205 6355   6.346   4.466   0.209  1.0282  2.4480  1.2275
   16CHTO  C114 6356   6.250   4.612   0.488  0.0146 -0.4018 -0.2608
   16CHTO  H218 6357   6.334   4.652   0.432 -0.0844  0.6392  0.3328
   16CHTO  C116 6358   6.209   4.725   0.588 -0.2845  0.2927 -0.1385
   16CHTO  H220 6359   6.137   4.676   0.657 -3.1155  0.2899 -2.9623
   16CHTO   O79 6360   6.326   4.765   0.663 -0.0767  0.0998 -0.2508
   16CHTO  H201 6361   6.311   4.756   0.755  0.3166 -0.7562 -0.2730
   16CHTO  C120 6362   6.152   4.861   0.519 -0.3549 -0.1452  0.1357
   16CHTO  H224 6363   6.236   4.914   0.468  1.5111 -1.5573  1.6295
   16CHTO   N21 6364   6.102   4.965   0.610 -0.5064 -0.5295  0.0632
   16CHTO  H211 6365   5.997   4.948   0.633  0.2370 -4.0888  1.2830
   16CHTO  H212 6366   6.161   4.952   0.700 -0.3847  0.3847  0.1146
   16CHTO   O75 6367   6.278   4.485   0.553  0.2450 -0.4684 -0.0255
   16CHTO  C112 6368   6.430   4.407   0.522 -0.0506  0.8608 -0.3588
   16CHTO  H216 6369   6.502   4.477   0.477  2.1612 -0.7801  0.5795
   16CHTO   O73 6370   6.398   4.300   0.433  0.3316  0.5069 -0.5333
   16CHTO  C113 6371   6.515   4.258   0.366 -0.6286  0.6409  0.1740
   16CHTO  H217 6372   6.560   4.347   0.316  0.5375  0.1134  0.2867
   16CHTO  C124 6373   6.485   4.162   0.243 -0.8307  0.2811 -0.0785
   16CHTO   O83 6374   6.416   4.225   0.138  0.2593  0.8641 -0.1009
   16CHTO  H204 6375   6.470   4.270   0.076 -2.3877  2.5855 -1.2266
   16CHTO  C109 6376   6.606   4.191   0.467  0.2763 -0.1025 -0.0489
   16CHTO  H213 6377   6.559   4.094   0.492 -0.9770  0.8679  1.4259
   16CHTO  C110 6378   6.637   4.288   0.590  0.5233  0.0997 -0.6857
   16CHTO  H214 6379   6.703   4.366   0.553  0.7520  0.5563  0.6461
   16CHTO   O78 6380   6.707   4.209   0.684 -0.0034 -0.1606  0.0552
   16CHTO  H200 6381   6.795   4.191   0.657  0.4096 -0.0079  1.2733
   16CHTO  C111 6382   6.498   4.345   0.644 -0.4790  0.2839  0.1413
   16CHTO  H215 6383   6.436   4.262   0.683  1.1809 -1.1304 -0.1677
   16CHTO   N19 6384   6.513   4.440   0.758 -0.0937 -0.2129 -0.0383
   16CHTO  H207 6385   6.575   4.524   0.729  0.4652  0.0717  1.8904
   16CHTO  H208 6386   6.422   4.465   0.811 -1.0774  0.0360 -1.8222
   16CHTO   O74 6387   6.736   4.169   0.402 -0.0793 -0.1873  0.2415
   16CHTO  C115 6388   6.786   4.027   0.436  0.0570  0.2215 -0.4821
   16CHTO  H219 6389   6.751   3.994   0.534  1.3576 -1.8386 -0.6634
   16CHTO   O76 6390   6.724   3.910   0.344  0.0849  0.1091 -0.5233
   16CHTO  C122 6391   6.788   3.900   0.224  0.4120 -0.2849  0.1459
   16CHTO  H226 6392   6.791   3.997   0.174 -0.9734  0.4520  1.4352
   16CHTO  C126 6393   6.698   3.801   0.129 -0.1265  0.0943 -0.0346
   16CHTO   O85 6394   6.573   3.858   0.094  0.2526  0.5658 -0.3589
   16CHTO  H206 6395   6.560   3.870   0.002  0.8970  2.1615 -0.2680
   16CHTO  C121 6396   6.933   3.841   0.246  0.3387  0.1887  0.0926
   16CHTO  H225 6397   6.917   3.732   0.237 -0.0946  0.2957 -0.4737
   16CHTO   O81 6398   7.023   3.894   0.145  0.5315 -0.6981 -0.6371
   16CHTO  H202 6399   7.001   3.978   0.110 -1.7266 -0.7316  0.6664
   16CHTO  C119 6400   6.985   3.870   0.392  0.3222 -0.3613 -0.1788
   16CHTO  H223 6401   6.930   3.805   0.461  0.0037  0.8354  0.7217
   16CHTO  C117 6402   6.949   4.022   0.431  0.0043 -0.2929 -0.5022
   16CHTO  H221 6403   6.980   4.099   0.359  0.5491 -0.1856 -0.1515
   16CHTO   N20 6404   6.997   4.071   0.565  0.5563  0.3720 -0.1077
   16CHTO  H209 6405   6.941   4.010   0.635  0.1823 -1.1474 -1.6875
   16CHTO  H210 6406   7.102   4.051   0.581  0.2156 -2.5381 -1.1630
   16CHTO   O80 6407   7.134   3.824   0.420 -0.8013  0.2367 -0.0597
   16CHTO  C103 6408   7.161   3.672   0.406 -0.2100  0.2257  0.5526
   16CHTO  H190 6409   7.067   3.631   0.370  0.9532 -1.9711 -0.0579
   16CHTO  C101 6410   7.280   3.623   0.311 -0.0835 -0.4589 -0.3950
   16CHTO  H188 6411   7.375   3.649   0.357 -0.1458  0.6168 -0.8600
   16CHTO   O68 6412   7.281   3.703   0.179  0.0096  0.3882 -0.3571
   16CHTO  H168 6413   7.339   3.776   0.193 -3.9132  3.6379 -0.3897
   16CHTO   C99 6414   7.274   3.469   0.314 -0.1944  0.1770  0.6274
   16CHTO  H186 6415   7.181   3.437   0.263  0.6717  1.3295 -1.7284
   16CHTO   N17 6416   7.380   3.411   0.238 -0.0719 -0.4644  1.0630
   16CHTO  H174 6417   7.367   3.303   0.240  1.3359 -0.6568  0.5529
   16CHTO  H175 6418   7.480   3.434   0.271 -0.4006 -0.0839  1.7857
   16CHTO   C97 6419   7.268   3.417   0.460  0.9175 -0.6782 -0.2582
   16CHTO  H184 6420   7.368   3.431   0.504  1.1712 -0.5131 -0.8813
   16CHTO   O64 6421   7.167   3.479   0.541 -0.3750 -0.0339 -0.0104
   16CHTO  C104 6422   7.174   3.624   0.553  0.4227 -0.3766 -0.1604
   16CHTO  H191 6423   7.270   3.658   0.592 -0.3366  0.8676  0.6572
   16CHTO  C108 6424   7.076   3.669   0.656 -0.1489 -0.0228 -0.0462
   16CHTO   O71 6425   7.094   3.617   0.786  0.3696  0.1392  0.9603
   16CHTO  H171 6426   7.016   3.637   0.835 -0.2484  0.0909  0.0163
   16CHTO   O62 6427   7.230   3.282   0.469 -0.1301  0.3580 -1.1859
   16CHTO   C91 6428   7.237   3.218   0.603 -0.2060 -0.1104 -0.7103
   16CHTO  H178 6429   7.235   3.294   0.682  1.7863  1.7445 -2.3475
   16CHTO   C92 6430   7.369   3.126   0.618 -0.6792 -0.3684  0.1848
   16CHTO  H179 6431   7.373   3.035   0.556 -0.2169  0.1150 -0.5046
   16CHTO   O66 6432   7.485   3.205   0.583 -0.0901 -0.5650  0.0094
   16CHTO  H166 6433   7.559   3.148   0.573 -1.3411 -2.6797  2.2777
   16CHTO   C93 6434   7.378   3.075   0.770 -0.3922  0.2865  0.5174
   16CHTO  H180 6435   7.394   3.161   0.836 -0.1365  0.6671 -0.0378
   16CHTO   N16 6436   7.497   2.993   0.797  0.6255 -0.3099  0.0878
   16CHTO  H172 6437   7.512   2.981   0.903  3.3716  0.9263 -0.1309
   16CHTO  H173 6438   7.509   2.905   0.736 -1.3901 -0.8047  0.3455
   16CHTO   C94 6439   7.255   2.994   0.806  0.0030 -0.4200  0.3956
   16CHTO  H181 6440   7.244   2.904   0.745  1.3924 -1.0861  1.0963
   16CHTO   O61 6441   7.140   3.085   0.780  0.0321  0.3563 -0.2648
   16CHTO   C95 6442   7.119   3.120   0.640  0.3046 -0.2944  0.2030
   16CHTO  H182 6443   7.115   3.027   0.583 -0.4722  1.3149 -2.4547
   16CHTO  C106 6444   6.981   3.180   0.635 -0.4128  0.3361  0.3979
   16CHTO   O69 6445   6.963   3.292   0.726  0.2416  0.3961 -0.5301
   16CHTO  H169 6446   6.878   3.329   0.715  0.0801  0.5175  1.0122
   16CHTO   O63 6447   7.258   2.952   0.978  0.1335  0.9383  0.6803
   16CHTO   C96 6448   7.110   2.895   1.036 -1.3628  0.2454  0.4570
   16CHTO  H183 6449   7.144   2.831   1.118  3.0577 -0.7121 -1.9301
   16CHTO   C98 6450   7.030   2.810   0.930  0.0173  0.5641  0.4111
   16CHTO  H185 6451   7.030   2.854   0.829 -1.0162  0.7421  0.4840
   16CHTO   O67 6452   7.102   2.687   0.920 -0.1339  0.3182 -0.1189
   16CHTO  H167 6453   7.048   2.619   0.957 -1.4123  2.0176  1.1888
   16CHTO  C102 6454   6.872   2.791   0.990 -0.7556  0.4169 -0.0884
   16CHTO  H189 6455   6.882   2.748   1.091 -3.8276 -0.9431 -0.3247
   16CHTO   N18 6456   6.788   2.704   0.914 -0.4883  0.2033 -0.7641
   16CHTO  H176 6457   6.781   2.725   0.809 -1.3857 -1.2385 -1.0003
   16CHTO  H177 6458   6.826   2.603   0.920  1.9527  1.1031 -0.3728
   16CHTO  C105 6459   6.826   2.939   0.995 -0.5415  0.5946 -0.4320
   16CHTO  H192 6460   6.845   2.985   0.898 -0.1649 -1.3040 -1.2866
   16CHTO   O65 6461   6.895   3.016   1.099  0.1449  0.1219 -0.4849
   16CHTO  C100 6462   7.038   3.021   1.102  0.1256  0.7102  0.2815
   16CHTO  H187 6463   7.080   3.107   1.046  0.8713  0.4718  0.4655
   16CHTO  C107 6464   7.092   3.026   1.236 -0.1485  0.1760  0.2889
   16CHTO   O70 6465   7.063   3.154   1.296 -0.1325 -0.2443  0.0818
   16CHTO  H170 6466   7.148   3.183   1.323  1.4225 -1.6850 -2.9862
   16CHTO   O57 6467   6.684   2.951   1.032 -0.6963  0.1656 -0.2940
   16CHTO   C85 6468   6.594   3.052   0.979 -0.0512 -0.4654  0.4891
   16CHTO  H157 6469   6.600   3.042   0.868  1.3769 -1.1577  0.6130
   16CHTO   C83 6470   6.635   3.201   1.008 -0.2424  0.9942 -0.7061
   16CHTO  H155 6471   6.737   3.206   0.971  1.4288 -3.7838  2.6820
   16CHTO   O56 6472   6.637   3.234   1.154 -0.3421  0.1650 -0.1210
   16CHTO  H135 6473   6.558   3.280   1.175 -0.8966 -0.3971 -0.9360
   16CHTO   C81 6474   6.537   3.283   0.919 -0.4448  0.0225 -0.4510
   16CHTO  H153 6475   6.563   3.255   0.817 -0.3692  1.7531 -0.9141
   16CHTO   N14 6476   6.564   3.425   0.903  0.3260 -0.7682 -0.0761
   16CHTO  H141 6477   6.489   3.470   0.841 -0.7668  0.3764  2.0350
   16CHTO  H142 6478   6.663   3.443   0.866  0.5641  2.0842  1.7699
   16CHTO   C79 6479   6.380   3.249   0.955  0.4777 -0.1185 -0.1322
   16CHTO  H151 6480   6.319   3.286   0.872  1.1144  0.3597 -0.3840
   16CHTO   O52 6481   6.349   3.108   0.958 -0.4093 -0.2503 -0.0171
   16CHTO   C86 6482   6.445   3.035   1.038  0.1675 -0.1436 -0.0006
   16CHTO  H158 6483   6.442   3.079   1.140  0.1663  3.2167 -1.3766
   16CHTO   C90 6484   6.394   2.884   1.044 -0.2647 -0.4466  0.3172
   16CHTO   O60 6485   6.310   2.857   1.154  0.6252 -0.0303 -0.0121
   16CHTO  H138 6486   6.285   2.768   1.141  1.1878  0.0111 -1.4802
   16CHTO   O50 6487   6.335   3.314   1.074  0.0461  0.1278 -0.1895
   16CHTO   C73 6488   6.201   3.302   1.127 -0.2589  0.4155  0.3185
   16CHTO  H145 6489   6.183   3.197   1.152 -1.1651 -0.4030 -3.4730
   16CHTO   C74 6490   6.085   3.343   1.027  0.2539 -0.2380 -0.3279
   16CHTO  H146 6491   6.079   3.283   0.935 -0.7203  0.3906 -0.6807
   16CHTO   O54 6492   5.951   3.326   1.084 -0.4531 -0.1281  0.1612
   16CHTO  H133 6493   5.959   3.246   1.132  0.5617  0.4071  0.8991
   16CHTO   C75 6494   6.105   3.493   0.998 -0.1743  0.1525  0.0721
   16CHTO  H147 6495   6.202   3.511   0.950  0.3259  2.6598  1.9175
   16CHTO   N13 6496   6.020   3.541   0.886 -0.1981 -0.0017 -0.2077
   16CHTO  H139 6497   5.920   3.570   0.917 -0.3121  1.2764 -1.6729
   16CHTO  H140 6498   5.990   3.455   0.828 -0.8638 -0.7307  1.1908
   16CHTO   C76 6499   6.096   3.579   1.121  0.5327  0.0623 -0.3231
   16CHTO  H148 6500   5.993   3.575   1.159  0.7865  0.3520  0.4071
   16CHTO   O49 6501   6.187   3.537   1.233  0.0622 -0.3092  0.3794
   16CHTO   C77 6502   6.196   3.392   1.255 -0.3395  0.4633  0.9637
   16CHTO  H149 6503   6.108   3.374   1.317 -0.1847 -0.6033  0.8753
   16CHTO   C88 6504   6.316   3.364   1.347 -0.1230 -0.3291  0.1844
   16CHTO   O58 6505   6.313   3.206   1.394  0.0646 -0.7165  0.1201
   16CHTO  H136 6506   6.394   3.181   1.434  0.4120  2.7862  1.8239
   16CHTO   O51 6507   6.155   3.728   1.089 -0.5982  0.5161  0.7153
   16CHTO   C78 6508   6.116   3.821   1.208  0.0073  0.4130  0.1947
   16CHTO  H150 6509   6.073   3.759   1.290  0.3011  1.4226  1.1159
   16CHTO   C80 6510   6.011   3.923   1.163  0.2717  0.0887 -0.5436
   16CHTO  H152 6511   6.049   3.971   1.070 -0.1509 -0.8192 -1.1895
   16CHTO   O55 6512   5.893   3.847   1.128 -0.3230  0.4033  0.6308
   16CHTO  H134 6513   5.909   3.781   1.064  0.8281 -0.4726  1.7932
   16CHTO   C84 6514   5.971   4.035   1.273 -0.5618 -0.3146 -0.1876
   16CHTO  H156 6515   5.917   3.975   1.346  0.9887  0.6204  1.7957
   16CHTO   N15 6516   5.862   4.137   1.243  0.1937  0.2295 -0.2937
   16CHTO  H143 6517   5.914   4.210   1.184  1.2797 -0.1175  0.2203
   16CHTO  H144 6518   5.831   4.188   1.332  0.3195 -3.7595  2.1461
   16CHTO   C87 6519   6.100   4.097   1.333  0.3595  0.1008 -0.4902
   16CHTO  H159 6520   6.142   4.170   1.265  0.6669  1.2302  0.8847
   16CHTO   O53 6521   6.191   3.981   1.362  0.3296 -0.3898  0.4642
   16CHTO   C82 6522   6.240   3.901   1.254  0.4193  0.2925  0.3111
   16CHTO  H154 6523   6.287   3.966   1.179  0.4508 -0.8227 -0.6358
   16CHTO   C89 6524   6.348   3.805   1.313  0.0765 -0.2271 -0.3094
   16CHTO   O59 6525   6.429   3.736   1.222 -0.0783 -0.0596 -0.6144
   16CHTO  H137 6526   6.454   3.655   1.263 -0.0476  1.2642  2.0804
   16CHTO   O45 6527   6.071   4.172   1.471  0.0480  0.3575  0.2410
   16CHTO   C67 6528   6.185   4.239   1.519 -1.3308 -0.9015  0.0355
   16CHTO  H124 6529   6.280   4.198   1.486  0.4103  1.5937  1.7708
   16CHTO   C65 6530   6.179   4.388   1.472  0.7995  0.6562 -0.0318
   16CHTO  H122 6531   6.074   4.411   1.462  0.6945  0.4761  0.5756
   16CHTO   O44 6532   6.238   4.389   1.338  0.4688  0.0124  0.6209
   16CHTO  H102 6533   6.238   4.478   1.310 -1.6202 -0.5654 -1.3676
   16CHTO   C63 6534   6.230   4.488   1.582 -0.3245 -0.9401  0.2408
   16CHTO  H120 6535   6.148   4.503   1.652 -3.6173 -0.4558 -3.5891
   16CHTO   N11 6536   6.246   4.629   1.541  0.1593 -0.4077  0.1752
   16CHTO  H108 6537   6.289   4.644   1.445 -1.9872  2.4510 -0.4210
   16CHTO  H109 6538   6.300   4.683   1.616 -3.0086  0.0069  2.2755
   16CHTO   C61 6539   6.344   4.419   1.662  0.3506  0.5652  0.9791
   16CHTO  H118 6540   6.383   4.489   1.737  3.1529  0.1398 -0.0091
   16CHTO   O40 6541   6.308   4.297   1.723 -0.6289  0.0319 -0.7035
   16CHTO   C68 6542   6.187   4.235   1.675 -0.5091 -0.6431  0.8675
   16CHTO  H125 6543   6.095   4.279   1.719  0.7335 -1.0084  3.9171
   16CHTO   C72 6544   6.196   4.088   1.733  0.4274  0.0525 -0.2651
   16CHTO   O48 6545   6.089   3.998   1.694 -0.1537  0.3256 -0.3401
   16CHTO  H105 6546   6.008   4.025   1.733 -0.9881 -2.1558 -0.2101
   16CHTO   O38 6547   6.455   4.397   1.571 -0.7104  0.2674 -0.5345
   16CHTO   C55 6548   6.585   4.354   1.635  0.9869  0.1677 -0.0956
   16CHTO  H112 6549   6.576   4.300   1.730 -0.4578  0.1224 -0.2426
   16CHTO   C56 6550   6.685   4.480   1.644 -0.2118  0.4610 -0.0863
   16CHTO  H113 6551   6.701   4.507   1.539 -0.5623 -0.3682 -0.3563
   16CHTO   O42 6552   6.626   4.600   1.705 -0.8919 -0.1700 -0.0920
   16CHTO  H100 6553   6.557   4.638   1.654 -0.3753  1.6165  0.5275
   16CHTO   C57 6554   6.819   4.427   1.710 -0.7475  0.2146  0.1723
   16CHTO  H114 6555   6.808   4.380   1.808  1.4458  1.1698  0.9044
   16CHTO   N10 6556   6.920   4.531   1.734  0.1081 -0.6052  0.2057
   16CHTO  H106 6557   6.989   4.516   1.652 -1.3807 -0.0103 -1.1794
   16CHTO  H107 6558   6.972   4.516   1.828  1.1450  2.2518  0.1315
   16CHTO   C58 6559   6.870   4.320   1.612 -0.4802 -0.1279  0.3970
   16CHTO  H115 6560   6.872   4.356   1.507 -2.2440  0.8818  0.6860
   16CHTO   O37 6561   6.771   4.216   1.598 -0.5166 -0.4023 -0.1558
   16CHTO   C59 6562   6.652   4.250   1.539  0.1832 -0.4169  0.2564
   16CHTO  H116 6563   6.656   4.300   1.442  1.4214  1.0899  1.0664
   16CHTO   C70 6564   6.558   4.128   1.525  0.3999  0.0229 -0.0247
   16CHTO   O46 6565   6.513   4.067   1.645 -0.4105  0.2279  0.7095
   16CHTO  H103 6566   6.478   4.120   1.714 -2.3933  0.2291 -0.2337
   16CHTO   O39 6567   7.010   4.234   1.649  0.0150 -0.0570 -0.2412
   16CHTO   C60 6568   7.061   4.154   1.546  0.4169  0.1085 -0.3838
   16CHTO  H117 6569   6.985   4.140   1.469 -2.7588 -3.3766  3.1690
   16CHTO   C62 6570   7.179   4.218   1.466 -0.0694  0.5350  0.3049
   16CHTO  H119 6571   7.145   4.315   1.425  0.8492 -0.2509 -2.3883
   16CHTO   O43 6572   7.292   4.255   1.550 -0.4257 -0.6639  0.2580
   16CHTO  H101 6573   7.327   4.184   1.600  1.3124 -0.2089 -0.2962
   16CHTO   C66 6574   7.218   4.117   1.351 -0.1553 -0.3502 -0.7342
   16CHTO  H123 6575   7.126   4.110   1.294 -2.5733  0.6223  2.8803
   16CHTO   N12 6576   7.318   4.183   1.263 -0.4374 -0.2917  0.5436
   16CHTO  H110 6577   7.403   4.196   1.328 -0.5187  0.6216  0.4760
   16CHTO  H111 6578   7.339   4.125   1.175  0.1045  2.9569 -1.5558
   16CHTO   C69 6579   7.259   3.985   1.424  0.3637  0.0608 -0.0522
   16CHTO  H126 6580   7.338   4.004   1.499  0.8992  3.1095 -1.3209
   16CHTO   O41 6581   7.153   3.929   1.495 -0.3255  0.0201 -0.1158
   16CHTO   C64 6582   7.096   4.009   1.596  0.5537 -0.1560 -0.4499
   16CHTO  H121 6583   7.170   4.022   1.678 -0.3526  1.3211  0.1685
   16CHTO   C71 6584   6.972   3.930   1.661  0.7172 -0.2045 -0.0019
   16CHTO   O47 6585   6.874   3.879   1.573  0.3776  0.0200  0.1186
   16CHTO  H104 6586   6.857   3.945   1.508  2.3014  1.0532  0.6578
   16CHTO   O34 6587   7.312   3.876   1.310 -0.0094 -0.3543 -0.0122
   16CHTO   C49 6588   7.295   3.838   1.155 -0.5401 -0.1092 -0.2447
   16CHTO   H91 6589   7.249   3.920   1.099 -1.6600 -0.5384  0.0233
   16CHTO   C47 6590   7.184   3.729   1.149  0.3991  0.1409  0.4186
   16CHTO   H89 6591   7.159   3.727   1.040  1.5052  0.7843  0.1416
   16CHTO   O33 6592   7.064   3.774   1.217 -0.4572 -0.4498  0.1494
   16CHTO   H70 6593   7.047   3.729   1.297 -1.3920  0.1316  0.2860
   16CHTO   C45 6594   7.222   3.586   1.201 -0.6947  0.7774  0.1737
   16CHTO   H87 6595   7.210   3.583   1.311  1.3893 -1.4999  0.3784
   16CHTO    N8 6596   7.137   3.479   1.135 -0.0534 -0.0857 -0.1200
   16CHTO   H75 6597   7.207   3.414   1.083  1.7502 -0.8267  3.1009
   16CHTO   H76 6598   7.061   3.514   1.066  0.9564 -0.5312 -1.4926
   16CHTO   C43 6599   7.384   3.571   1.194 -0.7083  0.0519 -0.8950
   16CHTO   H85 6600   7.424   3.611   1.287 -0.9477  0.3764 -0.9344
   16CHTO   O29 6601   7.441   3.640   1.079  0.4309  0.0186 -0.5870
   16CHTO   C50 6602   7.422   3.783   1.086  0.2572 -0.1516 -0.6476
   16CHTO   H92 6603   7.512   3.819   1.139  0.1828  0.4691 -0.9391
   16CHTO   C54 6604   7.431   3.834   0.937 -0.0688  0.2447  0.0190
   16CHTO   O36 6605   7.562   3.808   0.881 -0.5702 -0.3634  0.4155
   16CHTO   H72 6606   7.560   3.805   0.787 -1.5439  2.9735  0.2701
   16CHTO   O27 6607   7.432   3.434   1.178  0.0731 -0.2905  0.0743
   16CHTO   C37 6608   7.494   3.344   1.266  0.1092 -0.3613 -0.0754
   16CHTO   H79 6609   7.595   3.382   1.287  0.4439 -0.6206 -1.1995
   16CHTO   C38 6610   7.422   3.332   1.404 -0.4204 -0.2299  0.5736
   16CHTO   H80 6611   7.314   3.334   1.387 -0.3727  1.2769  0.4152
   16CHTO   O31 6612   7.450   3.449   1.487  0.3290  0.0669  0.6869
   16CHTO   H68 6613   7.371   3.483   1.524  0.5300  2.2930 -0.8620
   16CHTO   C39 6614   7.454   3.189   1.479  0.2793 -0.6304 -0.4403
   16CHTO   H81 6615   7.555   3.200   1.521 -1.1876  0.7839  2.9134
   16CHTO    N7 6616   7.368   3.165   1.596  0.1141 -0.3412 -0.9180
   16CHTO   H73 6617   7.335   3.254   1.649 -0.4622 -2.0132  1.6206
   16CHTO   H74 6618   7.279   3.107   1.576  0.8194 -1.8946  0.3591
   16CHTO   C40 6619   7.451   3.068   1.384  0.1781 -0.5867  0.5490
   16CHTO   H82 6620   7.350   3.049   1.348  0.1557  0.1472  0.2176
   16CHTO   O26 6621   7.544   3.098   1.276  0.0331  0.3676 -0.1562
   16CHTO   C41 6622   7.513   3.215   1.193  0.4079 -0.4334  0.0267
   16CHTO   H83 6623   7.416   3.202   1.142  0.8706 -0.6590 -0.7970
   16CHTO   C52 6624   7.624   3.213   1.089  0.1336 -0.0344 -0.9081
   16CHTO   O35 6625   7.590   3.301   0.988 -0.0301  0.0730  0.2809
   16CHTO   H71 6626   7.655   3.366   0.972  0.5845 -0.4542  0.5953
   16CHTO   O28 6627   7.508   2.948   1.445  0.5179  0.0982  0.6311
   16CHTO   C42 6628   7.481   2.817   1.390 -0.5451  0.2513  0.0104
   16CHTO   H84 6629   7.568   2.770   1.436 -0.6430  1.5813  1.6186
   16CHTO   C44 6630   7.496   2.794   1.236  0.2628  0.0621  0.3830
   16CHTO   H86 6631   7.426   2.865   1.192  1.4109  0.8903 -0.1261
   16CHTO   O32 6632   7.624   2.840   1.187  0.0498  1.1708  0.3396
   16CHTO   H69 6633   7.612   2.840   1.094  2.1032  2.0874  0.0413
   16CHTO   C48 6634   7.461   2.648   1.194  0.8826  0.2912 -0.7062
   16CHTO   H90 6635   7.537   2.580   1.234  0.3016 -0.0280 -0.1084
   16CHTO    N9 6636   7.468   2.630   1.043 -0.2921 -0.8283  0.3883
   16CHTO   H77 6637   7.559   2.670   1.002  0.0444 -1.6964  0.2852
   16CHTO   H78 6638   7.394   2.690   0.991  0.6819 -0.7026 -0.8952
   16CHTO   C51 6639   7.329   2.591   1.261 -0.0460  0.0239 -0.2236
   16CHTO   H93 6640   7.244   2.646   1.221 -1.4141 -1.2997  0.7946
   16CHTO   O30 6641   7.334   2.606   1.400  0.5739 -0.8113 -0.7835
   16CHTO   C46 6642   7.345   2.751   1.446 -0.2293  0.1904  0.0715
   16CHTO   H88 6643   7.262   2.818   1.422 -0.0074  0.6716  0.6215
   16CHTO   C53 6644   7.345   2.758   1.595  0.5817 -0.2388  0.2373
   16CHTO   O72 6645   7.234   2.839   1.647  0.0346 -0.1372  0.0671
   16CHTO  H199 6646   7.251   2.841   1.739 -2.0878 -0.8336  0.5135
   16CHTO   O22 6647   7.313   2.447   1.235  0.0045 -0.5350 -0.2289
   16CHTO   C31 6648   7.190   2.379   1.290  0.0583 -0.4527  0.1398
   16CHTO   H59 6649   7.146   2.439   1.372 -0.2798 -0.9773  0.3428
   16CHTO   C29 6650   7.082   2.365   1.183  0.2476  0.4162  0.9232
   16CHTO   H57 6651   7.134   2.320   1.097 -1.3484 -0.6302  0.4653
   16CHTO   O21 6652   7.036   2.493   1.147  0.1747 -0.4222  0.5698
   16CHTO   H37 6653   6.992   2.538   1.217 -1.0212  0.7999 -0.9233
   16CHTO   C27 6654   6.961   2.269   1.219 -1.3394  0.1610  0.2880
   16CHTO   H55 6655   6.890   2.321   1.285 -0.6264  0.3137  0.9341
   16CHTO    N5 6656   6.877   2.226   1.102 -0.4205 -0.1708  0.2768
   16CHTO   H43 6657   6.862   2.120   1.085 -0.3210 -0.3639  1.3744
   16CHTO   H44 6658   6.870   2.304   1.028  0.8401 -0.0784  0.2541
   16CHTO   C25 6659   7.017   2.139   1.288 -0.5827 -0.1386  0.4551
   16CHTO   H53 6660   7.064   2.069   1.218 -3.8218 -1.5392 -0.3846
   16CHTO   O17 6661   7.107   2.166   1.398 -0.3054 -0.1059 -0.0447
   16CHTO   C32 6662   7.223   2.237   1.351 -0.2748 -0.0053 -0.6371
   16CHTO   H60 6663   7.276   2.178   1.276 -2.2654 -2.0489 -0.4620
   16CHTO   C36 6664   7.329   2.255   1.463  0.1564  0.1743  0.5586
   16CHTO   O25 6665   7.418   2.145   1.495  0.4665 -0.1119  0.4071
   16CHTO   H40 6666   7.468   2.178   1.566 -0.8779 -1.8958  2.2353
   16CHTO   O15 6667   6.901   2.057   1.346  0.4583  0.3473 -0.5929
   16CHTO   C19 6668   6.792   2.040   1.445  0.1914  0.2696 -0.6178
   16CHTO   H47 6669   6.778   1.933   1.464 -0.9878  0.4530 -0.4024
   16CHTO   C20 6670   6.831   2.091   1.587  0.0493  0.5042 -0.0999
   16CHTO   H48 6671   6.865   2.196   1.580 -1.3712  0.9576 -0.4090
   16CHTO   O19 6672   6.943   2.009   1.636 -0.2813  0.6345 -0.0296
   16CHTO   H35 6673   7.005   2.011   1.566  0.3501  2.4880  0.5543
   16CHTO   C21 6674   6.712   2.090   1.692  0.6283  0.1078 -0.9865
   16CHTO   H49 6675   6.682   1.988   1.716  0.7045 -0.3774 -2.8891
   16CHTO    N4 6676   6.753   2.160   1.821  0.1011 -1.1384 -0.3777
   16CHTO   H41 6677   6.668   2.147   1.887 -0.8125  0.0278 -1.2984
   16CHTO   H42 6678   6.839   2.107   1.859  0.5815 -0.2773 -0.2683
   16CHTO   C22 6679   6.588   2.149   1.625 -0.1408 -0.1914  0.7730
   16CHTO   H50 6680   6.606   2.253   1.602  1.0607 -0.7744 -1.0295
   16CHTO   O14 6681   6.561   2.077   1.502 -0.3621  0.0702 -0.3509
   16CHTO   C23 6682   6.651   2.095   1.395 -0.1595 -0.4811  0.7454
   16CHTO   H51 6683   6.657   2.201   1.367 -1.3123 -0.6358 -0.1248
   16CHTO   C34 6684   6.605   2.004   1.277  0.4173  0.7265 -0.9983
   16CHTO   O23 6685   6.508   2.082   1.207  0.3138 -0.2735 -0.4124
   16CHTO   H38 6686   6.556   2.141   1.153  1.8623 -1.0680  0.0631
   16CHTO   O16 6687   6.465   2.128   1.704  0.3247 -0.2813  0.7702
   16CHTO   C24 6688   6.343   2.229   1.659  0.3943  0.2213  0.0311
   16CHTO   H52 6689   6.361   2.275   1.562 -0.7337  0.0862 -0.2564
   16CHTO   C26 6690   6.343   2.349   1.755 -0.0269 -0.2718  0.5021
   16CHTO   H54 6691   6.316   2.311   1.855  3.9538 -1.8839  1.0543
   16CHTO   O20 6692   6.476   2.408   1.748  0.7354 -0.0632 -0.1127
   16CHTO   H36 6693   6.471   2.488   1.797 -0.4254  0.1557 -0.5737
   16CHTO   C30 6694   6.227   2.443   1.724  0.3146 -0.2879 -0.0921
   16CHTO   H58 6695   6.239   2.485   1.623  1.9027  1.3674  0.7469
   16CHTO    N6 6696   6.223   2.566   1.810 -0.6288  0.9190  0.2375
   16CHTO   H45 6697   6.128   2.561   1.861 -1.2229 -0.6956 -0.9471
   16CHTO   H46 6698   6.297   2.558   1.888 -0.2932  0.4946 -0.1210
   16CHTO   C33 6699   6.100   2.352   1.731  0.6674  0.1318  0.0160
   16CHTO   H61 6700   6.087   2.299   1.826 -2.4182 -0.8808 -0.9070
   16CHTO   O18 6701   6.112   2.246   1.633  0.0025  0.0013 -0.0381
   16CHTO   C28 6702   6.219   2.151   1.652  0.0883  0.4158  0.4822
   16CHTO   H56 6703   6.198   2.102   1.746  1.8788 -0.6186  0.3594
   16CHTO   C35 6704   6.210   2.065   1.525  0.0669  0.3123 -0.0363
   16CHTO   O24 6705   6.078   2.010   1.510  0.0102  0.2947 -0.4818
   16CHTO   H39 6706   6.096   1.918   1.511 -1.9170 -0.0833 -0.5569
   16CHTO    O9 6707   5.979   2.422   1.709 -0.1295 -0.4348 -0.0872
   16CHTO   C13 6708   5.863   2.393   1.828 -0.3098  0.8718  0.5396
   16CHTO   H26 6709   5.919   2.373   1.922 -0.8669 -0.4859  0.5845
   16CHTO   C11 6710   5.767   2.275   1.790 -0.2503 -0.7470  0.1935
   16CHTO   H24 6711   5.824   2.181   1.786 -1.3690 -1.4505  0.6027
   16CHTO    O8 6712   5.705   2.301   1.662 -0.1760 -0.2780 -0.5510
   16CHTO    H3 6713   5.743   2.239   1.603 -0.5331 -3.1214  2.0112
   16CHTO    C9 6714   5.657   2.254   1.901 -0.8046 -0.5643  0.3169
   16CHTO   H22 6715   5.713   2.237   1.994  0.1662  0.6627 -0.0314
   16CHTO    N2 6716   5.577   2.134   1.884 -0.5325 -0.4995  1.0546
   16CHTO   H10 6717   5.609   2.042   1.930 -0.0800 -0.6269  0.4974
   16CHTO   H11 6718   5.478   2.160   1.917  0.3494  0.6742  2.8885
   16CHTO    C7 6719   5.575   2.391   1.914 -0.5308  0.0124 -0.5704
   16CHTO   H20 6720   5.506   2.378   2.000  1.1016 -3.6244  0.2981
   16CHTO    O4 6721   5.666   2.502   1.941  0.5353  0.1732 -0.5149
   16CHTO   C14 6722   5.788   2.525   1.867  0.1759  0.5874  0.1299
   16CHTO   H27 6723   5.852   2.564   1.949 -1.6800 -1.4317  2.6449
   16CHTO   C18 6724   5.768   2.631   1.759 -0.7414  0.0307  0.0950
   16CHTO   O13 6725   5.680   2.591   1.654  0.4988  0.6891 -0.5877
   16CHTO    H7 6726   5.590   2.606   1.675  0.4455 -3.0395  2.4065
   16CHTO    O2 6727   5.481   2.428   1.758  0.1521 -0.1376  0.6840
   16CHTO    C1 6728   5.348   2.487   1.764  0.8550  0.6287  0.1184
   16CHTO   H14 6729   5.298   2.489   1.665 -2.0118 -0.3412  1.4868
   16CHTO    C2 6730   5.342   2.627   1.825  0.0939 -0.4926 -0.0225
   16CHTO   H15 6731   5.395   2.612   1.920  2.2233 -0.0099 -1.0999
   16CHTO    O6 6732   5.410   2.721   1.742  0.1759 -0.5147 -0.7795
   16CHTO    H1 6733   5.363   2.736   1.662 -0.3891  1.5567 -0.0980
   16CHTO    C3 6734   5.194   2.664   1.844  0.2513  0.4047  0.2977
   16CHTO   H16 6735   5.141   2.677   1.749  1.2802  1.2761 -0.1633
   16CHTO    N1 6736   5.175   2.798   1.913 -0.0344 -0.3928  0.5838
   16CHTO    H8 6737   5.211   2.872   1.842  0.9969  0.4259  1.9428
   16CHTO    H9 6738   5.070   2.819   1.932 -0.0844  1.4805 -1.5656
   16CHTO    C4 6739   5.115   2.556   1.924 -0.2807  0.4238  0.0177
   16CHTO   H17 6740   5.170   2.535   2.016 -1.8351  0.5992  1.0058
   16CHTO    O1 6741   5.111   2.433   1.846 -0.1390 -0.5014  0.5415
   16CHTO    C5 6742   5.251   2.383   1.830 -0.2113 -0.2311  0.2275
   16CHTO   H18 6743   5.287   2.360   1.930  1.7779  1.1621 -0.1336
   16CHTO   C16 6744   5.245   2.260   1.742 -0.4862  0.5436  0.0890
   16CHTO   O11 6745   5.180   2.152   1.811  0.0415 -0.0039 -0.1269
   16CHTO    H5 6746   5.181   2.085   1.746  2.3408 -0.6568  0.5204
   16CHTO    O3 6747   4.974   2.572   1.952  0.5478  0.6668  0.4544
   16CHTO    C6 6748   4.920   2.532   2.083  0.3176 -0.2802 -0.3628
   16CHTO   H19 6749   4.989   2.470   2.140 -0.3233  0.6745  1.4520
   16CHTO    C8 6750   4.893   2.654   2.171  0.4100 -0.3680 -0.1843
   16CHTO   H21 6751   4.842   2.731   2.112  0.4586 -0.2896 -0.1248
   16CHTO    O7 6752   5.022   2.709   2.201 -0.2013  0.6831  0.1382
   16CHTO    H2 6753   5.086   2.696   2.133 -1.3574 -1.8142 -0.5405
   16CHTO   C12 6754   4.814   2.617   2.304 -0.3053  0.0793  0.7186
   16CHTO   H25 6755   4.880   2.545   2.357  0.8555  0.7347  0.1790
   16CHTO    N3 6756   4.791   2.734   2.397 -0.1569 -0.0522 -0.2474
   16CHTO   H12 6757   4.882   2.772   2.440 -0.4073  0.0937  0.1633
   16CHTO   H13 6758   4.733   2.692   2.478  1.5746  1.1144  1.6389
   16CHTO   C15 6759   4.678   2.537   2.261 -0.9420 -0.0906 -0.2839
   16CHTO   H28 6760   4.612   2.589   2.191 -0.0343  0.0378 -1.0440
   16CHTO   O10 6761   4.598   2.480   2.362 -0.0906 -0.5084 -0.0169
   16CHTO    H4 6762   4.558   2.544   2.417  0.2640  0.3961 -0.7852
   16CHTO    O5 6763   4.722   2.417   2.198  0.0206  0.0804  0.1100
   16CHTO   C10 6764   4.786   2.451   2.071  0.4374 -0.1080 -0.2863
   16CHTO   H23 6765   4.725   2.520   2.012 -0.4956  1.1516  2.0976
   16CHTO   C17 6766   4.803   2.318   1.994  0.5232  0.5101  0.4857
   16CHTO   O12 6767   4.891   2.233   2.069  0.0011  0.2308 -0.3702
   16CHTO    H6 6768   4.972   2.228   2.021  0.5998  1.3852  0.4868
   17CHTO  H203 6769   5.589   4.593   0.404  0.9464 -0.1151  0.3916
   17CHTO   O82 6770   5.549   4.639   0.332  0.8358  0.0245  0.5437
   17CHTO  C123 6771   5.469   4.753   0.377 -1.5211  0.1408  0.0572
   17CHTO  H227 6772   5.429   4.734   0.477 -2.5330 -0.2958 -0.4131
   17CHTO   O77 6773   5.576   4.857   0.379  0.0700  0.5988  0.1229
   17CHTO  C118 6774   5.521   4.986   0.419  0.7804  0.9832  0.4308
   17CHTO  H222 6775   5.479   4.979   0.521 -0.3419  0.2435 -0.0689
   17CHTO  C125 6776   5.647   5.074   0.410  0.5033 -0.5291 -0.1608
   17CHTO   O84 6777   5.742   5.040   0.512  0.5525 -0.1032 -0.4806
   17CHTO  H205 6778   5.705   5.049   0.598  1.4310  1.3775 -0.2370
   17CHTO  C114 6779   5.419   5.038   0.323  0.0942 -0.0084 -0.5348
   17CHTO  H218 6780   5.464   5.045   0.224  1.6347 -0.8667  0.0940
   17CHTO  C116 6781   5.299   4.934   0.313 -0.0218 -0.1952  1.0207
   17CHTO  H220 6782   5.248   4.929   0.411  0.2838 -4.3937  1.0444
   17CHTO   O79 6783   5.198   4.989   0.223  0.1790  0.4700  0.0853
   17CHTO  H201 6784   5.226   5.049   0.156  0.1181  3.2385  2.4313
   17CHTO  C120 6785   5.356   4.788   0.273 -0.4310 -0.4982  0.2480
   17CHTO  H224 6786   5.396   4.775   0.170 -0.6016  1.1286 -0.0306
   17CHTO   N21 6787   5.237   4.692   0.274  0.0255 -0.6120  0.3466
   17CHTO  H211 6788   5.151   4.737   0.228  0.5404 -0.0015 -0.0208
   17CHTO  H212 6789   5.223   4.668   0.379  0.5550  2.9242  1.2986
   17CHTO   O75 6790   5.375   5.164   0.382 -0.2555  0.2604 -0.5710
   17CHTO  C112 6791   5.311   5.282   0.274  0.1817 -0.2981 -0.3777
   17CHTO  H216 6792   5.241   5.239   0.201 -2.1698  3.6472 -0.6335
   17CHTO   O73 6793   5.431   5.341   0.207 -0.0180 -0.4305  0.0219
   17CHTO  C113 6794   5.413   5.468   0.134 -0.3456  0.2634  0.3354
   17CHTO  H217 6795   5.347   5.452   0.046 -1.1168 -0.0822  0.9671
   17CHTO  C124 6796   5.554   5.506   0.081 -0.0911  0.8502  0.1192
   17CHTO   O83 6797   5.595   5.428  -0.030 -0.0269  0.0048 -0.4571
   17CHTO  H204 6798   5.675   5.383  -0.008  0.3158  0.7547 -0.1442
   17CHTO  C109 6799   5.354   5.576   0.222 -0.2411 -0.2006 -0.2940
   17CHTO  H213 6800   5.423   5.592   0.306 -0.5477  1.8432 -0.4141
   17CHTO  C110 6801   5.218   5.529   0.276  0.8839 -0.0919  0.4221
   17CHTO  H214 6802   5.150   5.508   0.194  2.0824 -1.6202 -0.1918
   17CHTO   O78 6803   5.147   5.620   0.369  0.2415 -0.2170  0.2787
   17CHTO  H200 6804   5.068   5.587   0.406 -0.2517 -1.0723 -1.4496
   17CHTO  C111 6805   5.228   5.397   0.355 -0.3696  0.2877 -0.1538
   17CHTO  H215 6806   5.289   5.413   0.445  0.2775  0.0426 -0.5479
   17CHTO   N19 6807   5.098   5.329   0.405 -0.5669  0.0169  0.2581
   17CHTO  H207 6808   5.114   5.271   0.494  0.0234 -2.5330 -1.4590
   17CHTO  H208 6809   5.028   5.407   0.430  0.2322  0.3836  1.3780
   17CHTO   O74 6810   5.341   5.701   0.145 -0.2153  0.2328  0.0468
   17CHTO  C115 6811   5.379   5.831   0.221 -0.2824 -0.0059  0.3936
   17CHTO  H219 6812   5.346   5.827   0.325 -1.3473  0.9432  0.0967
   17CHTO   O76 6813   5.548   5.851   0.231  0.7299 -0.2464 -0.4648
   17CHTO  C122 6814   5.619   5.900   0.123 -0.2881  0.4829  0.0232
   17CHTO  H226 6815   5.621   5.816   0.054 -0.6257  0.4749  0.0215
   17CHTO  C126 6816   5.770   5.931   0.164  0.4047 -0.4663  0.1635
   17CHTO   O85 6817   5.843   5.813   0.197 -0.1987  0.4610 -0.8336
   17CHTO  H206 6818   5.852   5.755   0.124 -1.8946  0.9180 -1.4416
   17CHTO  C121 6819   5.547   6.024   0.059  0.4376 -0.4709  0.4856
   17CHTO  H225 6820   5.620   6.107   0.066 -0.3620  0.6260 -3.2098
   17CHTO   O81 6821   5.516   5.998  -0.079  0.2098  0.3657  0.3087
   17CHTO  H202 6822   5.566   6.045  -0.144 -0.5286 -2.5803 -2.5037
   17CHTO  C119 6823   5.422   6.069   0.134  0.6104  0.1158  0.7382
   17CHTO  H223 6824   5.460   6.089   0.234  0.5008 -1.1491  1.0485
   17CHTO  C117 6825   5.314   5.953   0.142 -0.1737  0.0893  0.2870
   17CHTO  H221 6826   5.278   5.907   0.050  0.3202  2.1838 -0.9952
   17CHTO   N20 6827   5.191   5.997   0.214 -0.4467 -0.2780  0.7095
   17CHTO  H209 6828   5.135   6.068   0.157  0.1941 -0.7802 -0.5600
   17CHTO  H210 6829   5.150   5.902   0.244  3.2848 -2.1657  0.1693
   17CHTO   O80 6830   5.364   6.211   0.092 -0.0756  0.6024 -0.0978
   17CHTO  C103 6831   5.415   6.350   0.158 -0.0168 -0.0903 -0.2076
   17CHTO  H190 6832   5.404   6.355   0.266  3.5035  1.1756  0.1664
   17CHTO  C101 6833   5.569   6.387   0.140 -0.6042  0.2073 -0.4101
   17CHTO  H188 6834   5.604   6.374   0.037 -0.0923 -2.5899  0.0749
   17CHTO   O68 6835   5.650   6.279   0.230 -0.0264  0.5910  0.0240
   17CHTO  H168 6836   5.730   6.322   0.254 -1.5615  2.2807  2.3203
   17CHTO   C99 6837   5.594   6.544   0.182 -0.7428  0.1608  0.5426
   17CHTO  H186 6838   5.581   6.550   0.292 -0.7831 -1.1910  0.6204
   17CHTO   N17 6839   5.730   6.599   0.147 -0.0276 -0.4765  0.6671
   17CHTO  H174 6840   5.746   6.686   0.209 -0.2124  2.3664 -3.0534
   17CHTO  H175 6841   5.800   6.518   0.157  0.2666 -0.0923  1.6975
   17CHTO   C97 6842   5.487   6.640   0.114  0.1817 -0.4024 -0.1333
   17CHTO  H184 6843   5.494   6.641   0.004 -0.8126  1.3376 -0.1914
   17CHTO   O64 6844   5.355   6.593   0.157  0.5406  0.3295  0.2916
   17CHTO  C104 6845   5.320   6.460   0.103  0.0006 -0.2934 -1.0123
   17CHTO  H191 6846   5.335   6.464  -0.005 -0.0799  1.4495 -0.9825
   17CHTO  C108 6847   5.173   6.428   0.127 -0.0024  0.1597 -0.1589
   17CHTO   O71 6848   5.085   6.539   0.121 -0.2864 -0.5538  0.0575
   17CHTO  H171 6849   5.001   6.502   0.142 -0.0346 -0.3900  1.3990
   17CHTO   O62 6850   5.486   6.777   0.170  0.1960 -0.2200  0.0486
   17CHTO   C91 6851   5.424   6.886   0.100  0.2539  0.0784 -0.0492
   17CHTO  H178 6852   5.349   6.850   0.030 -0.0652  1.9043 -0.6887
   17CHTO   C92 6853   5.539   6.952   0.018 -0.0125 -0.4852  0.0982
   17CHTO  H179 6854   5.604   6.874  -0.026  0.6223  0.2794 -0.3372
   17CHTO   O66 6855   5.485   7.036  -0.084  0.2465 -0.5808 -0.2210
   17CHTO  H166 6856   5.424   6.988  -0.136 -1.2698 -1.1851  2.0699
   17CHTO   C93 6857   5.625   7.049   0.107 -0.3613  0.4533  0.1623
   17CHTO  H180 6858   5.683   7.121   0.048 -0.4405  0.6989  0.3853
   17CHTO   N16 6859   5.737   6.972   0.172 -0.1270 -0.1576 -0.2250
   17CHTO  H172 6860   5.695   6.895   0.235  2.6620 -1.7086 -0.2127
   17CHTO  H173 6861   5.789   7.048   0.227  0.1495 -1.0898  0.8106
   17CHTO   C94 6862   5.540   7.125   0.214  0.0885  1.1067 -0.2931
   17CHTO  H181 6863   5.549   7.080   0.313  0.8888 -0.6504 -1.1499
   17CHTO   O61 6864   5.402   7.125   0.180 -0.1798  0.2870  0.4138
   17CHTO   C95 6865   5.341   6.994   0.178 -0.4320  0.1715 -0.5670
   17CHTO  H182 6866   5.320   6.960   0.279 -0.3758  0.4229 -0.4708
   17CHTO  C106 6867   5.197   7.019   0.114  0.0671 -0.4104  0.0206
   17CHTO   O69 6868   5.120   6.897   0.108  0.1557 -0.8858 -0.4701
   17CHTO  H169 6869   5.034   6.912   0.072 -0.7138 -1.3870  1.3567
   17CHTO   O63 6870   5.594   7.263   0.221  0.3972 -0.0004 -0.1444
   17CHTO   C96 6871   5.530   7.357   0.325 -0.7459  0.3308  0.7876
   17CHTO  H183 6872   5.481   7.296   0.401  2.1524 -1.5367  1.2737
   17CHTO   C98 6873   5.427   7.452   0.264  0.0960 -0.9026 -0.0475
   17CHTO  H185 6874   5.473   7.483   0.169  2.8205 -0.8395  1.2481
   17CHTO   O67 6875   5.312   7.386   0.226 -0.7125  0.2093 -0.3958
   17CHTO  H167 6876   5.253   7.431   0.168 -2.0225 -0.8326  0.0910
   17CHTO  C102 6877   5.399   7.577   0.364 -0.1170 -0.2196  0.4930
   17CHTO  H189 6878   5.341   7.536   0.448  0.5280 -2.8572 -0.3025
   17CHTO   N18 6879   5.307   7.683   0.302  0.1915 -0.0739  0.6299
   17CHTO  H176 6880   5.265   7.748   0.377  0.7347 -2.1218  2.7786
   17CHTO  H177 6881   5.361   7.740   0.228 -0.2033 -1.1497 -0.4959
   17CHTO  C105 6882   5.525   7.632   0.424 -0.7707  0.5614  0.6280
   17CHTO  H192 6883   5.587   7.678   0.346  0.5067 -0.8277  0.8090
   17CHTO   O65 6884   5.605   7.532   0.494  0.0378 -0.1307  0.3932
   17CHTO  C100 6885   5.654   7.441   0.387 -0.1528  0.4123 -0.5563
   17CHTO  H187 6886   5.707   7.497   0.308 -1.9108  1.6288 -0.9050
   17CHTO  C107 6887   5.759   7.348   0.463  0.6327 -0.1683  0.7450
   17CHTO   O70 6888   5.835   7.292   0.353  0.0706  0.0193 -0.6889
   17CHTO  H170 6889   5.791   7.212   0.330 -1.7875  1.2841 -1.6187
   17CHTO   O57 6890   5.468   7.742   0.552 -0.0656 -0.1379 -0.3062
   17CHTO   C85 6891   5.561   7.830   0.613 -0.7652  0.4807  0.0911
   17CHTO  H157 6892   5.601   7.893   0.530  1.1310 -1.2268 -0.3189
   17CHTO   C83 6893   5.675   7.764   0.682 -0.5787 -0.2817 -0.6788
   17CHTO  H155 6894   5.742   7.712   0.613 -0.4516  0.4509 -1.1161
   17CHTO   O56 6895   5.622   7.656   0.768 -0.3129  0.5346  0.0727
   17CHTO  H135 6896   5.674   7.578   0.767  0.9382  1.3628 -1.9079
   17CHTO   C81 6897   5.763   7.863   0.769 -0.7202  0.2460  0.1042
   17CHTO  H153 6898   5.806   7.940   0.705  0.5686 -0.2105  0.4233
   17CHTO   N14 6899   5.889   7.810   0.822  0.3550 -0.1897 -0.1578
   17CHTO  H141 6900   5.870   7.752   0.910  1.9284 -0.0007  0.3102
   17CHTO  H142 6901   5.958   7.886   0.850  0.6895 -1.4996  2.7227
   17CHTO   C79 6902   5.680   7.936   0.884  0.3678 -0.9464  0.1958
   17CHTO  H151 6903   5.742   8.013   0.929  1.5852 -0.2076 -2.6290
   17CHTO   O52 6904   5.567   8.000   0.814 -0.0627 -0.4190 -0.1553
   17CHTO   C86 6905   5.487   7.917   0.718  0.1855  0.4652  0.6391
   17CHTO  H158 6906   5.433   7.852   0.790  0.4815  0.0224  0.4600
   17CHTO   C90 6907   5.369   7.992   0.658  0.4114  0.3156 -0.2718
   17CHTO   O60 6908   5.417   8.103   0.573 -0.4396  0.4932  0.2781
   17CHTO  H138 6909   5.342   8.131   0.524  0.7387  1.7778 -0.8154
   17CHTO   O50 6910   5.636   7.846   0.993  0.0299 -0.2716  0.3925
   17CHTO   C73 6911   5.588   7.866   1.132  0.5695  0.1594  0.0033
   17CHTO  H145 6912   5.533   7.961   1.133 -0.4050 -0.3807 -0.4667
   17CHTO   C74 6913   5.702   7.867   1.237  0.5645 -0.0291  0.2009
   17CHTO  H146 6914   5.772   7.950   1.219  0.1728  0.4259  0.7667
   17CHTO   O54 6915   5.648   7.896   1.370 -0.4045 -0.0300 -0.1376
   17CHTO  H133 6916   5.707   7.858   1.432  1.2306  1.4402 -0.7477
   17CHTO   C75 6917   5.779   7.722   1.223 -0.6224  0.8484 -0.1022
   17CHTO  H147 6918   5.831   7.715   1.127  0.7423  0.7744  0.6306
   17CHTO   N13 6919   5.900   7.716   1.311  0.1235 -0.0350  0.1513
   17CHTO  H139 6920   5.864   7.761   1.403  1.6211 -0.9328  1.1945
   17CHTO  H140 6921   5.985   7.769   1.270  0.0547 -0.1974 -0.2059
   17CHTO   C76 6922   5.677   7.608   1.240 -0.0608 -0.3876 -0.7881
   17CHTO  H148 6923   5.650   7.602   1.346  0.9400 -2.1406 -0.6164
   17CHTO   O49 6924   5.566   7.638   1.149  0.0489 -0.0476 -0.2318
   17CHTO   C77 6925   5.487   7.756   1.165 -0.7662  0.5125 -0.2324
   17CHTO  H149 6926   5.441   7.779   1.261 -0.6654  1.9807 -0.5228
   17CHTO   C88 6927   5.374   7.745   1.063 -0.0874 -0.3939 -0.5272
   17CHTO   O58 6928   5.304   7.871   1.064  0.1216  0.1435 -0.1410
   17CHTO  H136 6929   5.253   7.875   1.142  1.1908 -0.9297  0.6310
   17CHTO   O51 6930   5.733   7.461   1.197  0.2557 -0.3478 -0.6103
   17CHTO   C78 6931   5.633   7.364   1.145  0.0692  0.3224  0.2199
   17CHTO  H150 6932   5.544   7.413   1.101  0.1263 -0.2742 -0.5763
   17CHTO   C80 6933   5.599   7.280   1.264  0.0762 -0.3042 -0.1199
   17CHTO  H152 6934   5.693   7.253   1.316 -0.5218 -4.2896 -1.0142
   17CHTO   O55 6935   5.518   7.363   1.350 -0.6357 -0.2097 -0.1787
   17CHTO  H134 6936   5.484   7.312   1.421 -0.5605 -0.0233 -0.0104
   17CHTO   C84 6937   5.525   7.147   1.225  0.0515 -0.1440 -0.5170
   17CHTO  H156 6938   5.426   7.180   1.192  0.2162  0.7543 -0.1109
   17CHTO   N15 6939   5.516   7.050   1.337  0.0966  0.4076 -0.0970
   17CHTO  H143 6940   5.577   7.072   1.422 -2.2611 -0.8696  2.0186
   17CHTO  H144 6941   5.419   7.033   1.380  1.1033 -0.5844  1.8631
   17CHTO   C87 6942   5.588   7.090   1.098 -0.0481  0.2188  0.2875
   17CHTO  H159 6943   5.679   7.037   1.126 -1.5830 -1.7535  1.6387
   17CHTO   O53 6944   5.608   7.191   0.992  0.3342 -0.6928  0.2643
   17CHTO   C82 6945   5.706   7.280   1.037  0.1287 -0.7437 -0.4951
   17CHTO  H154 6946   5.786   7.219   1.080 -1.1350 -1.6276  0.6024
   17CHTO   C89 6947   5.768   7.372   0.923  0.6999  0.4399  0.0121
   17CHTO   O59 6948   5.879   7.447   0.973  0.1898  0.1862 -0.2818
   17CHTO  H137 6949   5.939   7.477   0.908  0.6666 -2.9072 -1.3695
   17CHTO   O45 6950   5.511   6.974   1.016  0.8504 -0.1269 -0.9428
   17CHTO   C67 6951   5.370   6.947   1.022  0.5525  0.4492  0.6283
   17CHTO  H124 6952   5.324   6.958   1.120  0.3822  0.2852  0.5681
   17CHTO   C65 6953   5.284   7.027   0.917  0.8637  0.2749 -0.3512
   17CHTO  H122 6954   5.350   7.072   0.844  0.4074  1.1983 -0.2032
   17CHTO   O44 6955   5.228   7.134   0.992  0.0716 -0.4598 -0.4699
   17CHTO  H102 6956   5.145   7.113   1.030  0.4665 -1.3318 -0.0943
   17CHTO   C63 6957   5.199   6.929   0.831  0.1374  0.2978 -0.1835
   17CHTO  H120 6958   5.264   6.869   0.767  0.2052  1.5916 -1.3413
   17CHTO   N11 6959   5.105   6.998   0.736 -0.3394  0.1810 -0.1281
   17CHTO  H108 6960   5.047   6.928   0.680 -2.7282  1.9939 -0.0220
   17CHTO  H109 6961   5.047   7.075   0.782  0.0309 -0.9575  2.3097
   17CHTO   C61 6962   5.125   6.823   0.917 -0.3852  0.3115 -0.4552
   17CHTO  H118 6963   5.083   6.753   0.843 -0.3411 -1.2649  0.9767
   17CHTO   O40 6964   5.219   6.750   0.996  0.5008  0.0251  0.3655
   17CHTO   C68 6965   5.360   6.788   1.000 -0.0631 -0.0400  0.5712
   17CHTO  H125 6966   5.408   6.755   0.906  2.7474  2.2804  1.1490
   17CHTO   C72 6967   5.425   6.699   1.116  0.0744  0.3558 -0.9676
   17CHTO   O48 6968   5.569   6.712   1.123 -0.2370 -0.3236  0.5054
   17CHTO  H105 6969   5.595   6.802   1.137 -0.7034  0.3666 -2.6633
   17CHTO   O38 6970   5.009   6.881   0.989  0.6900  0.6791 -0.6479
   17CHTO   C55 6971   4.943   6.808   1.091 -0.3901  0.2742  0.0316
   17CHTO  H112 6972   5.019   6.802   1.170  1.4471  0.0326 -1.7235
   17CHTO   C56 6973   4.898   6.659   1.049  0.7323  0.7119 -0.2341
   17CHTO  H113 6974   4.860   6.678   0.947 -0.4238  1.1918  0.2795
   17CHTO   O42 6975   5.009   6.566   1.035  0.2079 -0.0183  0.5077
   17CHTO  H100 6976   5.036   6.546   1.122  0.1403 -1.0120  0.3058
   17CHTO   C57 6977   4.783   6.603   1.133  0.1480 -0.3606  0.6694
   17CHTO  H114 6978   4.835   6.570   1.223 -1.2450  0.0385  1.6365
   17CHTO   N10 6979   4.724   6.478   1.067  0.3347 -0.4872 -0.3648
   17CHTO  H106 6980   4.633   6.482   1.009  0.3672  0.6821 -0.3367
   17CHTO  H107 6981   4.703   6.412   1.150 -5.1578  0.2487 -0.9563
   17CHTO   C58 6982   4.671   6.700   1.178 -0.2298 -0.6064 -0.6830
   17CHTO  H115 6983   4.605   6.725   1.092  0.4736  1.8781 -0.5325
   17CHTO   O37 6984   4.730   6.813   1.237 -0.5431 -0.1799  0.4009
   17CHTO   C59 6985   4.819   6.885   1.141 -0.3428  0.2078 -0.3382
   17CHTO  H116 6986   4.756   6.912   1.056 -0.8323  0.8704  0.2338
   17CHTO   C70 6987   4.867   7.021   1.191 -0.3816 -0.3048 -0.6149
   17CHTO   O46 6988   4.770   7.129   1.178  0.6890 -1.1711 -0.2319
   17CHTO  H103 6989   4.721   7.133   1.258  1.5218 -0.7544  0.2686
   17CHTO   O39 6990   4.572   6.628   1.292 -0.7995 -0.6810 -0.1594
   17CHTO   C60 6991   4.449   6.699   1.313 -0.1376  0.1434  0.1414
   17CHTO  H117 6992   4.464   6.806   1.296 -0.2346  0.1595  0.1537
   17CHTO   C62 6993   4.327   6.664   1.221 -0.5639 -0.5765 -0.3936
   17CHTO  H119 6994   4.356   6.693   1.118 -0.4928 -3.5228 -1.2359
   17CHTO   O43 6995   4.305   6.523   1.217 -0.4395 -0.3286  0.3703
   17CHTO  H101 6996   4.213   6.510   1.209 -0.0707 -1.8670 -1.9772
   17CHTO   C66 6997   4.198   6.757   1.265  0.0488 -0.3913 -0.9261
   17CHTO  H123 6998   4.221   6.862   1.250 -0.8103 -0.2466 -1.2949
   17CHTO   N12 6999   4.084   6.737   1.167 -0.2568 -0.1292 -0.5388
   17CHTO  H110 7000   3.993   6.777   1.210 -0.5699 -1.3540 -0.0345
   17CHTO  H111 7001   4.114   6.800   1.085  1.2512  0.4810  0.4472
   17CHTO   C69 7002   4.158   6.735   1.417 -0.1983 -0.2758  0.1030
   17CHTO  H126 7003   4.120   6.631   1.429  0.5150 -0.6328 -0.7324
   17CHTO   O41 7004   4.280   6.762   1.505  0.4744  0.8769 -1.0342
   17CHTO   C64 7005   4.402   6.683   1.462 -0.9971  0.3872 -0.7112
   17CHTO  H121 7006   4.380   6.575   1.476 -1.1166  0.3910 -0.8854
   17CHTO   C71 7007   4.525   6.715   1.553 -0.3274 -0.2943  0.0323
   17CHTO   O47 7008   4.506   6.664   1.693 -0.9435 -0.0193  0.0521
   17CHTO  H104 7009   4.517   6.571   1.694  0.0058  0.0898  0.1136
   17CHTO   O34 7010   4.055   6.848   1.455  0.4798  0.5731 -0.1160
   17CHTO   C49 7011   3.918   6.895   1.509 -0.7357 -0.3004 -0.9173
   17CHTO   H91 7012   3.946   6.986   1.562 -0.8576  0.1951 -1.6896
   17CHTO   C47 7013   3.835   6.807   1.608 -0.2201  0.2543  0.4800
   17CHTO   H89 7014   3.771   6.877   1.666  1.4948  2.5809 -0.3825
   17CHTO   O33 7015   3.920   6.745   1.703 -0.3777  0.0842 -0.4884
   17CHTO   H70 7016   3.888   6.662   1.735 -1.1594  0.0809 -1.2634
   17CHTO   C45 7017   3.739   6.691   1.545 -0.5517  0.6067  0.1540
   17CHTO   H87 7018   3.777   6.592   1.574  0.4249  0.4817 -1.4717
   17CHTO    N8 7019   3.597   6.705   1.589  0.0099  0.1235 -0.1464
   17CHTO   H75 7020   3.525   6.700   1.508 -0.8252 -1.0468  0.6527
   17CHTO   H76 7021   3.553   6.629   1.652 -1.0209  0.5316 -0.3602
   17CHTO   C43 7022   3.772   6.692   1.385  0.2238 -0.9151  0.2160
   17CHTO   H85 7023   3.875   6.659   1.372  1.1170  1.7830  0.0892
   17CHTO   O29 7024   3.750   6.818   1.332 -0.7144  0.5022 -0.4871
   17CHTO   C50 7025   3.820   6.929   1.392 -0.3567  0.0067 -0.3289
   17CHTO   H92 7026   3.882   6.978   1.315  0.9644  0.9099  1.2600
   17CHTO   C54 7027   3.736   7.051   1.434 -0.9051  0.4221  0.4270
   17CHTO   O36 7028   3.671   7.102   1.317  0.2904  0.2010 -0.0265
   17CHTO   H72 7029   3.730   7.170   1.289 -2.0308  3.4238  2.4315
   17CHTO   O27 7030   3.698   6.594   1.316 -0.4277  0.2342  0.2348
   17CHTO   C37 7031   3.660   6.452   1.315  0.5634  0.4019 -0.1101
   17CHTO   H79 7032   3.649   6.410   1.416  0.7581 -2.8217 -1.3931
   17CHTO   C38 7033   3.528   6.438   1.239 -0.4930 -0.3660  0.3219
   17CHTO   H80 7034   3.543   6.492   1.144 -2.4141 -1.3313 -0.5441
   17CHTO   O31 7035   3.438   6.517   1.321 -0.5871 -0.3326  0.5264
   17CHTO   H68 7036   3.347   6.515   1.296 -0.8060  1.8922  1.0308
   17CHTO   C39 7037   3.489   6.276   1.228  0.3933 -0.4936 -0.1914
   17CHTO   H81 7038   3.481   6.234   1.329  0.6886 -0.4165 -0.1359
   17CHTO    N7 7039   3.362   6.254   1.139 -0.6523 -0.4630  0.4351
   17CHTO   H73 7040   3.280   6.300   1.192 -0.9094 -1.5827  1.0239
   17CHTO   H74 7041   3.371   6.316   1.051 -1.2061 -1.2967 -0.2184
   17CHTO   C40 7042   3.621   6.198   1.174  0.4978  0.2099 -0.1456
   17CHTO   H82 7043   3.639   6.214   1.068 -1.1622 -0.1524 -0.4915
   17CHTO   O26 7044   3.734   6.236   1.255  0.4070 -0.3536  0.5699
   17CHTO   C41 7045   3.768   6.369   1.243 -0.0825 -0.0942 -0.8055
   17CHTO   H83 7046   3.761   6.390   1.135 -1.3470 -1.9936 -1.1189
   17CHTO   C52 7047   3.917   6.385   1.280 -0.0347  0.3940  1.1213
   17CHTO   O35 7048   4.000   6.376   1.166 -0.1336  0.2284  0.6339
   17CHTO   H71 7049   4.016   6.465   1.141  0.2281  0.7373  2.6180
   17CHTO   O28 7050   3.600   6.055   1.191  0.2415  0.1808 -0.2779
   17CHTO   C42 7051   3.715   5.963   1.175  0.6485 -0.7266  0.5568
   17CHTO   H84 7052   3.665   5.871   1.146  1.8253 -1.8908  2.1634
   17CHTO   C44 7053   3.788   5.924   1.307  0.0089 -0.7458 -0.5210
   17CHTO   H86 7054   3.820   6.018   1.353 -3.2094  1.7186 -3.0679
   17CHTO   O32 7055   3.695   5.862   1.405  0.2121  0.2036  0.6860
   17CHTO   H69 7056   3.606   5.889   1.389 -0.0283 -0.7117  0.4331
   17CHTO   C48 7057   3.906   5.821   1.279 -0.2217 -0.1692  0.0213
   17CHTO   H90 7058   3.846   5.737   1.243 -0.8109  0.9799 -1.6972
   17CHTO    N9 7059   3.990   5.773   1.396 -0.5475 -0.1567 -0.1357
   17CHTO   H77 7060   4.053   5.856   1.425  1.7547 -1.9017  0.0088
   17CHTO   H78 7061   4.054   5.687   1.383 -1.7679 -1.2365  0.8824
   17CHTO   C51 7062   3.991   5.882   1.166  0.3685 -1.2251  0.5585
   17CHTO   H93 7063   4.018   5.981   1.204 -0.3615 -1.2689  1.2180
   17CHTO   O30 7064   3.913   5.890   1.041  0.2097  0.4489  0.0420
   17CHTO   C46 7065   3.812   6.000   1.061 -0.1104  0.3835  0.5072
   17CHTO   H88 7066   3.866   6.089   1.091  0.4420 -0.5996  2.4964
   17CHTO   C53 7067   3.733   6.008   0.929  0.3434 -0.2684  0.1950
   17CHTO   O72 7068   3.821   6.049   0.820 -0.7449  0.0781 -0.4973
   17CHTO  H199 7069   3.888   5.987   0.798 -1.9695 -1.5283  0.2548
   17CHTO   O22 7070   4.101   5.793   1.128 -0.3192 -0.3157  0.2017
   17CHTO   C31 7071   4.203   5.840   1.031  0.3414 -0.1024 -0.5581
   17CHTO   H59 7072   4.301   5.804   1.069 -1.0155 -2.1025  1.1383
   17CHTO   C29 7073   4.185   5.785   0.884  0.1737 -0.4220  0.6379
   17CHTO   H57 7074   4.077   5.771   0.866  0.6042 -2.3308 -0.5709
   17CHTO   O21 7075   4.235   5.652   0.894  0.2800 -0.3241  0.6105
   17CHTO   H37 7076   4.223   5.598   0.819 -1.9103 -0.6697  1.1731
   17CHTO   C27 7077   4.247   5.861   0.759 -0.6212 -0.1050  0.1963
   17CHTO   H55 7078   4.351   5.829   0.745 -0.5569  0.1786  0.0126
   17CHTO    N5 7079   4.175   5.825   0.632  0.3339 -1.0572 -0.2945
   17CHTO   H43 7080   4.165   5.916   0.575 -1.4638 -1.1299 -0.1281
   17CHTO   H44 7081   4.071   5.797   0.642  0.1313 -0.0518  0.5896
   17CHTO   C25 7082   4.258   6.013   0.790  0.0450 -0.4653  0.6321
   17CHTO   H53 7083   4.159   6.058   0.782 -0.1785 -0.0213  4.7389
   17CHTO   O17 7084   4.302   6.037   0.929  0.0604  0.1499  0.0575
   17CHTO   C32 7085   4.217   6.002   1.036 -0.0284 -0.3756 -0.0998
   17CHTO   H60 7086   4.122   6.053   1.020  0.3962  1.1666  2.0581
   17CHTO   C36 7087   4.284   6.053   1.167 -0.0847 -0.8746  0.4154
   17CHTO   O25 7088   4.305   6.193   1.165  0.5730  0.5346  0.3461
   17CHTO   H40 7089   4.275   6.229   1.083 -0.9446 -2.7414 -0.5880
   17CHTO   O15 7090   4.342   6.092   0.704  0.5398 -0.3051  0.1714
   17CHTO   C19 7091   4.380   6.234   0.676  0.2050 -0.0039 -0.3391
   17CHTO   H47 7092   4.417   6.245   0.573 -0.7690 -1.5585 -0.8854
   17CHTO   C20 7093   4.258   6.332   0.686  0.0721  0.3234  0.5439
   17CHTO   H48 7094   4.217   6.332   0.788  0.8018  1.1608  0.8416
   17CHTO   O19 7095   4.153   6.283   0.599 -0.0801  0.5998 -0.4167
   17CHTO   H35 7096   4.103   6.211   0.631  1.6959 -0.2438  0.4864
   17CHTO   C21 7097   4.296   6.482   0.644 -0.2148  0.7885 -0.2481
   17CHTO   H49 7098   4.338   6.483   0.543 -2.4918  1.8250 -1.2154
   17CHTO    N4 7099   4.185   6.582   0.654 -0.3694  0.1503  0.2414
   17CHTO   H41 7100   4.173   6.610   0.758  0.9134  1.2873  0.0945
   17CHTO   H42 7101   4.101   6.520   0.627  0.1549 -0.7755  0.7022
   17CHTO   C22 7102   4.420   6.530   0.730 -0.2405  0.3031 -0.4459
   17CHTO   H50 7103   4.397   6.547   0.835  4.0829  1.9781  0.3289
   17CHTO   O14 7104   4.524   6.429   0.729 -0.7674  0.2927 -0.0961
   17CHTO   C23 7105   4.493   6.292   0.765  0.1652  0.0039 -0.2810
   17CHTO   H51 7106   4.468   6.291   0.872 -1.7722  0.1442 -0.7110
   17CHTO   C34 7107   4.619   6.210   0.750 -0.4664  0.0115  0.4176
   17CHTO   O23 7108   4.674   6.229   0.620 -0.3233 -0.7798  0.1549
   17CHTO   H38 7109   4.631   6.289   0.561  0.8206  1.6267  1.6814
   17CHTO   O16 7110   4.491   6.647   0.683  0.5938 -0.2855 -0.2165
   17CHTO   C24 7111   4.552   6.757   0.795 -0.0007 -0.0294 -0.0568
   17CHTO   H52 7112   4.603   6.709   0.878  0.6195  1.9697  0.7496
   17CHTO   C26 7113   4.429   6.843   0.841 -0.4712 -0.2023 -0.5162
   17CHTO   H54 7114   4.388   6.884   0.746  1.4530  3.2172  0.0347
   17CHTO   O20 7115   4.327   6.760   0.903  0.5860 -0.2407 -0.7239
   17CHTO   H36 7116   4.264   6.819   0.940  2.5413  0.4917  1.6285
   17CHTO   C30 7117   4.484   6.962   0.932  0.4197  0.8293  0.2147
   17CHTO   H58 7118   4.530   6.922   1.023  0.4259 -0.3330 -0.2870
   17CHTO    N6 7119   4.373   7.048   0.981  0.5434 -0.3199 -0.0307
   17CHTO   H45 7120   4.307   6.993   1.047 -1.1217  1.1911 -0.3925
   17CHTO   H46 7121   4.310   7.064   0.894 -0.9932 -0.1237  1.0877
   17CHTO   C33 7122   4.591   7.045   0.850  0.4248  0.2851  0.2506
   17CHTO   H61 7123   4.544   7.090   0.761 -0.2591  1.2796  1.0960
   17CHTO   O18 7124   4.694   6.949   0.816  0.0730  0.2624  0.4061
   17CHTO   C28 7125   4.650   6.853   0.725  0.1433  0.1549  0.0228
   17CHTO   H56 7126   4.602   6.889   0.634  2.2102 -0.5942 -1.3967
   17CHTO   C35 7127   4.778   6.792   0.654  0.5700  0.0270 -0.0374
   17CHTO   O24 7128   4.836   6.862   0.541 -0.2567  0.8004 -0.1749
   17CHTO   H39 7129   4.885   6.942   0.552  1.5715 -0.1947 -0.8592
   17CHTO    O9 7130   4.648   7.159   0.917  0.1397 -0.2691  0.3505
   17CHTO   C13 7131   4.738   7.250   0.808 -0.2426 -0.2031 -0.8819
   17CHTO   H26 7132   4.788   7.188   0.730  0.5058 -1.6854  0.7031
   17CHTO   C11 7133   4.846   7.332   0.886 -0.0083  0.0169  0.9200
   17CHTO   H24 7134   4.922   7.270   0.934 -0.3013  0.5837  2.1375
   17CHTO    O8 7135   4.778   7.396   0.998 -0.1239 -0.2424 -0.1562
   17CHTO    H3 7136   4.825   7.473   1.025  0.1371 -0.5248  0.1857
   17CHTO    C9 7137   4.917   7.436   0.787  0.1475  0.1059 -0.5230
   17CHTO   H22 7138   4.949   7.373   0.703 -1.5434 -0.1294 -1.0043
   17CHTO    N2 7139   5.035   7.506   0.844 -0.2828 -0.0702 -0.0691
   17CHTO   H10 7140   5.006   7.589   0.907  2.5188 -0.5900  2.0469
   17CHTO   H11 7141   5.103   7.546   0.770  0.7993 -3.0702 -0.7735
   17CHTO    C7 7142   4.802   7.533   0.733 -0.4553 -0.3926  0.8878
   17CHTO   H20 7143   4.851   7.587   0.649  0.1270 -0.8443  0.9394
   17CHTO    O4 7144   4.697   7.461   0.668 -0.1269 -0.3128 -0.0635
   17CHTO   C14 7145   4.639   7.340   0.726  0.6887  0.1516  0.3146
   17CHTO   H27 7146   4.594   7.280   0.644 -3.5964 -0.6587  3.0783
   17CHTO   C18 7147   4.516   7.384   0.811 -0.2385  0.7289 -0.3104
   17CHTO   O13 7148   4.418   7.443   0.721 -0.5987 -0.0791 -0.2559
   17CHTO    H7 7149   4.355   7.487   0.774  1.1820  0.1894  1.6945
   17CHTO    O2 7150   4.747   7.617   0.846 -0.1007 -0.2620 -0.3231
   17CHTO    C1 7151   4.716   7.756   0.815 -0.0066  0.1266 -0.7190
   17CHTO   H14 7152   4.660   7.758   0.719 -1.4435  0.5032  0.1252
   17CHTO    C2 7153   4.847   7.849   0.797  0.6721  0.1267  0.0331
   17CHTO   H15 7154   4.908   7.824   0.885  2.1485  1.2377 -0.6429
   17CHTO    O6 7155   4.921   7.807   0.685 -0.5679 -0.0199  0.4457
   17CHTO    H1 7156   4.869   7.839   0.613  0.9583  0.6484 -0.3937
   17CHTO    C3 7157   4.807   8.002   0.783 -0.0497  0.4324  0.3714
   17CHTO   H16 7158   4.750   8.012   0.689 -2.8448  0.5169  2.0208
   17CHTO    N1 7159   4.924   8.092   0.773  0.1542 -0.1422 -0.8053
   17CHTO    H8 7160   4.898   8.197   0.768  0.5458  0.0049  0.1562
   17CHTO    H9 7161   4.988   8.051   0.695 -0.1520 -1.0834 -0.5694
   17CHTO    C4 7162   4.704   8.033   0.905  0.2763  0.7134 -0.3979
   17CHTO   H17 7163   4.759   8.017   0.998  2.1024  2.3303 -1.1721
   17CHTO    O1 7164   4.586   7.946   0.897  0.0704 -0.5053 -0.1260
   17CHTO    C5 7165   4.629   7.810   0.928  0.1156 -0.7803  0.0668
   17CHTO   H18 7166   4.688   7.796   1.018  1.0158 -1.2276 -0.5833
   17CHTO   C16 7167   4.495   7.737   0.951 -0.5737  0.0842  0.1120
   17CHTO   O11 7168   4.514   7.618   1.026  1.0189 -0.8246 -0.0758
   17CHTO    H5 7169   4.519   7.640   1.117 -0.6709 -2.2908  0.3916
   17CHTO    O3 7170   4.644   8.167   0.908  0.0175  0.0167 -0.1805
   17CHTO    C6 7171   4.588   8.232   1.029  0.0618 -0.6456  0.3452
   17CHTO   H19 7172   4.485   8.256   1.002  0.3445  0.2263  0.0034
   17CHTO    C8 7173   4.591   8.145   1.159  0.8368 -0.4711 -0.0078
   17CHTO   H21 7174   4.687   8.095   1.174 -0.3252 -2.2217  1.9019
   17CHTO    O7 7175   4.485   8.052   1.147  0.8102  0.1680  0.1586
   17CHTO    H2 7176   4.511   7.965   1.172 -2.3407 -1.3411 -1.5984
   17CHTO   C12 7177   4.557   8.232   1.286 -0.0987 -0.3862 -0.1117
   17CHTO   H25 7178   4.455   8.275   1.280  0.2206  0.2927 -0.8822
   17CHTO    N3 7179   4.571   8.150   1.414 -0.2482 -0.2736 -0.4545
   17CHTO   H12 7180   4.673   8.117   1.425 -0.5762 -0.7602  1.2519
   17CHTO   H13 7181   4.511   8.061   1.402 -1.2129  0.2560  0.3917
   17CHTO   C15 7182   4.660   8.351   1.277  0.6262  0.0763 -0.1071
   17CHTO   H28 7183   4.761   8.309   1.282  0.2651 -0.5969  1.4516
   17CHTO   O10 7184   4.656   8.450   1.392 -0.0675  0.8066 -0.1854
   17CHTO    H4 7185   4.568   8.461   1.422 -0.5169 -0.2554 -1.0814
   17CHTO    O5 7186   4.639   8.437   1.164  0.1944  0.1531 -0.2933
   17CHTO   C10 7187   4.668   8.362   1.042  0.0386  0.1319 -0.9144
   17CHTO   H23 7188   4.775   8.341   1.041  0.5827  2.2695  2.6516
   17CHTO   C17 7189   4.649   8.464   0.928  0.1526  0.0843 -0.2245
   17CHTO   O12 7190   4.758   8.556   0.925 -0.0789  0.7976  0.0924
   17CHTO    H6 7191   4.729   8.602   0.849  0.3587  0.2989 -0.3689
   18CHTO  H203 7192   6.219   8.164   1.785 -0.7015 -1.3185 -1.4419
   18CHTO   O82 7193   6.142   8.214   1.805  0.4907  0.0206 -0.1001
   18CHTO  C123 7194   6.058   8.245   1.696 -0.3516 -0.5255 -0.5708
   18CHTO  H227 7195   5.958   8.276   1.728  0.0321  0.1686 -0.0289
   18CHTO   O77 7196   6.127   8.370   1.649 -0.1405 -0.3525  0.2680
   18CHTO  C118 7197   6.079   8.423   1.523 -0.0373  0.3640 -0.1190
   18CHTO  H222 7198   5.971   8.442   1.537 -0.1225 -0.8031  0.8603
   18CHTO  C125 7199   6.157   8.562   1.493 -0.1351  0.3009 -0.6086
   18CHTO   O84 7200   6.298   8.549   1.469 -0.6378  0.0379 -0.1942
   18CHTO  H205 7201   6.316   8.495   1.394 -0.4255 -1.3810  0.8608
   18CHTO  C114 7202   6.101   8.315   1.417  0.6455 -0.2185  0.1770
   18CHTO  H218 7203   6.207   8.292   1.415  0.6660 -0.5599  3.0154
   18CHTO  C116 7204   6.017   8.189   1.446  0.5901  0.3895  0.2046
   18CHTO  H220 7205   5.909   8.215   1.441  0.6374  0.6518  0.5446
   18CHTO   O79 7206   6.046   8.093   1.342  0.1813  0.0541 -0.3910
   18CHTO  H201 7207   6.126   8.046   1.348 -0.2044 -0.9666 -2.6546
   18CHTO  C120 7208   6.051   8.131   1.591  0.5782  0.0322 -0.2055
   18CHTO  H224 7209   6.153   8.088   1.584  1.0337  0.7870  1.5567
   18CHTO   N21 7210   5.956   8.028   1.631  0.5219  0.0773 -0.1027
   18CHTO  H211 7211   5.883   8.069   1.699  0.7302 -0.4897  0.4719
   18CHTO  H212 7212   5.905   7.981   1.548  0.1073 -0.3144  0.3657
   18CHTO   O75 7213   6.062   8.376   1.293  0.2307  0.4975  0.2697
   18CHTO  C112 7214   6.200   8.372   1.180 -0.1612 -0.6970  0.1290
   18CHTO  H216 7215   6.275   8.293   1.198  1.3300  0.7728  0.4434
   18CHTO   O73 7216   6.262   8.502   1.179 -0.2261  0.2515 -0.1920
   18CHTO  C113 7217   6.372   8.495   1.086 -0.0002 -0.1181 -0.0786
   18CHTO  H217 7218   6.433   8.409   1.120  0.5060 -0.7922 -2.5672
   18CHTO  C124 7219   6.456   8.631   1.104  0.0807 -0.1000 -0.4902
   18CHTO   O83 7220   6.585   8.628   1.046 -0.0248 -0.1409 -0.3650
   18CHTO  H204 7221   6.631   8.550   1.073 -0.1717  0.1975  0.9105
   18CHTO  C109 7222   6.330   8.468   0.936 -0.1781  0.1638 -0.2521
   18CHTO  H213 7223   6.267   8.552   0.904 -1.0949 -1.8103 -3.9228
   18CHTO  C110 7224   6.252   8.331   0.931  0.2557 -0.1711 -0.8672
   18CHTO  H214 7225   6.323   8.250   0.948  2.7663  2.3050  0.8074
   18CHTO   O78 7226   6.201   8.300   0.797  0.4614  0.2997 -0.4016
   18CHTO  H200 7227   6.269   8.273   0.739 -0.0281 -1.0055 -0.3760
   18CHTO  C111 7228   6.143   8.329   1.043  0.2414 -0.7855  0.4749
   18CHTO  H215 7229   6.060   8.397   1.017  1.3131  0.2637 -0.2491
   18CHTO   N19 7230   6.080   8.195   1.053 -0.1138 -0.5374 -0.3813
   18CHTO  H207 7231   6.156   8.118   1.063 -1.1300 -2.2543 -4.7539
   18CHTO  H208 7232   6.004   8.188   1.129 -0.9050  0.5642 -1.0524
   18CHTO   O74 7233   6.447   8.463   0.853  0.2234 -0.3569  0.3382
   18CHTO  C115 7234   6.423   8.514   0.697  0.5821 -0.5594 -0.0086
   18CHTO  H219 7235   6.330   8.474   0.656  0.1489  0.2546  0.1742
   18CHTO   O76 7236   6.407   8.664   0.686 -0.2078  0.3360  0.2400
   18CHTO  C122 7237   6.383   8.720   0.557 -0.4647  0.4505 -0.5256
   18CHTO  H226 7238   6.398   8.826   0.575  3.9101  0.0766 -1.6265
   18CHTO  C126 7239   6.243   8.695   0.489 -0.3616  0.6937 -0.1505
   18CHTO   O85 7240   6.239   8.735   0.352  0.2201  0.4140  0.8987
   18CHTO  H206 7241   6.152   8.766   0.341 -1.0247 -3.0373  0.5502
   18CHTO  C121 7242   6.497   8.673   0.459 -1.1307 -0.0355  0.5654
   18CHTO  H225 7243   6.468   8.696   0.355 -1.4847 -1.1888  0.4027
   18CHTO   O81 7244   6.621   8.734   0.493 -0.0208  0.0269  0.0835
   18CHTO  H202 7245   6.627   8.822   0.524 -2.0294  0.0479  0.4746
   18CHTO  C119 7246   6.523   8.518   0.467 -0.0538  0.0713  0.3045
   18CHTO  H223 7247   6.432   8.470   0.431  1.1599 -0.6208 -1.9464
   18CHTO  C117 7248   6.548   8.466   0.607 -0.5287 -0.1707 -0.4744
   18CHTO  H221 7249   6.637   8.499   0.661  0.7977 -1.5105 -1.8318
   18CHTO   N20 7250   6.561   8.316   0.612 -0.1864 -0.1348 -0.2566
   18CHTO  H209 7251   6.650   8.287   0.558  0.7695 -0.1266  1.2733
   18CHTO  H210 7252   6.576   8.286   0.714  1.6926  1.2812 -0.0837
   18CHTO   O80 7253   6.638   8.479   0.352 -0.8172  0.1408 -0.1678
   18CHTO  C103 7254   6.609   8.373   0.234 -0.8022  0.0624 -0.1283
   18CHTO  H190 7255   6.701   8.366   0.176 -1.4198  1.4905 -1.2997
   18CHTO  C101 7256   6.546   8.239   0.272  0.4132  0.6368 -0.1097
   18CHTO  H188 7257   6.478   8.258   0.355  0.7316 -1.3332  0.6195
   18CHTO   O68 7258   6.646   8.146   0.329  0.0029  0.2260 -0.4024
   18CHTO  H168 7259   6.737   8.161   0.314 -0.0831  0.3503 -0.8014
   18CHTO   C99 7260   6.469   8.168   0.150 -0.3429 -0.0152  0.5234
   18CHTO  H186 7261   6.544   8.144   0.072 -0.4896 -0.3983  0.5001
   18CHTO   N17 7262   6.409   8.038   0.179 -0.6049 -0.1246 -0.1257
   18CHTO  H174 7263   6.367   8.045   0.279  0.2513 -1.5553  0.3400
   18CHTO  H175 7264   6.485   7.962   0.181  0.6050  0.8626 -4.2438
   18CHTO   C97 7265   6.373   8.265   0.086 -0.0157  0.5299 -0.2097
   18CHTO  H184 7266   6.294   8.299   0.155  1.5872  0.0579  1.8955
   18CHTO   O64 7267   6.448   8.371   0.029  0.5009  0.0299  0.1855
   18CHTO  C104 7268   6.507   8.450   0.137 -0.1948 -0.0028  0.0356
   18CHTO  H191 7269   6.421   8.487   0.193 -0.2530  1.7292 -1.1630
   18CHTO  C108 7270   6.572   8.573   0.068  0.2520 -0.3462  0.2815
   18CHTO   O71 7271   6.476   8.648  -0.012 -0.1300  0.4750 -0.2548
   18CHTO  H171 7272   6.463   8.732   0.028  2.3492  0.5070  0.6074
   18CHTO   O62 7273   6.300   8.217  -0.033 -0.2163  0.3340 -0.2431
   18CHTO   C91 7274   6.153   8.238  -0.018 -0.2701  0.4627  0.0362
   18CHTO  H178 7275   6.116   8.236   0.085 -0.9090 -0.8944 -0.2040
   18CHTO   C92 7276   6.079   8.116  -0.085 -0.7175  0.2419 -0.0293
   18CHTO  H179 7277   6.118   8.111  -0.187 -0.9968  1.4854 -0.1932
   18CHTO   O66 7278   6.122   7.993  -0.026  0.1279  0.0590  0.7972
   18CHTO  H166 7279   6.118   7.930  -0.095  1.3761  0.1108  0.6496
   18CHTO   C93 7280   5.920   8.125  -0.089 -0.1326  0.0481 -0.4911
   18CHTO  H180 7281   5.895   8.111   0.018  2.8454  1.1167  0.3877
   18CHTO   N16 7282   5.851   8.024  -0.173 -0.2968 -0.2443 -0.1699
   18CHTO  H172 7283   5.895   8.013  -0.271  0.2554 -0.8301  0.1328
   18CHTO  H173 7284   5.748   8.054  -0.172  0.1308  1.4222  3.3450
   18CHTO   C94 7285   5.874   8.274  -0.136 -0.5250 -0.2608 -0.0425
   18CHTO  H181 7286   5.886   8.286  -0.244 -1.5859 -1.1268 -0.2725
   18CHTO   O61 7287   5.946   8.374  -0.059  0.2737 -0.1074  0.3904
   18CHTO   C95 7288   6.089   8.365  -0.089 -0.2746 -0.0040  0.2590
   18CHTO  H182 7289   6.101   8.357  -0.197 -0.7437  1.4551  0.0861
   18CHTO  C106 7290   6.149   8.503  -0.044 -0.2512 -0.4805  0.5652
   18CHTO   O69 7291   6.126   8.541   0.093  0.4226  0.0594 -0.4411
   18CHTO  H169 7292   6.106   8.632   0.079 -0.1617 -0.1119 -0.7608
   18CHTO   O63 7293   5.725   8.294  -0.104  0.1837  0.4515  0.0529
   18CHTO   C96 7294   5.662   8.410  -0.167 -0.6207  0.2803  0.7865
   18CHTO  H183 7295   5.708   8.444  -0.260  0.8830 -2.7023  0.3695
   18CHTO   C98 7296   5.656   8.533  -0.066  0.0731  0.2302 -0.2711
   18CHTO  H185 7297   5.606   8.507   0.029  3.7021  0.4656  1.7993
   18CHTO   O67 7298   5.781   8.584  -0.029  0.5833 -0.5791 -0.5347
   18CHTO  H167 7299   5.829   8.515   0.014  0.7640  0.3039  0.6975
   18CHTO  C102 7300   5.565   8.662  -0.123  0.0402  0.2170  0.2579
   18CHTO  H189 7301   5.631   8.717  -0.191  0.8196 -0.0276  0.7979
   18CHTO   N18 7302   5.529   8.753  -0.014 -0.4445  0.6545  0.4046
   18CHTO  H176 7303   5.616   8.814   0.005  0.4510  0.1450 -1.8984
   18CHTO  H177 7304   5.446   8.817  -0.040 -0.0642  0.1591 -2.1726
   18CHTO  C105 7305   5.442   8.612  -0.210 -0.7650 -0.3548  0.2244
   18CHTO  H192 7306   5.355   8.602  -0.145 -0.9493 -0.1861  0.0011
   18CHTO   O65 7307   5.470   8.491  -0.285  0.4011  0.1182  0.5553
   18CHTO  C100 7308   5.511   8.383  -0.197 -0.4457  0.5592 -0.0207
   18CHTO  H187 7309   5.458   8.388  -0.100 -0.6896  0.5887 -0.1553
   18CHTO  C107 7310   5.478   8.248  -0.278  0.9092 -0.1947 -0.1779
   18CHTO   O70 7311   5.470   8.137  -0.194  0.4188 -0.5320  0.3721
   18CHTO  H170 7312   5.398   8.151  -0.136  0.1974 -1.6595  0.3875
   18CHTO   O57 7313   5.415   8.745  -0.304 -0.1234  0.3128 -0.1007
   18CHTO   C85 7314   5.298   8.759  -0.384 -0.3709 -0.2768 -0.3072
   18CHTO  H157 7315   5.330   8.816  -0.474 -3.6586  0.2393 -1.2373
   18CHTO   C83 7316   5.196   8.847  -0.305 -0.5768 -0.3638  0.0101
   18CHTO  H155 7317   5.250   8.940  -0.287 -0.9716 -0.2108  0.4024
   18CHTO   O56 7318   5.166   8.785  -0.178 -0.1932 -0.5024 -0.1936
   18CHTO  H135 7319   5.103   8.839  -0.134 -0.5912 -1.6639  0.6748
   18CHTO   C81 7320   5.072   8.873  -0.394  0.6897 -0.4623  0.4401
   18CHTO  H153 7321   5.099   8.923  -0.487 -0.8808 -3.5112 -1.7156
   18CHTO   N14 7322   4.983   8.973  -0.334 -0.0665 -0.5117  0.3196
   18CHTO  H141 7323   5.028   9.070  -0.337  2.8868 -1.8431 -0.2102
   18CHTO  H142 7324   4.954   8.951  -0.234 -1.1613 -0.5845 -0.0008
   18CHTO   C79 7325   4.991   8.739  -0.430  0.4218  0.0966  0.2866
   18CHTO  H151 7326   4.917   8.762  -0.507  0.4734  0.1080  0.2407
   18CHTO   O52 7327   5.079   8.650  -0.496 -0.0594  0.1042  0.2097
   18CHTO   C86 7328   5.218   8.623  -0.432  0.5421  0.0016 -0.6321
   18CHTO  H158 7329   5.200   8.549  -0.352  1.6845 -0.4166 -0.7549
   18CHTO   C90 7330   5.296   8.544  -0.535 -0.3388  0.9067 -0.4341
   18CHTO   O60 7331   5.235   8.417  -0.562 -0.0230 -0.3035 -0.1070
   18CHTO  H138 7332   5.231   8.416  -0.655  0.5017 -3.5783 -0.1423
   18CHTO   O50 7333   4.942   8.674  -0.311 -0.1201 -0.5962 -0.1878
   18CHTO   C73 7334   4.854   8.574  -0.255  0.0099 -0.0112 -0.4865
   18CHTO  H145 7335   4.841   8.492  -0.327  0.0715  1.7003 -2.4698
   18CHTO   C74 7336   4.721   8.632  -0.220  0.2375  0.0963  0.1809
   18CHTO  H146 7337   4.678   8.676  -0.311 -1.0424  0.2540  0.8479
   18CHTO   O54 7338   4.634   8.527  -0.199 -0.4394 -0.5583  0.3922
   18CHTO  H133 7339   4.647   8.486  -0.116  1.2776  1.5433  1.1715
   18CHTO   C75 7340   4.728   8.738  -0.099 -0.2389  0.3411 -0.2543
   18CHTO  H147 7341   4.782   8.829  -0.129 -0.7235  0.6267 -0.2687
   18CHTO   N13 7342   4.588   8.789  -0.063  0.2434  0.2529  0.9850
   18CHTO  H139 7343   4.564   8.761   0.038  1.0605 -1.1307  0.8138
   18CHTO  H140 7344   4.574   8.896  -0.068  0.5075  0.2927  1.0807
   18CHTO   C76 7345   4.806   8.684   0.030  0.1514 -0.1996  0.2230
   18CHTO  H148 7346   4.740   8.609   0.073  0.5374 -0.8612 -0.3151
   18CHTO   O49 7347   4.928   8.625  -0.013 -0.5721  0.0473  0.8904
   18CHTO   C77 7348   4.915   8.523  -0.119 -0.0235 -0.3758 -0.4233
   18CHTO  H149 7349   4.844   8.450  -0.081 -0.2240  0.2442  0.3875
   18CHTO   C88 7350   5.053   8.460  -0.134  0.7060  0.0079 -0.0512
   18CHTO   O58 7351   5.095   8.385  -0.028  0.6384 -0.2960 -1.0050
   18CHTO  H136 7352   5.018   8.355   0.016  0.1808  3.0618  0.5957
   18CHTO   O51 7353   4.850   8.797   0.131  0.0215  0.1505 -0.5324
   18CHTO   C78 7354   4.883   8.752   0.269  0.3044  0.7412  0.8250
   18CHTO  H150 7355   4.893   8.642   0.272  0.0869  0.7320  1.1975
   18CHTO   C80 7356   4.774   8.792   0.371  0.1817 -0.2334 -0.2154
   18CHTO  H152 7357   4.758   8.902   0.369 -0.8619 -0.3638  0.7729
   18CHTO   O55 7358   4.662   8.713   0.340 -0.5065  0.4695 -0.1918
   18CHTO  H134 7359   4.651   8.630   0.383  2.4357  0.3647  0.4827
   18CHTO   C84 7360   4.820   8.764   0.518  0.0050 -0.2097 -0.5487
   18CHTO  H156 7361   4.829   8.655   0.526 -0.3706 -0.1504  0.7056
   18CHTO   N15 7362   4.723   8.807   0.630 -0.0424 -0.3195 -0.5742
   18CHTO  H143 7363   4.715   8.730   0.703  1.0612  0.2435  0.1495
   18CHTO  H144 7364   4.631   8.825   0.578 -0.5682  2.6278  1.3031
   18CHTO   C87 7365   4.963   8.813   0.551 -0.7116 -0.1435  0.2234
   18CHTO  H159 7366   4.955   8.921   0.546  0.2424 -0.1342 -1.1960
   18CHTO   O53 7367   5.061   8.766   0.436  0.2528  0.0428  0.3645
   18CHTO   C82 7368   5.017   8.809   0.304 -0.0134  0.3262 -0.3634
   18CHTO  H154 7369   5.017   8.917   0.297 -0.4026  0.2081 -2.3217
   18CHTO   C89 7370   5.137   8.757   0.204 -0.6393  0.1622  0.7358
   18CHTO   O59 7371   5.261   8.808   0.241 -0.1365 -0.0873  0.4303
   18CHTO  H137 7372   5.309   8.737   0.279 -0.1000  0.5626  1.5883
   18CHTO   O45 7373   5.014   8.767   0.702  0.4459  0.5063 -0.0220
   18CHTO   C67 7374   5.131   8.820   0.746  0.1017  0.0316  1.3480
   18CHTO  H124 7375   5.204   8.812   0.666 -1.7416  0.9542 -0.4980
   18CHTO   C65 7376   5.116   8.973   0.780 -0.4805  1.0676  0.6405
   18CHTO  H122 7377   5.014   8.990   0.815 -0.5580 -0.4268  1.1466
   18CHTO   O44 7378   5.148   9.041   0.657  0.4809  0.3037 -0.1312
   18CHTO  H102 7379   5.105   9.124   0.657  0.7689  0.4726  1.6926
   18CHTO   C63 7380   5.208   9.014   0.901  0.9169 -0.3951 -0.5983
   18CHTO  H120 7381   5.165   8.981   0.995 -0.8773  0.7152 -1.0082
   18CHTO   N11 7382   5.225   9.162   0.926 -0.1131  0.0089  0.2746
   18CHTO  H108 7383   5.142   9.225   0.901 -1.6733 -1.3564  1.8042
   18CHTO  H109 7384   5.311   9.196   0.873 -0.1953  0.8355  0.6778
   18CHTO   C61 7385   5.346   8.941   0.886 -0.0937  0.2736 -0.2673
   18CHTO  H118 7386   5.405   8.962   0.976 -0.5659 -1.6189  0.4990
   18CHTO   O40 7387   5.325   8.794   0.886  0.5021 -0.0726 -0.6421
   18CHTO   C68 7388   5.191   8.742   0.864 -0.0777 -0.1332 -0.0390
   18CHTO  H125 7389   5.130   8.766   0.954 -1.2467 -0.0979 -0.8170
   18CHTO   C72 7390   5.195   8.586   0.845  0.1575  0.0472  0.2442
   18CHTO   O48 7391   5.071   8.519   0.866  0.0465 -0.0874  0.0714
   18CHTO  H105 7392   5.040   8.487   0.783 -1.8529  2.5291 -0.2874
   18CHTO   O38 7393   5.420   8.980   0.768  0.1568  0.4026 -0.4204
   18CHTO   C55 7394   5.557   8.943   0.746 -0.1342 -0.4522 -0.4100
   18CHTO  H112 7395   5.590   8.860   0.811 -0.6022  0.3243  0.8545
   18CHTO   C56 7396   5.642   9.072   0.769  0.4464  0.0681  0.9219
   18CHTO  H113 7397   5.623   9.143   0.687  1.5244 -1.9688 -1.1544
   18CHTO   O42 7398   5.624   9.131   0.898  0.2268 -0.4986 -0.3612
   18CHTO  H100 7399   5.657   9.219   0.903  1.0048 -0.8686  1.2319
   18CHTO   C57 7400   5.800   9.030   0.754  0.3782 -0.4960 -0.7390
   18CHTO  H114 7401   5.817   8.970   0.843 -2.7562  1.2617  1.1502
   18CHTO   N10 7402   5.902   9.140   0.763 -0.3796  0.3050  1.0814
   18CHTO  H106 7403   5.880   9.222   0.831 -0.9600  0.0762  1.1636
   18CHTO  H107 7404   5.994   9.089   0.789  0.1400 -0.0077 -1.3058
   18CHTO   C58 7405   5.833   8.947   0.627  0.7222 -0.2508  1.0172
   18CHTO  H115 7406   5.873   9.009   0.545 -2.0670 -3.1466 -2.6800
   18CHTO   O37 7407   5.725   8.865   0.579 -0.3097  0.1979 -0.1863
   18CHTO   C59 7408   5.587   8.902   0.598 -0.1972  0.0695  0.2402
   18CHTO  H116 7409   5.558   8.988   0.538 -0.2612  0.0712  0.2749
   18CHTO   C70 7410   5.495   8.784   0.569 -0.1759  0.2988 -0.4555
   18CHTO   O46 7411   5.520   8.667   0.647  0.7380  0.0772 -0.0949
   18CHTO  H103 7412   5.455   8.601   0.633 -0.1674  0.4046  2.3635
   18CHTO   O39 7413   5.948   8.833   0.667  0.2875  0.3159  0.1256
   18CHTO   C60 7414   5.888   8.725   0.748  0.6159  0.2295 -0.6490
   18CHTO  H117 7415   5.805   8.770   0.801  2.2695 -0.2996  2.5200
   18CHTO   C62 7416   5.847   8.594   0.676 -0.4764 -0.4305  0.7478
   18CHTO  H119 7417   5.784   8.628   0.591  2.3661  0.3456 -1.1064
   18CHTO   O43 7418   5.970   8.536   0.622 -0.3905  0.5139 -0.0252
   18CHTO  H101 7419   5.978   8.547   0.529  1.4955 -0.6199 -0.0255
   18CHTO   C66 7420   5.771   8.490   0.768  0.3519 -0.1843  0.2480
   18CHTO  H123 7421   5.678   8.538   0.797  0.8700  1.5897 -0.9269
   18CHTO   N12 7422   5.724   8.368   0.692  0.3218  0.3315  0.4079
   18CHTO  H110 7423   5.792   8.331   0.617  0.2142  2.3073 -0.7126
   18CHTO  H111 7424   5.700   8.290   0.762  0.3632  0.3600  0.4541
   18CHTO   C69 7425   5.857   8.455   0.887 -1.0482  0.2298 -0.1229
   18CHTO  H126 7426   5.940   8.390   0.852 -1.1892  1.2437 -2.4231
   18CHTO   O41 7427   5.916   8.582   0.954  0.1126 -0.1113 -0.1080
   18CHTO   C64 7428   5.986   8.686   0.859  0.1262 -0.1975  0.0314
   18CHTO  H121 7429   6.077   8.636   0.820  0.6990  0.6759  0.2345
   18CHTO   C71 7430   6.036   8.806   0.933 -0.2771  0.3220 -0.2782
   18CHTO   O47 7431   6.110   8.753   1.045 -0.4756  0.0705  0.0532
   18CHTO  H104 7432   6.201   8.772   1.039 -0.5238  0.5496  0.7472
   18CHTO   O34 7433   5.773   8.387   0.993  0.2851 -0.1116 -0.0862
   18CHTO   C49 7434   5.731   8.386   1.129  0.5869 -0.1519 -0.1661
   18CHTO   H91 7435   5.808   8.343   1.193  0.6109  0.9185  0.5479
   18CHTO   C47 7436   5.600   8.305   1.129 -0.1846 -0.1240  0.1844
   18CHTO   H89 7437   5.579   8.289   1.237 -0.1606 -1.3163  0.0231
   18CHTO   O33 7438   5.623   8.181   1.075  0.1787  0.1407 -0.4650
   18CHTO   H70 7439   5.619   8.178   0.981 -1.1332  1.7337 -0.4706
   18CHTO   C45 7440   5.473   8.382   1.059 -0.2317  0.2143  0.3242
   18CHTO   H87 7441   5.503   8.404   0.955 -2.0729  1.4743  0.0427
   18CHTO    N8 7442   5.348   8.306   1.053 -0.2610 -0.5806  0.0603
   18CHTO   H75 7443   5.262   8.315   1.118 -0.1022 -1.2764  0.3696
   18CHTO   H76 7444   5.371   8.210   1.010  0.1210 -0.1996 -0.6062
   18CHTO   C43 7445   5.458   8.534   1.123 -0.3138  0.1331 -0.0159
   18CHTO   H85 7446   5.391   8.584   1.052 -0.0038 -0.2854 -0.6068
   18CHTO   O29 7447   5.592   8.601   1.130 -0.3449  0.1763 -0.3573
   18CHTO   C50 7448   5.703   8.531   1.191  0.7453 -0.5553 -0.0174
   18CHTO   H92 7449   5.777   8.607   1.162 -0.8206  1.5020  1.1758
   18CHTO   C54 7450   5.694   8.533   1.343 -0.3832  0.2866 -0.2498
   18CHTO   O36 7451   5.739   8.660   1.389 -0.2168 -0.0743  0.3591
   18CHTO   H72 7452   5.677   8.730   1.382  0.1370  0.0640 -1.8037
   18CHTO   O27 7453   5.392   8.545   1.251 -0.1485 -0.1325  0.1792
   18CHTO   C37 7454   5.295   8.628   1.318  0.1850 -0.2663 -0.9091
   18CHTO   H79 7455   5.265   8.576   1.410 -2.4152 -0.7509 -1.9905
   18CHTO   C38 7456   5.348   8.761   1.356  0.3989  0.1269 -0.1433
   18CHTO   H80 7457   5.413   8.796   1.274  1.2057 -0.1377  0.3788
   18CHTO   O31 7458   5.433   8.743   1.472  0.6416  0.1424  0.5971
   18CHTO   H68 7459   5.458   8.823   1.514  0.8194  0.4451 -0.0775
   18CHTO   C39 7460   5.241   8.874   1.381  0.0393  1.1979  0.1536
   18CHTO   H81 7461   5.207   8.851   1.482  2.2989 -0.2848  0.6113
   18CHTO    N7 7462   5.304   9.010   1.389 -0.4635 -0.1667 -0.2645
   18CHTO   H73 7463   5.361   9.023   1.298 -1.7892 -3.4058 -1.6807
   18CHTO   H74 7464   5.224   9.080   1.368  0.9589  0.8204 -2.6129
   18CHTO   C40 7465   5.131   8.876   1.279 -0.2518  0.5260  1.0855
   18CHTO   H82 7466   5.175   8.916   1.188  0.0458  0.1994  1.0845
   18CHTO   O26 7467   5.080   8.747   1.264 -0.3818 -0.2120  0.3463
   18CHTO   C41 7468   5.173   8.641   1.230 -0.3960  0.0286  0.1224
   18CHTO   H83 7469   5.212   8.661   1.129 -0.6673  1.3020  0.2511
   18CHTO   C52 7470   5.093   8.512   1.221  0.5302 -0.0515 -0.0587
   18CHTO   O35 7471   4.965   8.509   1.133  0.3140  0.5519  0.0109
   18CHTO   H71 7472   4.989   8.538   1.047  1.2150 -0.7567 -0.1791
   18CHTO   O28 7473   5.023   8.973   1.299 -0.2848 -0.5425  0.4437
   18CHTO   C42 7474   4.882   8.937   1.313 -0.5449 -0.5419 -0.2261
   18CHTO   H84 7475   4.837   9.032   1.342  0.4434 -0.8594  2.5023
   18CHTO   C44 7476   4.854   8.846   1.435 -0.3250 -0.0114  0.5368
   18CHTO   H86 7477   4.894   8.746   1.420 -0.5942 -0.3919  2.2252
   18CHTO   O32 7478   4.926   8.903   1.548 -0.1159  0.3383 -0.1787
   18CHTO   H69 7479   5.018   8.917   1.532  0.2396  1.1189  2.2943
   18CHTO   C48 7480   4.706   8.840   1.461  0.4480  0.0619 -0.3577
   18CHTO   H90 7481   4.672   8.938   1.493  0.4543 -0.1518  0.3123
   18CHTO    N9 7482   4.666   8.747   1.569 -0.0600 -0.1359  0.7444
   18CHTO   H77 7483   4.708   8.648   1.565 -1.0276 -0.5155 -0.2433
   18CHTO   H78 7484   4.559   8.733   1.559  0.1029  0.0724 -1.5810
   18CHTO   C51 7485   4.619   8.817   1.328 -0.3802  0.0315 -0.5209
   18CHTO   H93 7486   4.624   8.713   1.297  0.5549 -0.2172  0.4514
   18CHTO   O30 7487   4.668   8.906   1.223  0.3236  0.0905 -0.3137
   18CHTO   C46 7488   4.816   8.885   1.186  0.0397  0.3004  0.1174
   18CHTO   H88 7489   4.840   8.779   1.176  0.0091 -0.1318  4.0538
   18CHTO   C53 7490   4.856   8.962   1.060  0.2588  0.4665 -0.2132
   18CHTO   O72 7491   4.788   8.910   0.950  0.3346  0.1013 -0.4698
   18CHTO  H199 7492   4.732   8.977   0.917  0.9438  2.3207  2.8682
   18CHTO   O22 7493   4.481   8.865   1.352 -0.2074  0.4971  0.4824
   18CHTO   C31 7494   4.376   8.820   1.258 -0.0837  0.5830 -0.3057
   18CHTO   H59 7495   4.281   8.851   1.305 -1.7941 -2.5942 -1.5244
   18CHTO   C29 7496   4.383   8.893   1.122  0.3262  0.1758 -0.4176
   18CHTO   H57 7497   4.470   8.851   1.071  0.7612  0.7988 -0.1881
   18CHTO   O21 7498   4.416   9.035   1.153  0.4398  0.1237 -0.2942
   18CHTO   H37 7499   4.508   9.028   1.168  0.0174 -0.5356  2.1424
   18CHTO   C27 7500   4.259   8.871   1.038 -0.6379 -0.4907  0.7525
   18CHTO   H55 7501   4.172   8.895   1.101 -2.0161 -1.6762 -0.6300
   18CHTO    N5 7502   4.252   8.958   0.910 -0.7914 -0.1372  0.0636
   18CHTO   H43 7503   4.251   9.066   0.917  1.2861  0.0167 -1.4730
   18CHTO   H44 7504   4.188   8.921   0.832  0.1846  1.4032 -1.5105
   18CHTO   C25 7505   4.262   8.717   1.015  0.6654 -0.1016 -0.2580
   18CHTO   H53 7506   4.355   8.689   0.965  0.9744  0.5578 -0.0683
   18CHTO   O17 7507   4.254   8.651   1.136  0.1810 -0.2487 -0.6949
   18CHTO   C32 7508   4.358   8.659   1.229  0.3405  0.0036  0.5191
   18CHTO   H60 7509   4.451   8.614   1.193  0.5698 -0.0214  1.1339
   18CHTO   C36 7510   4.306   8.582   1.359  0.2236 -0.2305  0.3045
   18CHTO   O25 7511   4.280   8.443   1.336  0.4948 -0.0756 -0.5823
   18CHTO   H40 7512   4.338   8.388   1.386 -0.3854 -0.8913 -0.4285
   18CHTO   O15 7513   4.131   8.672   0.925  0.1349 -0.3673 -0.2935
   18CHTO   C19 7514   4.146   8.596   0.807 -0.0050 -0.3701  0.0333
   18CHTO   H47 7515   4.047   8.546   0.803 -0.7908  1.1477  0.1577
   18CHTO   C20 7516   4.161   8.680   0.673  0.2628 -0.6018  0.3906
   18CHTO   H48 7517   4.249   8.745   0.677  0.5638 -0.8936 -1.0304
   18CHTO   O19 7518   4.045   8.763   0.661 -0.6884  0.6561  0.3527
   18CHTO   H35 7519   3.973   8.704   0.647 -0.3532  0.7270 -1.9399
   18CHTO   C21 7520   4.183   8.598   0.539 -0.1613 -0.3766  0.8374
   18CHTO   H49 7521   4.094   8.540   0.514 -1.1767  1.8749 -0.9507
   18CHTO    N4 7522   4.217   8.695   0.427 -0.0202 -0.1143  0.1544
   18CHTO   H41 7523   4.280   8.656   0.349  0.0253  1.7301 -0.7559
   18CHTO   H42 7524   4.130   8.741   0.381 -1.1598 -2.0213  0.3560
   18CHTO   C22 7525   4.298   8.499   0.562 -0.3584  0.4444  0.3123
   18CHTO   H50 7526   4.396   8.546   0.566  1.0780 -2.4263 -0.2685
   18CHTO   O14 7527   4.267   8.412   0.672  0.0150  0.6073 -0.2745
   18CHTO   C23 7528   4.257   8.479   0.800 -0.6212  0.8275 -0.3208
   18CHTO   H51 7529   4.356   8.513   0.833 -0.4277 -0.9556  1.0089
   18CHTO   C34 7530   4.233   8.364   0.899 -0.5912  0.6520  0.1273
   18CHTO   O23 7531   4.121   8.285   0.861  0.5565 -0.6262 -0.0982
   18CHTO   H38 7532   4.123   8.252   0.773 -1.0387 -0.7414 -0.1129
   18CHTO   O16 7533   4.299   8.400   0.452 -0.0350 -0.3974  0.4675
   18CHTO   C24 7534   4.436   8.361   0.390  0.5525  0.0515 -0.1249
   18CHTO   H52 7535   4.517   8.418   0.435 -0.7308  1.9811 -0.2091
   18CHTO   C26 7536   4.444   8.385   0.240 -0.0799  0.1396 -0.6195
   18CHTO   H54 7537   4.358   8.335   0.190  1.3664 -1.2318 -1.8304
   18CHTO   O20 7538   4.431   8.520   0.200  0.6620 -0.6601  1.3715
   18CHTO   H36 7539   4.455   8.577   0.270  0.3133 -1.3336  2.0416
   18CHTO   C30 7540   4.580   8.328   0.181  0.1791  0.5708  0.4191
   18CHTO   H58 7541   4.658   8.402   0.205 -1.6069  2.8467 -0.5570
   18CHTO    N6 7542   4.574   8.327   0.038 -0.4486 -0.2435 -0.7911
   18CHTO   H45 7543   4.490   8.270   0.002 -2.1671  0.5675  1.7761
   18CHTO   H46 7544   4.565   8.429   0.004 -1.2771  0.2753  0.9074
   18CHTO   C33 7545   4.610   8.188   0.239 -0.1604 -0.0128  0.6145
   18CHTO   H61 7546   4.533   8.118   0.202 -0.7858  1.2083 -0.4278
   18CHTO   O18 7547   4.603   8.191   0.380  0.6804 -0.5889 -0.3122
   18CHTO   C28 7548   4.470   8.214   0.421  0.4306 -0.9153  0.0842
   18CHTO   H56 7549   4.405   8.156   0.356 -0.4025  0.2526 -0.1525
   18CHTO   C35 7550   4.464   8.181   0.567  0.4099  0.5234  0.2449
   18CHTO   O24 7551   4.494   8.044   0.597  0.0250 -0.6508 -0.5157
   18CHTO   H39 7552   4.438   8.020   0.668  1.6626  0.4678  1.1957
   18CHTO    O9 7553   4.732   8.140   0.186 -0.0014 -0.1279 -0.2065
   18CHTO   C13 7554   4.849   8.128   0.275  0.1557  0.1354 -0.2722
   18CHTO   H26 7555   4.818   8.059   0.356 -2.5415  1.9144  0.2748
   18CHTO   C11 7556   4.905   8.260   0.340  0.7916  0.3072  0.0340
   18CHTO   H24 7557   4.835   8.298   0.415  0.1706  0.2792 -0.5296
   18CHTO    O8 7558   4.927   8.362   0.239 -0.4055  0.4458  0.7950
   18CHTO    H3 7559   4.889   8.444   0.264 -0.5771  0.2447  1.2045
   18CHTO    C9 7560   5.033   8.228   0.419 -0.7446 -0.5122  0.0609
   18CHTO   H22 7561   5.003   8.158   0.498 -0.0366  0.6036  1.3406
   18CHTO    N2 7562   5.090   8.343   0.489  0.6168  0.7642 -0.2062
   18CHTO   H10 7563   5.171   8.313   0.553 -0.4603 -2.1312 -0.1381
   18CHTO   H11 7564   5.130   8.421   0.425  1.3971 -1.3489 -2.3556
   18CHTO    C7 7565   5.138   8.152   0.325 -0.0282  0.2387 -0.8674
   18CHTO   H20 7566   5.211   8.120   0.403 -0.9269 -3.2320 -1.3699
   18CHTO    O4 7567   5.077   8.031   0.266 -0.4831  0.1009  0.0156
   18CHTO   C14 7568   4.955   8.034   0.197  0.1864  0.4295 -0.5506
   18CHTO   H27 7569   4.914   7.931   0.198  0.6959  0.2337  1.0522
   18CHTO   C18 7570   4.966   8.079   0.047  0.3453  0.0042  0.2402
   18CHTO   O13 7571   5.029   7.969  -0.022 -0.0385 -0.4032  1.0732
   18CHTO    H7 7572   5.098   7.931   0.029  1.9715  1.0768 -0.4584
   18CHTO    O2 7573   5.209   8.244   0.202 -0.3065  0.1709 -0.5708
   18CHTO    C1 7574   5.343   8.221   0.161 -0.2884  0.0809  0.1593
   18CHTO   H14 7575   5.355   8.265   0.060 -0.8613 -0.2748 -0.0618
   18CHTO    C2 7576   5.387   8.070   0.152  0.4397  0.7955 -0.2332
   18CHTO   H15 7577   5.350   8.030   0.247  0.1667 -1.0824 -1.1125
   18CHTO    O6 7578   5.325   7.996   0.049  0.3374 -0.2781  0.2068
   18CHTO    H1 7579   5.349   7.906   0.065 -1.0977 -0.6265  0.4994
   18CHTO    C3 7580   5.554   8.057   0.141 -0.3272 -0.1240 -0.1272
   18CHTO   H16 7581   5.585   8.084   0.040 -1.9102 -2.1370 -1.1994
   18CHTO    N1 7582   5.604   7.918   0.166 -0.6643  0.0777  0.0766
   18CHTO    H8 7583   5.557   7.868   0.250  0.8263  0.1695  0.9826
   18CHTO    H9 7584   5.710   7.928   0.183 -0.5058  1.4127 -1.5611
   18CHTO    C4 7585   5.626   8.158   0.242 -0.4403  0.7547 -0.7038
   18CHTO   H17 7586   5.605   8.124   0.343 -0.9919 -1.1791 -1.4345
   18CHTO    O1 7587   5.572   8.289   0.229 -0.4675  0.0022  0.5421
   18CHTO    C5 7588   5.434   8.314   0.251  0.2122 -0.1661 -0.1971
   18CHTO   H18 7589   5.411   8.286   0.354  1.0626 -0.3383 -0.0516
   18CHTO   C16 7590   5.404   8.470   0.232  0.3697 -0.0141  0.3538
   18CHTO   O11 7591   5.470   8.544   0.334 -0.3244  0.1684  0.2652
   18CHTO    H5 7592   5.411   8.539   0.407  0.4110  0.7199  0.9070
   18CHTO    O3 7593   5.768   8.169   0.223  0.0393 -0.4701  0.1315
   18CHTO    C6 7594   5.844   8.224   0.339 -0.3015 -0.1452 -0.4467
   18CHTO   H19 7595   5.778   8.251   0.421  0.0080 -1.4763  0.2498
   18CHTO    C8 7596   5.941   8.110   0.378 -0.7781  0.1801  0.2387
   18CHTO   H21 7597   5.997   8.073   0.292  1.2842  0.2273  1.5439
   18CHTO    O7 7598   5.856   8.009   0.424  0.0683 -0.1900 -0.1007
   18CHTO    H2 7599   5.889   7.925   0.399  2.0749  1.3635 -3.0625
   18CHTO   C12 7600   6.056   8.156   0.475 -0.4701 -0.0695 -0.0555
   18CHTO   H25 7601   6.007   8.178   0.572 -2.5336 -2.7103 -0.4597
   18CHTO    N3 7602   6.154   8.046   0.506  0.3049 -0.0035 -1.2768
   18CHTO   H12 7603   6.246   8.053   0.450  0.7870 -1.8969 -0.7554
   18CHTO   H13 7604   6.174   8.045   0.613 -1.9672  0.7399 -0.8150
   18CHTO   C15 7605   6.117   8.293   0.417 -0.5327  0.0596 -0.0884
   18CHTO   H28 7606   6.163   8.275   0.320  0.8275 -0.8331  0.7085
   18CHTO   O10 7607   6.224   8.343   0.496  0.3634 -0.8782  0.1300
   18CHTO    H4 7608   6.195   8.391   0.571 -0.7302  0.7907 -1.3035
   18CHTO    O5 7609   6.014   8.397   0.391  0.0531  0.3132 -0.8744
   18CHTO   C10 7610   5.919   8.360   0.297 -0.5457  0.2097 -0.3258
   18CHTO   H23 7611   5.958   8.362   0.195  0.1667  0.5705 -0.0527
   18CHTO   C17 7612   5.821   8.479   0.303  0.1142  0.1630 -0.1331
   18CHTO   O12 7613   5.876   8.595   0.238 -0.2117  0.3563 -0.4306
   18CHTO    H6 7614   5.853   8.678   0.275 -1.1859 -0.3218  0.4758
   19CHTO  H203 7615   4.778  10.049   2.249 -1.6382  0.2700  1.1227
   19CHTO   O82 7616   4.726  10.059   2.171 -0.0245 -0.2879 -0.0538
   19CHTO  C123 7617   4.659   9.937   2.129 -0.1117 -0.0263 -0.5186
   19CHTO  H227 7618   4.567   9.963   2.075  0.5592 -2.9453 -3.2196
   19CHTO   O77 7619   4.758   9.880   2.034 -0.1066  0.3317 -0.3279
   19CHTO  C118 7620   4.733   9.745   1.978  0.0140  0.4435  0.0858
   19CHTO  H222 7621   4.653   9.762   1.905  0.5654  0.7048 -0.4587
   19CHTO  C125 7622   4.864   9.692   1.903  0.8781 -0.6088 -0.3950
   19CHTO   O84 7623   4.852   9.714   1.764 -0.4903  0.0622 -0.2195
   19CHTO  H205 7624   4.763   9.699   1.739 -0.4829  0.9668 -0.7919
   19CHTO  C114 7625   4.694   9.644   2.093  0.0011  0.3952  0.2774
   19CHTO  H218 7626   4.776   9.636   2.164  1.8581  0.6315 -1.7697
   19CHTO  C116 7627   4.575   9.701   2.179  0.8079 -0.2205  0.3403
   19CHTO  H220 7628   4.499   9.734   2.105  2.2831  1.3176 -0.4917
   19CHTO   O79 7629   4.520   9.605   2.275 -0.0923  0.2689 -0.3400
   19CHTO  H201 7630   4.430   9.624   2.294 -0.4632 -2.5967  1.0494
   19CHTO  C120 7631   4.621   9.837   2.243  1.4128 -0.3928 -0.3708
   19CHTO  H224 7632   4.714   9.808   2.297  1.7380 -1.3484 -1.4263
   19CHTO   N21 7633   4.526   9.897   2.336 -0.6537 -0.1320 -0.3630
   19CHTO  H211 7634   4.440   9.922   2.275 -0.8480  2.6121  0.9356
   19CHTO  H212 7635   4.513   9.816   2.406 -0.8280  0.1111 -0.1095
   19CHTO   O75 7636   4.660   9.524   2.022 -0.0067 -0.1230 -0.1248
   19CHTO  C112 7637   4.756   9.390   2.091 -0.1311 -0.1736  0.0643
   19CHTO  H216 7638   4.762   9.400   2.200  0.3252 -1.5526  0.1764
   19CHTO   O73 7639   4.882   9.403   2.030  0.1785  0.0784 -0.1168
   19CHTO  C113 7640   4.977   9.299   2.052 -0.4929  0.3379 -0.1722
   19CHTO  H217 7641   5.002   9.286   2.159  1.7112 -2.4332 -0.9637
   19CHTO  C124 7642   5.105   9.334   1.982 -0.2248 -0.3069  0.0713
   19CHTO   O83 7643   5.162   9.454   2.034 -0.4482 -0.8138  0.2771
   19CHTO  H204 7644   5.240   9.489   1.995  0.0149 -2.9350 -0.7173
   19CHTO  C109 7645   4.911   9.162   2.005  0.3154  0.2085 -0.2013
   19CHTO  H213 7646   4.888   9.174   1.899 -2.9437 -1.9464  0.1951
   19CHTO  C110 7647   4.778   9.133   2.078  0.3735  0.0590  0.1712
   19CHTO  H214 7648   4.797   9.125   2.185 -1.4948 -1.8513  0.3955
   19CHTO   O78 7649   4.723   9.008   2.029  0.3867  0.1302  0.1641
   19CHTO  H200 7650   4.767   8.929   2.055 -2.0594 -1.1406  0.6333
   19CHTO  C111 7651   4.681   9.250   2.058  0.3826 -0.2896 -0.5445
   19CHTO  H215 7652   4.644   9.249   1.954  0.1241  2.2509 -0.5001
   19CHTO   N19 7653   4.557   9.233   2.148 -0.5911 -0.4777  0.3244
   19CHTO  H207 7654   4.488   9.154   2.122 -0.5804 -1.5441  3.2959
   19CHTO  H208 7655   4.586   9.223   2.252 -0.0307  1.1410  0.3255
   19CHTO   O74 7656   5.011   9.057   2.023 -0.0007  0.6270  0.4681
   19CHTO  C115 7657   5.040   8.994   1.889  0.1478 -0.3097 -0.0267
   19CHTO  H219 7658   4.961   9.014   1.817  0.1527 -0.1785  0.0035
   19CHTO   O76 7659   5.169   9.048   1.823 -0.2115 -0.3022  0.1819
   19CHTO  C122 7660   5.291   9.009   1.882 -0.2949  0.0642 -0.7843
   19CHTO  H226 7661   5.271   9.040   1.985 -0.4839 -1.0737 -0.4774
   19CHTO  C126 7662   5.412   9.095   1.839  0.6484 -0.0361  0.8979
   19CHTO   O85 7663   5.424   9.222   1.900 -0.2597 -0.3861  0.5706
   19CHTO  H206 7664   5.343   9.266   1.883 -0.0479 -0.1538  0.1484
   19CHTO  C121 7665   5.316   8.859   1.864 -0.1586 -0.6788 -0.0969
   19CHTO  H225 7666   5.391   8.842   1.784  1.7573  3.1031  0.7580
   19CHTO   O81 7667   5.376   8.814   1.987  0.0801 -0.4738 -0.2252
   19CHTO  H202 7668   5.462   8.848   1.999 -0.5333  1.2580 -0.5565
   19CHTO  C119 7669   5.181   8.790   1.826 -0.1746 -0.4552  0.3015
   19CHTO  H223 7670   5.159   8.819   1.723  1.1801  0.0284  0.1521
   19CHTO  C117 7671   5.063   8.841   1.916  0.1659  0.9891 -0.7489
   19CHTO  H221 7672   5.084   8.822   2.021 -1.1855  0.3666 -0.5846
   19CHTO   N20 7673   4.937   8.761   1.895 -0.3457  0.2934 -0.1066
   19CHTO  H209 7674   4.871   8.787   1.813 -1.3781 -1.5457  0.1126
   19CHTO  H210 7675   4.940   8.661   1.935  0.7043 -0.0488 -1.0015
   19CHTO   O80 7676   5.189   8.630   1.820 -0.0235 -0.0476 -0.3044
   19CHTO  C103 7677   5.255   8.559   1.699 -0.0310 -0.9305  0.1426
   19CHTO  H190 7678   5.259   8.634   1.620  0.3378 -0.3241  0.7277
   19CHTO  C101 7679   5.395   8.487   1.729 -0.0908 -0.8109  0.4723
   19CHTO  H188 7680   5.398   8.444   1.829  1.7069  0.0035  0.7781
   19CHTO   O68 7681   5.501   8.593   1.735 -0.7936 -0.2449  0.6274
   19CHTO  H168 7682   5.589   8.571   1.757 -0.8032 -1.6724 -0.6742
   19CHTO   C99 7683   5.425   8.377   1.620 -0.8073 -0.2068  0.2421
   19CHTO  H186 7684   5.439   8.432   1.524  0.5853 -0.6182  0.2028
   19CHTO   N17 7685   5.550   8.303   1.654 -0.2852 -0.3171  0.5453
   19CHTO  H174 7686   5.586   8.250   1.567 -1.4615 -1.3125  0.6521
   19CHTO  H175 7687   5.631   8.363   1.694 -0.2605 -0.4279  0.6627
   19CHTO   C97 7688   5.303   8.289   1.601 -0.1848 -0.3938 -0.2016
   19CHTO  H184 7689   5.276   8.242   1.697  2.6635  0.2562  0.9862
   19CHTO   O64 7690   5.202   8.375   1.547 -0.3633  1.0572  0.4119
   19CHTO  C104 7691   5.150   8.461   1.649  0.6784 -0.7407 -0.5391
   19CHTO  H191 7692   5.115   8.400   1.732 -1.1766  0.3223 -0.5176
   19CHTO  C108 7693   5.027   8.538   1.596  0.0744  0.1588  0.3157
   19CHTO   O71 7694   4.922   8.448   1.561 -0.0964  0.0728 -0.3996
   19CHTO  H171 7695   4.907   8.454   1.468 -0.1226 -1.3013 -0.4951
   19CHTO   O62 7696   5.309   8.191   1.500  0.4101 -0.0491 -0.4780
   19CHTO   C91 7697   5.235   8.070   1.520 -1.2630 -0.1019 -0.2530
   19CHTO  H178 7698   5.184   8.063   1.615  0.8717 -0.8021  0.8725
   19CHTO   C92 7699   5.337   7.948   1.528  0.1452  0.5345  0.5906
   19CHTO  H179 7700   5.395   7.947   1.434 -2.8774  0.3346 -1.3606
   19CHTO   O66 7701   5.421   7.981   1.635  0.6002  0.2279 -0.3687
   19CHTO  H166 7702   5.501   7.933   1.627  1.9862  2.6058 -1.5716
   19CHTO   C93 7703   5.266   7.813   1.551  0.7599  0.3326 -0.1090
   19CHTO  H180 7704   5.204   7.830   1.639 -1.2729 -1.3719 -1.1591
   19CHTO   N16 7705   5.353   7.698   1.575 -0.1497  0.3576  0.6238
   19CHTO  H172 7706   5.305   7.606   1.546  0.2458 -0.5081  2.6552
   19CHTO  H173 7707   5.373   7.685   1.681 -1.3402 -1.1699  0.6704
   19CHTO   C94 7708   5.169   7.787   1.430  0.4205  0.6222 -0.7312
   19CHTO  H181 7709   5.219   7.781   1.334  1.0846 -1.4217 -0.2902
   19CHTO   O61 7710   5.078   7.898   1.427 -0.0236 -0.1238 -0.4068
   19CHTO   C95 7711   5.133   8.028   1.398  0.2105 -0.0315 -0.1590
   19CHTO  H182 7712   5.178   8.024   1.299 -1.2241  1.5907 -0.8868
   19CHTO  C106 7713   5.013   8.126   1.389  0.5968 -0.2544  0.2677
   19CHTO   O69 7714   4.918   8.073   1.298 -0.2014  0.2350  0.4786
   19CHTO  H169 7715   4.835   8.115   1.314 -0.1181  0.9126 -0.8162
   19CHTO   O63 7716   5.088   7.650   1.445 -0.1863  0.3044 -0.5173
   19CHTO   C96 7717   5.017   7.596   1.313 -0.2869  0.2985 -0.4806
   19CHTO  H183 7718   5.105   7.588   1.249  0.8953 -1.1099  1.2648
   19CHTO   C98 7719   4.908   7.691   1.251 -0.1942  0.0565  0.1811
   19CHTO  H185 7720   4.952   7.792   1.246 -3.0706  1.3168 -0.8571
   19CHTO   O67 7721   4.883   7.649   1.114 -0.1186  0.2531 -0.4740
   19CHTO  H167 7722   4.956   7.623   1.060  0.7751 -3.1414  2.2051
   19CHTO  C102 7723   4.768   7.688   1.333  0.8299 -0.0532 -0.8785
   19CHTO  H189 7724   4.696   7.720   1.256 -0.7990  1.9725  1.3976
   19CHTO   N18 7725   4.749   7.789   1.441 -0.3094 -0.0727 -0.1477
   19CHTO  H176 7726   4.822   7.778   1.520  0.2616 -0.9249 -0.7817
   19CHTO  H177 7727   4.652   7.769   1.486  0.0050 -2.9517 -0.6412
   19CHTO  C105 7728   4.743   7.540   1.375 -0.3742  0.5613 -0.1929
   19CHTO  H192 7729   4.751   7.528   1.483  2.2037 -0.3874 -0.4400
   19CHTO   O65 7730   4.815   7.438   1.314 -0.1221  0.0977  0.7929
   19CHTO  C100 7731   4.957   7.450   1.335  0.2900  0.0694  0.3224
   19CHTO  H187 7732   4.976   7.415   1.437  0.2264 -1.6499 -0.2341
   19CHTO  C107 7733   5.019   7.351   1.239 -0.1114  0.3631  0.0940
   19CHTO   O70 7734   5.154   7.315   1.277 -0.5661 -0.3077  0.7466
   19CHTO  H170 7735   5.210   7.387   1.254 -2.2548  0.8717  0.1886
   19CHTO   O57 7736   4.591   7.509   1.343  0.2394 -0.0142  0.4167
   19CHTO   C85 7737   4.517   7.428   1.438 -0.0937  0.1048 -0.0934
   19CHTO  H157 7738   4.586   7.414   1.524  0.8129  0.2525 -0.7910
   19CHTO   C83 7739   4.481   7.291   1.379 -0.2703 -0.5629 -0.4779
   19CHTO  H155 7740   4.578   7.245   1.364  0.2360 -0.3395  1.8173
   19CHTO   O56 7741   4.403   7.311   1.258 -0.2330  0.1555 -0.1495
   19CHTO  H135 7742   4.439   7.285   1.176  0.0003  1.8312 -0.6032
   19CHTO   C81 7743   4.401   7.201   1.480 -0.2515  0.7789 -0.2332
   19CHTO  H153 7744   4.467   7.180   1.564 -0.7866 -0.7341 -0.1791
   19CHTO   N14 7745   4.368   7.069   1.425  0.0738  0.5786 -0.4732
   19CHTO  H141 7746   4.433   6.999   1.473  0.4434  1.3945  0.2284
   19CHTO  H142 7747   4.382   7.072   1.319  0.0351 -3.4001 -0.6856
   19CHTO   C79 7748   4.266   7.280   1.531  0.2085 -0.2587 -0.3666
   19CHTO  H151 7749   4.225   7.228   1.618 -2.5209  0.4690 -1.1797
   19CHTO   O52 7750   4.304   7.417   1.576 -0.5665  0.1128 -0.0271
   19CHTO   C86 7751   4.384   7.503   1.482 -0.6000 -0.3096 -0.5670
   19CHTO  H158 7752   4.316   7.517   1.396  0.4855 -1.3145 -1.6126
   19CHTO   C90 7753   4.401   7.643   1.550  0.4251 -0.1428 -0.3430
   19CHTO   O60 7754   4.417   7.740   1.454 -0.1167 -0.1560  0.1788
   19CHTO  H138 7755   4.336   7.778   1.425 -0.0365 -0.6441 -0.6898
   19CHTO   O50 7756   4.165   7.288   1.427  0.5690  0.3678  0.1817
   19CHTO   C73 7757   4.024   7.295   1.396 -0.8018 -0.7445  0.4506
   19CHTO  H145 7758   3.984   7.193   1.401  1.5706 -1.6595  1.3955
   19CHTO   C74 7759   4.005   7.356   1.251 -0.1134  0.3277  0.2304
   19CHTO  H146 7760   4.052   7.284   1.182  0.0785  0.0218  0.6774
   19CHTO   O54 7761   3.867   7.343   1.219 -0.2558  0.0201 -0.2489
   19CHTO  H133 7762   3.857   7.346   1.126 -0.5500 -2.1155 -0.3081
   19CHTO   C75 7763   4.069   7.500   1.242 -0.2398  0.1771 -0.5525
   19CHTO  H147 7764   4.174   7.490   1.273 -0.6209  0.9058  1.0197
   19CHTO   N13 7765   4.061   7.561   1.107 -0.2660 -0.1857 -0.6274
   19CHTO  H139 7766   3.959   7.561   1.074 -0.1899  0.0706 -0.8617
   19CHTO  H140 7767   4.136   7.524   1.038 -2.1208 -2.2033 -1.6086
   19CHTO   C76 7768   3.997   7.588   1.357 -0.4798  0.0015 -0.6940
   19CHTO  H148 7769   3.900   7.617   1.318 -0.5326  0.3506 -0.3129
   19CHTO   O49 7770   3.995   7.521   1.486 -0.0680  0.5422 -0.3639
   19CHTO   C77 7771   3.936   7.391   1.491 -0.2419  1.3056  0.4620
   19CHTO  H149 7772   3.837   7.392   1.446  0.9406 -0.3160 -2.2401
   19CHTO   C88 7773   3.925   7.328   1.631  0.1150 -0.5627 -0.8709
   19CHTO   O58 7774   3.862   7.421   1.727 -0.6063 -0.3996 -0.3128
   19CHTO  H136 7775   3.778   7.388   1.754 -0.5992  0.6592  1.1287
   19CHTO   O51 7776   4.096   7.722   1.384  0.0705  0.8653 -0.2272
   19CHTO   C78 7777   4.021   7.846   1.415  0.4306 -0.7307 -1.0349
   19CHTO  H150 7778   3.911   7.832   1.421  0.4630 -0.6337 -0.2670
   19CHTO   C80 7779   4.066   7.949   1.315  0.0030  0.5828  0.0188
   19CHTO  H152 7780   4.177   7.948   1.317  0.0188  1.4280  0.0557
   19CHTO   O55 7781   4.021   7.902   1.193  0.6382  0.5354  0.2955
   19CHTO  H134 7782   4.023   7.968   1.126 -1.5111  0.4593  0.1181
   19CHTO   C84 7783   4.015   8.093   1.347  0.2877  0.0417  0.4525
   19CHTO  H156 7784   3.910   8.097   1.319  0.5530 -0.8799 -0.7247
   19CHTO   N15 7785   4.083   8.195   1.259 -0.0404  0.0614  0.1607
   19CHTO  H143 7786   4.077   8.179   1.154 -0.4433  0.7992  0.0719
   19CHTO  H144 7787   4.186   8.202   1.289 -0.0639  0.5745  0.1129
   19CHTO   C87 7788   4.033   8.133   1.497 -0.0987  0.0143 -0.1058
   19CHTO  H159 7789   4.133   8.164   1.527  0.0454  0.1875 -0.7634
   19CHTO   O53 7790   3.986   8.010   1.590  0.1585 -0.3702 -0.0536
   19CHTO   C82 7791   4.064   7.894   1.558  0.6417  0.3159  0.4633
   19CHTO  H154 7792   4.172   7.911   1.558  0.8555 -0.9775  0.1021
   19CHTO   C89 7793   4.038   7.780   1.653 -0.4691  0.0105 -0.3556
   19CHTO   O59 7794   4.073   7.825   1.785  0.0085  0.9432 -0.2949
   19CHTO  H137 7795   4.115   7.754   1.829 -0.0456  0.2974 -1.2726
   19CHTO   O45 7796   3.947   8.260   1.522 -0.0267 -0.0951  0.1068
   19CHTO   C67 7797   3.908   8.274   1.659  0.1468  0.1550  0.0060
   19CHTO  H124 7798   3.916   8.185   1.720 -0.5173 -0.8142 -1.2835
   19CHTO   C65 7799   3.984   8.387   1.730  0.0233 -0.1121  0.2931
   19CHTO  H122 7800   4.062   8.421   1.662  2.5532 -2.6995  1.7407
   19CHTO   O44 7801   4.074   8.329   1.826 -0.6154 -0.1860 -0.2053
   19CHTO  H102 7802   4.033   8.260   1.875  0.5608 -1.4724 -0.9924
   19CHTO   C63 7803   3.879   8.496   1.787  0.3489  0.4713  0.0483
   19CHTO  H120 7804   3.823   8.539   1.704  1.3027 -0.1397 -0.9309
   19CHTO   N11 7805   3.948   8.601   1.859 -0.0380 -0.5721 -0.7513
   19CHTO  H108 7806   3.878   8.678   1.884 -1.0246 -1.4674 -0.7284
   19CHTO  H109 7807   4.034   8.643   1.810  1.3629 -1.1544  1.1521
   19CHTO   C61 7808   3.773   8.415   1.876 -0.3273 -0.0341 -0.0891
   19CHTO  H118 7809   3.702   8.495   1.903 -0.3132  0.2401 -0.8331
   19CHTO   O40 7810   3.702   8.328   1.800 -0.0886  0.1628  0.0818
   19CHTO   C68 7811   3.752   8.306   1.658  0.4865  1.0663  0.5474
   19CHTO  H125 7812   3.728   8.386   1.585  1.5917  1.0422  0.1425
   19CHTO   C72 7813   3.678   8.187   1.597  0.5042 -0.2602 -0.3155
   19CHTO   O48 7814   3.649   8.072   1.679  0.6296  0.0624  0.3274
   19CHTO  H105 7815   3.642   7.994   1.627 -2.1760  0.0889  0.6046
   19CHTO   O38 7816   3.837   8.343   1.986 -0.3647  0.1700  0.1253
   19CHTO   C55 7817   3.752   8.257   2.067  0.2032  0.5060 -0.9738
   19CHTO  H112 7818   3.672   8.209   2.010 -1.6547  0.7269  1.3711
   19CHTO   C56 7819   3.692   8.324   2.204 -0.0091 -0.0796 -0.2106
   19CHTO  H113 7820   3.772   8.353   2.273 -1.3190  3.0031  0.0639
   19CHTO   O42 7821   3.629   8.444   2.156  0.1819  0.8104 -0.1545
   19CHTO  H100 7822   3.692   8.512   2.144 -1.2119  2.3987  1.3653
   19CHTO   C57 7823   3.593   8.213   2.258 -0.1457  0.0824 -0.2058
   19CHTO  H114 7824   3.528   8.184   2.176 -0.0502 -2.3642  0.5392
   19CHTO   N10 7825   3.514   8.268   2.370 -0.3062  0.9023  0.4757
   19CHTO  H106 7826   3.495   8.374   2.364 -3.5723  0.3034 -0.7893
   19CHTO  H107 7827   3.420   8.217   2.361 -0.6582  1.7690 -0.8619
   19CHTO   C58 7828   3.676   8.088   2.304  0.4430  0.4784  0.2299
   19CHTO  H115 7829   3.747   8.111   2.387  3.4118 -0.6302 -1.9101
   19CHTO   O37 7830   3.770   8.042   2.199  0.2209  0.3051  0.3890
   19CHTO   C59 7831   3.841   8.140   2.119 -0.0004 -0.4654 -0.5760
   19CHTO  H116 7832   3.923   8.179   2.179 -0.9934 -1.9386  1.7759
   19CHTO   C70 7833   3.879   8.048   1.999 -0.0718 -0.8730 -0.3260
   19CHTO   O46 7834   4.010   8.080   1.950  0.2467  0.3427  0.0508
   19CHTO  H103 7835   4.070   8.009   1.966 -0.9582 -0.8400 -0.5478
   19CHTO   O39 7836   3.569   7.966   2.348 -0.4602 -0.2059  0.6931
   19CHTO   C60 7837   3.531   7.888   2.232 -0.0642 -0.1842  0.0712
   19CHTO  H117 7838   3.544   7.941   2.138  1.3603  0.2570  0.5011
   19CHTO   C62 7839   3.622   7.761   2.225  0.0504 -0.3185  0.7080
   19CHTO  H119 7840   3.728   7.794   2.224 -1.0552  3.4138 -0.2653
   19CHTO   O43 7841   3.600   7.685   2.339  0.0754  0.1690  0.3375
   19CHTO  H101 7842   3.653   7.713   2.411 -0.8256  0.7542  0.7816
   19CHTO   C66 7843   3.592   7.692   2.076 -0.3309 -0.3312  0.0757
   19CHTO  H123 7844   3.630   7.763   2.004 -1.0785  2.5166  2.3956
   19CHTO   N12 7845   3.674   7.572   2.063  0.4480 -0.3732  0.0275
   19CHTO  H110 7846   3.641   7.513   1.979 -1.8230  2.2491 -0.9813
   19CHTO  H111 7847   3.662   7.530   2.162 -3.0793  2.7569  1.0462
   19CHTO   C69 7848   3.442   7.651   2.065  0.7930 -0.1646  0.0067
   19CHTO  H126 7849   3.410   7.563   2.125 -1.7934 -0.8376 -2.2517
   19CHTO   O41 7850   3.339   7.783   2.107 -0.5591 -0.2188  0.0982
   19CHTO   C64 7851   3.375   7.847   2.236  0.3560  0.1875 -0.2126
   19CHTO  H121 7852   3.364   7.775   2.320 -1.4338 -0.0819 -0.6560
   19CHTO   C71 7853   3.285   7.967   2.248  0.7409  0.3043 -0.3575
   19CHTO   O47 7854   3.145   7.950   2.256 -0.4807  0.0481 -0.9285
   19CHTO  H104 7855   3.108   7.927   2.173  0.1590 -0.0519 -1.1877
   19CHTO   O34 7856   3.418   7.605   1.907 -0.2901 -0.4290  0.3931
   19CHTO   C49 7857   3.430   7.681   1.773 -0.1296  0.3896 -0.1332
   19CHTO   H91 7858   3.475   7.776   1.800 -3.2810  1.8490  0.2911
   19CHTO   C47 7859   3.289   7.703   1.735  0.3521  0.1012 -0.1579
   19CHTO   H89 7860   3.286   7.776   1.651 -0.9316 -0.1946 -0.3782
   19CHTO   O33 7861   3.202   7.753   1.836  0.1585  0.7447 -0.2487
   19CHTO   H70 7862   3.243   7.819   1.889  0.9607  0.4196 -0.4566
   19CHTO   C45 7863   3.228   7.565   1.672  0.4229  0.3755  0.6046
   19CHTO   H87 7864   3.230   7.486   1.749 -0.9940  2.2221  2.5832
   19CHTO    N8 7865   3.090   7.589   1.623  0.3777 -0.5036 -0.1138
   19CHTO   H75 7866   3.097   7.654   1.537  2.0209  2.1739  1.9694
   19CHTO   H76 7867   3.026   7.503   1.616 -2.3586  1.3361  1.3386
   19CHTO   C43 7868   3.322   7.518   1.551 -0.0642  0.2839 -0.1196
   19CHTO   H85 7869   3.285   7.424   1.509 -0.3144 -0.1803  1.1207
   19CHTO   O29 7870   3.457   7.502   1.600 -0.2737 -0.1469  0.2084
   19CHTO   C50 7871   3.523   7.611   1.666  0.6978  0.1448 -0.0797
   19CHTO   H92 7872   3.606   7.567   1.723  1.3036  0.3952 -0.7569
   19CHTO   C54 7873   3.593   7.712   1.570  0.4658 -0.5055 -0.1169
   19CHTO   O36 7874   3.708   7.660   1.511 -0.5358  0.1455 -0.0051
   19CHTO   H72 7875   3.693   7.587   1.453  2.0472 -0.1986 -0.3232
   19CHTO   O27 7876   3.318   7.622   1.445  0.3022  0.3500 -0.5877
   19CHTO   C37 7877   3.309   7.644   1.303  0.0484  0.0537 -0.6173
   19CHTO   H79 7878   3.229   7.584   1.258  0.8186 -1.9228  0.6252
   19CHTO   C38 7879   3.277   7.795   1.280 -0.0423 -0.1684 -0.8839
   19CHTO   H80 7880   3.348   7.852   1.342  0.7680  0.2793 -2.2197
   19CHTO   O31 7881   3.144   7.813   1.335  0.5426 -0.3063 -0.5323
   19CHTO   H68 7882   3.145   7.889   1.390  1.8415 -0.0647 -0.8723
   19CHTO   C39 7883   3.293   7.835   1.135  0.0754  0.6783 -0.3432
   19CHTO   H81 7884   3.199   7.799   1.093 -0.4439 -1.9405  2.9152
   19CHTO    N7 7885   3.290   7.983   1.120 -0.3193 -0.0664 -0.0103
   19CHTO   H73 7886   3.371   8.028   1.175  0.2393 -0.4978 -0.4752
   19CHTO   H74 7887   3.294   8.013   1.016  0.0932 -1.3358 -0.3710
   19CHTO   C40 7888   3.439   7.785   1.088  0.1209 -0.1384  0.8886
   19CHTO   H82 7889   3.520   7.828   1.147  2.0882 -1.6173 -0.6707
   19CHTO   O26 7890   3.440   7.644   1.097 -0.1083 -0.1427  0.1021
   19CHTO   C41 7891   3.446   7.606   1.236  0.2860  0.0793  0.1171
   19CHTO   H83 7892   3.525   7.658   1.292 -0.7466  0.3707  1.3314
   19CHTO   C52 7893   3.474   7.450   1.237  0.4487 -0.0746 -0.3953
   19CHTO   O35 7894   3.592   7.413   1.199 -0.0762 -0.3742  0.0143
   19CHTO   H71 7895   3.645   7.426   1.276  0.1868  0.6007 -0.3301
   19CHTO   O28 7896   3.456   7.814   0.946  0.5091  0.2271  0.2556
   19CHTO   C42 7897   3.577   7.872   0.897 -0.2982 -0.4603  0.3759
   19CHTO   H84 7898   3.628   7.903   0.989 -1.9403  1.3693  0.7158
   19CHTO   C44 7899   3.558   8.008   0.811 -0.9010  0.4916  0.0430
   19CHTO   H86 7900   3.485   7.988   0.732 -3.0491  0.1290  2.0778
   19CHTO   O32 7901   3.504   8.108   0.904 -0.1517 -0.0706  0.3613
   19CHTO   H69 7902   3.415   8.083   0.921 -1.7640  4.6207 -0.6682
   19CHTO   C48 7903   3.692   8.059   0.739 -0.9760 -0.1744 -0.0820
   19CHTO   H90 7904   3.757   8.104   0.814 -0.8190 -1.7886  0.7686
   19CHTO    N9 7905   3.673   8.170   0.639 -0.8741 -0.8938 -0.7101
   19CHTO   H77 7906   3.725   8.152   0.546  0.6946  1.2275 -0.2794
   19CHTO   H78 7907   3.575   8.215   0.643 -0.1751  0.6070  0.0069
   19CHTO   C51 7908   3.775   7.942   0.684 -0.0168  0.1907  0.0190
   19CHTO   H93 7909   3.727   7.892   0.600  0.3954 -1.4966  0.7645
   19CHTO   O30 7910   3.786   7.856   0.794  0.1364 -0.2574 -0.0180
   19CHTO   C46 7911   3.672   7.775   0.819  0.2268  0.0697 -0.3853
   19CHTO   H88 7912   3.638   7.737   0.723 -0.3104  0.3757 -0.3211
   19CHTO   C53 7913   3.721   7.655   0.894  0.3845 -0.4686  0.1743
   19CHTO   O72 7914   3.821   7.585   0.829 -0.3365 -0.1867 -0.0284
   19CHTO  H199 7915   3.905   7.619   0.851  0.2307 -0.0239 -2.2911
   19CHTO   O22 7916   3.914   7.969   0.652  0.0291 -0.1940 -0.3290
   19CHTO   C31 7917   4.007   7.857   0.618  0.5817 -0.3758 -0.1438
   19CHTO   H59 7918   3.959   7.761   0.649  1.3589 -1.7585 -3.0987
   19CHTO   C29 7919   4.031   7.844   0.460  0.1623 -0.2584 -0.2693
   19CHTO   H57 7920   4.050   7.944   0.418  0.4902  0.0994  0.7261
   19CHTO   O21 7921   3.903   7.801   0.409 -0.1493 -0.0879 -0.8059
   19CHTO   H37 7922   3.904   7.785   0.317 -1.5069  2.3054 -1.2798
   19CHTO   C27 7923   4.150   7.748   0.422  0.0359  0.7716  1.0054
   19CHTO   H55 7924   4.119   7.645   0.445 -0.0383  0.0044 -2.3503
   19CHTO    N5 7925   4.185   7.749   0.274  0.6395  1.3589  0.1373
   19CHTO   H43 7926   4.103   7.760   0.204  1.3999  0.1073 -0.9653
   19CHTO   H44 7927   4.272   7.811   0.260  0.8087  1.1103  0.1115
   19CHTO   C25 7928   4.269   7.779   0.512 -0.4213  0.5755  0.6211
   19CHTO   H53 7929   4.296   7.882   0.485  1.6383 -0.3391 -0.8773
   19CHTO   O17 7930   4.233   7.778   0.652  0.3768  0.0172  0.3404
   19CHTO   C32 7931   4.144   7.880   0.690  0.3325 -0.7674 -0.1693
   19CHTO   H60 7932   4.176   7.980   0.662  0.1568 -1.4133 -2.9137
   19CHTO   C36 7933   4.131   7.881   0.842  0.1438  0.0127 -0.3806
   19CHTO   O25 7934   4.247   7.915   0.911  0.5817  0.3469  0.6307
   19CHTO   H40 7935   4.239   7.870   0.993 -0.2023 -0.6725  0.0054
   19CHTO   O15 7936   4.406   7.671   0.498  0.0603  0.5823 -0.0390
   19CHTO   C19 7937   4.498   7.632   0.390  0.3022 -0.6565 -0.5304
   19CHTO   H47 7938   4.459   7.684   0.301  1.6023 -1.7663 -1.7744
   19CHTO   C20 7939   4.637   7.683   0.414  0.8896  0.2772  0.2755
   19CHTO   H48 7940   4.670   7.663   0.518  1.0250  0.4343  0.2638
   19CHTO   O19 7941   4.609   7.827   0.404  0.3518 -0.8264  0.1323
   19CHTO   H35 7942   4.695   7.862   0.403  0.1188 -0.1825  1.9326
   19CHTO   C21 7943   4.743   7.631   0.305  0.5236 -0.3625  0.5705
   19CHTO   H49 7944   4.722   7.675   0.208  0.1053 -1.0217  0.3609
   19CHTO    N4 7945   4.885   7.676   0.340  0.5630  0.5361 -0.3682
   19CHTO   H41 7946   4.898   7.783   0.337 -2.1540  1.0044  2.5324
   19CHTO   H42 7947   4.958   7.625   0.278 -1.8554 -2.4482 -0.8759
   19CHTO   C22 7948   4.725   7.479   0.278  0.1789  0.7867 -0.0749
   19CHTO   H50 7949   4.751   7.424   0.369 -0.3513 -0.2254 -0.5236
   19CHTO   O14 7950   4.588   7.453   0.243  0.3730  1.1787 -0.4055
   19CHTO   C23 7951   4.501   7.481   0.357 -0.7194 -0.1925  0.1090
   19CHTO   H51 7952   4.544   7.427   0.442  1.8267  0.5671 -0.6518
   19CHTO   C34 7953   4.357   7.423   0.340 -0.3500  0.0227 -0.3447
   19CHTO   O23 7954   4.294   7.457   0.214  0.0238  0.3763 -0.2959
   19CHTO   H38 7955   4.280   7.549   0.216  0.0604  0.4020 -1.0600
   19CHTO   O16 7956   4.794   7.420   0.159 -0.1233 -0.0180  0.0349
   19CHTO   C24 7957   4.830   7.261   0.145 -0.1557  0.6969 -0.3820
   19CHTO   H52 7958   4.936   7.240   0.160 -0.5422 -0.2900  1.0302
   19CHTO   C26 7959   4.806   7.223   0.000  0.2459 -0.3359  0.8817
   19CHTO   H54 7960   4.699   7.233  -0.026  0.7775 -0.0712 -1.3545
   19CHTO   O20 7961   4.891   7.312  -0.073 -0.4082 -0.5516 -0.1870
   19CHTO   H36 7962   4.948   7.267  -0.132  2.2065  1.1322  0.9684
   19CHTO   C30 7963   4.834   7.074  -0.029  0.7610 -0.5847 -0.7400
   19CHTO   H58 7964   4.939   7.054  -0.002  0.1624 -0.5600  1.7228
   19CHTO    N6 7965   4.807   7.045  -0.168 -0.2925  0.0818 -0.2553
   19CHTO   H45 7966   4.888   6.992  -0.216 -0.9594 -2.3329  1.1945
   19CHTO   H46 7967   4.719   6.983  -0.179 -0.9682  0.9920 -0.0291
   19CHTO   C33 7968   4.742   6.995   0.070  0.2944  0.1518  0.0963
   19CHTO   H61 7969   4.638   7.020   0.047  0.5116  0.4658 -0.5586
   19CHTO   O18 7970   4.777   7.027   0.207 -0.0040  0.4361 -0.2022
   19CHTO   C28 7971   4.753   7.161   0.245  0.3722  0.2578 -0.1513
   19CHTO   H56 7972   4.647   7.187   0.235 -0.5044 -2.7914  0.4249
   19CHTO   C35 7973   4.795   7.159   0.396 -0.3630  0.6929 -0.8148
   19CHTO   O24 7974   4.903   7.248   0.437 -0.7416 -0.3234  0.1084
   19CHTO   H39 7975   4.867   7.322   0.482  0.5925 -0.4085  1.3433
   19CHTO    O9 7976   4.767   6.858   0.039 -0.3147 -0.3436 -0.3965
   19CHTO   C13 7977   4.634   6.766   0.011  0.5742  0.3897 -0.3335
   19CHTO   H26 7978   4.558   6.827  -0.043  0.2213  0.2893  0.0474
   19CHTO   C11 7979   4.581   6.723   0.142 -0.1210 -0.6084  0.1457
   19CHTO   H24 7980   4.561   6.820   0.189 -1.2882 -1.2569  1.0124
   19CHTO    O8 7981   4.675   6.658   0.228  0.1120  0.0891  0.4007
   19CHTO    H3 7982   4.632   6.651   0.311 -1.8983 -0.8187 -0.6952
   19CHTO    C9 7983   4.454   6.644   0.121  0.1185  0.2692 -0.1373
   19CHTO   H22 7984   4.396   6.700   0.047 -1.8331  0.1287  1.2578
   19CHTO    N2 7985   4.368   6.630   0.240 -0.0758 -0.4113 -0.1674
   19CHTO   H10 7986   4.291   6.554   0.234  0.1620 -0.6212 -0.5337
   19CHTO   H11 7987   4.419   6.614   0.334 -0.2401  0.9127  0.1574
   19CHTO    C7 7988   4.490   6.505   0.049  0.4560  0.3191  0.2946
   19CHTO   H20 7989   4.393   6.462   0.016  0.2300 -0.1999  1.5989
   19CHTO    O4 7990   4.573   6.525  -0.066 -0.1041 -0.3341  0.1614
   19CHTO   C14 7991   4.660   6.642  -0.091 -0.2773 -0.0213 -1.1189
   19CHTO   H27 7992   4.636   6.669  -0.196  1.4377  0.0679 -1.5061
   19CHTO   C18 7993   4.807   6.600  -0.095 -0.9789  0.6512 -0.2685
   19CHTO   O13 7994   4.837   6.536  -0.220 -0.2499  0.2890  0.3146
   19CHTO    H7 7995   4.804   6.592  -0.288  1.3957 -0.0561 -0.7922
   19CHTO    O2 7996   4.560   6.402   0.154  0.2062  0.0234 -0.3630
   19CHTO    C1 7997   4.552   6.254   0.156 -0.0396 -0.4610  0.6736
   19CHTO   H14 7998   4.571   6.209   0.056  0.0956  1.2245 -0.0624
   19CHTO    C2 7999   4.408   6.188   0.207  0.3223  0.2309 -0.0275
   19CHTO   H15 8000   4.390   6.240   0.302 -2.1308 -1.8543  0.7037
   19CHTO    O6 8001   4.298   6.226   0.119  0.5315  0.3584  0.2780
   19CHTO    H1 8002   4.289   6.319   0.124 -3.2322  0.0444  0.2383
   19CHTO    C3 8003   4.405   6.033   0.236 -0.1199 -0.3852 -0.4620
   19CHTO   H16 8004   4.406   5.993   0.134  4.3919  1.8923 -1.4350
   19CHTO    N1 8005   4.278   5.984   0.306  0.1807 -0.2964 -0.1273
   19CHTO    H8 8006   4.253   5.888   0.263  1.5669 -0.5236 -0.4485
   19CHTO    H9 8007   4.295   5.979   0.412  1.8837  3.1441 -0.1506
   19CHTO    C4 8008   4.545   5.997   0.313 -0.2425  1.0961 -0.1019
   19CHTO   H17 8009   4.538   6.033   0.415 -0.7543  1.5460 -0.2971
   19CHTO    O1 8010   4.662   6.052   0.246  0.3883 -0.1508  0.5066
   19CHTO    C5 8011   4.663   6.193   0.252  0.8275 -0.1098 -0.3597
   19CHTO   H18 8012   4.642   6.231   0.352 -0.6118 -1.0021 -0.3110
   19CHTO   C16 8013   4.808   6.233   0.206 -0.1601 -0.1391  0.0013
   19CHTO   O11 8014   4.825   6.203   0.065  0.2779  0.0613  0.5010
   19CHTO    H5 8015   4.790   6.117   0.048  0.4805 -0.1922  1.3424
   19CHTO    O3 8016   4.573   5.855   0.301  0.2630  0.7903 -0.0186
   19CHTO    C6 8017   4.563   5.787   0.427  0.0184 -0.0760 -0.3324
   19CHTO   H19 8018   4.511   5.837   0.508  0.6722  1.8298 -1.0679
   19CHTO    C8 8019   4.507   5.642   0.408  0.3837 -0.8603 -0.0236
   19CHTO   H21 8020   4.574   5.589   0.340  0.5684 -0.9303  0.2127
   19CHTO    O7 8021   4.378   5.660   0.343 -0.3419 -0.1378 -0.0584
   19CHTO    H2 8022   4.395   5.660   0.251  1.2174  0.4951  0.2061
   19CHTO   C12 8023   4.501   5.572   0.549  0.7425 -0.1758 -0.6264
   19CHTO   H25 8024   4.435   5.640   0.608 -0.3528 -1.7747  0.0316
   19CHTO    N3 8025   4.431   5.439   0.539  0.1549  0.3820  0.2306
   19CHTO   H12 8026   4.332   5.449   0.582  0.1544 -1.8440  0.7834
   19CHTO   H13 8027   4.481   5.366   0.600 -2.1930 -1.5977 -0.1383
   19CHTO   C15 8028   4.643   5.577   0.618 -0.1370  0.7927 -0.1380
   19CHTO   H28 8029   4.721   5.518   0.571  0.3622  1.1737  0.1966
   19CHTO   O10 8030   4.630   5.546   0.788  0.4402  0.4559 -0.1033
   19CHTO    H4 8031   4.661   5.464   0.821  1.2688  0.6929 -0.2810
   19CHTO    O5 8032   4.693   5.712   0.623 -0.1337  0.1437 -0.1921
   19CHTO   C10 8033   4.709   5.759   0.484  0.0936 -0.3742 -0.3238
   19CHTO   H23 8034   4.754   5.691   0.412 -0.1985 -2.9704  1.8473
   19CHTO   C17 8035   4.797   5.882   0.497  0.3768 -0.1945 -0.1138
   19CHTO   O12 8036   4.876   5.912   0.382 -0.0773  0.3831  0.0312
   19CHTO    H6 8037   4.919   5.995   0.389  0.3774 -0.0588  3.1869
   20CHTO  H203 8038   4.590   1.627   2.047  0.6114  1.0523 -0.4010
   20CHTO   O82 8039   4.602   1.579   1.967  0.1429 -0.2864  0.3059
   20CHTO  C123 8040   4.613   1.662   1.849 -0.2158 -0.1244  0.2078
   20CHTO  H227 8041   4.552   1.753   1.857  1.6012  1.3053 -1.7205
   20CHTO   O77 8042   4.752   1.710   1.867  0.0947 -0.8680 -0.1444
   20CHTO  C118 8043   4.785   1.816   1.779 -0.5526 -0.1296  0.6746
   20CHTO  H222 8044   4.713   1.899   1.778 -0.3166  0.0783 -0.7604
   20CHTO  C125 8045   4.930   1.883   1.822 -0.2748 -0.3251 -0.3759
   20CHTO   O84 8046   4.917   1.937   1.956  0.5365  0.0413  0.3726
   20CHTO  H205 8047   4.995   1.967   1.999 -0.3275  1.4957  0.9741
   20CHTO  C114 8048   4.800   1.761   1.639  0.2458  0.0372  0.5280
   20CHTO  H218 8049   4.880   1.687   1.638  0.1599 -0.0671  1.2052
   20CHTO  C116 8050   4.674   1.677   1.591  0.2342 -0.0636  0.3769
   20CHTO  H220 8051   4.597   1.740   1.543  0.5833  0.0149 -0.0889
   20CHTO   O79 8052   4.715   1.591   1.479 -0.2437 -0.3270 -0.2648
   20CHTO  H201 8053   4.788   1.538   1.506 -0.3941 -0.7711 -0.7233
   20CHTO  C120 8054   4.612   1.591   1.712  0.4364  1.0444  0.0194
   20CHTO  H224 8055   4.675   1.501   1.725  1.9206  1.9624 -0.6955
   20CHTO   N21 8056   4.477   1.543   1.680  0.0520 -0.3220 -0.1699
   20CHTO  H211 8057   4.478   1.551   1.573 -3.2638  0.2527 -0.1998
   20CHTO  H212 8058   4.462   1.447   1.726  0.9028 -0.1390  0.5141
   20CHTO   O75 8059   4.829   1.863   1.541  0.2833 -0.5963 -0.5012
   20CHTO  C112 8060   4.964   1.834   1.434  0.7001 -0.3484  0.6936
   20CHTO  H216 8061   4.966   1.725   1.420 -0.7558 -0.2460 -0.4086
   20CHTO   O73 8062   5.079   1.885   1.501 -0.1797 -0.4017  0.0421
   20CHTO  C113 8063   5.198   1.882   1.426  0.4055 -0.3725  0.0934
   20CHTO  H217 8064   5.226   1.783   1.386  0.9912 -1.0423  2.1005
   20CHTO  C124 8065   5.315   1.923   1.513 -0.1405 -0.5568  0.0124
   20CHTO   O83 8066   5.353   1.826   1.606  0.7861 -0.1720  0.0361
   20CHTO  H204 8067   5.370   1.746   1.562 -0.5824  0.8116 -2.3714
   20CHTO  C109 8068   5.185   1.977   1.304 -0.3191 -0.4654 -0.7751
   20CHTO  H213 8069   5.158   2.077   1.342  2.4665  0.3775 -0.9625
   20CHTO  C110 8070   5.071   1.918   1.216  0.5462 -0.0870 -0.5711
   20CHTO  H214 8071   5.098   1.819   1.179  0.0236 -0.3350 -0.2875
   20CHTO   O78 8072   5.040   2.011   1.102 -0.2629  0.1684 -0.2308
   20CHTO  H200 8073   5.111   2.049   1.055 -0.1425  1.2707  0.8133
   20CHTO  C111 8074   4.939   1.900   1.295 -0.2191 -0.6450  0.4896
   20CHTO  H215 8075   4.888   1.997   1.309  2.6891  0.9301  0.5514
   20CHTO   N19 8076   4.838   1.824   1.225 -0.6046 -0.0793  0.2621
   20CHTO  H207 8077   4.868   1.807   1.123  1.9824  1.6157  0.7051
   20CHTO  H208 8078   4.742   1.874   1.228 -0.8550 -0.4045 -1.6010
   20CHTO   O74 8079   5.308   1.982   1.230  0.6090  0.3261 -0.4549
   20CHTO  C115 8080   5.394   2.115   1.245 -0.9015 -0.1341  0.1431
   20CHTO  H219 8081   5.353   2.188   1.315  0.7412  0.1326  0.8379
   20CHTO   O76 8082   5.542   2.090   1.294 -0.9542 -0.4521  0.0721
   20CHTO  C122 8083   5.604   1.985   1.218  0.7939  0.0071 -0.5291
   20CHTO  H226 8084   5.552   1.894   1.246 -0.0673  0.7609  0.3604
   20CHTO  C126 8085   5.757   1.982   1.260  0.7443 -0.3394  0.1400
   20CHTO   O85 8086   5.831   1.895   1.163 -0.4170  0.1197 -0.7427
   20CHTO  H206 8087   5.837   1.812   1.207  1.2630  1.5901  1.9375
   20CHTO  C121 8088   5.593   2.024   1.065  0.0154 -0.1173 -0.2336
   20CHTO  H225 8089   5.694   2.011   1.021 -0.2671  0.4272 -1.0538
   20CHTO   O81 8090   5.514   1.924   0.999  0.0565 -0.2980 -0.0454
   20CHTO  H202 8091   5.561   1.854   0.960  0.5402 -0.7016  1.2323
   20CHTO  C119 8092   5.542   2.164   1.045 -0.1766  0.1742  0.5007
   20CHTO  H223 8093   5.596   2.238   1.104 -0.3001  1.3232 -0.7841
   20CHTO  C117 8094   5.396   2.180   1.097 -0.2118 -0.9297 -0.2277
   20CHTO  H221 8095   5.317   2.128   1.042 -0.6735 -1.4906  0.9538
   20CHTO   N20 8096   5.352   2.327   1.097 -0.3059  0.4684  0.0706
   20CHTO  H209 8097   5.262   2.341   1.156  0.5376  0.8477  1.2720
   20CHTO  H210 8098   5.427   2.400   1.124 -0.2121  0.0958  0.8360
   20CHTO   O80 8099   5.561   2.225   0.901  0.2326 -0.1804 -0.0780
   20CHTO  C103 8100   5.668   2.196   0.827 -0.2234  0.4243 -0.6358
   20CHTO  H190 8101   5.753   2.157   0.882 -1.0527 -0.8021 -0.2175
   20CHTO  C101 8102   5.639   2.105   0.709  0.1251 -0.2924  0.0758
   20CHTO  H188 8103   5.532   2.123   0.694 -0.2416 -0.8618  1.8429
   20CHTO   O68 8104   5.668   1.954   0.760  0.4063 -0.0143 -0.2721
   20CHTO  H168 8105   5.757   1.931   0.741  0.2822 -1.6276  0.9770
   20CHTO   C99 8106   5.720   2.124   0.577 -0.5234 -0.2548 -0.3829
   20CHTO  H186 8107   5.827   2.097   0.589 -0.9535 -1.3196  1.1969
   20CHTO   N17 8108   5.665   2.038   0.461  0.2724  0.1352  0.1168
   20CHTO  H174 8109   5.558   2.049   0.463  0.2890  0.6494 -1.0378
   20CHTO  H175 8110   5.709   1.940   0.453 -1.6056 -0.5834 -1.6100
   20CHTO   C97 8111   5.725   2.273   0.545  0.2275 -0.8430  0.0836
   20CHTO  H184 8112   5.622   2.309   0.528  0.5777  1.8515  3.1852
   20CHTO   O64 8113   5.790   2.337   0.657 -0.4862 -0.1311  0.8036
   20CHTO  C104 8114   5.709   2.347   0.769 -0.0569 -0.4906 -0.2149
   20CHTO  H191 8115   5.618   2.401   0.742 -0.5238 -0.7265  0.8689
   20CHTO  C108 8116   5.786   2.435   0.872  0.2302  0.4739  0.7046
   20CHTO   O71 8117   5.876   2.356   0.952  0.9091 -0.0681 -0.1441
   20CHTO  H171 8118   5.918   2.415   1.011  1.0498  0.6102 -0.9197
   20CHTO   O62 8119   5.807   2.302   0.425  0.1408 -0.7018  0.1046
   20CHTO   C91 8120   5.771   2.435   0.372  0.1222  0.0934 -0.5941
   20CHTO  H178 8121   5.727   2.494   0.452  0.4839  0.2697 -0.5239
   20CHTO   C92 8122   5.662   2.422   0.266  0.6912  0.2605  0.1793
   20CHTO  H179 8123   5.710   2.365   0.185  2.5655  0.6586  0.9787
   20CHTO   O66 8124   5.543   2.358   0.320 -0.3270  0.2295 -0.0902
   20CHTO  H166 8125   5.539   2.267   0.297 -1.4252  0.4079 -0.6336
   20CHTO   C93 8126   5.627   2.567   0.206 -0.3231  0.1103  0.6580
   20CHTO  H180 8127   5.554   2.614   0.274 -1.3108 -0.8638  0.2989
   20CHTO   N16 8128   5.548   2.554   0.079 -0.0106 -0.1363  0.3318
   20CHTO  H172 8129   5.443   2.568   0.101 -0.1660 -0.4094 -0.2152
   20CHTO  H173 8130   5.567   2.628   0.003  0.3637 -0.4674  0.1008
   20CHTO   C94 8131   5.747   2.667   0.193 -0.3771 -0.1958 -0.2959
   20CHTO  H181 8132   5.802   2.655   0.100  3.4407  2.6643  1.4675
   20CHTO   O61 8133   5.842   2.655   0.299 -0.4024  0.5686 -0.1161
   20CHTO   C95 8134   5.890   2.523   0.315  0.2361  1.1707 -0.1108
   20CHTO  H182 8135   5.925   2.480   0.222 -2.1653  1.0317 -0.9649
   20CHTO  C106 8136   5.998   2.541   0.423  0.2019  0.5553  0.0608
   20CHTO   O69 8137   6.083   2.427   0.442 -0.8301  0.8275 -0.2481
   20CHTO  H169 8138   6.031   2.352   0.459  0.7377 -0.7103 -1.9779
   20CHTO   O63 8139   5.690   2.828   0.200 -0.1993 -0.2767 -0.1692
   20CHTO   C96 8140   5.673   2.906   0.037  0.4027 -0.4552  0.0779
   20CHTO  H183 8141   5.601   2.844  -0.016 -1.6447 -0.6611  3.0128
   20CHTO   C98 8142   5.795   2.912  -0.058 -0.1847 -0.3040 -0.6915
   20CHTO  H185 8143   5.889   2.933  -0.005  0.5806 -0.7804 -1.8451
   20CHTO   O67 8144   5.809   2.775  -0.105  0.3716 -0.0611  0.4056
   20CHTO  H167 8145   5.839   2.718  -0.037 -1.6208 -1.2969  0.2850
   20CHTO  C102 8146   5.776   3.011  -0.189  0.6152 -0.1124  0.1033
   20CHTO  H189 8147   5.695   2.964  -0.245  1.3599 -1.8718  0.4807
   20CHTO   N18 8148   5.890   3.027  -0.281  0.6250  0.2656  0.1881
   20CHTO  H176 8149   5.982   3.032  -0.224  1.1400 -0.5376 -0.5534
   20CHTO  H177 8150   5.896   2.941  -0.347 -0.4195 -1.9920  2.9604
   20CHTO  C105 8151   5.714   3.148  -0.148  0.5706  0.3615 -0.1417
   20CHTO  H192 8152   5.780   3.200  -0.079 -1.5054  0.3400  1.9296
   20CHTO   O65 8153   5.595   3.130  -0.067  0.3621  0.3235  0.0203
   20CHTO  C100 8154   5.601   3.049   0.054 -0.3850 -0.4157  0.1090
   20CHTO  H187 8155   5.655   3.108   0.130 -0.1044 -1.5588  0.8047
   20CHTO  C107 8156   5.462   3.032   0.106 -0.0821  0.0724 -0.0971
   20CHTO   O70 8157   5.359   2.967   0.036 -0.1002  0.1780 -0.1286
   20CHTO  H170 8158   5.343   3.009  -0.046 -0.6537  1.2385  0.5113
   20CHTO   O57 8159   5.677   3.234  -0.298  1.4697 -0.6927  0.2875
   20CHTO   C85 8160   5.685   3.378  -0.299 -0.3408  0.0979 -0.5184
   20CHTO  H157 8161   5.712   3.414  -0.198  0.6631 -0.7159 -0.4933
   20CHTO   C83 8162   5.549   3.436  -0.333  0.7480  0.0679 -0.2394
   20CHTO  H155 8163   5.480   3.409  -0.253 -0.8853 -1.2396 -2.0676
   20CHTO   O56 8164   5.485   3.360  -0.440  0.1828  0.5210 -0.9171
   20CHTO  H135 8165   5.489   3.270  -0.414 -1.4416  1.2369  1.9079
   20CHTO   C81 8166   5.554   3.592  -0.348  0.0599 -0.2160 -0.1008
   20CHTO  H153 8167   5.563   3.639  -0.251 -0.9173  1.1056 -0.6380
   20CHTO   N14 8168   5.422   3.642  -0.385  0.7314 -0.4761  0.1204
   20CHTO  H141 8169   5.365   3.676  -0.301  1.0212 -0.6972  0.4028
   20CHTO  H142 8170   5.437   3.725  -0.451 -0.9428 -0.3447 -0.1201
   20CHTO   C79 8171   5.665   3.641  -0.455 -0.4240  0.1183  0.7674
   20CHTO  H151 8172   5.678   3.748  -0.447 -1.1218  0.3717 -1.3328
   20CHTO   O52 8173   5.789   3.570  -0.429 -0.2767  0.4111 -0.1468
   20CHTO   C86 8174   5.787   3.429  -0.411  0.3777 -0.4840 -0.0900
   20CHTO  H158 8175   5.766   3.385  -0.511  4.3658 -0.3314 -1.0783
   20CHTO   C90 8176   5.926   3.378  -0.378 -0.3380 -0.0112 -0.2109
   20CHTO   O60 8177   5.979   3.429  -0.253 -0.2299  0.0054  0.0346
   20CHTO  H138 8178   6.030   3.360  -0.215 -1.3435  0.3482  2.2759
   20CHTO   O50 8179   5.646   3.610  -0.590 -0.4412 -0.4489 -0.0753
   20CHTO   C73 8180   5.731   3.621  -0.705 -0.1546 -0.7289  0.1948
   20CHTO  H145 8181   5.825   3.565  -0.695  0.0940 -0.7302 -1.8599
   20CHTO   C74 8182   5.781   3.770  -0.713  0.4662  0.0079 -0.0030
   20CHTO  H146 8183   5.839   3.795  -0.623  0.5989  0.9482 -0.3360
   20CHTO   O54 8184   5.866   3.794  -0.832  0.6853  0.2591 -0.2284
   20CHTO  H133 8185   5.872   3.711  -0.875  1.2638 -1.1363  2.4408
   20CHTO   C75 8186   5.654   3.869  -0.729 -0.0534  0.1372 -0.2457
   20CHTO  H147 8187   5.600   3.869  -0.633  0.2243 -0.4157 -0.0842
   20CHTO   N13 8188   5.693   4.006  -0.750  0.0368  0.1978 -0.2163
   20CHTO  H139 8189   5.628   4.069  -0.691 -0.4875  1.0982 -1.7406
   20CHTO  H140 8190   5.792   4.032  -0.717  0.1690  0.9870 -1.2296
   20CHTO   C76 8191   5.566   3.813  -0.854 -0.0291  0.0469 -0.0381
   20CHTO  H148 8192   5.628   3.841  -0.939  0.4700 -0.8620  0.0128
   20CHTO   O49 8193   5.538   3.666  -0.852  0.1496  0.1015  0.3109
   20CHTO   C77 8194   5.655   3.584  -0.833 -0.3077  0.4963 -0.0409
   20CHTO  H149 8195   5.715   3.602  -0.922 -0.1464 -2.1067 -0.5112
   20CHTO   C88 8196   5.621   3.432  -0.830  0.4429 -0.8814  0.5541
   20CHTO   O58 8197   5.537   3.393  -0.717  0.1341  0.2682 -0.2727
   20CHTO  H136 8198   5.582   3.415  -0.637  0.7521 -0.6111 -0.3697
   20CHTO   O51 8199   5.412   3.903  -0.858  0.1430  0.1168  0.1743
   20CHTO   C78 8200   5.307   3.889  -0.730  1.0908 -0.2004 -0.4666
   20CHTO  H150 8201   5.355   3.850  -0.638 -3.2686 -2.1471  1.1565
   20CHTO   C80 8202   5.184   3.798  -0.757  0.1121  0.4597  0.0261
   20CHTO  H152 8203   5.140   3.829  -0.854 -1.4623 -0.4375  0.4358
   20CHTO   O55 8204   5.242   3.672  -0.772 -0.4076 -0.0031 -0.2451
   20CHTO  H134 8205   5.193   3.615  -0.827  0.1830 -1.6765  0.9162
   20CHTO   C84 8206   5.077   3.794  -0.638  0.3968 -0.2509 -0.1883
   20CHTO  H156 8207   5.133   3.759  -0.551  0.3498 -0.1861 -0.1320
   20CHTO   N15 8208   4.969   3.693  -0.659 -0.4390 -0.3000  0.0198
   20CHTO  H143 8209   4.960   3.649  -0.562  0.4639 -0.7522 -0.0958
   20CHTO  H144 8210   4.996   3.619  -0.731 -0.8706  0.7576 -1.2521
   20CHTO   C87 8211   5.019   3.930  -0.594 -0.1951  0.1238 -0.1186
   20CHTO  H159 8212   4.958   3.956  -0.681 -0.2092 -0.0873 -0.1720
   20CHTO   O53 8213   5.148   4.022  -0.585 -0.4973  0.1803  0.4011
   20CHTO   C82 8214   5.240   4.030  -0.697 -0.4541  0.3942 -0.3639
   20CHTO  H154 8215   5.199   4.070  -0.790  0.4386  2.8506  0.2433
   20CHTO   C89 8216   5.356   4.124  -0.659  0.2359  0.1949 -0.1096
   20CHTO   O59 8217   5.295   4.250  -0.634 -0.6693 -0.6923  0.7155
   20CHTO  H137 8218   5.361   4.309  -0.606 -0.0089 -0.9758 -0.2261
   20CHTO   O45 8219   4.933   3.933  -0.455 -0.1044  0.1971  0.7920
   20CHTO   C67 8220   5.003   3.911  -0.332  0.0442  0.2657  0.1934
   20CHTO  H124 8221   5.065   3.822  -0.343  0.6004  0.7274 -0.4584
   20CHTO   C65 8222   5.101   4.021  -0.279  0.0503  0.4249 -0.0666
   20CHTO  H122 8223   5.069   4.114  -0.327  0.7346  1.1718  0.8855
   20CHTO   O44 8224   5.233   3.991  -0.333 -0.3194 -0.2093 -0.2020
   20CHTO  H102 8225   5.299   4.049  -0.300  1.2715 -2.6292  0.9774
   20CHTO   C63 8226   5.095   4.042  -0.120  0.5274 -0.0861 -0.1099
   20CHTO  H120 8227   5.000   4.093  -0.105  0.4768 -0.1490 -0.2134
   20CHTO   N11 8228   5.203   4.133  -0.061 -0.3028  0.0663 -0.5435
   20CHTO  H108 8229   5.201   4.223  -0.119 -0.3838 -0.8052 -1.9328
   20CHTO  H109 8230   5.296   4.082  -0.068 -0.0693  0.7535 -2.9869
   20CHTO   C61 8231   5.067   3.912  -0.037  0.8535 -0.3325  0.6885
   20CHTO  H118 8232   5.020   3.946   0.057  0.5408  0.8210  0.1219
   20CHTO   O40 8233   4.969   3.822  -0.102 -0.5285 -0.2165 -0.3190
   20CHTO   C68 8234   4.898   3.866  -0.221  0.7382  0.4785  0.0226
   20CHTO  H125 8235   4.839   3.955  -0.189  0.6559  0.5700 -0.3810
   20CHTO   C72 8236   4.802   3.763  -0.260  0.2667 -0.1898 -0.0424
   20CHTO   O48 8237   4.880   3.644  -0.286  0.2314 -0.1896  0.3184
   20CHTO  H105 8238   4.857   3.610  -0.370  0.5245 -0.1972  0.2390
   20CHTO   O38 8239   5.179   3.827  -0.010 -0.1550  0.0191 -0.0706
   20CHTO   C55 8240   5.162   3.729   0.093  0.6199  0.6876  0.4235
   20CHTO  H112 8241   5.055   3.703   0.098  0.3609  1.3655 -1.2970
   20CHTO   C56 8242   5.214   3.783   0.230  0.2352  0.4796  0.6760
   20CHTO  H113 8243   5.316   3.825   0.222  1.2505 -2.0664 -0.1162
   20CHTO   O42 8244   5.124   3.902   0.260 -0.4332 -0.0678 -0.2214
   20CHTO  H100 8245   5.119   3.915   0.352  1.6212  1.4990 -0.3003
   20CHTO   C57 8246   5.204   3.670   0.344  0.2230  0.5030  1.2636
   20CHTO  H114 8247   5.098   3.653   0.362 -0.2032  2.0004  0.1890
   20CHTO   N10 8248   5.247   3.711   0.480 -0.8037  0.0152  0.3637
   20CHTO  H106 8249   5.344   3.670   0.504 -0.2335  0.0543 -1.7592
   20CHTO  H107 8250   5.240   3.817   0.498 -2.0290 -0.3282  2.0259
   20CHTO   C58 8251   5.274   3.544   0.294 -0.4015 -0.3942 -0.3205
   20CHTO  H115 8252   5.382   3.567   0.284 -0.6641  1.1229  0.2595
   20CHTO   O37 8253   5.219   3.499   0.167 -0.0364 -0.6483  0.3322
   20CHTO   C59 8254   5.230   3.589   0.053  0.3477  0.5065 -0.4779
   20CHTO  H116 8255   5.334   3.596   0.022  0.3858  0.5261 -0.3463
   20CHTO   C70 8256   5.157   3.529  -0.067  0.1655  0.2547 -0.5928
   20CHTO   O46 8257   5.221   3.412  -0.123  0.3613  0.0004 -0.6657
   20CHTO  H103 8258   5.204   3.338  -0.069 -1.4407 -0.8400 -2.3463
   20CHTO   O39 8259   5.244   3.433   0.407 -0.4034 -0.1706 -0.5173
   20CHTO   C60 8260   5.337   3.323   0.426 -0.0046  0.2888 -0.6124
   20CHTO  H117 8261   5.365   3.288   0.326 -0.4327  1.6747 -1.2406
   20CHTO   C62 8262   5.464   3.367   0.504  0.7241  0.2100 -0.4014
   20CHTO  H119 8263   5.526   3.430   0.437  1.0003 -2.2944 -2.5675
   20CHTO   O43 8264   5.424   3.454   0.616  0.5436 -0.0404 -0.1705
   20CHTO  H101 8265   5.380   3.534   0.592  0.6815  0.0487 -0.1276
   20CHTO   C66 8266   5.546   3.236   0.537  0.0423 -0.0120 -1.1267
   20CHTO  H123 8267   5.581   3.185   0.447 -0.4654 -2.4994  0.0282
   20CHTO   N12 8268   5.674   3.262   0.607  0.0845 -0.0839 -0.9043
   20CHTO  H110 8269   5.734   3.329   0.547 -0.1143  0.1525 -0.8401
   20CHTO  H111 8270   5.724   3.169   0.630  0.0166  0.5884  2.0772
   20CHTO   C69 8271   5.452   3.136   0.613 -0.2181  0.2655  0.1549
   20CHTO  H126 8272   5.399   3.180   0.700 -1.3184 -0.1356 -0.3026
   20CHTO   O41 8273   5.331   3.100   0.534  0.2196 -0.1711 -0.7474
   20CHTO   C64 8274   5.259   3.210   0.497  0.3689 -0.4366  0.6048
   20CHTO  H121 8275   5.220   3.260   0.588 -0.2024  3.4653 -1.6659
   20CHTO   C71 8276   5.133   3.161   0.409 -0.6228 -0.1073 -0.4019
   20CHTO   O47 8277   5.175   3.091   0.296 -0.0854 -0.3934  0.5861
   20CHTO  H104 8278   5.210   3.145   0.228  0.5041  0.4253  1.5332
   20CHTO   O34 8279   5.539   3.006   0.646  0.0603 -0.1241  0.0189
   20CHTO   C49 8280   5.487   2.864   0.692  0.3261  0.4317 -0.0429
   20CHTO   H91 8281   5.423   2.836   0.608  1.7169  0.6781 -1.2075
   20CHTO   C47 8282   5.392   2.887   0.812  0.2905 -0.1140  0.0244
   20CHTO   H89 8283   5.297   2.920   0.765 -0.8349  1.0574  2.9995
   20CHTO   O33 8284   5.443   3.003   0.883  0.0254 -0.4195 -0.2312
   20CHTO   H70 8285   5.432   2.996   0.976  1.0676 -0.6594 -0.1267
   20CHTO   C45 8286   5.371   2.765   0.918 -0.1530 -0.6400  0.1270
   20CHTO   H87 8287   5.457   2.780   0.984 -0.4391  0.5571  0.2522
   20CHTO    N8 8288   5.246   2.785   0.993  0.4070 -0.0110  0.0406
   20CHTO   H75 8289   5.260   2.788   1.100 -0.1848 -0.4134  0.1325
   20CHTO   H76 8290   5.196   2.873   0.955 -0.6524  0.3770  2.2533
   20CHTO   C43 8291   5.383   2.631   0.835  0.9496  0.6084  0.6999
   20CHTO   H85 8292   5.363   2.541   0.892 -0.1787 -0.0440 -0.6892
   20CHTO   O29 8293   5.510   2.628   0.767 -0.2924  0.4008 -0.0356
   20CHTO   C50 8294   5.583   2.748   0.726  0.1706  1.0870  0.1579
   20CHTO   H92 8295   5.649   2.773   0.811  0.6666  0.4228 -0.0283
   20CHTO   C54 8296   5.678   2.714   0.611 -0.3784 -0.1066 -0.0802
   20CHTO   O36 8297   5.764   2.828   0.592 -0.2240 -0.2679 -0.0286
   20CHTO   H72 8298   5.806   2.821   0.508 -0.2718  1.6696 -0.2435
   20CHTO   O27 8299   5.284   2.625   0.725 -0.6932 -0.5732 -0.4866
   20CHTO   C37 8300   5.192   2.580   0.624  0.7776 -0.2043  0.6882
   20CHTO   H79 8301   5.099   2.562   0.679  0.3914  1.5392  0.6337
   20CHTO   C38 8302   5.164   2.696   0.518  0.2547 -0.4015 -0.1917
   20CHTO   H80 8303   5.259   2.742   0.486 -1.0811  2.2964 -0.4544
   20CHTO   O31 8304   5.080   2.794   0.574  0.7867 -0.0368 -0.2930
   20CHTO   H68 8305   5.125   2.876   0.584  0.3326 -0.1535  3.1887
   20CHTO   C39 8306   5.095   2.632   0.386  0.5423  0.4635 -0.0409
   20CHTO   H81 8307   4.989   2.618   0.408  0.5446  0.9818  0.3366
   20CHTO    N7 8308   5.091   2.724   0.272  0.9175 -0.6312  0.0079
   20CHTO   H73 8309   5.183   2.754   0.224  0.3851  0.6394 -0.2288
   20CHTO   H74 8310   5.024   2.805   0.294 -1.2352 -2.2067 -0.6424
   20CHTO   C40 8311   5.149   2.489   0.348 -0.2614 -0.2589 -0.3314
   20CHTO   H82 8312   5.250   2.495   0.307  0.8382 -1.9117  2.0120
   20CHTO   O26 8313   5.147   2.401   0.465 -0.0920  0.3404  0.2545
   20CHTO   C41 8314   5.244   2.442   0.565  0.3946 -0.0772 -0.4360
   20CHTO   H83 8315   5.348   2.444   0.528  0.1940 -0.9940 -1.0836
   20CHTO   C52 8316   5.238   2.338   0.686 -0.0512 -0.5610  0.2882
   20CHTO   O35 8317   5.274   2.198   0.629  0.1330 -0.1774  0.1223
   20CHTO   H71 8318   5.349   2.167   0.677  2.2162  1.6854 -1.7647
   20CHTO   O28 8319   5.072   2.430   0.245  0.0803 -0.6766 -0.0899
   20CHTO   C42 8320   5.124   2.318   0.164  0.4494  0.4259 -0.2945
   20CHTO   H84 8321   5.036   2.290   0.106  2.1377 -1.8993 -1.8134
   20CHTO   C44 8322   5.178   2.185   0.229  0.1911  0.2304 -0.7716
   20CHTO   H86 8323   5.264   2.209   0.291  0.2378  2.1765 -1.5588
   20CHTO   O32 8324   5.070   2.132   0.309  0.0216 -0.2916  0.0161
   20CHTO   H69 8325   5.097   2.086   0.386 -0.7946 -2.0075 -0.7131
   20CHTO   C48 8326   5.229   2.083   0.115  0.1050 -0.1923 -0.1926
   20CHTO   H90 8327   5.150   2.064   0.043  0.8634  1.9736 -1.6419
   20CHTO    N9 8328   5.261   1.949   0.164  0.1756 -0.1839  0.5483
   20CHTO   H77 8329   5.293   1.888   0.080 -1.6406 -1.6109  0.8731
   20CHTO   H78 8330   5.174   1.915   0.218 -0.2378 -0.3443 -0.2057
   20CHTO   C51 8331   5.348   2.153   0.046 -0.9900 -0.5248  0.2695
   20CHTO   H93 8332   5.422   2.179   0.122  0.3244  0.4597 -1.3053
   20CHTO   O30 8333   5.296   2.271  -0.026  0.0582  0.1882 -0.8996
   20CHTO   C46 8334   5.223   2.380   0.067 -0.4710  0.1427  0.8859
   20CHTO   H88 8335   5.300   2.434   0.123 -0.6455  1.2972  0.0303
   20CHTO   C53 8336   5.143   2.471  -0.031 -0.2907 -0.2624  0.0695
   20CHTO   O72 8337   5.241   2.562  -0.088  0.1182  0.8218  0.0259
   20CHTO  H199 8338   5.209   2.616  -0.158  0.4883  3.0007  1.4979
   20CHTO   O22 8339   5.409   2.072  -0.062  0.3358  0.0128 -0.3331
   20CHTO   C31 8340   5.554   2.066  -0.078  0.1533  0.0896  1.0061
   20CHTO   H59 8341   5.569   1.993  -0.160  0.4147  2.3352 -0.9875
   20CHTO   C29 8342   5.619   2.202  -0.120 -1.3253  0.4633  0.7110
   20CHTO   H57 8343   5.579   2.276  -0.049 -0.9820  0.4518  0.9162
   20CHTO   O21 8344   5.568   2.227  -0.248 -0.4472 -0.2041 -0.1023
   20CHTO   H37 8345   5.566   2.321  -0.248  2.1924 -0.1010  0.1389
   20CHTO   C27 8346   5.780   2.203  -0.122 -0.0711 -0.0001  0.1675
   20CHTO   H55 8347   5.807   2.147  -0.213 -1.2248 -2.2092  1.1445
   20CHTO    N5 8348   5.834   2.340  -0.139 -0.1447 -0.2409  0.2441
   20CHTO   H43 8349   5.790   2.405  -0.213 -1.1879 -0.6523  0.4788
   20CHTO   H44 8350   5.933   2.334  -0.181  0.9862 -1.4409  2.9603
   20CHTO   C25 8351   5.834   2.141   0.008  0.0998 -0.6238  0.1356
   20CHTO   H53 8352   5.826   2.205   0.098  2.7212  0.8756 -0.6334
   20CHTO   O17 8353   5.770   2.014   0.036 -0.4529  0.7317 -0.4645
   20CHTO   C32 8354   5.625   2.010   0.049 -0.2197 -0.2626  0.2235
   20CHTO   H60 8355   5.591   2.075   0.130 -2.1828  0.9531 -1.5219
   20CHTO   C36 8356   5.584   1.867   0.081  0.0937 -0.5645 -0.1620
   20CHTO   O25 8357   5.620   1.775  -0.023 -0.3022  0.0818 -0.5966
   20CHTO   H40 8358   5.708   1.795  -0.046  0.2253  1.2401  2.1672
   20CHTO   O15 8359   5.983   2.125  -0.009 -0.3897  0.0658 -0.1473
   20CHTO   C19 8360   6.096   2.093  -0.106 -0.0865 -0.2867 -0.4229
   20CHTO   H47 8361   6.055   2.124  -0.203 -2.0630  0.0439  0.4907
   20CHTO   C20 8362   6.233   2.167  -0.071  0.1972  0.2867  1.1379
   20CHTO   H48 8363   6.268   2.141   0.029 -1.1279 -0.0484  1.5250
   20CHTO   O19 8364   6.221   2.306  -0.068 -0.2740 -0.1850 -0.1971
   20CHTO   H35 8365   6.153   2.336  -0.125 -1.3807  0.7751  1.6000
   20CHTO   C21 8366   6.349   2.134  -0.170 -0.0176 -0.8936  0.0321
   20CHTO   H49 8367   6.328   2.182  -0.266 -2.0180  3.4022  2.4289
   20CHTO    N4 8368   6.489   2.181  -0.135 -0.1495  0.4579  0.5228
   20CHTO   H41 8369   6.520   2.285  -0.139 -1.7785  0.9224 -0.3028
   20CHTO   H42 8370   6.550   2.124  -0.066 -2.3138 -0.0411  2.0636
   20CHTO   C22 8371   6.352   1.980  -0.195  0.8909  0.5891  0.1233
   20CHTO   H50 8372   6.386   1.927  -0.106 -4.2518 -0.5719  1.5219
   20CHTO   O14 8373   6.225   1.926  -0.229  0.2248 -0.1374  0.1517
   20CHTO   C23 8374   6.125   1.943  -0.123 -0.5847  0.2131 -0.0539
   20CHTO   H51 8375   6.170   1.902  -0.032 -1.2619  0.1020  0.2378
   20CHTO   C34 8376   6.006   1.865  -0.172  0.7207  0.4120  0.5109
   20CHTO   O23 8377   5.974   1.887  -0.312  0.2240 -0.2426  0.3058
   20CHTO   H38 8378   5.948   1.977  -0.314 -0.5896 -0.4698  0.3110
   20CHTO   O16 8379   6.432   1.944  -0.314 -0.0163 -0.0169 -0.0287
   20CHTO   C24 8380   6.508   1.802  -0.301  0.7897 -0.0640  0.2434
   20CHTO   H52 8381   6.449   1.730  -0.244  1.3960  0.2646  1.3110
   20CHTO   C26 8382   6.648   1.811  -0.233  1.1936 -0.5374 -0.1601
   20CHTO   H54 8383   6.709   1.880  -0.294  1.5928 -2.0379 -1.4932
   20CHTO   O20 8384   6.626   1.872  -0.109 -0.6033 -0.2270 -0.5856
   20CHTO   H36 8385   6.579   1.820  -0.047  0.5061  1.4593  1.7688
   20CHTO   C30 8386   6.711   1.670  -0.224 -0.3745  0.3425 -0.6725
   20CHTO   H58 8387   6.677   1.630  -0.127 -0.4297  0.4543 -0.6461
   20CHTO    N6 8388   6.855   1.683  -0.191 -0.2318  0.0831  0.1054
   20CHTO   H45 8389   6.885   1.638  -0.098 -1.5341 -1.0073  0.0036
   20CHTO   H46 8390   6.933   1.672  -0.265 -0.4139  1.6350 -0.3404
   20CHTO   C33 8391   6.667   1.574  -0.339  0.3951 -0.6671 -0.0180
   20CHTO   H61 8392   6.750   1.507  -0.363  2.4244  1.7733 -0.0104
   20CHTO   O18 8393   6.631   1.648  -0.458 -0.1016  0.3039  0.2418
   20CHTO   C28 8394   6.521   1.743  -0.445  0.7180  0.3690 -0.3080
   20CHTO   H56 8395   6.549   1.825  -0.510  1.7512 -0.2686 -0.6776
   20CHTO   C35 8396   6.385   1.677  -0.489 -0.3175  0.0422 -0.0883
   20CHTO   O24 8397   6.333   1.574  -0.407  0.7316  0.5042 -0.5245
   20CHTO   H39 8398   6.350   1.489  -0.442  1.9355  0.9095 -0.9270
   20CHTO    O9 8399   6.561   1.491  -0.302 -1.1911 -0.2809 -0.2784
   20CHTO   C13 8400   6.571   1.357  -0.212  0.3246  0.5095 -0.3233
   20CHTO   H26 8401   6.653   1.369  -0.138  1.9289 -1.5931 -1.6967
   20CHTO   C11 8402   6.597   1.228  -0.306  0.2889 -0.0737  0.3543
   20CHTO   H24 8403   6.701   1.219  -0.340  0.2014  0.1516  0.0275
   20CHTO    O8 8404   6.517   1.236  -0.424  0.1299 -0.1891  0.4512
   20CHTO    H3 8405   6.531   1.323  -0.458  1.5655 -1.4094 -2.3060
   20CHTO    C9 8406   6.560   1.102  -0.222  0.5205  0.5149  0.1575
   20CHTO   H22 8407   6.616   1.109  -0.127  2.6239 -0.2486 -0.9901
   20CHTO    N2 8408   6.609   0.974  -0.279 -0.0549  0.5429  0.2245
   20CHTO   H10 8409   6.615   0.988  -0.386 -0.9267 -2.2481 -0.2166
   20CHTO   H11 8410   6.530   0.903  -0.261  0.8766 -0.3771  0.8076
   20CHTO    C7 8411   6.404   1.099  -0.190  0.2544 -0.5059  0.0435
   20CHTO   H20 8412   6.391   1.059  -0.087 -2.0025 -0.1055 -0.0702
   20CHTO    O4 8413   6.353   1.233  -0.191  0.3336  0.4149 -0.1080
   20CHTO   C14 8414   6.431   1.340  -0.133 -0.1655 -0.2588  0.0040
   20CHTO   H27 8415   6.447   1.300  -0.030  1.0862  2.6213  0.9958
   20CHTO   C18 8416   6.346   1.480  -0.123  0.2408  0.0666 -0.9460
   20CHTO   O13 8417   6.422   1.562  -0.030 -0.1000  0.3245 -0.2590
   20CHTO    H7 8418   6.405   1.540   0.060  3.1854 -3.3076 -0.3721
   20CHTO    O2 8419   6.314   1.002  -0.287  0.6108 -0.1048 -0.2222
   20CHTO    C1 8420   6.209   0.923  -0.216  0.0569 -0.0205  0.4406
   20CHTO   H14 8421   6.197   0.963  -0.113  0.8643  0.2035  0.4597
   20CHTO    C2 8422   6.239   0.770  -0.204 -0.1907  0.2937  0.2479
   20CHTO   H15 8423   6.260   0.736  -0.306  0.6631  0.0857  0.4905
   20CHTO    O6 8424   6.361   0.763  -0.127 -0.3043  0.5479  0.1789
   20CHTO    H1 8425   6.393   0.675  -0.132 -2.5513 -0.2503 -1.2099
   20CHTO    C3 8426   6.114   0.691  -0.138 -0.7110  0.2245 -0.5265
   20CHTO   H16 8427   6.114   0.714  -0.030  2.4539  2.0395 -0.8285
   20CHTO    N1 8428   6.143   0.544  -0.144  0.6653  0.1462 -0.0557
   20CHTO    H8 8429   6.251   0.531  -0.140  1.2833  4.7524  1.8308
   20CHTO    H9 8430   6.110   0.501  -0.050  3.2296  0.7445  1.1746
   20CHTO    C4 8431   5.979   0.735  -0.199  0.0776  1.4306 -0.5482
   20CHTO   H17 8432   5.984   0.715  -0.306  1.0047 -0.5092 -0.1626
   20CHTO    O1 8433   5.966   0.881  -0.193  0.0419  0.7106 -0.5659
   20CHTO    C5 8434   6.064   0.951  -0.268  0.0484  0.5646 -0.1548
   20CHTO   H18 8435   6.052   0.902  -0.365  1.6714 -1.1170  0.4501
   20CHTO   C16 8436   6.019   1.098  -0.274  0.2627  0.4068 -0.1905
   20CHTO   O11 8437   6.104   1.167  -0.366 -0.6355  0.0750  0.4824
   20CHTO    H5 8438   6.119   1.106  -0.436  3.5877 -2.7523  3.5536
   20CHTO    O3 8439   5.870   0.674  -0.131  0.2795 -0.0823  0.0571
   20CHTO    C6 8440   5.747   0.667  -0.211 -0.9464 -0.4991 -0.9727
   20CHTO   H19 8441   5.747   0.736  -0.295 -1.1125  0.4317 -0.2240
   20CHTO    C8 8442   5.722   0.521  -0.257  0.4258  0.4953  0.3382
   20CHTO   H21 8443   5.724   0.456  -0.170 -1.4274  2.1190  1.6449
   20CHTO    O7 8444   5.827   0.479  -0.353 -0.2451  0.5042  0.5149
   20CHTO    H2 8445   5.801   0.426  -0.425  1.1655  1.0009 -0.3808
   20CHTO   C12 8446   5.581   0.509  -0.322  0.7962 -0.7749 -0.6207
   20CHTO   H25 8447   5.579   0.568  -0.416  1.0696  0.8222  0.3611
   20CHTO    N3 8448   5.542   0.372  -0.369  0.0763  0.1660 -0.0908
   20CHTO   H12 8449   5.457   0.390  -0.432  0.4113  1.8750 -0.0806
   20CHTO   H13 8450   5.521   0.316  -0.279  2.2263 -0.6210 -0.0539
   20CHTO   C15 8451   5.472   0.563  -0.233  0.5334 -0.4475 -0.9171
   20CHTO   H28 8452   5.447   0.503  -0.146 -1.1484  1.3604 -0.1259
   20CHTO   O10 8453   5.345   0.597  -0.309  0.3879 -0.3781 -0.9363
   20CHTO    H4 8454   5.333   0.540  -0.383 -1.5248  2.3473 -2.8268
   20CHTO    O5 8455   5.506   0.699  -0.189 -0.4302 -0.1515 -0.5684
   20CHTO   C10 8456   5.630   0.710  -0.116 -0.2577  0.1087 -0.1002
   20CHTO   H23 8457   5.625   0.651  -0.025 -1.7021  0.0165 -0.2291
   20CHTO   C17 8458   5.648   0.851  -0.070 -0.5738  0.4002 -0.3323
   20CHTO   O12 8459   5.568   0.902   0.034 -0.2295  0.6883 -0.2453
   20CHTO    H6 8460   5.488   0.853   0.045  0.8094 -1.2011 -0.8682
   21GLOH   H03 8461   3.930   0.830   1.119  0.3379 -0.8640 -0.1174
   21GLOH    O1 8462   4.022   0.853   1.145 -0.3600  0.3004  1.4026
   21GLOH    C1 8463   4.044   0.820   1.282  0.3207 -0.5373 -1.0400
   21GLOH   H02 8464   4.149   0.792   1.287  0.0859 -1.2209  0.4441
   21GLOH   H08 8465   3.977   0.735   1.298 -0.4825  0.3933  0.6851
   21GLOH    C2 8466   4.023   0.934   1.384  0.1604  0.2020  0.4623
   21GLOH   H04 8467   4.085   0.905   1.471 -0.7914  0.2350  1.1690
   21GLOH    O2 8468   4.068   1.066   1.348 -0.4682 -0.3571  0.0098
   21GLOH   H05 8469   4.158   1.056   1.314 -0.5888 -0.4304 -0.2977
   21GLOH    C3 8470   3.874   0.934   1.424 -0.5287 -0.4994  0.3780
   21GLOH   H06 8471   3.812   0.921   1.336  3.7898  0.1182 -2.9229
   21GLOH   H07 8472   3.861   1.035   1.464  2.2143 -1.1154  3.0219
   21GLOH    O3 8473   3.854   0.828   1.526 -0.3284  0.2737  0.3450
   21GLOH   H01 8474   3.852   0.863   1.617  0.1257 -0.6010  0.6976
   22GLOH   H03 8475   2.237   1.847   2.305  0.1728  0.2307  1.5388
   22GLOH    O1 8476   2.253   1.939   2.278  0.0852 -0.2017 -0.0050
   22GLOH    C1 8477   2.177   2.030   2.363 -0.2504  0.6495 -0.3852
   22GLOH   H02 8478   2.074   2.000   2.378 -0.1469  0.8338  0.7544
   22GLOH   H08 8479   2.184   2.127   2.314 -2.2072  0.0521 -1.8983
   22GLOH    C2 8480   2.239   2.038   2.503  0.1079 -0.1485  0.3440
   22GLOH   H04 8481   2.158   2.085   2.561 -0.6014 -1.8429  0.7711
   22GLOH    O2 8482   2.250   1.903   2.557 -0.2225  0.2547 -0.3096
   22GLOH   H05 8483   2.328   1.877   2.609 -0.4569  3.0887  1.6091
   22GLOH    C3 8484   2.365   2.120   2.516 -1.0036 -0.5534 -0.3387
   22GLOH   H06 8485   2.441   2.070   2.457 -1.3430 -1.6695  0.1635
   22GLOH   H07 8486   2.395   2.112   2.620 -0.8358  1.6777 -0.1956
   22GLOH    O3 8487   2.342   2.257   2.474  0.3679 -0.0747 -0.1135
   22GLOH   H01 8488   2.388   2.271   2.390  0.0565 -3.2404 -0.8927
   23GLOH   H03 8489   3.440   8.581   1.530  0.5348 -0.1401 -0.9495
   23GLOH    O1 8490   3.430   8.601   1.435  0.4983  0.7701 -0.7636
   23GLOH    C1 8491   3.435   8.740   1.408 -0.0562 -0.3227 -0.4067
   23GLOH   H02 8492   3.501   8.755   1.322  1.1959  0.5644  0.6843
   23GLOH   H08 8493   3.489   8.789   1.489 -1.4637  0.8777 -0.1730
   23GLOH    C2 8494   3.302   8.813   1.407  0.7889 -0.5440  0.3940
   23GLOH   H04 8495   3.323   8.921   1.414  2.5516 -0.8294 -0.1408
   23GLOH    O2 8496   3.233   8.788   1.286  0.2283  0.6218 -0.4814
   23GLOH   H05 8497   3.191   8.701   1.297 -0.7853  1.4021  2.1739
   23GLOH    C3 8498   3.215   8.786   1.532 -0.2347  0.3822  0.3077
   23GLOH   H06 8499   3.211   8.679   1.552 -2.8346  0.1783 -1.0754
   23GLOH   H07 8500   3.113   8.814   1.506 -0.1058  2.6317  2.0445
   23GLOH    O3 8501   3.270   8.844   1.651  0.1881 -0.1472  0.0653
   23GLOH   H01 8502   3.220   8.926   1.668  1.2800  1.1724 -2.8168
   24GLOH   H03 8503   3.830   0.933   0.638  0.6900 -1.0636  1.1958
   24GLOH    O1 8504   3.891   0.988   0.691  0.2749  0.1938  0.3908
   24GLOH    C1 8505   3.960   0.892   0.780  0.0742 -0.3755 -0.0481
   24GLOH   H02 8506   3.978   0.794   0.735  1.4235 -0.5072  0.7587
   24GLOH   H08 8507   3.897   0.868   0.865  2.3586 -0.3315  1.7042
   24GLOH    C2 8508   4.093   0.945   0.835  0.5749 -0.2035  0.1240
   24GLOH   H04 8509   4.075   1.035   0.895  0.6440 -0.1151  0.0102
   24GLOH    O2 8510   4.147   0.850   0.926  0.3071 -0.2024  1.0234
   24GLOH   H05 8511   4.090   0.841   1.004  0.0630 -1.0975  0.7476
   24GLOH    C3 8512   4.193   0.973   0.725 -0.2808  0.2023 -0.0546
   24GLOH   H06 8513   4.238   0.885   0.678  1.2202  0.7366  0.3550
   24GLOH   H07 8514   4.276   1.029   0.767 -0.2047 -0.5214  0.7524
   24GLOH    O3 8515   4.145   1.054   0.619  1.5126 -0.6022 -0.4284
   24GLOH   H01 8516   4.071   1.006   0.578  0.5204 -1.0897  1.8741
   25GLOH   H03 8517   4.505   2.465   1.562 -0.3737  1.1106 -0.9962
   25GLOH    O1 8518   4.584   2.515   1.590 -0.0317  0.1623 -0.2449
   25GLOH    C1 8519   4.606   2.538   1.731  0.5124 -0.4611 -0.3844
   25GLOH   H02 8520   4.698   2.595   1.733  0.0970  0.1852  2.0728
   25GLOH   H08 8521   4.632   2.443   1.778  2.7203 -0.2045 -1.0566
   25GLOH    C2 8522   4.481   2.608   1.786  0.7759 -0.8628  0.0690
   25GLOH   H04 8523   4.396   2.538   1.788 -0.6239  0.8015  0.2693
   25GLOH    O2 8524   4.496   2.643   1.921 -0.1701  0.2778  0.0715
   25GLOH   H05 8525   4.443   2.576   1.969  0.4985  0.2940  0.8443
   25GLOH    C3 8526   4.453   2.736   1.705 -0.4071 -0.0295  0.2847
   25GLOH   H06 8527   4.466   2.710   1.600  1.5311 -2.8845  1.1752
   25GLOH   H07 8528   4.529   2.812   1.724  0.9799 -1.4771  0.6493
   25GLOH    O3 8529   4.328   2.795   1.734  0.2002 -0.0589  0.4574
   25GLOH   H01 8530   4.249   2.745   1.706 -0.3961  0.4826  1.1430
   26GLOH   H03 8531   3.789   2.629   0.206  1.8070 -0.0701  0.2442
   26GLOH    O1 8532   3.748   2.643   0.293  0.3005 -0.5867 -0.3760
   26GLOH    C1 8533   3.629   2.564   0.321 -0.5210 -0.2384 -0.2773
   26GLOH   H02 8534   3.552   2.571   0.244  0.5411 -0.2231 -1.3517
   26GLOH   H08 8535   3.573   2.607   0.404  1.5209  3.3002 -0.6249
   26GLOH    C2 8536   3.663   2.421   0.370  0.6142  0.1117 -0.4126
   26GLOH   H04 8537   3.729   2.433   0.457  0.9337  0.0945 -0.6499
   26GLOH    O2 8538   3.546   2.343   0.403 -0.1495 -0.5927  0.3314
   26GLOH   H05 8539   3.552   2.316   0.496 -0.5452  0.0567  0.5437
   26GLOH    C3 8540   3.766   2.338   0.280 -0.0864 -0.5710  0.2417
   26GLOH   H06 8541   3.767   2.235   0.315  2.3992 -0.5365  0.3716
   26GLOH   H07 8542   3.861   2.384   0.308 -0.6692  1.2479 -0.6987
   26GLOH    O3 8543   3.731   2.350   0.137  0.2883 -0.3446 -0.2799
   26GLOH   H01 8544   3.810   2.363   0.081 -0.3207 -2.4034 -1.6620
   27GLOH   H03 8545   4.320   4.591   1.663 -0.1243 -0.3815  0.1398
   27GLOH    O1 8546   4.381   4.546   1.724  0.1152  0.0505  0.2146
   27GLOH    C1 8547   4.345   4.564   1.865  0.1732 -0.5123 -0.0110
   27GLOH   H02 8548   4.242   4.531   1.877 -0.5536  1.8467  0.4785
   27GLOH   H08 8549   4.343   4.669   1.893 -0.3586 -0.7571  0.8958
   27GLOH    C2 8550   4.441   4.502   1.959 -0.7404  0.6962  0.2097
   27GLOH   H04 8551   4.543   4.537   1.938  0.0219 -1.0437  0.9710
   27GLOH    O2 8552   4.400   4.529   2.096  0.4900 -0.1514 -0.3832
   27GLOH   H05 8553   4.319   4.479   2.116  2.0363 -2.4223  0.3647
   27GLOH    C3 8554   4.455   4.350   1.936  0.1794  0.4110 -0.3809
   27GLOH   H06 8555   4.365   4.295   1.962 -0.6663  1.6303 -0.6764
   27GLOH   H07 8556   4.528   4.305   2.003 -0.3556  0.3538  0.1709
   27GLOH    O3 8557   4.500   4.328   1.804  0.4383  0.0482 -0.2671
   27GLOH   H01 8558   4.468   4.405   1.755 -0.9624  0.3606  1.1281
   28GLOH   H03 8559   3.453   2.175   1.483  1.4856 -0.2220  1.6554
   28GLOH    O1 8560   3.444   2.089   1.438  0.1082  0.7553 -0.0071
   28GLOH    C1 8561   3.553   2.066   1.351 -0.0574 -1.0511  0.3152
   28GLOH   H02 8562   3.560   2.136   1.267  0.7502 -1.5477 -0.0304
   28GLOH   H08 8563   3.552   1.966   1.308  0.2768 -1.2589  0.7871
   28GLOH    C2 8564   3.686   2.067   1.428 -0.4400  0.6821 -0.3858
   28GLOH   H04 8565   3.777   2.067   1.366  0.5994 -0.4172  1.1154
   28GLOH    O2 8566   3.696   2.192   1.509 -0.4309  0.7084 -0.1263
   28GLOH   H05 8567   3.613   2.213   1.554 -0.4580 -2.8515  1.6686
   28GLOH    C3 8568   3.690   1.937   1.515  0.0775  1.0535  0.5724
   28GLOH   H06 8569   3.614   1.941   1.592 -1.2517 -0.7980 -0.6075
   28GLOH   H07 8570   3.781   1.929   1.575  0.2344  1.5930  0.4109
   28GLOH    O3 8571   3.664   1.819   1.429  0.0291  0.0437  0.1353
   28GLOH   H01 8572   3.584   1.776   1.463 -0.1295  1.2132  1.2486
   29GLOH   H03 8573   3.601   0.611   2.673  1.2756 -1.1009 -0.0239
   29GLOH    O1 8574   3.621   0.586   2.765  0.0975 -0.4896  0.4113
   29GLOH    C1 8575   3.640   0.443   2.777  0.5297 -0.0050  0.3878
   29GLOH   H02 8576   3.737   0.407   2.743  1.2407  1.9445  0.2800
   29GLOH   H08 8577   3.570   0.390   2.714  1.3927 -0.2938 -0.3362
   29GLOH    C2 8578   3.609   0.395   2.922  0.3505  0.3211  0.0669
   29GLOH   H04 8579   3.508   0.438   2.932 -0.5434 -0.9520 -2.8261
   29GLOH    O2 8580   3.608   0.249   2.933 -0.0123  0.1497 -0.5040
   29GLOH   H05 8581   3.518   0.219   2.910 -0.3876 -0.0610  1.2003
   29GLOH    C3 8582   3.705   0.461   3.023  0.0588 -0.0091  0.1400
   29GLOH   H06 8583   3.800   0.410   3.012  0.5121  0.9628 -0.6014
   29GLOH   H07 8584   3.667   0.439   3.123 -0.1387  1.5976  0.4300
   29GLOH    O3 8585   3.717   0.603   3.001 -0.0349 -0.0759 -0.0007
   29GLOH   H01 8586   3.684   0.626   2.913  2.9288  0.5085 -1.0205
   30GLOH   H03 8587   3.847   3.980   2.218  0.7018 -0.0290 -0.2940
   30GLOH    O1 8588   3.903   3.903   2.195  0.1450 -0.5231 -0.0001
   30GLOH    C1 8589   3.908   3.826   2.320  0.0326  0.1953  0.5184
   30GLOH   H02 8590   3.899   3.720   2.295 -0.5898  0.6815 -1.3612
   30GLOH   H08 8591   3.823   3.849   2.385 -0.2783  1.1133 -0.2075
   30GLOH    C2 8592   4.042   3.853   2.391  0.4310  0.2193 -0.4665
   30GLOH   H04 8593   4.050   3.963   2.396 -0.2457  0.2495  0.0654
   30GLOH    O2 8594   4.046   3.804   2.526 -0.4162  0.5307  0.5026
   30GLOH   H05 8595   4.041   3.885   2.580 -1.3310 -0.3610  1.7779
   30GLOH    C3 8596   4.159   3.792   2.307 -1.2774 -0.6491  0.3673
   30GLOH   H06 8597   4.128   3.797   2.203  3.7997  0.5626 -1.2577
   30GLOH   H07 8598   4.168   3.688   2.339 -2.0478  0.0474  3.0273
   30GLOH    O3 8599   4.288   3.869   2.314 -0.1976  0.3450  0.1264
   30GLOH   H01 8600   4.280   3.947   2.256 -0.5745  0.7757  0.7564
   31GLOH   H03 8601   4.730   2.834   1.860 -0.9342 -0.1405 -1.3071
   31GLOH    O1 8602   4.802   2.844   1.795 -0.2045  0.1997 -0.4623
   31GLOH    C1 8603   4.848   2.982   1.790 -0.7112 -0.3736 -0.1192
   31GLOH   H02 8604   4.941   2.985   1.847 -0.2579 -3.4760 -0.6362
   31GLOH   H08 8605   4.780   3.050   1.843 -0.3781 -0.7237  0.7753
   31GLOH    C2 8606   4.884   3.032   1.647  0.2345 -0.6536  0.0886
   31GLOH   H04 8607   4.906   3.139   1.660 -1.2811 -0.2422 -0.5735
   31GLOH    O2 8608   5.007   2.972   1.602  0.1387 -1.0282 -0.0104
   31GLOH   H05 8609   4.997   2.876   1.616 -0.7656 -0.8866  0.3414
   31GLOH    C3 8610   4.768   3.014   1.550 -0.2679  0.2608  0.0803
   31GLOH   H06 8611   4.730   2.913   1.561  0.9733 -0.0825  1.3203
   31GLOH   H07 8612   4.796   3.024   1.445 -0.9129 -3.0576 -0.4746
   31GLOH    O3 8613   4.662   3.108   1.571 -0.3199 -0.5526 -0.1474
   31GLOH   H01 8614   4.694   3.192   1.534  0.3703 -0.4200  0.7243
   32GLOH   H03 8615   2.479   2.586   1.423 -0.5003  0.0553 -0.2773
   32GLOH    O1 8616   2.514   2.501   1.455 -1.4869 -0.1454  0.3138
   32GLOH    C1 8617   2.658   2.498   1.429 -0.1186 -0.3378 -0.5067
   32GLOH   H02 8618   2.706   2.547   1.514 -1.5189  1.0552 -0.4951
   32GLOH   H08 8619   2.687   2.563   1.346 -0.0899  0.6807  0.3009
   32GLOH    C2 8620   2.710   2.361   1.416 -0.2958  0.6208  0.3479
   32GLOH   H04 8621   2.656   2.311   1.335 -0.7302  3.9333 -1.4752
   32GLOH    O2 8622   2.851   2.364   1.374  0.4564  0.3126 -0.1422
   32GLOH   H05 8623   2.886   2.450   1.346  2.2644 -0.0863  0.8419
   32GLOH    C3 8624   2.715   2.275   1.543  0.2640  0.3210  0.7225
   32GLOH   H06 8625   2.783   2.318   1.617  1.1754 -1.8200  1.1666
   32GLOH   H07 8626   2.751   2.174   1.523  0.6196  0.4609  0.6494
   32GLOH    O3 8627   2.584   2.258   1.599 -0.4534 -0.4258 -0.2762
   32GLOH   H01 8628   2.516   2.224   1.538  2.1001 -1.9004 -2.4150
   33GLOH   H03 8629   3.706   8.739   0.220 -1.6665 -2.2741 -1.2991
   33GLOH    O1 8630   3.716   8.799   0.143  0.4224 -0.9719 -0.0662
   33GLOH    C1 8631   3.655   8.746   0.020  0.0987 -0.3244  0.5649
   33GLOH   H02 8632   3.548   8.763   0.025 -0.0428 -1.4881  1.7833
   33GLOH   H08 8633   3.674   8.640   0.008 -1.1848 -0.7005  1.7177
   33GLOH    C2 8634   3.712   8.811  -0.110  0.8780  0.6329  0.4931
   33GLOH   H04 8635   3.790   8.744  -0.149  1.1331  2.0367 -1.4680
   33GLOH    O2 8636   3.608   8.837  -0.211  0.1851 -0.0150 -0.7681
   33GLOH   H05 8637   3.588   8.933  -0.212  0.4459  0.0633  0.3483
   33GLOH    C3 8638   3.803   8.937  -0.086  0.1609 -0.0278 -0.2063
   33GLOH   H06 8639   3.878   8.909  -0.013 -0.7951 -1.0697  0.4072
   33GLOH   H07 8640   3.746   9.004  -0.023  0.6685 -0.2052  0.4413
   33GLOH    O3 8641   3.855   9.004  -0.206  0.4355  0.0343 -0.1792
   33GLOH   H01 8642   3.860   8.944  -0.282  0.0166  1.0289 -1.0062
   34GLOH   H03 8643   3.257   4.967   2.136  2.1594 -0.0123  0.3241
   34GLOH    O1 8644   3.277   4.923   2.220 -0.3145  0.5222  1.2381
   34GLOH    C1 8645   3.319   4.786   2.186 -0.1243  0.2439  0.7333
   34GLOH   H02 8646   3.416   4.799   2.137  2.0448 -1.2203  4.3981
   34GLOH   H08 8647   3.251   4.725   2.127  2.3246 -2.5499  0.6404
   34GLOH    C2 8648   3.342   4.707   2.315 -0.1824 -0.1277  0.4113
   34GLOH   H04 8649   3.259   4.726   2.384  0.3024  1.3504  0.6008
   34GLOH    O2 8650   3.363   4.564   2.296 -0.3115 -0.2985  0.8822
   34GLOH   H05 8651   3.286   4.505   2.299 -0.7827  0.3580  1.8065
   34GLOH    C3 8652   3.475   4.758   2.384 -0.1759  0.5802 -0.0251
   34GLOH   H06 8653   3.561   4.716   2.332 -0.2377 -1.1003  1.1631
   34GLOH   H07 8654   3.483   4.713   2.484 -0.8559  1.4906  0.4447
   34GLOH    O3 8655   3.488   4.902   2.382 -0.3063  0.3123  0.8889
   34GLOH   H01 8656   3.419   4.927   2.318 -0.8769 -0.9908  0.9803
   35GLOH   H03 8657   2.739   3.266   1.617 -0.0312 -0.6098  1.2000
   35GLOH    O1 8658   2.832   3.261   1.591 -0.5000  0.2293 -0.7787
   35GLOH    C1 8659   2.852   3.341   1.476  0.5685 -0.0357 -0.3564
   35GLOH   H02 8660   2.832   3.447   1.496 -1.4361 -0.4910  0.1399
   35GLOH   H08 8661   2.792   3.306   1.392  0.9911 -1.0988 -0.2158
   35GLOH    C2 8662   2.995   3.357   1.427  0.1693  0.3244  0.1745
   35GLOH   H04 8663   3.039   3.261   1.395 -0.7437  0.3133 -1.0658
   35GLOH    O2 8664   3.004   3.458   1.325 -0.8227  0.1027 -0.1427
   35GLOH   H05 8665   2.973   3.429   1.238 -1.4621  1.4894 -0.3947
   35GLOH    C3 8666   3.079   3.401   1.548 -0.0612 -0.3770  0.0641
   35GLOH   H06 8667   3.032   3.494   1.579 -0.2843  0.2768 -2.1980
   35GLOH   H07 8668   3.181   3.424   1.519 -0.0926 -1.4601 -0.9515
   35GLOH    O3 8669   3.071   3.304   1.656 -0.0605  0.4080  0.1337
   35GLOH   H01 8670   2.978   3.278   1.671  0.0410 -1.9342 -2.7570
   36GLOH   H03 8671   3.187   0.515   1.541 -0.9304  1.4897 -1.4897
   36GLOH    O1 8672   3.213   0.473   1.457 -0.1945 -0.0162 -0.5261
   36GLOH    C1 8673   3.101   0.476   1.370 -1.1368 -0.7175  0.3517
   36GLOH   H02 8674   3.012   0.456   1.431 -1.8752 -0.1296 -0.5254
   36GLOH   H08 8675   3.101   0.396   1.296 -0.0589  0.2335 -0.6790
   36GLOH    C2 8676   3.090   0.607   1.295 -0.3101 -0.0085 -0.3224
   36GLOH   H04 8677   3.001   0.599   1.231  0.2164 -1.4991 -0.8834
   36GLOH    O2 8678   3.073   0.706   1.400 -0.2054  0.0683 -0.0803
   36GLOH   H05 8679   3.001   0.693   1.464 -0.9012  1.4997 -0.5578
   36GLOH    C3 8680   3.211   0.651   1.209 -0.0047  0.2767  0.6079
   36GLOH   H06 8681   3.308   0.635   1.257  0.1590  1.3394  0.6414
   36GLOH   H07 8682   3.204   0.759   1.195 -2.1897 -0.0778 -1.3127
   36GLOH    O3 8683   3.218   0.585   1.084  0.4881  0.0825 -0.2110
   36GLOH   H01 8684   3.158   0.641   1.032 -0.9666 -0.4048  0.9286
   37GLOH   H03 8685   3.586   3.969   0.559  0.1798 -0.6825 -1.8033
   37GLOH    O1 8686   3.556   4.061   0.543  0.3182 -0.2357  0.3920
   37GLOH    C1 8687   3.426   4.089   0.583  0.2481 -0.0656 -0.6474
   37GLOH   H02 8688   3.436   4.103   0.690  1.8637  2.4308 -1.0798
   37GLOH   H08 8689   3.356   4.008   0.565 -0.8259  0.6091  0.4277
   37GLOH    C2 8690   3.375   4.224   0.520 -0.1019 -1.1038 -0.1373
   37GLOH   H04 8691   3.466   4.284   0.514 -1.1232  0.3678 -1.5458
   37GLOH    O2 8692   3.326   4.195   0.390 -0.6776  0.4830  0.9603
   37GLOH   H05 8693   3.274   4.265   0.348  0.3222  3.0947  3.8651
   37GLOH    C3 8694   3.263   4.290   0.607 -0.1418  0.7944  0.2295
   37GLOH   H06 8695   3.237   4.386   0.562 -0.3764  1.9632  2.8006
   37GLOH   H07 8696   3.305   4.305   0.706 -0.3783 -0.1521  0.4771
   37GLOH    O3 8697   3.152   4.200   0.638 -0.3348 -0.3494  0.0436
   37GLOH   H01 8698   3.071   4.249   0.617 -0.7688  0.0122  2.4100
   38GLOH   H03 8699   2.646   3.925   2.414 -1.1504 -0.5584 -0.4114
   38GLOH    O1 8700   2.660   3.896   2.506  0.3817  0.1752 -0.3951
   38GLOH    C1 8701   2.782   3.958   2.562  0.2523 -0.4980 -0.3903
   38GLOH   H02 8702   2.775   3.955   2.670  0.0537  0.5323 -0.3717
   38GLOH   H08 8703   2.790   4.060   2.526  0.5211  0.3075  1.9225
   38GLOH    C2 8704   2.912   3.880   2.536 -0.5244 -0.3493  0.0216
   38GLOH   H04 8705   2.924   3.885   2.427 -0.0563 -3.5211 -0.1084
   38GLOH    O2 8706   3.031   3.941   2.596  0.0894 -0.0022 -0.4811
   38GLOH   H05 8707   3.102   3.936   2.531  0.2513  2.2502 -0.4946
   38GLOH    C3 8708   2.896   3.731   2.580  0.0765 -0.3040  0.3255
   38GLOH   H06 8709   2.876   3.738   2.687  0.1200 -1.1355  0.3965
   38GLOH   H07 8710   2.995   3.685   2.571 -0.1863 -1.0756  1.2591
   38GLOH    O3 8711   2.799   3.651   2.505 -0.1076 -0.2495 -0.2089
   38GLOH   H01 8712   2.717   3.704   2.502 -0.2436 -0.2550  2.4383
   39GLOH   H03 8713   3.668   4.884   2.015  0.7399 -0.1887 -0.3972
   39GLOH    O1 8714   3.623   4.920   1.936 -0.0190  0.1527  0.1852
   39GLOH    C1 8715   3.704   5.031   1.904  0.0421  0.0941 -0.3747
   39GLOH   H02 8716   3.722   5.032   1.797  1.3563 -1.0515 -0.1763
   39GLOH   H08 8717   3.801   5.007   1.949  0.4761  0.9953 -0.8005
   39GLOH    C2 8718   3.682   5.171   1.956 -0.1624  0.6601 -0.3414
   39GLOH   H04 8719   3.771   5.220   1.914  2.7667 -3.6210  0.5373
   39GLOH    O2 8720   3.561   5.228   1.913 -0.3935 -0.3107 -0.7048
   39GLOH   H05 8721   3.583   5.266   1.827 -1.6264  1.7078 -0.1615
   39GLOH    C3 8722   3.681   5.184   2.111  0.1135  0.3721 -0.2162
   39GLOH   H06 8723   3.590   5.144   2.156 -0.2577  2.3195  0.8299
   39GLOH   H07 8724   3.681   5.291   2.133 -3.8673  0.4600 -0.2165
   39GLOH    O3 8725   3.792   5.122   2.177 -0.7867 -0.0090  0.3048
   39GLOH   H01 8726   3.785   5.146   2.272  1.9377  1.0043  0.2756
   40GLOH   H03 8727   2.917   8.820   1.063  1.4121  1.6703 -0.7709
   40GLOH    O1 8728   2.987   8.754   1.051  0.0855  0.1710 -0.4588
   40GLOH    C1 8729   3.003   8.747   0.907  0.1355 -0.0581  0.5113
   40GLOH   H02 8730   2.928   8.678   0.868  0.2126  0.2865 -0.2603
   40GLOH   H08 8731   3.096   8.697   0.879 -0.1953 -0.6905  0.5464
   40GLOH    C2 8732   3.007   8.888   0.837 -0.6373 -0.3436  0.3559
   40GLOH   H04 8733   3.097   8.939   0.873  2.5644 -5.1267 -0.3721
   40GLOH    O2 8734   3.013   8.864   0.693 -0.0846  0.3135  0.3913
   40GLOH   H05 8735   2.984   8.947   0.651 -0.0466  1.7114  3.0300
   40GLOH    C3 8736   2.890   8.978   0.879 -0.5416  1.5424  0.6285
   40GLOH   H06 8737   2.798   8.935   0.838  0.0609  1.2282 -0.4068
   40GLOH   H07 8738   2.905   9.081   0.847 -0.6157  0.6624 -2.3824
   40GLOH    O3 8739   2.891   8.980   1.023 -0.4762 -0.2612  0.1458
   40GLOH   H01 8740   2.825   9.038   1.066 -0.3895  1.0124 -1.3791
   41GLOH   H03 8741   3.299   1.659   2.219 -2.2009 -0.4247 -0.3353
   41GLOH    O1 8742   3.340   1.616   2.141 -0.7849 -0.2387  0.2837
   41GLOH    C1 8743   3.482   1.641   2.140  0.6874 -0.0501 -0.1987
   41GLOH   H02 8744   3.503   1.741   2.178  0.1395  0.2133 -0.5873
   41GLOH   H08 8745   3.513   1.644   2.035  0.5930  2.3866 -0.1958
   41GLOH    C2 8746   3.576   1.536   2.206  0.0893 -0.0149 -0.9100
   41GLOH   H04 8747   3.586   1.550   2.314 -2.0160  2.5126 -0.9973
   41GLOH    O2 8748   3.534   1.404   2.180  0.2160  0.4188 -1.0598
   41GLOH   H05 8749   3.579   1.350   2.248  1.7365  1.1729 -1.4470
   41GLOH    C3 8750   3.713   1.545   2.138  0.2100 -0.4894  0.5208
   41GLOH   H06 8751   3.700   1.515   2.034  0.3606 -0.1386  0.4017
   41GLOH   H07 8752   3.778   1.469   2.181 -1.4267 -0.4614  3.1118
   41GLOH    O3 8753   3.770   1.677   2.156 -0.1031  0.2825 -0.1721
   41GLOH   H01 8754   3.742   1.719   2.239  3.6648  2.9186 -0.1148
   42GLOH   H03 8755   4.177   5.068   0.613  0.1570  0.7846  0.1449
   42GLOH    O1 8756   4.212   5.067   0.704  0.3307  0.2035  0.0767
   42GLOH    C1 8757   4.147   4.957   0.775  0.8795  0.0216 -0.3008
   42GLOH   H02 8758   4.208   4.921   0.858 -0.8311 -0.3489  0.8334
   42GLOH   H08 8759   4.120   4.879   0.703 -1.0888  1.7190 -1.4862
   42GLOH    C2 8760   4.009   5.000   0.839 -0.2655  0.2678 -0.0523
   42GLOH   H04 8761   4.030   5.063   0.927 -1.9895  0.9249 -0.0801
   42GLOH    O2 8762   3.923   5.073   0.752 -0.5614 -0.1193  0.1581
   42GLOH   H05 8763   3.866   5.021   0.693 -1.3283  0.8388  0.0461
   42GLOH    C3 8764   3.934   4.882   0.912 -0.2298  0.0550  0.2489
   42GLOH   H06 8765   3.895   4.821   0.830 -0.6660  1.4161 -0.5686
   42GLOH   H07 8766   3.843   4.929   0.949  0.4733  0.6925  1.1935
   42GLOH    O3 8767   4.008   4.806   1.012  0.0557 -0.0868  0.3694
   42GLOH   H01 8768   4.068   4.868   1.058  0.1296  0.0185  0.1271
   43GLOH   H03 8769   4.061   3.271   2.366 -3.4346 -0.9064  1.2938
   43GLOH    O1 8770   4.103   3.222   2.439 -0.3033  0.5312  0.5132
   43GLOH    C1 8771   4.204   3.298   2.513  0.3314 -0.8351  0.1157
   43GLOH   H02 8772   4.242   3.368   2.439  1.8511  0.3004  1.9089
   43GLOH   H08 8773   4.288   3.238   2.548  2.2302  2.7657  1.9324
   43GLOH    C2 8774   4.149   3.382   2.632 -0.0851 -0.1135  0.4110
   43GLOH   H04 8775   4.104   3.319   2.710 -3.6188  2.9913  1.0348
   43GLOH    O2 8776   4.247   3.463   2.694  0.3843 -0.0522  0.1059
   43GLOH   H05 8777   4.213   3.483   2.783  1.7100  1.3663  0.3197
   43GLOH    C3 8778   4.027   3.458   2.579  1.0028  0.4173  0.4499
   43GLOH   H06 8779   3.947   3.386   2.564  0.4700  0.8912  0.9729
   43GLOH   H07 8780   4.039   3.488   2.475 -1.1923 -0.2728 -0.0352
   43GLOH    O3 8781   3.981   3.570   2.653 -0.1147 -0.4059  0.3716
   43GLOH   H01 8782   4.033   3.648   2.628  0.0898 -0.6259  0.0985
   44GLOH   H03 8783   3.694   5.723   0.670 -0.4520  0.6741  1.3841
   44GLOH    O1 8784   3.759   5.651   0.675 -0.4393  0.5491 -0.2416
   44GLOH    C1 8785   3.701   5.540   0.744  0.0730  0.2913 -0.1258
   44GLOH   H02 8786   3.746   5.442   0.729 -2.1632 -0.8273  0.2939
   44GLOH   H08 8787   3.596   5.526   0.716  0.1356 -2.1725  0.7290
   44GLOH    C2 8788   3.711   5.559   0.897 -0.5122 -1.3565  0.4518
   44GLOH   H04 8789   3.645   5.639   0.932 -0.0719 -0.5898 -0.4342
   44GLOH    O2 8790   3.670   5.443   0.973  0.0441  0.4486  0.0268
   44GLOH   H05 8791   3.722   5.432   1.054  1.5230 -1.3473 -1.1477
   44GLOH    C3 8792   3.856   5.594   0.929  0.2182 -0.5920  0.3860
   44GLOH   H06 8793   3.864   5.644   1.025 -2.8882 -1.4129  1.1313
   44GLOH   H07 8794   3.886   5.677   0.864  0.3597 -0.7749  0.2144
   44GLOH    O3 8795   3.949   5.484   0.902 -0.5839 -0.2646  0.4496
   44GLOH   H01 8796   3.952   5.453   0.810 -1.7555 -0.6009  0.5168
   45GLOH   H03 8797   2.836   0.896   0.897 -0.3272 -1.3042 -2.3273
   45GLOH    O1 8798   2.902   0.948   0.848 -0.2829 -0.1374 -1.0632
   45GLOH    C1 8799   2.845   1.039   0.749 -0.0265 -0.1204  0.1036
   45GLOH   H02 8800   2.771   0.981   0.695 -0.4410  1.8888 -1.5311
   45GLOH   H08 8801   2.915   1.072   0.672 -0.2437  0.4340  0.1423
   45GLOH    C2 8802   2.781   1.166   0.804 -0.3557 -0.5303 -0.2670
   45GLOH   H04 8803   2.749   1.224   0.716  1.7463 -1.1661 -1.4993
   45GLOH    O2 8804   2.664   1.146   0.886 -0.1328 -0.3322  0.7554
   45GLOH   H05 8805   2.688   1.112   0.974  0.2123  1.4182  1.3652
   45GLOH    C3 8806   2.891   1.262   0.866 -0.1419 -0.3766 -0.1310
   45GLOH   H06 8807   2.977   1.272   0.800  1.1020  2.7855  1.8464
   45GLOH   H07 8808   2.938   1.217   0.954  1.4425  1.7746  0.1522
   45GLOH    O3 8809   2.844   1.396   0.904 -0.6026 -0.0143  0.6440
   45GLOH   H01 8810   2.759   1.403   0.952 -0.3474 -0.7307  1.2261
   46GLOH   H03 8811   3.229   8.602   1.954  2.3081  1.7673  0.0154
   46GLOH    O1 8812   3.272   8.570   2.036  0.0799  0.2559  0.6266
   46GLOH    C1 8813   3.289   8.676   2.132  0.3787  0.4724 -0.4149
   46GLOH   H02 8814   3.341   8.754   2.077 -1.3129  1.5980 -0.4814
   46GLOH   H08 8815   3.349   8.645   2.217 -0.4795 -0.7533 -0.2479
   46GLOH    C2 8816   3.157   8.715   2.203 -0.2998  0.2668  0.4437
   46GLOH   H04 8817   3.116   8.625   2.252 -0.0588  0.1033  0.3473
   46GLOH    O2 8818   3.185   8.824   2.292  0.0915 -0.1673 -0.0143
   46GLOH   H05 8819   3.230   8.781   2.366  0.0053  0.0358  0.1543
   46GLOH    C3 8820   3.054   8.768   2.098  1.0296  0.4351  0.1654
   46GLOH   H06 8821   3.107   8.840   2.036  1.6841  0.9233  1.2806
   46GLOH   H07 8822   2.978   8.817   2.160 -0.1437 -2.5476  1.2062
   46GLOH    O3 8823   2.991   8.662   2.016  0.2195 -0.3712 -0.4196
   46GLOH   H01 8824   3.025   8.674   1.926  0.2289  0.8861 -0.2567
   47GLOH   H03 8825   2.599   8.959   1.387 -0.2144 -0.4625 -0.2480
   47GLOH    O1 8826   2.677   8.939   1.331 -0.2274 -0.5987 -0.2183
   47GLOH    C1 8827   2.757   8.837   1.391 -0.6774 -0.0165  0.3519
   47GLOH   H02 8828   2.859   8.867   1.413 -0.5643  0.0852 -0.2912
   47GLOH   H08 8829   2.775   8.753   1.324 -0.1592 -0.4813  1.0775
   47GLOH    C2 8830   2.700   8.780   1.525  0.8401  0.2737 -0.2659
   47GLOH   H04 8831   2.616   8.714   1.498  0.0808  0.6243  1.2114
   47GLOH    O2 8832   2.798   8.712   1.605 -0.2609  0.6375 -0.0094
   47GLOH   H05 8833   2.836   8.638   1.555 -0.3440  1.4033 -1.2227
   47GLOH    C3 8834   2.643   8.898   1.612 -0.9767 -0.9942 -0.6463
   47GLOH   H06 8835   2.729   8.964   1.626 -0.8342 -1.5243  1.0813
   47GLOH   H07 8836   2.616   8.859   1.710  0.7793 -2.2312 -0.6319
   47GLOH    O3 8837   2.532   8.964   1.548 -0.2497  0.6246 -0.1197
   47GLOH   H01 8838   2.477   9.012   1.613 -1.7837  0.9410 -1.6312
   48GLOH   H03 8839   2.917   8.547   2.079  0.4770  0.7858  1.9051
   48GLOH    O1 8840   2.882   8.477   2.136 -0.2120 -0.5679 -0.1276
   48GLOH    C1 8841   2.821   8.543   2.248  0.0373  0.0544 -0.0712
   48GLOH   H02 8842   2.879   8.625   2.291  0.1649  0.8724 -1.7767
   48GLOH   H08 8843   2.797   8.474   2.329  0.2606  0.8958  0.7209
   48GLOH    C2 8844   2.690   8.610   2.203 -0.2619 -0.0330 -0.3327
   48GLOH   H04 8845   2.657   8.679   2.282  1.1448  0.0269  0.2191
   48GLOH    O2 8846   2.702   8.685   2.083 -0.0335  0.1714 -0.4059
   48GLOH   H05 8847   2.683   8.618   2.015  0.8364 -2.0797  1.4850
   48GLOH    C3 8848   2.574   8.505   2.197  0.4006 -0.2435  0.7115
   48GLOH   H06 8849   2.588   8.428   2.121  0.1010  0.4650 -0.0715
   48GLOH   H07 8850   2.484   8.558   2.165  0.2848 -1.1211 -0.4287
   48GLOH    O3 8851   2.558   8.438   2.326  0.1540  0.0643 -0.7323
   48GLOH   H01 8852   2.608   8.355   2.324  0.2953  0.1471 -0.6623
   49GLOH   H03 8853   4.705   2.410   0.308 -0.5862 -2.6944  0.0928
   49GLOH    O1 8854   4.712   2.383   0.215  0.2490  0.0734 -0.7147
   49GLOH    C1 8855   4.683   2.498   0.134  0.4147  0.5780 -0.0019
   49GLOH   H02 8856   4.675   2.473   0.028  0.9365 -1.8042  0.4909
   49GLOH   H08 8857   4.764   2.571   0.144 -0.0654  0.7749  2.7027
   49GLOH    C2 8858   4.551   2.568   0.181 -0.5404 -0.0419  0.9517
   49GLOH   H04 8859   4.472   2.492   0.186  0.6194 -1.1989  2.1512
   49GLOH    O2 8860   4.560   2.624   0.315 -0.3003 -0.8775  0.4235
   49GLOH   H05 8861   4.609   2.567   0.377  1.0207 -1.3483 -1.0091
   49GLOH    C3 8862   4.513   2.681   0.084 -0.0220  0.0866 -0.4853
   49GLOH   H06 8863   4.595   2.752   0.070 -2.9541  3.8005  0.1939
   49GLOH   H07 8864   4.436   2.748   0.122  1.3723  1.0587  0.7216
   49GLOH    O3 8865   4.476   2.636  -0.049 -0.1582 -0.5783  0.1565
   49GLOH   H01 8866   4.417   2.558  -0.045 -2.0382  0.8773  1.8322
   50GLOH   H03 8867   3.705   4.258   0.931 -5.2954 -1.4884 -2.5859
   50GLOH    O1 8868   3.699   4.338   0.876 -0.4806  0.7450 -0.1580
   50GLOH    C1 8869   3.823   4.402   0.854  0.1953 -0.6475  0.4316
   50GLOH   H02 8870   3.821   4.451   0.756 -2.0213  0.6143  1.0753
   50GLOH   H08 8871   3.903   4.329   0.862  0.0397 -0.8746 -0.0681
   50GLOH    C2 8872   3.849   4.518   0.946 -0.0714 -0.1417 -0.3634
   50GLOH   H04 8873   3.852   4.482   1.049  0.5343 -1.3813 -0.8080
   50GLOH    O2 8874   3.980   4.575   0.924  0.4626 -0.3568 -0.0481
   50GLOH   H05 8875   3.991   4.657   0.975 -0.8164 -1.3991  1.9919
   50GLOH    C3 8876   3.741   4.625   0.938  0.2473  0.7355 -0.2930
   50GLOH   H06 8877   3.728   4.650   0.832 -0.7254 -0.7632 -0.5388
   50GLOH   H07 8878   3.763   4.712   1.000  0.7433 -1.0566  2.0880
   50GLOH    O3 8879   3.615   4.567   0.978 -0.0386 -0.0257  0.4984
   50GLOH   H01 8880   3.601   4.493   0.917  1.1897 -0.4582  0.7216
   51GLOH   H03 8881   2.784   9.082   0.645  0.2030 -0.9348  1.0877
   51GLOH    O1 8882   2.858   9.045   0.594 -0.2611 -0.0985 -0.2187
   51GLOH    C1 8883   2.890   9.148   0.501 -0.1015  0.5463  0.3673
   51GLOH   H02 8884   2.916   9.232   0.565  2.2974  0.8354 -0.9417
   51GLOH   H08 8885   2.807   9.179   0.438  0.3024  0.9228  0.0162
   51GLOH    C2 8886   3.014   9.117   0.411  0.4521  0.6890 -0.0381
   51GLOH   H04 8887   3.046   9.215   0.370  0.9555  1.1775  1.4865
   51GLOH    O2 8888   3.118   9.074   0.500  0.0024 -0.9163  0.0847
   51GLOH   H05 8889   3.131   9.149   0.561  0.0009 -1.5237  0.8370
   51GLOH    C3 8890   2.984   9.022   0.298 -0.1793  0.5282 -0.1255
   51GLOH   H06 8891   2.975   8.919   0.335 -1.0813  1.5118  2.4892
   51GLOH   H07 8892   3.068   9.029   0.230  1.5993 -0.5456  1.8845
   51GLOH    O3 8893   2.875   9.058   0.211  0.9381 -0.5750 -0.0865
   51GLOH   H01 8894   2.882   9.001   0.133  2.2280 -1.2070  0.4686
   52GLOH   H03 8895   4.780   4.046   0.102  2.2372 -0.5305  1.2477
   52GLOH    O1 8896   4.784   4.142   0.121 -0.1279 -0.2928  0.6245
   52GLOH    C1 8897   4.760   4.157   0.260 -0.7120  0.2990  0.4745
   52GLOH   H02 8898   4.653   4.174   0.267 -0.6467  0.1884  1.8162
   52GLOH   H08 8899   4.802   4.250   0.296 -1.1140  1.6917 -2.4702
   52GLOH    C2 8900   4.797   4.033   0.350  0.2813  0.0671  0.4739
   52GLOH   H04 8901   4.906   4.017   0.355  0.1745 -0.0877  3.2909
   52GLOH    O2 8902   4.762   4.045   0.487 -0.1419  0.0662  0.1165
   52GLOH   H05 8903   4.668   4.020   0.491  0.6853 -3.2312  1.0357
   52GLOH    C3 8904   4.734   3.908   0.290  0.9748  0.0802  0.7085
   52GLOH   H06 8905   4.626   3.905   0.302  1.0532  0.2567  1.4989
   52GLOH   H07 8906   4.764   3.826   0.355 -1.7019 -1.6298 -0.1140
   52GLOH    O3 8907   4.769   3.891   0.151  0.0620  0.1348  0.4016
   52GLOH   H01 8908   4.712   3.822   0.113 -0.6859 -0.0578  1.8640
   53GLOH   H03 8909   3.629   1.005   1.171 -0.7961  0.5388 -1.4398
   53GLOH    O1 8910   3.664   1.092   1.144  0.8111  0.2224 -0.4772
   53GLOH    C1 8911   3.685   1.083   0.996 -0.0659 -0.0740  0.4354
   53GLOH   H02 8912   3.610   1.015   0.955 -0.8652 -2.1125  4.9615
   53GLOH   H08 8913   3.779   1.038   0.966  0.1986  0.2342  0.8011
   53GLOH    C2 8914   3.669   1.222   0.921 -0.4596 -0.2942 -0.7149
   53GLOH   H04 8915   3.745   1.296   0.951 -0.8782  0.0472 -0.4869
   53GLOH    O2 8916   3.692   1.192   0.782  0.2001  0.6248  0.0298
   53GLOH   H05 8917   3.768   1.132   0.779  1.3554  2.0194  0.8827
   53GLOH    C3 8918   3.536   1.289   0.936  0.2685 -0.3588  0.4946
   53GLOH   H06 8919   3.530   1.380   0.876  0.8498  0.8046  2.1275
   53GLOH   H07 8920   3.529   1.331   1.037  0.2426 -0.3018  0.4693
   53GLOH    O3 8921   3.422   1.207   0.903 -0.2372 -0.3502  0.6350
   53GLOH   H01 8922   3.342   1.258   0.926 -0.6571 -1.3245  1.3809
   54GLOH   H03 8923   4.824   2.413   0.463  0.6768  0.8407  0.7671
   54GLOH    O1 8924   4.755   2.482   0.468 -0.0630  0.1825 -0.1785
   54GLOH    C1 8925   4.776   2.564   0.582 -0.5376 -0.3032  0.5656
   54GLOH   H02 8926   4.712   2.652   0.580 -1.5033 -1.0180 -0.8107
   54GLOH   H08 8927   4.881   2.593   0.584 -0.5762 -0.1976  1.5720
   54GLOH    C2 8928   4.749   2.489   0.715 -0.5099 -0.1685  0.1489
   54GLOH   H04 8929   4.810   2.398   0.726 -1.7157 -0.9802  0.2623
   54GLOH    O2 8930   4.781   2.577   0.822 -0.1618  0.1680 -0.4392
   54GLOH   H05 8931   4.781   2.540   0.912  0.1735 -0.6420 -0.7651
   54GLOH    C3 8932   4.601   2.452   0.734 -0.0665  0.1037 -0.1774
   54GLOH   H06 8933   4.543   2.529   0.683 -0.1558 -0.8436 -1.5218
   54GLOH   H07 8934   4.584   2.444   0.841  0.0036  2.3023  0.0148
   54GLOH    O3 8935   4.570   2.330   0.670  0.4365  0.3738 -0.5828
   54GLOH   H01 8936   4.586   2.351   0.576  0.1646  0.7239 -0.5508
   55GLOH   H03 8937   2.410   1.309   1.171  1.5000 -0.3588 -0.3888
   55GLOH    O1 8938   2.424   1.368   1.247 -0.6818  0.3419 -0.4825
   55GLOH    C1 8939   2.567   1.355   1.256  0.2628  0.0851  0.8813
   55GLOH   H02 8940   2.604   1.253   1.258  0.5053  0.1150 -0.8561
   55GLOH   H08 8941   2.604   1.402   1.347 -0.3089  1.5054  0.4008
   55GLOH    C2 8942   2.639   1.442   1.148 -0.3060  0.2201 -0.5656
   55GLOH   H04 8943   2.747   1.433   1.170 -0.1183  2.0220 -0.6690
   55GLOH    O2 8944   2.615   1.396   1.009  0.7525  0.5032 -0.0446
   55GLOH   H05 8945   2.551   1.324   1.016  0.7875  0.3820 -0.9078
   55GLOH    C3 8946   2.612   1.595   1.163  0.7715  0.3179  0.3280
   55GLOH   H06 8947   2.504   1.612   1.152  0.5912 -1.5004 -1.0137
   55GLOH   H07 8948   2.665   1.654   1.088 -0.0055  1.4307  0.6378
   55GLOH    O3 8949   2.644   1.657   1.288 -0.7753 -0.1428 -0.8185
   55GLOH   H01 8950   2.571   1.687   1.345 -0.5462 -2.1832  0.6357
   56GLOH   H03 8951   4.260   2.515   2.048 -0.5928 -1.7259  0.2185
   56GLOH    O1 8952   4.355   2.490   2.052 -0.1314 -0.0956 -0.0755
   56GLOH    C1 8953   4.359   2.372   2.144  0.3997  0.1769  0.4544
   56GLOH   H02 8954   4.260   2.333   2.171  1.4808 -2.4091  0.8941
   56GLOH   H08 8955   4.409   2.394   2.238  0.4377 -1.6412  0.8845
   56GLOH    C2 8956   4.442   2.261   2.079 -0.3849 -0.2101 -0.4783
   56GLOH   H04 8957   4.542   2.307   2.073  0.4642 -2.0709 -1.2171
   56GLOH    O2 8958   4.466   2.145   2.170  0.6455 -0.0958 -0.7158
   56GLOH   H05 8959   4.438   2.068   2.118  0.9511 -1.3313  0.8957
   56GLOH    C3 8960   4.416   2.226   1.935  0.6408  0.2785 -0.7650
   56GLOH   H06 8961   4.487   2.154   1.892 -0.1357  0.1645 -1.8683
   56GLOH   H07 8962   4.424   2.319   1.879 -1.2095 -0.0102 -1.5411
   56GLOH    O3 8963   4.283   2.178   1.916  0.3397  0.0658 -0.3204
   56GLOH   H01 8964   4.281   2.082   1.933 -0.5719 -0.7793 -4.7184
   57GLOH   H03 8965   3.463   4.131   0.312  0.5699 -1.5638 -0.0291
   57GLOH    O1 8966   3.527   4.095   0.248  0.5823 -0.6902 -0.5162
   57GLOH    C1 8967   3.448   4.087   0.128  0.3299 -0.6027 -0.4501
   57GLOH   H02 8968   3.420   4.186   0.092 -1.0960  0.0725  2.3531
   57GLOH   H08 8969   3.349   4.045   0.148  1.0974 -2.1025  0.2770
   57GLOH    C2 8970   3.519   4.024   0.009  0.6058  0.0159 -0.2102
   57GLOH   H04 8971   3.545   3.920   0.034 -0.3523 -0.5763 -1.6417
   57GLOH    O2 8972   3.447   4.043  -0.116 -0.4788 -0.3977  0.0233
   57GLOH   H05 8973   3.497   3.982  -0.174  0.7530  0.2389  0.3963
   57GLOH    C3 8974   3.652   4.094  -0.009  0.1387 -0.4181  0.7379
   57GLOH   H06 8975   3.618   4.194  -0.037 -0.5419 -1.5658 -2.8050
   57GLOH   H07 8976   3.701   4.051  -0.096 -0.6769  0.9669 -0.4262
   57GLOH    O3 8977   3.739   4.093   0.105  0.0352 -0.3658 -0.4422
   57GLOH   H01 8978   3.674   4.103   0.177  1.2783 -0.8994  0.7614
   58GLOH   H03 8979   2.649   3.022   1.042 -0.5917 -0.3794 -1.2492
   58GLOH    O1 8980   2.649   2.935   1.087 -0.2374  0.1247 -0.2672
   58GLOH    C1 8981   2.724   2.932   1.214  0.1465 -0.1745  0.6155
   58GLOH   H02 8982   2.711   2.832   1.258  1.4391 -0.1344  1.1049
   58GLOH   H08 8983   2.691   3.009   1.283  4.6048  1.0787  1.5082
   58GLOH    C2 8984   2.875   2.940   1.181 -0.0148  0.4992  0.1952
   58GLOH   H04 8985   2.902   2.850   1.125 -2.9617  0.8938 -1.9882
   58GLOH    O2 8986   2.905   3.055   1.097 -0.3096  0.6809 -0.4136
   58GLOH   H05 8987   2.879   3.023   1.009 -2.6135 -0.4208  0.6473
   58GLOH    C3 8988   2.948   2.958   1.313 -0.2609 -0.3304 -0.7324
   58GLOH   H06 8989   2.891   3.033   1.368  0.6793 -0.0530 -0.0999
   58GLOH   H07 8990   3.041   3.014   1.302  0.6939 -0.9812  3.0262
   58GLOH    O3 8991   2.965   2.842   1.387  0.6030  0.3340 -0.0156
   58GLOH   H01 8992   2.876   2.820   1.419 -0.4730  1.9502 -1.8209
   59GLOH   H03 8993   3.726   9.632   0.570  0.7537 -0.0611  0.3020
   59GLOH    O1 8994   3.755   9.698   0.635  0.1315  0.9695 -0.4471
   59GLOH    C1 8995   3.889   9.669   0.677 -0.4616 -0.1952  0.6363
   59GLOH   H02 8996   3.946   9.760   0.694 -0.9428  0.1498  0.4123
   59GLOH   H08 8997   3.936   9.619   0.592 -0.4822  2.0054 -0.6838
   59GLOH    C2 8998   3.893   9.575   0.798  0.0271 -0.3075 -0.1442
   59GLOH   H04 8999   3.814   9.499   0.798  0.8102 -1.1263  0.5408
   59GLOH    O2 9000   4.026   9.524   0.826  0.3507  0.5957 -0.7965
   59GLOH   H05 9001   4.023   9.492   0.918  0.2128 -1.0104 -1.3358
   59GLOH    C3 9002   3.853   9.653   0.917  0.2957 -0.5082 -0.4932
   59GLOH   H06 9003   3.764   9.710   0.890  1.0897  2.1908  2.3195
   59GLOH   H07 9004   3.934   9.721   0.941 -1.1629  1.1060 -0.0389
   59GLOH    O3 9005   3.828   9.574   1.033 -0.1112 -0.3127 -0.0765
   59GLOH   H01 9006   3.780   9.492   1.008  0.7721 -0.0958 -2.6170
   60GLOH   H03 9007   3.863   4.252   0.467  0.1230  1.8303  0.3925
   60GLOH    O1 9008   3.947   4.216   0.502 -0.4785  0.0588  0.0781
   60GLOH    C1 9009   3.921   4.095   0.578  0.1394 -0.0709 -0.2064
   60GLOH   H02 9010   3.822   4.104   0.623  0.1204  3.0963 -0.7635
   60GLOH   H08 9011   3.982   4.081   0.667  0.8180 -3.1212 -1.0797
   60GLOH    C2 9012   3.928   3.965   0.497  0.0642 -0.4464 -0.1612
   60GLOH   H04 9013   4.034   3.950   0.470 -0.2749 -1.1018 -1.1591
   60GLOH    O2 9014   3.892   3.845   0.577  0.6486 -0.4720  0.2787
   60GLOH   H05 9015   3.796   3.844   0.595  0.5508 -0.4078 -0.2359
   60GLOH    C3 9016   3.858   3.962   0.357  0.2698  0.3497  0.7328
   60GLOH   H06 9017   3.903   4.042   0.299 -1.1041 -1.0771 -2.4084
   60GLOH   H07 9018   3.756   4.000   0.371 -0.2229  0.3491 -2.5038
   60GLOH    O3 9019   3.873   3.836   0.288 -0.3919 -0.0873  0.1417
   60GLOH   H01 9020   3.953   3.854   0.237 -0.4087  0.2040  0.2186
   61GLOH   H03 9021   3.869   4.752   1.480  1.7940 -2.4768 -1.5929
   61GLOH    O1 9022   3.956   4.795   1.492  0.3796 -0.0591  0.4437
   61GLOH    C1 9023   4.050   4.734   1.399  0.1827  0.2218  0.0196
   61GLOH   H02 9024   4.055   4.795   1.309 -0.2602 -1.6170 -1.2861
   61GLOH   H08 9025   4.016   4.634   1.371 -2.6730  0.1989  3.2520
   61GLOH    C2 9026   4.191   4.706   1.447  0.2471  0.0069 -0.0186
   61GLOH   H04 9027   4.221   4.802   1.492  2.1334 -1.0683  1.0690
   61GLOH    O2 9028   4.200   4.612   1.561 -0.7679 -0.3361 -0.7243
   61GLOH   H05 9029   4.171   4.524   1.532 -0.8781 -0.8965  1.0249
   61GLOH    C3 9030   4.292   4.669   1.339  0.4352  0.1916  0.0346
   61GLOH   H06 9031   4.266   4.574   1.292  0.4272  0.2057  0.0108
   61GLOH   H07 9032   4.391   4.655   1.382  1.0407  0.3596 -1.2907
   61GLOH    O3 9033   4.308   4.769   1.230 -0.5392 -0.1852 -0.0332
   61GLOH   H01 9034   4.377   4.729   1.174 -0.0676  1.3387 -0.5591
   62GLOH   H03 9035   4.061   1.729   0.061  0.3085 -1.5701  0.6864
   62GLOH    O1 9036   4.033   1.789   0.133 -0.1788 -0.7837 -0.1618
   62GLOH    C1 9037   3.903   1.844   0.098  0.3911  0.8523 -0.2557
   62GLOH   H02 9038   3.820   1.774   0.109 -0.2000  1.6241  0.2141
   62GLOH   H08 9039   3.899   1.875  -0.007 -0.4867  0.0693 -0.4659
   62GLOH    C2 9040   3.876   1.971   0.183 -0.2068 -0.0400  0.2423
   62GLOH   H04 9041   3.789   2.024   0.142 -1.3609 -1.3744  0.9405
   62GLOH    O2 9042   3.827   1.931   0.309  0.2516 -0.2690 -0.0080
   62GLOH   H05 9043   3.890   1.866   0.345 -0.1014  0.0922  1.2790
   62GLOH    C3 9044   3.986   2.077   0.190  0.1311  0.2583 -0.1186
   62GLOH   H06 9045   4.082   2.044   0.230 -0.4284  0.1219  1.1234
   62GLOH   H07 9046   3.954   2.153   0.261  0.3743  0.6440 -0.4186
   62GLOH    O3 9047   4.019   2.144   0.066  0.3149  0.2949  0.6477
   62GLOH   H01 9048   4.091   2.098   0.018 -0.1574  0.1543  0.0634
   63GLOH   H03 9049   3.423   1.688   0.288 -0.4778  1.0438 -1.3451
   63GLOH    O1 9050   3.385   1.600   0.271  0.0096  0.4206  0.6706
   63GLOH    C1 9051   3.449   1.494   0.341 -0.1528  0.2938  0.8881
   63GLOH   H02 9052   3.419   1.513   0.444  0.6942  1.0056  1.0180
   63GLOH   H08 9053   3.557   1.508   0.344 -0.2991  1.3961  1.2886
   63GLOH    C2 9054   3.410   1.354   0.293  0.0795 -0.1543  0.3003
   63GLOH   H04 9055   3.425   1.351   0.184  0.6671  0.4070  0.3641
   63GLOH    O2 9056   3.493   1.252   0.355 -0.1507  0.2205  0.1603
   63GLOH   H05 9057   3.481   1.259   0.451 -1.7766  0.2272 -0.0221
   63GLOH    C3 9058   3.259   1.322   0.321 -0.2424 -0.3966 -0.5014
   63GLOH   H06 9059   3.205   1.398   0.266 -1.1606 -1.1681 -0.6792
   63GLOH   H07 9060   3.239   1.341   0.426 -0.5549 -4.0287  0.1655
   63GLOH    O3 9061   3.220   1.190   0.284  0.0482 -0.1593 -0.3556
   63GLOH   H01 9062   3.244   1.118   0.344  0.2696  0.1256 -0.1022
   64GLOH   H03 9063   4.540   4.599   1.051 -0.3398 -0.8112  0.5652
   64GLOH    O1 9064   4.458   4.647   1.074 -0.1797 -0.3391  0.1356
   64GLOH    C1 9065   4.381   4.706   0.963 -0.4203  0.1514  0.0021
   64GLOH   H02 9066   4.374   4.814   0.960  1.8329  0.2759 -4.2732
   64GLOH   H08 9067   4.280   4.664   0.969  0.6235 -2.6355 -1.0749
   64GLOH    C2 9068   4.424   4.660   0.824 -0.3273  0.3412  0.5501
   64GLOH   H04 9069   4.413   4.551   0.816  0.5811  0.2436  0.6119
   64GLOH    O2 9070   4.339   4.710   0.720 -0.6780 -0.0015 -0.1057
   64GLOH   H05 9071   4.395   4.718   0.641  0.3594  0.0545  0.6280
   64GLOH    C3 9072   4.574   4.679   0.817 -0.2480  0.3353 -0.1193
   64GLOH   H06 9073   4.595   4.777   0.861 -1.1593 -0.1481  1.4435
   64GLOH   H07 9074   4.605   4.673   0.713  0.4116 -2.7089  0.2188
   64GLOH    O3 9075   4.647   4.582   0.896  0.7343  0.2499  0.2663
   64GLOH   H01 9076   4.697   4.517   0.843  0.4164  0.8565 -0.8037
   65GLOH   H03 9077   3.943   9.460   2.476  2.6874 -0.5471 -1.1513
   65GLOH    O1 9078   3.968   9.550   2.502  0.3576 -0.1810  0.0081
   65GLOH    C1 9079   4.053   9.549   2.612  0.3792 -0.2768  0.3612
   65GLOH   H02 9080   4.134   9.618   2.588 -1.1106  0.9881 -1.1446
   65GLOH   H08 9081   4.093   9.450   2.634  1.0695 -0.1382 -0.2341
   65GLOH    C2 9082   3.986   9.597   2.741  0.0116  0.0478  0.4286
   65GLOH   H04 9083   4.046   9.568   2.829 -1.4292  1.2423  1.8297
   65GLOH    O2 9084   3.993   9.744   2.737  0.2360  0.6035  0.0832
   65GLOH   H05 9085   3.949   9.783   2.660  0.2712 -1.2136 -0.8794
   65GLOH    C3 9086   3.839   9.551   2.770 -0.4387  0.7404 -0.1377
   65GLOH   H06 9087   3.834   9.444   2.787 -1.0905  1.0552  1.7016
   65GLOH   H07 9088   3.781   9.566   2.678  1.1553  0.9949 -1.1255
   65GLOH    O3 9089   3.782   9.597   2.891  0.2020  0.0588  0.1477
   65GLOH   H01 9090   3.841   9.672   2.908  0.0551  0.1052  0.4612
   66GLOH   H03 9091   2.482   9.639   0.419 -0.3034  0.8869  0.3386
   66GLOH    O1 9092   2.507   9.615   0.510 -0.2728 -0.7898 -0.0904
   66GLOH    C1 9093   2.574   9.486   0.503 -0.0261  0.0350 -0.0301
   66GLOH   H02 9094   2.658   9.486   0.572 -0.7415 -3.3404  0.9603
   66GLOH   H08 9095   2.616   9.479   0.403  0.6165 -0.6577  0.2807
   66GLOH    C2 9096   2.481   9.363   0.534 -0.1389 -0.3463  0.0593
   66GLOH   H04 9097   2.401   9.373   0.458  0.5714  0.9570 -0.5361
   66GLOH    O2 9098   2.555   9.245   0.521 -0.4973 -0.2500  0.6296
   66GLOH   H05 9099   2.553   9.223   0.427 -1.0962  0.9970  0.3338
   66GLOH    C3 9100   2.423   9.392   0.674 -0.3019  0.1347  0.5793
   66GLOH   H06 9101   2.506   9.412   0.743 -0.1698 -1.9708  1.0760
   66GLOH   H07 9102   2.373   9.299   0.700 -1.6815  0.5941 -0.4141
   66GLOH    O3 9103   2.332   9.511   0.661 -0.1625 -0.2088 -0.9554
   66GLOH   H01 9104   2.386   9.571   0.607 -1.3410  1.8446  0.0734
   67GLOH   H03 9105   3.614   9.993   2.412  1.9870  1.0260 -0.9289
   67GLOH    O1 9106   3.574  10.067   2.462 -0.2981 -0.2876 -0.7651
   67GLOH    C1 9107   3.651  10.102   2.582 -0.7298 -0.1546 -0.0492
   67GLOH   H02 9108   3.597  10.176   2.641 -2.7936 -1.3496 -0.3971
   67GLOH   H08 9109   3.748  10.143   2.557  0.0388 -1.6331  0.4605
   67GLOH    C2 9110   3.671   9.986   2.686  0.0554 -0.4278  0.4323
   67GLOH   H04 9111   3.746  10.028   2.754 -1.3120  1.7872  0.6130
   67GLOH    O2 9112   3.552   9.957   2.755 -0.1897  0.1037  0.2972
   67GLOH   H05 9113   3.499  10.038   2.767 -0.3729  0.0931 -0.4504
   67GLOH    C3 9114   3.725   9.859   2.617 -0.3354 -0.1960 -1.0661
   67GLOH   H06 9115   3.650   9.824   2.545 -2.3907 -1.3561  1.5570
   67GLOH   H07 9116   3.738   9.782   2.692  1.1405  0.1215 -0.9742
   67GLOH    O3 9117   3.850   9.891   2.557  0.1452  0.3181 -0.6840
   67GLOH   H01 9118   3.854   9.837   2.476  0.3832 -1.1072  0.2482
   68GLOH   H03 9119   2.029   9.520   0.098  0.4431 -1.3597 -0.5125
   68GLOH    O1 9120   2.055   9.533   0.191 -0.0509 -0.0018 -0.5470
   68GLOH    C1 9121   2.093   9.408   0.248 -0.7746  0.6457  0.2995
   68GLOH   H02 9122   2.004   9.361   0.291 -1.3586  2.0856  0.7106
   68GLOH   H08 9123   2.156   9.424   0.335  0.1359 -1.7181  0.1120
   68GLOH    C2 9124   2.169   9.313   0.151  0.0220  0.3636 -0.4093
   68GLOH   H04 9125   2.265   9.358   0.121 -0.4420  1.0875 -0.8356
   68GLOH    O2 9126   2.182   9.178   0.212 -0.2342  0.1801  0.2296
   68GLOH   H05 9127   2.251   9.123   0.172 -0.3223 -2.0918  3.0053
   68GLOH    C3 9128   2.088   9.301   0.021 -0.3434 -0.3327 -0.3321
   68GLOH   H06 9129   1.987   9.274   0.050 -0.1010 -0.3724  0.4937
   68GLOH   H07 9130   2.128   9.210  -0.025  1.9512 -0.6176  2.0506
   68GLOH    O3 9131   2.104   9.415  -0.063 -0.3134 -0.1503  0.5150
   68GLOH   H01 9132   2.131   9.392  -0.154 -1.7808  0.1698 -0.0155
   69GLOH   H03 9133   3.843   4.647   1.667  0.2310  0.3852  0.4607
   69GLOH    O1 9134   3.862   4.585   1.740  0.5775 -0.3642 -0.2613
   69GLOH    C1 9135   3.892   4.653   1.862  0.0928 -0.3032  0.3610
   69GLOH   H02 9136   3.894   4.574   1.938 -0.1608 -1.3909 -0.7434
   69GLOH   H08 9137   3.814   4.718   1.901 -0.7114  0.1125 -1.8502
   69GLOH    C2 9138   4.018   4.735   1.842  0.1620 -0.0997 -0.2629
   69GLOH   H04 9139   4.099   4.668   1.809  0.9112  0.6981 -0.0677
   69GLOH    O2 9140   3.997   4.847   1.746 -0.7275 -0.3709  0.3390
   69GLOH   H05 9141   3.984   4.818   1.655  0.5484 -1.1188  0.3789
   69GLOH    C3 9142   4.068   4.786   1.977  0.7096  0.3287  0.3230
   69GLOH   H06 9143   3.981   4.831   2.025 -0.3150 -2.2457  0.9666
   69GLOH   H07 9144   4.156   4.848   1.961  0.9014  0.3004  1.2270
   69GLOH    O3 9145   4.112   4.678   2.056 -0.1354 -0.5464  0.0399
   69GLOH   H01 9146   4.154   4.708   2.139  1.7384 -0.8535 -0.7505
   70GLOH   H03 9147   3.617   9.201   1.203 -0.3696 -0.8720  0.0636
   70GLOH    O1 9148   3.567   9.201   1.120 -0.4806 -0.4410  0.1259
   70GLOH    C1 9149   3.519   9.061   1.101  0.2076  0.9167 -0.3177
   70GLOH   H02 9150   3.457   9.054   1.011  0.2679  0.2465 -0.3097
   70GLOH   H08 9151   3.459   9.022   1.183  0.8477 -0.5780 -0.5301
   70GLOH    C2 9152   3.635   8.961   1.085  0.4464 -0.4674  0.1086
   70GLOH   H04 9153   3.695   8.949   1.177  1.6673 -2.3625 -0.9022
   70GLOH    O2 9154   3.565   8.830   1.074 -0.8690  0.0858  0.4945
   70GLOH   H05 9155   3.592   8.765   1.141 -0.9014  0.8506  1.2528
   70GLOH    C3 9156   3.708   8.987   0.950 -1.0842 -0.4628 -0.6098
   70GLOH   H06 9157   3.721   9.095   0.950  0.5973 -0.6603 -1.1625
   70GLOH   H07 9158   3.632   8.971   0.873 -0.0216  0.3825 -1.8492
   70GLOH    O3 9159   3.827   8.912   0.920  0.0756  0.2806  0.3042
   70GLOH   H01 9160   3.832   8.906   0.823 -1.5906  0.1995  0.1962
   71GLOH   H03 9161   4.294   2.084   0.736  0.7222 -1.7462  1.6621
   71GLOH    O1 9162   4.269   2.000   0.694 -0.0736 -0.5592 -0.3134
   71GLOH    C1 9163   4.154   1.941   0.764  0.1448  0.2239  0.3069
   71GLOH   H02 9164   4.139   1.843   0.719  1.2407  0.1233  0.1581
   71GLOH   H08 9165   4.061   1.993   0.739 -0.3534 -0.8434 -0.1001
   71GLOH    C2 9166   4.170   1.922   0.920  0.5335  0.7707 -0.3889
   71GLOH   H04 9167   4.179   2.022   0.965  0.5723 -0.3943  2.2855
   71GLOH    O2 9168   4.051   1.851   0.974 -0.1761 -0.5242  0.0874
   71GLOH   H05 9169   4.040   1.770   0.922  1.1453 -0.1133 -0.9068
   71GLOH    C3 9170   4.298   1.846   0.956  0.0393  0.3518 -0.8051
   71GLOH   H06 9171   4.384   1.891   0.906 -0.3449  0.6490 -1.2059
   71GLOH   H07 9172   4.293   1.746   0.912  0.0960  1.3116 -3.0593
   71GLOH    O3 9173   4.316   1.834   1.095  0.1075 -0.3172 -1.0503
   71GLOH   H01 9174   4.349   1.916   1.137 -2.0605  0.5042 -0.9013
   72GLOH   H03 9175   3.803   0.466   1.949 -0.3750 -0.0732  0.0348
   72GLOH    O1 9176   3.853   0.451   2.032 -0.3768 -0.0536  0.0392
   72GLOH    C1 9177   3.858   0.550   2.137  0.2920 -0.7110 -0.5375
   72GLOH   H02 9178   3.962   0.584   2.147 -0.1533  0.6188 -0.3485
   72GLOH   H08 9179   3.826   0.512   2.234  1.7124  0.2637  0.3386
   72GLOH    C2 9180   3.768   0.672   2.100  0.4457  0.4248 -0.6958
   72GLOH   H04 9181   3.798   0.707   2.000 -2.1807 -1.2595 -2.1260
   72GLOH    O2 9182   3.632   0.634   2.094  0.7631  0.4417  0.2445
   72GLOH   H05 9183   3.617   0.538   2.096 -0.3788  0.6151  0.0622
   72GLOH    C3 9184   3.788   0.786   2.203 -0.7366 -0.0819 -0.0427
   72GLOH   H06 9185   3.765   0.748   2.302 -0.5183 -0.5911 -0.1822
   72GLOH   H07 9186   3.709   0.858   2.182 -0.3380  0.5895  0.7298
   72GLOH    O3 9187   3.923   0.833   2.214  0.3052 -0.4886 -0.0554
   72GLOH   H01 9188   3.947   0.863   2.124 -0.7022 -0.8333 -0.4497
   73GLOH   H03 9189   3.671   8.735   1.655  0.0727 -2.3567  0.3352
   73GLOH    O1 9190   3.728   8.729   1.575 -0.1871 -0.3175 -0.0492
   73GLOH    C1 9191   3.770   8.863   1.541  0.3265 -0.4945 -0.1652
   73GLOH   H02 9192   3.834   8.902   1.620  0.0481 -0.5015  0.0659
   73GLOH   H08 9193   3.682   8.927   1.528  1.3736  0.2273 -4.5036
   73GLOH    C2 9194   3.860   8.874   1.419  0.0879 -0.0695 -0.6474
   73GLOH   H04 9195   3.801   8.840   1.333 -0.7853  0.5219 -0.2887
   73GLOH    O2 9196   3.898   9.013   1.407 -0.2757 -0.0512  0.2103
   73GLOH   H05 9197   3.974   9.017   1.346  0.7271  0.4585  1.4701
   73GLOH    C3 9198   3.987   8.787   1.427 -0.0781 -0.1680  0.6726
   73GLOH   H06 9199   4.050   8.823   1.509  0.9711 -0.0478 -0.1649
   73GLOH   H07 9200   4.047   8.807   1.338  0.7756 -0.6461  1.1258
   73GLOH    O3 9201   3.952   8.650   1.451 -0.1876 -0.2236  0.5883
   73GLOH   H01 9202   3.865   8.649   1.495 -1.2804 -1.5535 -1.5263
   74GLOH   H03 9203   4.569   2.212   0.206 -3.8858  2.0090  1.6342
   74GLOH    O1 9204   4.520   2.128   0.202 -0.5497  0.0493 -0.2052
   74GLOH    C1 9205   4.376   2.131   0.229 -0.5229 -0.0903 -0.3093
   74GLOH   H02 9206   4.345   2.038   0.277 -0.8413  0.8171  1.2830
   74GLOH   H08 9207   4.324   2.131   0.134  0.2804 -0.3447 -0.7577
   74GLOH    C2 9208   4.333   2.244   0.325  0.1663  0.0996 -0.4406
   74GLOH   H04 9209   4.330   2.343   0.275  0.7380  0.8770  1.0472
   74GLOH    O2 9210   4.202   2.211   0.375 -0.1956 -0.3944  0.2038
   74GLOH   H05 9211   4.157   2.296   0.391 -1.1363 -1.0879  1.2977
   74GLOH    C3 9212   4.420   2.248   0.454  0.3386  0.8902  0.0732
   74GLOH   H06 9213   4.418   2.154   0.510 -1.5394  0.6119 -0.3975
   74GLOH   H07 9214   4.368   2.319   0.518 -1.2886  0.7193 -1.0203
   74GLOH    O3 9215   4.558   2.284   0.423 -0.0827  0.1404 -0.0763
   74GLOH   H01 9216   4.611   2.202   0.423 -0.1593  0.0909 -0.0124
   75GLOH   H03 9217   3.018   2.938   1.920 -1.5713  0.8260 -0.8446
   75GLOH    O1 9218   3.048   3.009   1.980 -0.3833 -0.2273 -0.1583
   75GLOH    C1 9219   3.180   2.986   2.029 -0.2595  0.2806 -0.2083
   75GLOH   H02 9220   3.253   3.047   1.975 -0.2857  0.9369  0.4780
   75GLOH   H08 9221   3.214   2.883   2.026  1.9374  1.0038 -0.5719
   75GLOH    C2 9222   3.193   3.039   2.171 -0.1013  0.3371  0.1206
   75GLOH   H04 9223   3.118   2.988   2.233 -1.6173 -0.3233 -2.2158
   75GLOH    O2 9224   3.326   3.009   2.229  0.6584 -0.1696  0.2448
   75GLOH   H05 9225   3.335   2.913   2.223 -0.6201 -0.2568 -0.3874
   75GLOH    C3 9226   3.163   3.190   2.182 -0.7612  0.7117  0.6190
   75GLOH   H06 9227   3.067   3.211   2.136  1.2358 -0.5050 -4.4297
   75GLOH   H07 9228   3.238   3.241   2.122 -0.7420 -2.5638 -2.2927
   75GLOH    O3 9229   3.169   3.240   2.314  0.2331 -0.6868  0.3210
   75GLOH   H01 9230   3.243   3.303   2.319 -0.3364  0.3985 -3.2474
   76GLOH   H03 9231   5.025   3.387   0.744  1.8726 -0.8084 -0.7422
   76GLOH    O1 9232   4.950   3.369   0.685  0.0524  0.3173  1.1463
   76GLOH    C1 9233   4.952   3.458   0.568  0.0529  0.6479 -0.2387
   76GLOH   H02 9234   4.908   3.413   0.479  2.3019 -2.8096  0.2782
   76GLOH   H08 9235   5.055   3.479   0.537  0.7908  0.2267  1.8280
   76GLOH    C2 9236   4.886   3.593   0.603 -0.4228 -0.0421  0.3493
   76GLOH   H04 9237   4.921   3.626   0.702  0.3256  4.8213 -1.3904
   76GLOH    O2 9238   4.895   3.692   0.500  0.0746 -0.1280  0.0374
   76GLOH   H05 9239   4.866   3.650   0.418  1.6956 -2.1657  0.4737
   76GLOH    C3 9240   4.733   3.566   0.616  0.3475  0.4075 -0.3104
   76GLOH   H06 9241   4.687   3.538   0.522  1.1507 -1.9114 -0.0485
   76GLOH   H07 9242   4.681   3.655   0.652  0.6208 -0.1421  1.4869
   76GLOH    O3 9243   4.701   3.467   0.714 -0.2508  0.0779 -0.0046
   76GLOH   H01 9244   4.782   3.416   0.732 -0.4933  0.7702  3.4768
   77GLOH   H03 9245   3.211   9.359   0.139 -1.3267  0.2864  0.7697
   77GLOH    O1 9246   3.192   9.264   0.125 -0.2437  0.1975 -0.2034
   77GLOH    C1 9247   3.085   9.252   0.024  0.0323  0.1576 -0.1472
   77GLOH   H02 9248   3.005   9.300   0.081 -0.1095 -1.4816  1.0557
   77GLOH   H08 9249   3.062   9.147   0.005 -0.6264  0.7002 -2.4362
   77GLOH    C2 9250   3.128   9.318  -0.115  0.6790 -0.6600 -0.4575
   77GLOH   H04 9251   3.047   9.298  -0.187 -0.9483  2.1281  0.5489
   77GLOH    O2 9252   3.134   9.462  -0.101 -0.4792 -0.1839  0.0969
   77GLOH   H05 9253   3.197   9.487  -0.031 -1.4433 -0.9880  1.2653
   77GLOH    C3 9254   3.263   9.254  -0.168 -0.1703 -0.4035 -0.6157
   77GLOH   H06 9255   3.333   9.302  -0.099  0.5806  0.1467 -1.7337
   77GLOH   H07 9256   3.285   9.290  -0.269  0.7899  0.2585 -0.1836
   77GLOH    O3 9257   3.262   9.113  -0.178  0.2160 -0.0471  0.0183
   77GLOH   H01 9258   3.261   9.085  -0.085 -0.1203  0.1100  0.0609
   78GLOH   H03 9259   4.235   4.387   1.371 -1.1008 -0.6896 -0.8201
   78GLOH    O1 9260   4.169   4.390   1.442 -0.0786  0.3467  0.1006
   78GLOH    C1 9261   4.037   4.345   1.385  0.0010  0.8385 -0.7706
   78GLOH   H02 9262   4.041   4.239   1.362 -0.8470  0.4914  0.6471
   78GLOH   H08 9263   4.013   4.389   1.288 -2.7057 -2.8232 -1.8528
   78GLOH    C2 9264   3.927   4.372   1.493 -0.8941 -0.1059  0.0476
   78GLOH   H04 9265   3.932   4.476   1.528 -1.0023 -0.6534  1.7434
   78GLOH    O2 9266   3.797   4.349   1.436  0.5127  0.2584 -0.5280
   78GLOH   H05 9267   3.802   4.280   1.368 -1.7948  1.7964 -2.3078
   78GLOH    C3 9268   3.949   4.269   1.608  0.4642  0.1979 -0.4539
   78GLOH   H06 9269   4.051   4.272   1.648  0.1540  1.9112  0.2716
   78GLOH   H07 9270   3.919   4.173   1.568 -1.3784  0.3487  0.4976
   78GLOH    O3 9271   3.855   4.301   1.719  0.3013  0.1173  0.3075
   78GLOH   H01 9272   3.841   4.398   1.720 -2.1077 -0.1981  2.0204
   79GLOH   H03 9273   2.731   1.846   2.049  0.4162  0.1743  1.1306
   79GLOH    O1 9274   2.726   1.763   1.998 -0.3705  0.9839 -0.1452
   79GLOH    C1 9275   2.809   1.767   1.881  0.1615 -0.1296  0.3838
   79GLOH   H02 9276   2.795   1.671   1.831 -0.5795 -1.1015  2.3858
   79GLOH   H08 9277   2.911   1.770   1.918  0.5771  0.0356 -0.7536
   79GLOH    C2 9278   2.781   1.894   1.797 -0.4623  0.6465 -0.0238
   79GLOH   H04 9279   2.676   1.896   1.766 -0.7904 -2.9050  0.7260
   79GLOH    O2 9280   2.808   2.007   1.886  0.2781 -0.2348 -0.5139
   79GLOH   H05 9281   2.735   2.071   1.888  0.9753  0.5985 -1.3588
   79GLOH    C3 9282   2.869   1.903   1.676 -0.5791  0.0193  0.0821
   79GLOH   H06 9283   2.971   1.884   1.710 -0.3827  0.2514 -0.3747
   79GLOH   H07 9284   2.877   1.998   1.623  0.1312  1.6036  2.8873
   79GLOH    O3 9285   2.840   1.794   1.584 -0.3055  0.0916 -0.0697
   79GLOH   H01 9286   2.881   1.821   1.499  1.2523 -0.7590  0.4009
   80GLOH   H03 9287   3.078  10.094   0.144 -0.8957  1.3811 -0.2567
   80GLOH    O1 9288   3.044  10.105   0.235 -0.3175 -0.3075  0.1893
   80GLOH    C1 9289   2.927  10.017   0.233  0.0871 -0.5592  0.9648
   80GLOH   H02 9290   2.880  10.027   0.135 -0.4108 -0.6589  1.1881
   80GLOH   H08 9291   2.862  10.050   0.314 -2.4212 -1.2725 -0.6980
   80GLOH    C2 9292   2.968   9.869   0.274 -0.3221  0.5304  0.0548
   80GLOH   H04 9293   3.039   9.862   0.357 -1.6089 -0.2085  1.1262
   80GLOH    O2 9294   2.848   9.797   0.300  0.3962 -0.2477  0.4576
   80GLOH   H05 9295   2.879   9.732   0.365 -0.4878 -0.0803  1.0594
   80GLOH    C3 9296   3.043   9.803   0.156  0.5710 -0.2511  0.6723
   80GLOH   H06 9297   3.002   9.835   0.061 -0.1925 -0.7358  0.8309
   80GLOH   H07 9298   3.027   9.695   0.154  0.0169 -0.1595 -0.1637
   80GLOH    O3 9299   3.180   9.833   0.159 -0.4930  0.2198 -0.1508
   80GLOH   H01 9300   3.194   9.914   0.212  1.9840  0.7402 -1.4942
   81GLOH   H03 9301   4.489   4.035   2.071 -0.7684  1.7517 -1.1352
   81GLOH    O1 9302   4.486   3.995   1.983 -0.5406 -0.3814 -0.1981
   81GLOH    C1 9303   4.489   3.852   2.003  0.2883 -0.6379 -0.2146
   81GLOH   H02 9304   4.387   3.813   2.008 -0.6648  1.5130 -2.0610
   81GLOH   H08 9305   4.532   3.826   2.100  1.0533 -1.4304 -0.7501
   81GLOH    C2 9306   4.587   3.789   1.898  0.1829 -0.8025  0.3868
   81GLOH   H04 9307   4.684   3.833   1.925 -0.4992  2.1873 -1.8023
   81GLOH    O2 9308   4.587   3.652   1.918  0.2449  0.2343  0.0253
   81GLOH   H05 9309   4.609   3.620   1.829  0.1504  1.3561 -0.4163
   81GLOH    C3 9310   4.536   3.836   1.762  0.2649  0.7344  0.4142
   81GLOH   H06 9311   4.551   3.942   1.747  3.6529 -0.0097 -2.1091
   81GLOH   H07 9312   4.428   3.821   1.756  0.1489  1.4327  0.7288
   81GLOH    O3 9313   4.604   3.761   1.658 -0.1796  0.1489 -0.4435
   81GLOH   H01 9314   4.533   3.727   1.600 -1.1650  1.8443 -0.2774
   82GLOH   H03 9315   3.268  10.339   1.456 -1.2358 -0.4397 -1.1276
   82GLOH    O1 9316   3.302  10.250   1.437  0.3480 -0.0209 -0.3473
   82GLOH    C1 9317   3.301  10.191   1.571 -0.2510 -0.4969 -1.0533
   82GLOH   H02 9318   3.310  10.082   1.569  0.1703 -0.4729 -0.6328
   82GLOH   H08 9319   3.205  10.213   1.618  1.6370  0.8338  2.3739
   82GLOH    C2 9320   3.418  10.236   1.663  0.4460  1.1512  0.3110
   82GLOH   H04 9321   3.434  10.344   1.646 -0.7056  1.6850  2.3886
   82GLOH    O2 9322   3.387  10.211   1.795 -0.1661 -0.3487 -0.0190
   82GLOH   H05 9323   3.368  10.117   1.811 -1.4489 -0.5271 -2.3948
   82GLOH    C3 9324   3.553  10.179   1.627  0.6762 -0.4603 -0.7413
   82GLOH   H06 9325   3.626  10.256   1.652  0.4319 -0.0806 -1.1879
   82GLOH   H07 9326   3.558  10.160   1.520 -0.6307  1.6916 -1.2267
   82GLOH    O3 9327   3.574  10.049   1.692 -0.1362 -0.0181 -0.3971
   82GLOH   H01 9328   3.572  10.058   1.789 -2.8056  0.2179 -0.4355
   83GLOH   H03 9329   5.176   3.488   0.855 -3.0626  1.1034 -2.5377
   83GLOH    O1 9330   5.144   3.397   0.838  0.0785 -0.4766 -0.4622
   83GLOH    C1 9331   5.235   3.305   0.897  0.1848  0.3664 -0.3247
   83GLOH   H02 9332   5.338   3.336   0.882  1.1004 -2.4056 -0.1813
   83GLOH   H08 9333   5.230   3.203   0.858  0.4719  0.2386 -0.0301
   83GLOH    C2 9334   5.219   3.298   1.052 -0.0848 -0.3674 -0.2209
   83GLOH   H04 9335   5.272   3.211   1.095 -0.0105  0.8960  2.3401
   83GLOH    O2 9336   5.267   3.424   1.115  0.1918 -0.4295  0.6399
   83GLOH   H05 9337   5.289   3.410   1.209 -1.9168  2.3667  1.6227
   83GLOH    C3 9338   5.066   3.289   1.089 -0.1031  0.3529 -0.5084
   83GLOH   H06 9339   5.029   3.217   1.017  2.7425  0.7333 -2.4725
   83GLOH   H07 9340   5.025   3.388   1.065 -1.1937 -0.0452 -0.3046
   83GLOH    O3 9341   5.040   3.258   1.228  0.0903  0.0283  0.0874
   83GLOH   H01 9342   5.081   3.171   1.244  0.6102 -0.1998 -2.3376
   84GLOH   H03 9343   3.512   1.631   0.641  0.8219  0.2263 -0.1236
   84GLOH    O1 9344   3.553   1.701   0.587  0.1681  0.1993 -0.6626
   84GLOH    C1 9345   3.694   1.725   0.625  1.6353 -0.2669 -0.0674
   84GLOH   H02 9346   3.716   1.726   0.732 -1.0357  1.8485  0.5299
   84GLOH   H08 9347   3.725   1.825   0.595 -0.0600  0.9278  2.0133
   84GLOH    C2 9348   3.795   1.625   0.555 -0.2552 -0.0333  0.3562
   84GLOH   H04 9349   3.785   1.641   0.446 -0.6499  0.4982  0.4670
   84GLOH    O2 9350   3.935   1.652   0.585 -0.5509 -0.0315 -0.2068
   84GLOH   H05 9351   3.976   1.682   0.502 -1.1156  3.7705  0.7859
   84GLOH    C3 9352   3.767   1.480   0.591  0.4173 -0.1711 -0.0028
   84GLOH   H06 9353   3.664   1.458   0.567 -0.0063 -0.5563  2.0970
   84GLOH   H07 9354   3.787   1.464   0.697  0.2411  0.8813  0.2002
   84GLOH    O3 9355   3.843   1.392   0.506 -0.6437  0.0405 -0.2235
   84GLOH   H01 9356   3.821   1.424   0.416 -1.5932  0.8073  0.2642
   85GLOH   H03 9357   4.348   1.689   0.091  1.3083  0.5250  2.5768
   85GLOH    O1 9358   4.398   1.754   0.039 -0.5198  0.3872  0.5636
   85GLOH    C1 9359   4.335   1.885   0.032 -0.1749 -0.0266  0.2134
   85GLOH   H02 9360   4.406   1.966   0.044 -0.8397  0.6461 -0.3951
   85GLOH   H08 9361   4.261   1.892   0.112 -0.3957 -0.7066  0.0734
   85GLOH    C2 9362   4.258   1.910  -0.097  0.6452  0.0584  0.0825
   85GLOH   H04 9363   4.178   1.836  -0.105  0.8820 -0.1311 -0.5856
   85GLOH    O2 9364   4.203   2.042  -0.094  0.1171 -0.0192 -0.3077
   85GLOH   H05 9365   4.239   2.092  -0.169  2.5106  0.9488  1.4009
   85GLOH    C3 9366   4.358   1.895  -0.216 -0.5219  0.2455  0.0169
   85GLOH   H06 9367   4.452   1.949  -0.206  0.0442 -0.1682 -2.7350
   85GLOH   H07 9368   4.310   1.931  -0.307 -1.9549 -2.6729 -0.4663
   85GLOH    O3 9369   4.378   1.754  -0.213  0.2452 -0.1945  0.0994
   85GLOH   H01 9370   4.402   1.734  -0.121  0.4430  1.4807  0.4262
   86GLOH   H03 9371   3.333   5.306   2.484 -0.8046  1.1540 -2.7850
   86GLOH    O1 9372   3.407   5.369   2.470  0.1321  0.7842  0.0719
   86GLOH    C1 9373   3.526   5.292   2.492  0.0271 -0.2517  0.1284
   86GLOH   H02 9374   3.546   5.226   2.408  1.0094  0.6669 -0.3851
   86GLOH   H08 9375   3.517   5.233   2.583  1.1480 -1.1407 -0.3131
   86GLOH    C2 9376   3.654   5.383   2.494  0.2202  0.1831 -0.8652
   86GLOH   H04 9377   3.659   5.436   2.397 -0.0415  1.8432  0.0086
   86GLOH    O2 9378   3.635   5.469   2.611  0.1079  0.4415  0.6470
   86GLOH   H05 9379   3.570   5.539   2.593 -0.8542 -0.0092  2.2803
   86GLOH    C3 9380   3.769   5.285   2.517  0.4946 -0.7637 -0.2408
   86GLOH   H06 9381   3.762   5.244   2.618 -1.6745  0.9484  0.3472
   86GLOH   H07 9382   3.863   5.340   2.511 -0.2843  0.7046  0.7428
   86GLOH    O3 9383   3.768   5.182   2.422  0.0153  0.2004  0.0041
   86GLOH   H01 9384   3.777   5.092   2.459 -0.2171 -0.1243 -0.7220
   87GLOH   H03 9385   4.204   4.735   0.008 -1.6651 -0.9451 -0.4441
   87GLOH    O1 9386   4.261   4.689   0.072 -0.8744 -0.0647 -0.5067
   87GLOH    C1 9387   4.300   4.763   0.190 -0.5061 -0.1607  0.3650
   87GLOH   H02 9388   4.271   4.867   0.178 -1.1539 -0.4734 -0.7814
   87GLOH   H08 9389   4.408   4.767   0.208 -0.7396  2.1673  1.5188
   87GLOH    C2 9390   4.227   4.706   0.311 -0.0364 -0.2442  0.1060
   87GLOH   H04 9391   4.259   4.601   0.318  0.5099 -0.0047  1.3646
   87GLOH    O2 9392   4.276   4.784   0.423 -0.0066 -0.0685 -0.2245
   87GLOH   H05 9393   4.236   4.871   0.438  1.0660  0.2529  0.8761
   87GLOH    C3 9394   4.077   4.704   0.296 -0.4682  0.7210  0.2494
   87GLOH   H06 9395   4.042   4.619   0.355  2.7231  0.7907  2.3635
   87GLOH   H07 9396   4.046   4.677   0.195 -0.0463 -0.1093  0.3337
   87GLOH    O3 9397   4.011   4.828   0.337  0.3653  0.4158  0.9481
   87GLOH   H01 9398   3.915   4.810   0.327  0.4059  1.3004 -1.1943
   88GLOH   H03 9399   4.902   4.000   1.174 -1.9540 -0.7605 -0.4701
   88GLOH    O1 9400   4.906   3.965   1.265 -0.2540 -0.2500 -0.3361
   88GLOH    C1 9401   4.787   4.012   1.324  0.6127  0.2193 -0.2811
   88GLOH   H02 9402   4.714   3.932   1.309 -0.8165  1.6118 -0.9299
   88GLOH   H08 9403   4.750   4.105   1.281  0.9956  0.9706  0.9819
   88GLOH    C2 9404   4.790   4.042   1.478  0.0807 -0.0759  0.3288
   88GLOH   H04 9405   4.846   4.134   1.499  0.8261 -0.3683 -0.3536
   88GLOH    O2 9406   4.660   4.072   1.535 -0.3698  0.1715 -0.5286
   88GLOH   H05 9407   4.673   4.112   1.623  4.7289 -3.1142  0.4007
   88GLOH    C3 9408   4.868   3.929   1.545 -0.1391 -0.8179 -0.1284
   88GLOH   H06 9409   4.856   3.947   1.652 -2.5107 -0.1868 -0.4858
   88GLOH   H07 9410   4.973   3.944   1.517 -0.4125  0.8835 -0.3366
   88GLOH    O3 9411   4.819   3.802   1.515 -0.2475  0.1155 -0.3538
   88GLOH   H01 9412   4.743   3.796   1.576  0.2238  0.0701  0.2313
   89GLOH   H03 9413   3.432  10.270   1.367  1.1936 -1.7322  0.2151
   89GLOH    O1 9414   3.509  10.300   1.317  0.4443 -0.1952 -0.0424
   89GLOH    C1 9415   3.519  10.241   1.188 -0.2658 -0.3737  0.1411
   89GLOH   H02 9416   3.585  10.294   1.120  1.4799 -0.4841  1.6964
   89GLOH   H08 9417   3.420  10.232   1.143  0.2462  3.0060 -1.7739
   89GLOH    C2 9418   3.576  10.098   1.196 -0.5329 -0.4198 -0.1902
   89GLOH   H04 9419   3.503  10.042   1.256 -0.0768 -1.8605 -0.9648
   89GLOH    O2 9420   3.592  10.036   1.072  0.4348 -0.3798  0.4643
   89GLOH   H05 9421   3.622   9.944   1.081  2.0738  0.1253  0.2523
   89GLOH    C3 9422   3.712  10.096   1.255 -0.5817  0.3074  0.2550
   89GLOH   H06 9423   3.712  10.161   1.343  0.9434  1.2057 -0.3937
   89GLOH   H07 9424   3.784  10.135   1.183  0.8673 -0.8889  1.0425
   89GLOH    O3 9425   3.758   9.965   1.294 -0.1382 -0.1668  0.1954
   89GLOH   H01 9426   3.732   9.901   1.225 -2.2167 -1.7661  2.3567
   90GLOH   H03 9427   3.444   9.074   0.316 -0.9670  0.4148  3.0005
   90GLOH    O1 9428   3.525   9.129   0.309 -0.5929 -0.4283  0.0430
   90GLOH    C1 9429   3.506   9.238   0.228 -0.2617  0.7118  0.6518
   90GLOH   H02 9430   3.400   9.264   0.224 -1.1543 -2.4742  1.7881
   90GLOH   H08 9431   3.542   9.209   0.129 -1.0366 -0.9003  0.8257
   90GLOH    C2 9432   3.593   9.356   0.266 -0.0097 -0.2326 -0.1399
   90GLOH   H04 9433   3.696   9.319   0.269 -0.0103 -0.1556  1.1273
   90GLOH    O2 9434   3.570   9.468   0.179 -0.4376 -0.4363  0.0145
   90GLOH   H05 9435   3.641   9.533   0.193 -0.3146 -0.5682  0.0014
   90GLOH    C3 9436   3.566   9.419   0.407 -0.3986  0.2290  0.5809
   90GLOH   H06 9437   3.589   9.333   0.469  1.0584  0.6633  0.6666
   90GLOH   H07 9438   3.461   9.446   0.422 -1.0050 -2.2924  1.0340
   90GLOH    O3 9439   3.655   9.523   0.449  0.1588  0.0892  0.0552
   90GLOH   H01 9440   3.684   9.575   0.372 -0.4432  0.3699  0.0145
   91GLOH   H03 9441   3.772   1.930   2.335 -0.3736 -0.4361 -0.5269
   91GLOH    O1 9442   3.721   1.847   2.340 -0.2465 -0.4935 -0.1235
   91GLOH    C1 9443   3.610   1.864   2.428 -0.4397 -0.4365  0.2794
   91GLOH   H02 9444   3.554   1.770   2.433  1.7128 -1.7229  0.7488
   91GLOH   H08 9445   3.542   1.945   2.400  0.2980  1.1674  2.9591
   91GLOH    C2 9446   3.646   1.898   2.576  0.0785  0.3299  0.5551
   91GLOH   H04 9447   3.727   1.833   2.613  0.1836 -0.4882 -1.0863
   91GLOH    O2 9448   3.688   2.039   2.580 -0.0610  0.5465  0.4656
   91GLOH   H05 9449   3.740   2.064   2.502 -0.4602 -1.8343 -0.6146
   91GLOH    C3 9450   3.525   1.866   2.670  0.1398 -0.0768  0.3670
   91GLOH   H06 9451   3.440   1.917   2.623  0.6794  0.6479  0.1827
   91GLOH   H07 9452   3.548   1.914   2.765 -1.1348 -0.6420  0.9766
   91GLOH    O3 9453   3.499   1.725   2.670 -0.1128 -0.1102 -0.4846
   91GLOH   H01 9454   3.409   1.692   2.684  0.1875 -0.8155 -0.2048
   92GLOH   H03 9455   3.455   9.653   0.498  0.6014 -1.8022  0.1407
   92GLOH    O1 9456   3.461   9.670   0.594 -0.2021  0.4490 -0.1732
   92GLOH    C1 9457   3.330   9.690   0.642  0.4625 -0.6368 -0.1290
   92GLOH   H02 9458   3.264   9.608   0.616 -1.6139  0.6720  0.9127
   92GLOH   H08 9459   3.277   9.774   0.597  0.7730  0.8260  2.1361
   92GLOH    C2 9460   3.314   9.712   0.792 -0.2854  0.3933 -0.3344
   92GLOH   H04 9461   3.355   9.812   0.814  1.6727 -0.9931  2.6782
   92GLOH    O2 9462   3.169   9.703   0.829 -0.3983 -0.0429  0.0742
   92GLOH   H05 9463   3.157   9.685   0.924 -0.0745 -0.4006  0.0467
   92GLOH    C3 9464   3.388   9.608   0.879  0.3263 -0.2883  0.2995
   92GLOH   H06 9465   3.324   9.519   0.872  1.4134 -1.0600  0.0625
   92GLOH   H07 9466   3.397   9.650   0.979  0.5843 -0.5954  0.4076
   92GLOH    O3 9467   3.516   9.568   0.835 -0.2554  0.0577 -0.2213
   92GLOH   H01 9468   3.526   9.609   0.747 -2.0267 -2.2402 -1.5419
   93GLOH   H03 9469   3.636   5.371   0.043 -0.3587 -0.1227 -0.3927
   93GLOH    O1 9470   3.623   5.313   0.120 -1.0357  0.2361 -0.2300
   93GLOH    C1 9471   3.534   5.369   0.216  0.1255 -0.2248  0.6585
   93GLOH   H02 9472   3.470   5.294   0.263  1.2966 -1.0700  0.9265
   93GLOH   H08 9473   3.468   5.436   0.162 -0.4062  0.4423  2.1061
   93GLOH    C2 9474   3.602   5.453   0.324 -0.5425 -0.4308 -0.2310
   93GLOH   H04 9475   3.650   5.532   0.265  1.0879 -1.5308 -0.4235
   93GLOH    O2 9476   3.515   5.501   0.431 -0.2162 -0.0615  0.1178
   93GLOH   H05 9477   3.492   5.421   0.482  1.0195  0.0614  0.8932
   93GLOH    C3 9478   3.718   5.376   0.392 -0.4725 -0.3182  0.3216
   93GLOH   H06 9479   3.761   5.435   0.473 -0.8130  2.2183 -1.2945
   93GLOH   H07 9480   3.800   5.369   0.321 -0.0208  2.7321  0.4770
   93GLOH    O3 9481   3.682   5.249   0.444 -0.3540 -0.3359  0.0213
   93GLOH   H01 9482   3.590   5.249   0.476  0.2573  1.5505  1.8490
   94GLOH   H03 9483   3.322  10.253   0.582 -0.5327  0.3758 -1.5852
   94GLOH    O1 9484   3.341  10.348   0.591  0.4067  0.0240  0.5128
   94GLOH    C1 9485   3.338  10.410   0.466  0.1193  0.0214 -0.3182
   94GLOH   H02 9486   3.244  10.385   0.417  0.7353 -3.4630  0.1795
   94GLOH   H08 9487   3.421  10.374   0.404  1.2465  3.0349 -0.6472
   94GLOH    C2 9488   3.335  10.565   0.481 -0.4930 -0.3934  0.7856
   94GLOH   H04 9489   3.393  10.595   0.570  1.9549 -1.6914 -0.3160
   94GLOH    O2 9490   3.395  10.623   0.365 -0.2713  0.2477 -0.6259
   94GLOH   H05 9491   3.428  10.709   0.393  0.4101 -0.5807  1.2248
   94GLOH    C3 9492   3.196  10.609   0.519  0.1973 -0.8062  0.4563
   94GLOH   H06 9493   3.129  10.600   0.434 -0.1212 -0.2044  0.6423
   94GLOH   H07 9494   3.193  10.714   0.547 -0.0578 -1.0576  1.4051
   94GLOH    O3 9495   3.151  10.536   0.633  0.1685 -0.4239 -0.1561
   94GLOH   H01 9496   3.203  10.454   0.639 -1.1187 -1.3342 -1.0814
   95GLOH   H03 9497   4.465   4.142   0.742 -0.9299  0.9700  0.7538
   95GLOH    O1 9498   4.392   4.082   0.768 -0.6151 -0.0271 -0.6009
   95GLOH    C1 9499   4.323   4.023   0.658  0.4331 -0.8016 -0.2893
   95GLOH   H02 9500   4.266   4.104   0.612  2.1711  1.5268  1.5399
   95GLOH   H08 9501   4.239   3.958   0.680  0.0947 -1.1834 -2.5559
   95GLOH    C2 9502   4.401   3.951   0.545 -0.3912  0.1035 -0.4413
   95GLOH   H04 9503   4.333   3.908   0.470 -0.5618 -0.6919  0.1660
   95GLOH    O2 9504   4.492   4.039   0.473 -0.4286  0.2201 -0.4811
   95GLOH   H05 9505   4.463   4.131   0.465 -0.0625  0.1016 -3.4672
   95GLOH    C3 9506   4.481   3.835   0.603 -0.2407 -0.1491 -0.5704
   95GLOH   H06 9507   4.559   3.871   0.670  0.1000  0.0322 -1.0625
   95GLOH   H07 9508   4.531   3.786   0.520  1.5226  2.2386 -0.9629
   95GLOH    O3 9509   4.392   3.737   0.661  0.2377  0.4075 -0.5064
   95GLOH   H01 9510   4.346   3.779   0.736 -0.2216  1.1159 -1.1694
   96GLOH   H03 9511   3.324   8.706   0.852  0.3204 -2.4245  0.6809
   96GLOH    O1 9512   3.342   8.656   0.770 -0.3368 -0.4655 -0.6998
   96GLOH    C1 9513   3.480   8.692   0.745 -0.9914  0.0023 -0.2196
   96GLOH   H02 9514   3.543   8.638   0.815 -0.1032  1.7682  0.3576
   96GLOH   H08 9515   3.513   8.795   0.755 -1.4438 -0.0017  1.4298
   96GLOH    C2 9516   3.529   8.633   0.606  0.0141  0.0917  0.1301
   96GLOH   H04 9517   3.475   8.682   0.524  4.7369  3.1750 -1.3113
   96GLOH    O2 9518   3.673   8.658   0.577 -0.2402 -0.0723  0.3646
   96GLOH   H05 9519   3.693   8.613   0.493 -2.2105  1.4747 -0.9922
   96GLOH    C3 9520   3.498   8.482   0.612 -0.2567  0.5201 -0.5355
   96GLOH   H06 9521   3.547   8.421   0.688 -1.1952 -0.0000 -0.3379
   96GLOH   H07 9522   3.538   8.437   0.521  0.1731 -1.9178  0.7883
   96GLOH    O3 9523   3.364   8.457   0.610 -0.6320 -0.4304 -0.2945
   96GLOH   H01 9524   3.327   8.508   0.684  0.9290  1.5852 -0.8617
   97GLOH   H03 9525   3.484   1.641   1.599 -0.7778 -2.6833 -0.8590
   97GLOH    O1 9526   3.465   1.696   1.521  0.1659 -0.2973  0.5445
   97GLOH    C1 9527   3.345   1.765   1.548 -0.8743 -0.0751  0.3772
   97GLOH   H02 9528   3.263   1.697   1.525  0.0291 -1.6825  1.7715
   97GLOH   H08 9529   3.342   1.851   1.481  0.7552 -0.7046 -0.5269
   97GLOH    C2 9530   3.328   1.792   1.707  0.5751 -0.3091  0.6346
   97GLOH   H04 9531   3.390   1.879   1.730 -1.0798  0.9514  0.4689
   97GLOH    O2 9532   3.188   1.822   1.732 -0.8604 -0.1636  0.5179
   97GLOH   H05 9533   3.131   1.754   1.693  0.4483 -0.6045 -0.6625
   97GLOH    C3 9534   3.384   1.674   1.790 -0.7164  0.4895 -0.5700
   97GLOH   H06 9535   3.322   1.585   1.782  1.6592 -1.1761 -1.2247
   97GLOH   H07 9536   3.382   1.702   1.896  1.7677 -0.1936 -0.2979
   97GLOH    O3 9537   3.522   1.640   1.764  0.2238 -0.0195  0.8022
   97GLOH   H01 9538   3.578   1.698   1.818  2.2529 -1.5448  0.4029
   98GLOH   H03 9539   4.450   3.348   1.223  0.6453  0.1137  0.7529
   98GLOH    O1 9540   4.403   3.293   1.288 -0.3992  0.2405  0.1126
   98GLOH    C1 9541   4.264   3.318   1.274 -0.5350  0.9325 -0.6566
   98GLOH   H02 9542   4.238   3.382   1.358 -0.0589  0.7039 -0.3330
   98GLOH   H08 9543   4.210   3.226   1.299 -1.1510  1.8081  1.3422
   98GLOH    C2 9544   4.219   3.372   1.133 -0.2178 -0.4735 -0.0876
   98GLOH   H04 9545   4.260   3.296   1.065 -0.1462 -1.6087  1.2119
   98GLOH    O2 9546   4.072   3.404   1.113 -0.3115  0.6115 -0.4644
   98GLOH   H05 9547   4.044   3.353   1.035 -1.0182  0.2768  0.0108
   98GLOH    C3 9548   4.293   3.504   1.100  0.4897 -0.8671  0.4077
   98GLOH   H06 9549   4.272   3.580   1.175 -0.1348 -1.4326  0.8136
   98GLOH   H07 9550   4.249   3.536   1.006 -0.8006 -2.2137  0.5297
   98GLOH    O3 9551   4.435   3.498   1.096  0.2681  0.5367  0.1636
   98GLOH   H01 9552   4.454   3.493   1.001  0.0484  0.9108  0.1021
   99GLOH   H03 9553   3.745   1.531   0.240 -0.3215  1.0230  1.1975
   99GLOH    O1 9554   3.792   1.453   0.274  0.2595  0.7469 -0.1843
   99GLOH    C1 9555   3.806   1.351   0.179 -0.3964 -0.1950  0.4450
   99GLOH   H02 9556   3.725   1.280   0.187  0.7052 -1.2891  2.0829
   99GLOH   H08 9557   3.897   1.294   0.196  0.1825  0.3037 -0.8359
   99GLOH    C2 9558   3.812   1.416   0.039  0.5609 -0.4803  0.1012
   99GLOH   H04 9559   3.884   1.499   0.042 -0.1903  0.2242 -0.9509
   99GLOH    O2 9560   3.860   1.324  -0.063 -0.0946 -1.1814  0.3231
   99GLOH   H05 9561   3.942   1.284  -0.029 -0.5021  0.0292  2.8662
   99GLOH    C3 9562   3.678   1.488   0.001  0.0987 -0.4727  0.2966
   99GLOH   H06 9563   3.590   1.424   0.016 -0.4237  0.1364 -0.1628
   99GLOH   H07 9564   3.682   1.519  -0.104  0.3381 -1.7821 -0.1027
   99GLOH    O3 9565   3.658   1.594   0.098 -0.1447 -0.3552  0.5615
   99GLOH   H01 9566   3.574   1.637   0.076 -0.4750 -1.3823 -0.2415
  100GLOH   H03 9567   3.711   9.838   0.640  1.0332  0.4288 -4.2012
  100GLOH    O1 9568   3.695   9.933   0.654  0.3354 -0.2083 -0.2111
  100GLOH    C1 9569   3.767  10.004   0.555  0.6759  0.3152 -0.2060
  100GLOH   H02 9570   3.855   9.947   0.525  0.5326  0.0291 -0.0794
  100GLOH   H08 9571   3.798  10.096   0.604  1.8148  0.0028 -0.3071
  100GLOH    C2 9572   3.678  10.033   0.436  0.2622 -0.5880 -0.4424
  100GLOH   H04 9573   3.618  10.122   0.458  1.5467 -0.3098  2.1069
  100GLOH    O2 9574   3.770  10.062   0.332 -0.1089 -0.9884 -0.4990
  100GLOH   H05 9575   3.724  10.132   0.283  0.2564 -1.7797 -1.9872
  100GLOH    C3 9576   3.581   9.915   0.410  0.2378  0.8339 -0.1437
  100GLOH   H06 9577   3.505   9.942   0.336  0.6491 -0.7366 -1.1734
  100GLOH   H07 9578   3.523   9.898   0.500  1.1742 -0.5442  0.2237
  100GLOH    O3 9579   3.652   9.796   0.374  0.3370 -0.6765  0.4386
  100GLOH   H01 9580   3.732   9.823   0.325 -0.7618  2.6141  0.3721
  101GLOH   H03 9581   2.672   9.505   0.973  0.5910  1.5626  0.2515
  101GLOH    O1 9582   2.696   9.491   0.879 -0.2002 -0.4353  0.3336
  101GLOH    C1 9583   2.792   9.383   0.859  0.6605 -0.5618 -0.4114
  101GLOH   H02 9584   2.767   9.327   0.770 -0.0988 -0.7747 -0.0638
  101GLOH   H08 9585   2.784   9.317   0.945  0.6984  1.8477  1.5139
  101GLOH    C2 9586   2.935   9.439   0.856  0.1228 -0.0048 -0.1063
  101GLOH   H04 9587   2.937   9.516   0.934  0.2682 -0.9018  0.7873
  101GLOH    O2 9588   3.032   9.332   0.875 -0.2400 -0.1411  0.5166
  101GLOH   H05 9589   3.047   9.320   0.970 -0.4624  0.0894  0.5818
  101GLOH    C3 9590   2.960   9.504   0.717  0.2113 -0.1297  0.3144
  101GLOH   H06 9591   2.941   9.426   0.643  1.5470 -0.2382  0.0786
  101GLOH   H07 9592   3.065   9.530   0.703  0.3645 -1.0472 -0.3190
  101GLOH    O3 9593   2.867   9.613   0.691 -0.6277 -0.3561 -0.1107
  101GLOH   H01 9594   2.791   9.604   0.751 -0.0967 -2.4402  0.3083
  102GLOH   H03 9595   2.837   3.602   0.318  0.8711  0.7077 -0.0813
  102GLOH    O1 9596   2.771   3.642   0.379  0.2801 -0.0507 -0.2123
  102GLOH    C1 9597   2.831   3.765   0.436 -0.3580  0.6108  0.0787
  102GLOH   H02 9598   2.806   3.847   0.369  1.5520  0.3765 -0.9629
  102GLOH   H08 9599   2.940   3.755   0.435 -0.4500 -1.5259  2.9516
  102GLOH    C2 9600   2.789   3.793   0.581  0.0458  0.6172  0.0647
  102GLOH   H04 9601   2.820   3.709   0.646 -0.6052  0.6997  0.4910
  102GLOH    O2 9602   2.831   3.920   0.631  0.1163 -0.2688 -0.1457
  102GLOH   H05 9603   2.928   3.912   0.629  0.2090  1.2355 -2.3351
  102GLOH    C3 9604   2.633   3.803   0.583  0.1262  0.0985 -0.4553
  102GLOH   H06 9605   2.611   3.892   0.524 -1.7225 -0.1475 -0.1455
  102GLOH   H07 9606   2.597   3.815   0.685  0.9749  1.6399 -0.3178
  102GLOH    O3 9607   2.576   3.690   0.523 -0.4290  0.4495  1.0930
  102GLOH   H01 9608   2.633   3.655   0.452 -2.4175 -0.4770 -0.0938
  103GLOH   H03 9609   4.078   2.533   0.468 -0.0394 -0.1145  1.0480
  103GLOH    O1 9610   4.098   2.457   0.411  0.2201  0.6035  0.1780
  103GLOH    C1 9611   4.069   2.508   0.277 -0.6074 -0.5187  0.3649
  103GLOH   H02 9612   3.971   2.555   0.280  0.6988  2.2613  0.5735
  103GLOH   H08 9613   4.067   2.430   0.200  0.4890  0.5212 -0.7518
  103GLOH    C2 9614   4.168   2.624   0.240  0.2830 -0.3653 -0.0167
  103GLOH   H04 9615   4.264   2.572   0.257  0.8625  1.0539  1.1767
  103GLOH    O2 9616   4.151   2.661   0.104 -0.1361 -0.2072  0.4024
  103GLOH   H05 9617   4.054   2.658   0.091  0.3297 -0.4321 -3.7570
  103GLOH    C3 9618   4.168   2.746   0.331 -0.0002  0.2274 -0.2440
  103GLOH   H06 9619   4.080   2.804   0.304  1.0267  1.3313 -1.3121
  103GLOH   H07 9620   4.247   2.814   0.300  0.0935  1.1090  1.8333
  103GLOH    O3 9621   4.169   2.718   0.476  0.3115 -0.5719  0.0087
  103GLOH   H01 9622   4.125   2.787   0.528  3.5334  0.3655  1.6519
  104GLOH   H03 9623   4.433   4.111   2.679 -1.2246  0.2986 -0.5479
  104GLOH    O1 9624   4.449   4.126   2.584  0.6599  0.1910 -0.2575
  104GLOH    C1 9625   4.590   4.149   2.564  0.3063  0.8306 -0.8380
  104GLOH   H02 9626   4.651   4.060   2.577  1.6327  1.9374  0.6635
  104GLOH   H08 9627   4.631   4.222   2.634 -2.4077  1.2266  0.4006
  104GLOH    C2 9628   4.625   4.177   2.419 -0.2616  0.4012 -0.4977
  104GLOH   H04 9629   4.571   4.268   2.391 -1.6248 -0.4848 -0.8202
  104GLOH    O2 9630   4.769   4.203   2.414 -0.0993 -0.0448 -0.2395
  104GLOH   H05 9631   4.807   4.211   2.503  0.2605  1.4529 -0.4972
  104GLOH    C3 9632   4.574   4.065   2.326 -0.2555  0.7823 -0.0808
  104GLOH   H06 9633   4.478   4.026   2.358 -0.1693  0.3091 -0.3967
  104GLOH   H07 9634   4.635   3.976   2.341  0.8172  1.3045 -1.3032
  104GLOH    O3 9635   4.566   4.105   2.191  0.1900 -0.5061  0.2666
  104GLOH   H01 9636   4.631   4.176   2.177 -0.8165  0.1500 -1.1331
  105GLOH   H03 9637   3.859   2.949   0.958  1.5590  1.2755  0.9892
  105GLOH    O1 9638   3.914   2.955   0.877 -0.0338  0.9924 -0.1482
  105GLOH    C1 9639   3.846   3.044   0.789 -0.1388 -0.1787 -0.0038
  105GLOH   H02 9640   3.777   2.988   0.727  2.8548 -2.3743 -1.5130
  105GLOH   H08 9641   3.916   3.092   0.721  1.8226  0.2145  2.2087
  105GLOH    C2 9642   3.770   3.168   0.849  0.1320  0.4596  0.2763
  105GLOH   H04 9643   3.757   3.231   0.761 -1.1562 -0.7821 -0.4517
  105GLOH    O2 9644   3.644   3.126   0.905  0.0975  0.2159  0.3869
  105GLOH   H05 9645   3.654   3.078   0.989 -0.1161  1.2808  1.0350
  105GLOH    C3 9646   3.859   3.234   0.954 -0.2051 -0.5313 -0.6646
  105GLOH   H06 9647   3.879   3.176   1.044  1.3340  0.0056 -0.6428
  105GLOH   H07 9648   3.801   3.320   0.989  2.2659  0.4879  1.0490
  105GLOH    O3 9649   3.979   3.291   0.905  0.3974 -0.3279 -0.0089
  105GLOH   H01 9650   3.979   3.280   0.808  0.3421 -0.4090  0.0000
  106GLOH   H03 9651   4.043   1.188   2.005 -1.4013  1.1239  0.6614
  106GLOH    O1 9652   4.043   1.158   2.097 -0.1008  0.1969  0.3722
  106GLOH    C1 9653   3.927   1.209   2.164  0.4911  0.0861  0.7127
  106GLOH   H02 9654   3.838   1.147   2.157 -0.9754  2.3172 -0.8000
  106GLOH   H08 9655   3.896   1.307   2.128 -1.2152  0.0398  1.9760
  106GLOH    C2 9656   3.953   1.240   2.312  0.2384  0.1040  0.2751
  106GLOH   H04 9657   4.035   1.314   2.317 -0.9236  1.4120  0.2981
  106GLOH    O2 9658   3.837   1.297   2.385  0.0851  0.8176  0.0874
  106GLOH   H05 9659   3.862   1.326   2.475  0.7011 -3.1175  1.2575
  106GLOH    C3 9660   4.006   1.118   2.393  0.2723  0.5001 -0.4237
  106GLOH   H06 9661   4.030   1.157   2.492 -1.5484  1.0961 -0.2147
  106GLOH   H07 9662   4.098   1.082   2.347  0.1896 -0.7179  0.3399
  106GLOH    O3 9663   3.913   1.004   2.407 -0.1654  0.0774  0.5642
  106GLOH   H01 9664   3.928   0.938   2.337  4.2235  0.4099  1.0336
  107GLOH   H03 9665   3.205   4.742   1.284 -0.2158  0.9460  0.7473
  107GLOH    O1 9666   3.191   4.685   1.362 -0.1772 -0.1283 -0.0176
  107GLOH    C1 9667   3.231   4.766   1.472  0.0212  0.2572 -0.1682
  107GLOH   H02 9668   3.172   4.857   1.483  1.0550  0.9818 -0.5929
  107GLOH   H08 9669   3.336   4.793   1.456 -0.2630  1.8321  0.4959
  107GLOH    C2 9670   3.228   4.674   1.598  0.4026 -0.2653  0.0430
  107GLOH   H04 9671   3.306   4.597   1.592  0.8936  0.3153 -1.2343
  107GLOH    O2 9672   3.267   4.744   1.717 -0.0888  0.0695  0.2912
  107GLOH   H05 9673   3.363   4.735   1.730  0.1667  1.8856 -0.1130
  107GLOH    C3 9674   3.096   4.601   1.612 -0.1145 -0.1296  0.3256
  107GLOH   H06 9675   3.100   4.532   1.696  0.4207 -0.5309 -0.0281
  107GLOH   H07 9676   3.070   4.544   1.523  0.5326 -0.4114  0.3204
  107GLOH    O3 9677   2.985   4.696   1.630 -0.0625 -0.0484 -0.3451
  107GLOH   H01 9678   2.899   4.657   1.657  0.1691 -0.4045 -0.1161
  108GLOH   H03 9679   3.960   3.523   1.109  0.9334  1.8347 -0.6271
  108GLOH    O1 9680   3.886   3.572   1.149  0.3398  0.0812  0.4531
  108GLOH    C1 9681   3.791   3.598   1.045  0.1026  0.2354 -0.1523
  108GLOH   H02 9682   3.730   3.683   1.073  1.2263  0.6880  0.9759
  108GLOH   H08 9683   3.719   3.517   1.051 -0.6575  0.8235 -1.1757
  108GLOH    C2 9684   3.849   3.616   0.906  0.3263  0.3507 -0.1726
  108GLOH   H04 9685   3.905   3.524   0.883 -0.1447  0.2519 -0.9142
  108GLOH    O2 9686   3.738   3.633   0.814  0.1550  0.5311 -0.1213
  108GLOH   H05 9687   3.749   3.579   0.734  0.3475  2.2193 -1.2577
  108GLOH    C3 9688   3.949   3.734   0.887 -0.2707  0.1599 -0.2964
  108GLOH   H06 9689   3.889   3.826   0.888 -0.9101 -0.2562  0.9154
  108GLOH   H07 9690   3.994   3.744   0.789 -0.2053 -2.1507 -0.5173
  108GLOH    O3 9691   4.067   3.731   0.974  0.0627  0.5618  0.2789
  108GLOH   H01 9692   4.048   3.768   1.062  3.4994  1.1139  0.8332
  109GLOH   H03 9693   3.355   3.657   0.217  0.5288 -4.1075  2.2093
  109GLOH    O1 9694   3.411   3.708   0.279 -0.6064  0.2053 -0.1089
  109GLOH    C1 9695   3.325   3.803   0.342  0.0380  0.1689  0.1868
  109GLOH   H02 9696   3.375   3.899   0.328  1.5432 -0.5823  0.4028
  109GLOH   H08 9697   3.328   3.785   0.450  2.2834  0.7330  0.2340
  109GLOH    C2 9698   3.175   3.794   0.302 -0.5668 -0.2438  0.2177
  109GLOH   H04 9699   3.130   3.712   0.361  0.5435  0.1293  1.6215
  109GLOH    O2 9700   3.111   3.919   0.330 -0.0274  0.6042  0.0845
  109GLOH   H05 9701   3.093   3.929   0.425 -0.6639  0.0753  0.0228
  109GLOH    C3 9702   3.163   3.757   0.154  0.4697 -0.4305 -0.2684
  109GLOH   H06 9703   3.204   3.835   0.090 -1.8732  1.4012  0.3921
  109GLOH   H07 9704   3.055   3.755   0.141  0.6622 -1.4430 -1.9039
  109GLOH    O3 9705   3.210   3.625   0.129 -0.6825  0.4868 -0.4174
  109GLOH   H01 9706   3.216   3.600   0.035 -0.2908  1.1288 -0.5650
  110GLOH   H03 9707   3.186   0.576   2.402  0.8708  1.3205 -0.1813
  110GLOH    O1 9708   3.270   0.556   2.446  0.6812 -0.1882 -0.4913
  110GLOH    C1 9709   3.382   0.614   2.370 -0.4835  0.1569  0.1523
  110GLOH   H02 9710   3.396   0.718   2.399  1.2400  0.2940 -1.1205
  110GLOH   H08 9711   3.369   0.610   2.262  2.0552  0.1870 -0.1908
  110GLOH    C2 9712   3.520   0.551   2.403  0.9812 -0.1146  0.7284
  110GLOH   H04 9713   3.586   0.571   2.318 -0.2754  3.9502  0.6085
  110GLOH    O2 9714   3.578   0.620   2.514 -0.2740 -0.1393  0.1923
  110GLOH   H05 9715   3.614   0.706   2.487  0.1066 -0.5626 -0.6843
  110GLOH    C3 9716   3.522   0.399   2.424 -0.5049 -0.4097  0.2472
  110GLOH   H06 9717   3.438   0.374   2.488 -0.2188  0.5790  1.0315
  110GLOH   H07 9718   3.606   0.368   2.486  0.1394  0.2515 -0.2812
  110GLOH    O3 9719   3.524   0.324   2.299 -0.3313 -0.1726 -0.1550
  110GLOH   H01 9720   3.606   0.272   2.296  1.1638  2.1235 -0.5501
  111GLOH   H03 9721   3.818   3.381   1.440  1.4329 -1.0890 -1.6856
  111GLOH    O1 9722   3.793   3.290   1.465 -0.1889 -0.2221 -0.0869
  111GLOH    C1 9723   3.662   3.313   1.523 -1.0047 -0.0385  0.1759
  111GLOH   H02 9724   3.589   3.272   1.452  2.8248 -0.7523 -3.5869
  111GLOH   H08 9725   3.655   3.417   1.552 -1.4735  0.1483 -0.6048
  111GLOH    C2 9726   3.643   3.237   1.655  0.4250  0.1470  0.1579
  111GLOH   H04 9727   3.710   3.284   1.728 -2.4987  1.3289  2.1720
  111GLOH    O2 9728   3.505   3.258   1.703  0.1379  0.3154 -0.2060
  111GLOH   H05 9729   3.510   3.266   1.800  2.5068  0.4479 -0.3202
  111GLOH    C3 9730   3.679   3.092   1.650  0.1900  0.3047 -0.4638
  111GLOH   H06 9731   3.656   3.066   1.753 -1.5360 -0.4015 -1.0042
  111GLOH   H07 9732   3.788   3.087   1.646  0.2288  1.1620 -0.6621
  111GLOH    O3 9733   3.602   3.028   1.549  0.2589 -0.3074 -0.0445
  111GLOH   H01 9734   3.520   3.000   1.592  1.2126 -1.5365  1.0239
  112GLOH   H03 9735   2.727   8.194   0.125 -1.8669 -1.3792  1.9408
  112GLOH    O1 9736   2.781   8.115   0.141  0.3481 -0.5008 -0.7889
  112GLOH    C1 9737   2.833   8.137   0.274 -0.7314  0.4213  0.1521
  112GLOH   H02 9738   2.854   8.041   0.320 -1.0066 -0.6936 -2.0196
  112GLOH   H08 9739   2.761   8.187   0.339  0.7454  0.2179  2.0101
  112GLOH    C2 9740   2.967   8.217   0.268  0.6389 -0.2828  0.6581
  112GLOH   H04 9741   2.951   8.309   0.210 -0.6832  0.0502  1.5420
  112GLOH    O2 9742   3.007   8.247   0.401  0.2321 -0.3230 -0.4959
  112GLOH   H05 9743   2.964   8.330   0.425 -0.3460 -0.4840 -0.9527
  112GLOH    C3 9744   3.068   8.131   0.191  0.2077 -0.7762 -0.4602
  112GLOH   H06 9745   3.035   8.126   0.087  2.0854 -2.6309 -1.0035
  112GLOH   H07 9746   3.066   8.031   0.234 -2.8299 -0.8534 -0.6485
  112GLOH    O3 9747   3.201   8.190   0.181  0.2705 -0.3691 -0.6454
  112GLOH   H01 9748   3.230   8.207   0.272 -0.2378 -1.5452 -0.2500
  113GLOH   H03 9749   3.402   1.356   2.096 -0.0408  0.2893  0.4545
  113GLOH    O1 9750   3.336   1.331   2.029 -0.1007  0.6307  0.3869
  113GLOH    C1 9751   3.412   1.327   1.904  0.2336  0.2083  0.0212
  113GLOH   H02 9752   3.484   1.407   1.893  0.4499 -0.0291 -0.3086
  113GLOH   H08 9753   3.345   1.337   1.818  1.7374  1.5873 -1.0001
  113GLOH    C2 9754   3.480   1.195   1.869 -0.3005  0.2817  0.1639
  113GLOH   H04 9755   3.414   1.107   1.876  2.3285 -1.6389  1.8736
  113GLOH    O2 9756   3.540   1.213   1.735  0.5230  0.0070 -0.6179
  113GLOH   H05 9757   3.491   1.281   1.686 -1.7380 -0.7382  0.5545
  113GLOH    C3 9758   3.597   1.175   1.969 -0.3859 -0.1852 -0.3281
  113GLOH   H06 9759   3.554   1.197   2.067  2.8393  1.2583  0.8376
  113GLOH   H07 9760   3.675   1.248   1.946 -0.1306 -0.2135  0.4580
  113GLOH    O3 9761   3.663   1.046   1.967 -0.3899  0.1787 -0.1844
  113GLOH   H01 9762   3.600   0.985   2.010 -1.4080  1.0805 -0.3772
  114GLOH   H03 9763   2.416   2.811   1.412  1.9007 -1.7900  0.1770
  114GLOH    O1 9764   2.407   2.732   1.356 -0.5528 -0.8881 -0.7723
  114GLOH    C1 9765   2.299   2.745   1.267 -0.6723  0.5823 -0.7491
  114GLOH   H02 9766   2.227   2.825   1.287 -1.3249  0.0970 -1.1364
  114GLOH   H08 9767   2.243   2.653   1.282  0.0393  0.0741 -1.1856
  114GLOH    C2 9768   2.335   2.754   1.121 -0.4565 -0.3426 -0.3012
  114GLOH   H04 9769   2.239   2.749   1.069 -0.9723 -2.7455  0.8205
  114GLOH    O2 9770   2.401   2.877   1.080  0.0487  0.7457 -0.0389
  114GLOH   H05 9771   2.493   2.878   1.111  0.7803  1.1940 -2.1270
  114GLOH    C3 9772   2.416   2.642   1.069 -0.2383 -0.1426  0.0899
  114GLOH   H06 9773   2.514   2.641   1.117 -0.7162 -0.1612  1.0740
  114GLOH   H07 9774   2.441   2.659   0.964  1.1246 -2.0022  0.0892
  114GLOH    O3 9775   2.349   2.521   1.082  0.7506  0.1655  0.8223
  114GLOH   H01 9776   2.401   2.461   1.025 -0.1304  1.2579 -1.1898
  115GLOH   H03 9777   3.965   4.675   2.400 -0.4422  1.4545  0.9502
  115GLOH    O1 9778   3.950   4.750   2.340 -0.1400  0.2518 -0.6559
  115GLOH    C1 9779   4.038   4.860   2.362 -0.3141 -0.7362  0.3799
  115GLOH   H02 9780   3.987   4.943   2.411 -0.9207  0.1183 -1.6384
  115GLOH   H08 9781   4.055   4.908   2.266 -1.4651  0.8924  0.9676
  115GLOH    C2 9782   4.174   4.836   2.441  0.3642 -0.0099 -0.7585
  115GLOH   H04 9783   4.247   4.918   2.433 -0.2073  0.3560 -2.2807
  115GLOH    O2 9784   4.148   4.807   2.584  0.5937  0.1600 -0.2117
  115GLOH   H05 9785   4.088   4.874   2.621  0.1137 -1.1558  1.4799
  115GLOH    C3 9786   4.257   4.713   2.384  0.3859 -0.6631 -0.1640
  115GLOH   H06 9787   4.204   4.624   2.417  0.0195  0.6400  2.9612
  115GLOH   H07 9788   4.354   4.724   2.434  1.4590 -0.2609 -2.2781
  115GLOH    O3 9789   4.271   4.728   2.238 -0.2334 -0.3059  0.0595
  115GLOH   H01 9790   4.335   4.663   2.202  2.0355  3.3647 -2.8867
  116GLOH   H03 9791   2.926   0.780   1.603 -1.2716 -0.1030  3.5542
  116GLOH    O1 9792   2.888   0.695   1.574 -0.0122  0.5587 -0.2309
  116GLOH    C1 9793   2.865   0.620   1.700 -0.0062 -0.5978  0.6027
  116GLOH   H02 9794   2.769   0.651   1.742 -0.3170 -1.2608  0.3899
  116GLOH   H08 9795   2.933   0.655   1.778 -0.6591  1.1655  0.4044
  116GLOH    C2 9796   2.866   0.468   1.679  0.4636 -0.1902 -0.3722
  116GLOH   H04 9797   2.961   0.437   1.632  1.6039  0.4940  1.4559
  116GLOH    O2 9798   2.860   0.408   1.810  0.5261  0.1683  0.4391
  116GLOH   H05 9799   2.939   0.352   1.824  1.2227  0.7302 -1.1882
  116GLOH    C3 9800   2.748   0.422   1.588  0.1226 -0.7842 -0.0730
  116GLOH   H06 9801   2.655   0.448   1.640  0.8726  1.5614  0.1922
  116GLOH   H07 9802   2.756   0.318   1.558  0.6589 -1.0157  0.8510
  116GLOH    O3 9803   2.744   0.501   1.469 -0.4348 -0.1358  0.3658
  116GLOH   H01 9804   2.785   0.586   1.496  0.7009 -0.8612  0.9587
  117GLOH   H03 9805   4.420   2.163   2.345 -1.0187 -0.7648 -0.7934
  117GLOH    O1 9806   4.347   2.167   2.410 -0.2524  0.0145  0.0322
  117GLOH    C1 9807   4.392   2.253   2.519 -0.0508 -1.0874  0.1042
  117GLOH   H02 9808   4.479   2.313   2.490 -0.2875 -0.2374  1.1036
  117GLOH   H08 9809   4.426   2.188   2.600  1.3115  0.5591  0.8839
  117GLOH    C2 9810   4.287   2.347   2.583 -0.2872  0.7767 -0.1855
  117GLOH   H04 9811   4.204   2.278   2.606 -1.1252  1.9605  0.3547
  117GLOH    O2 9812   4.327   2.412   2.706  0.1075  0.2864  0.0068
  117GLOH   H05 9813   4.250   2.471   2.714 -1.8118 -1.8561 -1.8925
  117GLOH    C3 9814   4.240   2.454   2.481  0.0249 -0.1850  0.4286
  117GLOH   H06 9815   4.210   2.416   2.384  1.9070  1.6835 -0.9425
  117GLOH   H07 9816   4.320   2.526   2.461 -1.6013  0.6380 -3.4983
  117GLOH    O3 9817   4.127   2.527   2.536 -0.3064 -0.5507  0.5467
  117GLOH   H01 9818   4.106   2.601   2.475  1.7355 -0.3770  0.0102
  118GLOH   H03 9819   3.486   0.680   1.679 -0.8933 -1.6929  1.6052
  118GLOH    O1 9820   3.577   0.656   1.651 -0.9131 -0.0770  0.1041
  118GLOH    C1 9821   3.556   0.627   1.509 -0.1518 -0.6060 -0.4970
  118GLOH   H02 9822   3.552   0.723   1.457  0.2653  0.4493  1.3910
  118GLOH   H08 9823   3.457   0.587   1.489 -0.2971 -0.1924 -0.6209
  118GLOH    C2 9824   3.679   0.552   1.458 -0.0913  0.1059  0.4216
  118GLOH   H04 9825   3.766   0.599   1.506 -1.5824  1.8148  1.5150
  118GLOH    O2 9826   3.694   0.416   1.488 -0.3370  0.5833 -0.0399
  118GLOH   H05 9827   3.621   0.371   1.442 -1.3455  2.2865 -0.1464
  118GLOH    C3 9828   3.698   0.570   1.305 -0.2520 -0.9126 -0.6492
  118GLOH   H06 9829   3.771   0.496   1.270 -1.0351 -2.3890  0.7930
  118GLOH   H07 9830   3.747   0.668   1.298  0.2700 -1.2107 -1.2389
  118GLOH    O3 9831   3.580   0.569   1.224 -0.5256  0.1669  0.2129
  118GLOH   H01 9832   3.526   0.488   1.219 -1.1376  0.5356  0.7506
  119GLOH   H03 9833   4.223   1.560   0.265  0.0323  0.3748  0.9717
  119GLOH    O1 9834   4.290   1.622   0.231 -0.1652  0.0179 -0.1001
  119GLOH    C1 9835   4.355   1.682   0.342  0.1225 -0.5387 -0.3554
  119GLOH   H02 9836   4.401   1.776   0.311 -1.2027  0.0858 -0.4728
  119GLOH   H08 9837   4.438   1.622   0.379 -0.6841 -1.7234 -0.4414
  119GLOH    C2 9838   4.272   1.734   0.463  0.4705  0.6902 -0.1175
  119GLOH   H04 9839   4.218   1.647   0.505  2.4122  0.1418  1.3211
  119GLOH    O2 9840   4.359   1.799   0.561  0.1607  0.1947 -0.0116
  119GLOH   H05 9841   4.327   1.883   0.598 -1.2559 -0.4098  0.1811
  119GLOH    C3 9842   4.165   1.842   0.423  0.4578 -0.0375 -0.4244
  119GLOH   H06 9843   4.213   1.902   0.346  0.9124 -0.0886 -0.1810
  119GLOH   H07 9844   4.155   1.915   0.504 -0.8152  0.3703 -0.9411
  119GLOH    O3 9845   4.039   1.786   0.383 -0.0222 -0.1890 -0.2094
  119GLOH   H01 9846   4.051   1.758   0.290  0.2901  0.4104 -0.3521
  120GLOH   H03 9847   2.467   3.844   1.416 -0.7934 -1.5701  1.2491
  120GLOH    O1 9848   2.412   3.802   1.348  0.1716 -0.4953 -0.2175
  120GLOH    C1 9849   2.456   3.671   1.328  0.1700 -0.2154  0.1775
  120GLOH   H02 9850   2.423   3.633   1.231  1.1025  3.3091 -1.6110
  120GLOH   H08 9851   2.418   3.602   1.403 -0.5845 -0.2246 -0.2151
  120GLOH    C2 9852   2.611   3.669   1.313 -0.1199  0.0651  0.0458
  120GLOH   H04 9853   2.630   3.732   1.225  0.9815  1.8173  1.5032
  120GLOH    O2 9854   2.680   3.701   1.433  0.2244 -0.5256 -0.2034
  120GLOH   H05 9855   2.745   3.768   1.406 -0.9996  0.8059  0.0832
  120GLOH    C3 9856   2.656   3.525   1.267 -0.2003  0.7379 -0.5495
  120GLOH   H06 9857   2.633   3.456   1.348  0.1399  1.1623 -0.0901
  120GLOH   H07 9858   2.763   3.528   1.250 -0.3391 -2.3326 -2.2835
  120GLOH    O3 9859   2.594   3.477   1.146 -0.0082 -0.2786  0.2446
  120GLOH   H01 9860   2.637   3.507   1.064 -0.7039  4.7726  1.5610
  121ACOH    H4 9861   4.667   1.735   0.480  0.1268 -1.0511  0.1503
  121ACOH    O2 9862   4.705   1.678   0.410 -0.0037 -0.4077 -0.4543
  121ACOH    C2 9863   4.833   1.712   0.406 -0.1402  0.2041 -0.0817
  121ACOH    O1 9864   4.887   1.789   0.482  0.7940  0.0119 -0.2060
  121ACOH    C1 9865   4.896   1.647   0.292 -0.2981  0.2315  0.6559
  121ACOH    H1 9866   4.870   1.696   0.198  0.7621 -1.4118 -0.5307
  121ACOH    H2 9867   4.869   1.542   0.280 -1.0930  0.3129  1.7557
  121ACOH    H3 9868   5.005   1.636   0.298 -0.1152  1.7220  0.1966
  122ACOH    H4 9869   3.976   8.376   0.573  0.3302 -1.7398  0.2780
  122ACOH    O2 9870   4.027   8.313   0.519  0.6700 -0.8411 -0.4788
  122ACOH    C2 9871   3.998   8.335   0.387 -0.4064 -0.3422 -0.3305
  122ACOH    O1 9872   3.921   8.418   0.343  0.3036  0.3736  0.2130
  122ACOH    C1 9873   4.072   8.249   0.291  0.1644 -0.1275 -0.1626
  122ACOH    H1 9874   4.122   8.173   0.351 -1.3006 -1.0170 -0.0170
  122ACOH    H2 9875   4.151   8.301   0.238 -1.7067  3.8850  0.7879
  122ACOH    H3 9876   3.995   8.207   0.226 -0.8622  0.5336  0.6053
  123ACOH    H4 9877   2.255   2.024   1.815  0.2152  0.2674 -0.5217
  123ACOH    O2 9878   2.169   1.979   1.805  0.0117  0.5904 -0.2324
  123ACOH    C2 9879   2.160   1.886   1.906  0.2110  0.0139 -0.5136
  123ACOH    O1 9880   2.252   1.838   1.965  0.4276  0.3529 -0.4851
  123ACOH    C1 9881   2.029   1.817   1.895  0.2114  0.3011  0.5928
  123ACOH    H1 9882   2.035   1.775   1.795  1.2474  1.5191  0.1245
  123ACOH    H2 9883   1.948   1.890   1.894  0.4151  0.6293  3.1471
  123ACOH    H3 9884   2.021   1.745   1.976  0.2465  0.8078  1.0551
  124ACOH    H4 9885   4.292   2.947   2.521  0.7215 -0.8785  0.3977
  124ACOH    O2 9886   4.308   2.982   2.610  0.1304 -0.4602  0.3352
  124ACOH    C2 9887   4.443   2.963   2.632  0.5008 -0.2359  0.4457
  124ACOH    O1 9888   4.521   2.949   2.536  0.2488 -0.3180  0.0036
  124ACOH    C1 9889   4.477   3.027   2.761 -0.5426 -0.5680 -0.7032
  124ACOH    H1 9890   4.583   3.012   2.784 -0.7138  1.2061  1.4614
  124ACOH    H2 9891   4.417   2.972   2.833 -0.7968  0.2006 -0.3183
  124ACOH    H3 9892   4.450   3.132   2.749  0.5246 -0.4083 -1.7751
  125ACOH    H4 9893   5.710   9.360   2.048 -3.9237 -0.0656  1.3833
  125ACOH    O2 9894   5.719   9.437   2.107  0.6083  0.6768 -0.1395
  125ACOH    C2 9895   5.603   9.506   2.097  0.0852  0.1378  0.2544
  125ACOH    O1 9896   5.502   9.464   2.045  0.0647 -0.4884  0.3419
  125ACOH    C1 9897   5.606   9.624   2.183  0.2251 -0.3469  0.3033
  125ACOH    H1 9898   5.633   9.708   2.119 -1.2167 -0.2892 -0.2613
  125ACOH    H2 9899   5.663   9.612   2.275 -1.0484 -0.5011  1.0980
  125ACOH    H3 9900   5.504   9.645   2.216  0.6531  1.4077  0.5880
  126ACOH    H4 9901   3.478   9.674   2.564  2.0324  1.7905  1.1783
  126ACOH    O2 9902   3.531   9.607   2.518 -0.2432  0.8756 -0.2049
  126ACOH    C2 9903   3.488   9.578   2.397  0.1202 -0.3128 -0.1911
  126ACOH    O1 9904   3.404   9.644   2.336  0.5036 -0.2875  0.8066
  126ACOH    C1 9905   3.598   9.524   2.315  0.3594  0.0722 -1.0261
  126ACOH    H1 9906   3.646   9.607   2.264  0.8642  0.6469  0.3439
  126ACOH    H2 9907   3.568   9.462   2.231 -0.0306  1.5232 -1.9766
  126ACOH    H3 9908   3.667   9.466   2.377 -1.8864  0.1918  1.6966
  127ACOH    H4 9909   4.182   1.241   2.144 -0.1145 -0.1503  1.0582
  127ACOH    O2 9910   4.262   1.281   2.181 -0.2080  0.0449  1.0510
  127ACOH    C2 9911   4.250   1.414   2.173 -0.8413  0.1615 -0.6050
  127ACOH    O1 9912   4.166   1.485   2.117 -0.0070  0.9536 -0.4477
  127ACOH    C1 9913   4.375   1.475   2.237  0.0498  0.3146 -0.2876
  127ACOH    H1 9914   4.455   1.444   2.171  1.3090  0.7958  0.9953
  127ACOH    H2 9915   4.388   1.442   2.340 -0.8640 -1.0368 -0.5820
  127ACOH    H3 9916   4.365   1.583   2.244 -0.3444  0.2329  0.5158
  128ACOH    H4 9917   2.311   2.599   0.259 -1.7089 -1.0495  1.8817
  128ACOH    O2 9918   2.252   2.676   0.262 -0.6450 -0.1845  0.7242
  128ACOH    C2 9919   2.130   2.643   0.225  0.4599  0.5102  0.0122
  128ACOH    O1 9920   2.073   2.536   0.219  0.8492  0.3499  0.3454
  128ACOH    C1 9921   2.062   2.769   0.186 -0.2464 -0.4354 -0.5770
  128ACOH    H1 9922   2.060   2.841   0.268 -0.6167 -1.0190 -0.0636
  128ACOH    H2 9923   1.961   2.752   0.149  0.3805 -1.3025 -1.9412
  128ACOH    H3 9924   2.114   2.806   0.098  1.5561  1.8886  1.3825
  129ACOH    H4 9925   2.214   2.329   2.554  0.5521  0.8153 -1.4588
  129ACOH    O2 9926   2.121   2.354   2.564  0.6161  0.4194  0.2246
  129ACOH    C2 9927   2.120   2.486   2.588  0.0855  0.0446 -0.2469
  129ACOH    O1 9928   2.214   2.560   2.602 -0.4322  0.4688 -0.1558
  129ACOH    C1 9929   1.986   2.543   2.585  0.5485 -1.0024 -1.0055
  129ACOH    H1 9930   1.910   2.466   2.598 -0.2551  0.0154  0.4728
  129ACOH    H2 9931   1.959   2.587   2.489 -0.3539  2.1402  0.6315
  129ACOH    H3 9932   1.966   2.619   2.661  0.1673 -1.8132 -0.2913
  130ACOH    H4 9933   5.115   4.075   0.676 -0.5611  0.1474  0.0160
  130ACOH    O2 9934   5.122   4.113   0.588  0.6314 -0.6466 -0.2490
  130ACOH    C2 9935   5.067   4.235   0.597 -0.1598 -0.6805  0.2600
  130ACOH    O1 9936   4.997   4.280   0.689  0.2949 -0.0338  0.3016
  130ACOH    C1 9937   5.095   4.301   0.467 -0.0899 -0.0031  0.1002
  130ACOH    H1 9938   5.066   4.406   0.474  1.3079  0.7628 -4.1366
  130ACOH    H2 9939   5.035   4.258   0.387 -0.3808 -0.8912  0.8009
  130ACOH    H3 9940   5.202   4.295   0.448  0.1688  0.1952  1.4743
  131ACOH    H4 9941   5.063   3.970   1.303  0.2764  1.0443 -0.1650
  131ACOH    O2 9942   5.157   3.960   1.327  0.0194  0.0119  0.4470
  131ACOH    C2 9943   5.219   3.944   1.209  0.6126  0.4840 -0.5949
  131ACOH    O1 9944   5.168   3.948   1.099  0.2125 -0.2546 -0.0620
  131ACOH    C1 9945   5.359   3.914   1.220 -1.1919  0.1755 -0.3962
  131ACOH    H1 9946   5.373   3.825   1.281  0.7209  1.3405  0.9335
  131ACOH    H2 9947   5.412   3.985   1.284 -1.0576  0.1610 -0.4907
  131ACOH    H3 9948   5.411   3.912   1.124  0.4224 -0.5863  0.4716
  132ACOH    H4 9949   4.260   1.495   1.246  0.1375 -0.8567 -0.6091
  132ACOH    O2 9950   4.303   1.422   1.293  0.0688  0.1506  1.0390
  132ACOH    C2 9951   4.424   1.392   1.233 -0.3070 -0.3280  0.3025
  132ACOH    O1 9952   4.456   1.281   1.217  0.2568  0.3571  0.2440
  132ACOH    C1 9953   4.515   1.515   1.217 -0.3146  0.2177 -0.3927
  132ACOH    H1 9954   4.614   1.488   1.181 -0.2145  2.2988 -1.7437
  132ACOH    H2 9955   4.520   1.567   1.312  1.3422  0.9519 -0.8681
  132ACOH    H3 9956   4.477   1.585   1.142  1.3930  2.1525  0.5341
  133ACOH    H4 9957   4.225   5.251   0.775 -0.7045  0.2137 -0.1238
  133ACOH    O2 9958   4.270   5.327   0.813 -0.1141 -0.3787  0.3790
  133ACOH    C2 9959   4.307   5.288   0.938  0.5551 -0.9036 -1.0019
  133ACOH    O1 9960   4.282   5.178   0.984 -0.4242  0.1849 -0.0984
  133ACOH    C1 9961   4.394   5.385   1.009 -0.0928  0.7069  0.2118
  133ACOH    H1 9962   4.411   5.468   0.941  1.2918  2.0400  2.1254
  133ACOH    H2 9963   4.489   5.335   1.032 -0.4098  0.5656  1.2554
  133ACOH    H3 9964   4.341   5.427   1.094 -2.8593  0.7935 -1.5005
  134ACOH    H4 9965   2.963   4.720   0.133 -3.1076  1.3051 -2.3800
  134ACOH    O2 9966   2.932   4.630   0.116 -0.7717  0.0568 -0.3227
  134ACOH    C2 9967   2.982   4.597  -0.002 -0.0096 -0.3559  0.3274
  134ACOH    O1 9968   3.051   4.658  -0.076 -0.3445 -0.1229  0.4522
  134ACOH    C1 9969   2.930   4.465  -0.047 -0.4600 -0.1627  0.1258
  134ACOH    H1 9970   2.842   4.442   0.013 -0.2408  0.6389  0.7721
  134ACOH    H2 9971   2.996   4.383  -0.019 -2.4596 -1.6849  0.4430
  134ACOH    H3 9972   2.916   4.445  -0.153  0.2205  0.4967 -0.0985
  135ACOH    H4 9973   2.178   9.471   0.702  0.4831 -0.2044  0.5343
  135ACOH    O2 9974   2.091   9.434   0.676  0.5673 -0.0979  0.0923
  135ACOH    C2 9975   2.054   9.323   0.742  1.0350  0.3035 -0.1901
  135ACOH    O1 9976   2.121   9.262   0.821 -0.4835  0.3392 -0.0723
  135ACOH    C1 9977   1.930   9.254   0.702  0.2732 -0.2847  0.5867
  135ACOH    H1 9978   1.933   9.242   0.593  3.7431  0.7727  0.4895
  135ACOH    H2 9979   1.838   9.307   0.725  0.0589  0.1519 -1.1941
  135ACOH    H3 9980   1.914   9.152   0.737  3.1360 -1.6105 -1.6817
  136ACOH    H4 9981   4.442   4.479   2.549  0.3569  0.8348  0.3821
  136ACOH    O2 9982   4.473   4.482   2.457  0.0481 -0.0559  0.2452
  136ACOH    C2 9983   4.589   4.544   2.465  0.5815 -0.3717 -0.0295
  136ACOH    O1 9984   4.652   4.573   2.564  0.3915  0.0463 -0.1985
  136ACOH    C1 9985   4.645   4.534   2.330 -0.4876  0.3178 -0.8761
  136ACOH    H1 9986   4.621   4.621   2.270  2.7310  0.6418 -1.8149
  136ACOH    H2 9987   4.600   4.451   2.276 -1.2957 -0.4921  0.9924
  136ACOH    H3 9988   4.754   4.535   2.338 -0.4944 -1.2043 -0.4585
  137ACOH    H4 9989   3.329   8.405   2.034 -2.9440  0.0058  0.9089
  137ACOH    O2 9990   3.342   8.309   2.038 -0.3066  0.2481 -0.0181
  137ACOH    C2 9991   3.345   8.242   1.920 -0.4693 -0.0924  1.0154
  137ACOH    O1 9992   3.334   8.288   1.809 -0.3676 -0.2524  0.2834
  137ACOH    C1 9993   3.372   8.095   1.943  0.4564 -0.2633  0.0955
  137ACOH    H1 9994   3.436   8.074   2.029  2.2095  2.1737 -0.5596
  137ACOH    H2 9995   3.423   8.057   1.855 -0.8465  1.6553 -1.5362
  137ACOH    H3 9996   3.277   8.043   1.957 -0.9766  1.3165 -3.0905
  138ACOH    H4 9997   3.849   0.937   2.536 -1.8239  0.7941  0.3993
  138ACOH    O2 9998   3.821   0.870   2.600 -0.1974 -0.2589  0.0435
  138ACOH    C2 9999   3.757   0.937   2.692 -0.7269  0.2413  0.8707
  138ACOH    O110000   3.687   1.035   2.671 -0.9626 -0.4256  0.2385
  138ACOH    C110001   3.789   0.884   2.822  0.0031  0.0168 -0.2328
  138ACOH    H110002   3.875   0.819   2.830  0.9868  1.2859 -0.3193
  138ACOH    H210003   3.700   0.832   2.859  0.2975  0.2729  0.8691
  138ACOH    H310004   3.803   0.965   2.894 -0.4268 -1.0630  1.0998
  139ACOH    H410005   3.864   9.128   0.336  0.1166  0.1514  0.0663
  139ACOH    O210006   3.928   9.195   0.365  0.0370 -0.0237  0.6586
  139ACOH    C210007   3.906   9.238   0.489 -0.7696 -0.8864 -0.4341
  139ACOH    O110008   3.829   9.192   0.573  0.4249 -0.0377  0.3387
  139ACOH    C110009   3.977   9.362   0.497 -0.3203  0.0942  0.8481
  139ACOH    H110010   3.981   9.396   0.601 -0.5702 -0.4546  1.0393
  139ACOH    H210011   3.935   9.439   0.433  0.9029  0.1648  0.1093
  139ACOH    H310012   4.080   9.344   0.467 -1.3781 -1.6153 -1.8891
  140ACOH    H410013   3.822   5.180   1.545 -0.1603 -1.5220 -0.3978
  140ACOH    O210014   3.757   5.218   1.483  0.1049 -0.2578  0.0895
  140ACOH    C210015   3.687   5.315   1.554  0.0367  0.8829  0.6031
  140ACOH    O110016   3.666   5.310   1.673 -0.1247  0.0210 -0.5335
  140ACOH    C110017   3.600   5.398   1.471  0.3228  0.6750  0.0031
  140ACOH    H110018   3.631   5.396   1.367 -0.2464 -2.5997 -0.1578
  140ACOH    H210019   3.616   5.501   1.503 -0.6721  0.2876  1.8492
  140ACOH    H310020   3.494   5.371   1.476 -0.0264  1.3844 -2.7156
  141ACOH    H410021   4.563   1.797   0.086 -0.5959  1.0774 -1.2059
  141ACOH    O210022   4.641   1.844   0.119 -0.3140 -0.2852  0.1135
  141ACOH    C210023   4.708   1.907   0.020  0.2097  0.4496  0.4290
  141ACOH    O110024   4.673   1.912  -0.095  0.5933 -0.2369 -0.1518
  141ACOH    C110025   4.824   1.972   0.075  0.2322  0.2441  0.2834
  141ACOH    H110026   4.828   1.965   0.184  0.4453 -0.6773  0.2277
  141ACOH    H210027   4.807   2.077   0.053 -0.3952  0.3432  1.2186
  141ACOH    H310028   4.920   1.941   0.032 -0.9558  1.1020 -3.1750
  142ACOH    H410029   3.815   0.992   1.976  0.2097  1.1004  2.0910
  142ACOH    O210030   3.895   0.941   1.996  0.1484  0.2205  0.2076
  142ACOH    C210031   3.955   0.918   1.878 -0.1864  0.7364 -0.8503
  142ACOH    O110032   3.918   0.954   1.766  0.0814  0.3200  0.9480
  142ACOH    C110033   4.080   0.844   1.904 -0.7546 -0.6202 -0.1343
  142ACOH    H110034   4.099   0.777   1.820 -3.6792 -1.7156  0.0312
  142ACOH    H210035   4.076   0.784   1.995  1.7310  2.2035  1.9235
  142ACOH    H310036   4.163   0.914   1.915 -0.1645 -1.3051 -0.1922
  143ACOH    H410037   1.893   2.198   0.148  0.1323  0.2226  0.8593
  143ACOH    O210038   1.803   2.165   0.135  0.4177 -0.3121  0.2525
  143ACOH    C210039   1.821   2.043   0.076 -0.0417  0.4510  0.2219
  143ACOH    O110040   1.924   1.978   0.066  0.2434  0.3347 -0.2593
  143ACOH    C110041   1.688   1.985   0.032 -0.0417 -0.4712  0.3576
  143ACOH    H110042   1.708   1.889  -0.013  0.1611 -0.9657  1.4843
  143ACOH    H210043   1.632   2.062  -0.023 -1.0674 -0.4931  1.3547
  143ACOH    H310044   1.629   1.966   0.121 -0.4332  0.3514  0.2810
  144ACOH    H410045   4.885   4.245   2.316 -0.9172  0.0150 -1.5967
  144ACOH    O210046   4.953   4.274   2.253  0.5042  0.3846  0.0634
  144ACOH    C210047   4.903   4.268   2.128  0.4092  0.9023 -0.4164
  144ACOH    O110048   4.787   4.236   2.106 -0.0671 -0.3728 -0.1559
  144ACOH    C110049   4.978   4.355   2.035  0.1029  0.1244 -0.6268
  144ACOH    H110050   5.020   4.297   1.953  1.8268 -0.6127  0.7427
  144ACOH    H210051   5.062   4.396   2.090 -0.7577 -1.0993  1.6468
  144ACOH    H310052   4.925   4.443   2.000  0.8042  0.4860 -0.7843
  145ACOH    H410053   3.488   8.543   1.304  0.9107 -1.7265  0.6399
  145ACOH    O210054   3.534   8.530   1.220  0.2540 -0.1560  0.0049
  145ACOH    C210055   3.452   8.467   1.133 -0.0847 -0.2728 -0.1742
  145ACOH    O110056   3.341   8.420   1.150 -0.2858  0.8029 -0.3238
  145ACOH    C110057   3.528   8.444   1.011  0.9200  0.6264 -0.1937
  145ACOH    H110058   3.460   8.434   0.927 -0.1697 -0.9101  0.8401
  145ACOH    H210059   3.589   8.355   1.028  0.1288  0.5663  2.6440
  145ACOH    H310060   3.593   8.530   1.001  1.2391  0.4629  0.4367
  146ACOH    H410061   3.183   4.860   0.803 -0.1907  0.4008  0.5586
  146ACOH    O210062   3.131   4.901   0.731  0.0627  0.1720  0.2433
  146ACOH    C210063   3.055   4.805   0.673 -0.3409 -0.2632 -0.3814
  146ACOH    O110064   3.037   4.693   0.704 -0.1848 -0.6460 -0.3089
  146ACOH    C110065   2.987   4.866   0.560 -0.3698 -0.4683 -0.1388
  146ACOH    H110066   2.952   4.780   0.502 -0.0861 -0.2770 -0.5941
  146ACOH    H210067   3.065   4.915   0.501  2.9400 -3.1828  1.7837
  146ACOH    H310068   2.905   4.932   0.585  1.4839  2.4813 -1.4916
  147ACOH    H410069   3.872   8.798   1.019  2.2933 -0.3877 -0.1500
  147ACOH    O210070   3.880   8.742   1.098  0.1127  0.4513  0.7032
  147ACOH    C210071   3.865   8.613   1.057 -0.1544  0.2908  0.4683
  147ACOH    O110072   3.828   8.579   0.947  0.2571 -0.4380  0.0246
  147ACOH    C110073   3.864   8.522   1.168 -0.0724  0.8689 -0.6036
  147ACOH    H110074   3.806   8.558   1.253  1.5406  1.1426  0.4103
  147ACOH    H210075   3.969   8.518   1.198  0.1025  0.8485 -1.2249
  147ACOH    H310076   3.836   8.421   1.140 -0.0093  0.7827 -0.3591
  148ACOH    H410077   5.064   3.391   1.479  0.2515  5.0119  1.8352
  148ACOH    O210078   5.107   3.359   1.560  0.7112 -0.0039 -0.1787
  148ACOH    C210079   5.238   3.371   1.535 -0.3902  0.2210 -0.0900
  148ACOH    O110080   5.296   3.371   1.429  0.4881  0.5272 -0.5883
  148ACOH    C110081   5.315   3.366   1.663 -0.0792 -0.0680  0.1821
  148ACOH    H110082   5.315   3.266   1.707  0.4931 -1.1446 -2.1721
  148ACOH    H210083   5.268   3.436   1.731 -0.9299 -0.2147 -0.2480
  148ACOH    H310084   5.419   3.392   1.643  0.1807  0.8897  2.6372
  149ACOH    H410085   4.847   4.249   0.025  1.3585 -1.9983 -1.5519
  149ACOH    O210086   4.873   4.317  -0.040  0.3652  0.7767  0.8142
  149ACOH    C210087   4.869   4.437   0.028 -0.3160 -0.0850  0.1633
  149ACOH    O110088   4.793   4.465   0.119  0.2092 -0.2187  0.1305
  149ACOH    C110089   4.954   4.534  -0.044 -0.0115 -0.0769 -0.1262
  149ACOH    H110090   5.051   4.544   0.005  0.1957  1.0329 -0.7386
  149ACOH    H210091   4.896   4.627  -0.043 -0.0329 -0.0683 -1.1230
  149ACOH    H310092   4.968   4.507  -0.149  1.3941  0.5943 -0.1274
  150ACOH    H410093   3.980   5.222   0.705  3.2583  0.4475  2.6099
  150ACOH    O210094   3.976   5.318   0.693  0.0462  0.1046  0.2079
  150ACOH    C210095   4.007   5.351   0.563  0.0814  0.2741  0.4817
  150ACOH    O110096   4.014   5.277   0.465 -0.1423 -0.1330  0.3117
  150ACOH    C110097   4.043   5.488   0.554  0.0978 -0.2464 -0.0644
  150ACOH    H110098   3.952   5.546   0.563 -1.4657 -2.7098  0.3289
  150ACOH    H210099   4.105   5.504   0.466 -0.5859 -2.1913 -0.9128
  150ACOH    H310100   4.098   5.519   0.644  0.4656 -0.2031 -0.3025
  151ACOH    H410101   3.546   3.226   0.827  0.9491  0.8924  0.5958
  151ACOH    O210102   3.506   3.291   0.766 -0.2642  0.0412  0.4619
  151ACOH    C210103   3.456   3.388   0.841  0.3006 -0.1461  0.0513
  151ACOH    O110104   3.480   3.405   0.960 -0.6791  0.1268 -0.0604
  151ACOH    C110105   3.384   3.488   0.757 -0.1038 -0.3845  0.0798
  151ACOH    H110106   3.345   3.439   0.667  0.0197 -1.1184  0.4229
  151ACOH    H210107   3.441   3.574   0.723 -2.0322 -0.4611 -3.7135
  151ACOH    H310108   3.304   3.538   0.811 -0.4703 -0.4240 -0.4194
  152ACOH    H410109   2.460   3.414   1.106  0.8835 -0.0792 -2.4936
  152ACOH    O210110   2.376   3.378   1.073 -0.0662 -0.3831  0.1120
  152ACOH    C210111   2.293   3.356   1.182 -0.0802  0.4035  0.1088
  152ACOH    O110112   2.325   3.393   1.292 -0.2644  0.2027  0.4853
  152ACOH    C110113   2.157   3.309   1.141 -0.8447  0.4057 -0.0526
  152ACOH    H110114   2.111   3.399   1.099  0.0650  0.8933 -0.0190
  152ACOH    H210115   2.101   3.275   1.229  1.5082 -4.1321 -0.1745
  152ACOH    H310116   2.167   3.227   1.070  0.6597 -0.1931  0.8355
  153ACOH    H410117   4.583   2.089   1.530  0.6305 -0.2602 -0.9550
  153ACOH    O210118   4.648   2.128   1.591  0.3029 -0.5914 -0.3878
  153ACOH    C210119   4.726   2.214   1.520 -0.3165 -0.0642 -0.2030
  153ACOH    O110120   4.716   2.230   1.398 -0.0137 -0.1685  0.0410
  153ACOH    C110121   4.846   2.261   1.594 -0.1973  0.2100 -1.0270
  153ACOH    H110122   4.933   2.209   1.555  0.8490  0.4041  0.9737
  153ACOH    H210123   4.821   2.243   1.699  1.4196  1.3862 -0.4169
  153ACOH    H310124   4.852   2.369   1.585  0.3160  0.3284  0.5493
  154ACOH    H410125   2.010   1.200   1.998  1.9768 -0.5644 -3.2726
  154ACOH    O210126   1.949   1.264   1.957 -0.2156 -0.5052 -0.1032
  154ACOH    C210127   1.912   1.354   2.057 -0.1388  0.4513 -0.0614
  154ACOH    O110128   1.933   1.333   2.173 -0.2784  0.1871  0.1914
  154ACOH    C110129   1.830   1.464   2.006  0.2363 -0.2885  0.0795
  154ACOH    H110130   1.871   1.564   2.020 -0.1570  0.0393 -1.1060
  154ACOH    H210131   1.734   1.453   2.058 -0.7479 -0.8804 -1.8300
  154ACOH    H310132   1.810   1.442   1.901 -0.3294 -2.7794  0.6754
  155ACOH    H410133   3.472   5.690   0.440 -1.7980 -0.7678  4.5896
  155ACOH    O210134   3.434   5.779   0.436  0.2513  0.0453 -0.2010
  155ACOH    C210135   3.479   5.843   0.542 -0.0515  0.5204  0.3864
  155ACOH    O110136   3.540   5.797   0.634  0.0124  0.3713 -0.0878
  155ACOH    C110137   3.461   5.988   0.529 -0.3240 -0.6868  0.6428
  155ACOH    H110138   3.486   6.033   0.626 -1.3266  2.2400 -0.3864
  155ACOH    H210139   3.359   6.018   0.505 -0.0874 -0.0140  0.4639
  155ACOH    H310140   3.534   6.023   0.457 -3.4821  2.9607 -0.9850
  156ACOH    H410141   4.246   1.702   2.426 -0.8906  0.7448  0.0696
  156ACOH    O210142   4.166   1.668   2.384 -0.5488  0.3992 -0.3100
  156ACOH    C210143   4.071   1.631   2.472  0.3618 -1.0198 -0.1199
  156ACOH    O110144   4.079   1.590   2.582  0.1371  0.5183 -0.1350
  156ACOH    C110145   3.947   1.626   2.391 -0.2274 -0.5273 -0.2808
  156ACOH    H110146   3.961   1.628   2.283 -0.1512  1.3563 -0.2511
  156ACOH    H210147   3.868   1.696   2.418  1.0945  1.3606 -1.1973
  156ACOH    H310148   3.908   1.525   2.409  1.7185 -1.1289  0.7669
  157ACOH    H410149   4.991   2.632   1.443  0.8018  0.6330 -0.4703
  157ACOH    O210150   5.055   2.591   1.383  0.4499 -0.3645 -0.1764
  157ACOH    C210151   5.171   2.652   1.416  0.4697 -0.1012  0.4366
  157ACOH    O110152   5.177   2.772   1.417  0.8665 -0.0202  0.3169
  157ACOH    C110153   5.283   2.568   1.371  0.1940 -0.0289 -0.2904
  157ACOH    H110154   5.312   2.585   1.267  0.4725 -1.2146 -0.4172
  157ACOH    H210155   5.263   2.463   1.394  1.8985 -0.6646 -1.5674
  157ACOH    H310156   5.367   2.601   1.432 -1.1295  3.2590 -0.1266
  158ACOH    H410157   4.014   5.474   1.032 -0.7967  2.4135  0.6967
  158ACOH    O210158   4.057   5.449   1.116 -0.1773  0.2295 -0.2139
  158ACOH    C210159   3.964   5.443   1.216 -0.0458 -0.0477 -0.0624
  158ACOH    O110160   3.844   5.461   1.209  0.5175  0.0238 -0.4640
  158ACOH    C110161   4.040   5.396   1.334 -0.2244  0.1741 -0.1908
  158ACOH    H110162   3.975   5.403   1.421 -0.4127  0.0553 -0.3212
  158ACOH    H210163   4.129   5.455   1.355 -1.2550  1.1523  1.6063
  158ACOH    H310164   4.058   5.290   1.316 -3.6259 -0.0194 -2.9884
  159ACOH    H410165   2.275   9.630   1.166 -0.4623 -1.0481  0.9077
  159ACOH    O210166   2.214   9.582   1.108 -0.0315 -0.0370 -0.4310
  159ACOH    C210167   2.107   9.658   1.088  0.3231  0.4138 -0.0565
  159ACOH    O110168   2.106   9.778   1.124  0.0859  0.2306  0.0186
  159ACOH    C110169   2.018   9.594   0.991 -0.1154  0.1850  0.1099
  159ACOH    H110170   2.067   9.561   0.899 -2.4275 -1.4751 -0.5850
  159ACOH    H210171   1.929   9.651   0.963 -0.1890  0.1032  0.1762
  159ACOH    H310172   1.978   9.502   1.035 -3.5429  1.3061 -0.4966
  160ACOH    H410173   3.521   5.123   1.341  0.1481  0.0480  0.2040
  160ACOH    O210174   3.462   5.125   1.417 -0.1274  0.8047 -0.0266
  160ACOH    C210175   3.498   5.029   1.502  0.4677  0.3362  0.1889
  160ACOH    O110176   3.578   4.944   1.487  0.4827 -0.0923 -0.0858
  160ACOH    C110177   3.418   5.027   1.628  0.8829 -0.1072  0.4098
  160ACOH    H110178   3.368   4.931   1.634 -1.0503  0.8850  0.3355
  160ACOH    H210179   3.341   5.102   1.641 -0.8552 -1.6703 -0.5647
  160ACOH    H310180   3.489   5.031   1.711  2.1131 -4.1321 -0.3339
  161ACOH    H410181   3.417   5.517   2.480  1.4537 -2.1038  2.8651
  161ACOH    O210182   3.442   5.605   2.514  0.1749 -0.6251  0.2044
  161ACOH    C210183   3.345   5.640   2.601  0.6978  0.1756  0.3278
  161ACOH    O110184   3.259   5.565   2.635  0.0475  0.0902 -0.2101
  161ACOH    C110185   3.362   5.773   2.671 -0.2336  0.1122  0.6267
  161ACOH    H110186   3.264   5.808   2.702  0.1802  0.4533  1.5776
  161ACOH    H210187   3.392   5.846   2.596  0.5767 -0.7802  0.0773
  161ACOH    H310188   3.434   5.775   2.753  1.7450 -1.1942 -1.0282
  162ACOH    H410189   2.218   9.133   0.380 -1.4914 -2.3351  0.5453
  162ACOH    O210190   2.270   9.132   0.462 -0.5084  0.0982 -0.0075
  162ACOH    C210191   2.283   9.004   0.497  0.8740 -0.2773  0.5207
  162ACOH    O110192   2.240   8.914   0.425 -0.2711  0.2685 -0.0873
  162ACOH    C110193   2.349   8.988   0.626  0.2816  0.0367  0.0050
  162ACOH    H110194   2.329   8.888   0.666  0.1717 -0.1536 -0.5130
  162ACOH    H210195   2.295   9.056   0.691 -0.6816  0.2521 -0.9973
  162ACOH    H310196   2.457   9.003   0.620 -0.1495  2.7915 -1.2760
  163SOL     OW10197   3.157   5.190   1.070 -0.1046  0.4823  0.5963
  163SOL    HW110198   3.125   5.111   1.122  0.2650  1.0395  1.7057
  163SOL    HW210199   3.211   5.159   0.991 -0.3423 -0.3754  0.7697
  164SOL     OW10200   3.035   9.293   1.607  0.0553  0.5487  0.2522
  164SOL    HW110201   3.101   9.323   1.676 -0.9910 -0.4933  1.7292
  164SOL    HW210202   3.010   9.371   1.550  1.9015  1.1426  0.2159
  165SOL     OW10203   3.038   0.642   2.305  0.1986 -0.8057 -0.3291
  165SOL    HW110204   3.094   0.725   2.301 -0.2990 -0.4561 -0.1549
  165SOL    HW210205   2.965   0.655   2.372  0.9578 -1.9016  0.7402
  166SOL     OW10206   3.568   9.056   1.826  0.0307 -0.8985  0.1848
  166SOL    HW110207   3.476   9.055   1.865 -0.2692 -0.7767 -0.5233
  166SOL    HW210208   3.563   9.076   1.728  0.8482 -0.4077  0.2401
  167SOL     OW10209   3.105   0.652   2.014  0.7408 -0.8331  0.3316
  167SOL    HW110210   3.098   0.620   2.108 -2.3386 -2.7383 -0.4946
  167SOL    HW210211   3.058   0.740   2.005  0.8280 -0.7695  0.4893
  168SOL     OW10212   3.905   9.266   2.574 -0.5113 -0.1489  0.7135
  168SOL    HW110213   3.945   9.260   2.665 -2.5125 -2.0638  1.4826
  168SOL    HW210214   3.918   9.179   2.526 -0.6425  0.4100 -0.3468
  169SOL     OW10215   3.834   4.643   0.534  0.2196 -0.0547 -0.4195
  169SOL    HW110216   3.929   4.649   0.566  0.3651  1.2711 -1.0507
  169SOL    HW210217   3.833   4.615   0.438  0.0788  1.6943 -0.9513
  170SOL     OW10218   2.157   1.321   2.623 -0.3768  0.2900  1.1516
  170SOL    HW110219   2.120   1.399   2.573  1.9096  0.9173  0.4168
  170SOL    HW210220   2.243   1.346   2.666 -0.0167 -1.5937  1.5706
  171SOL     OW10221   2.556   1.638   0.858  0.1899 -0.2715  0.1876
  171SOL    HW110222   2.559   1.548   0.900 -0.8816 -0.9331 -1.1195
  171SOL    HW210223   2.649   1.672   0.844  0.6473 -1.9855 -1.0374
  172SOL     OW10224   4.891   3.547   1.635 -0.0544  0.1614 -0.1050
  172SOL    HW110225   4.872   3.644   1.622  0.1724  0.1494 -0.5384
  172SOL    HW210226   4.990   3.532   1.633 -0.1280 -0.2150 -1.0644
  173SOL     OW10227   2.396   3.024   0.853  0.7219 -0.3714  0.1238
  173SOL    HW110228   2.362   2.961   0.923 -0.6264  2.0809  1.7656
  173SOL    HW210229   2.438   3.103   0.898  3.1089 -0.4534 -1.8965
  174SOL     OW10230   3.346   9.025   0.056 -0.5616  0.6619 -0.2364
  174SOL    HW110231   3.316   9.030   0.151 -1.5892  2.0823 -0.6140
  174SOL    HW210232   3.445   9.032   0.051 -0.4437 -0.1621  0.7713
  175SOL     OW10233   2.631   3.271   1.753 -0.4257 -0.0409 -0.1906
  175SOL    HW110234   2.627   3.225   1.841 -0.0211 -0.0165 -0.1575
  175SOL    HW210235   2.599   3.365   1.763 -0.2585  0.0011 -0.0423
  176SOL     OW10236   3.301   2.894   1.260 -0.6523 -0.8341  0.3926
  176SOL    HW110237   3.330   2.852   1.347  1.8148 -1.6099 -0.7489
  176SOL    HW210238   3.277   2.990   1.276  0.7069 -0.6969  1.8060
  177SOL     OW10239   3.623   4.983   1.025  0.2159 -0.7714  0.3723
  177SOL    HW110240   3.556   4.921   1.066  0.4991 -1.4347 -0.1544
  177SOL    HW210241   3.646   5.055   1.090 -1.5902 -0.0902  0.2537
  178SOL     OW10242   2.439   1.747   1.410  0.6505 -0.2187  0.0328
  178SOL    HW110243   2.401   1.821   1.465  1.6039 -0.9740  1.7453
  178SOL    HW210244   2.367   1.708   1.352 -1.1434 -1.3599  2.9040
  179SOL     OW10245   4.336   2.254   0.801 -0.3003  0.2268 -0.4320
  179SOL    HW110246   4.344   2.308   0.885  0.3689 -0.8924  0.2340
  179SOL    HW210247   4.407   2.283   0.736 -0.2885  0.5248 -0.2865
  180SOL     OW10248   3.798   4.896   0.610  0.1839 -0.1213 -0.0048
  180SOL    HW110249   3.730   4.924   0.542  0.7468  0.1375 -0.4687
  180SOL    HW210250   3.812   4.797   0.604  0.0444 -0.1359 -0.0888
  181SOL     OW10251   2.746   5.182   2.631  0.0968 -1.0698 -0.2357
  181SOL    HW110252   2.651   5.156   2.613  0.1006 -2.0455  1.1242
  181SOL    HW210253   2.805   5.102   2.627  0.4530 -0.9314  1.6128
  182SOL     OW10254   3.640   9.779   1.106 -0.1790 -0.3101  0.0772
  182SOL    HW110255   3.701   9.718   1.056 -0.0266  0.1060 -0.2400
  182SOL    HW210256   3.570   9.724   1.152 -0.8807 -0.6218 -1.3372
  183SOL     OW10257   2.740   1.949   2.177  0.2189  0.2503 -0.1996
  183SOL    HW110258   2.833   1.916   2.190 -0.1932 -1.5380 -1.6148
  183SOL    HW210259   2.697   1.962   2.266  1.5930  0.4921  0.4465
  184SOL     OW10260   3.734   3.087   1.294  0.3355 -0.0562 -0.7015
  184SOL    HW110261   3.667   3.057   1.361 -0.5636 -0.1513 -1.6407
  184SOL    HW210262   3.785   3.166   1.330  0.0896 -0.3201  0.2177
  185SOL     OW10263   3.187   9.407   1.779  0.7100  0.1944 -0.1839
  185SOL    HW110264   3.195   9.477   1.708  0.8062 -1.2435 -1.6467
  185SOL    HW210265   3.260   9.417   1.846  1.5352  0.6366 -1.1499
  186SOL     OW10266   2.547   9.911   0.251  0.2530  0.0042  0.0251
  186SOL    HW110267   2.479   9.845   0.281 -0.1214 -0.3717 -1.6107
  186SOL    HW210268   2.639   9.878   0.273  0.1766 -1.9211 -2.3295
  187SOL     OW10269   4.303   2.385   1.549 -1.2587 -0.4331  0.0291
  187SOL    HW110270   4.244   2.424   1.478  0.3323  0.9403 -0.5508
  187SOL    HW210271   4.264   2.405   1.639 -0.9798  1.6867 -0.2933
  188SOL     OW10272   2.475  10.255   0.807 -0.2805 -0.3494 -0.0700
  188SOL    HW110273   2.394  10.292   0.852  1.2852  3.8718 -0.4937
  188SOL    HW210274   2.477  10.285   0.711  1.3035 -1.1389 -0.3019
  189SOL     OW10275   2.440   0.671   1.811  0.2416  0.6219  0.2653
  189SOL    HW110276   2.439   0.623   1.723  2.1540  0.6257  0.2233
  189SOL    HW210277   2.419   0.606   1.884 -1.6101  0.6712 -0.2031
  190SOL     OW10278   3.039   8.986   2.466  0.0940 -0.8521  0.5983
  190SOL    HW110279   3.124   9.037   2.464 -1.2505  1.5297 -3.4756
  190SOL    HW210280   3.052   8.898   2.420  0.6284 -0.9562  0.9520
  191SOL     OW10281   2.396   2.778   2.315  0.0057 -0.4480  0.6716
  191SOL    HW110282   2.327   2.719   2.358  1.3122 -0.4211  2.9046
  191SOL    HW210283   2.420   2.851   2.379 -0.7793  1.8734 -1.6282
  192SOL     OW10284   2.871   9.847   0.842  0.2689 -0.2674  0.1024
  192SOL    HW110285   2.869   9.788   0.761 -0.0554 -0.7323  0.4434
  192SOL    HW210286   2.836   9.937   0.819  1.1926 -0.0659 -0.5367
  193SOL     OW10287   3.370   0.949   0.999 -0.1801 -0.1427  0.4804
  193SOL    HW110288   3.418   1.036   0.997 -0.9506  0.2610 -0.9656
  193SOL    HW210289   3.306   0.948   1.076  0.8251  0.0229  1.3185
  194SOL     OW10290   2.956   8.345   1.911  0.0568 -0.2987  0.1241
  194SOL    HW110291   2.934   8.392   1.997 -1.4251  0.8192 -0.8285
  194SOL    HW210292   2.898   8.263   1.903  0.6088 -0.7243  0.4538
  195SOL     OW10293   3.893   2.806   1.604  0.5204  0.1143  0.1063
  195SOL    HW110294   3.933   2.896   1.592 -2.8091  1.4728 -1.3464
  195SOL    HW210295   3.866   2.769   1.515 -3.3692  0.2426  1.1309
  196SOL     OW10296   3.736   4.855   2.151 -0.2166  0.1045  0.0866
  196SOL    HW110297   3.766   4.810   2.235 -0.7447  1.1577  0.8609
  196SOL    HW210298   3.763   4.951   2.152 -0.0582  0.0846 -1.0413
  197SOL     OW10299   3.656   2.652   2.442  0.4261 -0.9174  0.0276
  197SOL    HW110300   3.655   2.655   2.342  0.2507 -0.1743  0.0455
  197SOL    HW210301   3.740   2.694   2.476  0.0981 -0.4011  0.2080
  198SOL     OW10302   3.378   2.084   2.095 -0.5373 -0.4573 -0.3649
  198SOL    HW110303   3.348   2.133   2.178  3.0216 -0.1153  0.8165
  198SOL    HW210304   3.318   2.006   2.079 -3.3689  1.4404  0.5501
  199SOL     OW10305   3.684   9.374   0.964  0.3514  0.6420  0.6098
  199SOL    HW110306   3.640   9.317   1.034  0.6817 -2.0981 -1.3249
  199SOL    HW210307   3.615   9.432   0.920 -0.3222  0.4462  1.3888
  200SOL     OW10308   2.926   9.601   0.445  0.0254  0.0934  0.2388
  200SOL    HW110309   2.908   9.608   0.543 -0.9457 -0.4811  0.1035
  200SOL    HW210310   3.000   9.535   0.429 -0.6721 -0.7628  0.5020
  201SOL     OW10311   2.567   1.584   1.652 -0.6642 -0.1586 -0.4960
  201SOL    HW110312   2.540   1.631   1.736 -0.7795  0.5653 -0.9279
  201SOL    HW210313   2.594   1.652   1.584  0.5356 -0.7911 -0.6672
  202SOL     OW10314   3.161   9.053   2.166  0.2885  0.5104 -0.2971
  202SOL    HW110315   3.178   8.967   2.215  2.3534  1.9160  1.5659
  202SOL    HW210316   3.063   9.074   2.169 -0.1660 -1.5103 -0.3395
  203SOL     OW10317   3.966   3.356   2.255  0.3341 -0.8058 -0.7033
  203SOL    HW110318   3.969   3.397   2.164  0.6144  1.7247  0.3766
  203SOL    HW210319   3.873   3.357   2.290  0.5090  0.0019 -0.2319
  204SOL     OW10320   3.289   2.495   2.355 -0.3935  0.5878 -0.2897
  204SOL    HW110321   3.362   2.481   2.421 -0.9083  0.2373  0.2055
  204SOL    HW210322   3.295   2.424   2.284 -1.7700 -1.0071  1.1208
  205SOL     OW10323   3.334   2.312   0.249  0.2484  0.2416 -0.1584
  205SOL    HW110324   3.414   2.320   0.309 -0.5007 -0.4915  0.9703
  205SOL    HW210325   3.330   2.391   0.188  0.6319  1.3839  1.2639
  206SOL     OW10326   1.798   2.100   0.414  1.0397 -0.1758  0.0744
  206SOL    HW110327   1.765   2.131   0.325 -1.9251 -1.2775  0.7228
  206SOL    HW210328   1.881   2.045   0.401  0.2176 -0.9754 -2.1269
  207SOL     OW10329   4.035   2.260   0.652 -0.0464  0.1804 -0.0643
  207SOL    HW110330   4.117   2.243   0.598  0.3301  0.4236  0.4207
  207SOL    HW210331   4.010   2.357   0.645  0.1710  0.2739  0.4210
  208SOL     OW10332   4.159   4.415   2.091  0.4851  0.4538 -0.1257
  208SOL    HW110333   4.128   4.508   2.073  2.4054  0.8793 -1.3912
  208SOL    HW210334   4.125   4.354   2.018 -0.1209  0.2909  0.2847
  209SOL     OW10335   2.555   2.108   1.196 -0.6402  0.5693 -0.1046
  209SOL    HW110336   2.633   2.162   1.165 -1.4550  1.5879 -0.3913
  209SOL    HW210337   2.530   2.134   1.289 -1.4735  1.2051 -0.4945
  210SOL     OW10338   2.896   3.834   1.337 -0.3774 -0.1621 -0.0850
  210SOL    HW110339   2.945   3.912   1.299  0.5620 -0.3621  0.7049
  210SOL    HW210340   2.953   3.752   1.330 -1.1635 -0.6825 -0.4689
  211SOL     OW10341   2.284   1.656   0.896  0.3405  1.1803 -0.1900
  211SOL    HW110342   2.383   1.667   0.882  0.7608  0.6830  2.3234
  211SOL    HW210343   2.257   1.563   0.871  0.3168  1.5780 -1.7403
  212SOL     OW10344   2.873   2.280   0.624 -0.5725  0.0353  0.1776
  212SOL    HW110345   2.919   2.203   0.581  0.0889  0.5228  0.0118
  212SOL    HW210346   2.787   2.249   0.666 -0.3398 -0.7702  0.0511
  213SOL     OW10347   3.793   8.917   0.656 -0.6419 -0.2319  0.0485
  213SOL    HW110348   3.789   8.858   0.575 -0.4021 -0.6981  0.3771
  213SOL    HW210349   3.794   9.013   0.627 -2.2677 -0.3596 -0.4413
  214SOL     OW10350   2.480   8.650   0.090 -0.4419  0.5695 -0.1321
  214SOL    HW110351   2.506   8.618   0.182 -0.9930  1.6206  0.4009
  214SOL    HW210352   2.464   8.571   0.031 -0.1643 -0.1237  0.7011
  215SOL     OW10353   3.212   0.994   1.243  0.1629  0.5668  0.7587
  215SOL    HW110354   3.277   1.068   1.258  0.3730  0.2294  1.5567
  215SOL    HW210355   3.242   0.913   1.293 -1.1616  0.5735  1.5798
  216SOL     OW10356   3.342   9.395   1.167 -0.0661 -0.3231  0.0371
  216SOL    HW110357   3.397   9.471   1.202 -0.8730  1.3812 -2.2408
  216SOL    HW210358   3.401   9.316   1.150  0.9586  0.1164  1.4500
  217SOL     OW10359   2.758   4.612   1.680 -0.6773 -0.0674 -0.1106
  217SOL    HW110360   2.741   4.652   1.769  2.7132  1.0538  0.0870
  217SOL    HW210361   2.712   4.523   1.674 -2.7509  0.8271  1.8789
  218SOL     OW10362   2.680   4.091   1.382  0.0167  0.1528  0.2691
  218SOL    HW110363   2.756   4.134   1.431  0.9488 -1.3056  0.1518
  218SOL    HW210364   2.616   4.051   1.448  0.4180 -0.3805  0.3419
  219SOL     OW10365   2.231   9.338   2.412  0.9667  0.3961 -0.5423
  219SOL    HW110366   2.327   9.325   2.440  1.2458  0.8331 -1.3085
  219SOL    HW210367   2.215   9.290   2.326 -0.3895 -2.5730  1.2903
  220SOL     OW10368   2.913   3.112   2.392  0.4918 -0.0854  0.5593
  220SOL    HW110369   3.001   3.159   2.384  0.9281 -0.8500  0.7941
  220SOL    HW210370   2.897   3.089   2.488  2.3881 -4.3534 -0.0230
  221SOL     OW10371   3.619   3.627   2.287 -0.2506  0.0501 -0.5245
  221SOL    HW110372   3.674   3.545   2.305 -0.6654  0.0272  0.6349
  221SOL    HW210373   3.556   3.608   2.212 -0.2354 -0.6404 -0.3646
  222SOL     OW10374   2.865   8.865   1.807  0.0334  0.1554  0.1611
  222SOL    HW110375   2.842   8.807   1.729  0.4383  0.6517 -0.3303
  222SOL    HW210376   2.786   8.922   1.831 -0.2323 -0.3060  0.3922
  223SOL     OW10377   2.409   1.970   0.712  0.7031 -0.0127  0.0740
  223SOL    HW110378   2.397   2.040   0.641  0.4234  0.3833  0.5076
  223SOL    HW210379   2.324   1.961   0.763  1.2331  0.4513  1.0430
  224SOL     OW10380   3.655   2.871   0.071  0.6442  0.4584  0.2743
  224SOL    HW110381   3.739   2.900   0.119  1.1336  2.7368 -1.8243
  224SOL    HW210382   3.669   2.780   0.031  1.3534 -0.0947  1.7613
  225SOL     OW10383   3.356   5.004   0.358 -0.0831 -0.0911 -0.3619
  225SOL    HW110384   3.259   5.028   0.358  0.0246  0.3551 -0.1137
  225SOL    HW210385   3.391   5.004   0.265  0.0264  1.1823 -0.3226
  226SOL     OW10386   2.697   2.721   0.426  0.0781  0.2454  0.2802
  226SOL    HW110387   2.604   2.733   0.462 -0.0518 -0.1859  0.1010
  226SOL    HW210388   2.727   2.627   0.443  0.0285  0.0500 -0.7031
  227SOL     OW10389   4.552   4.196   1.117  0.4051  0.5501  0.3482
  227SOL    HW110390   4.510   4.110   1.087  1.4119 -0.8343  2.7772
  227SOL    HW210391   4.617   4.227   1.049 -1.4756  0.5024 -1.5234
  228SOL     OW10392   3.079   9.020   1.238 -0.0091 -0.2809  0.0812
  228SOL    HW110393   3.118   8.928   1.246 -0.6304 -0.4017  2.0542
  228SOL    HW210394   3.008   9.021   1.167 -0.7686 -1.6181  0.8051
  229SOL     OW10395   3.072   4.114   1.593 -0.3391  0.2041  0.1768
  229SOL    HW110396   3.161   4.145   1.627  1.4322 -2.4606 -1.7854
  229SOL    HW210397   3.043   4.172   1.517 -0.5479  1.3985  1.1601
  230SOL     OW10398   3.296   2.201   1.830  0.4299 -0.4339 -0.0692
  230SOL    HW110399   3.210   2.160   1.861 -0.2353  0.7623 -0.3165
  230SOL    HW210400   3.365   2.192   1.902 -0.0473 -0.9255  0.3318
  231SOL     OW10401   2.606   0.474   0.896  0.1809  0.1984  0.3039
  231SOL    HW110402   2.541   0.415   0.848  1.1070 -0.1716 -0.5066
  231SOL    HW210403   2.686   0.421   0.923  2.1131  1.5371 -2.5390
  232SOL     OW10404   2.249   1.657   2.298 -0.5191  0.4774  0.0905
  232SOL    HW110405   2.339   1.629   2.332 -0.6806  0.5017  0.5311
  232SOL    HW210406   2.247   1.648   2.198 -0.6919 -1.4410  0.2595
  233SOL     OW10407   3.064   4.545   2.014 -0.6145  0.0874  0.0377
  233SOL    HW110408   2.991   4.479   2.001 -0.8860  0.5356 -0.7379
  233SOL    HW210409   3.032   4.636   1.989  0.5300  0.1323 -1.3653
  234SOL     OW10410   3.152   5.436   0.974 -0.3721 -0.2203 -0.2838
  234SOL    HW110411   3.140   5.339   0.995 -0.9366 -0.5471 -2.0527
  234SOL    HW210412   3.174   5.486   1.058 -0.8392 -1.7533  0.7654
  235SOL     OW10413   2.377   2.187   0.551 -0.2304  0.6610  0.5233
  235SOL    HW110414   2.281   2.167   0.528  0.3136 -1.1614 -0.2815
  235SOL    HW210415   2.396   2.284   0.536 -2.3016  1.3102  1.9601
  236SOL     OW10416   3.479   3.853   0.877  0.1364  0.1659 -0.3387
  236SOL    HW110417   3.455   3.949   0.891 -0.7466 -0.1698  0.5148
  236SOL    HW210418   3.501   3.811   0.965 -1.7943 -1.0069 -0.3740
  237SOL     OW10419   4.893   2.259   0.962  0.0339 -0.0739 -0.3695
  237SOL    HW110420   4.926   2.231   0.872  0.2823  0.9513 -0.6052
  237SOL    HW210421   4.829   2.190   0.997 -1.6081  0.4560 -2.2071
  238SOL     OW10422   4.623   3.433   0.140  0.6838 -0.3637  0.1876
  238SOL    HW110423   4.559   3.410   0.213 -0.3905 -2.1054 -1.2753
  238SOL    HW210424   4.600   3.382   0.058  1.1155  2.5016 -1.7808
  239SOL     OW10425   3.390   3.381   2.306 -0.2155 -0.0481  0.1569
  239SOL    HW110426   3.473   3.386   2.362 -0.0189  1.7708 -0.2783
  239SOL    HW210427   3.392   3.453   2.237 -1.7142 -0.6064 -0.4794
  240SOL     OW10428   3.063   9.720   1.324  0.2854  0.2321  0.2478
  240SOL    HW110429   3.011   9.787   1.271  0.5418  0.3389  0.1290
  240SOL    HW210430   3.122   9.768   1.389 -0.4383  0.0823  1.0173
  241SOL     OW10431   3.598   4.478   0.252  0.2923  0.3644 -0.2747
  241SOL    HW110432   3.618   4.553   0.189  1.4063  1.0452  0.8628
  241SOL    HW210433   3.548   4.513   0.331  2.3535  0.2740  1.1129
  242SOL     OW10434   2.725   8.885   0.404 -1.1861  0.5097  0.5152
  242SOL    HW110435   2.785   8.961   0.425 -1.0193  0.6504 -0.4356
  242SOL    HW210436   2.688   8.896   0.311 -1.7465 -0.1742  0.6490
  243SOL     OW10437   4.418   2.791   0.485  0.5234 -0.6245 -0.2054
  243SOL    HW110438   4.324   2.759   0.476  0.0899  0.7807 -0.8955
  243SOL    HW210439   4.478   2.736   0.427 -0.3424  0.3480 -2.0658
  244SOL     OW10440   3.512   8.782   1.766 -0.5479  0.1210 -0.3426
  244SOL    HW110441   3.542   8.869   1.805 -1.8543  0.6821 -0.5584
  244SOL    HW210442   3.426   8.796   1.716 -0.6841 -1.2603 -0.5102
  245SOL     OW10443   3.804   1.586   0.962  0.1289 -0.2741 -0.0419
  245SOL    HW110444   3.846   1.576   1.052  0.4722  1.4806  0.0191
  245SOL    HW210445   3.872   1.620   0.897 -0.8543  1.3748 -0.2395
  246SOL     OW10446   2.419   3.214   0.643 -0.0879  0.2206  0.1089
  246SOL    HW110447   2.465   3.158   0.574 -0.5057  2.1519 -1.8051
  246SOL    HW210448   2.368   3.155   0.705  0.2002 -1.5642 -1.2976
  247SOL     OW10449   3.285   5.398   0.720 -0.2747  0.1605 -0.1679
  247SOL    HW110450   3.224   5.455   0.775  1.6510  0.7333  1.4351
  247SOL    HW210451   3.330   5.331   0.780  0.4046 -0.4688 -1.3790
  248SOL     OW10452   4.891   2.256   0.495  0.0544  0.1483  0.1200
  248SOL    HW110453   4.847   2.185   0.440 -0.5109  0.5698  0.0301
  248SOL    HW210454   4.922   2.217   0.582 -1.4169  0.0815  0.6287
  249SOL     OW10455   2.115   1.300   0.224 -0.0499  0.0926  0.4164
  249SOL    HW110456   2.083   1.295   0.130  1.8534  1.8510 -0.3722
  249SOL    HW210457   2.137   1.207   0.256 -0.9999 -0.5567 -0.7547
  250SOL     OW10458   3.254   8.772   0.030  0.2805  0.2744  0.3908
  250SOL    HW110459   3.285   8.864   0.055 -0.8049  0.6780  0.3019
  250SOL    HW210460   3.238   8.718   0.112  2.0496 -0.2262  0.4168
  251SOL     OW10461   2.314   1.031   0.352 -0.2709 -0.7235 -0.1244
  251SOL    HW110462   2.374   0.989   0.285 -0.3277 -0.7472 -0.1612
  251SOL    HW210463   2.319   0.981   0.438  1.5486  0.6886  0.6046
  252SOL     OW10464   3.161   3.085   0.665  0.3484 -0.3729  0.1616
  252SOL    HW110465   3.186   2.989   0.651  1.3145 -0.3801  1.7921
  252SOL    HW210466   3.163   3.133   0.577  2.3121 -1.2910 -0.3208
  253SOL     OW10467   3.551   9.064   0.600  0.1406  1.1507 -0.0964
  253SOL    HW110468   3.561   8.969   0.630 -2.1297  1.0149  0.3083
  253SOL    HW210469   3.597   9.076   0.512 -2.0299 -1.0945 -1.6127
  254SOL     OW10470   3.211  10.028   2.137 -0.9161 -0.4094  0.2831
  254SOL    HW110471   3.141  10.028   2.065  1.3189 -0.5799 -1.9635
  254SOL    HW210472   3.224  10.122   2.170  0.7252  0.3429 -2.3033
  255SOL     OW10473   3.397   3.579   2.135  0.2359 -0.1463 -0.2034
  255SOL    HW110474   3.307   3.594   2.175 -0.3916 -1.8667 -0.9249
  255SOL    HW210475   3.406   3.634   2.052 -0.7054 -1.0343 -0.9105
  256SOL     OW10476   2.223  10.143   0.026  0.2584 -0.2089 -0.0481
  256SOL    HW110477   2.149  10.151   0.093 -0.5299 -1.0165 -0.8220
  256SOL    HW210478   2.223  10.223  -0.034 -0.9976 -0.9663 -1.0672
  257SOL     OW10479   2.608   8.897   0.135  0.5060 -0.4714 -0.5689
  257SOL    HW110480   2.550   8.815   0.125  0.0884  0.0050 -2.2389
  257SOL    HW210481   2.700   8.876   0.102  0.8427 -0.7344  0.5210
  258SOL     OW10482   3.208   3.437   0.404 -0.1845 -0.7277 -0.0682
  258SOL    HW110483   3.144   3.483   0.342  0.3675  0.1990  0.0463
  258SOL    HW210484   3.287   3.404   0.352  0.8998  1.1906  0.3304
  259SOL     OW10485   2.596   9.143   0.281  0.1338 -0.2566  0.2416
  259SOL    HW110486   2.557   9.060   0.242  0.6387 -0.3106 -0.1565
  259SOL    HW210487   2.692   9.151   0.254  0.1904  0.2676  0.5797
  260SOL     OW10488   4.486   3.503   0.843  0.1806  0.3621  0.3220
  260SOL    HW110489   4.458   3.592   0.808  0.0650  0.1396 -0.1673
  260SOL    HW210490   4.563   3.469   0.788  0.6761  0.4723  0.9485
  261SOL     OW10491   3.052   2.758   0.028 -0.0000 -0.2993  0.3223
  261SOL    HW110492   3.085   2.705  -0.050 -2.0671 -0.0317 -0.7818
  261SOL    HW210493   3.063   2.855   0.009  0.3297 -0.2564  0.7414
  262SOL     OW10494   3.300   3.441   1.739 -0.0704 -0.4188 -0.0237
  262SOL    HW110495   3.368   3.383   1.694 -0.5374  0.8302 -2.4626
  262SOL    HW210496   3.210   3.400   1.729 -0.5353  1.1127 -2.5922
  263SOL     OW10497   2.954  10.380   0.725  0.4992 -0.1058 -0.1043
  263SOL    HW110498   3.027  10.445   0.705  0.7810 -0.1236  0.8686
  263SOL    HW210499   2.889  10.380   0.649 -0.4445  2.5951  0.6456
  264SOL     OW10500   4.158   3.115   2.196  0.9543  0.2985 -0.5397
  264SOL    HW110501   4.226   3.116   2.122  1.7842  0.3573  0.2181
  264SOL    HW210502   4.175   3.191   2.258  0.9505 -0.3960  0.3269
  265SOL     OW10503   3.763   2.068   1.944 -0.3365  0.9191 -0.1653
  265SOL    HW110504   3.750   2.153   1.892 -0.4223  0.8927 -0.1877
  265SOL    HW210505   3.847   2.023   1.915  1.4743  2.6806  2.1799
  266SOL     OW10506   3.306   9.517   0.109 -0.4342 -0.4727  0.0330
  266SOL    HW110507   3.284   9.611   0.085  3.3006  0.0260 -1.6616
  266SOL    HW210508   3.401   9.511   0.138 -1.2749 -3.3502  2.4252
  267SOL     OW10509   2.754   0.992   1.111 -0.0922  0.1871 -0.1016
  267SOL    HW110510   2.825   0.992   1.182 -0.3735 -0.7981  0.1771
  267SOL    HW210511   2.735   0.899   1.082  0.0249  0.5842 -1.4903
  268SOL     OW10512   3.690   9.189   1.353 -0.3173 -0.0460  0.0357
  268SOL    HW110513   3.621   9.168   1.422  0.5802  2.2988  1.7191
  268SOL    HW210514   3.768   9.127   1.364 -1.0759 -1.0545 -0.2430
  269SOL     OW10515   3.828   2.853   0.451  0.0187  0.1397 -0.0405
  269SOL    HW110516   3.752   2.909   0.483 -0.3414 -1.8390  2.7511
  269SOL    HW210517   3.792   2.773   0.403  0.3384 -0.8218  1.3256
  270SOL     OW10518   3.051   2.196   2.203  0.1143 -0.3807  0.4638
  270SOL    HW110519   2.989   2.242   2.266 -1.6498  0.2751 -1.6875
  270SOL    HW210520   3.016   2.204   2.110  2.1276 -2.2209 -0.4957
  271SOL     OW10521   4.124   2.660   1.636 -0.4811 -0.3609  0.4791
  271SOL    HW110522   4.108   2.566   1.667  0.0778 -0.6026  0.0460
  271SOL    HW210523   4.036   2.707   1.628 -0.6972 -0.5443  1.6191
  272SOL     OW10524   3.325   9.824   1.397  0.4729 -0.5156  0.2174
  272SOL    HW110525   3.275   9.902   1.360 -0.6609 -0.1308  2.5227
  272SOL    HW210526   3.415   9.855   1.428  0.5933 -0.4220 -0.2161
  273SOL     OW10527   3.346  10.157   0.930 -0.5945 -0.3500  0.6683
  273SOL    HW110528   3.432  10.114   0.901 -0.5081  0.5025 -0.3792
  273SOL    HW210529   3.360  10.255   0.941 -1.6637 -0.0516 -0.4783
  274SOL     OW10530   2.789   1.060   1.763 -0.0112  0.0333  0.4460
  274SOL    HW110531   2.711   1.003   1.788 -0.1907  0.6060  1.2045
  274SOL    HW210532   2.768   1.111   1.680 -1.4696  2.1643  2.0496
  275SOL     OW10533   3.316   3.202   1.350  0.4802  0.1975  1.1020
  275SOL    HW110534   3.382   3.275   1.335  0.8213 -0.3900 -0.3878
  275SOL    HW210535   3.265   3.185   1.266 -0.4162 -0.4842  1.7645
  276SOL     OW10536   2.635   4.394   1.377 -0.2535  0.2677 -0.2275
  276SOL    HW110537   2.576   4.434   1.307  1.0011  1.3038 -0.7104
  276SOL    HW210538   2.729   4.425   1.364  0.9601 -3.5272 -1.1610
  277SOL     OW10539   2.916   1.624   1.231 -0.4613  0.1343 -0.0035
  277SOL    HW110540   2.824   1.625   1.270  0.6017  2.6454  2.5563
  277SOL    HW210541   2.947   1.718   1.214  1.4901 -0.6780 -1.1739
  278SOL     OW10542   2.625   1.841   0.639 -0.2375  0.3693 -0.1718
  278SOL    HW110543   2.692   1.852   0.713  1.3180  1.6029 -1.7375
  278SOL    HW210544   2.543   1.894   0.662  0.6780  1.6713  0.1594
  279SOL     OW10545   3.489   2.477   2.549  0.2619 -0.2125  0.1199
  279SOL    HW110546   3.561   2.532   2.508  1.5169 -1.0508  1.1666
  279SOL    HW210547   3.527   2.391   2.583 -1.0587 -0.3002  1.4358
  280SOL     OW10548   4.509   2.708   1.012  0.1072 -0.0192  0.4783
  280SOL    HW110549   4.437   2.705   0.943  0.9648  0.1400 -0.4272
  280SOL    HW210550   4.586   2.762   0.978  2.0655 -2.9448  0.0619
  281SOL     OW10551   3.330   2.550   0.067  0.0178 -0.2741  0.2422
  281SOL    HW110552   3.361   2.510  -0.019  1.1513  0.7961  0.1461
  281SOL    HW210553   3.376   2.637   0.083 -0.7730 -0.0666  1.5471
  282SOL     OW10554   4.331   3.783   0.154  0.0796 -0.0195 -1.0323
  282SOL    HW110555   4.412   3.734   0.184  0.5437  1.2797 -0.0833
  282SOL    HW210556   4.341   3.811   0.059  1.1369  0.8753 -0.6696
  283SOL     OW10557   2.255  10.377   2.618 -0.5749  0.1064  1.0139
  283SOL    HW110558   2.246  10.426   2.532  0.5641 -1.0243  0.2303
  283SOL    HW210559   2.313  10.430   2.681  0.5022 -0.1427  0.2384
  284SOL     OW10560   2.636   3.967   2.261 -0.1518 -0.3014  0.5511
  284SOL    HW110561   2.698   4.043   2.242  0.9893 -1.5554 -0.9797
  284SOL    HW210562   2.652   3.894   2.194 -2.5644 -1.0968  0.7773
  285SOL     OW10563   2.602   3.208   2.556 -0.0365  0.3167  0.0319
  285SOL    HW110564   2.568   3.192   2.649  0.7065 -0.0550  0.2469
  285SOL    HW210565   2.673   3.278   2.558  0.9575 -0.6643 -0.0436
  286SOL     OW10566   3.400   1.864   0.967 -0.4192 -0.0485 -0.9989
  286SOL    HW110567   3.414   1.894   0.873 -2.2535 -0.8232 -1.5318
  286SOL    HW210568   3.334   1.790   0.970 -0.8217  0.3418  0.9552
  287SOL     OW10569   3.248   3.702   1.749 -0.5657  0.0030 -0.2038
  287SOL    HW110570   3.263   3.603   1.759  0.1408  0.0589 -0.6802
  287SOL    HW210571   3.151   3.722   1.762 -0.4579 -0.5409  1.6193
  288SOL     OW10572   3.018   0.633   0.146  0.1292  0.0125 -0.2432
  288SOL    HW110573   3.002   0.537   0.166  0.6764 -0.2933 -1.2288
  288SOL    HW210574   3.111   0.644   0.111 -0.1130  0.8250 -0.6414
  289SOL     OW10575   4.468   3.494   2.577  0.0675  0.3607 -0.0051
  289SOL    HW110576   4.484   3.425   2.506 -1.0406  0.0357  0.0431
  289SOL    HW210577   4.379   3.477   2.620 -0.5533  2.2729 -0.5074
  290SOL     OW10578   4.762   2.471   1.071  0.0659  0.2130  0.1051
  290SOL    HW110579   4.828   2.400   1.045 -0.8986 -1.2500  1.5453
  290SOL    HW210580   4.678   2.428   1.104 -2.0394  2.0350 -2.6370
  291SOL     OW10581   2.921   3.627   2.277  0.2913  0.2836  0.4140
  291SOL    HW110582   2.870   3.636   2.362  0.7194  1.4350  0.5491
  291SOL    HW210583   2.864   3.579   2.209 -0.7275  0.9901  0.7628
  292SOL     OW10584   4.180   3.142   0.546 -0.4332  0.1580 -0.1627
  292SOL    HW110585   4.185   3.104   0.638 -1.4291  0.8386  0.1775
  292SOL    HW210586   4.252   3.102   0.489  1.6745  1.4078  1.5451
  293SOL     OW10587   4.074   1.238   0.036  0.4995  0.3638  0.6816
  293SOL    HW110588   4.161   1.276   0.005  0.6974 -0.2887  0.4388
  293SOL    HW210589   4.088   1.181   0.117  0.3644 -0.1021  0.3802
  294SOL     OW10590   2.885   5.351   0.796  0.7442 -0.1066  0.0530
  294SOL    HW110591   2.965   5.407   0.819  1.9918 -2.6745  2.2104
  294SOL    HW210592   2.835   5.328   0.880 -0.0295 -1.8058 -0.8473
  295SOL     OW10593   4.076   1.259   1.855  0.4213  0.5558  0.3351
  295SOL    HW110594   4.033   1.236   1.768  1.8579 -0.1914 -0.1885
  295SOL    HW210595   4.146   1.328   1.840 -0.0564  1.2132  1.0728
  296SOL     OW10596   3.182   0.914   0.134  0.0247  0.1560 -0.1940
  296SOL    HW110597   3.151   0.869   0.050 -0.1206 -1.4766  0.7065
  296SOL    HW210598   3.281   0.898   0.144  0.1243  0.7260 -0.2848
  297SOL     OW10599   2.055   1.738   2.654 -0.2170  0.0728 -0.5229
  297SOL    HW110600   2.114   1.800   2.602  0.2156  1.5894  1.7068
  297SOL    HW210601   1.977   1.789   2.690  0.5045 -0.4695  1.9280
  298SOL     OW10602   3.315   0.596   0.112 -0.8166  0.4243  0.0103
  298SOL    HW110603   3.320   0.592   0.212 -2.6434  0.2352  0.1169
  298SOL    HW210604   3.366   0.676   0.079 -0.3180  0.5636  1.0981
  299SOL     OW10605   4.518   3.109   1.788 -0.3195 -0.6110 -0.6409
  299SOL    HW110606   4.497   3.190   1.841 -0.2155 -0.2069 -1.2119
  299SOL    HW210607   4.587   3.131   1.719 -0.2108 -1.2069 -0.7303
  300SOL     OW10608   2.967   3.119   0.268 -0.2146 -0.0625  0.7608
  300SOL    HW110609   3.061   3.141   0.294 -0.1749 -0.9311  1.3808
  300SOL    HW210610   2.952   3.021   0.278 -0.7551 -0.1561 -0.7380
  301SOL     OW10611   2.946   3.380   1.091  0.1997 -0.0686 -0.3512
  301SOL    HW110612   2.907   3.319   1.022  0.0202 -0.2080 -0.1229
  301SOL    HW210613   3.004   3.448   1.045 -1.1885  0.8271 -0.7968
  302SOL     OW10614   2.689   0.567   0.109 -0.0661 -0.2616 -0.3142
  302SOL    HW110615   2.771   0.523   0.070 -0.4282 -1.2619  0.0259
  302SOL    HW210616   2.702   0.666   0.111  1.8397 -0.5120  1.3243
  303SOL     OW10617   3.582   4.722   0.087 -0.2974 -0.2087 -0.0492
  303SOL    HW110618   3.613   4.695  -0.004 -2.0835 -0.5584 -0.5748
  303SOL    HW210619   3.483   4.737   0.085 -0.5118 -1.2154  2.0535
  304SOL     OW10620   3.075   3.518   0.663 -0.0311 -1.2937  0.2537
  304SOL    HW110621   2.981   3.485   0.656 -0.4104 -0.2637  0.3415
  304SOL    HW210622   3.123   3.503   0.577 -0.6319 -0.7767 -0.1748
  305SOL     OW10623   2.647   2.224   1.842 -0.6023 -0.1466 -0.0087
  305SOL    HW110624   2.639   2.262   1.749  0.6118  0.6097  0.1879
  305SOL    HW210625   2.659   2.299   1.907 -0.8292 -0.7221  0.6921
  306SOL     OW10626   4.499   3.500   2.125  0.1243 -0.0039  0.3049
  306SOL    HW110627   4.474   3.570   2.192  2.5779 -1.8676  3.3236
  306SOL    HW210628   4.549   3.542   2.050  2.2035  1.4415  2.4341
  307SOL     OW10629   3.301  10.056   0.655  0.1295  0.1969  0.3530
  307SOL    HW110630   3.321  10.080   0.750 -0.0939  2.6109 -0.1692
  307SOL    HW210631   3.207  10.022   0.648 -0.5653  1.9579  0.7184
  308SOL     OW10632   3.989   2.388  -0.004 -0.9463  0.0770 -0.1434
  308SOL    HW110633   4.072   2.431  -0.040 -1.7817  0.9421 -1.0665
  308SOL    HW210634   4.009   2.294   0.023  0.2526  0.1793 -0.6596
  309SOL     OW10635   4.800   3.054   0.957 -0.0291 -0.2032 -0.8191
  309SOL    HW110636   4.879   3.041   1.018  2.8212 -0.0566 -4.3502
  309SOL    HW210637   4.752   2.967   0.946  0.6255 -0.6773  0.0082
  310SOL     OW10638   3.592   4.342   1.619  0.2522 -0.3204 -0.1276
  310SOL    HW110639   3.665   4.359   1.554 -0.9333  0.2378 -1.3381
  310SOL    HW210640   3.598   4.247   1.652 -0.0169 -1.0737 -2.1946
  311SOL     OW10641   3.296   2.220   2.317 -0.5752 -0.2334 -0.1593
  311SOL    HW110642   3.203   2.211   2.282 -0.9389  0.8050  0.4873
  311SOL    HW210643   3.293   2.236   2.415  0.2021  1.2026 -0.3476
  312SOL     OW10644   3.613   2.690   1.496 -0.3914  0.7281  0.3504
  312SOL    HW110645   3.611   2.788   1.473 -0.2093  0.5432 -0.5091
  312SOL    HW210646   3.700   2.651   1.463 -0.9662  0.0349 -0.3559
  313SOL     OW10647   3.968   3.496   2.041 -0.0269  0.0025 -0.4465
  313SOL    HW110648   3.911   3.576   2.020 -1.0227 -0.7255 -0.5413
  313SOL    HW210649   4.064   3.518   2.025 -0.5172  0.3971 -2.9098
  314SOL     OW10650   3.357   8.738   2.485  0.0180  0.9960  0.4314
  314SOL    HW110651   3.341   8.745   2.584 -1.3400 -2.8900  0.5773
  314SOL    HW210652   3.455   8.744   2.467  0.4515 -0.0274  2.2548
  315SOL     OW10653   1.836   2.281   0.600 -0.0952 -0.1924  0.0181
  315SOL    HW110654   1.811   2.219   0.526 -0.0509  1.2900 -1.2811
  315SOL    HW210655   1.755   2.303   0.654 -1.0491  2.0973 -2.2447
  316SOL     OW10656   2.696   3.535   0.910 -0.0886 -0.2004 -0.2441
  316SOL    HW110657   2.791   3.558   0.892 -0.3240  0.6283 -0.4852
  316SOL    HW210658   2.654   3.498   0.827 -0.0600 -0.2789 -0.2237
  317SOL     OW10659   3.891   1.235   1.226 -0.0462  0.7002  0.4148
  317SOL    HW110660   3.802   1.197   1.204  0.5395 -0.1530 -0.5129
  317SOL    HW210661   3.955   1.162   1.247  0.3979  1.3172  1.2821
  318SOL     OW10662   3.768   1.304   1.627 -0.3275  0.1161 -0.0316
  318SOL    HW110663   3.726   1.361   1.557  0.4815 -0.6425 -1.1426
  318SOL    HW210664   3.705   1.231   1.653 -0.5842  0.3370 -0.0284
  319SOL     OW10665   3.703   3.358   2.428 -0.2492 -0.0233 -0.0274
  319SOL    HW110666   3.662   3.268   2.415 -1.4179  0.6062 -0.7858
  319SOL    HW210667   3.691   3.387   2.523  1.9754 -1.5530  0.7494
  320SOL     OW10668   2.794  10.341   0.512 -0.5489 -0.8900  0.7012
  320SOL    HW110669   2.767  10.423   0.461  0.1757  1.1978  3.4751
  320SOL    HW210670   2.717  10.278   0.518 -0.8598 -0.8626 -2.2592
  321SOL     OW10671   3.561   2.345   0.928 -0.2195  0.5766  0.0357
  321SOL    HW110672   3.464   2.369   0.926  0.1281  2.0936  0.7627
  321SOL    HW210673   3.571   2.250   0.960 -1.5342 -0.1429 -1.6370
  322SOL     OW10674   4.132   2.399   1.751  0.0206  0.6605  0.4391
  322SOL    HW110675   4.129   2.404   1.851 -0.8317  0.3069  0.4366
  322SOL    HW210676   4.076   2.322   1.720  0.5648  0.5591 -0.2930
  323SOL     OW10677   2.605   0.867   0.472  0.3412  0.1746 -0.0249
  323SOL    HW110678   2.612   0.910   0.382  1.1896 -0.3357 -0.2051
  323SOL    HW210679   2.514   0.884   0.510 -0.3327 -0.3773 -1.3812
  324SOL     OW10680   2.429   2.961   1.516  0.2041 -0.2913  0.7408
  324SOL    HW110681   2.494   3.033   1.490  0.4134 -0.5235  0.6279
  324SOL    HW210682   2.367   2.997   1.586 -0.3805  0.3502 -0.0914
  325SOL     OW10683   2.262   2.728   1.774 -0.0737  0.0188 -0.3532
  325SOL    HW110684   2.196   2.654   1.785 -1.1040  0.7111 -1.7690
  325SOL    HW210685   2.340   2.695   1.721  0.3622 -0.5693  0.6291
  326SOL     OW10686   4.743   3.358   1.511  0.0669  0.0990 -0.4779
  326SOL    HW110687   4.794   3.430   1.559  0.1331  0.2346 -0.7549
  326SOL    HW210688   4.767   3.359   1.414  1.8690 -1.8291 -0.0890
  327SOL     OW10689   2.578   0.981   0.215  0.1109 -0.4430  0.3266
  327SOL    HW110690   2.577   1.044   0.137  0.4192 -0.1711  0.5409
  327SOL    HW210691   2.629   0.899   0.191 -0.1383 -0.5367  0.1075
  328SOL     OW10692   3.776   1.143   0.401 -0.2894  0.6447  0.0532
  328SOL    HW110693   3.724   1.188   0.328 -0.4278  0.5813  0.1111
  328SOL    HW210694   3.781   1.203   0.481  0.7173  1.1114 -0.3633
  329SOL     OW10695   3.568   0.957   1.533  0.2704 -0.5747  0.5559
  329SOL    HW110696   3.666   0.940   1.535  0.2034 -0.9287  2.4069
  329SOL    HW210697   3.533   0.959   1.627 -1.5199 -0.6115 -0.0848
  330SOL     OW10698   3.758   0.794   1.074 -0.3232 -0.1387  0.2166
  330SOL    HW110699   3.666   0.786   1.113 -0.5472 -1.6744 -0.5933
  330SOL    HW210700   3.766   0.734   0.994  1.6776 -0.7218  0.8304
  331SOL     OW10701   3.615   2.590   2.025  0.0452  0.2279 -0.3838
  331SOL    HW110702   3.663   2.587   1.937  0.3690  0.2763 -0.2096
  331SOL    HW210703   3.576   2.499   2.045  1.4260 -0.2470  0.2227
  332SOL     OW10704   4.787   4.465   0.714 -0.1936  0.5707 -0.2581
  332SOL    HW110705   4.770   4.495   0.620 -0.5491 -0.2547 -0.4630
  332SOL    HW210706   4.869   4.409   0.717 -1.8082 -1.8957 -0.6117
  333SOL     OW10707   3.118  10.104   1.081  0.2441 -0.3182 -0.2087
  333SOL    HW110708   3.044  10.142   1.025 -0.1789 -0.3713  0.3101
  333SOL    HW210709   3.200  10.095   1.025 -0.4351 -1.2412 -1.0775
  334SOL     OW10710   3.557   9.909   1.482 -0.1166  0.2193  0.4433
  334SOL    HW110711   3.631   9.944   1.425  0.0001  0.8208  0.9603
  334SOL    HW210712   3.570   9.941   1.576 -1.6746  1.2773  0.3046
  335SOL     OW10713   2.646  10.042   0.907 -0.3516  0.4772 -0.2973
  335SOL    HW110714   2.582  10.117   0.890 -1.6993 -0.7214 -0.6087
  335SOL    HW210715   2.606   9.957   0.873  1.6614 -0.1960 -0.9886
  336SOL     OW10716   4.179   4.227   0.829 -0.4012  0.6526  0.2313
  336SOL    HW110717   4.257   4.189   0.779 -2.0680 -1.1150 -1.1253
  336SOL    HW210718   4.129   4.290   0.770 -0.6353  0.9196  0.7126
  337SOL     OW10719   2.621   1.864   2.429  0.2327  0.4109  0.6297
  337SOL    HW110720   2.608   1.789   2.365  0.4434  1.3739 -0.5793
  337SOL    HW210721   2.558   1.855   2.506 -0.8052 -0.1651 -0.2820
  338SOL     OW10722   2.844   1.646   0.272 -0.4034 -0.3894 -0.6412
  338SOL    HW110723   2.931   1.694   0.273 -0.1345 -0.8882 -0.0606
  338SOL    HW210724   2.860   1.548   0.265 -0.9677 -0.3483 -2.8306
  339SOL     OW10725   2.341   9.042   2.493  0.0831 -0.0584  0.6561
  339SOL    HW110726   2.258   9.072   2.446  0.2383 -0.7449 -0.0818
  339SOL    HW210727   2.417   9.103   2.469 -0.0957  0.2764  0.9354
  340SOL     OW10728   3.709   4.643   2.572  0.2279 -0.2353 -0.2721
  340SOL    HW110729   3.806   4.641   2.547  0.0825  0.7968 -0.9380
  340SOL    HW210730   3.661   4.572   2.522  0.4185  0.0783 -0.9063
  341SOL     OW10731   2.241   2.991   1.704  0.3575 -0.0973  0.1586
  341SOL    HW110732   2.155   3.020   1.747  0.3891  0.8721 -0.4060
  341SOL    HW210733   2.256   2.894   1.721  0.2283  0.1981  2.1089
  342SOL     OW10734   2.521  10.159   2.150 -0.0624  1.0927 -0.0631
  342SOL    HW110735   2.609  10.202   2.129  0.2034  0.3027 -0.5915
  342SOL    HW210736   2.530  10.060   2.139 -1.3887  1.1134 -1.4451
  343SOL     OW10737   4.134   5.027   0.463  0.2119  0.1557  0.9880
  343SOL    HW110738   4.081   4.964   0.407  0.3713  0.2885  0.6874
  343SOL    HW210739   4.089   5.116   0.464  2.3772  1.3638 -2.3596
  344SOL     OW10740   3.154  10.404   2.657 -0.4396  0.1185  0.2728
  344SOL    HW110741   3.198  10.471   2.717 -0.1697  0.3941 -0.2324
  344SOL    HW210742   3.186  10.417   2.564 -0.0207 -1.0356  0.2490
  345SOL     OW10743   3.390   2.890   1.651  0.0423  0.8544 -0.1286
  345SOL    HW110744   3.327   2.963   1.626 -0.5120  0.8940  1.3482
  345SOL    HW210745   3.415   2.898   1.747 -1.3145 -1.8469  0.5085
  346SOL     OW10746   3.387   4.820   0.551 -0.6830 -0.0673  0.4638
  346SOL    HW110747   3.426   4.851   0.638 -3.0841 -0.0424  1.5649
  346SOL    HW210748   3.389   4.896   0.485  0.4921  0.1304  0.7204
  347SOL     OW10749   2.627   2.203   0.693 -0.7336  0.3235  0.4731
  347SOL    HW110750   2.560   2.186   0.621 -0.5447  0.6858  0.2110
  347SOL    HW210751   2.624   2.128   0.760  0.7460 -1.1982 -1.1277
  348SOL     OW10752   4.185   1.627   1.184 -0.4629  0.1379  0.3462
  348SOL    HW110753   4.211   1.706   1.127  1.8798 -1.3228 -0.6859
  348SOL    HW210754   4.093   1.597   1.159 -0.7571  1.5734 -0.3435
  349SOL     OW10755   2.394   1.339   1.532 -0.5310 -0.3319 -0.1286
  349SOL    HW110756   2.423   1.422   1.580 -0.3102 -1.0230  0.9425
  349SOL    HW210757   2.389   1.357   1.434 -1.1092  1.1331  0.1599
  350SOL     OW10758   4.874   2.738   1.185 -0.4700 -0.1191 -0.1813
  350SOL    HW110759   4.849   2.715   1.279 -0.8588 -0.2360 -0.3118
  350SOL    HW210760   4.872   2.655   1.128  0.7783 -0.2267 -0.0691
  351SOL     OW10761   2.772   8.263   2.437 -0.3585  0.6423  0.1527
  351SOL    HW110762   2.870   8.280   2.432 -0.4191  0.5885 -1.8025
  351SOL    HW210763   2.755   8.173   2.477  0.3983  0.5777  0.3207
  352SOL     OW10764   3.719   4.275   0.401 -0.6697 -0.0578 -0.1488
  352SOL    HW110765   3.659   4.204   0.439 -0.6549 -0.6367 -1.1793
  352SOL    HW210766   3.684   4.304   0.312  0.6866 -0.5738 -0.8766
  353SOL     OW10767   3.574   3.835   2.479 -0.2571 -0.1981  0.6458
  353SOL    HW110768   3.626   3.804   2.558 -0.5440  0.0972  0.9484
  353SOL    HW210769   3.587   3.770   2.404 -0.0991 -0.5507  0.9758
  354SOL     OW10770   4.626   1.849   0.597 -0.3405 -0.2839  0.0152
  354SOL    HW110771   4.534   1.811   0.601 -1.6563  2.7725 -0.1924
  354SOL    HW210772   4.636   1.919   0.668  0.8416  1.4660 -1.8573
  355SOL     OW10773   3.578   4.488   1.897  0.2251  0.3893  0.1999
  355SOL    HW110774   3.491   4.440   1.908  0.1293  0.6293  0.4881
  355SOL    HW210775   3.625   4.453   1.816 -0.6776  1.0968 -0.6357
  356SOL     OW10776   3.631   3.832   0.612  0.1896  0.3877 -0.0169
  356SOL    HW110777   3.581   3.806   0.695  0.3755 -0.3702 -0.1392
  356SOL    HW210778   3.628   3.757   0.547 -0.6571  1.2879 -1.0315
  357SOL     OW10779   3.008   3.838   2.074  0.2550 -0.3068  0.3772
  357SOL    HW110780   2.992   3.801   1.982 -2.0203 -0.7400  0.9108
  357SOL    HW210781   3.000   3.764   2.141 -0.1745  0.3876  1.0981
  358SOL     OW10782   3.044   8.314   2.441  0.6862 -0.4546  0.1661
  358SOL    HW110783   3.092   8.254   2.505 -0.1339 -1.4040 -0.0936
  358SOL    HW210784   3.110   8.354   2.377  1.0596 -2.3606 -0.6924
  359SOL     OW10785   3.708   4.931   2.552 -0.6587 -0.2316  0.4988
  359SOL    HW110786   3.620   4.926   2.504 -0.0446 -0.6032 -0.6192
  359SOL    HW210787   3.727   4.844   2.597  0.0226 -0.8290 -0.8952
  360SOL     OW10788   2.998   1.883   1.382  0.3676  0.0003 -0.0805
  360SOL    HW110789   3.040   1.952   1.442 -0.5960  0.4708  0.0696
  360SOL    HW210790   3.034   1.893   1.290  0.5396  0.4454  0.0311
  361SOL     OW10791   3.956   4.510   2.517 -0.3283  0.0524  0.9388
  361SOL    HW110792   4.012   4.548   2.591  1.1922  2.4502 -1.3524
  361SOL    HW210793   3.976   4.413   2.506  0.3637 -0.0329  2.8232
  362SOL     OW10794   2.770   1.403   1.638 -0.2247 -0.0269  0.3157
  362SOL    HW110795   2.790   1.373   1.545 -1.1927  2.4903 -0.7336
  362SOL    HW210796   2.678   1.442   1.642 -0.0411  0.2621  2.2453
  363SOL     OW10797   3.016   9.300   1.992 -0.7588  0.3134 -0.5008
  363SOL    HW110798   3.042   9.204   2.006 -0.3485  0.5385  0.3183
  363SOL    HW210799   3.096   9.352   1.961 -0.7346  0.5846  0.0034
  364SOL     OW10800   4.103   1.861   2.142 -0.1997 -0.3569  0.5675
  364SOL    HW110801   4.061   1.869   2.051  0.3577 -1.8657  0.1717
  364SOL    HW210802   4.060   1.787   2.192 -2.5028  2.3012  2.6770
  365SOL     OW10803   3.064   1.473   2.564  0.4729 -0.5054 -0.0714
  365SOL    HW110804   3.135   1.457   2.495  1.6353 -0.1689  1.0445
  365SOL    HW210805   2.996   1.537   2.526  1.5845  0.3953 -0.5893
  366SOL     OW10806   4.001   3.850   1.190 -0.4730  0.0234 -0.0066
  366SOL    HW110807   4.010   3.892   1.280  0.0643  0.7825 -0.4035
  366SOL    HW210808   3.950   3.765   1.197  1.7268 -1.2140  1.3954
  367SOL     OW10809   3.694   2.521   0.737  0.0183 -0.1131  0.1086
  367SOL    HW110810   3.611   2.577   0.739  0.8406  1.0792  0.5604
  367SOL    HW210811   3.682   2.441   0.796 -1.4613 -0.8823 -1.1777
  368SOL     OW10812   3.283   4.192   2.088 -0.3359 -0.0946 -0.3779
  368SOL    HW110813   3.310   4.243   2.006  0.2052 -0.1268 -0.2227
  368SOL    HW210814   3.342   4.113   2.099 -0.8249 -0.4555 -0.3134
  369SOL     OW10815   3.825   3.921   1.689 -0.4398 -0.2796 -0.4296
  369SOL    HW110816   3.756   3.994   1.690  0.7391  0.8830  1.9362
  369SOL    HW210817   3.871   3.919   1.778  1.9610 -1.6147 -1.6707
  370SOL     OW10818   3.429   2.690   0.840  0.3443 -0.8323 -0.1133
  370SOL    HW110819   3.380   2.602   0.835 -0.3211 -0.6764  2.9060
  370SOL    HW210820   3.477   2.696   0.927  0.1096  1.9449 -0.1439
  371SOL     OW10821   2.923   2.835   1.843  0.0896 -0.2827  0.3656
  371SOL    HW110822   2.963   2.843   1.752  0.3671  0.2354  0.5312
  371SOL    HW210823   2.914   2.738   1.867 -0.0399 -0.4218 -0.2325
  372SOL     OW10824   2.778   2.856   2.406 -0.5720 -0.2403 -0.1770
  372SOL    HW110825   2.828   2.936   2.372  0.0720 -0.9683 -0.9555
  372SOL    HW210826   2.680   2.874   2.402 -0.3930  1.2383  1.4439
  373SOL     OW10827   2.911   8.537   1.452  0.9978 -0.2414 -0.2592
  373SOL    HW110828   2.959   8.543   1.364 -0.3576 -0.0704 -1.0019
  373SOL    HW210829   2.965   8.483   1.516  0.4488 -3.3330 -2.2772
  374SOL     OW10830   2.519  10.341   1.378  0.7346  0.8937  0.4391
  374SOL    HW110831   2.584  10.413   1.404 -0.6380  2.2594  0.1644
  374SOL    HW210832   2.564  10.277   1.316  2.2535  0.9695  1.4165
  375SOL     OW10833   2.372   4.176   1.334  0.3613 -0.4176  0.0758
  375SOL    HW110834   2.466   4.200   1.359  0.3678 -0.1009 -0.2412
  375SOL    HW210835   2.372   4.119   1.253  0.2618 -0.0463 -0.1904
  376SOL     OW10836   2.428   1.232   2.398 -0.2215 -0.0489 -0.0319
  376SOL    HW110837   2.342   1.182   2.393  0.6231 -1.4107 -1.1964
  376SOL    HW210838   2.478   1.222   2.312  1.8701 -0.6774  1.2245
  377SOL     OW10839   3.392   1.072   2.385  0.7131 -0.0755 -0.4097
  377SOL    HW110840   3.446   1.155   2.378 -0.8370  0.8389 -2.3447
  377SOL    HW210841   3.320   1.084   2.453 -1.1054  1.1805 -2.4718
  378SOL     OW10842   4.195   1.418   0.896 -0.6394  0.0107  0.1921
  378SOL    HW110843   4.193   1.355   0.974  1.6152  0.4378  0.6210
  378SOL    HW210844   4.187   1.366   0.811 -1.5864 -0.5904  0.6435
  379SOL     OW10845   3.906   3.446   0.198 -0.1028  0.1134 -0.5592
  379SOL    HW110846   3.934   3.505   0.122  1.9957 -1.0745 -0.7314
  379SOL    HW210847   3.986   3.416   0.249 -1.2847 -1.1848  0.5803
  380SOL     OW10848   2.817   0.811   0.141 -0.2536  0.3813 -0.0887
  380SOL    HW110849   2.889   0.742   0.146  0.4054  1.0769  0.0573
  380SOL    HW210850   2.858   0.901   0.127 -1.0052  0.9729  1.4570
  381SOL     OW10851   3.481   2.358   2.054 -0.5231  0.8007  0.4070
  381SOL    HW110852   3.410   2.407   2.003  0.3335 -0.9840 -2.6274
  381SOL    HW210853   3.442   2.274   2.092 -0.5523  0.9110  0.6239
  382SOL     OW10854   3.638   3.432   0.280 -0.1524 -0.3797  0.0981
  382SOL    HW110855   3.645   3.508   0.344 -0.6601 -1.9690  2.0758
  382SOL    HW210856   3.726   3.416   0.237  0.4539  0.0376  1.1789
  383SOL     OW10857   2.329   0.566   1.581  0.2450  0.1960 -0.6803
  383SOL    HW110858   2.349   0.469   1.595  2.9175  1.0179  1.6458
  383SOL    HW210859   2.235   0.585   1.611  0.2574 -1.3653  0.4049
  384SOL     OW10860   3.055   4.819   1.940 -0.3550  0.1015 -0.8593
  384SOL    HW110861   3.145   4.803   1.900  1.3429  2.6927  1.7290
  384SOL    HW210862   3.010   4.895   1.892 -0.8389 -0.6124 -1.5669
  385SOL     OW10863   3.295   1.443   2.385 -0.0840  0.6652 -0.1050
  385SOL    HW110864   3.374   1.384   2.399  0.7334  1.6986 -0.3391
  385SOL    HW210865   3.284   1.463   2.288 -0.3335  0.9359 -0.0234
  386SOL     OW10866   3.476   3.290   1.955 -0.2385  0.1756 -0.0695
  386SOL    HW110867   3.461   3.377   2.003  1.8117  0.1188  0.7031
  386SOL    HW210868   3.499   3.220   2.022 -0.1878 -0.5729 -0.8747
  387SOL     OW10869   3.757   2.364   1.299 -0.6554 -0.9304  0.5812
  387SOL    HW110870   3.717   2.296   1.361  2.0316 -1.6296  1.6483
  387SOL    HW210871   3.817   2.318   1.234 -1.1178  0.1356 -0.6010
  388SOL     OW10872   2.540   3.947   1.863  0.0846  0.2503  0.2023
  388SOL    HW110873   2.470   3.972   1.929 -0.8944  0.6533 -0.9757
  388SOL    HW210874   2.597   4.027   1.844  1.1933 -0.1997  1.5239
  389SOL     OW10875   2.400   1.212   1.034  0.2944 -0.0130 -0.1556
  389SOL    HW110876   2.412   1.189   0.937  0.7921  1.4185 -0.4481
  389SOL    HW210877   2.392   1.128   1.088  2.6379 -0.8638 -1.0998
  390SOL     OW10878   4.556   3.288   0.570  0.1690  0.3058  0.2160
  390SOL    HW110879   4.525   3.208   0.623  0.8755  0.0890  0.2994
  390SOL    HW210880   4.613   3.346   0.628 -1.4418  1.5722  0.5603
  391SOL     OW10881   4.200   4.014   1.525 -0.1207 -0.1683  0.1036
  391SOL    HW110882   4.269   4.036   1.457 -0.3044 -0.7323 -0.2733
  391SOL    HW210883   4.200   4.083   1.597 -1.8998  2.0473 -1.9506
  392SOL     OW10884   2.496   2.343   0.967 -0.3092  0.4372 -1.1265
  392SOL    HW110885   2.585   2.313   0.932 -0.9092  0.3626 -2.6310
  392SOL    HW210886   2.433   2.266   0.969 -1.0316  0.9876 -2.3263
  393SOL     OW10887   2.367   0.698   0.739 -0.3446 -0.4012 -0.1851
  393SOL    HW110888   2.462   0.714   0.711 -0.2744  0.0861  0.3160
  393SOL    HW210889   2.362   0.696   0.839 -1.0353  0.7195 -0.1885
  394SOL     OW10890   3.431   9.295   0.686  0.6901 -0.2282  0.4418
  394SOL    HW110891   3.481   9.380   0.700  1.7214 -1.1430  2.7388
  394SOL    HW210892   3.491   9.228   0.642 -0.1424  0.2547 -1.4330
  395SOL     OW10893   2.753   3.991   1.122  0.4442 -0.0647  0.0687
  395SOL    HW110894   2.694   3.914   1.097 -1.6450  1.3083  0.6213
  395SOL    HW210895   2.724   4.028   1.210  2.4630  0.3445  0.5809
  396SOL     OW10896   2.521   9.707   1.881 -0.4223 -0.3424  0.4280
  396SOL    HW110897   2.516   9.618   1.926 -0.9735 -1.0902 -1.0833
  396SOL    HW210898   2.495   9.698   1.785 -1.5730  1.6472  0.5177
  397SOL     OW10899   3.170   1.268   0.640 -0.4668  0.7815 -0.3875
  397SOL    HW110900   3.172   1.179   0.595 -2.0090  0.1445  0.7828
  397SOL    HW210901   3.117   1.332   0.584  1.9950  1.4539 -2.0406
  398SOL     OW10902   2.573   3.028   0.456 -0.2572 -0.1079 -0.2115
  398SOL    HW110903   2.628   3.112   0.462 -0.4301 -0.0376  0.3474
  398SOL    HW210904   2.555   3.008   0.360  0.4505  0.0634 -0.3886
  399SOL     OW10905   2.455   8.546   2.546  0.2663  0.2803 -0.3081
  399SOL    HW110906   2.487   8.492   2.468  0.4443  1.3076 -0.9502
  399SOL    HW210907   2.375   8.600   2.519 -0.2724 -0.1072  0.4980
  400SOL     OW10908   4.328   1.031   1.219  0.4034  0.2322  0.0523
  400SOL    HW110909   4.384   0.951   1.197  1.2120  0.9449 -0.4727
  400SOL    HW210910   4.383   1.114   1.213 -0.4912  0.8623  0.3730
  401SOL     OW10911   2.508   8.521   0.639  0.5460  0.2656  0.0244
  401SOL    HW110912   2.588   8.581   0.639 -0.2016  1.2702  0.3392
  401SOL    HW210913   2.527   8.441   0.582  1.7403  0.5326  0.0216
  402SOL     OW10914   2.828   8.135   2.050 -0.1853 -0.2075  0.1792
  402SOL    HW110915   2.793   8.183   2.131  2.1547 -0.3030  1.2857
  402SOL    HW210916   2.861   8.045   2.077  0.0911 -0.4616 -1.0076
  403SOL     OW10917   3.359   9.433   1.998 -0.0346  0.3214  0.4139
  403SOL    HW110918   3.341   9.374   2.077  0.2246 -2.1013 -1.2608
  403SOL    HW210919   3.442   9.401   1.951 -1.9524 -0.3756 -2.6714
  404SOL     OW10920   3.482   1.933   0.701 -0.9215  0.6200  0.0321
  404SOL    HW110921   3.517   1.856   0.649 -0.6167  0.1031  0.9936
  404SOL    HW210922   3.521   2.018   0.666 -1.7707  0.4049 -1.4596
  405SOL     OW10923   2.315   8.997   0.064 -0.0787  0.1322 -0.1534
  405SOL    HW110924   2.330   9.000  -0.035  1.3465  0.5052  0.0694
  405SOL    HW210925   2.259   8.917   0.086 -0.6509  0.2056 -1.2899
  406SOL     OW10926   3.342   0.837   1.708  0.1527 -0.3491 -0.8375
  406SOL    HW110927   3.306   0.930   1.713  0.6766 -0.0823 -1.8124
  406SOL    HW210928   3.335   0.793   1.797 -1.5984  0.0538 -0.7622
  407SOL     OW10929   2.645   2.849   1.982 -0.3912  0.1524 -0.5394
  407SOL    HW110930   2.741   2.852   1.954 -0.7953  0.0610 -1.9687
  407SOL    HW210931   2.635   2.786   2.060  0.5672 -0.5123 -0.9399
  408SOL     OW10932   4.528   3.667   1.263 -0.1380 -0.0400  0.4539
  408SOL    HW110933   4.479   3.753   1.250 -1.0670 -0.4981  0.9098
  408SOL    HW210934   4.495   3.599   1.197 -0.3632 -0.4578  0.9999
  409SOL     OW10935   3.245   3.113   1.584 -0.4270  0.0352  0.0151
  409SOL    HW110936   3.199   3.192   1.627 -0.7847  1.1244 -2.2880
  409SOL    HW210937   3.283   3.141   1.496  0.6729 -2.0480 -0.1881
  410SOL     OW10938   3.296   2.443   0.908 -0.0550 -0.3177  0.3501
  410SOL    HW110939   3.271   2.494   0.991 -2.8648 -0.1183 -0.5730
  410SOL    HW210940   3.215   2.395   0.873  1.1822 -0.6417 -2.1345
  411SOL     OW10941   2.683  10.028   2.416 -0.1281  0.1758  0.1205
  411SOL    HW110942   2.775  10.050   2.449  0.1621 -0.4889 -0.2188
  411SOL    HW210943   2.616  10.083   2.465  0.5412  1.5890 -0.5191
  412SOL     OW10944   2.423  10.364   1.880  0.4919 -0.4692 -0.3229
  412SOL    HW110945   2.507  10.316   1.903  0.7935 -0.7653 -1.9565
  412SOL    HW210946   2.380  10.321   1.800 -0.4958  0.4998 -0.3380
  413SOL     OW10947   3.763   3.448   0.618 -0.0313 -0.0399  1.1878
  413SOL    HW110948   3.842   3.391   0.638  0.2981 -0.4961 -1.2506
  413SOL    HW210949   3.699   3.397   0.561 -0.1437  1.7045 -0.2820
  414SOL     OW10950   4.181   1.416   1.536  0.4791 -0.9176 -0.0272
  414SOL    HW110951   4.153   1.329   1.576  1.8360 -2.2439 -1.8774
  414SOL    HW210952   4.231   1.399   1.451 -0.0484  1.7172 -0.9044
  415SOL     OW10953   3.119   2.617   2.505  0.3252 -0.7244 -0.1755
  415SOL    HW110954   3.187   2.568   2.451 -0.4330 -1.4730 -0.4571
  415SOL    HW210955   3.027   2.589   2.478 -0.1048  0.1566  0.3154
  416SOL     OW10956   3.759   4.096   0.986  0.1045 -0.4253 -0.3967
  416SOL    HW110957   3.717   4.022   0.934  0.7973 -1.4644  0.5081
  416SOL    HW210958   3.859   4.088   0.982  0.1699 -0.0990  0.5063
  417SOL     OW10959   4.705   2.829   0.833  0.3549  0.3796 -0.2540
  417SOL    HW110960   4.606   2.821   0.815 -0.1408 -0.1569  2.4556
  417SOL    HW210961   4.748   2.740   0.818  0.0742  0.1158  0.4753
  418SOL     OW10962   5.021   3.497   1.348 -0.0100 -0.3057  0.1833
  418SOL    HW110963   5.016   3.425   1.279  0.4331 -1.3652  1.2356
  418SOL    HW210964   4.949   3.564   1.332 -0.7302 -1.2416 -0.5235
  419SOL     OW10965   3.975   2.772   0.685  0.1417  0.3005  0.0276
  419SOL    HW110966   3.910   2.794   0.612 -0.5277 -1.3620  0.1106
  419SOL    HW210967   3.961   2.835   0.762 -0.7790  0.5023 -0.3019
  420SOL     OW10968   3.947   2.240   1.136 -0.1341  0.0280 -0.2522
  420SOL    HW110969   3.919   2.156   1.090  0.0700 -0.2032  0.0440
  420SOL    HW210970   3.955   2.314   1.068 -0.9518 -0.0264 -0.4146
  421SOL     OW10971   4.143   1.180   0.309  0.0205  0.3449  0.0711
  421SOL    HW110972   4.214   1.230   0.358  0.9637 -0.8804 -0.0136
  421SOL    HW210973   4.101   1.114   0.372  0.5387 -0.5242 -0.4824
  422SOL     OW10974   3.093   4.052   2.220  0.5404  0.1937  0.7987
  422SOL    HW110975   3.057   3.977   2.164  0.3905 -0.5477  1.8647
  422SOL    HW210976   3.151   4.111   2.163 -1.9592  1.1514 -0.8396
  423SOL     OW10977   2.539  10.199   2.633 -0.6275 -0.3355  0.3159
  423SOL    HW110978   2.508  10.294   2.628  1.0499  0.2701  1.1223
  423SOL    HW210979   2.464  10.142   2.666 -0.9781  1.0476  1.9765
  424SOL     OW10980   2.496   1.369   0.618  0.2802  0.4880  0.4566
  424SOL    HW110981   2.454   1.365   0.528  0.0669 -1.7825  0.6393
  424SOL    HW210982   2.596   1.371   0.609  0.3248 -1.6896  0.1813
  425SOL     OW10983   4.052   3.526   1.593 -0.7026  0.2422 -0.3817
  425SOL    HW110984   4.072   3.619   1.624  1.3499  0.5012 -2.3325
  425SOL    HW210985   3.984   3.530   1.519 -0.1806  0.2578 -0.8659
  426SOL     OW10986   3.719   4.666   1.483 -0.2470 -0.2565  0.1077
  426SOL    HW110987   3.630   4.686   1.523 -0.1849 -3.0188  1.7778
  426SOL    HW210988   3.711   4.586   1.423  1.0920 -0.4998  0.2380
  427SOL     OW10989   3.465   2.556   1.681  0.0897  0.2205  0.3441
  427SOL    HW110990   3.429   2.608   1.758 -0.9927 -0.4394  0.2892
  427SOL    HW210991   3.494   2.619   1.609 -0.8123  0.7639  0.4486
  428SOL     OW10992   2.654   0.740   0.684 -0.6641  0.1189  0.0745
  428SOL    HW110993   2.749   0.709   0.690 -0.6822  0.1437  0.4883
  428SOL    HW210994   2.636   0.775   0.592 -0.4787 -0.5755 -0.2299
  429SOL     OW10995   3.116  10.075   0.001  0.0824  0.0174  0.0966
  429SOL    HW110996   3.154   9.993  -0.042 -0.4777 -1.2458  1.9624
  429SOL    HW210997   3.084  10.138  -0.070  2.3044 -0.4825 -1.4166
  430SOL     OW10998   3.095   9.017   1.713  0.1634 -0.3947 -0.0068
  430SOL    HW110999   3.060   9.107   1.686  0.9334  0.6583  2.4076
  430SOL    HW211000   3.025   8.969   1.766  0.5870 -0.2687  0.6735
  431SOL     OW11001   3.475   1.204   2.617  0.1760 -0.2757 -0.7546
  431SOL    HW111002   3.537   1.152   2.675  0.0527 -1.4295 -1.6241
  431SOL    HW211003   3.382   1.201   2.655  0.1451 -0.8100 -0.8701
  432SOL     OW11004   3.677   1.803   1.886 -0.6741  0.6355  0.4779
  432SOL    HW111005   3.688   1.902   1.875 -2.2817  0.8055  0.1695
  432SOL    HW211006   3.724   1.773   1.969 -0.0629  1.6338  0.5033
  433SOL     OW11007   2.365  10.289   1.609 -0.2733  0.1748  0.0811
  433SOL    HW111008   2.441  10.290   1.543 -0.6771  0.4195 -0.3818
  433SOL    HW211009   2.299  10.219   1.582 -1.6360  1.9008 -1.1430
  434SOL     OW11010   2.315   2.186   0.138 -0.2969 -0.2451 -0.5299
  434SOL    HW111011   2.401   2.236   0.140 -0.4533  0.0081  0.0521
  434SOL    HW211012   2.320   2.108   0.200 -0.1184 -0.8459 -1.2997
  435SOL     OW11013   3.063   4.858   0.195 -0.6752  0.0456  0.3744
  435SOL    HW111014   3.087   4.787   0.262 -0.2663 -0.7681 -0.6198
  435SOL    HW211015   3.073   4.948   0.237  0.9814 -0.4006  0.9767
  436SOL     OW11016   1.824   1.578   2.599  0.2890 -0.3084  0.0910
  436SOL    HW111017   1.904   1.632   2.626  0.3292 -0.0894 -0.4559
  436SOL    HW211018   1.849   1.518   2.523  0.6793 -2.2892  1.7522
  437SOL     OW11019   3.227   1.211   0.014  0.1386 -0.0164  0.2439
  437SOL    HW111020   3.172   1.294   0.003 -0.5342 -0.6198 -0.9107
  437SOL    HW211021   3.218   1.178   0.108 -1.4566 -0.1092  0.0654
  438SOL     OW11022   4.423   2.765   0.770  0.1086  0.0575  0.4230
  438SOL    HW111023   4.437   2.743   0.674 -0.8954 -1.4479  0.6048
  438SOL    HW211024   4.358   2.841   0.777  2.2758  1.9881 -0.1567
  439SOL     OW11025   3.526   4.718   1.732  0.4303  0.0481  0.3130
  439SOL    HW111026   3.602   4.776   1.761 -1.1197  1.2684  2.0386
  439SOL    HW211027   3.539   4.626   1.771  0.6341  0.4538  1.2174
  440SOL     OW11028   3.678   9.913   2.299 -0.2630 -0.4245  0.1900
  440SOL    HW111029   3.740   9.839   2.325 -0.5881 -0.3407  1.2146
  440SOL    HW211030   3.604   9.876   2.243  0.6584 -0.5334 -0.9788
  441SOL     OW11031   2.973   3.283   0.048  0.4492 -0.5323 -0.0010
  441SOL    HW111032   2.958   3.209   0.113  1.3049 -0.7295 -0.0134
  441SOL    HW211033   3.055   3.263  -0.006 -0.0522 -0.2001 -0.8986
  442SOL     OW11034   3.059   2.087   1.942 -0.1505  0.5806 -0.4317
  442SOL    HW111035   2.973   2.045   1.914  0.5615 -1.2113 -0.0029
  442SOL    HW211036   3.112   2.021   1.996  0.4284  2.4782  1.3796
  443SOL     OW11037   4.427   4.090   1.408 -0.5533  0.3530  0.6394
  443SOL    HW111038   4.513   4.069   1.455 -1.1498 -0.9045  1.1851
  443SOL    HW211039   4.439   4.172   1.352  1.9468 -1.5792 -1.7890
  444SOL     OW11040   3.284  10.083   0.389  0.5494  0.0306  0.2128
  444SOL    HW111041   3.304  10.070   0.486  1.0707  1.6551  0.3361
  444SOL    HW211042   3.185  10.093   0.376  0.4249 -0.8021  0.4915
  445SOL     OW11043   3.409   1.156   1.341 -0.1559 -0.1336  0.3791
  445SOL    HW111044   3.477   1.214   1.295 -0.0331 -0.5938 -0.0305
  445SOL    HW211045   3.454   1.106   1.415 -0.1296 -0.1605  0.3452
  446SOL     OW11046   2.588   1.675   0.390  0.1651  0.4038  0.7268
  446SOL    HW111047   2.682   1.661   0.359  0.1654  0.4579  0.7030
  446SOL    HW211048   2.587   1.735   0.470  0.1011  0.9848  0.3020
  447SOL     OW11049   4.275   4.324   0.197 -0.8709 -0.0570 -0.9850
  447SOL    HW111050   4.179   4.342   0.220 -0.1102  2.6518  0.4024
  447SOL    HW211051   4.326   4.303   0.281  0.0148  0.0176 -1.4938
  448SOL     OW11052   3.302   8.469   0.019 -0.4066 -0.1343  0.0650
  448SOL    HW111053   3.332   8.540  -0.045  0.5005 -0.9013 -0.3669
  448SOL    HW211054   3.328   8.379  -0.017  0.4444 -0.5468  1.6935
  449SOL     OW11055   2.197   1.921   0.871  0.1406  0.1865  0.2744
  449SOL    HW111056   2.107   1.921   0.915 -0.9430  0.4080 -1.8829
  449SOL    HW211057   2.241   1.833   0.885  0.2857  0.5862  2.6685
  450SOL     OW11058   2.974   3.862   1.592 -0.1080  0.7459 -0.0233
  450SOL    HW111059   2.999   3.958   1.608  0.0253  0.4439  1.6644
  450SOL    HW211060   2.946   3.851   1.497  2.8143  1.8029 -1.0647
  451SOL     OW11061   4.089   2.129   2.258  0.0619 -0.8034  0.4625
  451SOL    HW111062   4.066   2.041   2.217  0.9196 -1.0728  0.5584
  451SOL    HW211063   4.187   2.134   2.275 -0.1271 -0.2523  1.4426
  452SOL     OW11064   2.684   9.068   1.853 -0.1412  0.7381  0.3420
  452SOL    HW111065   2.729   9.155   1.831 -0.7656  0.7000 -1.2043
  452SOL    HW211066   2.600   9.059   1.798 -0.5962 -0.4009  1.2002
  453SOL     OW11067   2.586   9.885   2.208 -0.1284  0.4531 -0.3042
  453SOL    HW111068   2.567   9.787   2.217  1.0708  0.1539 -0.9165
  453SOL    HW211069   2.609   9.924   2.297 -1.0251  0.2701  0.0100
  454SOL     OW11070   3.284   2.130   1.097 -0.5099 -0.2501 -0.0719
  454SOL    HW111071   3.372   2.083   1.095  0.6714  1.9338 -2.4881
  454SOL    HW211072   3.294   2.217   1.144 -2.0703 -1.1695  2.0540
  455SOL     OW11073   3.230   9.147   1.481 -0.4483  0.6063  0.0575
  455SOL    HW111074   3.151   9.200   1.512  0.7604  2.4772 -0.0211
  455SOL    HW211075   3.213   9.111   1.389 -1.3835  0.5832  0.2361
  456SOL     OW11076   3.321   9.087   1.915  0.0072  0.0274  0.5072
  456SOL    HW111077   3.292   9.074   2.010  0.4464 -2.3058  0.3532
  456SOL    HW211078   3.241   9.095   1.856 -0.3096 -1.1634  0.7556
  457SOL     OW11079   3.317   9.994   2.383 -0.6509  0.4652 -0.2767
  457SOL    HW111080   3.282  10.011   2.291 -1.1056  0.9494 -0.0159
  457SOL    HW211081   3.409  10.034   2.392  0.2171 -1.2834 -1.1343
  458SOL     OW11082   4.456   2.706   1.291  0.4078 -0.0095  0.0787
  458SOL    HW111083   4.467   2.704   1.191 -1.7762 -1.1382 -0.1613
  458SOL    HW211084   4.374   2.758   1.315  0.1679 -0.8896  1.2047
  459SOL     OW11085   2.998   3.707   1.816 -0.5489 -0.2933 -0.1295
  459SOL    HW111086   2.974   3.756   1.731 -0.1999 -1.1814 -0.7408
  459SOL    HW211087   2.937   3.629   1.827  0.6566 -1.3234 -0.5851
  460SOL     OW11088   4.293   3.814   0.874  0.2008 -0.1625  0.7057
  460SOL    HW111089   4.336   3.857   0.954 -1.0923 -0.0648  1.3599
  460SOL    HW211090   4.210   3.766   0.903  0.3265 -1.0548 -0.4101
  461SOL     OW11091   2.697  10.293   1.980  0.3941  0.3631  0.7438
  461SOL    HW111092   2.741  10.304   1.891  0.2980 -1.0133  0.5076
  461SOL    HW211093   2.739  10.355   2.047  0.8554  0.9859 -0.1228
  462SOL     OW11094   4.785   3.002   0.407 -0.0581 -0.1286  0.2808
  462SOL    HW111095   4.863   3.059   0.380  1.4667 -1.9234  0.7708
  462SOL    HW211096   4.769   3.012   0.505  0.7343 -1.1354  0.5224
  463SOL     OW11097   4.003   0.938   0.424  0.0356  0.3579  0.0351
  463SOL    HW111098   3.927   1.002   0.409  1.2041  1.5585 -0.9592
  463SOL    HW211099   3.972   0.845   0.409 -1.5245  0.7399  0.7681
  464SOL     OW11100   3.095   4.282   2.455 -0.1830 -0.1014  0.2463
  464SOL    HW111101   3.018   4.220   2.446 -1.4528  1.3738  0.7300
  464SOL    HW211102   3.114   4.325   2.366 -0.1252 -0.2088  0.2064
  465SOL     OW11103   4.716   4.165   1.780 -0.8380 -0.1117 -0.5508
  465SOL    HW111104   4.767   4.158   1.866  0.3759 -0.6668 -1.3073
  465SOL    HW211105   4.648   4.238   1.788  0.9594  1.5276  0.0199
  466SOL     OW11106   4.755   3.831   0.903  0.0278  0.0625  0.7490
  466SOL    HW111107   4.788   3.847   0.810 -1.4532  1.5366  0.4554
  466SOL    HW211108   4.806   3.755   0.943  2.3718  0.9739 -0.3904
  467SOL     OW11109   4.236   3.509   1.979  0.0549  0.4738  0.5304
  467SOL    HW111110   4.243   3.474   1.885 -1.0115 -0.9762  0.9738
  467SOL    HW211111   4.285   3.447   2.041 -2.2665 -0.5492  1.3938
  468SOL     OW11112   2.913   4.953   2.647 -0.0689  0.0711 -0.4540
  468SOL    HW111113   2.959   4.933   2.734 -0.5526  0.1872 -0.1677
  468SOL    HW211114   2.976   4.938   2.571  0.0992 -0.8700 -0.1337
  469SOL     OW11115   3.171   3.284   0.858  0.2137  1.2504 -0.5843
  469SOL    HW111116   3.137   3.360   0.803 -0.7034  0.5138 -1.0544
  469SOL    HW211117   3.174   3.201   0.802  0.3214  0.7379  0.1758
  470SOL     OW11118   4.245   4.074   2.179  0.1707 -0.6785  0.1480
  470SOL    HW111119   4.215   4.094   2.085 -0.6520 -2.4423  0.0176
  470SOL    HW211120   4.264   4.160   2.226  1.4489  0.2118 -1.9078
  471SOL     OW11121   3.710   2.224   2.160  0.1695  0.6904 -0.8219
  471SOL    HW111122   3.734   2.171   2.078  0.8974  1.9628 -1.4596
  471SOL    HW211123   3.622   2.268   2.146 -1.3600 -1.8752  0.4785
  472SOL     OW11124   3.427   5.240   0.516 -0.3638  0.1760 -0.0981
  472SOL    HW111125   3.357   5.288   0.568 -0.9926 -0.1205 -0.6680
  472SOL    HW211126   3.386   5.161   0.469 -0.1470  1.3653 -2.3464
  473SOL     OW11127   2.392   0.618   1.015  0.4861 -0.0807 -0.2772
  473SOL    HW111128   2.406   0.671   1.099 -0.3354 -0.7938  0.3108
  473SOL    HW211129   2.478   0.573   0.990  0.8222  0.4011 -0.0127
  474SOL     OW11130   4.758   3.377   1.015 -0.0456 -0.5258  0.0535
  474SOL    HW111131   4.774   3.280   0.996 -1.4337 -0.9171  0.7873
  474SOL    HW211132   4.666   3.389   1.052 -0.1697  1.1749 -0.7280
  475SOL     OW11133   2.981   3.515   0.225  0.5895  0.4425 -0.3051
  475SOL    HW111134   3.061   3.563   0.190  2.7401 -1.9407  1.2191
  475SOL    HW211135   2.957   3.441   0.162 -0.7726  1.4554 -1.0144
  476SOL     OW11136   2.578   0.857   1.519 -0.3196 -0.3565  0.0928
  476SOL    HW111137   2.577   0.831   1.615  1.5692  0.0588  0.2447
  476SOL    HW211138   2.557   0.954   1.509 -0.6811 -0.4355  0.0590
  477SOL     OW11139   2.727   9.349   2.148 -0.1122 -0.2893 -0.0168
  477SOL    HW111140   2.799   9.282   2.132 -0.0196 -0.0170 -0.7511
  477SOL    HW211141   2.723   9.372   2.245  2.4424  1.5751 -0.3010
  478SOL     OW11142   2.798   0.854   2.271  0.3116  0.1313 -0.0179
  478SOL    HW111143   2.741   0.824   2.348  0.5016  0.0382  0.0879
  478SOL    HW211144   2.856   0.930   2.301  0.3418  0.1351 -0.0869
  479SOL     OW11145   2.412   2.070   1.841 -0.3093 -0.3077  0.1390
  479SOL    HW111146   2.427   2.044   1.937 -1.6636  1.2076  0.7868
  479SOL    HW211147   2.480   2.138   1.814 -1.4351  1.1309  0.8267
  480SOL     OW11148   4.077   2.696   2.344 -0.2469 -0.1919  0.3655
  480SOL    HW111149   4.020   2.659   2.272 -0.7044 -0.6349  0.9472
  480SOL    HW211150   4.117   2.782   2.315 -0.5543 -0.2939 -0.3518
  481SOL     OW11151   3.587   2.064   1.034  0.5625 -0.4923 -0.0359
  481SOL    HW111152   3.530   1.983   1.026 -0.1606 -0.0374  0.3719
  481SOL    HW211153   3.682   2.041   1.014  0.5058 -1.6276  0.9387
  482SOL     OW11154   4.599   3.737   0.036  0.9743  0.2618  0.0693
  482SOL    HW111155   4.611   3.639   0.047  0.1239  0.1414  0.0079
  482SOL    HW211156   4.533   3.754  -0.038  1.2630  0.8782 -0.0482
  483SOL     OW11157   4.065   3.056   1.547  0.4875  0.0849 -0.0910
  483SOL    HW111158   4.048   3.106   1.632  0.5651 -0.6443  0.3583
  483SOL    HW211159   4.164   3.051   1.530  0.5348 -0.8625  0.4418
  484SOL     OW11160   2.263  10.404   0.867  0.3951 -0.3807  0.6000
  484SOL    HW111161   2.234  10.451   0.784 -0.8695 -0.6539  0.8718
  484SOL    HW211162   2.307  10.469   0.929 -0.7892  0.3328  0.7131
  485SOL     OW11163   3.000   4.069   1.899  0.0789  0.1830  0.2614
  485SOL    HW111164   3.016   4.046   1.803 -2.5734 -0.3184 -0.1145
  485SOL    HW211165   3.001   3.985   1.953  0.3431  0.3218  0.4678
  486SOL     OW11166   2.869   1.330   1.865  0.2726  0.0479 -0.0617
  486SOL    HW111167   2.832   1.394   1.797  0.1186  1.0362  0.9489
  486SOL    HW211168   2.843   1.237   1.840 -0.4989  0.4823 -0.9097
  487SOL     OW11169   4.194   3.757   1.607 -0.2782 -0.9424  0.3676
  487SOL    HW111170   4.269   3.706   1.563  0.9327 -0.2552  1.6085
  487SOL    HW211171   4.201   3.854   1.583 -0.9381 -0.9166  0.2701
  488SOL     OW11172   2.644   1.178   2.196  0.0509 -0.4300  0.1865
  488SOL    HW111173   2.688   1.267   2.182 -1.7385  0.4944  0.3707
  488SOL    HW211174   2.679   1.137   2.280  0.0057  0.6472  0.7377
  489SOL     OW11175   3.294   4.404   1.888 -0.8303  0.2941 -0.1769
  489SOL    HW111176   3.281   4.414   1.790 -0.4645  1.3452 -0.1289
  489SOL    HW211177   3.218   4.446   1.937 -0.4604  0.7752 -0.0027
  490SOL     OW11178   4.301   1.871   1.758  0.1982 -0.0314  0.4793
  490SOL    HW111179   4.297   1.950   1.697  0.0568  0.5118  1.1781
  490SOL    HW211180   4.243   1.798   1.723 -0.6705  0.6490  0.4820
  491SOL     OW11181   2.706  10.017   1.736 -0.1691 -0.3433 -0.2026
  491SOL    HW111182   2.722   9.955   1.813 -1.9433  0.1482  0.6071
  491SOL    HW211183   2.608  10.016   1.714  0.0136  1.1244 -1.0766
  492SOL     OW11184   3.363   5.020   1.970  0.2099 -0.2254 -0.3209
  492SOL    HW111185   3.399   5.112   1.962  2.7781 -1.0174  1.4773
  492SOL    HW211186   3.435   4.954   1.948 -0.6584 -1.8207  1.4634
  493SOL     OW11187   2.342   9.903   0.022  0.4069  0.1437  0.1948
  493SOL    HW111188   2.290   9.988   0.023 -1.0328 -0.7322  0.9146
  493SOL    HW211189   2.423   9.912   0.081  1.8101  1.9270 -1.9102
  494SOL     OW11190   2.994   3.876   1.010  0.2619 -0.0454 -0.1520
  494SOL    HW111191   3.039   3.938   0.946  0.5422 -0.7166 -0.6069
  494SOL    HW211192   2.902   3.909   1.030  0.4702  0.6040 -0.2688
  495SOL     OW11193   3.260   4.504   0.052  0.0517 -0.4332 -0.3840
  495SOL    HW111194   3.231   4.435   0.119  1.2618 -1.2375 -0.6764
  495SOL    HW211195   3.295   4.458  -0.029 -0.6568  0.5438 -1.2525
  496SOL     OW11196   3.377   9.677   0.354 -0.6083  0.1921  0.0437
  496SOL    HW111197   3.469   9.703   0.325 -0.4980  1.1019  1.1582
  496SOL    HW211198   3.311   9.704   0.284 -0.2325  1.3925  0.1361
  497SOL     OW11199   3.150   1.422   1.454  0.3767 -0.2369 -0.4781
  497SOL    HW111200   3.064   1.371   1.454  1.1627 -1.5964 -0.9356
  497SOL    HW211201   3.180   1.436   1.360 -1.1803  3.4663 -0.5246
  498SOL     OW11202   2.568   3.800   0.966  0.4621  0.4745 -0.0426
  498SOL    HW111203   2.535   3.791   0.873  2.4834 -0.9083 -0.6588
  498SOL    HW211204   2.603   3.712   0.998 -0.0089  0.9783  1.9524
  499SOL     OW11205   2.982   2.189   0.106  0.6828 -0.3408 -0.0656
  499SOL    HW111206   3.004   2.246   0.027  1.3377  0.2258  0.5262
  499SOL    HW211207   3.011   2.235   0.190 -1.6254 -0.1187  0.6457
  500SOL     OW11208   3.142   2.922   2.508  0.4369  0.1633  0.5845
  500SOL    HW111209   3.180   2.962   2.424  1.8680  0.9968  1.6111
  500SOL    HW211210   3.141   2.822   2.499 -1.0630  0.2827 -1.0983
  501SOL     OW11211   4.124   3.259   0.289 -0.1716 -0.6571  0.4781
  501SOL    HW111212   4.197   3.319   0.257  0.1376 -0.9561  0.6214
  501SOL    HW211213   4.149   3.220   0.378 -0.3018 -1.1111  0.3193
  502SOL     OW11214   2.363   1.600   0.604 -0.3693 -0.0077 -0.0623
  502SOL    HW111215   2.403   1.514   0.638  0.3904  0.3537 -0.0276
  502SOL    HW211216   2.416   1.677   0.639 -1.8996  0.5475  1.0733
  503SOL     OW11217   2.766   1.439   0.549 -0.3126 -0.1594 -0.4018
  503SOL    HW111218   2.841   1.395   0.499 -1.0949  0.6045 -2.2811
  503SOL    HW211219   2.802   1.517   0.601  0.4227 -0.6704 -0.1187
  504SOL     OW11220   2.674   2.491   1.943  0.0284 -0.3935 -0.2413
  504SOL    HW111221   2.622   2.552   2.003 -1.3656 -2.0866  0.3016
  504SOL    HW211222   2.772   2.508   1.955 -0.3116  0.9500  0.7239
  505SOL     OW11223   2.061   1.460   2.416 -0.1731 -0.0213  0.0507
  505SOL    HW111224   2.116   1.537   2.384 -0.9944  0.8367  0.7003
  505SOL    HW211225   2.018   1.415   2.337 -0.5195  0.8158 -0.2391
  506SOL     OW11226   2.790   2.877   0.207 -0.1501  0.0971 -0.1973
  506SOL    HW111227   2.805   2.830   0.119  1.9645  1.0001 -0.3495
  506SOL    HW211228   2.743   2.815   0.270  0.9700 -1.6062 -0.9905
  507SOL     OW11229   3.132   1.051   2.505 -0.3223  0.4561 -0.0309
  507SOL    HW111230   3.121   0.962   2.548  1.8585  0.1341 -0.0775
  507SOL    HW211231   3.144   1.121   2.575 -0.8080  0.5290 -0.0212
  508SOL     OW11232   5.112   3.931   0.813  0.3153  0.2740  0.0434
  508SOL    HW111233   5.160   3.858   0.861  0.3014  0.5099  0.4130
  508SOL    HW211234   5.019   3.901   0.793  1.2785 -1.0690 -2.6924
  509SOL     OW11235   3.285   4.846   1.166 -0.1529 -0.2542  0.5519
  509SOL    HW111236   3.302   4.861   1.068 -1.4513 -0.4690  0.2881
  509SOL    HW211237   3.369   4.813   1.209 -0.0588 -1.9262 -0.8531
  510SOL     OW11238   2.357   1.302   0.393  0.1989 -0.0137  0.2497
  510SOL    HW111239   2.274   1.335   0.347  0.6274  0.9873  0.2038
  510SOL    HW211240   2.355   1.202   0.396 -1.1715  0.0146  0.5424
  511SOL     OW11241   3.870   1.647   1.478  0.0252  0.3810 -0.4428
  511SOL    HW111242   3.878   1.632   1.576 -0.8581  1.7358 -0.1372
  511SOL    HW211243   3.793   1.708   1.460  0.9976  1.2331 -1.8747
  512SOL     OW11244   3.302   2.695   1.850  0.3369  0.1374 -1.0842
  512SOL    HW111245   3.363   2.763   1.890 -0.9777  0.2363  0.8015
  512SOL    HW211246   3.247   2.738   1.777  1.6179  0.3395 -1.9474
  513SOL     OW11247   4.357   3.853   2.586 -0.3047 -0.5568 -0.1070
  513SOL    HW111248   4.314   3.839   2.496  0.0500  0.3164 -0.4092
  513SOL    HW211249   4.398   3.944   2.590  1.9605 -1.5477  0.0117
  514SOL     OW11250   4.586   2.886   1.950  0.2554  0.5960 -0.3588
  514SOL    HW111251   4.551   2.793   1.965 -0.1055  0.8133  0.1624
  514SOL    HW211252   4.528   2.933   1.884  0.9620  0.1507 -1.3096
  515SOL     OW11253   2.487   1.860   2.654  0.1681 -0.1314  0.6032
  515SOL    HW111254   2.552   1.798   2.699  0.9715  0.7648  0.6919
  515SOL    HW211255   2.480   1.944   2.707 -0.3215  0.1713  0.0610
  516SOL     OW11256   3.515   9.089   2.541  0.1628  0.2203 -0.3919
  516SOL    HW111257   3.419   9.092   2.512 -1.1250 -0.8562  3.4787
  516SOL    HW211258   3.550   9.182   2.547 -1.1455  0.7253 -0.2754
  517SOL     OW11259   2.916   0.704   0.604 -0.1958 -0.1831  0.1120
  517SOL    HW111260   2.995   0.644   0.614 -0.4267 -0.2858  1.4458
  517SOL    HW211261   2.922   0.754   0.517  0.6574 -1.1580 -0.3935
  518SOL     OW11262   2.854   2.641   2.255  0.0175 -0.1336 -0.0406
  518SOL    HW111263   2.843   2.722   2.312  0.0054 -0.6871  0.7442
  518SOL    HW211264   2.902   2.666   2.171 -2.4004  1.2544 -1.0748
  519SOL     OW11265   3.459   3.757   1.183 -0.1292  0.1046 -0.3211
  519SOL    HW111266   3.470   3.661   1.211  0.5960 -0.1072 -1.3058
  519SOL    HW211267   3.363   3.775   1.164 -0.0631 -0.9040 -1.7564
  520SOL     OW11268   3.273   8.286   0.437  0.0403  0.1191  0.2610
  520SOL    HW111269   3.305   8.350   0.507  1.4957 -1.4424  1.0391
  520SOL    HW211270   3.173   8.279   0.442 -0.0361  1.4347  0.9245
  521SOL     OW11271   2.880   9.059   2.230 -0.7049 -0.1904  0.2280
  521SOL    HW111272   2.902   9.026   2.322 -0.3156 -1.6722 -0.3830
  521SOL    HW211273   2.812   8.999   2.188 -1.3021  0.8003 -0.2547
  522SOL     OW11274   2.357   9.951   1.954 -0.1658 -0.1606  0.0449
  522SOL    HW111275   2.419   9.942   1.877 -1.4990 -0.9346 -0.9593
  522SOL    HW211276   2.403   9.922   2.038  0.6815 -1.2096 -0.7706
  523SOL     OW11277   3.487   0.855   0.424  0.5620  0.1761  0.1772
  523SOL    HW111278   3.587   0.849   0.426  0.6525  1.5282 -0.4837
  523SOL    HW211279   3.454   0.890   0.512  0.7280  0.6065  0.0677
  524SOL     OW11280   4.425   2.422   1.029  0.0491  0.0174  0.3943
  524SOL    HW111281   4.472   2.509   1.042 -0.2568  0.3422 -0.5895
  524SOL    HW211282   4.401   2.383   1.118  2.0848 -0.1211  0.9071
  525SOL     OW11283   3.903   3.860   1.935 -0.1746 -0.6323  0.5465
  525SOL    HW111284   3.899   3.872   2.034  0.5310 -0.7004  0.5898
  525SOL    HW211285   3.992   3.820   1.910 -0.4467 -0.8516 -0.0857
  526SOL     OW11286   3.083   9.905   0.645  0.0156  0.2209 -0.4354
  526SOL    HW111287   3.094   9.830   0.711  0.5394 -0.2468 -1.0361
  526SOL    HW211288   3.004   9.886   0.587  0.1050  0.1653 -0.5399
  527SOL     OW11289   2.782   1.821   0.860  0.1414  0.8250 -0.3317
  527SOL    HW111290   2.869   1.867   0.881 -0.5341  1.6483  0.7393
  527SOL    HW211291   2.714   1.846   0.930  0.0352 -2.6654  0.8857
  528SOL     OW11292   3.761   4.094   2.271 -0.4279  0.2536  0.7518
  528SOL    HW111293   3.784   4.127   2.363  0.7602 -0.0430  0.5736
  528SOL    HW211294   3.729   4.171   2.215 -2.0663  0.2689  1.6778
  529SOL     OW11295   3.943   2.513   0.635 -0.7465  0.3671 -0.4263
  529SOL    HW111296   3.963   2.609   0.654  0.7385 -0.0093 -0.0787
  529SOL    HW211297   3.851   2.491   0.669 -0.0784  0.9767  1.8677
  530SOL     OW11298   3.230   5.197   2.530 -0.2186  0.9582  0.1423
  530SOL    HW111299   3.164   5.233   2.596 -0.2206  2.9873 -0.8981
  530SOL    HW211300   3.190   5.121   2.479 -0.4947 -0.0831  1.9108
  531SOL     OW11301   3.478   9.174   1.547  0.0328 -0.0433 -0.7172
  531SOL    HW111302   3.497   9.272   1.541 -0.6825  0.0884 -0.8367
  531SOL    HW211303   3.383   9.156   1.520 -0.6504 -0.4603  1.8070
  532SOL     OW11304   3.235   8.791   0.537 -0.8509 -0.4465  0.1874
  532SOL    HW111305   3.246   8.719   0.606 -0.4452 -0.5533  0.0155
  532SOL    HW211306   3.163   8.854   0.565  0.1462  0.2195  1.3143
  533SOL     OW11307   2.699   3.216   2.238 -0.0999 -0.3738  0.0500
  533SOL    HW111308   2.790   3.205   2.280 -0.0704 -1.1472 -0.2184
  533SOL    HW211309   2.629   3.213   2.310  0.1225  0.8992  0.3394
  534SOL     OW11310   3.273   3.949   1.395 -0.1922  0.3413 -0.1003
  534SOL    HW111311   3.209   3.905   1.458 -0.5964  0.2632 -0.5682
  534SOL    HW211312   3.268   3.906   1.305  0.4336  0.4102 -0.1759
  535SOL     OW11313   2.932   2.507   0.195  0.2921 -0.2009  0.0768
  535SOL    HW111314   2.873   2.481   0.118 -0.1888 -1.6301  0.9071
  535SOL    HW211315   2.989   2.585   0.168 -0.8432  0.1960 -1.2653
  536SOL     OW11316   2.922   5.317   0.114  0.0520  0.2373 -0.1495
  536SOL    HW111317   2.859   5.373   0.170  0.0163  0.4774 -0.4276
  536SOL    HW211318   2.869   5.256   0.056  0.0973 -0.3080  0.3809
  537SOL     OW11319   2.867   1.610   2.444  0.1904 -0.5368  0.2546
  537SOL    HW111320   2.887   1.612   2.346  0.2771 -0.3926  0.2764
  537SOL    HW211321   2.769   1.594   2.457  0.2234 -0.8433  0.1470
  538SOL     OW11322   2.643   8.566   1.850 -0.2187  0.1233  0.4128
  538SOL    HW111323   2.685   8.626   1.781 -1.1054  0.7937  0.4490
  538SOL    HW211324   2.592   8.494   1.803 -1.9382  1.3548  0.3348
  539SOL     OW11325   4.255   3.610   0.457 -0.3793 -0.4026 -0.1059
  539SOL    HW111326   4.158   3.627   0.476 -0.9179 -1.8314 -1.5421
  539SOL    HW211327   4.308   3.626   0.540 -2.0697 -1.4580  1.2009
  540SOL     OW11328   3.130   1.467   1.184 -0.4779  0.4588  0.1794
  540SOL    HW111329   3.134   1.441   1.088 -1.8919  0.9512 -0.0277
  540SOL    HW211330   3.048   1.522   1.200 -0.1260  0.5823  1.6141
  541SOL     OW11331   2.797   2.475   0.440  0.4081 -0.9117  0.0878
  541SOL    HW111332   2.841   2.483   0.350  0.6080 -1.8937  0.0971
  541SOL    HW211333   2.850   2.412   0.498  0.9340  0.6062  1.2970
  542SOL     OW11334   3.459   3.753   1.942 -0.0191 -0.3588 -0.0531
  542SOL    HW111335   3.549   3.721   1.913  0.4821  0.9253  0.0386
  542SOL    HW211336   3.393   3.740   1.867  0.1209 -1.7416  0.0493
  543SOL     OW11337   3.322   8.979   0.327 -0.0659  0.9124  0.0059
  543SOL    HW111338   3.251   9.021   0.383 -0.9618  1.6509 -1.6413
  543SOL    HW211339   3.332   8.883   0.351 -1.1171  0.9782  0.7332
  544SOL     OW11340   2.499   2.420   0.474  0.4564 -0.1306  0.2202
  544SOL    HW111341   2.595   2.404   0.449  0.7515 -0.5621  1.6046
  544SOL    HW211342   2.494   2.496   0.539 -0.3450  1.2117 -1.3652
  545SOL     OW11343   3.867   8.455   0.668  0.0244 -0.1298 -0.0721
  545SOL    HW111344   3.785   8.502   0.634 -1.1131 -0.8252  1.6210
  545SOL    HW211345   3.886   8.486   0.761  0.9157 -0.9649  0.0262
  546SOL     OW11346   3.619   1.620   1.247 -0.6557 -0.5585  0.0499
  546SOL    HW111347   3.624   1.705   1.298  0.9447 -0.4405 -0.2690
  546SOL    HW211348   3.662   1.632   1.157 -1.1786 -1.4573 -0.3275
  547SOL     OW11349   3.899   3.093   2.533 -0.1329  0.1414  0.1587
  547SOL    HW111350   3.868   3.135   2.618 -1.4536  1.7095 -1.0603
  547SOL    HW211351   3.973   3.148   2.493  0.4054 -0.5237  0.2272
  548SOL     OW11352   4.164   3.559   0.208  0.4585 -0.2376 -0.0408
  548SOL    HW111353   4.151   3.651   0.171  1.9169 -0.4764 -1.1882
  548SOL    HW211354   4.195   3.566   0.303 -0.2315  0.4358  0.1408
  549SOL     OW11355   2.685   9.436   1.538  0.5235 -0.1553 -0.2471
  549SOL    HW111356   2.773   9.482   1.529  0.4586  0.0385  0.1063
  549SOL    HW211357   2.699   9.337   1.542  0.6742 -0.1656 -0.8590
  550SOL     OW11358   3.862   2.979   0.209  0.5549 -0.5705  0.7590
  550SOL    HW111359   3.951   2.976   0.163  0.2623 -0.6786  0.1958
  550SOL    HW211360   3.872   2.942   0.302  1.0838 -0.6532  0.6741
  551SOL     OW11361   2.281   1.545   0.042 -0.5899  0.2161 -0.1708
  551SOL    HW111362   2.321   1.552   0.134  2.5177  1.1534 -1.5019
  551SOL    HW211363   2.236   1.631   0.019 -0.6722  0.2674  0.1806
  552SOL     OW11364   3.134   0.776   2.592 -0.3459  0.1677  0.4583
  552SOL    HW111365   3.043   0.734   2.595 -0.0050 -0.5985  0.2079
  552SOL    HW211366   3.204   0.705   2.595  0.2363  0.6937 -0.3368
  553SOL     OW11367   3.662   0.686   0.751  0.0820 -0.7038 -0.6434
  553SOL    HW111368   3.596   0.707   0.823 -0.3339  0.6360 -1.4071
  553SOL    HW211369   3.651   0.590   0.723 -1.2016 -0.6350 -0.4119
  554SOL     OW11370   2.366   9.317   0.977  0.1431  0.0535  0.0604
  554SOL    HW111371   2.279   9.321   0.929  0.0643  0.8675  0.2577
  554SOL    HW211372   2.404   9.410   0.985  0.6423 -0.1975  0.6624
  555SOL     OW11373   2.521   9.666   1.600  0.3379 -0.4945 -0.7324
  555SOL    HW111374   2.498   9.760   1.576 -0.1396 -0.4362 -0.0896
  555SOL    HW211375   2.615   9.646   1.574 -0.2970 -0.5764 -3.0039
  556SOL     OW11376   2.927   1.586   0.766  0.3520  0.3095 -0.3638
  556SOL    HW111377   2.849   1.648   0.765 -1.3044 -1.7477 -1.1368
  556SOL    HW211378   2.913   1.516   0.836  1.2583 -0.3725 -0.8532
  557SOL     OW11379   3.990   9.066   1.143  0.1003  0.3948 -0.4549
  557SOL    HW111380   3.932   8.999   1.097 -1.5950  1.2210  0.4146
  557SOL    HW211381   3.993   9.150   1.089 -0.9686  0.9710  0.3675
  558SOL     OW11382   2.093   2.335   0.754 -0.4040 -0.5888  0.4362
  558SOL    HW111383   1.997   2.355   0.733 -0.1112 -0.8443 -1.1226
  558SOL    HW211384   2.135   2.286   0.678  1.3226  0.6667  0.5611
  559SOL     OW11385   4.138   1.667   1.652 -0.3972 -0.0778 -0.1191
  559SOL    HW111386   4.157   1.579   1.608  0.1923 -0.8208  1.6167
  559SOL    HW211387   4.089   1.652   1.737 -0.1883  1.2796  0.2475
  560SOL     OW11388   3.489   0.885   2.074 -0.4908  0.5493  0.5138
  560SOL    HW111389   3.455   0.896   2.167 -0.0389 -1.2055  0.9036
  560SOL    HW211390   3.519   0.790   2.060  2.1571  1.4794 -0.5001
  561SOL     OW11391   3.847   2.014   0.986 -0.0219 -0.1042 -0.2175
  561SOL    HW111392   3.837   2.040   0.890 -0.0421  0.7551  0.0170
  561SOL    HW211393   3.922   1.948   0.994  0.7972  0.7667 -0.6543
  562SOL     OW11394   3.573   1.263   2.384 -0.3674 -0.1652 -0.4163
  562SOL    HW111395   3.673   1.258   2.383 -0.3438  0.5497 -1.5438
  562SOL    HW211396   3.541   1.248   2.478  0.8009 -0.1360  0.0048
  563SOL     OW11397   3.663   9.650   1.558  0.2061 -0.1877  0.0492
  563SOL    HW111398   3.636   9.741   1.527  0.0783 -0.5896 -1.0168
  563SOL    HW211399   3.732   9.613   1.498 -0.8275 -1.4124 -0.4059
  564SOL     OW11400   2.327   9.627   2.067  0.2285 -0.2715  0.0890
  564SOL    HW111401   2.342   9.656   2.162  1.1082  0.2024 -0.1892
  564SOL    HW211402   2.360   9.698   2.005 -0.0362 -0.7280 -0.5795
  565SOL     OW11403   3.424   9.689   1.925 -0.0410 -0.2059  0.2152
  565SOL    HW111404   3.384   9.601   1.952  0.5317 -0.2258  1.0043
  565SOL    HW211405   3.521   9.677   1.905 -0.0201  0.2047  0.0679
  566SOL     OW11406   4.822   3.607   0.246  0.2919 -0.4928 -0.7238
  566SOL    HW111407   4.862   3.651   0.166 -0.7312 -0.1703 -1.0560
  566SOL    HW211408   4.768   3.528   0.217  0.5359 -0.8279 -0.2813
  567SOL     OW11409   3.190   4.663   0.374 -0.1092  0.2122 -0.2271
  567SOL    HW111410   3.235   4.616   0.298  0.3165 -1.4823  1.0332
  567SOL    HW211411   3.260   4.707   0.431  0.0896 -2.5899  1.8460
  568SOL     OW11412   3.126   1.563   0.573 -0.3961  0.5195  0.7295
  568SOL    HW111413   3.145   1.624   0.496  0.3860 -0.8893 -0.2114
  568SOL    HW211414   3.045   1.596   0.621 -0.4738  1.8325 -0.2443
  569SOL     OW11415   3.761   0.779   0.485 -0.1530 -0.3666  0.0498
  569SOL    HW111416   3.734   0.756   0.579  0.1848 -0.2033  0.1868
  569SOL    HW211417   3.759   0.696   0.429  1.6657 -0.8556  0.6925
  570SOL     OW11418   4.359   4.471  -0.009  0.1974  0.4566  0.1604
  570SOL    HW111419   4.309   4.403   0.044 -0.4424  1.0659  0.3499
  570SOL    HW211420   4.332   4.563   0.022  0.8509  0.7968 -0.2714
  571SOL     OW11421   3.324   4.257   1.597  0.7757  0.2107  0.0123
  571SOL    HW111422   3.338   4.249   1.498  1.1358  2.2649 -0.1104
  571SOL    HW211423   3.410   4.282   1.641 -0.4477  4.2070  0.2516
  572SOL     OW11424   3.173   3.239   2.592 -0.0486 -0.3150  0.0953
  572SOL    HW111425   3.158   3.227   2.494 -0.6919 -0.7923  0.2514
  572SOL    HW211426   3.258   3.194   2.619 -0.5435 -1.3128 -0.0028
  573SOL     OW11427   2.193   8.765   0.119 -0.5500 -0.2608 -0.1174
  573SOL    HW111428   2.264   8.696   0.132  2.2161  2.6634  0.7732
  573SOL    HW211429   2.140   8.775   0.204  0.1464 -0.0880  0.2961
  574SOL     OW11430   3.980   2.211   1.596 -0.2458  0.4424 -0.2817
  574SOL    HW111431   3.906   2.238   1.534  0.9732  0.0175 -1.9591
  574SOL    HW211432   3.986   2.112   1.599 -0.3530  0.4609  0.6001
  575SOL     OW11433   3.193   0.559   1.686 -0.3781 -0.1609 -0.0800
  575SOL    HW111434   3.116   0.591   1.742  0.3855 -0.6603  1.2724
  575SOL    HW211435   3.275   0.552   1.742 -0.0889 -2.7761 -0.7438
  576SOL     OW11436   3.776   2.874   1.863 -0.3148  0.1447  0.3101
  576SOL    HW111437   3.798   2.843   1.771  0.9233 -0.7935  0.9209
  576SOL    HW211438   3.839   2.946   1.891  0.2262 -0.5723  0.9687
  577SOL     OW11439   3.866   2.783   1.336 -0.6600 -0.2032  0.2685
  577SOL    HW111440   3.821   2.731   1.263 -1.8461  2.2121 -0.7812
  577SOL    HW211441   3.928   2.850   1.296 -1.0726  0.9255  1.4876
  578SOL     OW11442   4.908   2.701   1.603 -0.6368 -0.3985  1.1258
  578SOL    HW111443   4.885   2.744   1.690 -1.5581 -0.4674  0.9176
  578SOL    HW211444   4.831   2.710   1.540  0.0255 -0.3599  0.3245
  579SOL     OW11445   3.242   3.519   1.248 -0.4897  0.4933  0.0321
  579SOL    HW111446   3.158   3.481   1.287 -1.4258  0.5207 -1.9089
  579SOL    HW211447   3.318   3.501   1.310 -2.1590  1.7181  2.5109
  580SOL     OW11448   2.979   0.917   1.642 -0.2050 -0.3603 -0.1110
  580SOL    HW111449   2.904   0.970   1.681 -1.5140 -0.7896 -1.9811
  580SOL    HW211450   3.066   0.959   1.666 -1.0894  0.7446  1.2001
  581SOL     OW11451   3.477   9.880   2.103  0.3972  0.3386 -0.3689
  581SOL    HW111452   3.409   9.945   2.137  0.5605 -0.2528  1.1174
  581SOL    HW211453   3.432   9.811   2.047 -0.1820  0.1434  0.3349
  582SOL     OW11454   2.606   3.090   0.154 -0.4853  0.4661 -0.6589
  582SOL    HW111455   2.663   3.009   0.166 -1.9576 -0.1830  2.4840
  582SOL    HW211456   2.641   3.164   0.213 -1.9599  0.5419  0.1394
  583SOL     OW11457   4.429   3.631   1.512  0.4733 -0.3221 -0.2445
  583SOL    HW111458   4.457   3.623   1.416 -0.9071 -3.5169 -0.4425
  583SOL    HW211459   4.446   3.544   1.559 -0.0666  0.7986  2.0816
  584SOL     OW11460   2.802   2.257   1.113 -0.3709 -0.3185  0.1716
  584SOL    HW111461   2.843   2.324   1.051 -0.7632 -0.8349 -0.6572
  584SOL    HW211462   2.826   2.280   1.207 -2.3210  2.2934  0.1072
  585SOL     OW11463   2.622   2.743   1.722 -0.6930  0.1331 -0.4918
  585SOL    HW111464   2.561   2.665   1.710  1.6878 -1.8004 -0.3622
  585SOL    HW211465   2.601   2.788   1.809  0.8784 -3.1355  1.6623
  586SOL     OW11466   2.909   4.781   1.084 -0.4988 -0.3771 -0.2708
  586SOL    HW111467   2.958   4.853   1.134 -1.2279 -0.4535  0.5755
  586SOL    HW211468   2.851   4.823   1.015 -1.1264 -0.1176  0.3999
  587SOL     OW11469   3.645   4.996   0.401 -1.0395  0.5579  0.7950
  587SOL    HW111470   3.688   5.083   0.424  0.0098  0.5806 -1.1881
  587SOL    HW211471   3.569   5.011   0.338 -1.1347  0.0621  0.7859
  588SOL     OW11472   3.185   8.681   0.287 -0.4470  0.2400  0.1052
  588SOL    HW111473   3.162   8.585   0.307 -2.5021  0.5817 -0.4507
  588SOL    HW211474   3.210   8.728   0.372  0.3334 -0.7279  0.4163
  589SOL     OW11475   3.251   3.874   2.458  0.2917 -0.0556 -0.2612
  589SOL    HW111476   3.230   3.941   2.387 -0.7962  1.0551  1.0740
  589SOL    HW211477   3.306   3.918   2.529  0.5618 -0.9090  0.0592
  590SOL     OW11478   3.065   0.736   0.934 -0.0860  0.0971 -0.2149
  590SOL    HW111479   3.019   0.655   0.896 -1.3776  0.3439  0.8027
  590SOL    HW211480   3.019   0.818   0.902  1.2486  0.4563 -1.2710
  591SOL     OW11481   2.410   0.721   1.330  0.9756  0.0883 -0.3497
  591SOL    HW111482   2.350   0.666   1.388  1.1466 -1.4790 -1.6218
  591SOL    HW211483   2.486   0.757   1.385  0.9420 -1.0656  0.4682
  592SOL     OW11484   2.849   4.235   0.948 -0.0957 -0.1356  0.3422
  592SOL    HW111485   2.833   4.216   0.851  0.2759 -0.5950  0.3653
  592SOL    HW211486   2.763   4.255   0.993 -0.2316  0.4067 -0.1536
  593SOL     OW11487   3.829   2.086   2.363 -0.3264  0.1152  0.1675
  593SOL    HW111488   3.782   2.132   2.287 -0.0222 -0.6278 -0.4670
  593SOL    HW211489   3.912   2.137   2.386  1.5112 -1.5986 -2.3757
  594SOL     OW11490   3.551   0.870   1.261 -0.0585  0.1069 -0.4731
  594SOL    HW111491   3.533   0.772   1.251  0.4528 -0.0368 -0.0639
  594SOL    HW211492   3.545   0.895   1.358  0.9923  0.2264 -0.4256
  595SOL     OW11493   2.381   0.691   0.297  0.1910  0.0168  0.0502
  595SOL    HW111494   2.291   0.680   0.338 -0.3687  1.5318 -0.7414
  595SOL    HW211495   2.375   0.676   0.198  0.7760  0.3413 -0.0381
  596SOL     OW11496   2.968   9.579   2.441  0.2274 -0.2725 -0.5122
  596SOL    HW111497   3.025   9.535   2.511  0.3016  0.4176 -0.1277
  596SOL    HW211498   3.023   9.601   2.361  0.3802 -0.1155 -0.3647
  597SOL     OW11499   4.074   2.978   1.275  0.5015  0.1417  0.8589
  597SOL    HW111500   4.120   2.889   1.275  1.1641  0.3924 -3.3876
  597SOL    HW211501   4.081   3.019   1.366  0.7293 -3.8228  2.7492
  598SOL     OW11502   3.676   3.674   0.386 -0.1112  0.9192  0.0191
  598SOL    HW111503   3.758   3.718   0.351 -0.5469 -0.9690 -3.5988
  598SOL    HW211504   3.595   3.712   0.341 -0.9026  0.0988  0.7212
  599SOL     OW11505   2.240   0.793   2.052 -0.2343 -0.1895  0.5292
  599SOL    HW111506   2.200   0.702   2.041 -2.3986  0.8067  0.0731
  599SOL    HW211507   2.273   0.826   1.964  0.0424 -0.2722  0.5982
  600SOL     OW11508   4.369   3.281   2.066  0.2823  0.1076 -0.6992
  600SOL    HW111509   4.417   3.367   2.085  1.0038 -0.0314 -1.8773
  600SOL    HW211510   4.413   3.207   2.118 -1.7149  0.7765  2.1040
  601SOL     OW11511   3.379   2.829   0.597 -0.4839  0.1992 -0.0820
  601SOL    HW111512   3.282   2.813   0.575 -0.5475 -0.1348  0.4358
  601SOL    HW211513   3.402   2.781   0.681  0.9786 -2.4692 -1.9578
  602SOL     OW11514   2.352   9.657   2.567  0.1313 -0.5394 -0.0348
  602SOL    HW111515   2.275   9.596   2.585  0.6360 -1.0120  0.5226
  602SOL    HW211516   2.335   9.746   2.609 -0.6381 -0.2607 -0.9095
  603SOL     OW11517   3.049   2.331   1.574 -0.4831  0.3607  0.0134
  603SOL    HW111518   3.087   2.243   1.547 -1.8995 -0.8222  1.8385
  603SOL    HW211519   2.984   2.363   1.505  0.1149  0.0507 -0.6972
  604SOL     OW11520   3.398   1.352   1.565 -0.0367  0.2269 -0.0816
  604SOL    HW111521   3.457   1.362   1.485  1.7832 -0.4154  1.1654
  604SOL    HW211522   3.308   1.392   1.545  0.8332  1.3057 -1.9604
  605SOL     OW11523   2.725   2.050   0.138 -0.0301 -0.4867  0.7209
  605SOL    HW111524   2.813   2.096   0.123 -0.0327  0.0957  2.4897
  605SOL    HW211525   2.727   2.003   0.226 -0.9270 -1.8211  0.0423
  606SOL     OW11526   3.867   3.222   0.066 -0.6204  0.6215 -0.1532
  606SOL    HW111527   3.858   3.148   0.133  0.6777  0.0420 -0.6130
  606SOL    HW211528   3.880   3.309   0.114  1.4615  0.0474  0.3310
  607SOL     OW11529   2.396   0.785   2.555  0.0042 -0.0772 -0.1094
  607SOL    HW111530   2.324   0.844   2.590  1.4889  1.2671  0.7422
  607SOL    HW211531   2.401   0.793   2.455 -2.1760 -1.5505 -0.3694
  608SOL     OW11532   4.339   2.298   1.251 -0.7015  0.1787 -0.1166
  608SOL    HW111533   4.395   2.326   1.329  1.4294 -1.8880 -0.8376
  608SOL    HW211534   4.243   2.295   1.278  0.1255 -1.7498  2.8063
  609SOL     OW11535   2.580   1.909   1.021 -0.3761  0.3302  0.0137
  609SOL    HW111536   2.579   1.971   1.100  0.8008 -0.1999  0.4649
  609SOL    HW211537   2.502   1.847   1.025 -0.2497  0.2184  0.8398
  610SOL     OW11538   2.714   9.977   1.362 -0.0783 -0.4013  0.2934
  610SOL    HW111539   2.794   9.968   1.422  0.3664  0.3808 -0.1616
  610SOL    HW211540   2.711   9.899   1.299 -0.3210 -1.0157  1.0616
  611SOL     OW11541   2.609   1.544   2.533 -0.5307  0.1031  0.2876
  611SOL    HW111542   2.541   1.471   2.539 -0.6065  0.1900  0.5279
  611SOL    HW211543   2.618   1.588   2.623 -0.8348  0.6977  0.0336
  612SOL     OW11544   2.824   2.959   0.853  0.5337 -0.3135 -0.1956
  612SOL    HW111545   2.866   2.936   0.765  0.7372 -3.3511  0.6340
  612SOL    HW211546   2.725   2.944   0.848  0.6583 -1.3186  0.3482
  613SOL     OW11547   3.404   0.432   1.003  0.0649  0.3746 -0.1938
  613SOL    HW111548   3.316   0.459   1.042 -0.3808 -0.5071 -0.5779
  613SOL    HW211549   3.443   0.509   0.953  0.7348  1.6009  2.1199
  614SOL     OW11550   4.347   2.868   2.121 -0.0640  0.1483 -0.4897
  614SOL    HW111551   4.300   2.912   2.045 -0.1768  0.4197 -0.2632
  614SOL    HW211552   4.444   2.857   2.098  0.0521  0.9093 -0.3769
  615SOL     OW11553   4.100   2.405   0.971 -0.6569 -0.1204  0.1995
  615SOL    HW111554   4.113   2.384   0.874 -3.1530  0.6101 -0.3281
  615SOL    HW211555   4.189   2.415   1.015  0.5252  2.0592 -2.5594
  616SOL     OW11556   3.320   8.791   1.001 -0.1786  0.4440  0.0715
  616SOL    HW111557   3.265   8.801   1.084  1.1842 -2.4689  1.4184
  616SOL    HW211558   3.416   8.807   1.022  0.1540 -0.1184 -0.9690
  617SOL     OW11559   3.051   2.363   0.799  0.3962 -0.2204 -0.2556
  617SOL    HW111560   3.018   2.429   0.866 -1.1926 -2.5948  1.3518
  617SOL    HW211561   2.974   2.316   0.756  1.4479 -0.0900 -2.3980
  618SOL     OW11562   4.033   2.802   2.075 -0.0565 -1.0118  0.3954
  618SOL    HW111563   3.958   2.869   2.082  1.4734  0.4883  3.7437
  618SOL    HW211564   4.115   2.847   2.040  0.2005 -1.8548 -0.1011
  619SOL     OW11565   4.430   3.050   0.399 -0.0289  0.2911 -0.1326
  619SOL    HW111566   4.512   3.102   0.424 -0.0423  0.0160  0.4809
  619SOL    HW211567   4.439   2.956   0.430 -1.5637  0.8295  2.0240
  620SOL     OW11568   3.602   4.095   1.736  0.4074 -0.7050  0.5373
  620SOL    HW111569   3.525   4.031   1.732  0.1362 -0.3382 -0.2366
  620SOL    HW211570   3.646   4.089   1.826  1.0120 -2.7002  0.1369
  621SOL     OW11571   3.447   8.527   1.689 -0.5392  0.1997 -0.6161
  621SOL    HW111572   3.492   8.594   1.747 -1.2842  0.2220 -0.0499
  621SOL    HW211573   3.416   8.450   1.745  1.3605 -1.1951 -1.4283
  622SOL     OW11574   2.494   9.346   1.752 -0.4920  0.1479  0.0189
  622SOL    HW111575   2.514   9.382   1.843  1.2049 -1.3332  0.2702
  622SOL    HW211576   2.545   9.398   1.684  3.1451 -2.5304  0.5093
  623SOL     OW11577   2.800   0.449   2.174  0.4488 -0.2253 -0.2903
  623SOL    HW111578   2.717   0.458   2.230  1.8499 -1.9528  2.1450
  623SOL    HW211579   2.855   0.531   2.183 -0.3742  0.4097 -0.9209
  624SOL     OW11580   3.207   1.878   2.013  0.6733 -0.4770 -0.7331
  624SOL    HW111581   3.192   1.838   1.923  1.5170 -0.3892 -0.9165
  624SOL    HW211582   3.153   1.827   2.081 -1.6209  0.7909 -1.5709
  625SOL     OW11583   3.970   5.108   1.621 -0.3554 -0.7501  0.1688
  625SOL    HW111584   3.959   5.042   1.696  1.4135 -1.7016 -0.3726
  625SOL    HW211585   4.015   5.063   1.544  2.0101  1.4027  0.2348
  626SOL     OW11586   3.018  10.356   0.347  0.0503 -0.4527  0.1967
  626SOL    HW111587   2.952  10.322   0.414 -1.5191 -0.1718 -1.1950
  626SOL    HW211588   3.049  10.280   0.290 -0.2664 -0.3084 -0.1694
  627SOL     OW11589   2.536   1.116   1.449  0.7076 -0.5964  0.4164
  627SOL    HW111590   2.471   1.189   1.468  1.0010  0.0919 -1.1524
  627SOL    HW211591   2.498   1.055   1.380  1.2491 -0.8554  0.3439
  628SOL     OW11592   3.397   3.327   0.259 -0.3739  0.4624  0.1343
  628SOL    HW111593   3.497   3.328   0.270 -0.0750 -0.1799 -2.1898
  628SOL    HW211594   3.373   3.260   0.189 -2.2765  2.0947 -0.8121
  629SOL     OW11595   3.113   4.931   2.437  0.2133 -0.1049 -0.1039
  629SOL    HW111596   3.077   4.838   2.435  0.3439 -0.1633  0.1942
  629SOL    HW211597   3.152   4.954   2.348 -2.1839  0.6135 -0.9971
  630SOL     OW11598   2.165   1.128   2.403  0.9258  0.0513  0.2449
  630SOL    HW111599   2.131   1.130   2.309  0.6180 -1.2916  0.3198
  630SOL    HW211600   2.131   1.207   2.453  0.1298  0.1521 -0.4475
  631SOL     OW11601   4.046   1.922   1.564  0.8226  0.0080 -0.0660
  631SOL    HW111602   4.051   1.942   1.466 -2.6746  1.6694  0.0186
  631SOL    HW211603   4.042   1.823   1.577 -0.9299 -0.1656 -1.7518
  632SOL     OW11604   4.429   3.103   1.053  0.5758 -0.5947 -0.3026
  632SOL    HW111605   4.333   3.120   1.034  0.7685 -0.6698 -1.3512
  632SOL    HW211606   4.447   3.118   1.151 -0.0845  1.3344 -0.4618
  633SOL     OW11607   2.432   9.685   1.232 -0.2244 -0.3170 -0.0923
  633SOL    HW111608   2.437   9.784   1.240 -0.8455 -0.3152  0.2617
  633SOL    HW211609   2.504   9.643   1.287  0.0971 -0.0678 -0.3146
  634SOL     OW11610   2.494   3.972   1.564  0.5235 -0.3484  0.1881
  634SOL    HW111611   2.494   3.958   1.663  1.5852  0.5043  0.3241
  634SOL    HW211612   2.410   4.018   1.537 -0.5175 -2.0451  0.4633
  635SOL     OW11613   2.478  10.336   0.516  0.0058  0.1170 -0.2173
  635SOL    HW111614   2.518  10.425   0.493  1.1095 -0.2761  0.1496
  635SOL    HW211615   2.482  10.276   0.436 -1.6524  0.7011 -0.7718
  636SOL     OW11616   3.313   0.824   1.441  0.2215  0.3493 -0.1275
  636SOL    HW111617   3.214   0.809   1.442  0.3291 -0.4117 -0.6841
  636SOL    HW211618   3.347   0.831   1.535 -0.5461  1.8785  0.0497
  637SOL     OW11619   3.269  10.249   2.254  0.1804 -0.3943  0.2854
  637SOL    HW111620   3.204  10.316   2.290  0.0586  0.0162 -0.6795
  637SOL    HW211621   3.361  10.273   2.281  0.2257  0.6480 -0.7802
  638SOL     OW11622   2.752   3.482   2.091 -0.0014 -0.3634  0.2216
  638SOL    HW111623   2.783   3.486   1.996 -1.1376  1.9577 -0.0686
  638SOL    HW211624   2.740   3.386   2.117 -0.4332 -1.0087 -2.2147
  639SOL     OW11625   3.107   1.921   0.096  0.6543 -0.1839 -0.7626
  639SOL    HW111626   3.054   2.003   0.076  1.7811 -0.1223 -3.5955
  639SOL    HW211627   3.062   1.841   0.056  1.2824 -0.4979 -0.8524
  640SOL     OW11628   3.281   9.296   2.201  0.0151  0.2098  0.0261
  640SOL    HW111629   3.244   9.204   2.184 -2.0233  1.4785 -2.8727
  640SOL    HW211630   3.217   9.348   2.256  0.6159  0.3028  0.6469
  641SOL     OW11631   3.552   4.886   0.767  0.0591  0.7025  0.9315
  641SOL    HW111632   3.622   4.890   0.696  0.0382  2.1122  0.9735
  641SOL    HW211633   3.586   4.931   0.850 -1.0213  1.7276  0.8296
  642SOL     OW11634   4.260   2.823   1.410  0.6362 -0.0265  0.3141
  642SOL    HW111635   4.189   2.765   1.448  3.7488 -2.1739  3.2061
  642SOL    HW211636   4.291   2.888   1.479  3.0396 -0.6885 -0.0930
  643SOL     OW11637   4.542   3.100   2.263  0.4764  0.8360 -0.4686
  643SOL    HW111638   4.603   3.043   2.206 -0.4736  0.9923 -1.6596
  643SOL    HW211639   4.509   3.045   2.340  0.1757 -0.0112 -1.1841
  644SOL     OW11640   4.160   4.391   1.039  0.8008  0.8492 -0.5873
  644SOL    HW111641   4.182   4.321   0.972 -0.2774  0.1573 -0.2302
  644SOL    HW211642   4.085   4.448   1.004 -0.2129  0.0741  0.2918
  645SOL     OW11643   4.111   2.992   0.115 -0.2202  0.2052 -0.1569
  645SOL    HW111644   4.182   2.997   0.045 -0.1366  2.0280  0.0209
  645SOL    HW211645   4.127   3.064   0.183 -1.7817  0.1159  0.3223
  646SOL     OW11646   3.153   1.713   0.356  0.3734  0.1000 -0.0884
  646SOL    HW111647   3.239   1.682   0.315  2.3116  2.1640  2.2194
  646SOL    HW211648   3.146   1.812   0.347 -0.8767  0.1601  1.3346
  647SOL     OW11649   3.742   3.773   0.007  0.0543 -0.1107 -0.5556
  647SOL    HW111650   3.824   3.728  -0.029 -0.5421 -2.1615  0.5256
  647SOL    HW211651   3.761   3.806   0.100 -0.2958 -0.4964 -0.3431
  648SOL     OW11652   3.544   3.013   2.560 -0.4077 -0.4490 -0.5512
  648SOL    HW111653   3.598   2.960   2.625  1.3254  1.8866 -0.0220
  648SOL    HW211654   3.579   2.998   2.467  0.2728 -0.0090 -0.3666
  649SOL     OW11655   2.519   9.537   0.072  0.9581 -0.4183  0.2545
  649SOL    HW111656   2.478   9.569  -0.013 -0.6994  1.7730  1.8163
  649SOL    HW211657   2.602   9.588   0.091  2.7110 -2.5950 -1.2268
  650SOL     OW11658   2.872   0.508   0.966  0.3112 -0.0687  0.5231
  650SOL    HW111659   2.877   0.461   1.054  0.3164 -0.5309  0.2797
  650SOL    HW211660   2.904   0.446   0.894  0.7407  0.4577  0.2526
  651SOL     OW11661   3.811   9.702   2.070 -0.1207  0.5783 -0.2420
  651SOL    HW111662   3.771   9.789   2.098 -0.6911  0.6814 -1.3670
  651SOL    HW211663   3.765   9.669   1.988  1.3976  0.1899 -0.9511
  652SOL     OW11664   3.036   1.934   2.245  0.1855 -0.1826 -0.3908
  652SOL    HW111665   3.060   2.031   2.239 -0.0804 -0.1763 -1.5645
  652SOL    HW211666   3.080   1.893   2.324  2.4923  0.2759 -1.4042
  653SOL     OW11667   2.561   1.645   2.277  0.1369 -0.1225 -0.4049
  653SOL    HW111668   2.570   1.581   2.353 -0.1930  1.0792  0.6498
  653SOL    HW211669   2.513   1.600   2.202 -1.1895 -0.7326  0.7877
  654SOL     OW11670   4.502   3.964   0.972  0.5816 -0.1273 -0.1062
  654SOL    HW111671   4.474   4.001   0.883  1.7742 -0.0353 -0.4523
  654SOL    HW211672   4.587   3.911   0.961 -0.9125 -2.7263  0.4340
  655SOL     OW11673   2.845   9.343   1.260 -0.3779 -0.4377  0.2366
  655SOL    HW111674   2.927   9.353   1.204 -0.2871  1.2875  0.6299
  655SOL    HW211675   2.798   9.258   1.237  0.6696 -0.6639 -1.1126
  656SOL     OW11676   3.117   2.409   2.677 -0.0941  0.0055 -0.5037
  656SOL    HW111677   3.190   2.458   2.726 -0.6771 -0.7094  1.1384
  656SOL    HW211678   3.062   2.475   2.625  2.7267  0.3544 -3.1741
  657SOL     OW11679   3.626   4.541   1.234 -0.0526  0.5234  0.0274
  657SOL    HW111680   3.613   4.575   1.140  0.7424  2.8978  0.7503
  657SOL    HW211681   3.538   4.509   1.269 -0.8343  1.7799 -0.7181
  658SOL     OW11682   2.938   4.504   0.358 -0.1898  0.2850  0.6374
  658SOL    HW111683   2.877   4.532   0.284  0.5972 -1.3235 -0.6426
  658SOL    HW211684   3.010   4.572   0.369  0.6598 -0.2913 -1.2169
  659SOL     OW11685   3.508  10.390   2.030  0.2843  0.3632  0.3544
  659SOL    HW111686   3.499  10.350   2.122 -0.0620  0.2469  0.2724
  659SOL    HW211687   3.501  10.317   1.962  3.2207  0.0743  0.3185
  660SOL     OW11688   4.660   2.063   0.780 -0.4079 -0.2578 -0.4313
  660SOL    HW111689   4.683   2.091   0.873 -0.4575 -1.5147 -0.0421
  660SOL    HW211690   4.639   2.145   0.726 -0.2507  0.4922  0.6158
  661SOL     OW11691   3.724   2.300   1.813  0.5404 -0.0914  0.0795
  661SOL    HW111692   3.643   2.354   1.793 -0.5321 -1.2535  1.1760
  661SOL    HW211693   3.806   2.350   1.786 -0.6219  0.2170 -3.0900
  662SOL     OW11694   3.153   4.337   0.229 -0.2121 -0.2033 -0.1269
  662SOL    HW111695   3.079   4.363   0.291  1.5937 -1.7695  2.8055
  662SOL    HW211696   3.128   4.255   0.177 -0.2208 -1.2415  1.4969
  663SOL     OW11697   2.427   2.475   0.215  0.5394 -0.1261  0.0774
  663SOL    HW111698   2.478   2.408   0.161  1.8146  0.7083  0.2114
  663SOL    HW211699   2.452   2.466   0.312  1.2709  1.0245 -0.0016
  664SOL     OW11700   2.430   0.804   2.265  0.3065  0.0614  0.3433
  664SOL    HW111701   2.343   0.795   2.215  0.9397 -1.1517 -0.5657
  664SOL    HW211702   2.493   0.860   2.211 -0.3649  2.1201  1.6425
  665SOL     OW11703   2.252   0.506   0.606 -0.7660 -0.1707 -0.0829
  665SOL    HW111704   2.323   0.455   0.557  0.2370 -0.5871  1.7891
  665SOL    HW211705   2.293   0.585   0.651 -1.4348 -0.5440  1.2125
  666SOL     OW11706   3.115   2.805   0.545 -0.4924 -0.0699 -0.1119
  666SOL    HW111707   3.017   2.793   0.566 -0.5632 -1.2071 -1.0373
  666SOL    HW211708   3.126   2.819   0.447  0.4278 -1.7772 -0.2594
  667SOL     OW11709   3.910  10.188   2.033  0.5253  0.3101  0.0426
  667SOL    HW111710   3.920  10.186   1.933  3.1214  1.9718  0.2374
  667SOL    HW211711   3.901  10.282   2.063 -0.9374 -0.2309  1.3569
  668SOL     OW11712   3.432   0.840   2.681  0.2895 -0.6077  0.2944
  668SOL    HW111713   3.450   0.920   2.739 -0.3550 -0.2533  0.0112
  668SOL    HW211714   3.485   0.848   2.596  0.2434 -0.4857  0.2756
  669SOL     OW11715   2.949   9.506   1.443 -0.4158 -0.2303  0.3562
  669SOL    HW111716   3.000   9.577   1.395 -1.1581 -0.0836 -0.2321
  669SOL    HW211717   2.905   9.446   1.376  0.2501 -1.2702  0.8548
  670SOL     OW11718   2.880   1.311   1.417  0.0244  0.1407  0.3614
  670SOL    HW111719   2.900   1.219   1.382 -0.7492  0.5776 -1.2805
  670SOL    HW211720   2.895   1.378   1.345  1.2882  1.4103  1.7625
  671SOL     OW11721   2.850   1.384   0.255 -0.8150  0.0377  0.3581
  671SOL    HW111722   2.755   1.404   0.275 -0.8504  1.0489 -0.7561
  671SOL    HW211723   2.857   1.338   0.167 -0.3548 -0.9636  0.9075
  672SOL     OW11724   3.370   2.758   2.203 -0.0485  0.1204  0.0481
  672SOL    HW111725   3.324   2.707   2.276  0.9637 -0.8120  0.0553
  672SOL    HW211726   3.446   2.704   2.168  0.7430  1.4297 -0.2894
  673SOL     OW11727   2.394   9.689   0.287  0.1915 -0.3905  0.0093
  673SOL    HW111728   2.295   9.703   0.294  0.4807  1.9333 -0.3361
  673SOL    HW211729   2.415   9.639   0.203 -0.6399 -0.4160 -0.1843
  674SOL     OW11730   3.118   2.844   1.626  0.2695  0.0635 -0.3568
  674SOL    HW111731   3.217   2.856   1.620  0.1213  2.6426  1.4060
  674SOL    HW211732   3.075   2.881   1.544  0.7323 -0.3596 -0.7871
  675SOL     OW11733   2.346  10.326   2.303  0.3974 -0.5197  0.0432
  675SOL    HW111734   2.250  10.303   2.286  0.2710  0.1213 -0.1420
  675SOL    HW211735   2.405  10.260   2.257  0.0461 -1.1382  0.4736
  676SOL     OW11736   4.733   2.687   1.420  0.4900 -0.1868  0.4391
  676SOL    HW111737   4.653   2.726   1.375 -0.1243  0.7035  2.2530
  676SOL    HW211738   4.704   2.609   1.476  0.8489  0.2810  1.2791
  677SOL     OW11739   3.915   3.045   2.071 -0.1206  0.0839 -0.0917
  677SOL    HW111740   3.987   3.055   2.139 -0.1680  0.3693 -0.0826
  677SOL    HW211741   3.898   3.133   2.027 -0.1183 -0.0909 -0.4449
  678SOL     OW11742   3.118   9.701   2.248 -0.1141 -0.5187  0.3478
  678SOL    HW111743   3.209   9.660   2.253  0.6331  1.1123  0.5430
  678SOL    HW211744   3.123   9.787   2.198 -1.2884  0.2788  1.5491
  679SOL     OW11745   4.079   2.537   2.016  0.3150  0.2901  0.3932
  679SOL    HW111746   4.030   2.472   2.075 -1.0764  0.3155 -0.7008
  679SOL    HW211747   4.030   2.624   2.015  1.4425  0.9369  0.7918
  680SOL     OW11748   2.972   0.878   2.038 -0.2172  0.6858 -0.5220
  680SOL    HW111749   2.922   0.885   2.125 -0.4537  0.0842 -0.6100
  680SOL    HW211750   2.959   0.962   1.986  0.0250  1.1010  0.0821
  681SOL     OW11751   3.165   1.696   0.879  0.3770  0.1574 -1.0622
  681SOL    HW111752   3.223   1.621   0.910 -2.0098 -1.1308  0.4387
  681SOL    HW211753   3.088   1.659   0.827  0.2031  1.7399 -1.9733
  682SOL     OW11754   2.777   3.422   2.628 -0.1394  0.7272  0.0099
  682SOL    HW111755   2.802   3.496   2.565  0.2551 -0.5007 -1.2851
  682SOL    HW211756   2.859   3.386   2.671 -0.1886  0.1492 -0.3714
  683SOL     OW11757   2.507   9.237   2.434 -0.0181 -0.3084 -0.1647
  683SOL    HW111758   2.540   9.264   2.525  0.1893  0.7577 -0.5518
  683SOL    HW211759   2.584   9.231   2.371 -0.2979  0.0436 -0.5412
  684SOL     OW11760   3.444   1.278   0.611 -0.1585 -0.0524  0.6706
  684SOL    HW111761   3.348   1.266   0.633 -0.2264 -1.0976 -0.1906
  684SOL    HW211762   3.500   1.227   0.676 -0.1188  1.5733  1.9469
  685SOL     OW11763   3.380   4.203   1.349 -0.2205 -0.1990  0.2184
  685SOL    HW111764   3.329   4.117   1.341  0.4250 -0.7370  1.6296
  685SOL    HW211765   3.466   4.195   1.299 -0.3881 -0.2070 -0.0657
  686SOL     OW11766   2.900  10.173   0.915  0.2417  0.1324  0.3196
  686SOL    HW111767   2.820  10.113   0.904  0.1429  0.3109  0.0623
  686SOL    HW211768   2.905  10.236   0.837  0.6744  0.0722  0.2970
  687SOL     OW11769   2.604   8.315   0.125 -0.1742  0.2811  0.0912
  687SOL    HW111770   2.631   8.386   0.060  1.9079  0.7822  1.4238
  687SOL    HW211771   2.599   8.355   0.217  0.5129 -1.1536  0.7701
  688SOL     OW11772   2.651   0.859   2.515 -0.3124  0.2928  0.4793
  688SOL    HW111773   2.650   0.959   2.511 -1.2618  0.2500 -0.4751
  688SOL    HW211774   2.559   0.825   2.531 -0.1278 -0.4622 -0.0084
  689SOL     OW11775   3.272   1.626   0.016  0.0146  0.0200  0.0211
  689SOL    HW111776   3.183   1.587  -0.006 -0.0613  0.6861 -0.8856
  689SOL    HW211777   3.293   1.609   0.112 -1.6866  0.9822  0.5785
  690SOL     OW11778   3.212   3.528   2.575 -0.0509 -0.6126  0.0436
  690SOL    HW111779   3.245   3.539   2.481  0.0104 -1.6041 -0.0629
  690SOL    HW211780   3.159   3.443   2.581 -0.2980 -0.3984  0.8358
  691SOL     OW11781   2.486   9.261   1.228  0.7696  0.1185 -0.0741
  691SOL    HW111782   2.420   9.267   1.154  0.7329 -0.2302 -0.0746
  691SOL    HW211783   2.471   9.335   1.293  0.7766  0.3989 -0.3966
  692SOL     OW11784   4.002   3.309   0.644 -0.0606 -0.5024 -0.1247
  692SOL    HW111785   4.051   3.233   0.602 -0.9259 -1.0305 -0.1920
  692SOL    HW211786   4.049   3.395   0.622  0.2906 -0.9078 -0.9963
  693SOL     OW11787   4.132   3.044   1.018 -0.2766  0.1817  0.1908
  693SOL    HW111788   4.091   3.041   1.109 -2.3384 -1.0060 -0.7355
  693SOL    HW211789   4.064   3.014   0.951  1.3176  0.7603 -1.6999
  694SOL     OW11790   2.742   1.982   0.408 -0.2261  0.2891 -0.0046
  694SOL    HW111791   2.733   1.938   0.497  1.8151 -0.4400 -0.1256
  694SOL    HW211792   2.835   2.018   0.398 -1.1303  2.4564 -0.9081
  695SOL     OW11793   2.242   4.138   1.567 -0.0379  0.4435 -0.2540
  695SOL    HW111794   2.297   4.151   1.484  1.8632  0.1803  0.9443
  695SOL    HW211795   2.147   4.120   1.541  0.7185 -0.6699 -2.4033
  696SOL     OW11796   4.834   3.118   0.683  0.2887 -0.0019  0.1322
  696SOL    HW111797   4.900   3.193   0.675  0.3537 -0.0832 -0.0904
  696SOL    HW211798   4.843   3.076   0.774  0.3293  0.1860  0.2169
  697SOL     OW11799   3.531   3.228   0.516  0.0013  0.1859  0.1879
  697SOL    HW111800   3.449   3.263   0.469 -0.1267 -0.0797  0.2137
  697SOL    HW211801   3.522   3.244   0.614 -1.1155 -2.0038  0.4822
  698SOL     OW11802   3.017   2.051   0.500  0.2511  0.4136  0.2790
  698SOL    HW111803   3.081   2.060   0.424 -0.9121  0.1401 -0.7557
  698SOL    HW211804   3.048   1.980   0.563  1.6527  1.2158  0.5046
  699SOL     OW11805   4.473   4.609   0.472 -0.6208 -0.1611 -0.1438
  699SOL    HW111806   4.421   4.686   0.437  0.8074  0.6405 -0.5157
  699SOL    HW211807   4.497   4.547   0.397  1.9436  1.2632 -0.5343
  700SOL     OW11808   5.155   3.656   0.954  0.0520  0.4524 -0.3809
  700SOL    HW111809   5.214   3.608   1.019  0.5091  1.3895 -0.0815
  700SOL    HW211810   5.060   3.647   0.982  0.1672  0.0344 -0.1256
  701SOL     OW11811   3.426   4.084   1.010  0.6808 -0.1599 -0.0359
  701SOL    HW111812   3.337   4.126   1.026  0.7786  0.4200 -0.9705
  701SOL    HW211813   3.497   4.137   1.056  0.7326  0.3538 -0.7009
  702SOL     OW11814   2.405   8.970   2.165 -0.2904  0.2578 -0.3455
  702SOL    HW111815   2.374   8.875   2.167  0.3203  0.0412 -0.9079
  702SOL    HW211816   2.505   8.972   2.162 -0.2018  0.9445  2.0564
  703SOL     OW11817   2.746   2.815   1.491  0.0158  0.1443 -0.2838
  703SOL    HW111818   2.744   2.796   1.589 -0.7318  1.6598  0.0235
  703SOL    HW211819   2.664   2.868   1.466  1.7912  2.6113 -1.0915
  704SOL     OW11820   2.388   1.535   2.077  0.2219 -0.2446  0.0836
  704SOL    HW111821   2.426   1.579   1.996  1.9044 -1.4849  0.1736
  704SOL    HW211822   2.382   1.436   2.062 -0.9367 -0.3168  0.9011
  705SOL     OW11823   3.843   2.075   0.683  0.6209  0.6873  0.4847
  705SOL    HW111824   3.917   2.143   0.683  1.0647  0.2178  1.8086
  705SOL    HW211825   3.791   2.083   0.598  2.6143  0.5540 -0.7931
  706SOL     OW11826   4.301   1.791   1.395 -0.2962  0.0283  0.3430
  706SOL    HW111827   4.246   1.735   1.457 -1.8833  0.3010 -0.8056
  706SOL    HW211828   4.288   1.760   1.301 -0.5411  1.7963 -0.2203
  707SOL     OW11829   2.464   1.132   2.659  0.8669  0.0194 -0.1335
  707SOL    HW111830   2.388   1.067   2.663  1.2932 -0.3952  1.3119
  707SOL    HW211831   2.451   1.194   2.581  0.8286 -2.2542 -1.9950
  708SOL     OW11832   2.680   8.937   2.107  0.3596  0.1373  0.2465
  708SOL    HW111833   2.682   8.983   2.019 -0.0248  0.0361  0.1817
  708SOL    HW211834   2.703   8.840   2.094 -2.3366 -0.4955 -0.1538
  709SOL     OW11835   2.247   2.559   0.698  0.0201  0.4431 -0.1534
  709SOL    HW111836   2.208   2.649   0.717 -1.4439 -0.4111  0.9829
  709SOL    HW211837   2.199   2.490   0.752  3.0246 -0.6731  1.1656
  710SOL     OW11838   2.731   9.772   1.204 -0.0707  0.1710  0.5951
  710SOL    HW111839   2.709   9.679   1.175 -0.6467 -0.2841  2.4072
  710SOL    HW211840   2.810   9.805   1.152 -0.7831 -0.7481 -1.1243
  711SOL     OW11841   2.954   1.065   0.128 -0.0939 -0.7005  0.3640
  711SOL    HW111842   2.970   1.129   0.053 -1.5236 -2.2792 -1.3283
  711SOL    HW211843   3.042   1.027   0.159  0.3961 -1.2444 -1.6084
  712SOL     OW11844   3.202   1.071   1.688 -0.1024  0.3641  0.8312
  712SOL    HW111845   3.185   1.134   1.764 -0.3532  2.6197 -1.0393
  712SOL    HW211846   3.255   1.117   1.617 -0.7226 -1.3818 -0.8162
  713SOL     OW11847   3.501   2.209   0.626 -0.2947 -0.2763  0.0373
  713SOL    HW111848   3.519   2.245   0.717 -1.1932  2.3912 -0.8141
  713SOL    HW211849   3.403   2.211   0.608  0.1156  2.1029 -2.1375
  714SOL     OW11850   2.762   2.511   0.742  0.1777 -0.2703 -0.0134
  714SOL    HW111851   2.796   2.429   0.696  1.9686  1.6822 -2.2482
  714SOL    HW211852   2.666   2.526   0.716 -0.0572 -1.4546  0.1418
  715SOL     OW11853   3.602  10.073   1.961 -0.5478  0.4107 -0.0578
  715SOL    HW111854   3.683  10.118   2.000 -0.7516 -0.5119  1.4775
  715SOL    HW211855   3.583   9.989   2.012 -0.5900 -1.0744 -2.4341
  716SOL     OW11856   2.779   9.658   2.668  0.0809  0.2432 -0.3257
  716SOL    HW111857   2.836   9.712   2.729 -1.0043  1.7650 -0.6405
  716SOL    HW211858   2.819   9.658   2.576  0.7620 -0.5726 -0.0386
  717SOL     OW11859   3.420   3.897   1.638 -0.1562 -0.1975 -0.3797
  717SOL    HW111860   3.402   3.937   1.548 -0.0594  0.2987 -0.1830
  717SOL    HW211861   3.348   3.831   1.661 -0.7453  0.4420 -0.3720
  718SOL     OW11862   3.433   3.965   2.131  0.1751  0.2477 -0.9411
  718SOL    HW111863   3.434   3.896   2.058  2.2563  0.1834 -0.8906
  718SOL    HW211864   3.441   3.920   2.220 -1.4694  0.3831 -0.7124
  719SOL     OW11865   2.777   9.940   0.530 -0.9348 -0.3797  0.1223
  719SOL    HW111866   2.770   9.895   0.441  0.4136  0.2066 -0.2899
  719SOL    HW211867   2.695   9.920   0.584 -2.5052  0.5414 -1.8389
  720SOL     OW11868   3.142   9.436   0.436 -0.1208  0.0896  0.0204
  720SOL    HW111869   3.234   9.475   0.432 -0.1133  0.0462 -0.2067
  720SOL    HW211870   3.139   9.368   0.509  0.3777 -0.8185 -0.7961
  721SOL     OW11871   3.675   9.632   1.845  0.0377  0.3445  0.1006
  721SOL    HW111872   3.664   9.659   1.749  0.3673  0.1175 -0.0027
  721SOL    HW211873   3.673   9.533   1.852 -0.0718  0.3638  0.3415
  722SOL     OW11874   3.013   0.865   0.358  0.5110  0.6280 -0.8682
  722SOL    HW111875   3.059   0.838   0.274 -3.0476 -3.8749 -1.5243
  722SOL    HW211876   2.924   0.905   0.337  0.3039  1.0401  0.6787
  723SOL     OW11877   2.218   2.288   1.189 -0.3793  0.2105  0.2206
  723SOL    HW111878   2.221   2.388   1.182  1.8942  0.0841 -0.9262
  723SOL    HW211879   2.219   2.247   1.098 -1.2214 -0.8764  0.6818
  724SOL     OW11880   3.536   5.051   0.160 -0.1717 -0.0550  0.2782
  724SOL    HW111881   3.586   5.137   0.149 -0.5427  0.2228  0.7817
  724SOL    HW211882   3.576   4.982   0.099  0.9798  0.1031  0.8277
  725SOL     OW11883   2.947   1.756   2.675 -0.0764 -0.2356  0.1181
  725SOL    HW111884   2.855   1.793   2.685  0.5718  1.5453 -0.2058
  725SOL    HW211885   2.953   1.703   2.590 -0.5120  0.5975 -0.4418
  726SOL     OW11886   2.702   4.147   1.825  0.4494 -0.7030  0.1015
  726SOL    HW111887   2.697   4.212   1.750  1.5796 -0.5562  0.1537
  726SOL    HW211888   2.797   4.133   1.852  0.0479 -0.6585  1.5934
  727SOL     OW11889   3.866   2.519   1.486  0.2699 -0.3270  0.6465
  727SOL    HW111890   3.806   2.471   1.422  0.8049 -0.3410  0.1449
  727SOL    HW211891   3.953   2.538   1.441  0.3111  0.4973  1.0776
  728SOL     OW11892   2.968   9.874   1.112  0.5976  0.4848 -0.1328
  728SOL    HW111893   3.021   9.959   1.112  0.5908  0.4876 -0.8107
  728SOL    HW211894   2.950   9.846   1.018  0.3183 -0.0929  0.0943
  729SOL     OW11895   3.374   4.304   2.556 -0.0510 -0.0536  0.3166
  729SOL    HW111896   3.280   4.299   2.524 -0.9690  0.4564  2.8098
  729SOL    HW211897   3.402   4.215   2.593 -0.0004  0.1458  0.7610
  730SOL     OW11898   3.957   9.273   0.957  0.0649  0.3846  0.6330
  730SOL    HW111899   3.857   9.276   0.968  0.0079 -1.4240  0.7028
  730SOL    HW211900   3.980   9.292   0.861 -0.2821  1.6811  0.7947
  731SOL     OW11901   2.954   4.383   0.607  0.2629 -0.0017  0.1931
  731SOL    HW111902   2.927   4.424   0.520 -2.0964 -1.9338 -0.0188
  731SOL    HW211903   2.954   4.453   0.679 -1.6092  0.8225 -0.5803
  732SOL     OW11904   2.404   9.096   1.753  0.3645 -0.2452  1.1374
  732SOL    HW111905   2.429   9.193   1.744 -0.9657 -0.1060 -1.7181
  732SOL    HW211906   2.321   9.087   1.808  0.3147  0.2876  1.1502
  733SOL     OW11907   3.202   2.044   0.305 -0.2738 -0.0742 -0.3005
  733SOL    HW111908   3.237   2.133   0.278 -0.1115 -0.2128 -0.5462
  733SOL    HW211909   3.181   1.990   0.223 -0.7517 -0.1105 -0.1562
  734SOL     OW11910   3.552   2.234   2.663  0.2423 -0.4128  0.2797
  734SOL    HW111911   3.599   2.160   2.614  0.2594 -1.2613  1.5533
  734SOL    HW211912   3.599   2.251   2.750 -1.8911 -1.3771  1.6583
  735SOL     OW11913   3.169   3.665   2.294  0.4947 -0.0837  0.4925
  735SOL    HW111914   3.183   3.737   2.362  1.5010  0.4401 -0.2308
  735SOL    HW211915   3.072   3.647   2.283  0.1615  1.7480  0.1369
  736SOL     OW11916   2.442   1.194   1.791 -0.2929  0.2825 -0.1303
  736SOL    HW111917   2.427   1.239   1.703  1.5988 -0.7066 -1.0023
  736SOL    HW211918   2.449   1.095   1.776 -2.3484 -0.1410  1.4722
  737SOL     OW11919   2.705   0.762   0.942  0.1605 -0.4324 -0.0718
  737SOL    HW111920   2.751   0.676   0.965 -2.6781 -1.5358  1.8331
  737SOL    HW211921   2.666   0.756   0.851 -0.6663 -1.4751  0.3423
  738SOL     OW11922   4.704   2.063   0.413  0.0748 -0.0904 -0.5781
  738SOL    HW111923   4.681   1.979   0.461 -0.3818  0.0047 -0.6268
  738SOL    HW211924   4.665   2.060   0.321 -0.0158  0.2116 -0.5499
  739SOL     OW11925   3.628  10.144   0.834  0.2632  0.5231  0.1172
  739SOL    HW111926   3.651  10.066   0.777 -0.5786  0.4406 -0.1145
  739SOL    HW211927   3.640  10.120   0.931  2.1934  0.8254 -0.0224
  740SOL     OW11928   4.746   3.199   1.248 -0.2326 -0.3182 -0.1197
  740SOL    HW111929   4.846   3.205   1.243 -0.3977  0.9524 -2.5121
  740SOL    HW211930   4.717   3.108   1.218  0.0792  0.2218 -2.1561
  741SOL     OW11931   3.197   2.067   0.839  0.6289  0.3447  0.0100
  741SOL    HW111932   3.247   2.083   0.923  2.0737  0.2209 -0.8180
  741SOL    HW211933   3.226   2.132   0.769  0.5563 -0.5574 -0.8657
  742SOL     OW11934   3.362   0.598   1.918  0.0795 -0.2240  0.0842
  742SOL    HW111935   3.279   0.609   1.974  0.8856  1.0512  1.0328
  742SOL    HW211936   3.426   0.537   1.965  0.2958 -0.0386  0.0286
  743SOL     OW11937   2.657   3.584   1.665  0.5440 -0.0976 -0.0001
  743SOL    HW111938   2.608   3.639   1.733  0.9144 -0.3934  0.5069
  743SOL    HW211939   2.672   3.638   1.583 -0.0022  0.2278  0.1092
  744SOL     OW11940   3.572   5.218   0.853 -0.2706 -0.3370 -0.0082
  744SOL    HW111941   3.637   5.149   0.884  0.0863  0.2562  0.5737
  744SOL    HW211942   3.601   5.308   0.885 -0.3417  0.1831 -1.3677
  745SOL     OW11943   3.205   1.940   2.512  0.2373 -0.2028 -0.1706
  745SOL    HW111944   3.248   2.030   2.511 -0.7457  0.2751 -0.2767
  745SOL    HW211945   3.178   1.917   2.605 -1.3133  0.4954 -0.4332
  746SOL     OW11946   3.267   3.780   0.708 -0.0138 -0.3544 -0.4818
  746SOL    HW111947   3.225   3.692   0.730 -1.4937  0.2377 -0.8978
  746SOL    HW211948   3.351   3.791   0.762 -2.0963 -0.1364  2.8972
  747SOL     OW11949   1.997   1.937   0.353 -1.1112 -0.5892 -0.5107
  747SOL    HW111950   2.024   1.925   0.258  3.2519  1.1707  0.3815
  747SOL    HW211951   2.036   1.863   0.409  1.3190  1.4877  0.6754
  748SOL     OW11952   3.000   4.312   1.416 -0.0760  0.5877  0.4299
  748SOL    HW111953   2.995   4.255   1.334 -2.1124 -1.1413  1.7125
  748SOL    HW211954   2.987   4.408   1.390 -0.1594  0.1107 -1.3436
  749SOL     OW11955   2.574   2.273   0.094  0.1398 -0.0989  0.1952
  749SOL    HW111956   2.636   2.320   0.031 -1.0318  0.7354 -0.3563
  749SOL    HW211957   2.601   2.177   0.102  1.0532  0.0831 -0.6084
  750SOL     OW11958   3.690   3.706   1.587 -0.0402 -0.3668  0.3289
  750SOL    HW111959   3.598   3.746   1.582 -1.1637 -2.4565  3.0031
  750SOL    HW211960   3.756   3.777   1.611 -1.2336  0.8214  0.1505
  751SOL     OW11961   2.881   1.324  -0.004  0.4802  0.1848  0.2093
  751SOL    HW111962   2.949   1.382  -0.049 -0.4058  0.8339 -0.2998
  751SOL    HW211963   2.789   1.357  -0.024  0.0022 -0.6431  0.9566
  752SOL     OW11964   2.467   2.508   1.719 -0.1878 -0.4672 -0.0334
  752SOL    HW111965   2.491   2.497   1.623 -0.0583  0.3880 -0.1023
  752SOL    HW211966   2.516   2.440   1.774 -0.1447 -0.8540 -0.5524
  753SOL     OW11967   2.978   3.626   0.926  0.0126 -0.4011 -0.3599
  753SOL    HW111968   3.016   3.617   0.834  0.0640  1.6948 -0.5684
  753SOL    HW211969   3.000   3.717   0.963  0.6694 -1.4947  2.0416
  754SOL     OW11970   2.475   0.998   1.192 -0.0276 -0.6583 -0.0418
  754SOL    HW111971   2.567   0.981   1.155  0.0319 -2.6363  0.9406
  754SOL    HW211972   2.431   0.910   1.213 -2.7381  0.1785 -1.8955
  755SOL     OW11973   4.068   1.995   1.296 -0.2372 -0.2655 -0.4089
  755SOL    HW111974   4.143   2.051   1.262  1.6697 -2.5636 -0.1143
  755SOL    HW211975   4.061   1.912   1.242 -1.9957 -0.4975  0.1389
  756SOL     OW11976   4.282   3.016   0.797 -0.0463 -0.2823  0.2637
  756SOL    HW111977   4.374   3.054   0.802  0.7532 -1.9545 -1.1421
  756SOL    HW211978   4.243   3.011   0.888  1.9004 -1.0826  1.0769
  757SOL     OW11979   3.424   2.840   0.255  0.2216  0.1348  0.0065
  757SOL    HW111980   3.508   2.846   0.202 -0.0106 -0.2061 -0.4108
  757SOL    HW211981   3.445   2.828   0.352  0.6538  1.2839  0.0639
  758SOL     OW11982   4.590   4.246   0.732 -0.1033  0.0959  0.6248
  758SOL    HW111983   4.638   4.291   0.657  1.7640 -1.3425  0.9263
  758SOL    HW211984   4.653   4.231   0.808 -1.2801 -0.9132  1.4154
  759SOL     OW11985   2.389   1.239   2.046 -0.6076 -0.2651 -0.3681
  759SOL    HW111986   2.398   1.217   1.949  0.3370  1.2208 -0.6421
  759SOL    HW211987   2.469   1.205   2.095 -0.0011  0.9623 -0.4965
  760SOL     OW11988   3.374   4.475   1.299 -0.7961  0.7499  0.2509
  760SOL    HW111989   3.307   4.546   1.320 -1.0769  0.0563  1.7394
  760SOL    HW211990   3.348   4.390   1.344  0.8016  0.3364  0.4371
  761SOL     OW11991   4.154   3.749   1.878  0.1877 -0.0096  0.1815
  761SOL    HW111992   4.177   3.740   1.781  4.1432  0.6206  0.9921
  761SOL    HW211993   4.179   3.665   1.927  3.9797  1.8341  1.6262
  762SOL     OW11994   2.913  10.133   2.518 -0.1899 -0.1387 -0.2259
  762SOL    HW111995   2.985  10.063   2.515 -0.2359 -0.1566 -1.1461
  762SOL    HW211996   2.925  10.196   2.441 -0.1204  0.8984  0.6253
  763SOL     OW11997   2.128   2.822   0.759 -0.3420 -0.7378 -0.2821
  763SOL    HW111998   2.061   2.862   0.821 -1.1001 -1.6128 -0.5295
  763SOL    HW211999   2.179   2.896   0.713  0.3169 -0.0952  1.4586
  764SOL     OW12000   3.213   4.525   0.869 -0.2389  0.0719 -0.4004
  764SOL    HW112001   3.167   4.553   0.784  0.8711  3.0899 -0.0623
  764SOL    HW212002   3.145   4.510   0.940 -0.9018  1.9559 -0.6143
  765SOL     OW12003   3.918   1.514   1.203  0.1857 -0.1581 -0.1895
  765SOL    HW112004   3.890   1.552   1.291  0.6670  0.2344 -0.2026
  765SOL    HW212005   3.902   1.415   1.203  1.2543 -0.3434  0.7705
  766SOL     OW12006   3.074   4.951   1.685  0.3039  0.0148  0.4660
  766SOL    HW112007   3.170   4.927   1.700  0.3110  0.4294  1.1170
  766SOL    HW212008   3.021   4.867   1.668  1.4788  0.1103 -4.3052
  767SOL     OW12009   3.864   9.730   2.350  0.1577  0.7863  0.0376
  767SOL    HW112010   3.892   9.656   2.411 -2.7452  0.3283  0.8538
  767SOL    HW212011   3.877   9.701   2.255 -0.5836 -0.6374  0.3605
  768SOL     OW12012   4.226   4.015   1.917  0.6856 -0.3633 -0.0179
  768SOL    HW112013   4.198   3.922   1.892  2.6836 -0.9218 -0.2768
  768SOL    HW212014   4.326   4.019   1.923  0.6167  1.7692  0.0153
  769SOL     OW12015   4.643   2.103   1.077 -0.1737  0.3486  0.4718
  769SOL    HW112016   4.685   2.106   1.167 -0.6733 -0.0953  0.7202
  769SOL    HW212017   4.561   2.046   1.080 -0.9119  1.3756  0.0398
  770SOL     OW12018   4.766   4.262   0.943 -0.5821  0.7605  0.1198
  770SOL    HW112019   4.816   4.184   0.981  1.4229  2.5960  1.3452
  770SOL    HW212020   4.829   4.321   0.893 -1.9751  1.8428 -0.3824
  771SOL     OW12021   8.992   8.748   1.191  0.0772 -0.0155  0.3649
  771SOL    HW112022   9.052   8.669   1.200 -1.1587 -0.9686  0.4364
  771SOL    HW212023   8.977   8.767   1.094  1.1101  0.7105  0.3421
  772SOL     OW12024   2.432   0.574   0.019 -0.1855  0.2655 -0.1015
  772SOL    HW112025   2.416   0.666  -0.016 -0.5387  0.2670  0.0620
  772SOL    HW212026   2.529   0.563   0.040  0.0695  0.1662 -1.3368
  773SOL     OW12027   2.936   9.990   1.574  0.3628 -0.5507 -0.9138
  773SOL    HW112028   2.859  10.028   1.626 -0.6373 -0.5650 -2.3292
  773SOL    HW212029   2.975  10.062   1.516  1.6300 -0.4641  0.0272
  774SOL     OW12030   4.468   3.667   2.348 -0.1436 -0.1911  0.4052
  774SOL    HW112031   4.421   3.756   2.343 -3.1786 -1.5421  3.1893
  774SOL    HW212032   4.475   3.639   2.443  1.2872 -2.6976 -0.4211
  775SOL     OW12033   2.146   9.783   0.297 -0.1740  0.4694  0.0193
  775SOL    HW112034   2.110   9.694   0.269  0.3759  0.2316  0.0600
  775SOL    HW212035   2.116   9.852   0.231 -1.2929  0.3983  0.4476
  776SOL     OW12036   3.129   1.597   1.985 -0.0931  0.2839 -0.2367
  776SOL    HW112037   3.213   1.599   2.038 -0.0565 -1.3170 -0.2252
  776SOL    HW212038   3.150   1.581   1.889 -0.4042 -0.7149 -0.1500
  777SOL     OW12039   2.405   2.252   1.397  0.8741 -0.3512 -0.2423
  777SOL    HW112040   2.334   2.257   1.327 -0.2985  0.4539  0.9891
  777SOL    HW212041   2.446   2.342   1.409  0.5652 -0.3171  0.6093
  778SOL     OW12042   2.311   1.661   0.306 -0.0486 -0.2573 -0.3182
  778SOL    HW112043   2.230   1.661   0.364  0.7621  0.7647  0.8493
  778SOL    HW212044   2.393   1.677   0.362  0.9590 -1.2297 -1.4789
  779SOL     OW12045   2.981   4.527   1.029 -0.0630  0.1195 -0.2984
  779SOL    HW112046   2.900   4.470   1.046  0.9217 -0.8553  1.2240
  779SOL    HW212047   2.959   4.622   1.051 -0.1884 -0.4495  2.2911
  780SOL     OW12048   2.432   1.150   0.778  0.0153 -0.3803 -0.3564
  780SOL    HW112049   2.525   1.148   0.813 -0.7609 -0.0671  1.8094
  780SOL    HW212050   2.419   1.232   0.722  0.2583  1.0885  1.6648
  781SOL     OW12051   4.316   1.947   2.017 -0.0699 -0.8493 -0.3615
  781SOL    HW112052   4.256   1.889   2.072  0.4863 -1.4362 -0.3750
  781SOL    HW212053   4.340   1.901   1.932  0.1565 -0.4913 -0.4938
  782SOL     OW12054   4.894   3.625   1.026  0.1278 -0.4894  0.3522
  782SOL    HW112055   4.885   3.638   1.125 -0.9646  0.3649  0.1430
  782SOL    HW212056   4.855   3.536   1.000 -1.3851  0.1383  0.4259
  783SOL     OW12057   4.489   0.847   1.128 -0.1389  0.1048  0.0564
  783SOL    HW112058   4.564   0.781   1.119 -0.8823 -0.8902  1.0571
  783SOL    HW212059   4.452   0.868   1.038  0.1160 -0.8321 -0.2692
  784SOL     OW12060   4.909   4.047   1.016 -0.0596 -0.4081 -0.2726
  784SOL    HW112061   5.005   4.047   0.990 -0.2780 -0.7080 -1.1219
  784SOL    HW212062   4.872   3.954   1.008 -0.5387 -0.2078 -0.4382
  785SOL     OW12063   2.841   1.355   2.132 -0.3369  0.2165 -0.3892
  785SOL    HW112064   2.870   1.442   2.171  0.7595 -0.5570  0.5461
  785SOL    HW212065   2.850   1.358   2.032  2.6820  0.1276 -0.1726
  786SOL     OW12066   2.468   1.694   1.873  0.4143  0.6495  0.3633
  786SOL    HW112067   2.391   1.758   1.873 -0.5405 -0.4472  2.2489
  786SOL    HW212068   2.541   1.729   1.931  0.2215  0.4218  0.7466
  787SOL     OW12069   2.819   3.255   0.854 -0.0187  0.0209 -0.0268
  787SOL    HW112070   2.830   3.292   0.762  2.9336  0.8538  0.6155
  787SOL    HW212071   2.852   3.161   0.856 -0.7214 -0.2270  0.0319
  788SOL     OW12072   3.198   3.145   1.117  0.5879 -0.3840  0.0067
  788SOL    HW112073   3.201   3.171   1.021 -1.2532  0.5079  0.1731
  788SOL    HW212074   3.104   3.154   1.152  1.5356  0.9075  2.3183
  789SOL     OW12075   2.647   9.117   0.718 -0.1995 -0.2433 -0.2094
  789SOL    HW112076   2.592   9.116   0.801 -0.2260 -1.8064 -0.2396
  789SOL    HW212077   2.598   9.167   0.646 -0.3325  0.7942  0.5863
  790SOL     OW12078   2.554   0.924   1.813 -0.2294 -0.3254  0.5219
  790SOL    HW112079   2.587   0.941   1.906  0.6074 -1.0601  0.3644
  790SOL    HW212080   2.513   0.833   1.808 -0.6453 -0.1242  0.2758
  791SOL     OW12081   3.459   0.707   0.940 -0.5660 -0.4401  0.1642
  791SOL    HW112082   3.401   0.641   0.987 -1.1846  0.1099  0.1774
  791SOL    HW212083   3.425   0.799   0.957  0.0103 -0.1483 -0.2501
  792SOL     OW12084   4.024   4.250   2.472  0.0407 -0.2239 -0.1088
  792SOL    HW112085   4.120   4.226   2.461  0.4341  1.1591  0.2408
  792SOL    HW212086   3.980   4.257   2.383  0.4369 -0.1323 -0.2929
  793SOL     OW12087   3.600   4.263   1.187  0.3464  0.2608 -0.3165
  793SOL    HW112088   3.672   4.195   1.172 -0.2864 -0.5322  0.2662
  793SOL    HW212089   3.633   4.353   1.156  1.2625 -0.2583 -0.8674
  794SOL     OW12090   3.665   5.147   1.234  0.0570 -0.2265 -0.2568
  794SOL    HW112091   3.618   5.235   1.223  1.4051  0.3925 -1.2197
  794SOL    HW212092   3.715   5.147   1.321  0.1252 -0.0035 -0.2951
  795SOL     OW12093   3.733   2.596   1.765 -0.5920  0.1611 -0.1165
  795SOL    HW112094   3.828   2.628   1.760 -0.0189 -1.0721  2.2336
  795SOL    HW212095   3.683   2.628   1.685  1.4549  1.9968 -0.7097
  796SOL     OW12096   5.147   3.055   1.361 -0.3217  0.2716 -0.0108
  796SOL    HW112097   5.164   2.957   1.373 -0.2432  0.1295 -1.2146
  796SOL    HW212098   5.134   3.098   1.451  0.1519 -0.7442  0.5543
  797SOL     OW12099   3.230   2.464   1.965  0.0696 -0.1815  0.0356
  797SOL    HW112100   3.185   2.402   1.901 -0.8524 -0.5175  0.9883
  797SOL    HW212101   3.266   2.543   1.915 -0.1772 -0.6913 -0.9670
  798SOL     OW12102   4.058   9.293   0.118 -0.0312  0.1324 -0.0194
  798SOL    HW112103   4.104   9.205   0.110 -1.3671 -0.5406 -0.4344
  798SOL    HW212104   3.992   9.290   0.193 -0.4556  0.6007 -0.3694
  799SOL     OW12105   3.168   9.275   0.652  0.6013  0.2945  0.1355
  799SOL    HW112106   3.141   9.295   0.746  0.3011  0.2631  0.0560
  799SOL    HW212107   3.268   9.281   0.644  0.6954 -0.5388  0.6542
  800SOL     OW12108   3.531   4.607   0.471 -0.3437 -0.5899 -0.2724
  800SOL    HW112109   3.618   4.617   0.519 -0.7824 -0.4105  0.4816
  800SOL    HW212110   3.465   4.672   0.507 -1.6617 -2.6543  1.1395
  801SOL     OW12111   2.869   0.410   2.667  0.2164 -0.1175 -0.3542
  801SOL    HW112112   2.968   0.393   2.664 -0.0167 -1.4888 -0.2596
  801SOL    HW212113   2.820   0.325   2.653 -0.9694  0.4256  0.4263
  802SOL     OW12114   2.961  10.347   2.363 -0.3238  0.5511  0.2157
  802SOL    HW112115   2.902  10.348   2.283  0.0409 -0.0110 -0.0673
  802SOL    HW212116   2.974  10.440   2.397 -1.3935  0.6654  0.3061
  803SOL     OW12117   3.876   9.838   0.246  0.0831  0.1158  0.3768
  803SOL    HW112118   3.841   9.931   0.258 -1.5512 -0.2897 -1.0244
  803SOL    HW212119   3.944   9.837   0.173  0.3521  0.2603  0.6227
  804SOL     OW12120   4.326   4.326   1.244  0.1389  0.3039  0.1360
  804SOL    HW112121   4.269   4.367   1.173  0.2309  1.5101  0.7270
  804SOL    HW212122   4.404   4.279   1.203 -0.6496 -0.3338 -0.6199
  805SOL     OW12123   3.543   3.066   2.114  0.1933 -0.2051 -0.0152
  805SOL    HW112124   3.618   3.042   2.175  0.9459  2.5484  0.1695
  805SOL    HW212125   3.458   3.073   2.167  0.2756 -0.7755  0.1963
  806SOL     OW12126   2.499   9.403   2.009  0.0834 -0.0181 -0.2914
  806SOL    HW112127   2.443   9.465   2.063 -0.1200 -1.1052  0.7748
  806SOL    HW212128   2.584   9.383   2.058 -0.4035 -1.5491 -0.0331
  807SOL     OW12129   3.591   2.972   0.521  0.0547 -0.1519 -0.2458
  807SOL    HW112130   3.564   3.068   0.515 -0.0877 -0.1613  0.2032
  807SOL    HW212131   3.510   2.915   0.534  0.2686 -0.1924  0.9869
  808SOL     OW12132   3.170   8.648   1.819  0.0087  0.1674 -0.1477
  808SOL    HW112133   3.233   8.710   1.771  0.7705 -0.1349  0.4564
  808SOL    HW212134   3.125   8.588   1.752  0.9925 -0.1821 -0.4995
  809SOL     OW12135   3.240   8.209   2.612 -0.1435 -0.5316 -0.4471
  809SOL    HW112136   3.208   8.202   2.706 -1.0445 -1.9011 -0.8481
  809SOL    HW212137   3.284   8.124   2.585  1.9903  0.5861 -0.5993
  810SOL     OW12138   2.881   2.382   2.313 -0.1418 -0.1287 -0.8069
  810SOL    HW112139   2.794   2.365   2.360  0.0737  0.9107 -0.0160
  810SOL    HW212140   2.881   2.474   2.275  1.4790  0.7061  1.1412
  811SOL     OW12141   4.152   4.981   1.161 -0.1061  0.1651 -0.1789
  811SOL    HW112142   4.204   4.907   1.204 -0.1275 -0.7126 -1.6172
  811SOL    HW212143   4.216   5.049   1.125 -0.0559  0.4202  0.3853
  812SOL     OW12144   3.111   1.852   1.133 -0.1451 -0.0230  0.2502
  812SOL    HW112145   3.115   1.789   1.056  0.7390 -0.2407  0.4726
  812SOL    HW212146   3.159   1.937   1.110  1.7170 -0.7884  1.1974
  813SOL     OW12147   3.484   3.402   1.254 -0.2575  0.5580  0.1083
  813SOL    HW112148   3.563   3.346   1.231 -0.8431 -0.1748 -0.1525
  813SOL    HW212149   3.437   3.429   1.170 -0.6239  0.4974  0.2944
  814SOL     OW12150   2.304   9.990   1.244  0.3719 -0.1263  0.0110
  814SOL    HW112151   2.217   9.950   1.216  0.2335  0.0702  0.1603
  814SOL    HW212152   2.313  10.081   1.205  0.8173 -0.4144 -0.5687
  815SOL     OW12153   3.925   5.134   0.235  0.1086 -0.0050  0.3812
  815SOL    HW112154   3.830   5.115   0.257 -0.4535  0.7235 -1.3805
  815SOL    HW212155   3.963   5.198   0.302 -0.9463  0.5672  0.4315
  816SOL     OW12156   4.252   2.091   1.604 -0.1768 -0.4378  0.0962
  816SOL    HW112157   4.156   2.068   1.617 -0.1452 -0.0668  1.0585
  816SOL    HW212158   4.271   2.180   1.646  0.7621 -0.8748  0.6256
  817SOL     OW12159   3.465   2.289   1.603 -0.2671  0.7537 -0.1204
  817SOL    HW112160   3.408   2.242   1.670 -1.3412  1.1517 -0.7461
  817SOL    HW212161   3.478   2.384   1.630  1.7165  0.1891  1.0249
  818SOL     OW12162   2.557   9.818   0.673  0.1215  0.5254  0.0534
  818SOL    HW112163   2.564   9.733   0.621  0.1581  0.0905  0.7663
  818SOL    HW212164   2.463   9.852   0.670  0.3042  0.9833 -1.0366
  819SOL     OW12165   3.501   2.759   1.097  0.0766 -0.1097 -0.6217
  819SOL    HW112166   3.515   2.678   1.154 -2.4110 -0.0975  0.0564
  819SOL    HW212167   3.436   2.820   1.141 -1.3728  0.2407 -3.1461
  820SOL     OW12168   3.122   1.847   0.664  0.1098 -0.0919  0.1232
  820SOL    HW112169   3.148   1.773   0.726 -0.1247 -0.4182 -0.1617
  820SOL    HW212170   3.158   1.934   0.698 -1.5301  0.0093  1.6755
  821SOL     OW12171   4.810   3.659   1.288  0.1027  0.0763  0.7251
  821SOL    HW112172   4.816   3.713   1.373 -0.6095 -0.8658  1.3911
  821SOL    HW212173   4.713   3.648   1.263  0.2511 -0.6968  0.4806
  822SOL     OW12174   3.841   4.439   0.090  0.1042 -0.0093  0.2560
  822SOL    HW112175   3.770   4.474   0.152  0.4736 -1.1974  1.3707
  822SOL    HW212176   3.813   4.456  -0.005 -1.1321  0.5798  0.7086
  823SOL     OW12177   3.587   4.443   2.459  0.3933 -0.4751  0.0925
  823SOL    HW112178   3.512   4.383   2.487 -1.4034  1.3213 -0.7148
  823SOL    HW212179   3.583   4.458   2.360  0.3008  1.5758  0.3734
  824SOL     OW12180   2.864   4.563   1.342  0.3932 -0.4112 -0.3753
  824SOL    HW112181   2.901   4.628   1.276  2.7491  0.8343  2.0686
  824SOL    HW212182   2.857   4.607   1.431  0.3645 -3.0121  0.9507
  825SOL     OW12183   3.690   4.063   1.983  0.1831  0.0620  0.0301
  825SOL    HW112184   3.629   4.075   2.061  0.3782  0.2771  0.1510
  825SOL    HW212185   3.742   3.979   1.994 -1.2592 -0.9522 -0.8635
  826SOL     OW12186   3.292   0.902   0.721 -0.3308 -0.4212  0.1184
  826SOL    HW112187   3.250   0.816   0.749 -2.5177  0.2911 -0.8045
  826SOL    HW212188   3.338   0.944   0.799 -1.7966 -1.0116  1.3313
  827SOL     OW12189   4.238   2.969   1.913 -0.0148  0.4176  0.4220
  827SOL    HW112190   4.288   2.916   1.844 -0.9550  0.3283 -0.1996
  827SOL    HW212191   4.194   3.047   1.869 -0.3248  0.5660  0.9916
  828SOL     OW12192   3.590   0.876   2.422  0.2691  0.2166  0.1003
  828SOL    HW112193   3.654   0.942   2.461  2.1350  0.5350 -3.2544
  828SOL    HW212194   3.510   0.924   2.386  0.0292  0.2652  0.6950
  829SOL     OW12195   4.009   1.191   1.588  0.3944 -0.2445  0.0408
  829SOL    HW112196   4.033   1.128   1.515  0.5092 -0.8644  0.6060
  829SOL    HW212197   3.914   1.221   1.577  0.0674 -1.1858  0.2411
  830SOL     OW12198   2.645   3.396   0.175 -1.0527 -0.3397  0.0924
  830SOL    HW112199   2.584   3.475   0.165  0.3477  0.5920 -1.2052
  830SOL    HW212200   2.696   3.382   0.091 -1.1773 -2.5657  0.3634
  831SOL     OW12201   3.608   0.411   0.716  0.2778  0.3047 -0.0399
  831SOL    HW112202   3.643   0.334   0.768  0.9717  0.8081  0.2478
  831SOL    HW212203   3.526   0.383   0.666 -0.5685 -0.1061  1.5460
  832SOL     OW12204   3.071   5.245   0.576 -0.2574 -0.4830  0.5470
  832SOL    HW112205   2.988   5.243   0.631 -1.0461  3.3626 -0.3117
  832SOL    HW212206   3.138   5.306   0.620 -0.1149  1.0003 -1.6394
  833SOL     OW12207   4.436   3.411   0.342 -0.2344 -0.3690 -0.0359
  833SOL    HW112208   4.402   3.499   0.373  0.6434  0.0588 -0.2630
  833SOL    HW212209   4.470   3.358   0.420 -0.2150 -0.2633  0.0271
  834SOL     OW12210   2.215   1.006   2.637  0.2531 -0.3132  0.1445
  834SOL    HW112211   2.187   1.068   2.564  1.2258  0.5675  0.5114
  834SOL    HW212212   2.145   1.005   2.709  1.0299  1.7313  0.9694
  835SOL     OW12213   2.568   3.454   0.668  0.7674  0.1389 -0.4104
  835SOL    HW112214   2.545   3.534   0.613 -0.7721 -0.9952 -1.4209
  835SOL    HW212215   2.510   3.377   0.643  1.0533 -0.8262  1.7636
  836SOL     OW12216   3.470   5.344   1.148 -0.5239  0.2667  0.5575
  836SOL    HW112217   3.381   5.299   1.144 -0.5440  0.3492  0.0152
  836SOL    HW212218   3.476   5.412   1.075  0.4847 -0.6736 -0.2711
  837SOL     OW12219   3.745   4.777   0.287 -0.3764 -0.5688  0.0045
  837SOL    HW112220   3.716   4.865   0.325 -0.8225 -1.3949  1.6357
  837SOL    HW212221   3.686   4.753   0.210  0.2376  0.9164 -0.9452
  838SOL     OW12222   3.767   9.044   0.244 -0.0180  0.6059 -0.0703
  838SOL    HW112223   3.676   9.079   0.264  0.8151  4.0105 -1.8364
  838SOL    HW212224   3.760   8.950   0.210 -3.0367  1.4076 -1.8225
  839SOL     OW12225   3.874   2.621   0.035  0.2417 -0.1238  0.5494
  839SOL    HW112226   3.894   2.670  -0.050  2.2071  0.2207  1.1966
  839SOL    HW212227   3.915   2.530   0.032  0.0559 -0.2254  1.0214
  840SOL     OW12228   3.156   2.696   1.091  0.3628 -0.0002 -0.6156
  840SOL    HW112229   3.171   2.764   1.162 -0.8627 -0.7178  0.3484
  840SOL    HW212230   3.164   2.739   1.001  0.4644  1.2122 -0.0308
  841SOL     OW12231   2.906   2.060   0.924  0.1004 -0.1767  0.3912
  841SOL    HW112232   2.999   2.089   0.901 -0.4935  1.3173 -0.2151
  841SOL    HW212233   2.880   2.102   1.012 -0.3042  0.1221  0.1320
  842SOL     OW12234   2.647   2.312   2.439  0.5599  0.0253  0.2490
  842SOL    HW112235   2.559   2.303   2.392  0.5808 -0.9616  0.3886
  842SOL    HW212236   2.668   2.227   2.487  1.5611  0.2803  0.2735
  843SOL     OW12237   2.736   4.185   0.698 -0.1106  0.2103 -0.2839
  843SOL    HW112238   2.767   4.090   0.696  1.5500  0.7041  1.0518
  843SOL    HW212239   2.794   4.241   0.638 -0.7344  0.4724 -0.6438
  844SOL     OW12240   2.732   3.243   0.375 -0.2654  1.0974  0.1363
  844SOL    HW112241   2.688   3.298   0.305 -2.1566 -0.1465  0.3133
  844SOL    HW212242   2.808   3.191   0.335 -1.5186  0.1596 -1.0791
  845SOL     OW12243   3.707   8.582   0.323 -0.1763 -0.3656 -0.4473
  845SOL    HW112244   3.789   8.526   0.316 -0.1584 -0.5291  1.0449
  845SOL    HW212245   3.627   8.529   0.294  0.3692  0.1796 -3.1179
  846SOL     OW12246   4.085   4.613   0.677 -0.2041  0.4181 -0.2947
  846SOL    HW112247   4.061   4.588   0.771 -0.8648 -0.5009 -0.7111
  846SOL    HW212248   4.172   4.662   0.678 -0.3368  0.6468  0.8285
  847SOL     OW12249   2.867   1.619   2.176 -0.1605  0.0060 -0.4655
  847SOL    HW112250   2.790   1.667   2.134  1.3419  0.4239 -2.8726
  847SOL    HW212251   2.950   1.634   2.121  2.1076  1.1351  3.0568
  848SOL     OW12252   4.121   3.184   1.805  0.1263 -0.2210 -0.4221
  848SOL    HW112253   4.035   3.220   1.842  1.2532  0.4429  1.6377
  848SOL    HW212254   4.190   3.257   1.807  0.8017 -0.8151 -1.8380
  849SOL     OW12255   5.473   3.596   1.476  0.7106 -0.0684  0.1372
  849SOL    HW112256   5.413   3.519   1.452  0.3408  0.4117 -0.5099
  849SOL    HW212257   5.417   3.673   1.509  0.9623  0.3984 -0.5135
  850SOL     OW12258   2.395   3.979   1.134  0.5256 -0.2642  0.4660
  850SOL    HW112259   2.348   3.911   1.190  2.9403 -1.5128  1.0244
  850SOL    HW212260   2.462   3.934   1.075 -0.2949  1.2892 -1.7351
  851SOL     OW12261   4.036   1.644   0.817 -0.0725  0.6789 -0.2590
  851SOL    HW112262   4.008   1.640   0.721  0.3322 -0.7104 -0.3304
  851SOL    HW212263   4.107   1.575   0.834  0.0644  1.1124  0.9716
  852SOL     OW12264   3.462   1.843   0.316  0.2927  0.7548  0.3853
  852SOL    HW112265   3.517   1.825   0.397 -1.1295 -0.1470  1.1594
  852SOL    HW212266   3.423   1.935   0.321 -0.6836  0.3034  1.2583
  853SOL     OW12267   4.980   2.989   1.167  1.2215 -0.1240 -0.4455
  853SOL    HW112268   4.946   2.895   1.175 -0.9735  0.5578 -1.4507
  853SOL    HW212269   5.021   3.017   1.254  0.4915 -1.4701  0.3464
  854SOL     OW12270   2.858   0.676   2.529  0.3222 -0.0055 -0.4395
  854SOL    HW112271   2.825   0.590   2.568  1.6671  1.0743  3.2664
  854SOL    HW212272   2.780   0.738   2.514 -0.0724  0.3300  2.6371
  855SOL     OW12273   3.213   1.028   0.478 -0.1486 -0.0635  0.2389
  855SOL    HW112274   3.138   0.983   0.429  1.1305 -2.7437  0.6758
  855SOL    HW212275   3.225   0.985   0.568  1.7262  0.5612  0.3018
  856SOL     OW12276   3.068   4.099   0.131  0.7478  0.5243  0.3648
  856SOL    HW112277   3.066   4.036   0.209 -0.2364 -0.0914 -0.1514
  856SOL    HW212278   3.044   4.050   0.047 -3.5524  2.2430  0.4455
  857SOL     OW12279   2.474   2.641   2.101 -0.3825  0.3715  0.2382
  857SOL    HW112280   2.443   2.697   2.024  1.6954  1.9626  0.4944
  857SOL    HW212281   2.441   2.681   2.187 -0.2827  0.2686  0.3250
  858SOL     OW12282   3.250   2.498   1.493  0.2307  0.2052 -0.4106
  858SOL    HW112283   3.315   2.536   1.559 -1.7384  1.8083  0.6725
  858SOL    HW212284   3.186   2.437   1.540 -0.7002  0.7399 -0.9700
  859SOL     OW12285   4.866   3.896   0.659  0.0576  0.2207 -0.1420
  859SOL    HW112286   4.915   3.836   0.596 -0.9572  0.8293 -1.5440
  859SOL    HW212287   4.806   3.957   0.607 -0.4405  1.0670  1.3907
  860SOL     OW12288   2.989   2.342   1.849 -0.5036  0.0422  0.2204
  860SOL    HW112289   3.003   2.356   1.751  2.7659  0.6030  0.6978
  860SOL    HW212290   3.011   2.248   1.874  0.2209  0.3140  0.6402
  861SOL     OW12291   4.155   1.225   1.067 -0.3051 -0.4849 -0.0133
  861SOL    HW112292   4.186   1.136   1.102 -1.1162 -0.4737  0.7470
  861SOL    HW212293   4.075   1.255   1.118  0.2532  0.9229  0.0618
  862SOL     OW12294   3.827   3.549   1.398  0.2188 -0.0063 -0.1583
  862SOL    HW112295   3.777   3.625   1.440 -0.0057 -0.7316  0.8872
  862SOL    HW212296   3.833   3.564   1.299  1.5708  2.1968  0.2206
  863SOL     OW12297   4.354   3.038   1.546  0.0800  0.2119  0.1785
  863SOL    HW112298   4.404   3.017   1.630 -0.0513  1.1809  0.5070
  863SOL    HW212299   4.418   3.039   1.469  0.7454  2.2669  0.7187
  864SOL     OW12300   2.399   2.739   0.016  0.1808 -0.0852  0.0052
  864SOL    HW112301   2.340   2.688  -0.047  1.0121 -0.1224 -0.7516
  864SOL    HW212302   2.397   2.695   0.106 -1.3638  0.2325  0.1379
  865SOL     OW12303   2.513   2.921   2.524 -0.0136  0.1126 -0.0496
  865SOL    HW112304   2.449   2.903   2.599 -0.1783  0.6975 -0.0445
  865SOL    HW212305   2.545   3.016   2.530  0.0822  0.1169 -0.6316
  866SOL     OW12306   3.086   5.083   0.325 -0.0892 -0.0918 -0.5207
  866SOL    HW112307   3.107   5.147   0.251  0.5865  0.5306  0.2033
  866SOL    HW212308   3.072   5.134   0.410 -0.1256 -0.8620 -0.0625
  867SOL     OW12309   3.190   5.309   0.148 -0.1141 -0.1313  0.3867
  867SOL    HW112310   3.092   5.325   0.139 -0.1116  0.1173  0.7750
  867SOL    HW212311   3.239   5.368   0.084 -0.2251 -0.3515  0.0991
  868SOL     OW12312   3.408   3.072   0.079 -0.5018  0.1059 -0.6374
  868SOL    HW112313   3.436   3.002   0.145 -0.9969  0.9549  0.4892
  868SOL    HW212314   3.460   3.061  -0.005  1.0430 -0.2409  0.3278
  869SOL     OW12315   3.752   2.777   2.161  0.4618 -0.1399  0.3579
  869SOL    HW112316   3.711   2.702   2.110  0.7430 -0.4358  0.5625
  869SOL    HW212317   3.792   2.843   2.098 -1.4463  0.8117  0.1048
  870SOL     OW12318   3.199   1.394   0.915  0.1786 -0.3204  0.4671
  870SOL    HW112319   3.266   1.457   0.876 -1.0350  0.8231  0.2338
  870SOL    HW212320   3.150   1.348   0.841 -0.0434 -0.3682  0.6449
  871SOL     OW12321   3.041   1.630   1.657  0.1558  0.2394 -0.8427
  871SOL    HW112322   3.062   1.545   1.608  0.3661 -0.2376  0.0807
  871SOL    HW212323   2.950   1.661   1.631 -0.2372 -0.6898 -0.5741
  872SOL     OW12324   4.089   2.369   1.341  0.2064  0.2226  0.2116
  872SOL    HW112325   4.074   2.341   1.246  2.0827 -1.3932  0.3575
  872SOL    HW212326   4.043   2.304   1.402  0.6636  0.1237  0.4532
  873SOL     OW12327   3.552   2.509   1.189 -0.2355  0.4210 -0.6255
  873SOL    HW112328   3.571   2.474   1.097 -0.2513  0.6522 -0.7162
  873SOL    HW212329   3.624   2.479   1.252 -0.9396 -0.9044 -0.4231
  874SOL     OW12330   3.371   1.595   1.086  0.0213  0.0913 -0.7538
  874SOL    HW112331   3.303   1.548   1.141  0.9415 -1.2362 -0.7321
  874SOL    HW212332   3.458   1.597   1.135  0.4997  0.0943 -1.5901
  875SOL     OW12333   3.375   1.528   0.695 -0.5222  0.0762 -0.0200
  875SOL    HW112334   3.291   1.561   0.652 -0.7399 -0.5553 -0.0766
  875SOL    HW212335   3.396   1.436   0.662  0.2639  0.2807 -0.1045
  876SOL     OW12336   3.102   9.877   2.494  0.6279  0.1882 -0.2070
  876SOL    HW112337   3.178   9.932   2.461  0.2769  0.5373 -0.4444
  876SOL    HW212338   3.076   9.810   2.424 -1.7477  2.5760 -1.7521
  877SOL     OW12339   3.905   4.352   2.238 -0.7216 -0.1033  0.5286
  877SOL    HW112340   3.874   4.443   2.265 -0.5064 -0.1313  0.8774
  877SOL    HW212341   3.985   4.360   2.178 -0.0176 -0.0898  1.4609
  878SOL     OW12342   3.938   3.939   1.440  0.2349 -0.0863 -0.9625
  878SOL    HW112343   3.888   3.920   1.525 -0.5116  0.3850 -1.2939
  878SOL    HW212344   4.026   3.980   1.462 -0.8962  2.1572 -0.4711
  879SOL     OW12345   2.830   9.308   1.776 -0.4835  0.2633 -0.0988
  879SOL    HW112346   2.895   9.306   1.699  0.4853  1.4992  0.6677
  879SOL    HW212347   2.880   9.322   1.861 -1.7962  1.5618  0.4722
  880SOL     OW12348   3.320   5.142   0.839  0.1593 -0.2674  0.6581
  880SOL    HW112349   3.297   5.070   0.773  0.1970  2.3650 -2.3232
  880SOL    HW212350   3.419   5.147   0.850  0.1218 -1.3153  1.7163
  881SOL     OW12351   4.129   1.459   0.337 -0.3272  0.2419  0.3891
  881SOL    HW112352   4.111   1.442   0.434  0.1696 -2.4677  0.0541
  881SOL    HW212353   4.089   1.385   0.283  1.4259  0.4935 -1.2892
  882SOL     OW12354   3.745   9.475   1.329 -0.5918 -0.2982 -0.3325
  882SOL    HW112355   3.737   9.376   1.341 -0.6711 -0.1241  1.1656
  882SOL    HW212356   3.814   9.494   1.259  0.1727 -1.3959  0.1015
  883SOL     OW12357   3.290   9.953   1.797 -0.1964 -0.1953 -0.4070
  883SOL    HW112358   3.374   9.918   1.838 -0.3486 -0.7280 -0.5447
  883SOL    HW212359   3.241   9.878   1.752 -0.9009  0.0555 -0.0579
  884SOL     OW12360   3.719   2.929   1.069 -0.0573 -0.5590  0.0774
  884SOL    HW112361   3.721   2.959   1.165  4.7948  0.5632 -0.2527
  884SOL    HW212362   3.635   2.877   1.053 -0.9712 -0.8902  4.9439
  885SOL     OW12363   2.257   2.197   0.914 -0.9391 -0.5937  0.6370
  885SOL    HW112364   2.197   2.245   0.851  1.9103  1.1739 -0.8150
  885SOL    HW212365   2.228   2.101   0.921 -4.4812  0.4076  0.7814
  886SOL     OW12366   3.968   4.064   2.669  0.0471 -0.4324 -0.1752
  886SOL    HW112367   3.879   4.070   2.715 -0.0534 -0.9852 -0.3033
  886SOL    HW212368   3.971   4.132   2.596 -0.5357 -0.8841 -0.6278
  887SOL     OW12369   4.062   2.672   0.957 -0.7692  0.1385 -0.8373
  887SOL    HW112370   4.040   2.704   0.865 -1.2846 -2.5508 -1.7096
  887SOL    HW212371   4.058   2.572   0.959  1.4493  0.0414  1.5632
  888SOL     OW12372   3.603   4.450   2.208  0.5786 -0.3726  0.3377
  888SOL    HW112373   3.623   4.436   2.111  2.8790 -0.9373  0.8708
  888SOL    HW212374   3.514   4.494   2.217  0.1344 -0.7195 -2.0118
  889SOL     OW12375   2.985   9.985   1.939  0.5064 -0.0797 -0.3254
  889SOL    HW112376   2.914   9.926   1.977  0.8666 -0.4547 -0.2319
  889SOL    HW212377   3.017   9.947   1.852  0.2057  0.3816 -0.6403
  890SOL     OW12378   4.773   4.537   0.444  0.0584  0.2179 -0.1351
  890SOL    HW112379   4.725   4.624   0.457  1.9612  1.5562 -1.7736
  890SOL    HW212380   4.757   4.503   0.351  1.9033  0.4715 -0.5645
  891SOL     OW12381   3.160   2.847   0.277  0.4029  0.5373 -0.5650
  891SOL    HW112382   3.258   2.846   0.261  0.3944  0.9865 -0.6757
  891SOL    HW212383   3.113   2.799   0.203  0.4259  1.8506 -1.4607
  892SOL     OW12384   4.285   4.238   1.656 -0.5860  0.3172 -0.1094
  892SOL    HW112385   4.272   4.307   1.586  0.6339 -1.1366 -1.8306
  892SOL    HW212386   4.378   4.245   1.693 -1.3379  1.3083  1.6475
  893SOL     OW12387   2.849   3.376   0.614 -0.0109 -0.0615 -0.0815
  893SOL    HW112388   2.750   3.394   0.615 -0.1014 -0.6107  1.2106
  893SOL    HW212389   2.879   3.362   0.520 -0.8877  1.6514 -0.6317
  894SOL     OW12390   3.305   4.785   0.878  0.3283 -0.5874  0.4122
  894SOL    HW112391   3.294   4.687   0.894 -0.5802 -0.6288 -0.4874
  894SOL    HW212392   3.402   4.805   0.863  0.2709 -1.6399 -1.4317
  895SOL     OW12393   2.995   2.570   1.322 -0.0832  0.4971  0.1910
  895SOL    HW112394   3.009   2.618   1.408  0.3491 -0.6464  0.7671
  895SOL    HW212395   3.078   2.576   1.266 -0.0366  0.4351  0.2541
  896SOL     OW12396   2.894   4.353   1.966 -0.3369 -0.2034  0.2174
  896SOL    HW112397   2.967   4.291   1.937  0.0617  0.6105 -0.5534
  896SOL    HW212398   2.807   4.303   1.970 -0.4535 -0.3153 -2.6457
  897SOL     OW12399   3.511   9.596   1.241  0.0068 -0.5820 -0.3242
  897SOL    HW112400   3.456   9.630   1.317 -1.1495 -0.5966 -1.1473
  897SOL    HW212401   3.588   9.544   1.276 -1.6673 -2.3434  0.8130
  898SOL     OW12402   2.956   1.041   1.361 -0.2399  0.2405  0.3527
  898SOL    HW112403   3.043   1.032   1.313 -0.4001 -0.3788  0.1645
  898SOL    HW212404   2.958   0.987   1.445 -0.8972 -0.8696 -0.3208
  899SOL     OW12405   2.701   2.088   2.577  0.6976  0.8461  0.2392
  899SOL    HW112406   2.683   2.002   2.530 -2.0416  0.7053  1.4203
  899SOL    HW212407   2.702   2.073   2.676  1.9398  1.8836  0.3998
  900SOL     OW12408   2.289  10.262   1.115  0.8683 -0.2396  0.8012
  900SOL    HW112409   2.275  10.296   1.022 -0.0336 -2.3857  0.1134
  900SOL    HW212410   2.359  10.317   1.161  1.0652  1.0653 -1.0105
  901SOL     OW12411   2.381   0.952   0.614 -0.0112  0.1579  0.0814
  901SOL    HW112412   2.402   1.030   0.672  2.2590 -2.1304  2.5136
  901SOL    HW212413   2.318   0.891   0.662  2.5166 -2.1622  0.5537
  902SOL     OW12414   4.524   4.461   0.249  0.0376  0.3142  0.1284
  902SOL    HW112415   4.605   4.498   0.204 -0.2559  1.2281  0.3364
  902SOL    HW212416   4.452   4.445   0.180 -0.1151  0.9094  0.1420
  903SOL     OW12417   3.053   8.412   1.664 -0.4550 -0.2151 -0.0548
  903SOL    HW112418   3.014   8.378   1.750  0.6809  0.7879  0.8635
  903SOL    HW212419   3.130   8.353   1.637 -1.7900 -1.4662 -1.2288
  904SOL     OW12420   3.629   9.315   2.583  0.2883  0.3011  0.6807
  904SOL    HW112421   3.728   9.313   2.573  0.3178  1.8264  0.5638
  904SOL    HW212422   3.602   9.397   2.634 -0.9319  0.0559  0.4483
  905SOL     OW12423   2.522   2.589   0.668 -0.1680 -0.0516  1.2499
  905SOL    HW112424   2.559   2.678   0.694  0.2915 -0.0839  0.7021
  905SOL    HW212425   2.424   2.587   0.688 -0.1766  0.5715  1.2710
  906SOL     OW12426   3.302   2.386   1.206 -0.5247 -0.2215 -0.1709
  906SOL    HW112427   3.387   2.438   1.197  0.0842 -1.2681 -0.6534
  906SOL    HW212428   3.264   2.399   1.297  0.0837  0.3756  0.0001
  907SOL     OW12429   3.201   3.176   0.390  0.5735 -0.7008 -0.2629
  907SOL    HW112430   3.195   3.270   0.422 -0.2184 -0.6605 -0.5116
  907SOL    HW212431   3.294   3.156   0.360  1.0899 -0.4350  1.1270
  908SOL     OW12432   2.788   8.023   2.575 -0.4866  0.4625 -0.8443
  908SOL    HW112433   2.809   8.044   2.671  0.5947  1.6075 -1.3119
  908SOL    HW212434   2.731   7.941   2.570 -2.0952  1.4474  0.8773
  909SOL     OW12435   2.097   1.686   0.514  0.0218  0.3355  0.2330
  909SOL    HW112436   2.179   1.669   0.567 -0.9465  0.3112  1.7561
  909SOL    HW212437   2.029   1.615   0.534  0.1310 -0.4543 -2.0742
  910SOL     OW12438   2.439   9.447   1.406  0.0939  0.4345 -0.1022
  910SOL    HW112439   2.522   9.476   1.455  1.9872 -2.3593 -1.5041
  910SOL    HW212440   2.359   9.486   1.450  2.0131  1.3980  2.6634
  911SOL     OW12441   2.934   8.508   0.421  0.1182  0.4596 -0.0650
  911SOL    HW112442   2.883   8.573   0.478 -1.0227 -0.6883  0.2328
  911SOL    HW212443   2.943   8.546   0.329 -1.7095  0.4735 -0.2631
  912SOL     OW12444   3.920   2.805   2.527 -0.4345 -0.1714 -0.0510
  912SOL    HW112445   3.993   2.785   2.462  0.0163  1.3635 -0.0339
  912SOL    HW212446   3.917   2.904   2.545 -0.8107 -0.5284  1.9422
  913SOL     OW12447   2.590   9.262  -0.017 -0.8200  0.3624 -0.0339
  913SOL    HW112448   2.604   9.182   0.042  2.1317  0.1704 -0.9313
  913SOL    HW212449   2.546   9.335   0.036  0.8491 -0.1536  2.1480
  914SOL     OW12450   2.141   1.086   2.055  0.7565 -0.0745 -0.1321
  914SOL    HW112451   2.149   0.992   2.088 -1.3349 -0.5483 -0.9035
  914SOL    HW212452   2.227   1.134   2.069  0.8363 -1.1090  3.4093
  915SOL     OW12453   3.261   9.600   1.569  0.4615 -0.0369 -0.0083
  915SOL    HW112454   3.180   9.644   1.608 -0.4144 -0.3636 -1.4164
  915SOL    HW212455   3.295   9.655   1.493  1.0078 -0.3781 -0.0073
  916SOL     OW12456   4.548   3.108   0.799  0.2836  0.1136  0.5727
  916SOL    HW112457   4.531   3.113   0.898  0.3292 -1.8504  0.7157
  916SOL    HW212458   4.645   3.087   0.783  0.1531 -0.1637  0.1371
  917SOL     OW12459   3.690   2.989   2.334  0.1968  0.7725  0.4120
  917SOL    HW112460   3.709   2.903   2.289 -0.2470  0.0719  1.5421
  917SOL    HW212461   3.774   3.027   2.373  0.4071  0.9020 -0.1706
  918SOL     OW12462   2.860   3.478   1.833 -0.0938  0.2764  0.0207
  918SOL    HW112463   2.875   3.383   1.860 -1.8433 -0.2199 -0.6251
  918SOL    HW212464   2.816   3.479   1.743 -1.1559  1.6547  0.5436
  919SOL     OW12465   2.541   2.867   0.705 -0.0676  0.1370  0.1401
  919SOL    HW112466   2.475   2.908   0.769 -1.5461  0.3475 -1.5062
  919SOL    HW212467   2.565   2.934   0.635  1.1623 -0.2637  0.1809
  920SOL     OW12468   4.939   2.039   0.658  0.2361  0.2550 -0.2390
  920SOL    HW112469   4.992   1.961   0.692 -1.1468 -0.3233  0.6498
  920SOL    HW212470   4.867   2.007   0.596 -0.9863  0.6831  0.9173
  921SOL     OW12471   3.147   2.078   1.530 -0.6103  0.4210 -0.0146
  921SOL    HW112472   3.183   2.095   1.622  0.0789  1.3525 -0.4434
  921SOL    HW212473   3.223   2.060   1.468 -1.0894 -0.3764 -0.3643
  922SOL     OW12474   2.594   3.180   1.021  0.1389  0.4623  0.0691
  922SOL    HW112475   2.663   3.224   0.963 -0.2245  0.3287 -0.4656
  922SOL    HW212476   2.596   3.221   1.112 -0.0735  1.4707 -0.3731
  923SOL     OW12477   4.479   3.366   1.558 -0.1608  0.0749  0.4900
  923SOL    HW112478   4.441   3.335   1.471 -1.9155  0.8684  0.9532
  923SOL    HW212479   4.577   3.345   1.561  0.0496  0.5877 -1.9265
  924SOL     OW12480   2.640   1.684   0.097 -0.0402 -0.3934  0.3788
  924SOL    HW112481   2.560   1.674   0.156  0.7305 -0.6234  1.4028
  924SOL    HW212482   2.723   1.684   0.153  0.6339  0.6108 -0.5949
  925SOL     OW12483   2.838   4.154   2.275  0.9367 -0.2973  0.6034
  925SOL    HW112484   2.824   4.223   2.204  1.8974 -0.0182  0.6923
  925SOL    HW212485   2.928   4.113   2.265  0.1793 -1.9183  0.2220
  926SOL     OW12486   2.600   0.545   0.380  0.0947 -0.5057 -0.5748
  926SOL    HW112487   2.550   0.631   0.393 -0.7394 -1.0478 -0.1548
  926SOL    HW212488   2.633   0.540   0.286  1.5050  0.9845 -0.1690
  927SOL     OW12489   4.539   3.355   2.371 -0.4156  0.0842  0.3150
  927SOL    HW112490   4.526   3.271   2.318  1.9937 -0.2879  0.2611
  927SOL    HW212491   4.572   3.428   2.311 -0.2496  0.4059  0.7899
  928SOL     OW12492   4.162   4.363   0.546 -0.7383  0.6216 -0.1223
  928SOL    HW112493   4.143   4.449   0.593  0.2803  1.2536 -0.8503
  928SOL    HW212494   4.083   4.336   0.491 -0.9761  1.2117 -0.0677
  929SOL     OW12495   3.086   3.938   0.586 -0.3752  0.8446 -0.0300
  929SOL    HW112496   3.135   3.860   0.624  0.9964  0.5814 -2.2794
  929SOL    HW212497   3.122   4.023   0.625  0.5609  0.5440 -0.2424
  930SOL     OW12498   2.847   8.694   0.574 -0.0318  0.2051 -0.3296
  930SOL    HW112499   2.807   8.763   0.514 -1.1063  0.3474  0.5273
  930SOL    HW212500   2.908   8.739   0.640 -0.0301  0.2261 -0.3455
  931SOL     OW12501   3.384  10.154   0.148 -0.3265  0.6000  0.3786
  931SOL    HW112502   3.324  10.217   0.099 -2.1110 -2.2392 -1.1830
  931SOL    HW212503   3.342  10.127   0.234  0.3829  1.4156  0.9903
  932SOL     OW12504   4.402   2.039   1.204  0.5505 -0.1155 -0.7909
  932SOL    HW112505   4.445   2.021   1.293 -1.5091 -0.5707  0.1483
  932SOL    HW212506   4.412   2.136   1.182  0.1023  0.2377  0.5004
  933SOL     OW12507   3.156   9.634   1.071  0.1488  0.2147  0.2675
  933SOL    HW112508   3.133   9.675   1.159  1.9960  2.6216 -0.3166
  933SOL    HW212509   3.222   9.561   1.084 -0.9214 -0.6376  1.0265
  934SOL     OW12510   3.138   1.225   1.909  0.1240 -0.1708 -0.0959
  934SOL    HW112511   3.056   1.281   1.893 -0.3455 -1.0489 -0.7992
  934SOL    HW212512   3.206   1.280   1.958 -0.7621  0.6647  0.2299
  935SOL     OW12513   2.326   0.505   2.084 -0.0859 -0.4933  0.0820
  935SOL    HW112514   2.344   0.466   2.174  3.5503  0.2535 -0.2433
  935SOL    HW212515   2.353   0.439   2.013  0.2442  0.2261 -0.4624
  936SOL     OW12516   4.022   4.078   0.984  0.3465 -0.2729  0.2787
  936SOL    HW112517   4.060   3.993   1.020  1.0228  0.5325  1.4847
  936SOL    HW212518   4.089   4.121   0.923  0.7449  0.3155  1.1168
  937SOL     OW12519   2.753   9.845   1.978 -0.4516  0.0314  0.2327
  937SOL    HW112520   2.691   9.778   1.936  0.8105 -0.8756 -0.2247
  937SOL    HW212521   2.725   9.862   2.072 -2.3259  0.8194 -0.4418
  938SOL     OW12522   3.880   3.265   1.913 -0.4087 -0.2177  0.5648
  938SOL    HW112523   3.794   3.258   1.863 -0.4626  0.2030  0.5976
  938SOL    HW212524   3.902   3.361   1.928  1.4553 -0.2323 -1.8460
  939SOL     OW12525   2.308   8.765   2.523  0.2650 -0.3689 -0.4946
  939SOL    HW112526   2.288   8.755   2.620  0.1187  0.6554 -0.4123
  939SOL    HW212527   2.317   8.863   2.501  0.7388 -0.6147 -1.4153
  940SOL     OW12528   4.258   2.918   2.364 -0.1481 -0.2376  0.1175
  940SOL    HW112529   4.203   2.998   2.340  0.8858  0.4328 -0.0899
  940SOL    HW212530   4.309   2.888   2.284 -1.3106 -1.7390 -0.0623
  941SOL     OW12531   2.730   9.126   1.173  0.1185 -0.0744 -0.4028
  941SOL    HW112532   2.648   9.183   1.167 -0.3243 -0.8540 -2.1465
  941SOL    HW212533   2.711   9.047   1.231  0.3080  0.8223  0.9027
  942SOL     OW12534   2.772   4.328   1.612 -0.6338  0.6016  0.4130
  942SOL    HW112535   2.695   4.342   1.549 -0.9367 -0.9492  0.4061
  942SOL    HW212536   2.858   4.329   1.560 -0.6416  2.2022  0.4018
  943SOL     OW12537   3.972   1.895   1.844  0.9625  0.0350 -0.4085
  943SOL    HW112538   4.002   1.916   1.751  1.5408 -1.8061 -0.6644
  943SOL    HW212539   3.982   1.797   1.861 -0.1728  0.1757  1.2336
  944SOL     OW12540   2.914   3.249   1.942 -0.2393  0.3948  0.2575
  944SOL    HW112541   2.985   3.185   1.969 -0.4865  0.5913  1.3970
  944SOL    HW212542   2.824   3.207   1.958 -0.3907  0.5637 -0.1483
  945SOL     OW12543   2.621   8.575   0.346  0.7952 -0.2168  0.2030
  945SOL    HW112544   2.685   8.649   0.369  1.5037 -0.7552 -0.0262
  945SOL    HW212545   2.529   8.600   0.376  1.0964  0.6060  0.4496
  946SOL     OW12546   3.218   2.261   0.617  0.0135 -0.4559 -0.1139
  946SOL    HW112547   3.168   2.328   0.672  0.3573 -0.8358  0.6752
  946SOL    HW212548   3.176   2.254   0.526 -1.2740 -0.6494  0.4793
  947SOL     OW12549   2.554   3.208   1.502  1.1873  0.4691  0.2463
  947SOL    HW112550   2.575   3.209   1.600  1.1315 -0.6061  0.2746
  947SOL    HW212551   2.524   3.299   1.474 -2.4204 -0.0902  2.0178
  948SOL     OW12552   4.400   3.918   1.208 -0.2512  0.7028 -0.1021
  948SOL    HW112553   4.383   3.990   1.276 -1.4400 -2.0210  2.6177
  948SOL    HW212554   4.436   3.959   1.124  1.1320  4.2082  2.0926
  949SOL     OW12555   3.001   4.142   1.193  0.0295 -0.2673  0.3739
  949SOL    HW112556   3.086   4.192   1.175 -2.1468  3.1980 -0.5909
  949SOL    HW212557   2.952   4.127   1.107 -0.8940 -1.3016  1.0693
  950SOL     OW12558   2.288   1.608   1.230 -0.3382  0.2062 -0.7089
  950SOL    HW112559   2.318   1.513   1.231  1.1563  0.6789  0.2138
  950SOL    HW212560   2.271   1.637   1.136 -1.0881 -1.0438 -0.9691
  951SOL     OW12561   2.952   1.210   0.419  0.6061 -0.3288 -0.6919
  951SOL    HW112562   3.043   1.187   0.384  1.0382 -0.5462  0.5469
  951SOL    HW212563   2.905   1.269   0.353  0.9233 -1.7145 -2.1907
  952SOL     OW12564   2.562   0.508   2.293  0.0637  0.1218 -0.4780
  952SOL    HW112565   2.514   0.593   2.274  2.3020  1.4278 -0.4763
  952SOL    HW212566   2.496   0.434   2.307 -1.8812  1.6896 -1.2241
  953SOL     OW12567   3.724   3.649   1.864 -0.9464  0.3481 -0.1836
  953SOL    HW112568   3.794   3.720   1.868 -0.1182 -0.2748 -2.4411
  953SOL    HW212569   3.697   3.635   1.768 -1.1983 -2.2635  0.2326
  954SOL     OW12570   2.970   9.610   1.864  0.0779 -0.6687 -0.3336
  954SOL    HW112571   2.894   9.590   1.926  1.3386  0.0430  1.4940
  954SOL    HW212572   3.043   9.545   1.879  0.2362 -0.7376 -1.3787
  955SOL     OW12573   4.126   1.355   0.625  0.0380  0.0588  0.4810
  955SOL    HW112574   4.130   1.258   0.651 -0.2624  0.2317  1.1920
  955SOL    HW212575   4.034   1.390   0.644  0.5674  0.8560  1.5818
  956SOL     OW12576   3.648   2.030   0.463  0.3534  0.2864 -0.1575
  956SOL    HW112577   3.602   2.116   0.442  0.9954  0.4960 -0.7166
  956SOL    HW212578   3.701   2.001   0.383  0.7909 -0.2100  0.3187
  957SOL     OW12579   2.513   9.629   2.334 -0.5165 -0.3712  0.0128
  957SOL    HW112580   2.571   9.554   2.364 -1.4940 -1.1171  0.0572
  957SOL    HW212581   2.442   9.646   2.402 -0.8426  0.0108 -0.4154
  958SOL     OW12582   3.815   1.532   1.757 -0.5849  0.8135 -0.6019
  958SOL    HW112583   3.821   1.442   1.716 -0.1944  1.2534 -1.5269
  958SOL    HW212584   3.724   1.571   1.741 -1.1510  0.1093  0.8207
  959SOL     OW12585   4.472   1.968   1.472 -0.2464  0.1990  0.2648
  959SOL    HW112586   4.425   1.881   1.458 -0.6525  0.4161  0.2724
  959SOL    HW212587   4.408   2.034   1.513  0.5730 -0.0689  1.9980
  960SOL     OW12588   4.393   4.272   0.442 -0.1969 -0.0154  0.0217
  960SOL    HW112589   4.449   4.340   0.394 -0.1244 -1.0443 -1.3638
  960SOL    HW212590   4.318   4.319   0.489  0.1071  1.0712 -0.5517
  961SOL     OW12591   2.652   3.131   1.984  0.0152  0.5395  0.2876
  961SOL    HW112592   2.662   3.139   2.083  0.7499 -0.9124  0.3400
  961SOL    HW212593   2.609   3.044   1.961 -1.9562  1.6880 -0.5910
  962SOL     OW12594   4.082   3.877   0.139  0.3189  0.3419 -0.3497
  962SOL    HW112595   4.176   3.843   0.136  0.5539  1.0237 -0.8067
  962SOL    HW212596   4.079   3.971   0.104 -0.4918  0.4169 -0.0972
  963SOL     OW12597   2.856   2.775   0.637 -0.1545  0.4193  0.3852
  963SOL    HW112598   2.812   2.772   0.548  0.5703 -0.0737  0.0406
  963SOL    HW212599   2.814   2.708   0.698 -1.6561  1.7809  0.8936
  964SOL     OW12600   2.265   9.196   2.164  0.1701  0.1875  0.1100
  964SOL    HW112601   2.306   9.251   2.091  0.9572  0.5787  0.8361
  964SOL    HW212602   2.320   9.113   2.178  0.2255  0.2862  0.4913
  965SOL     OW12603   3.497   2.902   1.914 -0.0136  0.4452  0.5486
  965SOL    HW112604   3.497   2.979   1.977  0.3284 -0.7810  2.0691
  965SOL    HW212605   3.572   2.840   1.936 -1.4156 -1.2909  0.5597
  966SOL     OW12606   3.152  10.045   1.370 -0.0965  0.0982  0.4619
  966SOL    HW112607   3.216  10.109   1.411 -0.3703  0.8396 -0.2492
  966SOL    HW212608   3.120  10.081   1.282 -1.2718 -0.3808  0.6731
  967SOL     OW12609   3.145   4.052   0.867  0.0107 -0.2354 -0.1309
  967SOL    HW112610   3.196   4.097   0.940  1.0350  0.1502 -1.0836
  967SOL    HW212611   3.152   4.106   0.783 -1.4419 -0.5027 -0.4333
  968SOL     OW12612   2.619   0.933   2.082  0.2332  0.0482 -0.1316
  968SOL    HW112613   2.623   1.033   2.094 -0.6918  0.3168 -1.9024
  968SOL    HW212614   2.700   0.892   2.124  0.7031  1.5551  0.5024
  969SOL     OW12615   3.096   9.293   1.136  0.1652  0.0961 -0.0477
  969SOL    HW112616   3.092   9.202   1.176 -0.1603  0.8225  1.5974
  969SOL    HW212617   3.190   9.327   1.140  0.9767 -1.4840 -3.7211
  970SOL     OW12618   2.598   1.352   0.034  0.4295 -0.0518 -0.6446
  970SOL    HW112619   2.534   1.275   0.035 -0.8260  0.9325 -2.1136
  970SOL    HW212620   2.594   1.400   0.121 -1.0632  0.1756 -0.8229
  971SOL     OW12621   2.454   1.957   0.242  0.3726  0.1516  0.2744
  971SOL    HW112622   2.405   1.872   0.261  3.1484 -1.7388 -0.7223
  971SOL    HW212623   2.525   1.970   0.312  0.9892  0.8334 -0.4792
  972SOL     OW12624   3.074   2.344   0.364  0.8327 -0.0371  0.4175
  972SOL    HW112625   3.171   2.343   0.341  0.7366  0.3760 -0.0059
  972SOL    HW212626   3.028   2.418   0.315  0.2171 -0.5039  0.2789
  973SOL     OW12627   2.732   8.531   2.659 -0.4085 -0.0219 -0.5177
  973SOL    HW112628   2.653   8.593   2.659  0.0169  0.5206 -0.4292
  973SOL    HW212629   2.729   8.475   2.576 -0.3820  0.6464 -0.9756
  974SOL     OW12630   3.149   2.823   0.833  0.3476  0.5461 -0.1651
  974SOL    HW112631   3.133   2.919   0.811 -1.3595  0.4523  0.5559
  974SOL    HW212632   3.138   2.768   0.749 -2.0909  0.6384  0.0369
  975SOL     OW12633   4.031   4.337   0.269 -0.0267  0.5471 -0.1276
  975SOL    HW112634   3.995   4.264   0.326 -1.9988  0.6408 -1.1926
  975SOL    HW212635   3.973   4.347   0.188  1.5327  1.7739 -1.1219
  976SOL     OW12636   4.042   4.239   1.921 -0.4310  0.0415 -0.8683
  976SOL    HW112637   3.967   4.243   1.856 -0.2206 -0.8588 -1.1665
  976SOL    HW212638   4.093   4.154   1.909  1.4706  1.2493 -1.5824
  977SOL     OW12639   3.215   0.863   2.239 -0.1212  0.5301 -0.0097
  977SOL    HW112640   3.168   0.894   2.156 -1.4570 -0.5885  0.2896
  977SOL    HW212641   3.217   0.936   2.306  0.7062  1.3521 -0.9070
  978SOL     OW12642   5.079   3.727   1.481  0.1016  0.7553  0.1032
  978SOL    HW112643   4.997   3.778   1.453  0.2838 -0.5336 -3.0511
  978SOL    HW212644   5.075   3.635   1.442  1.2173 -0.6708  3.1871
  979SOL     OW12645   2.732   9.426   2.421  0.0364 -0.0539  0.2807
  979SOL    HW112646   2.828   9.454   2.414 -0.4458  1.2836 -1.8343
  979SOL    HW212647   2.712   9.395   2.514  2.4916 -0.3108  0.7591
  980SOL     OW12648   2.541  10.176   0.305  0.3975  0.1703 -0.1216
  980SOL    HW112649   2.560  10.211   0.214  3.1109 -0.2126  0.2299
  980SOL    HW212650   2.536  10.076   0.302  1.5224  0.0906  0.2875
  981SOL     OW12651   3.641   3.478   2.672 -0.0802  0.0459 -0.1377
  981SOL    HW112652   3.604   3.428   2.750 -1.2158  0.2379 -0.5412
  981SOL    HW212653   3.693   3.557   2.704 -2.2461  1.3021  0.4185
  982SOL     OW12654   3.315   4.773   0.075  0.4917  0.7282  0.2627
  982SOL    HW112655   3.281   4.680   0.064  2.7152  0.0585 -1.2765
  982SOL    HW212656   3.241   4.838   0.055 -0.4883 -0.6736 -0.7738
  983SOL     OW12657   4.271   3.400   1.740 -0.3596  0.1042 -0.0498
  983SOL    HW112658   4.340   3.353   1.684 -0.4665  0.7698 -0.7476
  983SOL    HW212659   4.202   3.440   1.680 -0.8104  0.2919  0.6013
  984SOL     OW12660   2.695   2.700   2.622  0.1009  0.5189  0.0155
  984SOL    HW112661   2.719   2.763   2.548 -0.7048  0.7691 -0.0465
  984SOL    HW212662   2.598   2.712   2.645 -0.2877 -1.3379 -0.6171
  985SOL     OW12663   3.665   1.405   1.397 -0.1226  0.1595 -0.9528
  985SOL    HW112664   3.633   1.494   1.365  1.1625  1.0184  0.0937
  985SOL    HW212665   3.746   1.378   1.345  0.8296  0.6727  0.2247
  986SOL     OW12666   2.572   1.426   0.290 -0.6830  0.0321 -0.0222
  986SOL    HW112667   2.515   1.359   0.338  1.4695  0.3743  3.1549
  986SOL    HW212668   2.547   1.518   0.320  2.6543  0.1072  2.8696
  987SOL     OW12669   2.464   9.049   0.924  0.1236  0.0529  0.0337
  987SOL    HW112670   2.408   9.124   0.958  0.0151 -0.8528  1.9777
  987SOL    HW212671   2.444   8.966   0.978 -0.7918 -1.7442 -2.9600
  988SOL     OW12672   2.967   2.587   1.952  0.1763  0.3899  0.6388
  988SOL    HW112673   3.060   2.602   1.986  0.0284  0.4567  1.0112
  988SOL    HW212674   2.960   2.496   1.913  0.3563  0.3280  0.7493
  989SOL     OW12675   2.806   2.454   2.658  0.2076 -0.3381 -0.7341
  989SOL    HW112676   2.778   2.389   2.588  0.0972  0.4809 -1.4546
  989SOL    HW212677   2.762   2.542   2.643 -0.9544 -0.5517  1.2129
  990SOL     OW12678   4.399   4.082   0.124 -0.0911 -0.0351  0.3716
  990SOL    HW112679   4.332   4.154   0.142 -2.9987 -2.3641 -0.7304
  990SOL    HW212680   4.418   4.032   0.209 -1.5607 -0.8230  0.2612
  991SOL     OW12681   2.370   8.655   0.435 -0.3551 -0.1460  0.4136
  991SOL    HW112682   2.345   8.605   0.518  2.0161 -0.8350  0.7496
  991SOL    HW212683   2.306   8.731   0.421 -2.6775 -1.9217  1.1013
  992SOL     OW12684   3.297   2.217   2.589  0.0648  0.4079  0.0386
  992SOL    HW112685   3.248   2.288   2.640  1.3245  1.2976  0.0379
  992SOL    HW212686   3.394   2.221   2.611  0.3345 -0.5028 -0.9237
  993SOL     OW12687   3.070   5.091   1.468 -0.2149  0.1568  0.3588
  993SOL    HW112688   3.063   5.049   1.559  1.1628  1.8509  1.2647
  993SOL    HW212689   3.098   5.186   1.477  0.8882  0.0789 -1.9051
  994SOL     OW12690   5.330   3.804   1.565  0.7547 -0.2571 -0.0672
  994SOL    HW112691   5.234   3.791   1.542 -0.4557  2.0967  3.3483
  994SOL    HW212692   5.359   3.895   1.536  1.0126  0.2693  1.7998
  995SOL     OW12693   3.839   4.129   1.266 -0.8710 -0.1392 -0.5012
  995SOL    HW112694   3.840   4.115   1.167  0.8262 -1.9601 -0.2749
  995SOL    HW212695   3.866   4.044   1.312  1.2528  1.4786  1.4004
  996SOL     OW12696   3.583   9.346   1.810 -0.2656  0.1881  0.1356
  996SOL    HW112697   3.591   9.246   1.816 -2.2207  0.1415  3.5416
  996SOL    HW212698   3.525   9.371   1.733 -0.8024 -1.4013  0.0110
  997SOL     OW12699   2.110   2.158   0.500  0.2056  0.4403 -0.2477
  997SOL    HW112700   2.103   2.070   0.453 -0.6818 -0.3596  1.3336
  997SOL    HW212701   2.018   2.194   0.518  0.5262  0.6922  0.9330
  998SOL     OW12702   3.741  10.181   2.257  0.4505  0.2616  0.1222
  998SOL    HW112703   3.819  10.188   2.195 -0.1620 -0.6737 -0.7811
  998SOL    HW212704   3.744  10.094   2.305  0.2556  0.4576  0.4931
  999SOL     OW12705   3.970   2.356   2.207  0.7430  0.5077 -0.2626
  999SOL    HW112706   4.016   2.268   2.215 -0.9216 -0.2920  0.8775
  999SOL    HW212707   3.872   2.341   2.195  0.1589  2.2004  2.0159
 1000SOL     OW12708   2.885   2.505   1.024 -0.0360  0.1877 -0.7387
 1000SOL    HW112709   2.802   2.531   0.974  0.2589  1.4645 -0.5570
 1000SOL    HW212710   2.946   2.583   1.031  0.6197 -0.4097  0.2777
 1001SOL     OW12711   4.005   1.637   1.900 -0.2301  0.2762 -0.1118
 1001SOL    HW112712   4.035   1.589   1.982  0.5763  1.1165  0.0873
 1001SOL    HW212713   3.933   1.584   1.855 -0.9800  0.0297  1.3693
 1002SOL     OW12714   2.447   2.014   2.107  0.6843 -0.1471  0.1627
 1002SOL    HW112715   2.375   1.956   2.145 -0.4494  1.0200 -0.1430
 1002SOL    HW212716   2.536   1.970   2.119 -0.0804 -1.6075  0.5557
 1003SOL     OW12717   3.399   9.770   2.654 -0.6381  0.8311 -0.1046
 1003SOL    HW112718   3.451   9.832   2.714 -1.3390  0.9329  0.4011
 1003SOL    HW212719   3.313   9.814   2.628 -1.4127 -0.1667  0.7376
 1004SOL     OW12720   2.912   8.898   0.014 -0.2561 -0.2774 -0.0980
 1004SOL    HW112721   2.925   8.799   0.015  0.7482 -0.1512  0.4180
 1004SOL    HW212722   2.966   8.938  -0.061  2.5214  0.2618  2.0995
 1005SOL     OW12723   4.303   4.247   2.398 -0.5256 -0.1787 -0.3672
 1005SOL    HW112724   4.343   4.199   2.476 -2.3327 -0.6755  0.2801
 1005SOL    HW212725   4.342   4.339   2.393  1.0580 -0.8158 -0.0731
 1006SOL     OW12726   2.723   3.759   2.093 -0.0464 -0.3289 -0.0121
 1006SOL    HW112727   2.670   3.791   2.014 -1.7020 -0.7104  0.9222
 1006SOL    HW212728   2.719   3.659   2.098 -0.5466 -0.2609  0.9745
 1007SOL     OW12729   2.659   9.497   1.142 -0.0607 -0.0494 -0.1586
 1007SOL    HW112730   2.723   9.449   1.203  1.1254 -0.4640 -1.6952
 1007SOL    HW212731   2.566   9.463   1.158  0.2899 -0.4216  1.1473
 1008SOL     OW12732   3.982   3.601   0.550 -0.0013  0.4741 -0.3743
 1008SOL    HW112733   3.967   3.697   0.570 -0.9208  0.6830 -1.9439
 1008SOL    HW212734   3.893   3.554   0.545  0.4964 -0.7787  1.8444
 1009SOL     OW12735   2.960   1.104   2.280  0.3163 -0.2726  0.5685
 1009SOL    HW112736   3.019   1.087   2.360 -0.1267  1.2248  1.2473
 1009SOL    HW212737   2.953   1.203   2.266 -1.0506 -0.4830 -0.2506
 1010SOL     OW12738   2.623  10.205   1.170  0.1934 -0.1907 -0.0535
 1010SOL    HW112739   2.624  10.178   1.074 -0.6237 -3.2037  0.7268
 1010SOL    HW212740   2.626  10.123   1.227 -0.1131  1.5280  2.4898
 1011SOL     OW12741   3.091   9.776   1.674 -0.6911 -0.9590  0.2181
 1011SOL    HW112742   3.054   9.862   1.639  0.7430 -0.1276  0.7030
 1011SOL    HW212743   3.019   9.727   1.723 -1.9850 -0.8561 -1.5042
 1012SOL     OW12744   3.755   0.466   1.773  0.9486 -0.3418 -0.3570
 1012SOL    HW112745   3.774   0.412   1.691 -0.9519  0.5311 -1.4135
 1012SOL    HW212746   3.692   0.540   1.749 -1.7576 -1.6382  2.4157
 1013SOL     OW12747   3.475   9.441   1.554  0.6291 -0.2757  0.3039
 1013SOL    HW112748   3.387   9.486   1.566  0.5206 -1.0857  2.6324
 1013SOL    HW212749   3.549   9.508   1.564  0.3581  0.0027  0.4204
 1014SOL     OW12750   3.547   4.806   1.239 -0.5317 -0.1669  0.0823
 1014SOL    HW112751   3.572   4.710   1.234 -1.5250 -0.3816 -0.9333
 1014SOL    HW212752   3.601   4.851   1.311 -0.5305 -1.6097  0.9953
 1015SOL     OW12753   3.421   8.455   0.274 -0.4838 -0.0176  0.1081
 1015SOL    HW112754   3.369   8.463   0.189 -1.1699 -0.2735  0.5042
 1015SOL    HW212755   3.375   8.391   0.335  0.7281 -0.8703  0.1420
 1016SOL     OW12756   3.055  10.236   1.863 -0.1698  0.7602 -0.2361
 1016SOL    HW112757   3.034  10.149   1.909 -0.6011  1.5224  1.0149
 1016SOL    HW212758   3.142  10.271   1.897  0.2318  0.6131 -1.0760
 1017SOL     OW12759   3.221   4.272   1.055 -0.1647  0.4974  0.2300
 1017SOL    HW112760   3.273   4.327   1.121  1.3270  0.6052 -1.0054
 1017SOL    HW212761   3.233   4.310   0.963 -2.7949  0.7586 -0.0487
 1018SOL     OW12762   3.057   4.954   1.229 -0.6295 -0.0088 -0.1835
 1018SOL    HW112763   3.052   5.007   1.313  3.4422  2.6428 -1.4662
 1018SOL    HW212764   3.144   4.904   1.227 -1.2284 -0.9961 -2.2692
 1019SOL     OW12765   2.384   2.003   1.501  0.3934 -0.6058 -0.4256
 1019SOL    HW112766   2.385   2.074   1.430 -1.2025 -1.0415 -0.9212
 1019SOL    HW212767   2.414   2.042   1.588 -0.0063  0.5736 -0.8009
 1020SOL     OW12768   3.167   4.388   2.235  0.3603  0.2285  0.6131
 1020SOL    HW112769   3.116   4.446   2.172  0.4089 -0.5904 -0.1899
 1020SOL    HW212770   3.225   4.325   2.183 -0.6129 -1.3760  1.4489
 1021SOL     OW12771   2.039   2.253   0.181  0.3985 -0.0826  0.4569
 1021SOL    HW112772   2.125   2.223   0.140  0.1754 -0.2791  0.1191
 1021SOL    HW212773   2.050   2.342   0.224  1.2579 -0.9500  2.0811
 1022SOL     OW12774   3.458   1.017   0.215  0.0327 -0.7598  0.5599
 1022SOL    HW112775   3.466   0.962   0.298 -0.4299 -0.1923  0.9863
 1022SOL    HW212776   3.480   1.112   0.236  2.3722 -1.0312 -0.5049
 1023SOL     OW12777   2.461   2.297   2.226  0.3955  0.0173 -0.1862
 1023SOL    HW112778   2.454   2.203   2.193  2.6186 -0.7381  1.4018
 1023SOL    HW212779   2.472   2.359   2.148  0.8430 -1.2189 -1.1250
 1024SOL     OW12780   3.254   1.721   2.359  0.0454  0.0258  0.1596
 1024SOL    HW112781   3.251   1.804   2.413 -0.2310 -0.2401  0.5528
 1024SOL    HW212782   3.252   1.641   2.419 -0.1793 -0.2689 -0.2340
 1025SOL     OW12783   2.719   1.142   2.489 -0.0565 -0.0016  0.0155
 1025SOL    HW112784   2.792   1.201   2.524 -0.8649  1.3170 -0.5045
 1025SOL    HW212785   2.640   1.147   2.550  0.0701 -1.0124  0.2809
 1026SOL     OW12786   2.490   9.932   1.509 -1.0096  0.1532  0.2678
 1026SOL    HW112787   2.420   9.937   1.439 -1.5185 -1.0234  0.6760
 1026SOL    HW212788   2.579   9.955   1.470 -1.4105  0.2580 -0.5805
 1027SOL     OW12789   3.184   3.790   1.183 -0.0037 -0.6098  0.4607
 1027SOL    HW112790   3.183   3.691   1.192 -0.5190 -0.4905  1.8488
 1027SOL    HW212791   3.106   3.819   1.127  0.8488 -1.0708 -0.9735
 1028SOL     OW12792   2.844  10.368   1.227  0.1337 -0.2066 -0.5266
 1028SOL    HW112793   2.812  10.440   1.288  0.5805 -0.4938  0.0458
 1028SOL    HW212794   2.765  10.323   1.185 -0.1182  2.5392 -3.1580
 1029SOL     OW12795   3.072   8.568   1.227 -0.2821 -0.4974  0.1055
 1029SOL    HW112796   3.009   8.617   1.165 -1.0205 -1.4304  0.1017
 1029SOL    HW212797   3.138   8.517   1.173 -0.4012 -0.6373  0.0898
 1030SOL     OW12798   3.954   4.968  -0.009  0.5360 -0.3826  0.4036
 1030SOL    HW112799   3.868   4.998  -0.050  0.6576  0.4045  0.7301
 1030SOL    HW212800   3.957   4.993   0.087  0.7117 -1.2853  0.6402
 1031SOL     OW12801   2.926   8.600   0.168 -0.2438  0.1304  0.6649
 1031SOL    HW112802   2.852   8.568   0.109 -0.1057  0.6287  0.2271
 1031SOL    HW212803   3.014   8.576   0.127 -0.1279  1.5667  0.0579
  10.00000  10.00000   2.86600
