chitosan Film  in water:acetic acid 2%
24181
    1CHTO  H203    1   5.787   7.042   1.998
    1CHTO   O82    2   5.825   7.103   2.059
    1CHTO  C123    3   5.954   7.058   2.103
    1CHTO  H227    4   5.996   7.133   2.172
    1CHTO   O77    5   5.925   6.935   2.176
    1CHTO  C118    6   6.039   6.872   2.237
    1CHTO  H222    7   6.092   6.944   2.301
    1CHTO  C125    8   5.984   6.755   2.326
    1CHTO   O84    9   6.085   6.706   2.415
    1CHTO  H205   10   6.049   6.636   2.467
    1CHTO  C114   11   6.133   6.826   2.123
    1CHTO  H218   12   6.077   6.759   2.057
    1CHTO  C116   13   6.179   6.949   2.040
    1CHTO  H220   14   6.240   7.016   2.105
    1CHTO   O79   15   6.267   6.903   1.936
    1CHTO  H201   16   6.300   6.976   1.887
    1CHTO  C120   17   6.053   7.028   1.984
    1CHTO  H224   18   6.004   6.960   1.910
    1CHTO   N21   19   6.093   7.151   1.911
    1CHTO  H211   20   6.111   7.128   1.807
    1CHTO  H212   21   6.017   7.227   1.920
    1CHTO   O75   22   6.242   6.756   2.186
    1CHTO  C112   23   6.276   6.609   2.122
    1CHTO  H216   24   6.259   6.613   2.013
    1CHTO   O73   25   6.190   6.514   2.186
    1CHTO  C113   26   6.209   6.378   2.146
    1CHTO  H217   27   6.195   6.370   2.037
    1CHTO  C124   28   6.100   6.291   2.211
    1CHTO   O83   29   6.100   6.296   2.354
    1CHTO  H204   30   6.030   6.244   2.387
    1CHTO  C109   31   6.352   6.330   2.183
    1CHTO  H213   32   6.361   6.334   2.292
    1CHTO  C110   33   6.457   6.425   2.116
    1CHTO  H214   34   6.453   6.410   2.008
    1CHTO   O78   35   6.588   6.387   2.160
    1CHTO  H200   36   6.654   6.436   2.114
    1CHTO  C111   37   6.427   6.574   2.151
    1CHTO  H215   38   6.444   6.588   2.259
    1CHTO   N19   39   6.516   6.671   2.080
    1CHTO  H207   40   6.572   6.729   2.151
    1CHTO  H208   41   6.584   6.620   2.013
    1CHTO   O74   42   6.370   6.191   2.139
    1CHTO  C115   43   6.464   6.100   2.235
    1CHTO  H219   44   6.495   6.155   2.324
    1CHTO   O76   45   6.389   5.974   2.288
    1CHTO  C122   46   6.332   5.896   2.182
    1CHTO  H226   47   6.246   5.951   2.143
    1CHTO  C126   48   6.275   5.763   2.242
    1CHTO   O85   49   6.165   5.785   2.332
    1CHTO  H206   50   6.091   5.817   2.285
    1CHTO  C121   51   6.435   5.865   2.064
    1CHTO  H225   52   6.435   5.755   2.045
    1CHTO   O81   53   6.388   5.929   1.944
    1CHTO  H202   54   6.437   5.899   1.870
    1CHTO  C119   55   6.581   5.910   2.097
    1CHTO  H223   56   6.613   5.843   2.178
    1CHTO  C117   57   6.591   6.059   2.149
    1CHTO  H221   58   6.593   6.133   2.070
    1CHTO   N20   59   6.719   6.080   2.224
    1CHTO  H209   60   6.730   6.184   2.250
    1CHTO  H210   61   6.720   6.019   2.314
    1CHTO   O80   62   6.688   5.877   1.984
    1CHTO  C103   63   6.704   5.733   1.929
    1CHTO  H190   64   6.657   5.660   1.995
    1CHTO  C101   65   6.654   5.712   1.781
    1CHTO  H188   66   6.688   5.797   1.720
    1CHTO   O68   67   6.502   5.713   1.781
    1CHTO  H168   68   6.470   5.712   1.692
    1CHTO   C99   69   6.713   5.578   1.717
    1CHTO  H186   70   6.677   5.491   1.775
    1CHTO   N17   71   6.673   5.556   1.574
    1CHTO  H174   72   6.714   5.634   1.512
    1CHTO  H175   73   6.706   5.458   1.542
    1CHTO   C97   74   6.868   5.579   1.735
    1CHTO  H184   75   6.908   5.666   1.680
    1CHTO   O64   76   6.898   5.586   1.875
    1CHTO  C104   77   6.860   5.709   1.936
    1CHTO  H191   78   6.911   5.793   1.888
    1CHTO  C108   79   6.911   5.708   2.081
    1CHTO   O71   80   6.865   5.593   2.154
    1CHTO  H171   81   6.772   5.599   2.168
    1CHTO   O62   82   6.932   5.457   1.692
    1CHTO   C91   83   7.071   5.470   1.656
    1CHTO  H178   84   7.093   5.575   1.633
    1CHTO   C92   85   7.092   5.392   1.521
    1CHTO  H179   86   7.006   5.407   1.455
    1CHTO   O66   87   7.205   5.448   1.452
    1CHTO  H166   88   7.186   5.536   1.425
    1CHTO   C93   89   7.122   5.238   1.543
    1CHTO  H180   90   7.149   5.199   1.444
    1CHTO   N16   91   7.004   5.157   1.582
    1CHTO  H172   92   7.032   5.053   1.592
    1CHTO  H173   93   6.963   5.194   1.675
    1CHTO   C94   94   7.245   5.220   1.641
    1CHTO  H181   95   7.226   5.144   1.716
    1CHTO   O61   96   7.282   5.340   1.711
    1CHTO   C95   97   7.174   5.418   1.766
    1CHTO  H182   98   7.120   5.358   1.839
    1CHTO  C106   99   7.236   5.539   1.845
    1CHTO   O69  100   7.311   5.495   1.959
    1CHTO  H169  101   7.388   5.449   1.930
    1CHTO   O63  102   7.363   5.179   1.554
    1CHTO   C96  103   7.481   5.119   1.628
    1CHTO  H183  104   7.444   5.077   1.722
    1CHTO   C98  105   7.594   5.221   1.663
    1CHTO  H185  106   7.552   5.310   1.713
    1CHTO   O67  107   7.682   5.161   1.759
    1CHTO  H167  108   7.638   5.149   1.841
    1CHTO  C102  109   7.681   5.262   1.535
    1CHTO  H189  110   7.773   5.306   1.575
    1CHTO   N18  111   7.620   5.369   1.451
    1CHTO  H176  112   7.686   5.392   1.368
    1CHTO  H177  113   7.525   5.336   1.413
    1CHTO  C105  114   7.718   5.135   1.452
    1CHTO  H192  115   7.671   5.138   1.354
    1CHTO   O65  116   7.678   5.011   1.514
    1CHTO  C100  117   7.536   5.001   1.537
    1CHTO  H187  118   7.487   5.006   1.439
    1CHTO  C107  119   7.504   4.863   1.597
    1CHTO   O70  120   7.533   4.759   1.503
    1CHTO  H170  121   7.514   4.676   1.541
    1CHTO   O57  122   7.876   5.141   1.436
    1CHTO   C85  123   7.938   5.049   1.345
    1CHTO  H157  124   7.863   5.027   1.268
    1CHTO   C83  125   7.967   4.913   1.417
    1CHTO  H155  126   7.872   4.871   1.450
    1CHTO   O56  127   8.043   4.937   1.538
    1CHTO  H135  128   8.128   4.970   1.517
    1CHTO   C81  129   8.033   4.815   1.317
    1CHTO  H153  130   7.967   4.804   1.231
    1CHTO   N14  131   8.046   4.676   1.370
    1CHTO  H141  132   7.950   4.640   1.401
    1CHTO  H142  133   8.113   4.675   1.453
    1CHTO   C79  134   8.169   4.875   1.266
    1CHTO  H151  135   8.207   4.807   1.188
    1CHTO   O52  136   8.145   5.004   1.201
    1CHTO   C86  137   8.073   5.102   1.282
    1CHTO  H158  138   8.144   5.132   1.361
    1CHTO   C90  139   8.046   5.229   1.198
    1CHTO   O60  140   8.168   5.291   1.156
    1CHTO  H138  141   8.211   5.238   1.092
    1CHTO   O50  142   8.270   4.889   1.367
    1CHTO   C73  143   8.408   4.885   1.404
    1CHTO  H145  144   8.472   4.895   1.315
    1CHTO   C74  145   8.443   4.749   1.474
    1CHTO  H146  146   8.422   4.669   1.401
    1CHTO   O54  147   8.585   4.744   1.499
    1CHTO  H133  148   8.610   4.811   1.559
    1CHTO   C75  149   8.354   4.735   1.604
    1CHTO  H147  150   8.249   4.730   1.573
    1CHTO   N13  151   8.377   4.609   1.679
    1CHTO  H139  152   8.479   4.604   1.713
    1CHTO  H140  153   8.312   4.606   1.766
    1CHTO   C76  154   8.369   4.865   1.696
    1CHTO  H148  155   8.465   4.860   1.749
    1CHTO   O49  156   8.360   4.991   1.622
    1CHTO   C77  157   8.439   5.002   1.503
    1CHTO  H149  158   8.545   5.000   1.528
    1CHTO   C88  159   8.413   5.140   1.442
    1CHTO   O58  160   8.477   5.157   1.312
    1CHTO  H136  161   8.436   5.102   1.249
    1CHTO   O51  162   8.246   4.872   1.793
    1CHTO   C78  163   8.271   4.953   1.919
    1CHTO  H150  164   8.363   5.016   1.910
    1CHTO   C80  165   8.287   4.857   2.039
    1CHTO  H152  166   8.200   4.788   2.041
    1CHTO   O55  167   8.406   4.778   2.016
    1CHTO  H134  168   8.482   4.832   2.016
    1CHTO   C84  169   8.295   4.935   2.176
    1CHTO  H156  170   8.387   4.992   2.176
    1CHTO   N15  171   8.300   4.844   2.296
    1CHTO  H143  172   8.213   4.782   2.297
    1CHTO  H144  173   8.387   4.783   2.291
    1CHTO   C87  174   8.179   5.037   2.187
    1CHTO  H159  175   8.084   4.984   2.199
    1CHTO   O53  176   8.175   5.125   2.060
    1CHTO   C82  177   8.152   5.049   1.941
    1CHTO  H154  178   8.058   4.993   1.949
    1CHTO   C89  179   8.136   5.146   1.821
    1CHTO   O59  180   8.020   5.230   1.837
    1CHTO  H137  181   8.034   5.290   1.907
    1CHTO   O45  182   8.202   5.136   2.314
    1CHTO   C67  183   8.110   5.245   2.323
    1CHTO  H124  184   8.118   5.306   2.233
    1CHTO   C65  185   7.961   5.196   2.339
    1CHTO  H122  186   7.967   5.095   2.379
    1CHTO   O44  187   7.904   5.192   2.207
    1CHTO  H102  188   7.948   5.128   2.154
    1CHTO   C63  189   7.882   5.278   2.448
    1CHTO  H120  190   7.918   5.247   2.547
    1CHTO   N11  191   7.736   5.247   2.459
    1CHTO  H108  192   7.677   5.337   2.457
    1CHTO  H109  193   7.714   5.192   2.548
    1CHTO   C61  194   7.919   5.430   2.435
    1CHTO  H118  195   7.865   5.481   2.516
    1CHTO   O40  196   8.061   5.455   2.455
    1CHTO   C68  197   8.153   5.342   2.442
    1CHTO  H125  198   8.154   5.285   2.537
    1CHTO   C72  199   8.296   5.396   2.420
    1CHTO   O48  200   8.344   5.472   2.532
    1CHTO  H105  201   8.431   5.502   2.514
    1CHTO   O38  202   7.883   5.485   2.306
    1CHTO   C55  203   7.842   5.624   2.310
    1CHTO  H112  204   7.864   5.668   2.408
    1CHTO   C56  205   7.688   5.634   2.275
    1CHTO  H113  206   7.675   5.592   2.175
    1CHTO   O42  207   7.610   5.551   2.364
    1CHTO  H100  208   7.621   5.579   2.453
    1CHTO   C57  209   7.639   5.784   2.281
    1CHTO  H114  210   7.626   5.806   2.387
    1CHTO   N10  211   7.505   5.803   2.219
    1CHTO  H106  212   7.515   5.823   2.113
    1CHTO  H107  213   7.454   5.885   2.266
    1CHTO   C58  214   7.742   5.885   2.223
    1CHTO  H115  215   7.722   5.903   2.114
    1CHTO   O37  216   7.881   5.849   2.239
    1CHTO   C59  217   7.916   5.713   2.207
    1CHTO  H116  218   7.885   5.690   2.105
    1CHTO   C70  219   8.068   5.702   2.217
    1CHTO   O46  220   8.119   5.579   2.163
    1CHTO  H103  221   8.092   5.507   2.217
    1CHTO   O39  222   7.730   6.020   2.308
    1CHTO   C60  223   7.687   6.139   2.241
    1CHTO  H117  224   7.689   6.124   2.133
    1CHTO   C62  225   7.542   6.178   2.284
    1CHTO  H119  226   7.477   6.094   2.252
    1CHTO   O43  227   7.534   6.188   2.428
    1CHTO  H101  228   7.589   6.258   2.459
    1CHTO   C66  229   7.497   6.312   2.209
    1CHTO  H123  230   7.513   6.299   2.102
    1CHTO   N12  231   7.353   6.342   2.226
    1CHTO  H110  232   7.304   6.267   2.286
    1CHTO  H111  233   7.305   6.352   2.130
    1CHTO   C69  234   7.589   6.429   2.254
    1CHTO  H126  235   7.582   6.441   2.365
    1CHTO   O41  236   7.739   6.392   2.213
    1CHTO   C64  237   7.787   6.254   2.272
    1CHTO  H121  238   7.798   6.263   2.383
    1CHTO   C71  239   7.926   6.219   2.214
    1CHTO   O47  240   8.025   6.311   2.258
    1CHTO  H104  241   8.109   6.287   2.223
    1CHTO   O34  242   7.549   6.568   2.187
    1CHTO   C49  243   7.513   6.705   2.127
    1CHTO   H91  244   7.496   6.688   2.021
    1CHTO   C47  245   7.633   6.800   2.145
    1CHTO   H89  246   7.608   6.893   2.090
    1CHTO   O33  247   7.749   6.741   2.085
    1CHTO   H70  248   7.739   6.737   1.991
    1CHTO   C45  249   7.650   6.832   2.302
    1CHTO   H87  250   7.657   6.736   2.356
    1CHTO    N8  251   7.773   6.910   2.331
    1CHTO   H75  252   7.860   6.858   2.294
    1CHTO   H76  253   7.766   7.008   2.285
    1CHTO   C43  254   7.516   6.901   2.359
    1CHTO   H85  255   7.529   6.906   2.467
    1CHTO   O29  256   7.399   6.824   2.322
    1CHTO   C50  257   7.385   6.767   2.191
    1CHTO   H92  258   7.312   6.686   2.199
    1CHTO   C54  259   7.315   6.867   2.096
    1CHTO   O36  260   7.272   6.806   1.974
    1CHTO   H72  261   7.230   6.870   1.920
    1CHTO   O27  262   7.500   7.038   2.316
    1CHTO   C37  263   7.450   7.169   2.353
    1CHTO   H79  264   7.498   7.246   2.291
    1CHTO   C38  265   7.297   7.180   2.327
    1CHTO   H80  266   7.246   7.096   2.378
    1CHTO   O31  267   7.275   7.167   2.186
    1CHTO   H68  268   7.315   7.238   2.139
    1CHTO   C39  269   7.237   7.317   2.379
    1CHTO   H81  270   7.276   7.395   2.313
    1CHTO    N7  271   7.086   7.323   2.371
    1CHTO   H73  272   7.056   7.404   2.305
    1CHTO   H74  273   7.045   7.229   2.336
    1CHTO   C40  274   7.286   7.351   2.525
    1CHTO   H82  275   7.232   7.288   2.597
    1CHTO   O26  276   7.428   7.333   2.536
    1CHTO   C41  277   7.478   7.201   2.503
    1CHTO   H83  278   7.429   7.126   2.566
    1CHTO   C52  279   7.629   7.198   2.537
    1CHTO   O35  280   7.710   7.297   2.458
    1CHTO   H71  281   7.709   7.274   2.367
    1CHTO   O28  282   7.257   7.488   2.564
    1CHTO   C42  283   7.323   7.609   2.512
    1CHTO   H84  284   7.342   7.584   2.407
    1CHTO   C44  285   7.465   7.640   2.575
    1CHTO   H86  286   7.469   7.595   2.674
    1CHTO   O32  287   7.565   7.573   2.497
    1CHTO   H69  288   7.557   7.480   2.506
    1CHTO   C48  289   7.504   7.793   2.585
    1CHTO   H90  290   7.613   7.801   2.578
    1CHTO    N9  291   7.470   7.854   2.718
    1CHTO   H77  292   7.364   7.850   2.735
    1CHTO   H78  293   7.505   7.957   2.721
    1CHTO   C51  294   7.444   7.874   2.464
    1CHTO   H93  295   7.480   7.976   2.474
    1CHTO   O30  296   7.300   7.867   2.458
    1CHTO   C46  297   7.229   7.733   2.513
    1CHTO   H88  298   7.195   7.751   2.615
    1CHTO   C53  299   7.106   7.711   2.421
    1CHTO   O72  300   7.014   7.820   2.429
    1CHTO  H199  301   7.052   7.896   2.389
    1CHTO   O22  302   7.494   7.818   2.341
    1CHTO   C31  303   7.467   7.876   2.209
    1CHTO   H59  304   7.360   7.905   2.209
    1CHTO   C29  305   7.549   8.003   2.175
    1CHTO   H57  306   7.655   7.978   2.186
    1CHTO   O21  307   7.520   8.105   2.273
    1CHTO   H37  308   7.549   8.078   2.358
    1CHTO   C27  309   7.522   8.056   2.029
    1CHTO   H55  310   7.420   8.097   2.024
    1CHTO    N5  311   7.618   8.164   1.990
    1CHTO   H43  312   7.718   8.125   1.985
    1CHTO   H44  313   7.590   8.206   1.894
    1CHTO   C25  314   7.526   7.938   1.925
    1CHTO   H53  315   7.630   7.901   1.916
    1CHTO   O17  316   7.442   7.827   1.969
    1CHTO   C32  317   7.483   7.771   2.095
    1CHTO   H60  318   7.587   7.741   2.089
    1CHTO   C36  319   7.401   7.642   2.120
    1CHTO   O25  320   7.260   7.666   2.121
    1CHTO   H40  321   7.215   7.586   2.138
    1CHTO   O15  322   7.476   7.985   1.786
    1CHTO   C19  323   7.484   7.932   1.651
    1CHTO   H47  324   7.473   8.021   1.587
    1CHTO   C20  325   7.618   7.861   1.618
    1CHTO   H48  326   7.636   7.775   1.684
    1CHTO   O19  327   7.722   7.958   1.641
    1CHTO   H35  328   7.806   7.918   1.631
    1CHTO   C21  329   7.620   7.811   1.468
    1CHTO   H49  330   7.624   7.897   1.402
    1CHTO    N4  331   7.742   7.731   1.438
    1CHTO   H41  332   7.830   7.791   1.455
    1CHTO   H42  333   7.741   7.699   1.335
    1CHTO   C22  334   7.490   7.733   1.434
    1CHTO   H50  335   7.491   7.636   1.484
    1CHTO   O14  336   7.372   7.806   1.473
    1CHTO   C23  337   7.366   7.837   1.614
    1CHTO   H51  338   7.371   7.742   1.668
    1CHTO   C34  339   7.229   7.899   1.646
    1CHTO   O23  340   7.206   8.024   1.579
    1CHTO   H38  341   7.199   8.009   1.487
    1CHTO   O16  342   7.473   7.719   1.291
    1CHTO   C24  343   7.443   7.568   1.236
    1CHTO   H52  344   7.436   7.495   1.317
    1CHTO   C26  345   7.557   7.527   1.140
    1CHTO   H54  346   7.576   7.612   1.070
    1CHTO   O20  347   7.678   7.507   1.217
    1CHTO   H36  348   7.708   7.589   1.252
    1CHTO   C30  349   7.525   7.400   1.056
    1CHTO   H58  350   7.527   7.313   1.122
    1CHTO    N6  351   7.627   7.375   0.949
    1CHTO   H45  352   7.705   7.449   0.951
    1CHTO   H46  353   7.671   7.277   0.962
    1CHTO   C33  354   7.380   7.405   0.998
    1CHTO   H61  355   7.373   7.485   0.922
    1CHTO   O18  356   7.288   7.435   1.105
    1CHTO   C28  357   7.307   7.565   1.162
    1CHTO   H56  358   7.308   7.640   1.083
    1CHTO   C35  359   7.189   7.598   1.256
    1CHTO   O24  360   7.174   7.505   1.364
    1CHTO   H39  361   7.102   7.531   1.418
    1CHTO    O9  362   7.345   7.283   0.930
    1CHTO   C13  363   7.192   7.272   0.883
    1CHTO   H26  364   7.147   7.374   0.882
    1CHTO   C11  365   7.118   7.177   0.985
    1CHTO   H24  366   7.112   7.230   1.082
    1CHTO    O8  367   7.195   7.057   1.006
    1CHTO    H3  368   7.203   7.008   0.926
    1CHTO    C9  369   6.975   7.149   0.932
    1CHTO   H22  370   6.932   7.248   0.909
    1CHTO    N2  371   6.886   7.092   1.036
    1CHTO   H10  372   6.841   7.000   1.001
    1CHTO   H11  373   6.810   7.163   1.064
    1CHTO    C7  374   6.986   7.067   0.796
    1CHTO   H20  375   6.903   7.107   0.735
    1CHTO    O4  376   7.111   7.088   0.727
    1CHTO   C14  377   7.175   7.217   0.734
    1CHTO   H27  378   7.113   7.288   0.676
    1CHTO   C18  379   7.309   7.201   0.657
    1CHTO   O13  380   7.378   7.326   0.641
    1CHTO    H7  381   7.330   7.382   0.583
    1CHTO    O2  382   6.961   6.894   0.817
    1CHTO    C1  383   7.055   6.809   0.747
    1CHTO   H14  384   7.155   6.857   0.747
    1CHTO    C2  385   7.014   6.778   0.598
    1CHTO   H15  386   6.919   6.722   0.602
    1CHTO    O6  387   6.995   6.901   0.528
    1CHTO    H1  388   6.960   6.885   0.442
    1CHTO    C3  389   7.129   6.690   0.529
    1CHTO   H16  390   7.218   6.754   0.518
    1CHTO    N1  391   7.091   6.645   0.391
    1CHTO    H8  392   7.071   6.731   0.329
    1CHTO    H9  393   7.171   6.587   0.348
    1CHTO    C4  394   7.174   6.569   0.621
    1CHTO   H17  395   7.102   6.487   0.610
    1CHTO    O1  396   7.187   6.605   0.760
    1CHTO    C5  397   7.075   6.673   0.820
    1CHTO   H18  398   6.984   6.613   0.808
    1CHTO   C16  399   7.105   6.687   0.971
    1CHTO   O11  400   6.994   6.736   1.047
    1CHTO    H5  401   6.926   6.671   1.049
    1CHTO    O3  402   7.306   6.528   0.581
    1CHTO    C6  403   7.338   6.385   0.590
    1CHTO   H19  404   7.270   6.330   0.654
    1CHTO    C8  405   7.337   6.320   0.447
    1CHTO   H21  406   7.403   6.378   0.382
    1CHTO    O7  407   7.202   6.327   0.397
    1CHTO    H2  408   7.179   6.416   0.379
    1CHTO   C12  409   7.389   6.171   0.454
    1CHTO   H25  410   7.314   6.114   0.514
    1CHTO    N3  411   7.393   6.107   0.317
    1CHTO   H12  412   7.494   6.078   0.291
    1CHTO   H13  413   7.327   6.022   0.314
    1CHTO   C15  414   7.527   6.166   0.529
    1CHTO   H28  415   7.606   6.213   0.471
    1CHTO   O10  416   7.568   6.023   0.567
    1CHTO    H4  417   7.583   5.973   0.489
    1CHTO    O5  418   7.517   6.230   0.658
    1CHTO   C10  419   7.481   6.369   0.651
    1CHTO   H23  420   7.553   6.421   0.588
    1CHTO   C17  421   7.490   6.429   0.792
    1CHTO   O12  422   7.624   6.427   0.841
    1CHTO    H6  423   7.651   6.339   0.858
    2CHTO  H203  424   6.501   4.701   2.463
    2CHTO   O82  425   6.424   4.650   2.453
    2CHTO  C123  426   6.331   4.716   2.366
    2CHTO  H227  427   6.379   4.731   2.268
    2CHTO   O77  428   6.223   4.619   2.354
    2CHTO  C118  429   6.119   4.658   2.262
    2CHTO  H222  430   6.165   4.682   2.164
    2CHTO  C125  431   6.022   4.535   2.244
    2CHTO   O84  432   5.960   4.496   2.367
    2CHTO  H205  433   5.903   4.423   2.351
    2CHTO  C114  434   6.048   4.784   2.316
    2CHTO  H218  435   6.001   4.759   2.411
    2CHTO  C116  436   6.149   4.899   2.342
    2CHTO  H220  437   6.183   4.941   2.244
    2CHTO   O79  438   6.081   5.006   2.410
    2CHTO  H201  439   6.017   5.045   2.353
    2CHTO  C120  440   6.275   4.851   2.425
    2CHTO  H224  441   6.240   4.834   2.529
    2CHTO   N21  442   6.381   4.955   2.432
    2CHTO  H211  443   6.382   5.016   2.343
    2CHTO  H212  444   6.478   4.911   2.449
    2CHTO   O75  445   5.949   4.819   2.217
    2CHTO  C112  446   5.791   4.813   2.268
    2CHTO  H216  447   5.788   4.812   2.378
    2CHTO   O73  448   5.733   4.695   2.212
    2CHTO  C113  449   5.595   4.676   2.247
    2CHTO  H217  450   5.586   4.683   2.357
    2CHTO  C124  451   5.550   4.535   2.207
    2CHTO   O83  452   5.625   4.433   2.275
    2CHTO  H204  453   5.595   4.349   2.248
    2CHTO  C109  454   5.510   4.786   2.180
    2CHTO  H213  455   5.523   4.775   2.071
    2CHTO  C110  456   5.560   4.926   2.228
    2CHTO  H214  457   5.530   4.938   2.332
    2CHTO   O78  458   5.492   5.028   2.152
    2CHTO  H200  459   5.513   5.113   2.186
    2CHTO  C111  460   5.715   4.941   2.215
    2CHTO  H215  461   5.740   4.951   2.108
    2CHTO   N19  462   5.768   5.063   2.283
    2CHTO  H207  463   5.688   5.119   2.329
    2CHTO  H208  464   5.820   5.125   2.212
    2CHTO   O74  465   5.368   4.768   2.213
    2CHTO  C115  466   5.267   4.789   2.087
    2CHTO  H219  467   5.311   4.853   2.010
    2CHTO   O76  468   5.236   4.653   2.017
    2CHTO  C122  469   5.146   4.658   1.905
    2CHTO  H226  470   5.119   4.555   1.882
    2CHTO  C126  471   5.222   4.711   1.779
    2CHTO   O85  472   5.147   4.694   1.658
    2CHTO  H206  473   5.072   4.750   1.659
    2CHTO  C121  474   5.012   4.739   1.936
    2CHTO  H225  475   4.962   4.760   1.840
    2CHTO   O81  476   4.923   4.655   2.011
    2CHTO  H202  477   4.960   4.636   2.096
    2CHTO  C119  478   5.038   4.874   2.010
    2CHTO  H223  479   5.090   4.938   1.938
    2CHTO  C117  480   5.133   4.856   2.135
    2CHTO  H221  481   5.095   4.791   2.214
    2CHTO   N20  482   5.159   4.987   2.202
    2CHTO  H209  483   5.210   5.054   2.134
    2CHTO  H210  484   5.219   4.972   2.290
    2CHTO   O80  485   4.900   4.960   2.036
    2CHTO  C103  486   4.860   5.078   1.938
    2CHTO  H190  487   4.949   5.132   1.905
    2CHTO  C101  488   4.776   5.036   1.812
    2CHTO  H188  489   4.695   4.970   1.844
    2CHTO   O68  490   4.867   4.959   1.715
    2CHTO  H168  491   4.897   4.880   1.755
    2CHTO   C99  492   4.710   5.164   1.740
    2CHTO  H186  493   4.791   5.228   1.698
    2CHTO   N17  494   4.618   5.129   1.626
    2CHTO  H174  495   4.670   5.066   1.555
    2CHTO  H175  496   4.581   5.219   1.579
    2CHTO   C97  497   4.637   5.253   1.845
    2CHTO  H184  498   4.550   5.197   1.884
    2CHTO   O64  499   4.728   5.288   1.951
    2CHTO  C104  500   4.775   5.177   2.028
    2CHTO  H191  501   4.691   5.122   2.071
    2CHTO  C108  502   4.856   5.230   2.148
    2CHTO   O71  503   4.968   5.309   2.108
    2CHTO  H171  504   4.939   5.389   2.067
    2CHTO   O62  505   4.597   5.381   1.791
    2CHTO   C91  506   4.483   5.444   1.853
    2CHTO  H178  507   4.437   5.374   1.922
    2CHTO   C92  508   4.375   5.472   1.742
    2CHTO  H179  509   4.362   5.382   1.679
    2CHTO   O66  510   4.248   5.491   1.806
    2CHTO  H166  511   4.251   5.565   1.864
    2CHTO   C93  512   4.406   5.600   1.655
    2CHTO  H180  513   4.312   5.628   1.605
    2CHTO   N16  514   4.501   5.575   1.544
    2CHTO  H172  515   4.517   5.666   1.488
    2CHTO  H173  516   4.462   5.498   1.479
    2CHTO   C94  517   4.453   5.721   1.747
    2CHTO  H181  518   4.558   5.745   1.732
    2CHTO   O61  519   4.438   5.691   1.887
    2CHTO   C95  520   4.517   5.579   1.931
    2CHTO  H182  521   4.623   5.603   1.917
    2CHTO  C106  522   4.494   5.565   2.086
    2CHTO   O69  523   4.583   5.469   2.143
    2CHTO  H169  524   4.561   5.383   2.113
    2CHTO   O63  525   4.364   5.845   1.712
    2CHTO   C96  526   4.402   5.975   1.794
    2CHTO  H183  527   4.483   5.951   1.863
    2CHTO   C98  528   4.283   6.032   1.876
    2CHTO  H185  529   4.194   6.038   1.811
    2CHTO   O67  530   4.251   5.935   1.977
    2CHTO  H167  531   4.174   5.962   2.024
    2CHTO  C102  532   4.314   6.176   1.941
    2CHTO  H189  533   4.387   6.156   2.022
    2CHTO   N18  534   4.198   6.241   2.007
    2CHTO  H176  535   4.119   6.256   1.935
    2CHTO  H177  536   4.162   6.179   2.088
    2CHTO  C105  537   4.381   6.268   1.836
    2CHTO  H192  538   4.307   6.298   1.762
    2CHTO   O65  539   4.490   6.204   1.767
    2CHTO  C100  540   4.455   6.085   1.695
    2CHTO  H187  541   4.376   6.109   1.623
    2CHTO  C107  542   4.579   6.036   1.616
    2CHTO   O70  543   4.620   6.132   1.518
    2CHTO  H170  544   4.556   6.137   1.449
    2CHTO   O57  545   4.443   6.400   1.918
    2CHTO   C85  546   4.392   6.533   1.903
    2CHTO  H157  547   4.294   6.533   1.955
    2CHTO   C83  548   4.359   6.567   1.753
    2CHTO  H155  549   4.276   6.504   1.721
    2CHTO   O56  550   4.472   6.531   1.671
    2CHTO  H135  551   4.451   6.541   1.581
    2CHTO   C81  552   4.316   6.716   1.740
    2CHTO  H153  553   4.229   6.732   1.804
    2CHTO   N14  554   4.269   6.751   1.604
    2CHTO  H141  555   4.190   6.685   1.574
    2CHTO  H142  556   4.232   6.852   1.603
    2CHTO   C79  557   4.431   6.810   1.792
    2CHTO  H151  558   4.395   6.913   1.784
    2CHTO   O52  559   4.454   6.783   1.934
    2CHTO   C86  560   4.490   6.643   1.962
    2CHTO  H158  561   4.591   6.634   1.917
    2CHTO   C90  562   4.509   6.623   2.114
    2CHTO   O60  563   4.390   6.652   2.187
    2CHTO  H138  564   4.405   6.640   2.279
    2CHTO   O50  565   4.554   6.797   1.718
    2CHTO   C73  566   4.649   6.885   1.655
    2CHTO  H145  567   4.617   6.989   1.665
    2CHTO   C74  568   4.661   6.852   1.503
    2CHTO  H146  569   4.560   6.859   1.460
    2CHTO   O54  570   4.739   6.955   1.440
    2CHTO  H133  571   4.827   6.955   1.472
    2CHTO   C75  572   4.722   6.707   1.486
    2CHTO  H147  573   4.654   6.634   1.533
    2CHTO   N13  574   4.734   6.663   1.344
    2CHTO  H139  575   4.797   6.732   1.289
    2CHTO  H140  576   4.636   6.661   1.298
    2CHTO   C76  577   4.862   6.698   1.565
    2CHTO  H148  578   4.930   6.769   1.519
    2CHTO   O49  579   4.840   6.736   1.705
    2CHTO   C77  580   4.789   6.869   1.723
    2CHTO  H149  581   4.858   6.941   1.678
    2CHTO   C88  582   4.786   6.901   1.873
    2CHTO   O58  583   4.744   7.041   1.899
    2CHTO  H136  584   4.654   7.051   1.875
    2CHTO   O51  585   4.923   6.544   1.561
    2CHTO   C78  586   4.997   6.489   1.694
    2CHTO  H150  587   4.982   6.556   1.781
    2CHTO   C80  588   5.148   6.471   1.671
    2CHTO  H152  589   5.163   6.414   1.576
    2CHTO   O55  590   5.203   6.603   1.652
    2CHTO  H134  591   5.294   6.597   1.631
    2CHTO   C84  592   5.218   6.394   1.791
    2CHTO  H156  593   5.210   6.457   1.879
    2CHTO   N15  594   5.364   6.367   1.768
    2CHTO  H143  595   5.395   6.406   1.673
    2CHTO  H144  596   5.422   6.411   1.845
    2CHTO   C87  597   5.140   6.263   1.822
    2CHTO  H159  598   5.150   6.193   1.738
    2CHTO   O53  599   4.992   6.298   1.846
    2CHTO   C82  600   4.931   6.354   1.729
    2CHTO  H154  601   4.940   6.285   1.646
    2CHTO   C89  602   4.779   6.373   1.755
    2CHTO   O59  603   4.753   6.455   1.870
    2CHTO  H137  604   4.780   6.410   1.948
    2CHTO   O45  605   5.200   6.188   1.960
    2CHTO   C67  606   5.110   6.096   2.025
    2CHTO  H124  607   5.011   6.142   2.030
    2CHTO   C65  608   5.098   5.959   1.949
    2CHTO  H122  609   5.194   5.944   1.899
    2CHTO   O44  610   4.996   5.976   1.849
    2CHTO  H102  611   4.994   5.902   1.792
    2CHTO   C63  612   5.084   5.835   2.047
    2CHTO  H120  613   5.183   5.813   2.088
    2CHTO   N11  614   5.050   5.704   1.984
    2CHTO  H108  615   5.059   5.625   2.056
    2CHTO  H109  616   4.950   5.707   1.946
    2CHTO   C61  617   4.994   5.876   2.170
    2CHTO  H118  618   4.998   5.790   2.240
    2CHTO   O40  619   5.049   5.991   2.243
    2CHTO   C68  620   5.152   6.071   2.175
    2CHTO  H125  621   5.248   6.015   2.177
    2CHTO   C72  622   5.174   6.203   2.252
    2CHTO   O48  623   5.232   6.181   2.381
    2CHTO  H105  624   5.320   6.150   2.372
    2CHTO   O38  625   4.857   5.900   2.131
    2CHTO   C55  626   4.761   5.942   2.230
    2CHTO  H112  627   4.807   6.016   2.297
    2CHTO   C56  628   4.702   5.818   2.311
    2CHTO  H113  629   4.673   5.743   2.237
    2CHTO   O42  630   4.805   5.759   2.391
    2CHTO  H100  631   4.774   5.680   2.431
    2CHTO   C57  632   4.578   5.859   2.402
    2CHTO  H114  633   4.618   5.912   2.488
    2CHTO   N10  634   4.502   5.743   2.457
    2CHTO  H106  635   4.507   5.659   2.388
    2CHTO  H107  636   4.544   5.713   2.552
    2CHTO   C58  637   4.481   5.954   2.327
    2CHTO  H115  638   4.423   5.896   2.250
    2CHTO   O37  639   4.552   6.061   2.262
    2CHTO   C59  640   4.643   6.016   2.161
    2CHTO  H116  641   4.591   5.951   2.090
    2CHTO   C70  642   4.689   6.142   2.085
    2CHTO   O46  643   4.755   6.111   1.962
    2CHTO  H103  644   4.693   6.077   1.901
    2CHTO   O39  645   4.379   6.027   2.432
    2CHTO   C60  646   4.264   6.084   2.369
    2CHTO  H117  647   4.280   6.091   2.261
    2CHTO   C62  648   4.137   5.996   2.394
    2CHTO  H119  649   4.161   5.896   2.352
    2CHTO   O43  650   4.115   5.982   2.535
    2CHTO  H101  651   4.095   6.065   2.574
    2CHTO   C66  652   4.012   6.059   2.314
    2CHTO  H123  653   4.038   6.065   2.208
    2CHTO   N12  654   3.890   5.975   2.322
    2CHTO  H110  655   3.908   5.885   2.379
    2CHTO  H111  656   3.855   5.950   2.222
    2CHTO   C69  657   3.985   6.204   2.364
    2CHTO  H126  658   3.953   6.202   2.470
    2CHTO   O41  659   4.118   6.289   2.351
    2CHTO   C64  660   4.240   6.229   2.419
    2CHTO  H121  661   4.224   6.227   2.529
    2CHTO   C71  662   4.362   6.319   2.390
    2CHTO   O47  663   4.345   6.451   2.443
    2CHTO  H104  664   4.278   6.496   2.395
    2CHTO   O34  665   3.870   6.275   2.276
    2CHTO   C49  666   3.796   6.412   2.292
    2CHTO   H91  667   3.690   6.390   2.293
    2CHTO   C47  668   3.831   6.503   2.173
    2CHTO   H89  669   3.765   6.593   2.181
    2CHTO   O33  670   3.796   6.432   2.053
    2CHTO   H70  671   3.808   6.488   1.978
    2CHTO   C45  672   3.986   6.547   2.180
    2CHTO   H87  673   4.046   6.455   2.180
    2CHTO    N8  674   4.028   6.629   2.063
    2CHTO   H75  675   4.074   6.721   2.095
    2CHTO   H76  676   3.945   6.650   1.998
    2CHTO   C43  677   4.017   6.617   2.321
    2CHTO   H85  678   4.125   6.630   2.326
    2CHTO   O29  679   3.968   6.536   2.430
    2CHTO   C50  680   3.835   6.482   2.425
    2CHTO   H92  681   3.829   6.405   2.504
    2CHTO   C54  682   3.727   6.585   2.469
    2CHTO   O36  683   3.749   6.630   2.603
    2CHTO   H72  684   3.731   6.560   2.664
    2CHTO   O27  685   3.961   6.750   2.333
    2CHTO   C37  686   3.951   6.891   2.308
    2CHTO   H79  687   3.947   6.911   2.200
    2CHTO   C38  688   3.819   6.947   2.370
    2CHTO   H80  689   3.814   6.915   2.476
    2CHTO   O31  690   3.709   6.886   2.300
    2CHTO   H68  691   3.709   6.912   2.210
    2CHTO   C39  692   3.811   7.104   2.363
    2CHTO   H81  693   3.798   7.130   2.258
    2CHTO    N7  694   3.693   7.160   2.437
    2CHTO   H73  695   3.630   7.217   2.370
    2CHTO   H74  696   3.724   7.221   2.521
    2CHTO   C40  697   3.947   7.171   2.410
    2CHTO   H82  698   3.956   7.167   2.519
    2CHTO   O26  699   4.059   7.110   2.344
    2CHTO   C41  700   4.072   6.967   2.369
    2CHTO   H83  701   4.076   6.948   2.477
    2CHTO   C52  702   4.208   6.921   2.309
    2CHTO   O35  703   4.219   6.946   2.162
    2CHTO   H71  704   4.303   6.918   2.132
    2CHTO   O28  705   3.955   7.308   2.366
    2CHTO   C42  706   4.036   7.410   2.432
    2CHTO   H84  707   4.036   7.492   2.360
    2CHTO   C44  708   4.187   7.376   2.458
    2CHTO   H86  709   4.192   7.290   2.524
    2CHTO   O32  710   4.245   7.340   2.331
    2CHTO   H69  711   4.333   7.311   2.343
    2CHTO   C48  712   4.265   7.497   2.526
    2CHTO   H90  713   4.271   7.578   2.453
    2CHTO    N9  714   4.407   7.462   2.561
    2CHTO   H77  715   4.476   7.527   2.509
    2CHTO   H78  716   4.429   7.359   2.538
    2CHTO   C51  717   4.184   7.549   2.651
    2CHTO   H93  718   4.183   7.469   2.726
    2CHTO   O30  719   4.052   7.583   2.608
    2CHTO   C46  720   3.972   7.465   2.563
    2CHTO   H88  721   3.975   7.387   2.640
    2CHTO   C53  722   3.827   7.512   2.542
    2CHTO   O72  723   3.769   7.556   2.665
    2CHTO  H199  724   3.681   7.584   2.650
    2CHTO   O22  725   4.239   7.670   2.706
    2CHTO   C31  726   4.196   7.727   2.836
    2CHTO   H59  727   4.266   7.811   2.857
    2CHTO   C29  728   4.053   7.788   2.834
    2CHTO   H57  729   3.984   7.710   2.800
    2CHTO   O21  730   4.051   7.892   2.734
    2CHTO   H37  731   4.062   7.856   2.649
    2CHTO   C27  732   4.007   7.839   0.036
    2CHTO   H55  733   4.074   7.920   0.068
    2CHTO    N5  734   3.868   7.889   0.037
    2CHTO   H43  735   3.842   7.925   0.136
    2CHTO   H44  736   3.799   7.811   0.008
    2CHTO   C25  737   4.027   7.719   0.135
    2CHTO   H53  738   3.970   7.633   0.097
    2CHTO   O17  739   4.168   7.684   0.138
    2CHTO   C32  740   4.213   7.627   0.014
    2CHTO   H60  741   4.154   7.537   2.934
    2CHTO   C36  742   4.361   7.586   0.031
    2CHTO   O25  743   4.376   7.483   0.130
    2CHTO   H40  744   4.467   7.462   0.139
    2CHTO   O15  745   3.978   7.749   0.286
    2CHTO   C19  746   3.916   7.641   0.363
    2CHTO   H47  747   3.863   7.582   0.288
    2CHTO   C20  748   4.016   7.548   0.437
    2CHTO   H48  749   4.078   7.603   0.510
    2CHTO   O19  750   4.104   7.492   0.337
    2CHTO   H35  751   4.172   7.442   0.378
    2CHTO   C21  752   3.941   7.433   0.516
    2CHTO   H49  753   3.888   7.370   0.444
    2CHTO    N4  754   4.033   7.343   0.591
    2CHTO   H41  755   4.136   7.371   0.576
    2CHTO   H42  756   4.011   7.343   0.697
    2CHTO   C22  757   3.832   7.498   0.606
    2CHTO   H50  758   3.882   7.559   0.682
    2CHTO   O14  759   3.744   7.580   0.528
    2CHTO   C23  760   3.807   7.692   0.462
    2CHTO   H51  761   3.849   7.757   0.540
    2CHTO   C34  762   3.698   7.772   0.390
    2CHTO   O23  763   3.605   7.828   0.482
    2CHTO   H38  764   3.541   7.878   0.436
    2CHTO   O16  765   3.744   7.401   0.665
    2CHTO   C24  766   3.718   7.420   0.825
    2CHTO   H52  767   3.776   7.502   0.866
    2CHTO   C26  768   3.755   7.289   0.897
    2CHTO   H54  769   3.704   7.204   0.845
    2CHTO   O20  770   3.897   7.268   0.883
    2CHTO   H36  771   3.944   7.336   0.927
    2CHTO   C30  772   3.711   7.288   1.047
    2CHTO   H58  773   3.777   7.356   1.103
    2CHTO    N6  774   3.729   7.153   1.108
    2CHTO   H45  775   3.795   7.158   1.193
    2CHTO   H46  776   3.634   7.111   1.139
    2CHTO   C33  777   3.567   7.344   1.066
    2CHTO   H61  778   3.492   7.271   1.031
    2CHTO   O18  779   3.550   7.467   0.992
    2CHTO   C28  780   3.568   7.453   0.850
    2CHTO   H56  781   3.506   7.373   0.811
    2CHTO   C35  782   3.525   7.585   0.781
    2CHTO   O24  783   3.601   7.700   0.822
    2CHTO   H39  784   3.690   7.691   0.792
    2CHTO    O9  785   3.540   7.363   1.207
    2CHTO   C13  786   3.398   7.432   1.249
    2CHTO   H26  787   3.320   7.393   1.180
    2CHTO   C11  788   3.412   7.590   1.239
    2CHTO   H24  789   3.400   7.618   1.133
    2CHTO    O8  790   3.544   7.631   1.279
    2CHTO    H3  791   3.608   7.595   1.221
    2CHTO    C9  792   3.298   7.657   1.320
    2CHTO   H22  793   3.204   7.616   1.280
    2CHTO    N2  794   3.287   7.804   1.298
    2CHTO   H10  795   3.376   7.854   1.335
    2CHTO   H11  796   3.272   7.825   1.193
    2CHTO    C7  797   3.312   7.616   1.470
    2CHTO   H20  798   3.228   7.667   1.522
    2CHTO    O4  799   3.294   7.474   1.486
    2CHTO   C14  800   3.353   7.379   1.394
    2CHTO   H27  801   3.272   7.305   1.376
    2CHTO   C18  802   3.466   7.304   1.468
    2CHTO   O13  803   3.416   7.227   1.578
    2CHTO    H7  804   3.386   7.284   1.646
    2CHTO    O2  805   3.455   7.661   1.535
    2CHTO    C1  806   3.458   7.680   1.678
    2CHTO   H14  807   3.399   7.600   1.727
    2CHTO    C2  808   3.403   7.821   1.727
    2CHTO   H15  809   3.451   7.896   1.662
    2CHTO    O6  810   3.261   7.827   1.706
    2CHTO    H1  811   3.218   7.761   1.758
    2CHTO    C3  812   3.439   7.851   1.881
    2CHTO   H16  813   3.379   7.784   1.943
    2CHTO    N1  814   3.404   7.992   1.921
    2CHTO    H8  815   3.334   7.991   2.004
    2CHTO    H9  816   3.492   8.048   1.948
    2CHTO    C4  817   3.589   7.815   1.911
    2CHTO   H17  818   3.655   7.888   1.863
    2CHTO    O1  819   3.619   7.683   1.865
    2CHTO    C5  820   3.606   7.662   1.724
    2CHTO   H18  821   3.667   7.735   1.671
    2CHTO   C16  822   3.662   7.520   1.695
    2CHTO   O11  823   3.596   7.418   1.770
    2CHTO    H5  824   3.616   7.427   1.861
    2CHTO    O3  825   3.616   7.810   2.053
    2CHTO    C6  826   3.758   7.802   2.091
    2CHTO   H19  827   3.824   7.789   2.005
    2CHTO    C8  828   3.800   7.934   2.164
    2CHTO   H21  829   3.731   7.950   2.247
    2CHTO    O7  830   3.787   8.041   2.070
    2CHTO    H2  831   3.848   8.031   1.999
    2CHTO   C12  832   3.947   7.921   2.221
    2CHTO   H25  833   4.015   7.915   2.133
    2CHTO    N3  834   3.987   8.043   2.299
    2CHTO   H12  835   3.920   8.058   2.382
    2CHTO   H13  836   3.988   8.130   2.234
    2CHTO   C15  837   3.962   7.788   2.303
    2CHTO   H28  838   3.906   7.792   2.397
    2CHTO   O10  839   4.109   7.752   2.334
    2CHTO    H4  840   4.113   7.680   2.393
    2CHTO    O5  841   3.919   7.675   2.226
    2CHTO   C10  842   3.781   7.681   2.185
    2CHTO   H23  843   3.718   7.691   2.274
    2CHTO   C17  844   3.745   7.548   2.119
    2CHTO   O12  845   3.744   7.439   2.212
    2CHTO    H6  846   3.832   7.421   2.241
    3CHTO  H203  847   7.387   2.537   0.546
    3CHTO   O82  848   7.421   2.491   0.620
    3CHTO  C123  849   7.438   2.352   0.588
    3CHTO  H227  850   7.509   2.343   0.504
    3CHTO   O77  851   7.499   2.298   0.710
    3CHTO  C118  852   7.534   2.159   0.703
    3CHTO  H222  853   7.602   2.141   0.618
    3CHTO  C125  854   7.608   2.119   0.836
    3CHTO   O84  855   7.731   2.191   0.849
    3CHTO  H205  856   7.773   2.166   0.929
    3CHTO  C114  857   7.405   2.076   0.684
    3CHTO  H218  858   7.339   2.095   0.769
    3CHTO  C116  859   7.329   2.121   0.556
    3CHTO  H220  860   7.389   2.093   0.466
    3CHTO   O79  861   7.206   2.046   0.547
    3CHTO  H201  862   7.224   1.955   0.532
    3CHTO  C120  863   7.303   2.277   0.558
    3CHTO  H224  864   7.231   2.295   0.640
    3CHTO   N21  865   7.239   2.326   0.433
    3CHTO  H211  866   7.132   2.321   0.441
    3CHTO  H212  867   7.274   2.269   0.347
    3CHTO   O75  868   7.447   1.938   0.682
    3CHTO  C112  869   7.346   1.843   0.765
    3CHTO  H216  870   7.244   1.886   0.759
    3CHTO   O73  871   7.393   1.838   0.901
    3CHTO  C113  872   7.296   1.782   0.990
    3CHTO  H217  873   7.207   1.848   0.990
    3CHTO  C124  874   7.353   1.785   1.133
    3CHTO   O83  875   7.382   1.917   1.179
    3CHTO  H204  876   7.415   1.913   1.267
    3CHTO  C109  877   7.255   1.637   0.950
    3CHTO  H213  878   7.336   1.571   0.984
    3CHTO  C110  879   7.233   1.620   0.796
    3CHTO  H214  880   7.134   1.659   0.772
    3CHTO   O78  881   7.230   1.479   0.768
    3CHTO  H200  882   7.209   1.464   0.678
    3CHTO  C111  883   7.341   1.695   0.713
    3CHTO  H215  884   7.439   1.648   0.732
    3CHTO   N19  885   7.317   1.688   0.566
    3CHTO  H207  886   7.401   1.642   0.517
    3CHTO  H208  887   7.299   1.786   0.524
    3CHTO   O74  888   7.131   1.603   1.020
    3CHTO  C115  889   7.137   1.483   1.122
    3CHTO  H219  890   7.240   1.450   1.140
    3CHTO   O76  891   7.083   1.526   1.265
    3CHTO  C122  892   6.951   1.582   1.256
    3CHTO  H226  893   6.961   1.684   1.216
    3CHTO  C126  894   6.892   1.598   1.400
    3CHTO   O85  895   6.956   1.702   1.475
    3CHTO  H206  896   6.918   1.706   1.561
    3CHTO  C121  897   6.852   1.498   1.164
    3CHTO  H225  898   6.757   1.486   1.219
    3CHTO   O81  899   6.822   1.570   1.044
    3CHTO  H202  900   6.779   1.651   1.064
    3CHTO  C119  901   6.910   1.357   1.133
    3CHTO  H223  902   6.925   1.310   1.231
    3CHTO  C117  903   7.050   1.366   1.061
    3CHTO  H221  904   7.044   1.388   0.954
    3CHTO   N20  905   7.123   1.234   1.067
    3CHTO  H209  906   7.144   1.209   1.170
    3CHTO  H210  907   7.064   1.157   1.021
    3CHTO   O80  908   6.804   1.256   1.067
    3CHTO  C103  909   6.699   1.177   1.160
    3CHTO  H190  910   6.736   1.170   1.262
    3CHTO  C101  911   6.552   1.234   1.164
    3CHTO  H188  912   6.517   1.248   1.061
    3CHTO   O68  913   6.552   1.371   1.234
    3CHTO  H168  914   6.467   1.410   1.228
    3CHTO   C99  915   6.453   1.133   1.238
    3CHTO  H186  916   6.484   1.123   1.344
    3CHTO   N17  917   6.309   1.177   1.239
    3CHTO  H174  918   6.295   1.266   1.179
    3CHTO  H175  919   6.276   1.193   1.341
    3CHTO   C97  920   6.467   0.990   1.178
    3CHTO  H184  921   6.425   0.990   1.076
    3CHTO   O64  922   6.605   0.948   1.179
    3CHTO  C104  923   6.694   1.030   1.102
    3CHTO  H191  924   6.665   1.034   0.997
    3CHTO  C108  925   6.834   0.966   1.104
    3CHTO   O71  926   6.834   0.837   1.041
    3CHTO  H171  927   6.822   0.847   0.949
    3CHTO   O62  928   6.403   0.890   1.260
    3CHTO   C91  929   6.346   0.775   1.194
    3CHTO  H178  930   6.370   0.778   1.088
    3CHTO   C92  931   6.191   0.780   1.206
    3CHTO  H179  932   6.165   0.793   1.312
    3CHTO   O66  933   6.145   0.900   1.141
    3CHTO  H166  934   6.053   0.912   1.155
    3CHTO   C93  935   6.118   0.653   1.146
    3CHTO  H180  936   6.116   0.667   1.036
    3CHTO   N16  937   5.975   0.646   1.187
    3CHTO  H172  938   5.968   0.640   1.294
    3CHTO  H173  939   5.922   0.732   1.150
    3CHTO   C94  940   6.192   0.518   1.178
    3CHTO  H181  941   6.165   0.478   1.276
    3CHTO   O61  942   6.335   0.530   1.174
    3CHTO   C95  943   6.393   0.636   1.251
    3CHTO  H182  944   6.361   0.625   1.355
    3CHTO  C106  945   6.549   0.620   1.250
    3CHTO   O69  946   6.604   0.627   1.118
    3CHTO  H169  947   6.592   0.713   1.083
    3CHTO   O63  948   6.163   0.415   1.062
    3CHTO   C96  949   6.076   0.283   1.081
    3CHTO  H183  950   6.106   0.215   1.001
    3CHTO   C98  951   5.922   0.302   1.069
    3CHTO  H185  952   5.888   0.374   1.145
    3CHTO   O67  953   5.895   0.363   0.942
    3CHTO  H167  954   5.918   0.306   0.872
    3CHTO  C102  955   5.844   0.163   1.085
    3CHTO  H189  956   5.871   0.103   0.997
    3CHTO   N18  957   5.695   0.173   1.084
    3CHTO  H176  958   5.654   0.116   1.002
    3CHTO  H177  959   5.664   0.276   1.076
    3CHTO  C105  960   5.896   0.089   1.212
    3CHTO  H192  961   5.862   0.142   1.301
    3CHTO   O65  962   6.040   0.082   1.217
    3CHTO  C100  963   6.107   0.209   1.216
    3CHTO  H187  964   6.069   0.269   1.300
    3CHTO  C107  965   6.258   0.185   1.237
    3CHTO   O70  966   6.285   0.128   1.366
    3CHTO  H170  967   6.270   0.192   1.433
    3CHTO   O57  968   5.833   9.933   1.207
    3CHTO   C85  969   5.814   9.855   1.327
    3CHTO  H157  970   5.797   9.752   1.290
    3CHTO   C83  971   5.680   9.896   1.398
    3CHTO  H155  972   5.598   9.870   1.332
    3CHTO   O56  973   5.673   0.038   1.418
    3CHTO  H135  974   5.674   0.083   1.335
    3CHTO   C81  975   5.666   9.815   1.530
    3CHTO  H153  976   5.671   9.709   1.505
    3CHTO   N14  977   5.534   9.830   1.596
    3CHTO  H141  978   5.456   9.804   1.528
    3CHTO  H142  979   5.520   9.932   1.627
    3CHTO   C79  980   5.787   9.848   1.626
    3CHTO  H151  981   5.774   9.788   1.716
    3CHTO   O52  982   5.911   9.806   1.563
    3CHTO   C86  983   5.936   9.862   1.430
    3CHTO  H158  984   5.966   9.966   1.450
    3CHTO   C90  985   6.060   9.792   1.368
    3CHTO   O60  986   6.179   9.822   1.442
    3CHTO  H138  987   6.202   9.913   1.431
    3CHTO   O50  988   5.796   9.987   1.663
    3CHTO   C73  989   5.845   0.057   1.778
    3CHTO  H145  990   5.935   0.007   1.818
    3CHTO   C74  991   5.736   0.063   1.889
    3CHTO  H146  992   5.710   9.959   1.914
    3CHTO   O54  993   5.795   0.119   2.009
    3CHTO  H133  994   5.820   0.208   1.994
    3CHTO   C75  995   5.611   0.143   1.836
    3CHTO  H147  996   5.571   0.090   1.749
    3CHTO   N13  997   5.498   0.152   1.931
    3CHTO  H139  998   5.520   0.099   2.023
    3CHTO  H140  999   5.475   0.255   1.956
    3CHTO   C76 1000   5.660   0.287   1.784
    3CHTO  H148 1001   5.693   0.345   1.870
    3CHTO   O49 1002   5.770   0.275   1.688
    3CHTO   C77 1003   5.885   0.202   1.736
    3CHTO  H149 1004   5.928   0.254   1.822
    3CHTO   C88 1005   5.992   0.206   1.626
    3CHTO   O58 1006   6.117   0.140   1.669
    3CHTO  H136 1007   6.180   0.145   1.601
    3CHTO   O51 1008   5.545   0.360   1.703
    3CHTO   C78 1009   5.573   0.513   1.686
    3CHTO  H150 1010   5.679   0.538   1.712
    3CHTO   C80 1011   5.479   0.593   1.778
    3CHTO  H152 1012   5.374   0.567   1.753
    3CHTO   O55 1013   5.505   0.553   1.914
    3CHTO  H134 1014   5.476   0.464   1.927
    3CHTO   C84 1015   5.499   0.749   1.760
    3CHTO  H156 1016   5.600   0.773   1.793
    3CHTO   N15 1017   5.405   0.831   1.843
    3CHTO  H143 1018   5.459   0.895   1.910
    3CHTO  H144 1019   5.339   0.769   1.900
    3CHTO   C87 1020   5.489   0.787   1.610
    3CHTO  H159 1021   5.385   0.777   1.577
    3CHTO   O53 1022   5.582   0.693   1.525
    3CHTO   C82 1023   5.552   0.554   1.539
    3CHTO  H154 1024   5.450   0.533   1.506
    3CHTO   C89 1025   5.647   0.478   1.443
    3CHTO   O59 1026   5.608   0.341   1.426
    3CHTO  H137 1027   5.668   0.299   1.367
    3CHTO   O45 1028   5.535   0.949   1.584
    3CHTO   C67 1029   5.676   0.971   1.564
    3CHTO  H124 1030   5.731   0.883   1.596
    3CHTO   C65 1031   5.707   0.998   1.412
    3CHTO  H122 1032   5.619   1.047   1.371
    3CHTO   O44 1033   5.722   0.870   1.349
    3CHTO  H102 1034   5.803   0.830   1.374
    3CHTO   C63 1035   5.824   1.103   1.391
    3CHTO  H120 1036   5.784   1.203   1.407
    3CHTO   N11 1037   5.878   1.116   1.251
    3CHTO  H108 1038   5.930   1.026   1.224
    3CHTO  H109 1039   5.797   1.133   1.183
    3CHTO   C61 1040   5.933   1.082   1.502
    3CHTO  H118 1041   6.010   1.158   1.486
    3CHTO   O40 1042   5.878   1.105   1.635
    3CHTO   C68 1043   5.732   1.090   1.653
    3CHTO  H125 1044   5.683   1.185   1.623
    3CHTO   C72 1045   5.704   1.071   1.804
    3CHTO   O48 1046   5.775   0.961   1.862
    3CHTO  H105 1047   5.867   0.978   1.862
    3CHTO   O38 1048   5.993   0.950   1.494
    3CHTO   C55 1049   6.086   0.907   1.595
    3CHTO  H112 1050   6.051   0.941   1.694
    3CHTO   C56 1051   6.233   0.960   1.563
    3CHTO  H113 1052   6.251   0.940   1.456
    3CHTO   O42 1053   6.237   1.103   1.577
    3CHTO  H100 1054   6.217   1.128   1.666
    3CHTO   C57 1055   6.343   0.890   1.652
    3CHTO  H114 1056   6.332   0.928   1.754
    3CHTO   N10 1057   6.482   0.923   1.610
    3CHTO  H106 1058   6.548   0.919   1.695
    3CHTO  H107 1059   6.486   1.022   1.567
    3CHTO   C58 1060   6.321   0.737   1.654
    3CHTO  H115 1061   6.340   0.695   1.553
    3CHTO   O37 1062   6.186   0.706   1.694
    3CHTO   C59 1063   6.086   0.752   1.602
    3CHTO  H116 1064   6.105   0.709   1.503
    3CHTO   C70 1065   5.950   0.700   1.649
    3CHTO   O46 1066   5.941   0.557   1.647
    3CHTO  H103 1067   5.856   0.531   1.675
    3CHTO   O39 1068   6.414   0.664   1.766
    3CHTO   C60 1069   6.494   0.554   1.716
    3CHTO  H117 1070   6.448   0.512   1.627
    3CHTO   C62 1071   6.638   0.602   1.678
    3CHTO  H119 1072   6.625   0.671   1.592
    3CHTO   O43 1073   6.695   0.674   1.789
    3CHTO  H101 1074   6.650   0.755   1.802
    3CHTO   C66 1075   6.727   0.477   1.631
    3CHTO  H123 1076   6.676   0.426   1.549
    3CHTO   N12 1077   6.861   0.517   1.579
    3CHTO  H110 1078   6.872   0.485   1.476
    3CHTO  H111 1079   6.875   0.623   1.588
    3CHTO   C69 1080   6.737   0.376   1.749
    3CHTO  H126 1081   6.782   0.425   1.838
    3CHTO   O41 1082   6.594   0.329   1.783
    3CHTO   C64 1083   6.498   0.441   1.823
    3CHTO  H121 1084   6.530   0.485   1.920
    3CHTO   C71 1085   6.358   0.380   1.841
    3CHTO   O47 1086   6.356   0.287   1.949
    3CHTO  H104 1087   6.269   0.252   1.959
    3CHTO   O34 1088   6.823   0.248   1.714
    3CHTO   C49 1089   6.840   0.142   1.605
    3CHTO   H91 1090   6.875   0.197   1.518
    3CHTO   C47 1091   6.703   0.078   1.571
    3CHTO   H89 1092   6.649   0.155   1.511
    3CHTO   O33 1093   6.627   0.051   1.690
    3CHTO   H70 1094   6.604   0.131   1.734
    3CHTO   C45 1095   6.719   9.939   1.491
    3CHTO   H87 1096   6.711   9.857   1.564
    3CHTO    N8 1097   6.608   9.922   1.393
    3CHTO   H75 1098   6.618   9.995   1.314
    3CHTO   H76 1099   6.611   9.823   1.351
    3CHTO   C43 1100   6.866   9.922   1.430
    3CHTO   H85 1101   6.868   9.826   1.379
    3CHTO   O29 1102   6.962   9.929   1.537
    3CHTO   C50 1103   6.944   0.030   1.638
    3CHTO   H92 1104   6.915   9.982   1.732
    3CHTO   C54 1105   7.085   0.088   1.667
    3CHTO   O36 1106   7.088   0.172   1.783
    3CHTO   H72 1107   7.175   0.201   1.799
    3CHTO   O27 1108   6.894   0.022   1.330
    3CHTO   C37 1109   7.004   0.069   1.251
    3CHTO   H79 1110   7.081   0.115   1.315
    3CHTO   C38 1111   7.072   9.952   1.173
    3CHTO   H80 1112   6.993   9.892   1.125
    3CHTO   O31 1113   7.139   9.870   1.271
    3CHTO   H68 1114   7.173   9.792   1.230
    3CHTO   C39 1115   7.173   0.003   1.063
    3CHTO   H81 1116   7.258   0.048   1.114
    3CHTO    N7 1117   7.227   9.892   0.977
    3CHTO   H73 1118   7.296   9.932   0.904
    3CHTO   H74 1119   7.277   9.819   1.039
    3CHTO   C40 1120   7.105   0.117   0.977
    3CHTO   H82 1121   7.023   0.073   0.920
    3CHTO   O26 1122   7.060   0.220   1.066
    3CHTO   C41 1123   6.952   0.176   1.152
    3CHTO   H83 1124   6.870   0.134   1.091
    3CHTO   C52 1125   6.895   0.300   1.226
    3CHTO   O35 1126   6.841   0.400   1.132
    3CHTO   H71 1127   6.809   0.474   1.180
    3CHTO   O28 1128   7.196   0.177   0.881
    3CHTO   C42 1129   7.169   0.304   0.811
    3CHTO   H84 1130   7.235   0.299   0.723
    3CHTO   C44 1131   7.212   0.432   0.890
    3CHTO   H86 1132   7.157   0.435   0.984
    3CHTO   O32 1133   7.352   0.417   0.919
    3CHTO   H69 1134   7.381   0.488   0.973
    3CHTO   C48 1135   7.181   0.566   0.811
    3CHTO   H90 1136   7.246   0.570   0.724
    3CHTO    N9 1137   7.213   0.689   0.893
    3CHTO   H77 1138   7.253   0.662   0.990
    3CHTO   H78 1139   7.283   0.752   0.840
    3CHTO   C51 1140   7.032   0.566   0.762
    3CHTO   H93 1141   6.968   0.566   0.850
    3CHTO   O30 1142   7.010   0.450   0.680
    3CHTO   C46 1143   7.023   0.319   0.758
    3CHTO   H88 1144   6.954   0.323   0.842
    3CHTO   C53 1145   6.981   0.204   0.663
    3CHTO   O72 1146   7.064   0.192   0.548
    3CHTO  H199 1147   7.150   0.163   0.573
    3CHTO   O22 1148   7.002   0.680   0.678
    3CHTO   C31 1149   6.870   0.706   0.617
    3CHTO   H59 1150   6.843   0.614   0.561
    3CHTO   C29 1151   6.755   0.734   0.717
    3CHTO   H57 1152   6.789   0.817   0.781
    3CHTO   O21 1153   6.738   0.619   0.803
    3CHTO   H37 1154   6.680   0.640   0.874
    3CHTO   C27 1155   6.618   0.774   0.648
    3CHTO   H55 1156   6.575   0.683   0.603
    3CHTO    N5 1157   6.521   0.828   0.747
    3CHTO   H43 1158   6.484   0.926   0.717
    3CHTO   H44 1159   6.438   0.760   0.759
    3CHTO   C25 1160   6.642   0.873   0.528
    3CHTO   H53 1161   6.668   0.973   0.568
    3CHTO   O17 1162   6.751   0.829   0.443
    3CHTO   C32 1163   6.876   0.821   0.513
    3CHTO   H60 1164   6.896   0.915   0.564
    3CHTO   C36 1165   6.989   0.801   0.409
    3CHTO   O25 1166   7.001   0.915   0.322
    3CHTO   H40 1167   7.034   0.988   0.370
    3CHTO   O15 1168   6.515   0.887   0.439
    3CHTO   C19 1169   6.455   1.011   0.392
    3CHTO   H47 1170   6.373   0.976   0.326
    3CHTO   C20 1171   6.394   1.098   0.505
    3CHTO   H48 1172   6.468   1.122   0.583
    3CHTO   O19 1173   6.291   1.019   0.567
    3CHTO   H35 1174   6.256   1.063   0.642
    3CHTO   C21 1175   6.334   1.235   0.451
    3CHTO   H49 1176   6.247   1.212   0.389
    3CHTO    N4 1177   6.287   1.324   0.560
    3CHTO   H41 1178   6.368   1.348   0.627
    3CHTO   H42 1179   6.208   1.276   0.615
    3CHTO   C22 1180   6.438   1.303   0.358
    3CHTO   H50 1181   6.525   1.332   0.418
    3CHTO   O14 1182   6.478   1.211   0.255
    3CHTO   C23 1183   6.550   1.096   0.302
    3CHTO   H51 1184   6.638   1.132   0.358
    3CHTO   C34 1185   6.599   1.017   0.181
    3CHTO   O23 1186   6.690   1.092   0.099
    3CHTO   H38 1187   6.645   1.163   0.057
    3CHTO   O16 1188   6.384   1.419   0.291
    3CHTO   C24 1189   6.476   1.482   0.173
    3CHTO   H52 1190   6.543   1.408   0.130
    3CHTO   C26 1191   6.557   1.600   0.229
    3CHTO   H54 1192   6.487   1.676   0.267
    3CHTO   O20 1193   6.636   1.554   0.340
    3CHTO   H36 1194   6.699   1.490   0.312
    3CHTO   C30 1195   6.645   1.665   0.118
    3CHTO   H58 1196   6.732   1.600   0.098
    3CHTO    N6 1197   6.704   1.793   0.169
    3CHTO   H45 1198   6.625   1.863   0.193
    3CHTO   H46 1199   6.768   1.837   0.095
    3CHTO   C33 1200   6.572   1.683   2.921
    3CHTO   H61 1201   6.523   1.781   2.917
    3CHTO   O18 1202   6.472   1.582   2.897
    3CHTO   C28 1203   6.386   1.534   0.060
    3CHTO   H56 1204   6.322   1.614   0.097
    3CHTO   C35 1205   6.299   1.420   2.941
    3CHTO   O24 1206   6.194   1.376   0.086
    3CHTO   H39 1207   6.131   1.444   0.097
    3CHTO    O9 1208   6.669   1.685   2.813
    3CHTO   C13 1209   6.765   1.806   2.783
    3CHTO   H26 1210   6.743   1.888   2.854
    3CHTO   C11 1211   6.745   1.852   2.633
    3CHTO   H24 1212   6.643   1.894   2.625
    3CHTO    O8 1213   6.752   1.740   2.543
    3CHTO    H3 1214   6.837   1.701   2.546
    3CHTO    C9 1215   6.847   1.964   2.605
    3CHTO   H22 1216   6.828   2.041   2.681
    3CHTO    N2 1217   6.824   2.034   2.476
    3CHTO   H10 1218   6.889   2.119   2.469
    3CHTO   H11 1219   6.842   1.966   2.394
    3CHTO    C7 1220   6.994   1.911   2.624
    3CHTO   H20 1221   7.055   2.003   2.619
    3CHTO    O4 1222   7.014   1.850   2.753
    3CHTO   C14 1223   6.915   1.762   2.810
    3CHTO   H27 1224   6.932   1.766   2.920
    3CHTO   C18 1225   6.942   1.615   2.767
    3CHTO   O13 1226   7.070   1.568   2.810
    3CHTO    H7 1227   7.071   1.558   2.903
    3CHTO    O2 1228   7.042   1.805   2.503
    3CHTO    C1 1229   7.180   1.764   2.510
    3CHTO   H14 1230   7.203   1.733   2.615
    3CHTO    C2 1231   7.287   1.875   2.466
    3CHTO   H15 1232   7.256   1.907   2.365
    3CHTO    O6 1233   7.282   1.987   2.556
    3CHTO    H1 1234   7.337   2.056   2.525
    3CHTO    C3 1235   7.436   1.814   2.463
    3CHTO   H16 1236   7.467   1.799   2.568
    3CHTO    N1 1237   7.534   1.910   2.401
    3CHTO    H8 1238   7.578   1.868   2.312
    3CHTO    H9 1239   7.612   1.934   2.472
    3CHTO    C4 1240   7.440   1.671   2.396
    3CHTO   H17 1241   7.433   1.682   2.288
    3CHTO    O1 1242   7.334   1.586   2.444
    3CHTO    C5 1243   7.202   1.639   2.421
    3CHTO   H18 1244   7.193   1.671   2.317
    3CHTO   C16 1245   7.100   1.526   2.447
    3CHTO   O11 1246   7.115   1.418   2.353
    3CHTO    H5 1247   7.194   1.372   2.370
    3CHTO    O3 1248   7.563   1.606   2.433
    3CHTO    C6 1249   7.596   1.478   2.371
    3CHTO   H19 1250   7.507   1.421   2.341
    3CHTO    C8 1251   7.686   1.499   2.245
    3CHTO   H21 1252   7.768   1.566   2.272
    3CHTO    O7 1253   7.604   1.561   2.144
    3CHTO    H2 1254   7.583   1.649   2.168
    3CHTO   C12 1255   7.748   1.362   2.194
    3CHTO   H25 1256   7.663   1.301   2.156
    3CHTO    N3 1257   7.841   1.383   2.079
    3CHTO   H12 1258   7.879   1.288   2.044
    3CHTO   H13 1259   7.923   1.447   2.108
    3CHTO   C15 1260   7.813   1.286   2.315
    3CHTO   H28 1261   7.900   1.339   2.354
    3CHTO   O10 1262   7.852   1.142   2.282
    3CHTO    H4 1263   7.902   1.104   2.352
    3CHTO    O5 1264   7.716   1.268   2.420
    3CHTO   C10 1265   7.670   1.391   2.477
    3CHTO   H23 1266   7.756   1.447   2.515
    3CHTO   C17 1267   7.579   1.360   2.597
    3CHTO   O12 1268   7.649   1.291   2.701
    3CHTO    H6 1269   7.671   1.204   2.672
    4CHTO  H203 1270   6.971   7.656   2.181
    4CHTO   O82 1271   6.969   7.663   2.087
    4CHTO  C123 1272   6.925   7.793   2.047
    4CHTO  H227 1273   6.833   7.818   2.104
    4CHTO   O77 1274   7.034   7.882   2.087
    4CHTO  C118 1275   7.003   8.022   2.072
    4CHTO  H222 1276   6.913   8.047   2.132
    4CHTO  C125 1277   7.127   8.100   2.131
    4CHTO   O84 1278   7.104   8.241   2.142
    4CHTO  H205 1279   7.038   8.257   2.207
    4CHTO  C114 1280   6.979   8.055   1.923
    4CHTO  H218 1281   7.073   8.043   1.870
    4CHTO  C116 1282   6.874   7.959   1.857
    4CHTO  H220 1283   6.772   7.988   1.892
    4CHTO   O79 1284   6.875   7.981   1.715
    4CHTO  H201 1285   6.843   8.067   1.695
    4CHTO  C120 1286   6.902   7.807   1.892
    4CHTO  H224 1287   6.994   7.778   1.838
    4CHTO   N21 1288   6.792   7.720   1.844
    4CHTO  H211 1289   6.782   7.632   1.906
    4CHTO  H212 1290   6.810   7.691   1.741
    4CHTO   O75 1291   6.937   8.193   1.922
    4CHTO  C112 1292   6.987   8.279   1.792
    4CHTO  H216 1293   6.969   8.221   1.701
    4CHTO   O73 1294   7.126   8.308   1.810
    4CHTO  C113 1295   7.185   8.376   1.699
    4CHTO  H217 1296   7.171   8.315   1.607
    4CHTO  C124 1297   7.336   8.388   1.724
    4CHTO   O83 1298   7.401   8.261   1.723
    4CHTO  H204 1299   7.493   8.273   1.738
    4CHTO  C109 1300   7.121   8.516   1.678
    4CHTO  H213 1301   7.150   8.578   1.764
    4CHTO  C110 1302   6.965   8.504   1.669
    4CHTO  H214 1303   6.940   8.461   1.572
    4CHTO   O78 1304   6.909   8.637   1.670
    4CHTO  H200 1305   6.816   8.633   1.656
    4CHTO  C111 1306   6.907   8.415   1.783
    4CHTO  H215 1307   6.920   8.468   1.879
    4CHTO   N19 1308   6.761   8.390   1.769
    4CHTO  H207 1309   6.742   8.336   1.677
    4CHTO  H208 1310   6.725   8.332   1.853
    4CHTO   O74 1311   7.176   8.575   1.556
    4CHTO  C115 1312   7.189   8.734   1.552
    4CHTO  H219 1313   7.106   8.783   1.604
    4CHTO   O76 1314   7.317   8.784   1.624
    4CHTO  C122 1315   7.440   8.728   1.573
    4CHTO  H226 1316   7.461   8.638   1.630
    4CHTO  C126 1317   7.555   8.828   1.608
    4CHTO   O85 1318   7.572   8.846   1.749
    4CHTO  H206 1319   7.643   8.905   1.765
    4CHTO  C121 1320   7.438   8.695   1.418
    4CHTO  H225 1321   7.540   8.715   1.378
    4CHTO   O81 1322   7.411   8.557   1.396
    4CHTO  H202 1323   7.479   8.504   1.433
    4CHTO  C119 1324   7.337   8.787   1.342
    4CHTO  H223 1325   7.374   8.888   1.361
    4CHTO  C117 1326   7.189   8.777   1.400
    4CHTO  H221 1327   7.128   8.700   1.352
    4CHTO   N20 1328   7.114   8.905   1.376
    4CHTO  H209 1329   7.159   8.985   1.434
    4CHTO  H210 1330   7.011   8.892   1.404
    4CHTO   O80 1331   7.343   8.780   1.181
    4CHTO  C103 1332   7.482   8.767   1.107
    4CHTO  H190 1333   7.565   8.779   1.177
    4CHTO  C101 1334   7.503   8.634   1.026
    4CHTO  H188 1335   7.419   8.621   0.958
    4CHTO   O68 1336   7.506   8.514   1.124
    4CHTO  H168 1337   7.579   8.521   1.182
    4CHTO   C99 1338   7.637   8.641   0.939
    4CHTO  H186 1339   7.724   8.648   1.007
    4CHTO   N17 1340   7.659   8.521   0.851
    4CHTO  H174 1341   7.755   8.528   0.802
    4CHTO  H175 1342   7.653   8.431   0.911
    4CHTO   C97 1343   7.640   8.773   0.855
    4CHTO  H184 1344   7.566   8.764   0.774
    4CHTO   O64 1345   7.615   8.888   0.939
    4CHTO  C104 1346   7.488   8.888   1.007
    4CHTO  H191 1347   7.405   8.880   0.936
    4CHTO  C108 1348   7.471   9.022   1.079
    4CHTO   O71 1349   7.462   9.130   0.986
    4CHTO  H171 1350   7.450   9.211   1.033
    4CHTO   O62 1351   7.771   8.797   0.801
    4CHTO   C91 1352   7.780   8.879   0.683
    4CHTO  H178 1353   7.680   8.917   0.658
    4CHTO   C92 1354   7.827   8.792   0.562
    4CHTO  H179 1355   7.922   8.744   0.588
    4CHTO   O66 1356   7.732   8.685   0.543
    4CHTO  H166 1357   7.648   8.719   0.520
    4CHTO   C93 1358   7.843   8.879   0.431
    4CHTO  H180 1359   7.743   8.912   0.401
    4CHTO   N16 1360   7.896   8.803   0.315
    4CHTO  H172 1361   7.994   8.764   0.338
    4CHTO  H173 1362   7.900   8.866   0.227
    4CHTO   C94 1363   7.931   9.006   0.460
    4CHTO  H181 1364   8.035   8.980   0.482
    4CHTO   O61 1365   7.882   9.077   0.574
    4CHTO   C95 1366   7.877   9.003   0.697
    4CHTO  H182 1367   7.977   8.968   0.722
    4CHTO  C106 1368   7.833   9.100   0.812
    4CHTO   O69 1369   7.704   9.159   0.787
    4CHTO  H169 1370   7.709   9.216   0.713
    4CHTO   O63 1371   7.927   9.112   0.331
    4CHTO   C96 1372   7.791   9.197   0.319
    4CHTO  H183 1373   7.726   9.170   0.403
    4CHTO   C98 1374   7.711   9.178   0.188
    4CHTO  H185 1375   7.775   9.202   0.102
    4CHTO   O67 1376   7.681   9.038   0.176
    4CHTO  H167 1377   7.639   9.021   0.093
    4CHTO  C102 1378   7.578   9.267   0.187
    4CHTO  H189 1379   7.512   9.223   0.264
    4CHTO   N18 1380   7.500   9.261   0.061
    4CHTO  H176 1381   7.559   9.298   2.920
    4CHTO  H177 1382   7.409   9.320   0.070
    4CHTO  C105 1383   7.609   9.414   0.230
    4CHTO  H192 1384   7.651   9.468   0.144
    4CHTO   O65 1385   7.702   9.427   0.338
    4CHTO  C100 1386   7.823   9.350   0.330
    4CHTO  H187 1387   7.877   9.381   0.240
    4CHTO  C107 1388   7.913   9.386   0.451
    4CHTO   O70 1389   7.845   9.370   0.576
    4CHTO  H170 1390   7.902   9.393   0.647
    4CHTO   O57 1391   7.460   9.479   0.272
    4CHTO   C85 1392   7.430   9.540   0.399
    4CHTO  H157 1393   7.506   9.620   0.412
    4CHTO   C83 1394   7.456   9.440   0.519
    4CHTO  H155 1395   7.563   9.434   0.535
    4CHTO   O56 1396   7.415   9.307   0.481
    4CHTO  H135 1397   7.322   9.303   0.468
    4CHTO   C81 1398   7.388   9.491   0.649
    4CHTO  H153 1399   7.428   9.591   0.670
    4CHTO   N14 1400   7.420   9.411   0.770
    4CHTO  H141 1401   7.478   9.469   0.839
    4CHTO  H142 1402   7.475   9.322   0.744
    4CHTO   C79 1403   7.234   9.505   0.624
    4CHTO  H151 1404   7.189   9.537   0.718
    4CHTO   O52 1405   7.214   9.614   0.529
    4CHTO   C86 1406   7.281   9.599   0.400
    4CHTO  H158 1407   7.213   9.534   0.343
    4CHTO   C90 1408   7.277   9.737   0.330
    4CHTO   O60 1409   7.320   9.730   0.193
    4CHTO  H138 1410   7.412   9.711   0.190
    4CHTO   O50 1411   7.170   9.385   0.579
    4CHTO   C73 1412   7.053   9.306   0.552
    4CHTO  H145 1413   6.971   9.370   0.518
    4CHTO   C74 1414   7.008   9.231   0.681
    4CHTO  H146 1415   6.991   9.307   0.759
    4CHTO   O54 1416   6.881   9.170   0.654
    4CHTO  H133 1417   6.847   9.129   0.731
    4CHTO   C75 1418   7.119   9.128   0.725
    4CHTO  H147 1419   7.212   9.183   0.745
    4CHTO   N13 1420   7.087   9.055   0.850
    4CHTO  H139 1421   7.081   8.949   0.833
    4CHTO  H140 1422   7.163   9.073   0.925
    4CHTO   C76 1423   7.149   9.030   0.602
    4CHTO  H148 1424   7.059   8.972   0.582
    4CHTO   O49 1425   7.185   9.107   0.482
    4CHTO   C77 1426   7.084   9.200   0.440
    4CHTO  H149 1427   6.992   9.147   0.416
    4CHTO   C88 1428   7.128   9.269   0.310
    4CHTO   O58 1429   7.151   9.175   0.205
    4CHTO  H136 1430   7.178   9.221   0.127
    4CHTO   O51 1431   7.276   8.938   0.631
    4CHTO   C78 1432   7.274   8.806   0.545
    4CHTO  H150 1433   7.204   8.815   0.460
    4CHTO   C80 1434   7.230   8.687   0.633
    4CHTO  H152 1435   7.293   8.686   0.725
    4CHTO   O55 1436   7.094   8.710   0.672
    4CHTO  H134 1437   7.088   8.782   0.731
    4CHTO   C84 1438   7.247   8.549   0.557
    4CHTO  H156 1439   7.176   8.548   0.474
    4CHTO   N15 1440   7.212   8.431   0.644
    4CHTO  H143 1441   7.277   8.426   0.728
    4CHTO  H144 1442   7.221   8.340   0.587
    4CHTO   C87 1443   7.390   8.538   0.500
    4CHTO  H159 1444   7.462   8.535   0.582
    4CHTO   O53 1445   7.416   8.661   0.411
    4CHTO   C82 1446   7.415   8.783   0.486
    4CHTO  H154 1447   7.490   8.781   0.564
    4CHTO   C89 1448   7.454   8.897   0.388
    4CHTO   O59 1449   7.490   9.017   0.457
    4CHTO  H137 1450   7.570   9.004   0.504
    4CHTO   O45 1451   7.407   8.405   0.407
    4CHTO   C67 1452   7.540   8.377   0.360
    4CHTO  H124 1453   7.587   8.467   0.320
    4CHTO   C65 1454   7.631   8.318   0.474
    4CHTO  H122 1455   7.623   8.388   0.557
    4CHTO   O44 1456   7.768   8.314   0.432
    4CHTO  H102 1457   7.779   8.251   0.363
    4CHTO   C63 1458   7.569   8.184   0.525
    4CHTO  H120 1459   7.468   8.204   0.561
    4CHTO   N11 1460   7.632   8.129   0.649
    4CHTO  H108 1461   7.574   8.048   0.687
    4CHTO  H109 1462   7.731   8.094   0.627
    4CHTO   C61 1463   7.552   8.079   0.407
    4CHTO  H118 1464   7.474   8.010   0.444
    4CHTO   O40 1465   7.499   8.138   0.284
    4CHTO   C68 1466   7.529   8.275   0.241
    4CHTO  H125 1467   7.441   8.307   0.180
    4CHTO   C72 1468   7.651   8.277   0.146
    4CHTO   O48 1469   7.626   8.207   0.024
    4CHTO  H105 1470   7.702   8.211   2.911
    4CHTO   O38 1471   7.670   8.003   0.372
    4CHTO   C55 1472   7.645   7.864   0.339
    4CHTO  H112 1473   7.546   7.856   0.292
    4CHTO   C56 1474   7.658   7.771   0.467
    4CHTO  H113 1475   7.757   7.791   0.511
    4CHTO   O42 1476   7.561   7.809   0.565
    4CHTO  H100 1477   7.579   7.895   0.597
    4CHTO   C57 1478   7.643   7.618   0.430
    4CHTO  H114 1479   7.537   7.602   0.407
    4CHTO   N10 1480   7.676   7.526   0.543
    4CHTO  H106 1481   7.620   7.434   0.534
    4CHTO  H107 1482   7.781   7.503   0.545
    4CHTO   C58 1483   7.726   7.581   0.304
    4CHTO  H115 1484   7.835   7.576   0.331
    4CHTO   O37 1485   7.708   7.676   0.198
    4CHTO   C59 1486   7.744   7.811   0.232
    4CHTO  H116 1487   7.847   7.813   0.269
    4CHTO   C70 1488   7.739   7.896   0.104
    4CHTO   O46 1489   7.833   7.852   0.005
    4CHTO  H103 1490   7.826   7.906   2.870
    4CHTO   O39 1491   7.675   7.435   0.245
    4CHTO   C60 1492   7.777   7.356   0.181
    4CHTO  H117 1493   7.863   7.418   0.158
    4CHTO   C62 1494   7.824   7.240   0.274
    4CHTO  H119 1495   7.865   7.288   0.366
    4CHTO   O43 1496   7.709   7.160   0.313
    4CHTO  H101 1497   7.736   7.094   0.374
    4CHTO   C66 1498   7.939   7.154   0.202
    4CHTO  H123 1499   8.022   7.221   0.177
    4CHTO   N12 1500   7.997   7.050   0.291
    4CHTO  H110 1501   8.042   7.096   0.377
    4CHTO  H111 1502   7.921   6.980   0.320
    4CHTO   C69 1503   7.887   7.095   0.068
    4CHTO  H126 1504   7.805   7.023   0.088
    4CHTO   O41 1505   7.833   7.214   2.918
    4CHTO   C64 1506   7.724   7.299   0.046
    4CHTO  H121 1507   7.636   7.236   0.067
    4CHTO   C71 1508   7.679   7.412   2.891
    4CHTO   O47 1509   7.787   7.499   2.854
    4CHTO  H104 1510   7.848   7.453   2.800
    4CHTO   O34 1511   8.004   7.018   2.928
    4CHTO   C49 1512   8.086   6.897   2.867
    4CHTO   H91 1513   8.184   6.936   2.840
    4CHTO   C47 1514   8.014   6.844   2.742
    4CHTO   H89 1515   8.082   6.770   2.695
    4CHTO   O33 1516   7.997   6.954   2.650
    4CHTO   H70 1517   7.961   6.924   2.569
    4CHTO   C45 1518   7.876   6.774   2.785
    4CHTO   H87 1519   7.820   6.847   2.845
    4CHTO    N8 1520   7.790   6.734   2.670
    4CHTO   H75 1521   7.763   6.630   2.677
    4CHTO   H76 1522   7.840   6.753   2.577
    4CHTO   C43 1523   7.908   6.653   2.886
    4CHTO   H85 1524   7.811   6.616   2.919
    4CHTO   O29 1525   7.987   6.701   0.055
    4CHTO   C50 1526   8.104   6.781   0.030
    4CHTO   H92 1527   8.131   6.828   0.126
    4CHTO   C54 1528   8.226   6.690   0.001
    4CHTO   O36 1529   8.349   6.764   2.935
    4CHTO   H72 1530   8.420   6.705   2.919
    4CHTO   O27 1531   7.973   6.541   2.821
    4CHTO   C37 1532   7.987   6.439   2.721
    4CHTO   H79 1533   7.944   6.473   2.625
    4CHTO   C38 1534   8.138   6.408   2.694
    4CHTO   H80 1535   8.186   6.387   2.791
    4CHTO   O31 1536   8.196   6.528   2.639
    4CHTO   H68 1537   8.289   6.518   2.632
    4CHTO   C39 1538   8.159   6.286   2.597
    4CHTO   H81 1539   8.125   6.317   2.498
    4CHTO    N7 1540   8.303   6.245   2.584
    4CHTO   H73 1541   8.312   6.161   2.516
    4CHTO   H74 1542   8.362   6.328   2.548
    4CHTO   C40 1543   8.069   6.164   2.640
    4CHTO   H82 1544   8.108   6.119   2.732
    4CHTO   O26 1545   7.933   6.208   2.656
    4CHTO   C41 1546   7.915   6.307   2.762
    4CHTO   H83 1547   7.957   6.269   2.857
    4CHTO   C52 1548   7.762   6.322   2.780
    4CHTO   O35 1549   7.725   6.385   2.906
    4CHTO   H71 1550   7.746   6.329   0.037
    4CHTO   O28 1551   8.061   6.061   2.539
    4CHTO   C42 1552   8.033   5.922   2.573
    4CHTO   H84 1553   8.012   5.875   2.477
    4CHTO   C44 1554   7.905   5.897   2.661
    4CHTO   H86 1555   7.914   5.957   2.753
    4CHTO   O32 1556   7.793   5.947   2.587
    4CHTO   H69 1557   7.796   6.040   2.581
    4CHTO   C48 1558   7.886   5.746   2.704
    4CHTO   H90 1559   7.860   5.688   2.616
    4CHTO    N9 1560   7.769   5.731   2.798
    4CHTO   H77 1561   7.696   5.662   2.756
    4CHTO   H78 1562   7.802   5.696   2.895
    4CHTO   C51 1563   8.021   5.690   2.763
    4CHTO   H93 1564   8.045   5.749   2.851
    4CHTO   O30 1565   8.121   5.702   2.661
    4CHTO   C46 1566   8.156   5.848   2.633
    4CHTO   H88 1567   8.186   5.896   2.726
    4CHTO   C53 1568   8.275   5.849   2.534
    4CHTO   O72 1569   8.391   5.789   2.594
    4CHTO  H199 1570   8.462   5.790   2.533
    4CHTO   O22 1571   8.017   5.549   2.794
    4CHTO   C31 1572   8.053   5.501   2.929
    4CHTO   H59 1573   8.058   5.592   0.053
    4CHTO   C29 1574   7.950   5.405   0.052
    4CHTO   H57 1575   7.952   5.311   2.936
    4CHTO   O21 1576   7.818   5.461   0.038
    4CHTO   H37 1577   7.810   5.539   0.088
    4CHTO   C27 1578   7.988   5.375   0.203
    4CHTO   H55 1579   7.981   5.469   0.259
    4CHTO    N5 1580   7.897   5.276   0.266
    4CHTO   H43 1581   7.921   5.265   0.371
    4CHTO   H44 1582   7.905   5.180   0.216
    4CHTO   C25 1583   8.137   5.327   0.213
    4CHTO   H53 1584   8.146   5.225   0.173
    4CHTO   O17 1585   8.228   5.412   0.136
    4CHTO   C32 1586   8.194   5.434   2.939
    4CHTO   H60 1587   8.191   5.338   2.886
    4CHTO   C36 1588   8.305   5.521   2.876
    4CHTO   O25 1589   8.431   5.452   2.873
    4CHTO   H40 1590   8.464   5.442   0.019
    4CHTO   O15 1591   8.188   5.329   0.368
    4CHTO   C19 1592   8.200   5.437   0.466
    4CHTO   H47 1593   8.282   5.405   0.530
    4CHTO   C20 1594   8.238   5.575   0.404
    4CHTO   H48 1595   8.167   5.606   0.326
    4CHTO   O19 1596   8.366   5.558   0.340
    4CHTO   H35 1597   8.433   5.538   0.403
    4CHTO   C21 1598   8.245   5.690   0.512
    4CHTO   H49 1599   8.328   5.669   0.580
    4CHTO    N4 1600   8.271   5.824   0.452
    4CHTO   H41 1601   8.366   5.823   0.399
    4CHTO   H42 1602   8.276   5.899   0.530
    4CHTO   C22 1603   8.115   5.688   0.596
    4CHTO   H50 1604   8.030   5.715   0.533
    4CHTO   O14 1605   8.094   5.558   0.654
    4CHTO   C23 1606   8.076   5.451   0.559
    4CHTO   H51 1607   7.984   5.472   0.502
    4CHTO   C34 1608   8.054   5.321   0.637
    4CHTO   O23 1609   7.934   5.325   0.716
    4CHTO   H38 1610   7.859   5.323   0.660
    4CHTO   O16 1611   8.125   5.776   0.710
    4CHTO   C24 1612   7.990   5.849   0.752
    4CHTO   H52 1613   7.902   5.793   0.721
    4CHTO   C26 1614   7.987   5.989   0.687
    4CHTO   H54 1615   8.086   6.038   0.705
    4CHTO   O20 1616   7.971   5.973   0.545
    4CHTO   H36 1617   7.979   6.056   0.502
    4CHTO   C30 1618   7.876   6.080   0.748
    4CHTO   H58 1619   7.777   6.040   0.721
    4CHTO    N6 1620   7.880   6.219   0.695
    4CHTO   H45 1621   7.788   6.243   0.645
    4CHTO   H46 1622   7.963   6.232   0.626
    4CHTO   C33 1623   7.884   6.075   0.904
    4CHTO   H61 1624   7.982   6.114   0.936
    4CHTO   O18 1625   7.874   5.938   0.945
    4CHTO   C28 1626   7.986   5.858   0.906
    4CHTO   H56 1627   8.079   5.901   0.942
    4CHTO   C35 1628   7.970   5.716   0.967
    4CHTO   O24 1629   7.954   5.718   1.109
    4CHTO   H39 1630   8.034   5.747   1.150
    4CHTO    O9 1631   7.785   6.157   0.970
    4CHTO   C13 1632   7.813   6.176   1.129
    4CHTO   H26 1633   7.853   6.079   1.168
    4CHTO   C11 1634   7.678   6.216   1.199
    4CHTO   H24 1635   7.611   6.129   1.193
    4CHTO    O8 1636   7.615   6.325   1.129
    4CHTO    H3 1637   7.592   6.299   1.041
    4CHTO    C9 1638   7.706   6.245   1.348
    4CHTO   H22 1639   7.755   6.154   1.387
    4CHTO    N2 1640   7.582   6.258   1.429
    4CHTO   H10 1641   7.608   6.266   1.534
    4CHTO   H11 1642   7.527   6.346   1.398
    4CHTO    C7 1643   7.807   6.365   1.360
    4CHTO   H20 1644   7.828   6.374   1.469
    4CHTO    O4 1645   7.931   6.335   1.292
    4CHTO   C14 1646   7.928   6.283   1.157
    4CHTO   H27 1647   8.025   6.230   1.144
    4CHTO   C18 1648   7.927   6.400   1.055
    4CHTO   O13 1649   8.053   6.468   1.054
    4CHTO    H7 1650   8.051   6.538   0.992
    4CHTO    O2 1651   7.746   6.508   1.302
    4CHTO    C1 1652   7.781   6.631   1.370
    4CHTO   H14 1653   7.752   6.714   1.304
    4CHTO    C2 1654   7.934   6.650   1.408
    4CHTO   H15 1655   7.961   6.566   1.474
    4CHTO    O6 1656   8.013   6.645   1.288
    4CHTO    H1 1657   7.990   6.716   1.231
    4CHTO    C3 1658   7.955   6.789   1.486
    4CHTO   H16 1659   7.933   6.871   1.416
    4CHTO    N1 1660   8.097   6.809   1.533
    4CHTO    H8 1661   8.159   6.725   1.504
    4CHTO    H9 1662   8.101   6.821   1.640
    4CHTO    C4 1663   7.850   6.803   1.603
    4CHTO   H17 1664   7.878   6.736   1.685
    4CHTO    O1 1665   7.716   6.776   1.559
    4CHTO    C5 1666   7.694   6.647   1.498
    4CHTO   H18 1667   7.725   6.570   1.568
    4CHTO   C16 1668   7.542   6.634   1.472
    4CHTO   O11 1669   7.490   6.739   1.390
    4CHTO    H5 1670   7.525   6.733   1.303
    4CHTO    O3 1671   7.843   6.940   1.649
    4CHTO    C6 1672   7.814   6.962   1.791
    4CHTO   H19 1673   7.792   6.869   1.845
    4CHTO    C8 1674   7.938   7.029   1.859
    4CHTO   H21 1675   7.969   7.114   1.797
    4CHTO    O7 1676   8.043   6.931   1.863
    4CHTO    H2 1677   8.074   6.913   1.777
    4CHTO   C12 1678   7.903   7.083   2.004
    4CHTO   H25 1679   7.886   6.993   2.067
    4CHTO    N3 1680   8.019   7.157   2.064
    4CHTO   H12 1681   8.049   7.111   2.157
    4CHTO   H13 1682   7.994   7.261   2.080
    4CHTO   C15 1683   7.770   7.166   1.999
    4CHTO   H28 1684   7.783   7.259   1.943
    4CHTO   O10 1685   7.714   7.200   2.140
    4CHTO    H4 1686   7.704   7.122   2.191
    4CHTO    O5 1687   7.664   7.088   1.942
    4CHTO   C10 1688   7.688   7.052   1.805
    4CHTO   H23 1689   7.703   7.144   1.747
    4CHTO   C17 1690   7.560   6.986   1.751
    4CHTO   O12 1691   7.531   6.861   1.816
    4CHTO    H6 1692   7.595   6.797   1.792
    5CHTO  H203 1693   7.974   3.663   0.683
    5CHTO   O82 1694   8.038   3.693   0.745
    5CHTO  C123 1695   8.012   3.638   0.875
    5CHTO  H227 1696   7.904   3.649   0.898
    5CHTO   O77 1697   8.046   3.497   0.859
    5CHTO  C118 1698   8.028   3.416   0.976
    5CHTO  H222 1699   7.923   3.422   1.008
    5CHTO  C125 1700   8.059   3.266   0.936
    5CHTO   O84 1701   8.192   3.249   0.887
    5CHTO  H205 1702   8.254   3.264   0.956
    5CHTO  C114 1703   8.120   3.466   1.090
    5CHTO  H218 1704   8.223   3.463   1.055
    5CHTO  C116 1705   8.091   3.617   1.120
    5CHTO  H220 1706   7.988   3.627   1.162
    5CHTO   O79 1707   8.182   3.662   1.222
    5CHTO  H201 1708   8.271   3.659   1.190
    5CHTO  C120 1709   8.101   3.703   0.988
    5CHTO  H224 1710   8.208   3.702   0.957
    5CHTO   N21 1711   8.064   3.846   1.010
    5CHTO  H211 1712   8.151   3.903   1.040
    5CHTO  H212 1713   7.986   3.853   1.085
    5CHTO   O75 1714   8.106   3.375   1.201
    5CHTO  C112 1715   7.964   3.385   1.289
    5CHTO  H216 1716   7.879   3.395   1.219
    5CHTO   O73 1717   7.974   3.497   1.377
    5CHTO  C113 1718   7.850   3.528   1.442
    5CHTO  H217 1719   7.771   3.543   1.365
    5CHTO  C124 1720   7.871   3.662   1.514
    5CHTO   O83 1721   7.748   3.719   1.561
    5CHTO  H204 1722   7.766   3.801   1.603
    5CHTO  C109 1723   7.809   3.412   1.538
    5CHTO  H213 1724   7.884   3.410   1.619
    5CHTO  C110 1725   7.811   3.275   1.461
    5CHTO  H214 1726   7.724   3.272   1.394
    5CHTO   O78 1727   7.792   3.166   1.553
    5CHTO  H200 1728   7.862   3.164   1.616
    5CHTO  C111 1729   7.941   3.257   1.377
    5CHTO  H215 1730   8.026   3.248   1.447
    5CHTO   N19 1731   7.943   3.134   1.294
    5CHTO  H207 1732   8.036   3.126   1.241
    5CHTO  H208 1733   7.861   3.136   1.223
    5CHTO   O74 1734   7.678   3.443   1.595
    5CHTO  C115 1735   7.642   3.373   1.731
    5CHTO  H219 1736   7.673   3.268   1.731
    5CHTO   O76 1737   7.719   3.437   1.853
    5CHTO  C122 1738   7.689   3.575   1.876
    5CHTO  H226 1739   7.744   3.632   1.800
    5CHTO  C126 1740   7.752   3.617   2.014
    5CHTO   O85 1741   7.697   3.544   2.124
    5CHTO  H206 1742   7.723   3.454   2.119
    5CHTO  C121 1743   7.534   3.610   1.871
    5CHTO  H225 1744   7.508   3.665   1.963
    5CHTO   O81 1745   7.510   3.700   1.763
    5CHTO  H202 1746   7.422   3.732   1.766
    5CHTO  C119 1747   7.446   3.481   1.865
    5CHTO  H223 1748   7.471   3.430   1.958
    5CHTO  C117 1749   7.485   3.382   1.748
    5CHTO  H221 1750   7.450   3.412   1.649
    5CHTO   N20 1751   7.422   3.247   1.771
    5CHTO  H209 1752   7.497   3.168   1.771
    5CHTO  H210 1753   7.347   3.227   1.697
    5CHTO   O80 1754   7.288   3.507   1.886
    5CHTO  C103 1755   7.199   3.593   1.776
    5CHTO  H190 1756   7.216   3.700   1.788
    5CHTO  C101 1757   7.210   3.557   1.621
    5CHTO  H188 1758   7.211   3.448   1.611
    5CHTO   O68 1759   7.342   3.612   1.565
    5CHTO  H168 1760   7.343   3.706   1.570
    5CHTO   C99 1761   7.086   3.614   1.538
    5CHTO  H186 1762   7.089   3.725   1.540
    5CHTO   N17 1763   7.086   3.574   1.392
    5CHTO  H174 1764   7.005   3.623   1.340
    5CHTO  H175 1765   7.079   3.467   1.383
    5CHTO   C97 1766   6.953   3.574   1.608
    5CHTO  H184 1767   6.946   3.464   1.606
    5CHTO   O64 1768   6.954   3.625   1.742
    5CHTO  C104 1769   7.053   3.563   1.826
    5CHTO  H191 1770   7.037   3.455   1.829
    5CHTO  C108 1771   7.033   3.612   1.970
    5CHTO   O71 1772   6.908   3.569   2.024
    5CHTO  H171 1773   6.909   3.476   2.037
    5CHTO   O62 1774   6.837   3.634   1.547
    5CHTO   C91 1775   6.713   3.560   1.558
    5CHTO  H178 1776   6.720   3.492   1.643
    5CHTO   C92 1777   6.691   3.471   1.431
    5CHTO  H179 1778   6.699   3.536   1.342
    5CHTO   O66 1779   6.800   3.378   1.421
    5CHTO  H166 1780   6.795   3.330   1.341
    5CHTO   C93 1781   6.552   3.395   1.433
    5CHTO  H180 1782   6.561   3.315   1.509
    5CHTO   N16 1783   6.525   3.326   1.305
    5CHTO  H172 1784   6.522   3.398   1.224
    5CHTO  H173 1785   6.600   3.251   1.286
    5CHTO   C94 1786   6.434   3.491   1.474
    5CHTO  H181 1787   6.408   3.561   1.394
    5CHTO   O61 1788   6.468   3.569   1.590
    5CHTO   C95 1789   6.587   3.650   1.578
    5CHTO  H182 1790   6.575   3.717   1.493
    5CHTO  C106 1791   6.604   3.738   1.706
    5CHTO   O69 1792   6.498   3.834   1.720
    5CHTO  H169 1793   6.417   3.790   1.739
    5CHTO   O63 1794   6.303   3.405   1.520
    5CHTO   C96 1795   6.194   3.376   1.407
    5CHTO  H183 1796   6.245   3.370   1.311
    5CHTO   C98 1797   6.081   3.482   1.393
    5CHTO  H185 1798   6.033   3.497   1.491
    5CHTO   O67 1799   6.142   3.607   1.359
    5CHTO  H167 1800   6.077   3.675   1.357
    5CHTO  C102 1801   5.972   3.440   1.282
    5CHTO  H189 1802   6.021   3.455   1.185
    5CHTO   N18 1803   5.850   3.525   1.280
    5CHTO  H176 1804   5.877   3.627   1.257
    5CHTO  H177 1805   5.800   3.520   1.375
    5CHTO  C105 1806   5.935   3.288   1.291
    5CHTO  H192 1807   5.857   3.274   1.367
    5CHTO   O65 1808   6.044   3.200   1.323
    5CHTO  C100 1809   6.126   3.238   1.434
    5CHTO  H187 1810   6.065   3.247   1.524
    5CHTO  C107 1811   6.229   3.125   1.460
    5CHTO   O70 1812   6.163   3.005   1.503
    5CHTO  H170 1813   6.128   3.016   1.589
    5CHTO   O57 1814   5.879   3.250   1.143
    5CHTO   C85 1815   5.778   3.150   1.123
    5CHTO  H157 1816   5.692   3.180   1.187
    5CHTO   C83 1817   5.824   3.010   1.176
    5CHTO  H155 1818   5.839   3.018   1.284
    5CHTO   O56 1819   5.952   2.978   1.119
    5CHTO  H135 1820   5.986   2.899   1.157
    5CHTO   C81 1821   5.713   2.905   1.148
    5CHTO  H153 1822   5.621   2.940   1.195
    5CHTO   N14 1823   5.739   2.774   1.213
    5CHTO  H141 1824   5.836   2.770   1.257
    5CHTO  H142 1825   5.729   2.693   1.143
    5CHTO   C79 1826   5.688   2.894   0.992
    5CHTO  H151 1827   5.604   2.826   0.978
    5CHTO   O52 1828   5.645   3.025   0.941
    5CHTO   C86 1829   5.735   3.136   0.971
    5CHTO  H158 1830   5.823   3.119   0.907
    5CHTO   C90 1831   5.672   3.269   0.922
    5CHTO   O60 1832   5.659   3.272   0.779
    5CHTO  H138 1833   5.594   3.210   0.753
    5CHTO   O50 1834   5.800   2.845   0.918
    5CHTO   C73 1835   5.821   2.788   0.787
    5CHTO  H145 1836   5.749   2.832   0.716
    5CHTO   C74 1837   5.801   2.633   0.787
    5CHTO  H146 1838   5.699   2.613   0.824
    5CHTO   O54 1839   5.805   2.587   0.651
    5CHTO  H133 1840   5.730   2.619   0.603
    5CHTO   C75 1841   5.911   2.567   0.879
    5CHTO  H147 1842   5.895   2.601   0.982
    5CHTO   N13 1843   5.903   2.419   0.885
    5CHTO  H139 1844   5.915   2.377   0.787
    5CHTO  H140 1845   5.807   2.388   0.925
    5CHTO   C76 1846   6.057   2.617   0.836
    5CHTO  H148 1847   6.081   2.574   0.738
    5CHTO   O49 1848   6.062   2.763   0.828
    5CHTO   C77 1849   5.965   2.819   0.738
    5CHTO  H149 1850   5.979   2.777   0.638
    5CHTO   C88 1851   5.993   2.969   0.723
    5CHTO   O58 1852   5.903   3.030   0.622
    5CHTO  H136 1853   5.923   3.122   0.614
    5CHTO   O51 1854   6.164   2.574   0.950
    5CHTO   C78 1855   6.308   2.643   0.943
    5CHTO  H150 1856   6.302   2.743   0.894
    5CHTO   C80 1857   6.407   2.554   0.865
    5CHTO  H152 1858   6.402   2.451   0.907
    5CHTO   O55 1859   6.360   2.551   0.729
    5CHTO  H134 1860   6.411   2.491   0.679
    5CHTO   C84 1861   6.555   2.608   0.874
    5CHTO  H156 1862   6.558   2.703   0.820
    5CHTO   N15 1863   6.653   2.516   0.806
    5CHTO  H143 1864   6.706   2.568   0.729
    5CHTO  H144 1865   6.724   2.476   0.876
    5CHTO   C87 1866   6.594   2.638   1.021
    5CHTO  H159 1867   6.605   2.544   1.077
    5CHTO   O53 1868   6.484   2.729   1.088
    5CHTO   C82 1869   6.355   2.666   1.087
    5CHTO  H154 1870   6.359   2.571   1.141
    5CHTO   C89 1871   6.253   2.755   1.161
    5CHTO   O59 1872   6.277   2.756   1.302
    5CHTO  H137 1873   6.214   2.810   1.345
    5CHTO   O45 1874   6.736   2.719   1.027
    5CHTO   C67 1875   6.784   2.746   1.159
    5CHTO  H124 1876   6.700   2.749   1.228
    5CHTO   C65 1877   6.884   2.635   1.207
    5CHTO  H122 1878   6.930   2.594   1.117
    5CHTO   O44 1879   6.803   2.533   1.269
    5CHTO  H102 1880   6.856   2.457   1.287
    5CHTO   C63 1881   7.006   2.693   1.291
    5CHTO  H120 1882   7.078   2.736   1.221
    5CHTO   N11 1883   7.091   2.592   1.362
    5CHTO  H108 1884   7.121   2.515   1.294
    5CHTO  H109 1885   7.178   2.639   1.403
    5CHTO   C61 1886   6.957   2.812   1.381
    5CHTO  H118 1887   7.047   2.854   1.429
    5CHTO   O40 1888   6.899   2.920   1.301
    5CHTO   C68 1889   6.850   2.889   1.166
    5CHTO  H125 1890   6.935   2.896   1.095
    5CHTO   C72 1891   6.749   2.999   1.126
    5CHTO   O48 1892   6.809   3.129   1.120
    5CHTO  H105 1893   6.744   3.192   1.096
    5CHTO   O38 1894   6.862   2.772   1.482
    5CHTO   C55 1895   6.822   2.874   1.576
    5CHTO  H112 1896   6.839   2.974   1.533
    5CHTO   C56 1897   6.897   2.855   1.714
    5CHTO  H113 1898   6.882   2.751   1.746
    5CHTO   O42 1899   7.039   2.872   1.694
    5CHTO  H100 1900   7.072   2.802   1.641
    5CHTO   C57 1901   6.843   2.956   1.824
    5CHTO  H114 1902   6.879   3.055   1.796
    5CHTO   N10 1903   6.896   2.929   1.960
    5CHTO  H106 1904   6.914   2.824   1.974
    5CHTO  H107 1905   6.828   2.964   2.037
    5CHTO   C58 1906   6.687   2.958   1.825
    5CHTO  H115 1907   6.649   2.863   1.869
    5CHTO   O37 1908   6.635   2.973   1.692
    5CHTO   C59 1909   6.670   2.866   1.603
    5CHTO  H116 1910   6.643   2.770   1.648
    5CHTO   C70 1911   6.588   2.882   1.475
    5CHTO   O46 1912   6.448   2.868   1.500
    5CHTO  H103 1913   6.400   2.880   1.421
    5CHTO   O39 1914   6.631   3.090   1.915
    5CHTO   C60 1915   6.496   3.132   1.887
    5CHTO  H117 1916   6.484   3.143   1.779
    5CHTO   C62 1917   6.391   3.029   1.937
    5CHTO  H119 1918   6.414   2.934   1.883
    5CHTO   O43 1919   6.408   3.007   2.078
    5CHTO  H101 1920   6.349   2.940   2.107
    5CHTO   C66 1921   6.244   3.078   1.896
    5CHTO  H123 1922   6.241   3.095   1.788
    5CHTO   N12 1923   6.140   2.976   1.924
    5CHTO  H110 1924   6.043   3.012   1.892
    5CHTO  H111 1925   6.140   2.952   2.029
    5CHTO   C69 1926   6.215   3.215   1.964
    5CHTO  H126 1927   6.217   3.203   2.075
    5CHTO   O41 1928   6.325   3.317   1.920
    5CHTO   C64 1929   6.469   3.273   1.950
    5CHTO  H121 1930   6.486   3.268   2.060
    5CHTO   C71 1931   6.562   3.382   1.891
    5CHTO   O47 1932   6.700   3.364   1.927
    5CHTO  H104 1933   6.734   3.286   1.886
    5CHTO   O34 1934   6.070   3.273   1.922
    5CHTO   C49 1935   5.991   3.407   1.935
    5CHTO   H91 1936   5.888   3.378   1.956
    5CHTO   C47 1937   5.995   3.484   1.801
    5CHTO   H89 1938   5.931   3.425   1.733
    5CHTO   O33 1939   6.128   3.487   1.747
    5CHTO   H70 1940   6.186   3.533   1.804
    5CHTO   C45 1941   5.942   3.637   1.815
    5CHTO   H87 1942   6.030   3.703   1.813
    5CHTO    N8 1943   5.856   3.674   1.700
    5CHTO   H75 1944   5.764   3.616   1.702
    5CHTO   H76 1945   5.908   3.657   1.607
    5CHTO   C43 1946   5.876   3.665   1.958
    5CHTO   H85 1947   5.853   3.771   1.962
    5CHTO   O29 1948   5.971   3.628   2.061
    5CHTO   C50 1949   6.040   3.501   2.049
    5CHTO   H92 1950   6.147   3.520   2.034
    5CHTO   C54 1951   6.033   3.429   2.185
    5CHTO   O36 1952   6.094   3.505   2.290
    5CHTO   H72 1953   6.089   3.457   2.370
    5CHTO   O27 1954   5.752   3.595   1.978
    5CHTO   C37 1955   5.628   3.586   2.050
    5CHTO   H79 1956   5.573   3.682   2.044
    5CHTO   C38 1957   5.537   3.476   1.987
    5CHTO   H80 1958   5.597   3.384   1.975
    5CHTO   O31 1959   5.497   3.523   1.856
    5CHTO   H68 1960   5.571   3.523   1.798
    5CHTO   C39 1961   5.410   3.445   2.076
    5CHTO   H81 1962   5.348   3.534   2.077
    5CHTO    N7 1963   5.325   3.332   2.024
    5CHTO   H73 1964   5.225   3.367   2.003
    5CHTO   H74 1965   5.369   3.288   1.935
    5CHTO   C40 1966   5.456   3.418   2.225
    5CHTO   H82 1967   5.515   3.327   2.229
    5CHTO   O26 1968   5.529   3.532   2.271
    5CHTO   C41 1969   5.655   3.554   2.200
    5CHTO   H83 1970   5.717   3.463   2.207
    5CHTO   C52 1971   5.728   3.669   2.273
    5CHTO   O35 1972   5.774   3.628   2.408
    5CHTO   H71 1973   5.700   3.612   2.463
    5CHTO   O28 1974   5.345   3.405   2.317
    5CHTO   C42 1975   5.362   3.365   2.457
    5CHTO   H84 1976   5.259   3.354   2.493
    5CHTO   C44 1977   5.430   3.470   2.551
    5CHTO   H86 1978   5.532   3.487   2.515
    5CHTO   O32 1979   5.356   3.592   2.538
    5CHTO   H69 1980   5.269   3.582   2.571
    5CHTO   C48 1981   5.440   3.420   2.701
    5CHTO   H90 1982   5.339   3.414   2.741
    5CHTO    N9 1983   5.512   3.518   2.789
    5CHTO   H77 1984   5.614   3.532   2.754
    5CHTO   H78 1985   5.512   3.484   2.891
    5CHTO   C51 1986   5.505   3.276   2.705
    5CHTO   H93 1987   5.608   3.285   2.671
    5CHTO   O30 1988   5.428   3.188   2.622
    5CHTO   C46 1989   5.431   3.226   2.475
    5CHTO   H88 1990   5.535   3.233   2.443
    5CHTO   C53 1991   5.358   3.115   2.396
    5CHTO   O72 1992   5.429   2.990   2.406
    5CHTO  H199 1993   5.510   2.996   2.359
    5CHTO   O22 1994   5.501   3.219   2.838
    5CHTO   C31 1995   5.562   3.089   2.876
    5CHTO   H59 1996   5.564   3.089   0.046
    5CHTO   C29 1997   5.477   2.967   2.832
    5CHTO   H57 1998   5.461   2.974   2.724
    5CHTO   O21 1999   5.347   2.979   2.893
    5CHTO   H37 2000   5.353   2.966   0.045
    5CHTO   C27 2001   5.547   2.828   2.864
    5CHTO   H55 2002   5.555   2.817   0.032
    5CHTO    N5 2003   5.472   2.711   2.810
    5CHTO   H43 2004   5.384   2.743   2.756
    5CHTO   H44 2005   5.445   2.644   2.890
    5CHTO   C25 2006   5.692   2.833   2.806
    5CHTO   H53 2007   5.687   2.848   2.697
    5CHTO   O17 2008   5.763   2.945   2.866
    5CHTO   C32 2009   5.712   3.075   2.831
    5CHTO   H60 2010   5.718   3.089   2.723
    5CHTO   C36 2011   5.806   3.175   2.903
    5CHTO   O25 2012   5.780   3.312   2.868
    5CHTO   H40 2013   5.801   3.326   2.778
    5CHTO   O15 2014   5.775   2.702   2.837
    5CHTO   C19 2015   5.916   2.669   2.849
    5CHTO   H47 2016   5.958   2.755   2.904
    5CHTO   C20 2017   5.942   2.540   2.932
    5CHTO   H48 2018   5.893   2.453   2.887
    5CHTO   O19 2019   5.883   2.562   0.120
    5CHTO   H35 2020   5.887   2.483   0.171
    5CHTO   C21 2021   6.096   2.510   0.004
    5CHTO   H49 2022   6.141   2.588   0.065
    5CHTO    N4 2023   6.125   2.381   0.073
    5CHTO   H41 2024   6.080   2.299   0.019
    5CHTO   H42 2025   6.084   2.383   0.173
    5CHTO   C22 2026   6.166   2.518   2.807
    5CHTO   H50 2027   6.139   2.431   2.746
    5CHTO   O14 2028   6.132   2.639   2.737
    5CHTO   C23 2029   5.993   2.661   2.713
    5CHTO   H51 2030   5.956   2.578   2.651
    5CHTO   C34 2031   5.981   2.790   2.630
    5CHTO   O23 2032   6.035   2.904   2.697
    5CHTO   H38 2033   6.025   2.980   2.642
    5CHTO   O16 2034   6.309   2.531   2.822
    5CHTO   C24 2035   6.401   2.431   2.740
    5CHTO   H52 2036   6.347   2.342   2.707
    5CHTO   C26 2037   6.518   2.390   2.833
    5CHTO   H54 2038   6.556   2.482   2.883
    5CHTO   O20 2039   6.465   2.304   2.935
    5CHTO   H36 2040   6.409   2.352   0.052
    5CHTO   C30 2041   6.637   2.324   2.756
    5CHTO   H58 2042   6.607   2.226   2.717
    5CHTO    N6 2043   6.753   2.300   2.846
    5CHTO   H45 2044   6.788   2.394   2.888
    5CHTO   H46 2045   6.725   2.233   2.926
    5CHTO   C33 2046   6.674   2.412   2.632
    5CHTO   H61 2047   6.705   2.511   2.667
    5CHTO   O18 2048   6.557   2.427   2.550
    5CHTO   C28 2049   6.452   2.503   2.611
    5CHTO   H56 2050   6.487   2.602   2.637
    5CHTO   C35 2051   6.340   2.521   2.506
    5CHTO   O24 2052   6.284   2.398   2.459
    5CHTO   H39 2053   6.349   2.351   2.410
    5CHTO    O9 2054   6.785   2.361   2.556
    5CHTO   C13 2055   6.851   2.473   2.458
    5CHTO   H26 2056   6.802   2.571   2.479
    5CHTO   C11 2057   6.834   2.430   2.307
    5CHTO   H24 2058   6.726   2.426   2.285
    5CHTO    O8 2059   6.886   2.297   2.290
    5CHTO    H3 2060   6.870   2.266   2.202
    5CHTO    C9 2061   6.901   2.537   2.216
    5CHTO   H22 2062   6.842   2.629   2.232
    5CHTO    N2 2063   6.883   2.509   2.072
    5CHTO   H10 2064   6.916   2.594   2.013
    5CHTO   H11 2065   6.939   2.421   2.044
    5CHTO    C7 2066   7.050   2.567   2.265
    5CHTO   H20 2067   7.043   2.673   2.300
    5CHTO    O4 2068   7.089   2.484   2.375
    5CHTO   C14 2069   7.006   2.496   2.491
    5CHTO   H27 2070   7.018   2.600   2.529
    5CHTO   C18 2071   7.063   2.403   2.601
    5CHTO   O13 2072   7.071   2.266   2.560
    5CHTO    H7 2073   7.136   2.256   2.493
    5CHTO    O2 2074   7.168   2.558   2.150
    5CHTO    C1 2075   7.229   2.683   2.113
    5CHTO   H14 2076   7.157   2.767   2.131
    5CHTO    C2 2077   7.269   2.684   1.959
    5CHTO   H15 2078   7.333   2.596   1.944
    5CHTO    O6 2079   7.149   2.669   1.880
    5CHTO    H1 2080   7.092   2.742   1.894
    5CHTO    C3 2081   7.349   2.819   1.922
    5CHTO   H16 2082   7.282   2.905   1.933
    5CHTO    N1 2083   7.398   2.818   1.780
    5CHTO    H8 2084   7.466   2.735   1.765
    5CHTO    H9 2085   7.448   2.911   1.757
    5CHTO    C4 2086   7.466   2.842   2.025
    5CHTO   H17 2087   7.542   2.765   2.011
    5CHTO    O1 2088   7.415   2.837   2.160
    5CHTO    C5 2089   7.356   2.711   2.198
    5CHTO   H18 2090   7.427   2.631   2.179
    5CHTO   C16 2091   7.329   2.720   2.350
    5CHTO   O11 2092   7.451   2.730   2.425
    5CHTO    H5 2093   7.431   2.735   2.516
    5CHTO    O3 2094   7.523   2.974   2.015
    5CHTO    C6 2095   7.666   2.985   2.046
    5CHTO   H19 2096   7.710   2.890   2.079
    5CHTO    C8 2097   7.744   3.032   1.920
    5CHTO   H21 2098   7.697   3.124   1.884
    5CHTO    O7 2099   7.731   2.929   1.821
    5CHTO    H2 2100   7.770   2.957   1.740
    5CHTO   C12 2101   7.895   3.062   1.955
    5CHTO   H25 2102   7.941   2.965   1.982
    5CHTO    N3 2103   7.972   3.114   1.837
    5CHTO   H12 2104   7.927   3.206   1.801
    5CHTO   H13 2105   7.974   3.040   1.759
    5CHTO   C15 2106   7.903   3.158   2.080
    5CHTO   H28 2107   7.870   3.259   2.056
    5CHTO   O10 2108   8.044   3.162   2.141
    5CHTO    H4 2109   8.104   3.201   2.081
    5CHTO    O5 2110   7.827   3.105   2.190
    5CHTO   C10 2111   7.688   3.086   2.163
    5CHTO   H23 2112   7.644   3.183   2.136
    5CHTO   C17 2113   7.621   3.042   2.294
    5CHTO   O12 2114   7.676   2.919   2.344
    5CHTO    H6 2115   7.632   2.896   2.424
    6CHTO  H203 2116   7.240   4.845   2.799
    6CHTO   O82 2117   7.165   4.806   2.758
    6CHTO  C123 2118   7.057   4.902   2.755
    6CHTO  H227 2119   7.091   4.991   2.699
    6CHTO   O77 2120   6.953   4.832   2.681
    6CHTO  C118 2121   6.838   4.913   2.651
    6CHTO  H222 2122   6.871   5.002   2.595
    6CHTO  C125 2123   6.741   4.829   2.560
    6CHTO   O84 2124   6.697   4.708   2.623
    6CHTO  H205 2125   6.769   4.648   2.632
    6CHTO  C114 2126   6.769   4.958   2.782
    6CHTO  H218 2127   6.729   4.870   2.832
    6CHTO  C116 2128   6.870   5.028   2.879
    6CHTO  H220 2129   6.897   5.128   2.838
    6CHTO   O79 2130   6.804   5.052   0.064
    6CHTO  H201 2131   6.736   5.115   0.053
    6CHTO  C120 2132   7.002   4.941   2.897
    6CHTO  H224 2133   6.972   4.849   0.011
    6CHTO   N21 2134   7.105   5.009   0.039
    6CHTO  H211 2135   7.168   5.072   2.918
    6CHTO  H212 2136   7.058   5.068   0.117
    6CHTO   O75 2137   6.663   5.043   2.737
    6CHTO  C112 2138   6.524   5.037   2.824
    6CHTO  H216 2139   6.548   5.044   2.931
    6CHTO   O73 2140   6.458   4.913   2.792
    6CHTO  C113 2141   6.330   4.892   2.854
    6CHTO  H217 2142   6.343   4.890   0.023
    6CHTO  C124 2143   6.284   4.752   2.810
    6CHTO   O83 2144   6.165   4.705   2.874
    6CHTO  H204 2145   6.182   4.690   0.024
    6CHTO  C109 2146   6.230   5.004   2.811
    6CHTO  H213 2147   6.221   4.998   2.702
    6CHTO  C110 2148   6.291   5.143   2.848
    6CHTO  H214 2149   6.299   5.151   0.015
    6CHTO   O78 2150   6.200   5.244   2.801
    6CHTO  H200 2151   6.229   5.329   2.829
    6CHTO  C111 2152   6.432   5.158   2.783
    6CHTO  H215 2153   6.420   5.155   2.673
    6CHTO   N19 2154   6.499   5.288   2.814
    6CHTO  H207 2155   6.594   5.293   2.764
    6CHTO  H208 2156   6.513   5.297   2.921
    6CHTO   O74 2157   6.096   4.987   2.869
    6CHTO  C115 2158   6.076   4.987   0.092
    6CHTO  H219 2159   6.157   4.935   0.143
    6CHTO   O76 2160   6.079   5.133   0.150
    6CHTO  C122 2161   5.972   5.213   0.100
    6CHTO  H226 2162   5.982   5.218   2.933
    6CHTO  C126 2163   5.992   5.359   0.152
    6CHTO   O85 2164   5.898   5.451   0.094
    6CHTO  H206 2165   5.812   5.433   0.126
    6CHTO  C121 2166   5.830   5.153   0.139
    6CHTO  H225 2167   5.782   5.221   0.213
    6CHTO   O81 2168   5.747   5.151   0.022
    6CHTO  H202 2169   5.658   5.131   0.045
    6CHTO  C119 2170   5.839   5.010   0.202
    6CHTO  H223 2171   5.881   5.025   0.301
    6CHTO  C117 2172   5.937   4.916   0.122
    6CHTO  H221 2173   5.899   4.886   0.024
    6CHTO   N20 2174   5.957   4.786   0.195
    6CHTO  H209 2175   5.862   4.739   0.212
    6CHTO  H210 2176   6.020   4.721   0.137
    6CHTO   O80 2177   5.694   4.949   0.237
    6CHTO  C103 2178   5.640   4.952   0.386
    6CHTO  H190 2179   5.714   4.913   0.455
    6CHTO  C101 2180   5.588   5.092   0.440
    6CHTO  H188 2181   5.525   5.138   0.364
    6CHTO   O68 2182   5.710   5.184   0.464
    6CHTO  H168 2183   5.681   5.270   0.488
    6CHTO   C99 2184   5.501   5.073   0.574
    6CHTO  H186 2185   5.566   5.030   0.654
    6CHTO   N17 2186   5.442   5.200   0.628
    6CHTO  H174 2187   5.521   5.271   0.649
    6CHTO  H175 2188   5.372   5.241   0.557
    6CHTO   C97 2189   5.391   4.967   0.548
    6CHTO  H184 2190   5.322   5.007   0.472
    6CHTO   O64 2191   5.451   4.843   0.507
    6CHTO  C104 2192   5.520   4.849   0.382
    6CHTO  H191 2193   5.451   4.877   0.302
    6CHTO  C108 2194   5.570   4.708   0.346
    6CHTO   O71 2195   5.657   4.653   0.446
    6CHTO  H171 2196   5.738   4.700   0.447
    6CHTO   O62 2197   5.319   4.926   0.667
    6CHTO   C91 2198   5.176   4.909   0.661
    6CHTO  H178 2199   5.133   5.007   0.679
    6CHTO   C92 2200   5.133   4.818   0.782
    6CHTO  H179 2201   5.175   4.860   0.875
    6CHTO   O66 2202   4.990   4.827   0.800
    6CHTO  H166 2203   4.945   4.797   0.723
    6CHTO   C93 2204   5.171   4.666   0.763
    6CHTO  H180 2205   5.094   4.604   0.811
    6CHTO   N16 2206   5.298   4.629   0.829
    6CHTO  H172 2207   5.319   4.524   0.814
    6CHTO  H173 2208   5.292   4.651   0.935
    6CHTO   C94 2209   5.176   4.630   0.609
    6CHTO  H181 2210   5.272   4.654   0.564
    6CHTO   O61 2211   5.077   4.707   0.540
    6CHTO   C95 2212   5.113   4.846   0.526
    6CHTO  H182 2213   5.184   4.855   0.444
    6CHTO  C106 2214   4.986   4.926   0.481
    6CHTO   O69 2215   4.939   4.881   0.354
    6CHTO  H169 2216   4.863   4.930   0.330
    6CHTO   O63 2217   5.142   4.479   0.584
    6CHTO   C96 2218   5.249   4.411   0.485
    6CHTO  H183 2219   5.349   4.440   0.517
    6CHTO   C98 2220   5.235   4.447   0.334
    6CHTO  H185 2221   5.137   4.411   0.297
    6CHTO   O67 2222   5.233   4.589   0.315
    6CHTO  H167 2223   5.313   4.627   0.346
    6CHTO  C102 2224   5.354   4.382   0.247
    6CHTO  H189 2225   5.439   4.451   0.259
    6CHTO   N18 2226   5.329   4.377   0.101
    6CHTO  H176 2227   5.311   4.477   0.063
    6CHTO  H177 2228   5.414   4.334   0.050
    6CHTO  C105 2229   5.397   4.245   0.307
    6CHTO  H192 2230   5.420   4.175   0.226
    6CHTO   O65 2231   5.296   4.180   0.388
    6CHTO  C100 2232   5.237   4.253   0.498
    6CHTO  H187 2233   5.130   4.228   0.498
    6CHTO  C107 2234   5.296   4.200   0.630
    6CHTO   O70 2235   5.229   4.252   0.745
    6CHTO  H170 2236   5.246   4.344   0.753
    6CHTO   O57 2237   5.534   4.278   0.388
    6CHTO   C85 2238   5.643   4.185   0.377
    6CHTO  H157 2239   5.629   4.130   0.281
    6CHTO   C83 2240   5.631   4.077   0.489
    6CHTO  H155 2241   5.534   4.028   0.479
    6CHTO   O56 2242   5.631   4.140   0.619
    6CHTO  H135 2243   5.714   4.182   0.635
    6CHTO   C81 2244   5.743   3.971   0.469
    6CHTO  H153 2245   5.732   3.928   0.369
    6CHTO   N14 2246   5.729   3.854   0.559
    6CHTO  H141 2247   5.632   3.810   0.548
    6CHTO  H142 2248   5.742   3.884   0.661
    6CHTO   C79 2249   5.885   4.039   0.476
    6CHTO  H151 2250   5.959   3.964   0.446
    6CHTO   O52 2251   5.895   4.149   0.379
    6CHTO   C86 2252   5.787   4.248   0.387
    6CHTO  H158 2253   5.801   4.297   0.485
    6CHTO   C90 2254   5.807   4.359   0.281
    6CHTO   O60 2255   5.930   4.429   0.302
    6CHTO  H138 2256   5.925   4.480   0.381
    6CHTO   O50 2257   5.922   4.087   0.607
    6CHTO   C73 2258   6.016   4.103   0.715
    6CHTO  H145 2259   6.034   4.007   0.764
    6CHTO   C74 2260   5.958   4.202   0.821
    6CHTO  H146 2261   5.862   4.160   0.856
    6CHTO   O54 2262   6.045   4.203   0.935
    6CHTO  H133 2263   6.130   4.237   0.912
    6CHTO   C75 2264   5.939   4.345   0.755
    6CHTO  H147 2265   5.864   4.336   0.675
    6CHTO   N13 2266   5.885   4.447   0.847
    6CHTO  H139 2267   5.788   4.416   0.884
    6CHTO  H140 2268   5.872   4.541   0.794
    6CHTO   C76 2269   6.076   4.392   0.686
    6CHTO  H148 2270   6.148   4.416   0.764
    6CHTO   O49 2271   6.131   4.287   0.598
    6CHTO   C77 2272   6.151   4.161   0.663
    6CHTO  H149 2273   6.219   4.173   0.747
    6CHTO   C88 2274   6.224   4.067   0.565
    6CHTO   O58 2275   6.257   3.935   0.630
    6CHTO  H136 2276   6.178   3.888   0.649
    6CHTO   O51 2277   6.050   4.512   0.584
    6CHTO   C78 2278   6.123   4.649   0.620
    6CHTO  H150 2279   6.154   4.652   0.727
    6CHTO   C80 2280   6.025   4.765   0.593
    6CHTO  H152 2281   5.981   4.751   0.491
    6CHTO   O55 2282   5.918   4.754   0.688
    6CHTO  H134 2283   5.865   4.679   0.670
    6CHTO   C84 2284   6.095   4.907   0.600
    6CHTO  H156 2285   6.127   4.922   0.703
    6CHTO   N15 2286   6.002   5.019   0.565
    6CHTO  H143 2287   5.919   5.020   0.633
    6CHTO  H144 2288   6.053   5.113   0.573
    6CHTO   C87 2289   6.220   4.906   0.509
    6CHTO  H159 2290   6.192   4.891   0.404
    6CHTO   O53 2291   6.310   4.791   0.557
    6CHTO   C82 2292   6.251   4.663   0.535
    6CHTO  H154 2293   6.229   4.649   0.429
    6CHTO   C89 2294   6.356   4.555   0.572
    6CHTO   O59 2295   6.476   4.568   0.494
    6CHTO  H137 2296   6.458   4.545   0.405
    6CHTO   O45 2297   6.303   5.049   0.520
    6CHTO   C67 2298   6.443   5.046   0.486
    6CHTO  H124 2299   6.479   4.943   0.481
    6CHTO   C65 2300   6.471   5.117   0.349
    6CHTO  H122 2301   6.375   5.156   0.314
    6CHTO   O44 2302   6.516   5.018   0.255
    6CHTO  H102 2303   6.449   4.955   0.239
    6CHTO   C63 2304   6.563   5.244   0.365
    6CHTO  H120 2305   6.508   5.318   0.423
    6CHTO   N11 2306   6.591   5.322   0.240
    6CHTO  H108 2307   6.640   5.414   0.265
    6CHTO  H109 2308   6.500   5.343   0.189
    6CHTO   C61 2309   6.691   5.208   0.449
    6CHTO  H118 2310   6.735   5.304   0.480
    6CHTO   O40 2311   6.662   5.133   0.570
    6CHTO   C68 2312   6.523   5.112   0.605
    6CHTO  H125 2313   6.478   5.209   0.631
    6CHTO   C72 2314   6.520   5.026   0.734
    6CHTO   O48 2315   6.390   5.018   0.793
    6CHTO  H105 2316   6.394   4.964   0.870
    6CHTO   O38 2317   6.790   5.130   0.377
    6CHTO   C55 2318   6.922   5.133   0.435
    6CHTO  H112 2319   6.917   5.169   0.539
    6CHTO   C56 2320   7.020   5.222   0.348
    6CHTO  H113 2321   7.014   5.184   0.245
    6CHTO   O42 2322   6.970   5.357   0.345
    6CHTO  H100 2323   7.022   5.409   0.287
    6CHTO   C57 2324   7.168   5.215   0.404
    6CHTO  H114 2325   7.167   5.267   0.500
    6CHTO   N10 2326   7.266   5.284   0.317
    6CHTO  H106 2327   7.273   5.388   0.345
    6CHTO  H107 2328   7.364   5.239   0.325
    6CHTO   C58 2329   7.210   5.067   0.429
    6CHTO  H115 2330   7.226   5.016   0.331
    6CHTO   O37 2331   7.112   4.996   0.505
    6CHTO   C59 2332   6.981   4.989   0.447
    6CHTO  H116 2333   6.986   4.941   0.349
    6CHTO   C70 2334   6.892   4.904   0.538
    6CHTO   O46 2335   6.945   4.774   0.561
    6CHTO  H103 2336   6.886   4.726   0.617
    6CHTO   O39 2337   7.344   5.063   0.519
    6CHTO   C60 2338   7.440   4.960   0.487
    6CHTO  H117 2339   7.387   4.871   0.454
    6CHTO   C62 2340   7.538   5.003   0.374
    6CHTO  H119 2341   7.476   5.012   0.282
    6CHTO   O43 2342   7.592   5.133   0.406
    6CHTO  H101 2343   7.646   5.163   0.335
    6CHTO   C66 2344   7.651   4.891   0.353
    6CHTO  H123 2345   7.602   4.795   0.335
    6CHTO   N12 2346   7.734   4.917   0.233
    6CHTO  H110 2347   7.807   4.838   0.221
    6CHTO  H111 2348   7.783   5.013   0.242
    6CHTO   C69 2349   7.733   4.878   0.485
    6CHTO  H126 2350   7.772   4.978   0.515
    6CHTO   O41 2351   7.635   4.825   0.593
    6CHTO   C64 2352   7.515   4.921   0.618
    6CHTO  H121 2353   7.553   5.014   0.666
    6CHTO   C71 2354   7.417   4.855   0.719
    6CHTO   O47 2355   7.372   4.726   0.674
    6CHTO  H104 2356   7.314   4.690   0.738
    6CHTO   O34 2357   7.860   4.776   0.475
    6CHTO   C49 2358   8.009   4.793   0.419
    6CHTO   H91 2359   8.005   4.766   0.314
    6CHTO   C47 2360   8.104   4.698   0.495
    6CHTO   H89 2361   8.202   4.706   0.444
    6CHTO   O33 2362   8.055   4.564   0.479
    6CHTO   H70 2363   8.063   4.536   0.390
    6CHTO   C45 2364   8.117   4.746   0.648
    6CHTO   H87 2365   8.016   4.744   0.692
    6CHTO    N8 2366   8.203   4.654   0.727
    6CHTO   H75 2367   8.202   4.684   0.831
    6CHTO   H76 2368   8.166   4.553   0.719
    6CHTO   C43 2369   8.164   4.900   0.658
    6CHTO   H85 2370   8.147   4.928   0.762
    6CHTO   O29 2371   8.089   4.983   0.567
    6CHTO   C50 2372   8.061   4.939   0.433
    6CHTO   H92 2373   7.984   5.006   0.393
    6CHTO   C54 2374   8.183   4.968   0.340
    6CHTO   O36 2375   8.155   4.940   0.202
    6CHTO   H72 2376   8.091   5.001   0.169
    6CHTO   O27 2377   8.306   4.919   0.636
    6CHTO   C37 2378   8.417   5.003   0.672
    6CHTO   H79 2379   8.509   4.943   0.672
    6CHTO   C38 2380   8.438   5.116   0.566
    6CHTO   H80 2381   8.341   5.164   0.547
    6CHTO   O31 2382   8.483   5.051   0.446
    6CHTO   H68 2383   8.489   5.113   0.376
    6CHTO   C39 2384   8.542   5.225   0.616
    6CHTO   H81 2385   8.638   5.175   0.628
    6CHTO    N7 2386   8.562   5.336   0.517
    6CHTO   H73 2387   8.634   5.407   0.555
    6CHTO   H74 2388   8.597   5.296   0.423
    6CHTO   C40 2389   8.496   5.277   0.757
    6CHTO   H82 2390   8.396   5.319   0.747
    6CHTO   O26 2391   8.497   5.164   0.847
    6CHTO   C41 2392   8.397   5.063   0.815
    6CHTO   H83 2393   8.296   5.107   0.823
    6CHTO   C52 2394   8.410   4.952   0.922
    6CHTO   O35 2395   8.396   5.002   1.059
    6CHTO   H71 2396   8.468   5.059   1.079
    6CHTO   O28 2397   8.582   5.378   0.812
    6CHTO   C42 2398   8.569   5.445   0.943
    6CHTO   H84 2399   8.620   5.540   0.927
    6CHTO   C44 2400   8.643   5.375   1.061
    6CHTO   H86 2401   8.594   5.280   1.082
    6CHTO   O32 2402   8.778   5.350   1.017
    6CHTO   H69 2403   8.779   5.285   0.950
    6CHTO   C48 2404   8.638   5.464   1.192
    6CHTO   H90 2405   8.693   5.556   1.172
    6CHTO    N9 2406   8.708   5.400   1.309
    6CHTO   H77 2407   8.703   5.465   1.395
    6CHTO   H78 2408   8.811   5.380   1.283
    6CHTO   C51 2409   8.489   5.502   1.227
    6CHTO   H93 2410   8.437   5.412   1.259
    6CHTO   O30 2411   8.427   5.563   1.114
    6CHTO   C46 2412   8.423   5.478   0.987
    6CHTO   H88 2413   8.370   5.386   1.009
    6CHTO   C53 2414   8.344   5.560   0.883
    6CHTO   O72 2415   8.399   5.691   0.861
    6CHTO  H199 2416   8.348   5.736   0.797
    6CHTO   O22 2417   8.482   5.604   1.329
    6CHTO   C31 2418   8.370   5.620   1.424
    6CHTO   H59 2419   8.368   5.728   1.451
    6CHTO   C29 2420   8.229   5.585   1.370
    6CHTO   H57 2421   8.232   5.481   1.334
    6CHTO   O21 2422   8.204   5.669   1.256
    6CHTO   H37 2423   8.262   5.647   1.185
    6CHTO   C27 2424   8.116   5.599   1.479
    6CHTO   H55 2425   8.107   5.705   1.506
    6CHTO    N5 2426   7.983   5.552   1.431
    6CHTO   H43 2427   7.942   5.476   1.496
    6CHTO   H44 2428   7.989   5.515   1.330
    6CHTO   C25 2429   8.160   5.525   1.611
    6CHTO   H53 2430   8.164   5.416   1.591
    6CHTO   O17 2431   8.292   5.569   1.653
    6CHTO   C32 2432   8.396   5.544   1.558
    6CHTO   H60 2433   8.402   5.437   1.537
    6CHTO   C36 2434   8.531   5.587   1.623
    6CHTO   O25 2435   8.534   5.726   1.657
    6CHTO   H40 2436   8.534   5.778   1.579
    6CHTO   O15 2437   8.058   5.553   1.732
    6CHTO   C19 2438   8.000   5.665   1.805
    6CHTO   H47 2439   7.995   5.629   1.908
    6CHTO   C20 2440   8.086   5.796   1.802
    6CHTO   H48 2441   8.108   5.828   1.699
    6CHTO   O19 2442   8.211   5.765   1.866
    6CHTO   H35 2443   8.199   5.743   1.956
    6CHTO   C21 2444   8.013   5.917   1.876
    6CHTO   H49 2445   8.007   5.894   1.982
    6CHTO    N4 2446   8.088   6.045   1.864
    6CHTO   H41 2447   8.114   6.082   1.962
    6CHTO   H42 2448   8.177   6.033   1.805
    6CHTO   C22 2449   7.867   5.928   1.824
    6CHTO   H50 2450   7.870   5.956   1.718
    6CHTO   O14 2451   7.799   5.803   1.841
    6CHTO   C23 2452   7.853   5.695   1.762
    6CHTO   H51 2453   7.846   5.725   1.657
    6CHTO   C34 2454   7.762   5.573   1.780
    6CHTO   O23 2455   7.752   5.529   1.916
    6CHTO   H38 2456   7.696   5.455   1.921
    6CHTO   O16 2457   7.788   6.021   1.901
    6CHTO   C24 2458   7.695   6.123   1.813
    6CHTO   H52 2459   7.713   6.112   1.705
    6CHTO   C26 2460   7.726   6.267   1.856
    6CHTO   H54 2461   7.714   6.274   1.967
    6CHTO   O20 2462   7.863   6.295   1.824
    6CHTO   H36 2463   7.888   6.378   1.859
    6CHTO   C30 2464   7.628   6.370   1.790
    6CHTO   H58 2465   7.651   6.377   1.683
    6CHTO    N6 2466   7.648   6.508   1.845
    6CHTO   H45 2467   7.726   6.510   1.920
    6CHTO   H46 2468   7.674   6.576   1.766
    6CHTO   C33 2469   7.480   6.324   1.802
    6CHTO   H61 2470   7.447   6.332   1.907
    6CHTO   O18 2471   7.467   6.187   1.761
    6CHTO   C28 2472   7.544   6.092   1.836
    6CHTO   H56 2473   7.522   6.100   1.942
    6CHTO   C35 2474   7.506   5.949   1.789
    6CHTO   O24 2475   7.532   5.926   1.650
    6CHTO   H39 2476   7.508   5.838   1.628
    6CHTO    O9 2477   7.390   6.410   1.727
    6CHTO   C13 2478   7.269   6.480   1.814
    6CHTO   H26 2479   7.316   6.542   1.892
    6CHTO   C11 2480   7.173   6.370   1.876
    6CHTO   H24 2481   7.230   6.314   1.952
    6CHTO    O8 2482   7.134   6.274   1.775
    6CHTO    H3 2483   7.084   6.205   1.814
    6CHTO    C9 2484   7.056   6.442   1.947
    6CHTO   H22 2485   7.103   6.512   2.018
    6CHTO    N2 2486   6.969   6.355   2.030
    6CHTO   H10 2487   6.981   6.378   2.134
    6CHTO   H11 2488   6.990   6.250   2.011
    6CHTO    C7 2489   6.976   6.527   1.841
    6CHTO   H20 2490   6.899   6.581   1.901
    6CHTO    O4 2491   7.062   6.624   1.777
    6CHTO   C14 2492   7.189   6.582   1.721
    6CHTO   H27 2493   7.250   6.674   1.713
    6CHTO   C18 2494   7.169   6.529   1.576
    6CHTO   O13 2495   7.118   6.632   1.491
    6CHTO    H7 2496   7.107   6.597   1.404
    6CHTO    O2 2497   6.905   6.433   1.725
    6CHTO    C1 2498   6.770   6.459   1.682
    6CHTO   H14 2499   6.763   6.427   1.576
    6CHTO    C2 2500   6.717   6.608   1.691
    6CHTO   H15 2501   6.727   6.640   1.796
    6CHTO    O6 2502   6.801   6.690   1.608
    6CHTO    H1 2503   6.778   6.781   1.618
    6CHTO    C3 2504   6.563   6.617   1.645
    6CHTO   H16 2505   6.558   6.596   1.538
    6CHTO    N1 2506   6.505   6.753   1.667
    6CHTO    H8 2507   6.560   6.826   1.608
    6CHTO    H9 2508   6.510   6.779   1.771
    6CHTO    C4 2509   6.477   6.505   1.715
    6CHTO   H17 2510   6.464   6.530   1.820
    6CHTO    O1 2511   6.540   6.376   1.703
    6CHTO    C5 2512   6.672   6.366   1.760
    6CHTO   H18 2513   6.671   6.396   1.864
    6CHTO   C16 2514   6.717   6.217   1.751
    6CHTO   O11 2515   6.627   6.129   1.819
    6CHTO    H5 2516   6.545   6.126   1.773
    6CHTO    O3 2517   6.349   6.487   1.650
    6CHTO    C6 2518   6.236   6.454   1.740
    6CHTO   H19 2519   6.267   6.447   1.844
    6CHTO    C8 2520   6.124   6.563   1.732
    6CHTO   H21 2521   6.090   6.570   1.628
    6CHTO    O7 2522   6.183   6.688   1.771
    6CHTO    H2 2523   6.209   6.686   1.861
    6CHTO   C12 2524   6.002   6.521   1.824
    6CHTO   H25 2525   6.042   6.516   1.928
    6CHTO    N3 2526   5.892   6.623   1.824
    6CHTO   H12 2527   5.930   6.717   1.860
    6CHTO   H13 2528   5.811   6.589   1.887
    6CHTO   C15 2529   5.954   6.378   1.782
    6CHTO   H28 2530   5.910   6.378   1.682
    6CHTO   O10 2531   5.854   6.315   1.883
    6CHTO    H4 2532   5.819   6.235   1.849
    6CHTO    O5 2533   6.063   6.284   1.787
    6CHTO   C10 2534   6.174   6.316   1.702
    6CHTO   H23 2535   6.140   6.318   1.598
    6CHTO   C17 2536   6.274   6.200   1.713
    6CHTO   O12 2537   6.328   6.190   1.846
    6CHTO    H6 2538   6.389   6.119   1.850
    7CHTO  H203 2539   5.115   2.277   1.624
    7CHTO   O82 2540   5.183   2.217   1.604
    7CHTO  C123 2541   5.290   2.283   1.535
    7CHTO  H227 2542   5.248   2.346   1.455
    7CHTO   O77 2543   5.350   2.368   1.638
    7CHTO  C118 2544   5.458   2.451   1.592
    7CHTO  H222 2545   5.424   2.515   1.509
    7CHTO  C125 2546   5.502   2.542   1.712
    7CHTO   O84 2547   5.397   2.632   1.749
    7CHTO  H205 2548   5.327   2.584   1.789
    7CHTO  C114 2549   5.574   2.362   1.544
    7CHTO  H218 2550   5.607   2.299   1.627
    7CHTO  C116 2551   5.525   2.267   1.430
    7CHTO  H220 2552   5.499   2.328   1.341
    7CHTO   O79 2553   5.634   2.182   1.389
    7CHTO  H201 2554   5.661   2.126   1.460
    7CHTO  C120 2555   5.399   2.184   1.478
    7CHTO  H224 2556   5.434   2.116   1.558
    7CHTO   N21 2557   5.344   2.098   1.369
    7CHTO  H211 2558   5.359   2.144   1.272
    7CHTO  H212 2559   5.239   2.077   1.386
    7CHTO   O75 2560   5.679   2.452   1.505
    7CHTO  C112 2561   5.830   2.393   1.537
    7CHTO  H216 2562   5.828   2.283   1.524
    7CHTO   O73 2563   5.864   2.430   1.671
    7CHTO  C113 2564   5.989   2.376   1.715
    7CHTO  H217 2565   5.986   2.265   1.707
    7CHTO  C124 2566   6.008   2.409   1.864
    7CHTO   O83 2567   6.012   2.550   1.890
    7CHTO  H204 2568   6.024   2.565   1.982
    7CHTO  C109 2569   6.106   2.431   1.629
    7CHTO  H213 2570   6.111   2.539   1.648
    7CHTO  C110 2571   6.079   2.404   1.478
    7CHTO  H214 2572   6.088   2.297   1.459
    7CHTO   O78 2573   6.182   2.470   1.402
    7CHTO  H200 2574   6.174   2.448   1.311
    7CHTO  C111 2575   5.936   2.453   1.438
    7CHTO  H215 2576   5.933   2.563   1.447
    7CHTO   N19 2577   5.901   2.421   1.297
    7CHTO  H207 2578   5.973   2.466   1.230
    7CHTO  H208 2579   5.802   2.458   1.274
    7CHTO   O74 2580   6.232   2.369   1.673
    7CHTO  C115 2581   6.353   2.466   1.668
    7CHTO  H219 2582   6.339   2.545   1.595
    7CHTO   O76 2583   6.374   2.542   1.808
    7CHTO  C122 2584   6.412   2.455   1.916
    7CHTO  H226 2585   6.331   2.385   1.935
    7CHTO  C126 2586   6.422   2.544   2.045
    7CHTO   O85 2587   6.442   2.469   2.166
    7CHTO  H206 2588   6.365   2.419   2.184
    7CHTO  C121 2589   6.546   2.380   1.881
    7CHTO  H225 2590   6.626   2.456   1.862
    7CHTO   O81 2591   6.591   2.296   1.988
    7CHTO  H202 2592   6.611   2.348   2.064
    7CHTO  C119 2593   6.526   2.296   1.751
    7CHTO  H223 2594   6.623   2.253   1.727
    7CHTO  C117 2595   6.480   2.381   1.627
    7CHTO  H221 2596   6.446   2.323   1.541
    7CHTO   N20 2597   6.589   2.470   1.571
    7CHTO  H209 2598   6.678   2.463   1.632
    7CHTO  H210 2599   6.556   2.572   1.564
    7CHTO   O80 2600   6.440   2.167   1.774
    7CHTO  C103 2601   6.478   2.035   1.695
    7CHTO  H190 2602   6.512   2.060   1.594
    7CHTO  C101 2603   6.586   1.941   1.761
    7CHTO  H188 2604   6.555   1.919   1.863
    7CHTO   O68 2605   6.722   2.016   1.766
    7CHTO  H168 2606   6.785   1.965   1.814
    7CHTO   C99 2607   6.597   1.802   1.680
    7CHTO  H186 2608   6.637   1.824   1.578
    7CHTO   N17 2609   6.691   1.704   1.744
    7CHTO  H174 2610   6.776   1.685   1.679
    7CHTO  H175 2611   6.641   1.612   1.770
    7CHTO   C97 2612   6.455   1.742   1.658
    7CHTO  H184 2613   6.416   1.712   1.756
    7CHTO   O64 2614   6.370   1.840   1.594
    7CHTO  C104 2615   6.345   1.952   1.679
    7CHTO  H191 2616   6.314   1.916   1.777
    7CHTO  C108 2617   6.227   2.036   1.627
    7CHTO   O71 2618   6.259   2.107   1.508
    7CHTO  H171 2619   6.322   2.174   1.526
    7CHTO   O62 2620   6.455   1.630   1.567
    7CHTO   C91 2621   6.359   1.523   1.586
    7CHTO  H178 2622   6.374   1.455   1.503
    7CHTO   C92 2623   6.211   1.574   1.572
    7CHTO  H179 2624   6.198   1.664   1.636
    7CHTO   O66 2625   6.195   1.620   1.437
    7CHTO  H166 2626   6.204   1.548   1.377
    7CHTO   C93 2627   6.104   1.465   1.611
    7CHTO  H180 2628   6.111   1.384   1.537
    7CHTO   N16 2629   5.964   1.514   1.606
    7CHTO  H172 2630   5.906   1.455   1.537
    7CHTO  H173 2631   5.918   1.513   1.704
    7CHTO   C94 2632   6.142   1.408   1.752
    7CHTO  H181 2633   6.150   1.487   1.827
    7CHTO   O61 2634   6.271   1.346   1.742
    7CHTO   C95 2635   6.379   1.438   1.719
    7CHTO  H182 2636   6.386   1.505   1.805
    7CHTO  C106 2637   6.513   1.357   1.716
    7CHTO   O69 2638   6.518   1.265   1.606
    7CHTO  H169 2639   6.600   1.220   1.607
    7CHTO   O63 2640   6.039   1.297   1.803
    7CHTO   C96 2641   6.065   1.256   1.951
    7CHTO  H183 2642   6.144   1.318   1.992
    7CHTO   C98 2643   6.108   1.108   1.964
    7CHTO  H185 2644   6.042   1.045   1.901
    7CHTO   O67 2645   6.239   1.098   1.904
    7CHTO  H167 2646   6.267   1.008   1.903
    7CHTO  C102 2647   6.110   1.054   2.115
    7CHTO  H189 2648   6.196   1.103   2.163
    7CHTO   N18 2649   6.134   0.908   2.127
    7CHTO  H176 2650   6.136   0.880   2.231
    7CHTO  H177 2651   6.229   0.883   2.081
    7CHTO  C105 2652   5.980   1.099   2.188
    7CHTO  H192 2653   5.895   1.045   2.147
    7CHTO   O65 2654   5.956   1.241   2.173
    7CHTO  C100 2655   5.935   1.282   2.037
    7CHTO  H187 2656   5.852   1.223   1.995
    7CHTO  C107 2657   5.895   1.431   2.033
    7CHTO   O70 2658   5.771   1.454   2.103
    7CHTO  H170 2659   5.784   1.441   2.195
    7CHTO   O57 2660   6.001   1.061   2.349
    7CHTO   C85 2661   5.914   1.109   2.453
    7CHTO  H157 2662   5.904   1.219   2.438
    7CHTO   C83 2663   5.991   1.091   2.588
    7CHTO  H155 2664   6.082   1.151   2.585
    7CHTO   O56 2665   6.035   0.954   2.601
    7CHTO  H135 2666   5.962   0.896   2.609
    7CHTO   C81 2667   5.902   1.141   2.706
    7CHTO  H153 2668   5.872   1.244   2.684
    7CHTO   N14 2669   5.975   1.150   2.835
    7CHTO  H141 2670   5.911   1.192   2.910
    7CHTO  H142 2671   6.061   1.212   2.824
    7CHTO   C79 2672   5.772   1.053   2.714
    7CHTO  H151 2673   5.708   1.096   2.791
    7CHTO   O52 2674   5.697   1.063   2.588
    7CHTO   C86 2675   5.773   1.037   2.465
    7CHTO  H158 2676   5.785   0.927   2.464
    7CHTO   C90 2677   5.682   1.071   2.344
    7CHTO   O60 2678   5.646   1.210   2.343
    7CHTO  H138 2679   5.591   1.227   2.269
    7CHTO   O50 2680   5.794   0.914   2.747
    7CHTO   C73 2681   5.822   0.775   2.769
    7CHTO  H145 2682   5.931   0.758   2.770
    7CHTO   C74 2683   5.759   0.688   2.657
    7CHTO  H146 2684   5.801   0.724   2.562
    7CHTO   O54 2685   5.805   0.552   2.674
    7CHTO  H133 2686   5.773   0.499   2.604
    7CHTO   C75 2687   5.602   0.703   2.661
    7CHTO  H147 2688   5.577   0.808   2.638
    7CHTO   N13 2689   5.530   0.622   2.559
    7CHTO  H139 2690   5.472   0.686   2.494
    7CHTO  H140 2691   5.599   0.565   2.499
    7CHTO   C76 2692   5.546   0.673   2.808
    7CHTO  H148 2693   5.554   0.566   2.827
    7CHTO   O49 2694   5.622   0.747   2.910
    7CHTO   C77 2695   5.764   0.730   2.906
    7CHTO  H149 2696   5.790   0.625   2.923
    7CHTO   C88 2697   5.827   0.808   0.082
    7CHTO   O58 2698   5.783   0.753   0.214
    7CHTO  H136 2699   5.691   0.771   0.227
    7CHTO   O51 2700   5.389   0.729   2.818
    7CHTO   C78 2701   5.337   0.754   0.024
    7CHTO  H150 2702   5.412   0.721   0.099
    7CHTO   C80 2703   5.206   0.676   0.047
    7CHTO  H152 2704   5.131   0.708   2.912
    7CHTO   O55 2705   5.235   0.537   0.026
    7CHTO  H134 2706   5.157   0.486   0.032
    7CHTO   C84 2707   5.148   0.703   0.193
    7CHTO  H156 2708   5.220   0.665   0.265
    7CHTO   N15 2709   5.017   0.634   0.220
    7CHTO  H143 2710   4.986   0.577   0.135
    7CHTO  H144 2711   5.027   0.569   0.304
    7CHTO   C87 2712   5.135   0.856   0.214
    7CHTO  H159 2713   5.059   0.897   0.147
    7CHTO   O53 2714   5.274   0.921   0.182
    7CHTO   C82 2715   5.311   0.904   0.045
    7CHTO  H154 2716   5.231   0.940   2.921
    7CHTO   C89 2717   5.433   0.995   0.020
    7CHTO   O59 2718   5.465   1.003   2.822
    7CHTO  H137 2719   5.540   1.059   2.811
    7CHTO   O45 2720   5.096   0.898   0.373
    7CHTO   C67 2721   5.111   1.039   0.397
    7CHTO  H124 2722   5.188   1.077   0.330
    7CHTO   C65 2723   4.979   1.119   0.370
    7CHTO  H122 2724   4.898   1.059   0.412
    7CHTO   O44 2725   4.964   1.125   0.227
    7CHTO  H102 2726   5.027   1.185   0.190
    7CHTO   C63 2727   4.974   1.257   0.450
    7CHTO  H120 2728   4.936   1.237   0.550
    7CHTO   N11 2729   4.877   1.360   0.401
    7CHTO  H108 2730   4.780   1.317   0.391
    7CHTO  H109 2731   4.874   1.442   0.469
    7CHTO   C61 2732   5.122   1.309   0.470
    7CHTO  H118 2733   5.117   1.404   0.526
    7CHTO   O40 2734   5.198   1.216   0.553
    7CHTO   C68 2735   5.165   1.072   0.542
    7CHTO  H125 2736   5.087   1.047   0.618
    7CHTO   C72 2737   5.291   0.990   0.577
    7CHTO   O48 2738   5.338   1.014   0.710
    7CHTO  H105 2739   5.371   1.102   0.717
    7CHTO   O38 2740   5.190   1.326   0.344
    7CHTO   C55 2741   5.301   1.417   0.336
    7CHTO  H112 2742   5.337   1.445   0.436
    7CHTO   C56 2743   5.256   1.543   0.252
    7CHTO  H113 2744   5.203   1.504   0.163
    7CHTO   O42 2745   5.158   1.617   0.327
    7CHTO  H100 2746   5.080   1.567   0.338
    7CHTO   C57 2747   5.377   1.634   0.208
    7CHTO  H114 2748   5.415   1.683   0.297
    7CHTO   N10 2749   5.336   1.739   0.111
    7CHTO  H106 2750   5.304   1.827   0.165
    7CHTO  H107 2751   5.418   1.766   0.046
    7CHTO   C58 2752   5.489   1.545   0.148
    7CHTO  H115 2753   5.454   1.500   0.052
    7CHTO   O37 2754   5.526   1.441   0.239
    7CHTO   C59 2755   5.421   1.346   0.265
    7CHTO  H116 2756   5.389   1.300   0.171
    7CHTO   C70 2757   5.479   1.236   0.354
    7CHTO   O46 2758   5.586   1.163   0.292
    7CHTO  H103 2759   5.552   1.112   0.221
    7CHTO   O39 2760   5.626   1.633   0.121
    7CHTO   C60 2761   5.710   1.575   0.019
    7CHTO  H117 2762   5.695   1.467   0.017
    7CHTO   C62 2763   5.675   1.630   2.819
    7CHTO  H119 2764   5.568   1.606   2.801
    7CHTO   O43 2765   5.689   1.773   2.818
    7CHTO  H101 2766   5.663   1.808   2.734
    7CHTO   C66 2767   5.766   1.555   2.708
    7CHTO  H123 2768   5.749   1.448   2.717
    7CHTO   N12 2769   5.728   1.592   2.570
    7CHTO  H110 2770   5.624   1.566   2.552
    7CHTO  H111 2771   5.792   1.541   2.499
    7CHTO   C69 2772   5.916   1.581   2.738
    7CHTO  H126 2773   5.938   1.690   2.729
    7CHTO   O41 2774   5.949   1.533   2.885
    7CHTO   C64 2775   5.860   1.599   0.051
    7CHTO  H121 2776   5.879   1.708   0.052
    7CHTO   C71 2777   5.898   1.544   0.191
    7CHTO   O47 2778   5.882   1.402   0.200
    7CHTO  H104 2779   5.791   1.380   0.196
    7CHTO   O34 2780   6.011   1.500   2.634
    7CHTO   C49 2781   6.107   1.583   2.546
    7CHTO   H91 2782   6.060   1.679   2.529
    7CHTO   C47 2783   6.129   1.510   2.411
    7CHTO   H89 2784   6.184   1.584   2.348
    7CHTO   O33 2785   6.002   1.483   2.348
    7CHTO   H70 2786   5.959   1.564   2.326
    7CHTO   C45 2787   6.212   1.373   2.428
    7CHTO   H87 2788   6.140   1.290   2.434
    7CHTO    N8 2789   6.296   1.353   2.307
    7CHTO   H75 2790   6.343   1.256   2.311
    7CHTO   H76 2791   6.371   1.429   2.301
    7CHTO   C43 2792   6.290   1.370   2.569
    7CHTO   H85 2793   6.215   1.342   2.643
    7CHTO   O29 2794   6.346   1.500   2.597
    7CHTO   C50 2795   6.247   1.605   2.612
    7CHTO   H92 2796   6.230   1.621   2.719
    7CHTO   C54 2797   6.308   1.739   2.565
    7CHTO   O36 2798   6.418   1.779   2.648
    7CHTO   H72 2799   6.386   1.803   2.733
    7CHTO   O27 2800   6.389   1.266   2.577
    7CHTO   C37 2801   6.475   1.185   2.658
    7CHTO   H79 2802   6.464   1.212   2.764
    7CHTO   C38 2803   6.439   1.035   2.643
    7CHTO   H80 2804   6.434   1.010   2.536
    7CHTO   O31 2805   6.308   1.018   2.701
    7CHTO   H68 2806   6.276   0.931   2.685
    7CHTO   C39 2807   6.544   0.941   2.714
    7CHTO   H81 2808   6.535   0.956   2.822
    7CHTO    N7 2809   6.518   0.795   2.688
    7CHTO   H73 2810   6.592   0.735   2.740
    7CHTO   H74 2811   6.419   0.769   2.723
    7CHTO   C40 2812   6.692   0.981   2.675
    7CHTO   H82 2813   6.713   0.951   2.572
    7CHTO   O26 2814   6.711   1.122   2.694
    7CHTO   C41 2815   6.623   1.207   2.615
    7CHTO   H83 2816   6.633   1.183   2.509
    7CHTO   C52 2817   6.669   1.353   2.634
    7CHTO   O35 2818   6.665   1.395   2.773
    7CHTO   H71 2819   6.692   1.484   2.780
    7CHTO   O28 2820   6.789   0.916   2.760
    7CHTO   C42 2821   6.936   0.924   2.746
    7CHTO   H84 2822   6.972   0.871   2.834
    7CHTO   C44 2823   6.998   1.068   2.754
    7CHTO   H86 2824   6.959   1.127   2.671
    7CHTO   O32 2825   6.954   1.125   2.878
    7CHTO   H69 2826   6.981   1.215   2.884
    7CHTO   C48 2827   7.156   1.067   2.743
    7CHTO   H90 2828   7.197   1.021   2.834
    7CHTO    N9 2829   7.214   1.206   2.738
    7CHTO   H77 2830   7.188   1.259   2.828
    7CHTO   H78 2831   7.176   1.258   2.651
    7CHTO   C51 2832   7.201   0.979   2.620
    7CHTO   H93 2833   7.168   1.030   2.530
    7CHTO   O30 2834   7.143   0.849   2.633
    7CHTO   C46 2835   6.993   0.850   2.621
    7CHTO   H88 2836   6.965   0.903   2.531
    7CHTO   C53 2837   6.951   0.702   2.611
    7CHTO   O72 2838   6.816   0.687   2.567
    7CHTO  H199 2839   6.757   0.718   2.633
    7CHTO   O22 2840   7.345   0.961   2.617
    7CHTO   C31 2841   7.419   0.890   2.511
    7CHTO   H59 2842   7.527   0.911   2.530
    7CHTO   C29 2843   7.402   0.736   2.514
    7CHTO   H57 2844   7.296   0.714   2.496
    7CHTO   O21 2845   7.432   0.690   2.647
    7CHTO   H37 2846   7.524   0.702   2.666
    7CHTO   C27 2847   7.488   0.663   2.402
    7CHTO   H55 2848   7.595   0.679   2.425
    7CHTO    N5 2849   7.463   0.517   2.396
    7CHTO   H43 2850   7.528   0.472   2.322
    7CHTO   H44 2851   7.481   0.473   2.492
    7CHTO   C25 2852   7.460   0.731   2.264
    7CHTO   H53 2853   7.356   0.711   2.233
    7CHTO   O17 2854   7.478   0.875   2.273
    7CHTO   C32 2855   7.391   0.942   2.366
    7CHTO   H60 2856   7.287   0.923   2.341
    7CHTO   C36 2857   7.423   1.093   2.346
    7CHTO   O25 2858   7.325   1.179   2.404
    7CHTO   H40 2859   7.327   1.172   2.498
    7CHTO   O15 2860   7.562   0.676   2.150
    7CHTO   C19 2861   7.567   0.709   2.008
    7CHTO   H47 2862   7.655   0.654   1.972
    7CHTO   C20 2863   7.441   0.658   1.929
    7CHTO   H48 2864   7.347   0.694   1.974
    7CHTO   O19 2865   7.443   0.514   1.938
    7CHTO   H35 2866   7.424   0.487   2.026
    7CHTO   C21 2867   7.443   0.706   1.778
    7CHTO   H49 2868   7.531   0.662   1.728
    7CHTO    N4 2869   7.323   0.662   1.701
    7CHTO   H41 2870   7.353   0.601   1.617
    7CHTO   H42 2871   7.266   0.746   1.666
    7CHTO   C22 2872   7.463   0.859   1.779
    7CHTO   H50 2873   7.381   0.903   1.837
    7CHTO   O14 2874   7.589   0.890   1.840
    7CHTO   C23 2875   7.595   0.861   1.980
    7CHTO   H51 2876   7.523   0.926   2.031
    7CHTO   C34 2877   7.737   0.902   2.025
    7CHTO   O23 2878   7.758   0.885   2.166
    7CHTO   H38 2879   7.706   0.947   2.213
    7CHTO   O16 2880   7.470   0.919   1.647
    7CHTO   C24 2881   7.415   1.071   1.648
    7CHTO   H52 2882   7.403   1.109   1.750
    7CHTO   C26 2883   7.280   1.078   1.575
    7CHTO   H54 2884   7.294   1.036   1.472
    7CHTO   O20 2885   7.187   0.994   1.646
    7CHTO   H36 2886   7.106   0.989   1.599
    7CHTO   C30 2887   7.229   1.225   1.564
    7CHTO   H58 2888   7.198   1.259   1.663
    7CHTO    N6 2889   7.108   1.234   1.478
    7CHTO   H45 2890   7.026   1.277   1.534
    7CHTO   H46 2891   7.126   1.294   1.390
    7CHTO   C33 2892   7.341   1.325   1.521
    7CHTO   H61 2893   7.359   1.320   1.412
    7CHTO   O18 2894   7.466   1.298   1.589
    7CHTO   C28 2895   7.516   1.164   1.577
    7CHTO   H56 2896   7.523   1.135   1.472
    7CHTO   C35 2897   7.658   1.157   1.639
    7CHTO   O24 2898   7.664   1.194   1.777
    7CHTO   H39 2899   7.645   1.285   1.787
    7CHTO    O9 2900   7.296   1.460   1.547
    7CHTO   C13 2901   7.374   1.581   1.474
    7CHTO   H26 2902   7.360   1.569   1.364
    7CHTO   C11 2903   7.527   1.585   1.514
    7CHTO   H24 2904   7.574   1.496   1.471
    7CHTO    O8 2905   7.539   1.577   1.657
    7CHTO    H3 2906   7.630   1.571   1.681
    7CHTO    C9 2907   7.592   1.711   1.451
    7CHTO   H22 2908   7.573   1.702   1.343
    7CHTO    N2 2909   7.740   1.712   1.465
    7CHTO   H10 2910   7.774   1.804   1.509
    7CHTO   H11 2911   7.787   1.696   1.369
    7CHTO    C7 2912   7.521   1.841   1.504
    7CHTO   H20 2913   7.563   1.922   1.441
    7CHTO    O4 2914   7.378   1.837   1.485
    7CHTO   C14 2915   7.301   1.718   1.511
    7CHTO   H27 2916   7.212   1.726   1.445
    7CHTO   C18 2917   7.248   1.719   1.657
    7CHTO   O13 2918   7.158   1.828   1.678
    7CHTO    H7 2919   7.128   1.828   1.767
    7CHTO    O2 2920   7.556   1.870   1.660
    7CHTO    C1 2921   7.493   1.980   1.728
    7CHTO   H14 2922   7.384   1.963   1.731
    7CHTO    C2 2923   7.520   2.125   1.666
    7CHTO   H15 2924   7.629   2.131   1.650
    7CHTO    O6 2925   7.453   2.135   1.538
    7CHTO    H1 2926   7.361   2.126   1.549
    7CHTO    C3 2927   7.471   2.242   1.766
    7CHTO   H16 2928   7.361   2.239   1.772
    7CHTO    N1 2929   7.508   2.379   1.717
    7CHTO    H8 2930   7.615   2.386   1.705
    7CHTO    H9 2931   7.460   2.398   1.622
    7CHTO    C4 2932   7.523   2.213   1.912
    7CHTO   H17 2933   7.632   2.220   1.912
    7CHTO    O1 2934   7.481   2.081   1.951
    7CHTO    C5 2935   7.542   1.976   1.876
    7CHTO   H18 2936   7.651   1.987   1.877
    7CHTO   C16 2937   7.505   1.845   1.950
    7CHTO   O11 2938   7.582   1.734   1.904
    7CHTO    H5 2939   7.560   1.657   1.953
    7CHTO    O3 2940   7.468   2.304   2.010
    7CHTO    C6 2941   7.512   2.281   2.148
    7CHTO   H19 2942   7.558   2.183   2.163
    7CHTO    C8 2943   7.618   2.388   2.192
    7CHTO   H21 2944   7.578   2.487   2.170
    7CHTO    O7 2945   7.735   2.366   2.111
    7CHTO    H2 2946   7.798   2.433   2.127
    7CHTO   C12 2947   7.650   2.376   2.346
    7CHTO   H25 2948   7.705   2.280   2.359
    7CHTO    N3 2949   7.742   2.485   2.393
    7CHTO   H12 2950   7.770   2.551   2.312
    7CHTO   H13 2951   7.831   2.442   2.438
    7CHTO   C15 2952   7.517   2.369   2.430
    7CHTO   H28 2953   7.465   2.465   2.431
    7CHTO   O10 2954   7.540   2.322   2.577
    7CHTO    H4 2955   7.588   2.241   2.579
    7CHTO    O5 2956   7.429   2.267   2.379
    7CHTO   C10 2957   7.389   2.288   2.243
    7CHTO   H23 2958   7.341   2.386   2.235
    7CHTO   C17 2959   7.284   2.182   2.205
    7CHTO   O12 2960   7.167   2.192   2.287
    7CHTO    H6 2961   7.106   2.125   2.263
    8CHTO  H203 2962   7.782   7.985   1.040
    8CHTO   O82 2963   7.708   7.985   0.982
    8CHTO  C123 2964   7.587   7.959   1.056
    8CHTO  H227 2965   7.605   7.872   1.123
    8CHTO   O77 2966   7.570   8.080   1.136
    8CHTO  C118 2967   7.458   8.078   1.225
    8CHTO  H222 2968   7.466   7.993   1.295
    8CHTO  C125 2969   7.466   8.212   1.307
    8CHTO   O84 2970   7.373   8.217   1.415
    8CHTO  H205 2971   7.382   8.298   1.461
    8CHTO  C114 2972   7.328   8.065   1.143
    8CHTO  H218 2973   7.319   8.152   1.078
    8CHTO  C116 2974   7.331   7.939   1.051
    8CHTO  H220 2975   7.326   7.849   1.116
    8CHTO   O79 2976   7.211   7.940   0.972
    8CHTO  H201 2977   7.206   7.861   0.920
    8CHTO  C120 2978   7.462   7.937   0.963
    8CHTO  H224 2979   7.453   8.021   0.891
    8CHTO   N21 2980   7.472   7.811   0.885
    8CHTO  H211 2981   7.422   7.824   0.789
    8CHTO  H212 2982   7.575   7.784   0.869
    8CHTO   O75 2983   7.222   8.060   1.240
    8CHTO  C112 2984   7.096   8.159   1.208
    8CHTO  H216 2985   7.043   8.121   1.120
    8CHTO   O73 2986   7.150   8.291   1.185
    8CHTO  C113 2987   7.054   8.395   1.165
    8CHTO  H217 2988   6.986   8.366   1.081
    8CHTO  C124 2989   7.129   8.521   1.123
    8CHTO   O83 2990   7.191   8.509   0.995
    8CHTO  H204 2991   7.125   8.505   0.928
    8CHTO  C109 2992   6.973   8.412   1.296
    8CHTO  H213 2993   7.047   8.427   1.377
    8CHTO  C110 2994   6.897   8.278   1.322
    8CHTO  H214 2995   6.828   8.259   1.240
    8CHTO   O78 2996   6.817   8.291   1.441
    8CHTO  H200 2997   6.871   8.306   1.516
    8CHTO  C111 2998   6.999   8.160   1.333
    8CHTO  H215 2999   7.061   8.177   1.422
    8CHTO   N19 3000   6.936   8.026   1.351
    8CHTO  H207 3001   6.828   8.034   1.354
    8CHTO  H208 3002   6.964   7.958   1.273
    8CHTO   O74 3003   6.885   8.529   1.293
    8CHTO  C115 3004   6.758   8.529   1.192
    8CHTO  H219 3005   6.749   8.434   1.139
    8CHTO   O76 3006   6.624   8.545   1.268
    8CHTO  C122 3007   6.628   8.662   1.352
    8CHTO  H226 3008   6.701   8.643   1.431
    8CHTO  C126 3009   6.490   8.676   1.426
    8CHTO   O85 3010   6.472   8.574   1.524
    8CHTO  H206 3011   6.389   8.585   1.566
    8CHTO  C121 3012   6.665   8.795   1.274
    8CHTO  H225 3013   6.582   8.868   1.286
    8CHTO   O81 3014   6.782   8.851   1.335
    8CHTO  H202 3015   6.797   8.938   1.302
    8CHTO  C119 3016   6.689   8.772   1.121
    8CHTO  H223 3017   6.589   8.754   1.080
    8CHTO  C117 3018   6.780   8.647   1.089
    8CHTO  H221 3019   6.886   8.668   1.095
    8CHTO   N20 3020   6.759   8.601   0.947
    8CHTO  H209 3021   6.777   8.684   0.879
    8CHTO  H210 3022   6.827   8.520   0.924
    8CHTO   O80 3023   6.734   8.901   1.043
    8CHTO  C103 3024   6.640   9.024   1.031
    8CHTO  H190 3025   6.536   8.996   1.046
    8CHTO  C101 3026   6.676   9.147   1.124
    8CHTO  H188 3027   6.785   9.154   1.131
    8CHTO   O68 3028   6.622   9.119   1.266
    8CHTO  H168 3029   6.651   9.186   1.325
    8CHTO   C99 3030   6.622   9.286   1.065
    8CHTO  H186 3031   6.511   9.284   1.064
    8CHTO   N17 3032   6.662   9.406   1.146
    8CHTO  H174 3033   6.627   9.396   1.247
    8CHTO  H175 3034   6.770   9.418   1.143
    8CHTO   C97 3035   6.666   9.297   0.917
    8CHTO  H184 3036   6.776   9.290   0.914
    8CHTO   O64 3037   6.603   9.189   0.845
    8CHTO  C104 3038   6.657   9.061   0.878
    8CHTO  H191 3039   6.763   9.058   0.852
    8CHTO  C108 3040   6.590   8.955   0.788
    8CHTO   O71 3041   6.449   8.948   0.809
    8CHTO  H171 3042   6.431   8.911   0.893
    8CHTO   O62 3043   6.620   9.416   0.848
    8CHTO   C91 3044   6.709   9.464   0.744
    8CHTO  H178 3045   6.790   9.393   0.730
    8CHTO   C92 3046   6.777   9.597   0.789
    8CHTO  H179 3047   6.698   9.670   0.815
    8CHTO   O66 3048   6.849   9.573   0.911
    8CHTO  H166 3049   6.790   9.553   0.981
    8CHTO   C93 3050   6.874   9.655   0.679
    8CHTO  H180 3051   6.961   9.589   0.674
    8CHTO   N16 3052   6.927   9.790   0.712
    8CHTO  H172 3053   6.847   9.861   0.721
    8CHTO  H173 3054   6.998   9.822   0.637
    8CHTO   C94 3055   6.804   9.656   0.537
    8CHTO  H181 3056   6.724   9.730   0.531
    8CHTO   O61 3057   6.744   9.528   0.508
    8CHTO   C95 3058   6.645   9.486   0.603
    8CHTO  H182 3059   6.567   9.562   0.609
    8CHTO  C106 3060   6.578   9.355   0.551
    8CHTO   O69 3061   6.502   9.379   0.432
    8CHTO  H169 3062   6.426   9.431   0.452
    8CHTO   O63 3063   6.917   9.685   0.422
    8CHTO   C96 3064   6.857   9.715   0.280
    8CHTO  H183 3065   6.750   9.690   0.281
    8CHTO   C98 3066   6.924   9.636   0.165
    8CHTO  H185 3067   7.033   9.648   0.171
    8CHTO   O67 3068   6.900   9.496   0.190
    8CHTO  H167 3069   6.946   9.444   0.127
    8CHTO  C102 3070   6.871   9.677   0.019
    8CHTO  H189 3071   6.772   9.630   0.009
    8CHTO   N18 3072   6.952   9.625   2.847
    8CHTO  H176 3073   6.997   9.705   2.790
    8CHTO  H177 3074   7.029   9.558   2.883
    8CHTO  C105 3075   6.844   9.830   0.006
    8CHTO  H192 3076   6.936   9.881   2.917
    8CHTO   O65 3077   6.795   9.894   0.126
    8CHTO  C100 3078   6.870   9.868   0.244
    8CHTO  H187 3079   6.976   9.891   0.226
    8CHTO  C107 3080   6.820   9.960   0.357
    8CHTO   O70 3081   6.836   0.098   0.323
    8CHTO  H170 3082   6.805   0.152   0.393
    8CHTO   O57 3083   6.730   9.839   2.829
    8CHTO   C85 3084   6.700   9.963   2.762
    8CHTO  H157 3085   6.798   0.012   2.741
    8CHTO   C83 3086   6.624   0.059   2.859
    8CHTO  H155 3087   6.690   0.083   0.001
    8CHTO   O56 3088   6.511   9.989   2.916
    8CHTO  H135 3089   6.470   0.041   0.041
    8CHTO   C81 3090   6.587   0.191   2.785
    8CHTO  H153 3091   6.679   0.236   2.749
    8CHTO   N14 3092   6.531   0.294   2.876
    8CHTO  H141 3093   6.437   0.331   2.840
    8CHTO  H142 3094   6.517   0.256   0.034
    8CHTO   C79 3095   6.495   0.159   2.661
    8CHTO  H151 3096   6.481   0.253   2.607
    8CHTO   O52 3097   6.564   0.069   2.570
    8CHTO   C86 3098   6.614   9.944   2.630
    8CHTO  H158 3099   6.522   9.885   2.649
    8CHTO   C90 3100   6.692   9.867   2.520
    8CHTO   O60 3101   6.726   9.734   2.562
    8CHTO  H138 3102   6.775   9.692   2.494
    8CHTO   O50 3103   6.365   0.108   2.695
    8CHTO   C73 3104   6.227   0.077   2.671
    8CHTO  H145 3105   6.214   0.035   2.570
    8CHTO   C74 3106   6.136   0.204   2.683
    8CHTO  H146 3107   6.172   0.276   2.609
    8CHTO   O54 3108   6.003   0.168   2.644
    8CHTO  H133 3109   6.000   0.147   2.553
    8CHTO   C75 3110   6.145   0.261   2.830
    8CHTO  H147 3111   6.246   0.300   2.845
    8CHTO   N13 3112   6.058   0.379   2.856
    8CHTO  H139 3113   6.005   0.408   2.767
    8CHTO  H140 3114   5.986   0.358   2.933
    8CHTO   C76 3115   6.123   0.145   2.939
    8CHTO  H148 3116   6.017   0.121   0.003
    8CHTO   O49 3117   6.199   0.023   2.909
    8CHTO   C77 3118   6.180   9.972   2.776
    8CHTO  H149 3119   6.074   9.950   2.760
    8CHTO   C88 3120   6.254   9.839   2.760
    8CHTO   O58 3121   6.219   9.773   2.634
    8CHTO  H136 3122   6.267   9.693   2.626
    8CHTO   O51 3123   6.183   0.198   0.137
    8CHTO   C78 3124   6.149   0.114   0.264
    8CHTO  H150 3125   6.132   0.007   0.238
    8CHTO   C80 3126   6.021   0.169   0.331
    8CHTO  H152 3127   6.029   0.281   0.334
    8CHTO   O55 3128   5.909   0.136   0.247
    8CHTO  H134 3129   5.913   0.185   0.167
    8CHTO   C84 3130   5.999   0.116   0.478
    8CHTO  H156 3131   5.972   0.010   0.471
    8CHTO   N15 3132   5.886   0.186   0.550
    8CHTO  H143 3133   5.841   0.260   0.487
    8CHTO  H144 3134   5.812   0.116   0.580
    8CHTO   C87 3135   6.131   0.126   0.559
    8CHTO  H159 3136   6.157   0.232   0.570
    8CHTO   O53 3137   6.242   0.053   0.481
    8CHTO   C82 3138   6.270   0.122   0.358
    8CHTO  H154 3139   6.296   0.226   0.378
    8CHTO   C89 3140   6.393   0.057   0.289
    8CHTO   O59 3141   6.509   0.065   0.371
    8CHTO  H137 3142   6.500   0.007   0.445
    8CHTO   O45 3143   6.115   0.063   0.716
    8CHTO   C67 3144   6.149   9.924   0.736
    8CHTO  H124 3145   6.158   9.874   0.640
    8CHTO   C65 3146   6.284   9.909   0.815
    8CHTO  H122 3147   6.327   0.009   0.822
    8CHTO   O44 3148   6.372   9.826   0.739
    8CHTO  H102 3149   6.457   9.825   0.777
    8CHTO   C63 3150   6.260   9.864   0.965
    8CHTO  H120 3151   6.196   9.938   1.013
    8CHTO   N11 3152   6.380   9.867   1.055
    8CHTO  H108 3153   6.390   9.775   1.108
    8CHTO  H109 3154   6.469   9.885   0.998
    8CHTO   C61 3155   6.178   9.728   0.967
    8CHTO  H118 3156   6.130   9.721   1.065
    8CHTO   O40 3157   6.071   9.724   0.867
    8CHTO   C68 3158   6.029   9.852   0.811
    8CHTO  H125 3159   5.992   9.917   0.894
    8CHTO   C72 3160   5.910   9.828   0.716
    8CHTO   O48 3161   5.793   9.778   0.783
    8CHTO  H105 3162   5.758   9.845   0.839
    8CHTO   O38 3163   6.263   9.613   0.944
    8CHTO   C55 3164   6.203   9.482   0.956
    8CHTO  H112 3165   6.094   9.489   0.940
    8CHTO   C56 3166   6.238   9.415   1.095
    8CHTO  H113 3167   6.347   9.421   1.107
    8CHTO   O42 3168   6.181   9.493   1.202
    8CHTO  H100 3169   6.088   9.495   1.196
    8CHTO   C57 3170   6.189   9.264   1.101
    8CHTO  H114 3171   6.080   9.267   1.107
    8CHTO   N10 3172   6.237   9.190   1.220
    8CHTO  H106 3173   6.248   9.257   1.305
    8CHTO  H107 3174   6.166   9.112   1.247
    8CHTO   C58 3175   6.229   9.188   0.971
    8CHTO  H115 3176   6.339   9.171   0.971
    8CHTO   O37 3177   6.194   9.263   0.854
    8CHTO   C59 3178   6.255   9.391   0.841
    8CHTO  H116 3179   6.364   9.382   0.845
    8CHTO   C70 3180   6.214   9.444   0.704
    8CHTO   O46 3181   6.287   9.561   0.666
    8CHTO  H103 3182   6.259   9.589   0.581
    8CHTO   O39 3183   6.149   9.040   0.958
    8CHTO   C60 3184   6.011   9.048   0.916
    8CHTO  H117 3185   5.969   9.143   0.950
    8CHTO   C62 3186   5.996   9.043   0.760
    8CHTO  H119 3187   6.055   9.127   0.719
    8CHTO   O43 3188   6.050   8.921   0.708
    8CHTO  H101 3189   6.143   8.918   0.722
    8CHTO   C66 3190   5.842   9.067   0.723
    8CHTO  H123 3191   5.809   9.159   0.770
    8CHTO   N12 3192   5.818   9.084   0.577
    8CHTO  H110 3193   5.911   9.078   0.522
    8CHTO  H111 3194   5.767   9.177   0.558
    8CHTO   C69 3195   5.757   8.952   0.783
    8CHTO  H126 3196   5.784   8.855   0.735
    8CHTO   O41 3197   5.782   8.942   0.939
    8CHTO   C64 3198   5.928   8.935   0.982
    8CHTO  H121 3199   5.970   8.837   0.951
    8CHTO   C71 3200   5.933   8.942   1.136
    8CHTO   O47 3201   5.872   9.062   1.187
    8CHTO  H104 3202   5.779   9.059   1.173
    8CHTO   O34 3203   5.603   8.977   0.760
    8CHTO   C49 3204   5.499   9.045   0.852
    8CHTO   H91 3205   5.477   8.975   0.932
    8CHTO   C47 3206   5.371   9.070   0.769
    8CHTO   H89 3207   5.293   9.105   0.841
    8CHTO   O33 3208   5.329   8.945   0.713
    8CHTO   H70 3209   5.247   8.956   0.668
    8CHTO   C45 3210   5.402   9.185   0.660
    8CHTO   H87 3211   5.490   9.155   0.602
    8CHTO    N8 3212   5.289   9.206   0.566
    8CHTO   H75 3213   5.265   9.113   0.517
    8CHTO   H76 3214   5.316   9.280   0.492
    8CHTO   C43 3215   5.445   9.319   0.738
    8CHTO   H85 3216   5.471   9.392   0.661
    8CHTO   O29 3217   5.556   9.293   0.827
    8CHTO   C50 3218   5.550   9.178   0.914
    8CHTO   H92 3219   5.654   9.160   0.946
    8CHTO   C54 3220   5.477   9.208   1.047
    8CHTO   O36 3221   5.555   9.293   1.133
    8CHTO   H72 3222   5.508   9.309   1.212
    8CHTO   O27 3223   5.336   9.377   0.812
    8CHTO   C37 3224   5.292   9.508   0.852
    8CHTO   H79 3225   5.222   9.499   0.935
    8CHTO   C38 3226   5.412   9.596   0.902
    8CHTO   H80 3227   5.493   9.589   0.828
    8CHTO   O31 3228   5.458   9.539   1.026
    8CHTO   H68 3229   5.536   9.582   1.054
    8CHTO   C39 3230   5.371   9.747   0.923
    8CHTO   H81 3231   5.302   9.751   1.007
    8CHTO    N7 3232   5.488   9.836   0.958
    8CHTO   H73 3233   5.472   9.882   1.054
    8CHTO   H74 3234   5.580   9.781   0.958
    8CHTO   C40 3235   5.294   9.799   0.797
    8CHTO   H82 3236   5.362   9.805   0.711
    8CHTO   O26 3237   5.182   9.713   0.771
    8CHTO   C41 3238   5.220   9.578   0.733
    8CHTO   H83 3239   5.286   9.580   0.645
    8CHTO   C52 3240   5.090   9.503   0.693
    8CHTO   O35 3241   5.022   9.566   0.576
    8CHTO   H71 3242   5.075   9.557   0.499
    8CHTO   O28 3243   5.234   9.928   0.819
    8CHTO   C42 3244   5.193   0.014   0.709
    8CHTO   H84 3245   5.147   0.099   0.759
    8CHTO   C44 3246   5.084   9.958   0.612
    8CHTO   H86 3247   5.125   9.871   0.560
    8CHTO   O32 3248   4.973   9.916   0.693
    8CHTO   H69 3249   4.908   9.874   0.640
    8CHTO   C48 3250   5.042   0.065   0.503
    8CHTO   H90 3251   4.996   0.149   0.555
    8CHTO    N9 3252   4.937   0.014   0.407
    8CHTO   H77 3253   4.909   9.912   0.432
    8CHTO   H78 3254   4.850   0.078   0.409
    8CHTO   C51 3255   5.171   0.117   0.429
    8CHTO   H93 3256   5.215   0.033   0.376
    8CHTO   O30 3257   5.261   0.173   0.526
    8CHTO   C46 3258   5.312   0.070   0.626
    8CHTO   H88 3259   5.359   9.988   0.571
    8CHTO   C53 3260   5.416   0.139   0.717
    8CHTO   O72 3261   5.532   0.177   0.642
    8CHTO  H199 3262   5.594   0.218   0.698
    8CHTO   O22 3263   5.143   0.226   0.339
    8CHTO   C31 3264   5.227   0.252   0.219
    8CHTO   H59 3265   5.187   0.345   0.175
    8CHTO   C29 3266   5.376   0.276   0.250
    8CHTO   H57 3267   5.413   0.189   0.307
    8CHTO   O21 3268   5.383   0.390   0.337
    8CHTO   H37 3269   5.471   0.402   0.368
    8CHTO   C27 3270   5.464   0.292   0.119
    8CHTO   H55 3271   5.434   0.385   0.068
    8CHTO    N5 3272   5.610   0.302   0.149
    8CHTO   H43 3273   5.665   0.316   0.058
    8CHTO   H44 3274   5.628   0.384   0.217
    8CHTO   C25 3275   5.433   0.173   0.022
    8CHTO   H53 3276   5.462   0.079   0.072
    8CHTO   O17 3277   5.290   0.168   2.935
    8CHTO   C32 3278   5.209   0.142   0.110
    8CHTO   H60 3279   5.235   0.045   0.152
    8CHTO   C36 3280   5.060   0.137   0.065
    8CHTO   O25 3281   5.031   0.019   2.932
    8CHTO   H40 3282   5.075   0.022   2.849
    8CHTO   O15 3283   5.513   0.186   2.825
    8CHTO   C19 3284   5.547   0.116   2.702
    8CHTO   H47 3285   5.464   0.046   2.688
    8CHTO   C20 3286   5.557   0.211   2.578
    8CHTO   H48 3287   5.626   0.295   2.595
    8CHTO   O19 3288   5.426   0.269   2.559
    8CHTO   H35 3289   5.363   0.202   2.537
    8CHTO   C21 3290   5.604   0.137   2.445
    8CHTO   H49 3291   5.524   0.072   2.411
    8CHTO    N4 3292   5.631   0.230   2.332
    8CHTO   H41 3293   5.541   0.285   2.307
    8CHTO   H42 3294   5.708   0.301   2.361
    8CHTO   C22 3295   5.725   0.045   2.476
    8CHTO   H50 3296   5.811   0.108   2.500
    8CHTO   O14 3297   5.695   9.959   2.587
    8CHTO   C23 3298   5.676   0.028   2.711
    8CHTO   H51 3299   5.766   0.089   2.731
    8CHTO   C34 3300   5.667   9.920   2.820
    8CHTO   O23 3301   5.689   9.974   0.010
    8CHTO   H38 3302   5.683   9.905   0.073
    8CHTO   O16 3303   5.757   9.957   2.366
    8CHTO   C24 3304   5.902   9.880   2.383
    8CHTO   H52 3305   5.934   9.876   2.487
    8CHTO   C26 3306   6.009   9.952   2.299
    8CHTO   H54 3307   5.973   9.959   2.193
    8CHTO   O20 3308   6.026   0.086   2.349
    8CHTO   H36 3309   5.949   0.137   2.332
    8CHTO   C30 3310   6.144   9.872   2.299
    8CHTO   H58 3311   6.189   9.876   2.400
    8CHTO    N6 3312   6.245   9.933   2.208
    8CHTO   H45 3313   6.207   9.936   2.107
    8CHTO   H46 3314   6.267   0.034   2.240
    8CHTO   C33 3315   6.121   9.721   2.268
    8CHTO   H61 3316   6.091   9.710   2.162
    8CHTO   O18 3317   6.015   9.669   2.350
    8CHTO   C28 3318   5.888   9.734   2.333
    8CHTO   H56 3319   5.859   9.734   2.228
    8CHTO   C35 3320   5.779   9.655   2.410
    8CHTO   O24 3321   5.803   9.646   2.551
    8CHTO   H39 3322   5.735   9.597   2.592
    8CHTO    O9 3323   6.242   9.643   2.282
    8CHTO   C13 3324   6.254   9.515   2.179
    8CHTO   H26 3325   6.232   9.553   2.077
    8CHTO   C11 3326   6.153   9.399   2.221
    8CHTO   H24 3327   6.052   9.431   2.191
    8CHTO    O8 3328   6.155   9.383   2.364
    8CHTO    H3 3329   6.089   9.321   2.390
    8CHTO    C9 3330   6.192   9.270   2.144
    8CHTO   H22 3331   6.195   9.299   2.038
    8CHTO    N2 3332   6.088   9.165   2.149
    8CHTO   H10 3333   6.079   9.126   2.250
    8CHTO   H11 3334   6.112   9.085   2.081
    8CHTO    C7 3335   6.339   9.225   2.186
    8CHTO   H20 3336   6.384   9.191   2.091
    8CHTO    O4 3337   6.417   9.333   2.241
    8CHTO   C14 3338   6.403   9.458   2.171
    8CHTO   H27 3339   6.428   9.439   2.064
    8CHTO   C18 3340   6.511   9.556   2.225
    8CHTO   O13 3341   6.513   9.678   2.150
    8CHTO    H7 3342   6.547   9.661   2.063
    8CHTO    O2 3343   6.341   9.097   2.295
    8CHTO    C1 3344   6.471   9.049   2.336
    8CHTO   H14 3345   6.538   9.136   2.350
    8CHTO    C2 3346   6.538   8.950   2.232
    8CHTO   H15 3347   6.460   8.876   2.206
    8CHTO    O6 3348   6.574   9.025   2.115
    8CHTO    H1 3349   6.606   8.967   2.048
    8CHTO    C3 3350   6.665   8.875   2.295
    8CHTO   H16 3351   6.745   8.948   2.313
    8CHTO    N1 3352   6.723   8.771   2.202
    8CHTO    H8 3353   6.667   8.768   2.109
    8CHTO    H9 3354   6.723   8.673   2.247
    8CHTO    C4 3355   6.627   8.816   2.436
    8CHTO   H17 3356   6.551   8.740   2.423
    8CHTO    O1 3357   6.578   8.922   2.520
    8CHTO    C5 3358   6.455   8.982   2.476
    8CHTO   H18 3359   6.377   8.905   2.469
    8CHTO   C16 3360   6.416   9.082   2.587
    8CHTO   O11 3361   6.291   9.147   2.564
    8CHTO    H5 3362   6.273   9.207   2.634
    8CHTO    O3 3363   6.741   8.763   2.507
    8CHTO    C6 3364   6.713   8.644   2.590
    8CHTO   H19 3365   6.606   8.627   2.604
    8CHTO    C8 3366   6.774   8.517   2.523
    8CHTO   H21 3367   6.880   8.534   2.507
    8CHTO    O7 3368   6.708   8.499   2.396
    8CHTO    H2 3369   6.747   8.428   2.349
    8CHTO   C12 3370   6.757   8.391   2.617
    8CHTO   H25 3371   6.647   8.372   2.625
    8CHTO    N3 3372   6.818   8.268   2.557
    8CHTO   H12 3373   6.770   8.244   2.463
    8CHTO   H13 3374   6.924   8.283   2.543
    8CHTO   C15 3375   6.812   8.425   2.760
    8CHTO   H28 3376   6.921   8.435   2.761
    8CHTO   O10 3377   6.770   8.322   2.867
    8CHTO    H4 3378   6.808   8.238   2.847
    8CHTO    O5 3379   6.752   8.545   2.812
    8CHTO   C10 3380   6.774   8.662   2.732
    8CHTO   H23 3381   6.882   8.680   2.724
    8CHTO   C17 3382   6.712   8.781   2.805
    8CHTO   O12 3383   6.778   8.807   2.930
    8CHTO    H6 3384   6.759   8.738   0.050
    9CHTO  H203 3385   8.106   4.501   0.132
    9CHTO   O82 3386   8.151   4.579   0.105
    9CHTO  C123 3387   8.173   4.579   2.904
    9CHTO  H227 3388   8.221   4.674   2.876
    9CHTO   O77 3389   8.266   4.468   2.883
    9CHTO  C118 3390   8.314   4.458   2.748
    9CHTO  H222 3391   8.360   4.553   2.718
    9CHTO  C125 3392   8.422   4.345   2.742
    9CHTO   O84 3393   8.536   4.379   2.821
    9CHTO  H205 3394   8.582   4.451   2.783
    9CHTO  C114 3395   8.197   4.427   2.653
    9CHTO  H218 3396   8.156   4.329   2.679
    9CHTO  C116 3397   8.081   4.531   2.667
    9CHTO  H220 3398   8.115   4.628   2.622
    9CHTO   O79 3399   7.970   4.486   2.588
    9CHTO  H201 3400   7.901   4.550   2.590
    9CHTO  C120 3401   8.042   4.553   2.820
    9CHTO  H224 3402   7.993   4.460   2.854
    9CHTO   N21 3403   7.943   4.664   2.834
    9CHTO  H211 3404   7.954   4.712   2.930
    9CHTO  H212 3405   7.843   4.626   2.822
    9CHTO   O75 3406   8.256   4.424   2.522
    9CHTO  C112 3407   8.199   4.307   2.422
    9CHTO  H216 3408   8.089   4.307   2.424
    9CHTO   O73 3409   8.253   4.181   2.467
    9CHTO  C113 3410   8.211   4.066   2.392
    9CHTO  H217 3411   8.101   4.058   2.396
    9CHTO  C124 3412   8.271   3.945   2.465
    9CHTO   O83 3413   8.219   3.820   2.420
    9CHTO  H204 3414   8.128   3.812   2.443
    9CHTO  C109 3415   8.260   4.079   2.244
    9CHTO  H213 3416   8.370   4.081   2.246
    9CHTO  C110 3417   8.206   4.213   2.184
    9CHTO  H214 3418   8.097   4.207   2.177
    9CHTO   O78 3419   8.258   4.226   2.050
    9CHTO  H200 3420   8.220   4.160   1.994
    9CHTO  C111 3421   8.248   4.332   2.274
    9CHTO  H215 3422   8.358   4.338   2.276
    9CHTO   N19 3423   8.200   4.464   2.225
    9CHTO  H207 3424   8.233   4.543   2.292
    9CHTO  H208 3425   8.237   4.483   2.126
    9CHTO   O74 3426   8.215   3.966   2.162
    9CHTO  C115 3427   8.335   3.869   2.112
    9CHTO  H219 3428   8.432   3.901   2.152
    9CHTO   O76 3429   8.315   3.718   2.163
    9CHTO  C122 3430   8.198   3.657   2.108
    9CHTO  H226 3431   8.111   3.717   2.135
    9CHTO  C126 3432   8.179   3.518   2.180
    9CHTO   O85 3433   8.051   3.460   2.152
    9CHTO  H206 3434   7.983   3.511   2.191
    9CHTO  C121 3435   8.214   3.646   1.952
    9CHTO  H225 3436   8.309   3.592   1.930
    9CHTO   O81 3437   8.108   3.572   1.890
    9CHTO  H202 3438   8.025   3.614   1.907
    9CHTO  C119 3439   8.224   3.791   1.893
    9CHTO  H223 3440   8.242   3.778   1.787
    9CHTO  C117 3441   8.342   3.877   1.954
    9CHTO  H221 3442   8.337   3.984   1.932
    9CHTO   N20 3443   8.477   3.833   1.904
    9CHTO  H209 3444   8.481   3.842   1.796
    9CHTO  H210 3445   8.496   3.731   1.933
    9CHTO   O80 3446   8.089   3.863   1.893
    9CHTO  C103 3447   8.060   3.979   1.785
    9CHTO  H190 3448   8.095   4.076   1.821
    9CHTO  C101 3449   8.113   3.957   1.637
    9CHTO  H188 3450   8.089   3.855   1.606
    9CHTO   O68 3451   8.269   3.974   1.635
    9CHTO  H168 3452   8.292   4.062   1.657
    9CHTO   C99 3453   8.044   4.059   1.534
    9CHTO  H186 3454   8.079   4.162   1.557
    9CHTO   N17 3455   8.081   4.033   1.390
    9CHTO  H174 3456   8.041   3.937   1.358
    9CHTO  H175 3457   8.044   4.113   1.327
    9CHTO   C97 3458   7.890   4.061   1.553
    9CHTO  H184 3459   7.847   3.966   1.518
    9CHTO   O64 3460   7.857   4.087   1.691
    9CHTO  C104 3461   7.902   3.986   1.782
    9CHTO  H191 3462   7.863   3.888   1.754
    9CHTO  C108 3463   7.846   4.016   1.921
    9CHTO   O71 3464   7.703   4.004   1.921
    9CHTO  H171 3465   7.670   4.024   2.006
    9CHTO   O62 3466   7.830   4.174   1.487
    9CHTO   C91 3467   7.723   4.146   1.394
    9CHTO  H178 3468   7.760   4.071   1.324
    9CHTO   C92 3469   7.701   4.277   1.310
    9CHTO  H179 3470   7.797   4.316   1.274
    9CHTO   O66 3471   7.627   4.244   1.191
    9CHTO  H166 3472   7.543   4.208   1.213
    9CHTO   C93 3473   7.620   4.388   1.390
    9CHTO  H180 3474   7.583   4.459   1.316
    9CHTO   N16 3475   7.705   4.469   1.481
    9CHTO  H172 3476   7.752   4.405   1.554
    9CHTO  H173 3477   7.779   4.523   1.424
    9CHTO   C94 3478   7.497   4.324   1.466
    9CHTO  H181 3479   7.510   4.324   1.574
    9CHTO   O61 3480   7.475   4.186   1.428
    9CHTO   C95 3481   7.586   4.099   1.460
    9CHTO  H182 3482   7.598   4.096   1.568
    9CHTO  C106 3483   7.547   3.954   1.414
    9CHTO   O69 3484   7.432   3.905   1.486
    9CHTO  H169 3485   7.454   3.892   1.576
    9CHTO   O63 3486   7.368   4.400   1.429
    9CHTO   C96 3487   7.261   4.411   1.548
    9CHTO  H183 3488   7.312   4.457   1.634
    9CHTO   C98 3489   7.196   4.278   1.596
    9CHTO  H185 3490   7.161   4.221   1.509
    9CHTO   O67 3491   7.298   4.196   1.657
    9CHTO  H167 3492   7.264   4.112   1.679
    9CHTO  C102 3493   7.074   4.300   1.700
    9CHTO  H189 3494   7.120   4.338   1.793
    9CHTO   N18 3495   7.000   4.177   1.738
    9CHTO  H176 3496   7.068   4.108   1.786
    9CHTO  H177 3497   6.958   4.131   1.650
    9CHTO  C105 3498   6.980   4.411   1.645
    9CHTO  H192 3499   6.928   4.372   1.557
    9CHTO   O65 3500   7.053   4.529   1.608
    9CHTO  C100 3501   7.148   4.510   1.503
    9CHTO  H187 3502   7.096   4.467   1.415
    9CHTO  C107 3503   7.204   4.648   1.462
    9CHTO   O70 3504   7.101   4.735   1.413
    9CHTO  H170 3505   7.045   4.760   1.484
    9CHTO   O57 3506   6.873   4.449   1.762
    9CHTO   C85 3507   6.756   4.526   1.729
    9CHTO  H157 3508   6.721   4.485   1.632
    9CHTO   C83 3509   6.795   4.675   1.698
    9CHTO  H155 3510   6.840   4.677   1.598
    9CHTO   O56 3511   6.897   4.721   1.789
    9CHTO  H135 3512   6.975   4.670   1.779
    9CHTO   C81 3513   6.667   4.763   1.697
    9CHTO  H153 3514   6.596   4.719   1.626
    9CHTO   N14 3515   6.689   4.900   1.646
    9CHTO  H141 3516   6.733   4.897   1.548
    9CHTO  H142 3517   6.596   4.953   1.641
    9CHTO   C79 3518   6.602   4.759   1.839
    9CHTO  H151 3519   6.515   4.825   1.837
    9CHTO   O52 3520   6.551   4.624   1.863
    9CHTO   C86 3521   6.644   4.513   1.842
    9CHTO  H158 3522   6.690   4.499   1.942
    9CHTO   C90 3523   6.559   4.386   1.817
    9CHTO   O60 3524   6.638   4.267   1.806
    9CHTO  H138 3525   6.677   4.247   1.889
    9CHTO   O50 3526   6.689   4.799   1.947
    9CHTO   C73 3527   6.691   4.873   2.070
    9CHTO  H145 3528   6.604   4.846   2.132
    9CHTO   C74 3529   6.688   5.026   2.042
    9CHTO  H146 3530   6.597   5.046   1.982
    9CHTO   O54 3531   6.668   5.095   2.167
    9CHTO  H133 3532   6.741   5.082   2.224
    9CHTO   C75 3533   6.819   5.070   1.965
    9CHTO  H147 3534   6.820   5.020   1.867
    9CHTO   N13 3535   6.828   5.215   1.935
    9CHTO  H139 3536   6.828   5.272   2.026
    9CHTO  H140 3537   6.919   5.236   1.880
    9CHTO   C76 3538   6.950   5.018   2.043
    9CHTO  H148 3539   6.962   5.077   2.134
    9CHTO   O49 3540   6.939   4.877   2.077
    9CHTO   C77 3541   6.821   4.841   2.150
    9CHTO  H149 3542   6.820   4.897   2.244
    9CHTO   C88 3543   6.833   4.694   2.193
    9CHTO   O58 3544   6.867   4.604   2.080
    9CHTO  H136 3545   6.872   4.515   2.111
    9CHTO   O51 3546   7.078   5.025   1.946
    9CHTO   C78 3547   7.212   5.004   2.024
    9CHTO  H150 3548   7.193   4.969   2.128
    9CHTO   C80 3549   7.291   5.137   2.031
    9CHTO  H152 3550   7.305   5.175   1.927
    9CHTO   O55 3551   7.208   5.231   2.102
    9CHTO  H134 3552   7.248   5.316   2.101
    9CHTO   C84 3553   7.432   5.118   2.100
    9CHTO  H156 3554   7.414   5.091   2.204
    9CHTO   N15 3555   7.515   5.244   2.101
    9CHTO  H143 3556   7.463   5.325   2.055
    9CHTO  H144 3557   7.539   5.271   2.202
    9CHTO   C87 3558   7.509   5.001   2.034
    9CHTO  H159 3559   7.539   5.028   1.932
    9CHTO   O53 3560   7.417   4.875   2.030
    9CHTO   C82 3561   7.297   4.897   1.954
    9CHTO  H154 3562   7.323   4.930   1.853
    9CHTO   C89 3563   7.222   4.762   1.939
    9CHTO   O59 3564   7.190   4.702   2.065
    9CHTO  H137 3565   7.269   4.674   2.108
    9CHTO   O45 3566   7.645   4.965   2.120
    9CHTO   C67 3567   7.696   4.831   2.105
    9CHTO  H124 3568   7.615   4.760   2.122
    9CHTO   C65 3569   7.755   4.806   1.962
    9CHTO  H122 3570   7.782   4.904   1.922
    9CHTO   O44 3571   7.648   4.751   1.882
    9CHTO  H102 3572   7.674   4.747   1.792
    9CHTO   C63 3573   7.891   4.725   1.965
    9CHTO  H120 3574   7.970   4.792   1.999
    9CHTO   N11 3575   7.946   4.685   1.831
    9CHTO  H108 3576   8.046   4.647   1.842
    9CHTO  H109 3577   7.884   4.610   1.787
    9CHTO   C61 3578   7.884   4.610   2.072
    9CHTO  H118 3579   7.986   4.572   2.081
    9CHTO   O40 3580   7.847   4.661   2.205
    9CHTO   C68 3581   7.802   4.800   2.216
    9CHTO  H125 3582   7.890   4.867   2.205
    9CHTO   C72 3583   7.746   4.823   2.358
    9CHTO   O48 3584   7.846   4.807   2.460
    9CHTO  H105 3585   7.808   4.821   2.544
    9CHTO   O38 3586   7.799   4.500   2.030
    9CHTO   C55 3587   7.709   4.430   2.118
    9CHTO  H112 3588   7.648   4.504   2.173
    9CHTO   C56 3589   7.783   4.329   2.216
    9CHTO  H113 3590   7.847   4.264   2.154
    9CHTO   O42 3591   7.872   4.401   2.304
    9CHTO  H100 3592   7.940   4.442   2.255
    9CHTO   C57 3593   7.680   4.243   2.299
    9CHTO  H114 3594   7.628   4.311   2.367
    9CHTO   N10 3595   7.744   4.138   2.383
    9CHTO  H106 3596   7.769   4.180   2.480
    9CHTO  H107 3597   7.678   4.054   2.397
    9CHTO   C58 3598   7.574   4.180   2.204
    9CHTO  H115 3599   7.622   4.100   2.144
    9CHTO   O37 3600   7.517   4.279   2.117
    9CHTO   C59 3601   7.608   4.349   2.032
    9CHTO  H116 3602   7.661   4.277   1.968
    9CHTO   C70 3603   7.528   4.443   1.940
    9CHTO   O46 3604   7.440   4.372   1.852
    9CHTO  H103 3605   7.489   4.324   1.789
    9CHTO   O39 3606   7.445   4.123   2.287
    9CHTO   C60 3607   7.434   3.980   2.306
    9CHTO  H117 3608   7.530   3.932   2.286
    9CHTO   C62 3609   7.392   3.951   2.454
    9CHTO  H119 3610   7.474   3.991   2.517
    9CHTO   O43 3611   7.272   4.023   2.486
    9CHTO  H101 3612   7.200   3.993   2.433
    9CHTO   C66 3613   7.379   3.792   2.477
    9CHTO  H123 3614   7.474   3.745   2.449
    9CHTO   N12 3615   7.357   3.759   2.620
    9CHTO  H110 3616   7.435   3.693   2.657
    9CHTO  H111 3617   7.259   3.716   2.636
    9CHTO   C69 3618   7.270   3.735   2.382
    9CHTO  H126 3619   7.172   3.784   2.403
    9CHTO   O41 3620   7.313   3.766   2.235
    9CHTO   C64 3621   7.331   3.918   2.207
    9CHTO  H121 3622   7.233   3.970   2.220
    9CHTO   C71 3623   7.376   3.935   2.060
    9CHTO   O47 3624   7.274   3.890   1.970
    9CHTO  H104 3625   7.304   3.901   1.882
    9CHTO   O34 3626   7.253   3.580   2.399
    9CHTO   C49 3627   7.219   3.441   2.343
    9CHTO   H91 3628   7.127   3.452   2.285
    9CHTO   C47 3629   7.198   3.345   2.462
    9CHTO   H89 3630   7.161   3.251   2.415
    9CHTO   O33 3631   7.096   3.394   2.550
    9CHTO   H70 3632   7.074   3.329   2.614
    9CHTO   C45 3633   7.336   3.321   2.544
    9CHTO   H87 3634   7.337   3.389   2.630
    9CHTO    N8 3635   7.337   3.181   2.595
    9CHTO   H75 3636   7.426   3.166   2.655
    9CHTO   H76 3637   7.249   3.164   2.655
    9CHTO   C43 3638   7.464   3.364   2.455
    9CHTO   H85 3639   7.469   3.473   2.465
    9CHTO   O29 3640   7.446   3.324   2.318
    9CHTO   C50 3641   7.332   3.383   2.252
    9CHTO   H92 3642   7.370   3.466   2.190
    9CHTO   C54 3643   7.279   3.283   2.146
    9CHTO   O36 3644   7.250   3.153   2.200
    9CHTO   H72 3645   7.177   3.158   2.259
    9CHTO   O27 3646   7.589   3.317   2.508
    9CHTO   C37 3647   7.701   3.388   2.563
    9CHTO   H79 3648   7.782   3.317   2.587
    9CHTO   C38 3649   7.760   3.489   2.458
    9CHTO   H80 3650   7.675   3.543   2.412
    9CHTO   O31 3651   7.825   3.410   2.357
    9CHTO   H68 3652   7.853   3.466   2.286
    9CHTO   C39 3653   7.859   3.594   2.523
    9CHTO   H81 3654   7.950   3.541   2.550
    9CHTO    N7 3655   7.898   3.703   2.427
    9CHTO   H73 3656   7.810   3.759   2.397
    9CHTO   H74 3657   7.970   3.769   2.473
    9CHTO   C40 3658   7.797   3.653   2.655
    9CHTO   H82 3659   7.708   3.712   2.630
    9CHTO   O26 3660   7.765   3.544   2.743
    9CHTO   C41 3661   7.657   3.460   2.693
    9CHTO   H83 3662   7.569   3.523   2.673
    9CHTO   C52 3663   7.618   3.362   2.806
    9CHTO   O35 3664   7.730   3.273   2.849
    9CHTO   H71 3665   7.700   3.216   2.917
    9CHTO   O28 3666   7.887   3.733   2.733
    9CHTO   C42 3667   7.834   3.837   2.821
    9CHTO   H84 3668   7.913   3.851   2.895
    9CHTO   C44 3669   7.704   3.802   2.902
    9CHTO   H86 3670   7.628   3.767   2.833
    9CHTO   O32 3671   7.739   3.692   0.048
    9CHTO   H69 3672   7.662   3.661   0.093
    9CHTO   C48 3673   7.644   3.925   0.040
    9CHTO   H90 3674   7.715   3.953   0.117
    9CHTO    N9 3675   7.517   3.890   0.111
    9CHTO   H77 3676   7.442   3.856   0.040
    9CHTO   H78 3677   7.535   3.814   0.185
    9CHTO   C51 3678   7.628   4.045   2.881
    9CHTO   H93 3679   7.564   4.011   2.799
    9CHTO   O30 3680   7.759   4.080   2.835
    9CHTO   C46 3681   7.819   3.973   2.745
    9CHTO   H88 3682   7.753   3.959   2.660
    9CHTO   C53 3683   7.956   4.026   2.695
    9CHTO   O72 3684   8.045   4.058   2.802
    9CHTO  H199 3685   8.127   4.088   2.767
    9CHTO   O22 3686   7.575   4.165   0.000
    9CHTO   C31 3687   7.509   4.269   2.861
    9CHTO   H59 3688   7.471   4.344   2.934
    9CHTO   C29 3689   7.603   4.345   2.764
    9CHTO   H57 3690   7.645   4.272   2.693
    9CHTO   O21 3691   7.714   4.397   2.840
    9CHTO   H37 3692   7.766   4.327   2.875
    9CHTO   C27 3693   7.527   4.458   2.684
    9CHTO   H55 3694   7.491   4.534   2.755
    9CHTO    N5 3695   7.612   4.525   2.582
    9CHTO   H43 3696   7.699   4.567   2.630
    9CHTO   H44 3697   7.556   4.603   2.533
    9CHTO   C25 3698   7.399   4.395   2.616
    9CHTO   H53 3699   7.431   4.321   2.541
    9CHTO   O17 3700   7.317   4.327   2.715
    9CHTO   C32 3701   7.384   4.218   2.782
    9CHTO   H60 3702   7.416   4.146   2.708
    9CHTO   C36 3703   7.282   4.150   2.877
    9CHTO   O25 3704   7.181   4.081   2.802
    9CHTO   H40 3705   7.218   4.005   2.761
    9CHTO   O15 3706   7.309   4.507   2.545
    9CHTO   C19 3707   7.205   4.486   2.445
    9CHTO   H47 3708   7.179   4.588   2.412
    9CHTO   C20 3709   7.254   4.405   2.321
    9CHTO   H48 3710   7.294   4.307   2.350
    9CHTO   O19 3711   7.361   4.481   2.262
    9CHTO   H35 3712   7.437   4.479   2.318
    9CHTO   C21 3713   7.138   4.381   2.216
    9CHTO   H49 3714   7.110   4.477   2.173
    9CHTO    N4 3715   7.180   4.295   2.102
    9CHTO   H41 3716   7.209   4.197   2.138
    9CHTO   H42 3717   7.098   4.284   2.032
    9CHTO   C22 3718   7.013   4.326   2.289
    9CHTO   H50 3719   7.036   4.226   2.327
    9CHTO   O14 3720   6.975   4.411   2.398
    9CHTO   C23 3721   7.074   4.423   2.502
    9CHTO   H51 3722   7.091   4.323   2.544
    9CHTO   C34 3723   7.011   4.511   2.611
    9CHTO   O23 3724   7.093   4.522   2.727
    9CHTO   H38 3725   7.170   4.572   2.707
    9CHTO   O16 3726   6.899   4.324   2.201
    9CHTO   C24 3727   6.788   4.219   2.233
    9CHTO   H52 3728   6.778   4.201   2.340
    9CHTO   C26 3729   6.820   4.087   2.160
    9CHTO   H54 3730   6.852   4.111   2.055
    9CHTO   O20 3731   6.932   4.023   2.225
    9CHTO   H36 3732   7.010   4.075   2.214
    9CHTO   C30 3733   6.698   3.990   2.152
    9CHTO   H58 3734   6.675   3.950   2.252
    9CHTO    N6 3735   6.726   3.873   2.065
    9CHTO   H45 3736   6.810   3.818   2.103
    9CHTO   H46 3737   6.639   3.808   2.061
    9CHTO   C33 3738   6.571   4.069   2.106
    9CHTO   H61 3739   6.589   4.108   2.004
    9CHTO   O18 3740   6.552   4.180   2.195
    9CHTO   C28 3741   6.654   4.279   2.184
    9CHTO   H56 3742   6.665   4.312   2.081
    9CHTO   C35 3743   6.613   4.401   2.269
    9CHTO   O24 3744   6.495   4.464   2.217
    9CHTO   H39 3745   6.473   4.538   2.271
    9CHTO    O9 3746   6.452   3.988   2.096
    9CHTO   C13 3747   6.351   4.038   1.977
    9CHTO   H26 3748   6.408   4.037   1.882
    9CHTO   C11 3749   6.295   4.184   2.010
    9CHTO   H24 3750   6.376   4.256   1.991
    9CHTO    O8 3751   6.259   4.196   2.149
    9CHTO    H3 3752   6.334   4.186   2.203
    9CHTO    C9 3753   6.177   4.211   1.914
    9CHTO   H22 3754   6.213   4.184   1.814
    9CHTO    N2 3755   6.141   4.355   1.902
    9CHTO   H10 3756   6.227   4.413   1.873
    9CHTO   H11 3757   6.062   4.367   1.829
    9CHTO    C7 3758   6.058   4.114   1.954
    9CHTO   H20 3759   6.002   4.099   1.859
    9CHTO    O4 3760   6.105   3.987   2.004
    9CHTO   C14 3761   6.230   3.936   1.954
    9CHTO   H27 3762   6.218   3.918   1.845
    9CHTO   C18 3763   6.252   3.798   2.020
    9CHTO   O13 3764   6.366   3.731   1.966
    9CHTO    H7 3765   6.375   3.647   2.007
    9CHTO    O2 3766   5.960   4.181   2.067
    9CHTO    C1 3767   5.852   4.099   2.113
    9CHTO   H14 3768   5.878   3.991   2.102
    9CHTO    C2 3769   5.716   4.126   2.037
    9CHTO   H15 3770   5.700   4.235   2.040
    9CHTO    O6 3771   5.731   4.083   1.900
    9CHTO    H1 3772   5.654   4.106   1.851
    9CHTO    C3 3773   5.593   4.051   2.110
    9CHTO   H16 3774   5.606   3.942   2.097
    9CHTO    N1 3775   5.461   4.088   2.049
    9CHTO    H8 3776   5.445   4.194   2.057
    9CHTO    H9 3777   5.458   4.058   1.945
    9CHTO    C4 3778   5.598   4.078   2.265
    9CHTO   H17 3779   5.576   4.183   2.283
    9CHTO    O1 3780   5.728   4.044   2.318
    9CHTO    C5 3781   5.835   4.124   2.265
    9CHTO   H18 3782   5.813   4.230   2.280
    9CHTO   C16 3783   5.964   4.089   2.343
    9CHTO   O11 3784   5.954   4.129   2.481
    9CHTO    H5 3785   6.034   4.106   2.526
    9CHTO    O3 3786   5.506   3.995   2.338
    9CHTO    C6 3787   5.470   4.049   2.470
    9CHTO   H19 3788   5.536   4.130   2.502
    9CHTO    C8 3789   5.324   4.105   2.467
    9CHTO   H21 3790   5.257   4.027   2.430
    9CHTO    O7 3791   5.323   4.217   2.375
    9CHTO    H2 3792   5.336   4.187   2.287
    9CHTO   C12 3793   5.277   4.148   2.612
    9CHTO   H25 3794   5.339   4.236   2.639
    9CHTO    N3 3795   5.134   4.196   2.614
    9CHTO   H12 3796   5.073   4.132   2.676
    9CHTO   H13 3797   5.094   4.202   2.514
    9CHTO   C15 3798   5.308   4.033   2.714
    9CHTO   H28 3799   5.242   3.947   2.699
    9CHTO   O10 3800   5.297   4.079   2.861
    9CHTO    H4 3801   5.302   4.004   2.918
    9CHTO    O5 3802   5.444   3.990   2.706
    9CHTO   C10 3803   5.479   3.937   2.577
    9CHTO   H23 3804   5.410   3.857   2.552
    9CHTO   C17 3805   5.619   3.874   2.587
    9CHTO   O12 3806   5.721   3.970   2.619
    9CHTO    H6 3807   5.804   3.927   2.625
   10CHTO  H203 3808   5.386   6.606   2.203
   10CHTO   O82 3809   5.369   6.599   2.111
   10CHTO  C123 3810   5.244   6.662   2.077
   10CHTO  H227 3811   5.230   6.655   1.968
   10CHTO   O77 3812   5.145   6.578   2.144
   10CHTO  C118 3813   5.008   6.620   2.130
   10CHTO  H222 3814   4.981   6.625   2.024
   10CHTO  C125 3815   4.916   6.514   2.200
   10CHTO   O84 3816   4.921   6.389   2.130
   10CHTO  H205 3817   4.867   6.326   2.175
   10CHTO  C114 3818   4.993   6.760   2.194
   10CHTO  H218 3819   5.030   6.755   2.296
   10CHTO  C116 3820   5.084   6.859   2.116
   10CHTO  H220 3821   5.053   6.862   2.009
   10CHTO   O79 3822   5.063   6.992   2.168
   10CHTO  H201 3823   5.113   7.054   2.119
   10CHTO  C120 3824   5.234   6.811   2.127
   10CHTO  H224 3825   5.262   6.817   2.234
   10CHTO   N21 3826   5.327   6.901   2.053
   10CHTO  H211 3827   5.337   6.869   1.950
   10CHTO  H212 3828   5.424   6.903   2.101
   10CHTO   O75 3829   4.853   6.794   2.191
   10CHTO  C112 3830   4.797   6.835   2.342
   10CHTO  H216 3831   4.878   6.883   2.399
   10CHTO   O73 3832   4.754   6.714   2.406
   10CHTO  C113 3833   4.716   6.731   2.543
   10CHTO  H217 3834   4.801   6.776   2.599
   10CHTO  C124 3835   4.692   6.590   2.600
   10CHTO   O83 3836   4.682   6.588   2.743
   10CHTO  H204 3837   4.603   6.632   2.770
   10CHTO  C109 3838   4.591   6.823   2.552
   10CHTO  H213 3839   4.509   6.769   2.502
   10CHTO  C110 3840   4.619   6.958   2.479
   10CHTO  H214 3841   4.692   7.014   2.538
   10CHTO   O78 3842   4.497   7.035   2.478
   10CHTO  H200 3843   4.513   7.120   2.443
   10CHTO  C111 3844   4.675   6.934   2.335
   10CHTO  H215 3845   4.596   6.887   2.274
   10CHTO   N19 3846   4.714   7.060   2.265
   10CHTO  H207 3847   4.628   7.124   2.254
   10CHTO  H208 3848   4.791   7.111   2.322
   10CHTO   O74 3849   4.556   6.847   2.691
   10CHTO  C115 3850   4.404   6.806   2.729
   10CHTO  H219 3851   4.334   6.836   2.651
   10CHTO   O76 3852   4.388   6.648   2.741
   10CHTO  C122 3853   4.264   6.599   2.794
   10CHTO  H226 3854   4.277   6.492   2.812
   10CHTO  C126 3855   4.151   6.611   2.686
   10CHTO   O85 3856   4.027   6.553   2.729
   10CHTO  H206 3857   4.036   6.460   2.737
   10CHTO  C121 3858   4.226   6.669   2.929
   10CHTO  H225 3859   4.123   6.637   0.015
   10CHTO   O81 3860   4.312   6.621   0.093
   10CHTO  H202 3861   4.401   6.648   0.077
   10CHTO  C119 3862   4.229   6.824   2.917
   10CHTO  H223 3863   4.151   6.850   2.845
   10CHTO  C117 3864   4.365   6.879   2.862
   10CHTO  H221 3865   4.451   6.866   2.928
   10CHTO   N20 3866   4.358   7.028   2.838
   10CHTO  H209 3867   4.424   7.081   2.905
   10CHTO  H210 3868   4.257   7.065   2.848
   10CHTO   O80 3869   4.175   6.891   0.104
   10CHTO  C103 3870   4.041   6.969   0.101
   10CHTO  H190 3871   4.044   7.049   0.026
   10CHTO  C101 3872   3.909   6.883   0.079
   10CHTO  H188 3873   3.917   6.792   0.138
   10CHTO   O68 3874   3.901   6.842   2.869
   10CHTO  H168 3875   3.828   6.785   2.856
   10CHTO   C99 3876   3.779   6.964   0.126
   10CHTO  H186 3877   3.767   7.055   0.064
   10CHTO   N17 3878   3.651   6.886   0.115
   10CHTO  H174 3879   3.635   6.856   0.012
   10CHTO  H175 3880   3.655   6.800   0.180
   10CHTO   C97 3881   3.804   7.014   0.271
   10CHTO  H184 3882   3.823   6.925   0.334
   10CHTO   O64 3883   3.916   7.104   0.269
   10CHTO  C104 3884   4.041   7.039   0.243
   10CHTO  H191 3885   4.060   6.964   0.319
   10CHTO  C108 3886   4.154   7.142   0.255
   10CHTO   O71 3887   4.140   7.249   0.161
   10CHTO  H171 3888   4.211   7.310   0.172
   10CHTO   O62 3889   3.701   7.098   0.328
   10CHTO   C91 3890   3.628   7.042   0.439
   10CHTO  H178 3891   3.607   6.937   0.417
   10CHTO   C92 3892   3.489   7.114   0.447
   10CHTO  H179 3893   3.506   7.222   0.459
   10CHTO   O66 3894   3.421   7.098   0.321
   10CHTO  H166 3895   3.467   7.144   0.253
   10CHTO   C93 3896   3.397   7.059   0.565
   10CHTO  H180 3897   3.357   6.963   0.531
   10CHTO   N16 3898   3.278   7.144   0.590
   10CHTO  H172 3899   3.216   7.148   0.502
   10CHTO  H173 3900   3.309   7.244   0.618
   10CHTO   C94 3901   3.478   7.035   0.698
   10CHTO  H181 3902   3.492   7.128   0.755
   10CHTO   O61 3903   3.608   6.980   0.675
   10CHTO   C95 3904   3.692   7.052   0.584
   10CHTO  H182 3905   3.697   7.157   0.615
   10CHTO  C106 3906   3.836   6.992   0.597
   10CHTO   O69 3907   3.889   7.007   0.730
   10CHTO  H169 3908   3.841   6.954   0.790
   10CHTO   O63 3909   3.397   6.927   0.786
   10CHTO   C96 3910   3.476   6.867   0.909
   10CHTO  H183 3911   3.561   6.932   0.931
   10CHTO   C98 3912   3.530   6.722   0.885
   10CHTO  H185 3913   3.451   6.662   0.837
   10CHTO   O67 3914   3.636   6.729   0.788
   10CHTO  H167 3915   3.603   6.755   0.704
   10CHTO  C102 3916   3.581   6.649   1.018
   10CHTO  H189 3917   3.673   6.701   1.048
   10CHTO   N18 3918   3.619   6.506   1.001
   10CHTO  H176 3919   3.701   6.498   0.931
   10CHTO  H177 3920   3.535   6.449   0.965
   10CHTO  C105 3921   3.475   6.669   1.130
   10CHTO  H192 3922   3.384   6.616   1.103
   10CHTO   O65 3923   3.444   6.809   1.147
   10CHTO  C100 3924   3.380   6.869   1.034
   10CHTO  H187 3925   3.289   6.811   1.009
   10CHTO  C107 3926   3.338   7.013   1.070
   10CHTO   O70 3927   3.242   7.015   1.177
   10CHTO  H170 3928   3.283   6.987   1.257
   10CHTO   O57 3929   3.535   6.611   1.269
   10CHTO   C85 3930   3.445   6.586   1.378
   10CHTO  H157 3931   3.353   6.541   1.333
   10CHTO   C83 3932   3.399   6.722   1.441
   10CHTO  H155 3933   3.340   6.776   1.366
   10CHTO   O56 3934   3.515   6.803   1.468
   10CHTO  H135 3935   3.489   6.888   1.496
   10CHTO   C81 3936   3.309   6.696   1.565
   10CHTO  H153 3937   3.223   6.636   1.533
   10CHTO   N14 3938   3.247   6.820   1.621
   10CHTO  H141 3939   3.286   6.907   1.573
   10CHTO  H142 3940   3.264   6.827   1.726
   10CHTO   C79 3941   3.390   6.612   1.671
   10CHTO  H151 3942   3.322   6.591   1.754
   10CHTO   O52 3943   3.428   6.483   1.613
   10CHTO   C86 3944   3.507   6.493   1.490
   10CHTO  H158 3945   3.606   6.531   1.523
   10CHTO   C90 3946   3.532   6.349   1.439
   10CHTO   O60 3947   3.630   6.344   1.334
   10CHTO  H138 3948   3.596   6.384   1.257
   10CHTO   O50 3949   3.506   6.680   1.720
   10CHTO   C73 3950   3.571   6.674   1.848
   10CHTO  H145 3951   3.557   6.575   1.893
   10CHTO   C74 3952   3.511   6.782   1.943
   10CHTO  H146 3953   3.403   6.763   1.949
   10CHTO   O54 3954   3.564   6.757   2.075
   10CHTO  H133 3955   3.526   6.817   2.137
   10CHTO   C75 3956   3.544   6.926   1.887
   10CHTO  H147 3957   3.497   6.936   1.787
   10CHTO   N13 3958   3.488   7.036   1.968
   10CHTO  H139 3959   3.530   7.034   2.068
   10CHTO  H140 3960   3.511   7.132   1.923
   10CHTO   C76 3961   3.702   6.939   1.867
   10CHTO  H148 3962   3.749   6.932   1.965
   10CHTO   O49 3963   3.751   6.832   1.781
   10CHTO   C77 3964   3.724   6.699   1.828
   10CHTO  H149 3965   3.775   6.683   1.924
   10CHTO   C88 3966   3.791   6.603   1.728
   10CHTO   O58 3967   3.766   6.464   1.761
   10CHTO  H136 3968   3.809   6.409   1.698
   10CHTO   O51 3969   3.743   7.074   1.789
   10CHTO   C78 3970   3.898   7.103   1.811
   10CHTO  H150 3971   3.949   7.015   1.858
   10CHTO   C80 3972   3.917   7.225   1.903
   10CHTO  H152 3973   3.873   7.315   1.853
   10CHTO   O55 3974   3.844   7.200   2.025
   10CHTO  H134 3975   3.752   7.203   2.009
   10CHTO   C84 3976   4.070   7.250   1.932
   10CHTO  H156 3977   4.106   7.165   1.991
   10CHTO   N15 3978   4.095   7.372   2.016
   10CHTO  H143 3979   4.200   7.384   2.034
   10CHTO  H144 3980   4.059   7.459   1.965
   10CHTO   C87 3981   4.153   7.254   1.800
   10CHTO  H159 3982   4.140   7.350   1.750
   10CHTO   O53 3983   4.110   7.137   1.703
   10CHTO   C82 3984   3.969   7.130   1.678
   10CHTO  H154 3985   3.934   7.223   1.633
   10CHTO   C89 3986   3.942   7.017   1.576
   10CHTO   O59 3987   4.005   7.045   1.450
   10CHTO  H137 3988   3.987   6.974   1.390
   10CHTO   O45 3989   4.311   7.226   1.834
   10CHTO   C67 3990   4.403   7.329   1.794
   10CHTO  H124 3991   4.351   7.405   1.735
   10CHTO   C65 3992   4.466   7.399   1.921
   10CHTO  H122 3993   4.440   7.335   2.006
   10CHTO   O44 3994   4.399   7.525   1.938
   10CHTO  H102 3995   4.427   7.586   1.871
   10CHTO   C63 3996   4.623   7.401   1.918
   10CHTO  H120 3997   4.660   7.299   1.928
   10CHTO   N11 3998   4.690   7.467   2.035
   10CHTO  H108 3999   4.671   7.572   2.033
   10CHTO  H109 4000   4.796   7.450   2.031
   10CHTO   C61 4001   4.670   7.452   1.777
   10CHTO  H118 4002   4.780   7.442   1.774
   10CHTO   O40 4003   4.617   7.372   1.668
   10CHTO   C68 4004   4.515   7.271   1.698
   10CHTO  H125 4005   4.564   7.184   1.745
   10CHTO   C72 4006   4.459   7.224   1.562
   10CHTO   O48 4007   4.376   7.107   1.573
   10CHTO  H105 4008   4.343   7.084   1.488
   10CHTO   O38 4009   4.630   7.588   1.752
   10CHTO   C55 4010   4.711   7.683   1.678
   10CHTO  H112 4011   4.639   7.749   1.628
   10CHTO   C56 4012   4.817   7.622   1.575
   10CHTO  H113 4013   4.886   7.557   1.631
   10CHTO   O42 4014   4.748   7.539   1.481
   10CHTO  H100 4015   4.809   7.496   1.424
   10CHTO   C57 4016   4.896   7.739   1.504
   10CHTO  H114 4017   4.824   7.792   1.442
   10CHTO   N10 4018   5.003   7.692   1.411
   10CHTO  H106 4019   4.975   7.598   1.367
   10CHTO  H107 4020   5.096   7.679   1.465
   10CHTO   C58 4021   4.953   7.838   1.609
   10CHTO  H115 4022   5.037   7.789   1.664
   10CHTO   O37 4023   4.853   7.881   1.702
   10CHTO   C59 4024   4.789   7.776   1.776
   10CHTO  H116 4025   4.864   7.719   1.831
   10CHTO   C70 4026   4.695   7.839   1.880
   10CHTO   O46 4027   4.593   7.924   1.825
   10CHTO  H103 4028   4.633   8.001   1.788
   10CHTO   O39 4029   5.006   7.973   1.532
   10CHTO   C60 4030   5.074   8.068   1.616
   10CHTO  H117 4031   5.052   8.048   1.721
   10CHTO   C62 4032   5.229   8.062   1.597
   10CHTO  H119 4033   5.261   7.962   1.633
   10CHTO   O43 4034   5.259   8.073   1.457
   10CHTO  H101 4035   5.352   8.063   1.443
   10CHTO   C66 4036   5.299   8.176   1.687
   10CHTO  H123 4037   5.275   8.157   1.792
   10CHTO   N12 4038   5.447   8.174   1.678
   10CHTO  H110 4039   5.478   8.188   1.576
   10CHTO  H111 4040   5.485   8.081   1.718
   10CHTO   C69 4041   5.239   8.315   1.651
   10CHTO  H126 4042   5.259   8.338   1.544
   10CHTO   O41 4043   5.087   8.309   1.674
   10CHTO   C64 4044   5.020   8.211   1.585
   10CHTO  H121 4045   5.042   8.235   1.479
   10CHTO   C71 4046   4.867   8.220   1.605
   10CHTO   O47 4047   4.816   8.348   1.563
   10CHTO  H104 4048   4.846   8.415   1.622
   10CHTO   O34 4049   5.298   8.432   1.736
   10CHTO   C49 4050   5.305   8.588   1.736
   10CHTO   H91 4051   5.350   8.616   1.831
   10CHTO   C47 4052   5.163   8.647   1.728
   10CHTO   H89 4053   5.174   8.755   1.752
   10CHTO   O33 4054   5.083   8.586   1.832
   10CHTO   H70 4055   4.998   8.626   1.835
   10CHTO   C45 4056   5.101   8.630   1.580
   10CHTO   H87 4057   5.100   8.523   1.555
   10CHTO    N8 4058   4.962   8.681   1.570
   10CHTO   H75 4059   4.899   8.631   1.643
   10CHTO   H76 4060   4.960   8.788   1.587
   10CHTO   C43 4061   5.200   8.696   1.472
   10CHTO   H85 4062   5.158   8.669   1.375
   10CHTO   O29 4063   5.334   8.644   1.489
   10CHTO   C50 4064   5.393   8.642   1.620
   10CHTO   H92 4065   5.481   8.576   1.614
   10CHTO   C54 4066   5.455   8.780   1.657
   10CHTO   O36 4067   5.560   8.816   1.566
   10CHTO   H72 4068   5.634   8.761   1.578
   10CHTO   O27 4069   5.199   8.840   1.475
   10CHTO   C37 4070   5.215   8.953   1.387
   10CHTO   H79 4071   5.321   8.962   1.357
   10CHTO   C38 4072   5.131   8.938   1.257
   10CHTO   H80 4073   5.026   8.917   1.285
   10CHTO   O31 4074   5.182   8.826   1.183
   10CHTO   H68 4075   5.164   8.746   1.227
   10CHTO   C39 4076   5.136   9.070   1.169
   10CHTO   H81 4077   5.238   9.080   1.133
   10CHTO    N7 4078   5.048   9.065   1.047
   10CHTO   H73 4079   4.945   9.050   1.077
   10CHTO   H74 4080   5.080   8.985   0.982
   10CHTO   C40 4081   5.105   9.197   1.256
   10CHTO   H82 4082   4.999   9.201   1.282
   10CHTO   O26 4083   5.188   9.200   1.374
   10CHTO   C41 4084   5.173   9.083   1.461
   10CHTO   H83 4085   5.068   9.075   1.492
   10CHTO   C52 4086   5.256   9.109   1.589
   10CHTO   O35 4087   5.402   9.129   1.561
   10CHTO   H71 4088   5.448   9.143   1.641
   10CHTO   O28 4089   5.143   9.320   1.189
   10CHTO   C42 4090   5.062   9.441   1.200
   10CHTO   H84 4091   5.005   9.431   1.292
   10CHTO   C44 4092   4.957   9.462   1.085
   10CHTO   H86 4093   5.010   9.459   0.990
   10CHTO   O32 4094   4.868   9.349   1.090
   10CHTO   H69 4095   4.808   9.352   1.017
   10CHTO   C48 4096   4.879   9.599   1.095
   10CHTO   H90 4097   4.810   9.593   1.180
   10CHTO    N9 4098   4.792   9.622   0.974
   10CHTO   H77 4099   4.719   9.543   0.966
   10CHTO   H78 4100   4.853   9.626   0.885
   10CHTO   C51 4101   4.977   9.720   1.122
   10CHTO   H93 4102   5.038   9.736   1.032
   10CHTO   O30 4103   5.057   9.688   1.236
   10CHTO   C46 4104   5.148   9.570   1.215
   10CHTO   H88 4105   5.205   9.586   1.123
   10CHTO   C53 4106   5.245   9.560   1.335
   10CHTO   O72 4107   5.331   9.674   1.339
   10CHTO  H199 4108   5.389   9.667   1.413
   10CHTO   O22 4109   4.907   9.841   1.157
   10CHTO   C31 4110   4.965   9.978   1.153
   10CHTO   H59 4111   4.901   0.038   1.221
   10CHTO   C29 4112   5.109   9.990   1.207
   10CHTO   H57 4113   5.172   9.920   1.148
   10CHTO   O21 4114   5.110   9.942   1.343
   10CHTO   H37 4115   5.062   0.000   1.399
   10CHTO   C27 4116   5.170   0.135   1.196
   10CHTO   H55 4117   5.115   0.201   1.264
   10CHTO    N5 4118   5.314   0.140   1.232
   10CHTO   H43 4119   5.372   0.082   1.162
   10CHTO   H44 4120   5.348   0.243   1.234
   10CHTO   C25 4121   5.145   0.192   1.052
   10CHTO   H53 4122   5.206   0.135   0.979
   10CHTO   O17 4123   5.005   0.180   1.015
   10CHTO   C32 4124   4.952   0.046   1.013
   10CHTO   H60 4125   5.006   9.986   0.939
   10CHTO   C36 4126   4.805   0.064   0.967
   10CHTO   O25 4127   4.738   9.941   0.940
   10CHTO   H40 4128   4.727   9.892   1.020
   10CHTO   O15 4129   5.184   0.347   1.043
   10CHTO   C19 4130   5.261   0.424   0.947
   10CHTO   H47 4131   5.343   0.356   0.920
   10CHTO   C20 4132   5.184   0.463   0.817
   10CHTO   H48 4133   5.096   0.526   0.839
   10CHTO   O19 4134   5.137   0.342   0.756
   10CHTO   H35 4135   5.069   0.303   0.809
   10CHTO   C21 4136   5.276   0.544   0.716
   10CHTO   H49 4137   5.357   0.478   0.683
   10CHTO    N4 4138   5.204   0.590   0.594
   10CHTO   H41 4139   5.101   0.559   0.596
   10CHTO   H42 4140   5.251   0.550   0.506
   10CHTO   C22 4141   5.344   0.662   0.793
   10CHTO   H50 4142   5.265   0.732   0.822
   10CHTO   O14 4143   5.410   0.614   0.911
   10CHTO   C23 4144   5.328   0.550   1.009
   10CHTO   H51 4145   5.253   0.622   1.044
   10CHTO   C34 4146   5.417   0.514   1.128
   10CHTO   O23 4147   5.472   0.631   1.188
   10CHTO   H38 4148   5.525   0.607   1.262
   10CHTO   O16 4149   5.442   0.732   0.712
   10CHTO   C24 4150   5.601   0.693   0.730
   10CHTO   H52 4151   5.615   0.597   0.780
   10CHTO   C26 4152   5.672   0.805   0.809
   10CHTO   H54 4153   5.660   0.901   0.754
   10CHTO   O20 4154   5.609   0.820   0.938
   10CHTO   H36 4155   5.521   0.853   0.928
   10CHTO   C30 4156   5.824   0.775   0.825
   10CHTO   H58 4157   5.836   0.693   0.897
   10CHTO    N6 4158   5.899   0.890   0.884
   10CHTO   H45 4159   5.972   0.929   0.815
   10CHTO   H46 4160   5.832   0.969   0.914
   10CHTO   C33 4161   5.890   0.724   0.692
   10CHTO   H61 4162   5.917   0.810   0.629
   10CHTO   O18 4163   5.804   0.637   0.616
   10CHTO   C28 4164   5.671   0.682   0.592
   10CHTO   H56 4165   5.671   0.781   0.544
   10CHTO   C35 4166   5.600   0.583   0.498
   10CHTO   O24 4167   5.597   0.449   0.548
   10CHTO   H39 4168   5.541   0.444   0.624
   10CHTO    O9 4169   6.015   0.659   0.724
   10CHTO   C13 4170   6.134   0.665   0.615
   10CHTO   H26 4171   6.181   0.765   0.622
   10CHTO   C11 4172   6.085   0.632   0.467
   10CHTO   H24 4173   6.010   0.707   0.438
   10CHTO    O8 4174   6.022   0.503   0.467
   10CHTO    H3 4175   5.943   0.505   0.518
   10CHTO    C9 4176   6.208   0.645   0.371
   10CHTO   H22 4177   6.230   0.753   0.368
   10CHTO    N2 4178   6.174   0.613   0.230
   10CHTO   H10 4179   6.155   0.507   0.220
   10CHTO   H11 4180   6.256   0.643   0.165
   10CHTO    C7 4181   6.336   0.574   0.433
   10CHTO   H20 4182   6.396   0.659   0.469
   10CHTO    O4 4183   6.302   0.490   0.544
   10CHTO   C14 4184   6.249   0.560   0.657
   10CHTO   H27 4185   6.331   0.615   0.707
   10CHTO   C18 4186   6.200   0.452   0.756
   10CHTO   O13 4187   6.307   0.368   0.800
   10CHTO    H7 4188   6.366   0.417   0.855
   10CHTO    O2 4189   6.425   0.486   0.332
   10CHTO    C1 4190   6.562   0.529   0.320
   10CHTO   H14 4191   6.584   0.609   0.394
   10CHTO    C2 4192   6.590   0.586   0.175
   10CHTO   H15 4193   6.547   0.512   0.106
   10CHTO    O6 4194   6.518   0.709   0.159
   10CHTO    H1 4195   6.551   0.774   0.219
   10CHTO    C3 4196   6.747   0.602   0.147
   10CHTO   H16 4197   6.787   0.682   0.211
   10CHTO    N1 4198   6.775   0.639   0.005
   10CHTO    H8 4199   6.728   0.733   2.923
   10CHTO    H9 4200   6.736   0.562   2.880
   10CHTO    C4 4201   6.821   0.471   0.191
   10CHTO   H17 4202   6.783   0.388   0.131
   10CHTO    O1 4203   6.794   0.446   0.330
   10CHTO    C5 4204   6.657   0.410   0.355
   10CHTO   H18 4205   6.629   0.324   0.295
   10CHTO   C16 4206   6.651   0.371   0.505
   10CHTO   O11 4207   6.527   0.309   0.540
   10CHTO    H5 4208   6.528   0.286   0.631
   10CHTO    O3 4209   6.964   0.481   0.176
   10CHTO    C6 4210   7.039   0.355   0.195
   10CHTO   H19 4211   6.990   0.288   0.266
   10CHTO    C8 4212   7.058   0.278   0.061
   10CHTO   H21 4213   7.105   0.345   2.930
   10CHTO    O7 4214   6.929   0.238   0.012
   10CHTO    H2 4215   6.880   0.313   2.925
   10CHTO   C12 4216   7.152   0.152   0.083
   10CHTO   H25 4217   7.094   0.081   0.146
   10CHTO    N3 4218   7.180   0.080   2.895
   10CHTO   H12 4219   7.232   0.146   2.826
   10CHTO   H13 4220   7.239   9.992   2.914
   10CHTO   C15 4221   7.282   0.194   0.160
   10CHTO   H28 4222   7.349   0.253   0.097
   10CHTO   O10 4223   7.361   0.071   0.216
   10CHTO    H4 4224   7.304   0.018   0.268
   10CHTO    O5 4225   7.251   0.267   0.280
   10CHTO   C10 4226   7.178   0.388   0.255
   10CHTO   H23 4227   7.235   0.450   0.185
   10CHTO   C17 4228   7.167   0.467   0.386
   10CHTO   O12 4229   7.296   0.510   0.433
   10CHTO    H6 4230   7.344   0.436   0.464
   11CHTO  H203 4231   7.475   4.793   2.561
   11CHTO   O82 4232   7.404   4.853   2.553
   11CHTO  C123 4233   7.445   4.984   2.597
   11CHTO  H227 4234   7.530   5.017   2.536
   11CHTO   O77 4235   7.328   5.067   2.568
   11CHTO  C118 4236   7.348   5.206   2.597
   11CHTO  H222 4237   7.437   5.243   2.545
   11CHTO  C125 4238   7.222   5.285   2.544
   11CHTO   O84 4239   7.213   5.278   2.402
   11CHTO  H205 4240   7.193   5.191   2.375
   11CHTO  C114 4241   7.366   5.224   2.749
   11CHTO  H218 4242   7.277   5.189   2.800
   11CHTO  C116 4243   7.487   5.140   2.800
   11CHTO  H220 4244   7.582   5.187   2.763
   11CHTO   O79 4245   7.493   5.150   0.003
   11CHTO  H201 4246   7.416   5.112   0.042
   11CHTO  C120 4247   7.479   4.990   2.751
   11CHTO  H224 4248   7.396   4.943   2.810
   11CHTO   N21 4249   7.603   4.915   2.784
   11CHTO  H211 4250   7.581   4.810   2.798
   11CHTO  H212 4251   7.677   4.928   2.706
   11CHTO   O75 4252   7.384   5.366   2.768
   11CHTO  C112 4253   7.295   5.429   2.890
   11CHTO  H216 4254   7.305   5.364   0.037
   11CHTO   O73 4255   7.159   5.436   2.844
   11CHTO  C113 4256   7.070   5.503   2.934
   11CHTO  H217 4257   7.078   5.458   0.094
   11CHTO  C124 4258   6.927   5.477   2.884
   11CHTO   O83 4259   6.826   5.519   0.035
   11CHTO  H204 4260   6.742   5.501   2.941
   11CHTO  C109 4261   7.110   5.653   2.937
   11CHTO  H213 4262   7.111   5.688   2.833
   11CHTO  C110 4263   7.252   5.662   0.058
   11CHTO  H214 4264   7.246   5.630   0.163
   11CHTO   O78 4265   7.296   5.799   0.058
   11CHTO  H200 4266   7.244   5.850   0.118
   11CHTO  C111 4267   7.354   5.573   2.922
   11CHTO  H215 4268   7.375   5.621   2.825
   11CHTO   N19 4269   7.484   5.559   0.051
   11CHTO  H207 4270   7.528   5.656   0.066
   11CHTO  H208 4271   7.551   5.498   2.933
   11CHTO   O74 4272   7.016   5.735   0.073
   11CHTO  C115 4273   6.978   5.876   2.941
   11CHTO  H219 4274   7.036   5.891   2.850
   11CHTO   O76 4275   6.828   5.877   2.892
   11CHTO  C122 4276   6.735   5.863   0.060
   11CHTO  H226 4277   6.737   5.758   0.091
   11CHTO  C126 4278   6.589   5.888   0.007
   11CHTO   O85 4279   6.571   6.020   2.897
   11CHTO  H206 4280   6.482   6.031   2.869
   11CHTO  C121 4281   6.769   5.956   0.183
   11CHTO  H225 4282   6.677   6.007   0.217
   11CHTO   O81 4283   6.816   5.877   0.293
   11CHTO  H202 4284   6.896   5.834   0.271
   11CHTO  C119 4285   6.874   6.065   0.145
   11CHTO  H223 4286   6.833   6.115   0.057
   11CHTO  C117 4287   7.008   5.995   0.101
   11CHTO  H221 4288   7.063   5.947   0.183
   11CHTO   N20 4289   7.103   6.096   0.045
   11CHTO  H209 4290   7.192   6.103   0.106
   11CHTO  H210 4291   7.130   6.073   2.884
   11CHTO   O80 4292   6.891   6.193   0.251
   11CHTO  C103 4293   6.819   6.192   0.392
   11CHTO  H190 4294   6.761   6.101   0.408
   11CHTO  C101 4295   6.914   6.214   0.515
   11CHTO  H188 4296   6.976   6.301   0.495
   11CHTO   O68 4297   7.004   6.092   0.527
   11CHTO  H168 4298   6.954   6.017   0.551
   11CHTO   C99 4299   6.832   6.243   0.649
   11CHTO  H186 4300   6.770   6.154   0.674
   11CHTO   N17 4301   6.918   6.272   0.769
   11CHTO  H174 4302   6.976   6.361   0.752
   11CHTO  H175 4303   6.982   6.187   0.789
   11CHTO   C97 4304   6.730   6.358   0.623
   11CHTO  H184 4305   6.787   6.451   0.604
   11CHTO   O64 4306   6.646   6.324   0.511
   11CHTO  C104 4307   6.716   6.311   0.386
   11CHTO  H191 4308   6.769   6.403   0.362
   11CHTO  C108 4309   6.613   6.292   0.274
   11CHTO   O71 4310   6.522   6.184   0.300
   11CHTO  H171 4311   6.462   6.176   0.228
   11CHTO   O62 4312   6.638   6.377   0.732
   11CHTO   C91 4313   6.559   6.497   0.728
   11CHTO  H178 4314   6.537   6.519   0.623
   11CHTO   C92 4315   6.642   6.618   0.783
   11CHTO  H179 4316   6.747   6.611   0.750
   11CHTO   O66 4317   6.591   6.737   0.721
   11CHTO  H166 4318   6.646   6.811   0.741
   11CHTO   C93 4319   6.631   6.637   0.939
   11CHTO  H180 4320   6.677   6.735   0.961
   11CHTO   N16 4321   6.712   6.539   1.015
   11CHTO  H172 4322   6.701   6.557   1.121
   11CHTO  H173 4323   6.816   6.547   0.986
   11CHTO   C94 4324   6.479   6.640   0.984
   11CHTO  H181 4325   6.460   6.573   1.068
   11CHTO   O61 4326   6.387   6.602   0.879
   11CHTO   C95 4327   6.422   6.483   0.807
   11CHTO  H182 4328   6.429   6.400   0.877
   11CHTO  C106 4329   6.305   6.448   0.708
   11CHTO   O69 4330   6.185   6.415   0.779
   11CHTO  H169 4331   6.118   6.393   0.718
   11CHTO   O63 4332   6.442   6.785   1.022
   11CHTO   C96 4333   6.450   6.819   1.173
   11CHTO  H183 4334   6.457   6.725   1.229
   11CHTO   C98 4335   6.324   6.894   1.224
   11CHTO  H185 4336   6.290   6.965   1.148
   11CHTO   O67 4337   6.218   6.796   1.235
   11CHTO  H167 4338   6.193   6.766   1.150
   11CHTO  C102 4339   6.350   6.969   1.363
   11CHTO  H189 4340   6.379   6.891   1.434
   11CHTO   N18 4341   6.233   7.037   1.425
   11CHTO  H176 4342   6.248   7.144   1.432
   11CHTO  H177 4343   6.143   7.017   1.368
   11CHTO  C105 4344   6.471   7.067   1.346
   11CHTO  H192 4345   6.434   7.168   1.327
   11CHTO   O65 4346   6.560   7.038   1.236
   11CHTO  C100 4347   6.584   6.901   1.198
   11CHTO  H187 4348   6.639   6.905   1.104
   11CHTO  C107 4349   6.675   6.828   1.301
   11CHTO   O70 4350   6.805   6.889   1.309
   11CHTO  H170 4351   6.798   6.974   1.348
   11CHTO   O57 4352   6.545   7.062   1.485
   11CHTO   C85 4353   6.578   7.186   1.549
   11CHTO  H157 4354   6.489   7.251   1.539
   11CHTO   C83 4355   6.693   7.259   1.471
   11CHTO  H155 4356   6.654   7.288   1.373
   11CHTO   O56 4357   6.801   7.166   1.447
   11CHTO  H135 4358   6.866   7.206   1.392
   11CHTO   C81 4359   6.735   7.387   1.548
   11CHTO  H153 4360   6.647   7.450   1.559
   11CHTO   N14 4361   6.832   7.473   1.474
   11CHTO  H141 4362   6.788   7.566   1.447
   11CHTO  H142 4363   6.868   7.424   1.386
   11CHTO   C79 4364   6.786   7.348   1.692
   11CHTO  H151 4365   6.810   7.440   1.744
   11CHTO   O52 4366   6.677   7.285   1.766
   11CHTO   C86 4367   6.619   7.167   1.701
   11CHTO  H158 4368   6.697   7.089   1.711
   11CHTO   C90 4369   6.497   7.118   1.782
   11CHTO   O60 4370   6.537   7.065   1.908
   11CHTO  H138 4371   6.461   7.038   1.956
   11CHTO   O50 4372   6.901   7.262   1.692
   11CHTO   C73 4373   6.988   7.219   1.797
   11CHTO  H145 4374   6.929   7.187   1.884
   11CHTO   C74 4375   7.081   7.336   1.840
   11CHTO  H146 4376   7.017   7.419   1.874
   11CHTO   O54 4377   7.156   7.294   1.956
   11CHTO  H133 4378   7.209   7.365   1.988
   11CHTO   C75 4379   7.171   7.378   1.717
   11CHTO  H147 4380   7.106   7.415   1.637
   11CHTO   N13 4381   7.264   7.490   1.746
   11CHTO  H139 4382   7.209   7.578   1.775
   11CHTO  H140 4383   7.331   7.463   1.827
   11CHTO   C76 4384   7.249   7.250   1.659
   11CHTO  H148 4385   7.326   7.221   1.730
   11CHTO   O49 4386   7.158   7.138   1.637
   11CHTO   C77 4387   7.075   7.099   1.748
   11CHTO  H149 4388   7.137   7.063   1.830
   11CHTO   C88 4389   6.991   6.979   1.702
   11CHTO   O58 4390   6.905   6.925   1.810
   11CHTO  H136 4391   6.958   6.887   1.877
   11CHTO   O51 4392   7.308   7.285   1.511
   11CHTO   C78 4393   7.404   7.172   1.456
   11CHTO  H150 4394   7.408   7.086   1.526
   11CHTO   C80 4395   7.547   7.229   1.438
   11CHTO  H152 4396   7.543   7.313   1.365
   11CHTO   O55 4397   7.588   7.281   1.565
   11CHTO  H134 4398   7.672   7.323   1.557
   11CHTO   C84 4399   7.644   7.117   1.383
   11CHTO  H156 4400   7.651   7.039   1.459
   11CHTO   N15 4401   7.784   7.166   1.360
   11CHTO  H143 4402   7.826   7.201   1.453
   11CHTO  H144 4403   7.784   7.247   1.290
   11CHTO   C87 4404   7.586   7.055   1.254
   11CHTO  H159 4405   7.591   7.126   1.172
   11CHTO   O53 4406   7.439   7.012   1.278
   11CHTO   C82 4407   7.353   7.119   1.321
   11CHTO  H154 4408   7.349   7.197   1.245
   11CHTO   C89 4409   7.210   7.059   1.331
   11CHTO   O59 4410   7.110   7.161   1.344
   11CHTO  H137 4411   7.103   7.209   1.264
   11CHTO   O45 4412   7.665   6.924   1.214
   11CHTO   C67 4413   7.678   6.903   1.072
   11CHTO  H124 4414   7.613   6.973   1.019
   11CHTO   C65 4415   7.826   6.927   1.025
   11CHTO  H122 4416   7.883   6.954   1.114
   11CHTO   O44 4417   7.827   7.038   0.933
   11CHTO  H102 4418   7.801   7.116   0.977
   11CHTO   C63 4419   7.893   6.794   0.972
   11CHTO  H120 4420   7.896   6.722   1.054
   11CHTO   N11 4421   8.037   6.804   0.935
   11CHTO  H108 4422   8.077   6.706   0.913
   11CHTO  H109 4423   8.049   6.866   0.848
   11CHTO   C61 4424   7.800   6.730   0.861
   11CHTO  H118 4425   7.835   6.626   0.847
   11CHTO   O40 4426   7.660   6.722   0.900
   11CHTO   C68 4427   7.625   6.759   1.036
   11CHTO  H125 4428   7.669   6.683   1.104
   11CHTO   C72 4429   7.471   6.749   1.051
   11CHTO   O48 4430   7.401   6.837   0.963
   11CHTO  H105 4431   7.415   6.926   0.989
   11CHTO   O38 4432   7.804   6.802   0.736
   11CHTO   C55 4433   7.743   6.734   0.624
   11CHTO  H112 4434   7.666   6.664   0.659
   11CHTO   C56 4435   7.853   6.662   0.536
   11CHTO  H113 4436   7.929   6.737   0.510
   11CHTO   O42 4437   7.919   6.561   0.615
   11CHTO  H100 4438   7.967   6.601   0.685
   11CHTO   C57 4439   7.787   6.601   0.406
   11CHTO  H114 4440   7.716   6.525   0.438
   11CHTO   N10 4441   7.884   6.535   0.314
   11CHTO  H106 4442   7.980   6.583   0.321
   11CHTO  H107 4443   7.894   6.431   0.341
   11CHTO   C58 4444   7.708   6.713   0.333
   11CHTO  H115 4445   7.780   6.793   0.301
   11CHTO   O37 4446   7.610   6.770   0.422
   11CHTO   C59 4447   7.666   6.837   0.536
   11CHTO  H116 4448   7.733   6.916   0.502
   11CHTO   C70 4449   7.552   6.904   0.614
   11CHTO   O46 4450   7.450   6.813   0.658
   11CHTO  H103 4451   7.383   6.860   0.703
   11CHTO   O39 4452   7.629   6.654   0.196
   11CHTO   C60 4453   7.503   6.715   0.162
   11CHTO  H117 4454   7.436   6.708   0.248
   11CHTO   C62 4455   7.515   6.865   0.122
   11CHTO  H119 4456   7.559   6.918   0.210
   11CHTO   O43 4457   7.606   6.879   0.012
   11CHTO  H101 4458   7.619   6.970   2.933
   11CHTO   C66 4459   7.369   6.925   0.091
   11CHTO  H123 4460   7.305   6.907   0.178
   11CHTO   N12 4461   7.370   7.072   0.070
   11CHTO  H110 4462   7.309   7.122   0.144
   11CHTO  H111 4463   7.470   7.112   0.069
   11CHTO   C69 4464   7.307   6.849   2.912
   11CHTO  H126 4465   7.366   6.868   2.820
   11CHTO   O41 4466   7.308   6.692   0.004
   11CHTO   C64 4467   7.438   6.633   0.047
   11CHTO  H121 4468   7.508   6.629   2.902
   11CHTO   C71 4469   7.412   6.488   0.094
   11CHTO   O47 4470   7.360   6.406   2.930
   11CHTO  H104 4471   7.273   6.433   2.908
   11CHTO   O34 4472   7.152   6.898   2.885
   11CHTO   C49 4473   7.046   6.794   2.846
   11CHTO   H91 4474   7.095   6.725   2.777
   11CHTO   C47 4475   6.928   6.862   2.774
   11CHTO   H89 4476   6.863   6.781   2.735
   11CHTO   O33 4477   6.980   6.938   2.663
   11CHTO   H70 4478   7.015   6.880   2.598
   11CHTO   C45 4479   6.845   6.951   2.880
   11CHTO   H87 4480   6.915   7.024   2.925
   11CHTO    N8 4481   6.735   7.027   2.814
   11CHTO   H75 4482   6.640   7.007   2.862
   11CHTO   H76 4483   6.755   7.133   2.818
   11CHTO   C43 4484   6.796   6.859   0.061
   11CHTO   H85 4485   6.752   6.928   0.134
   11CHTO   O29 4486   6.906   6.785   0.117
   11CHTO   C50 4487   6.996   6.715   0.029
   11CHTO   H92 4488   7.083   6.691   0.090
   11CHTO   C54 4489   6.944   6.574   2.929
   11CHTO   O36 4490   6.929   6.489   0.102
   11CHTO   H72 4491   6.898   6.405   0.074
   11CHTO   O27 4492   6.690   6.768   0.025
   11CHTO   C37 4493   6.615   6.673   0.103
   11CHTO   H79 4494   6.684   6.598   0.146
   11CHTO   C38 4495   6.542   6.740   0.224
   11CHTO   H80 4496   6.485   6.826   0.187
   11CHTO   O31 4497   6.643   6.786   0.316
   11CHTO   H68 4498   6.691   6.858   0.278
   11CHTO   C39 4499   6.445   6.639   0.297
   11CHTO   H81 4500   6.507   6.565   0.346
   11CHTO    N7 4501   6.362   6.703   0.404
   11CHTO   H73 4502   6.300   6.629   0.452
   11CHTO   H74 4503   6.300   6.781   0.362
   11CHTO   C40 4504   6.354   6.564   0.193
   11CHTO   H82 4505   6.275   6.628   0.155
   11CHTO   O26 4506   6.432   6.506   0.088
   11CHTO   C41 4507   6.513   6.599   0.012
   11CHTO   H83 4508   6.449   6.673   2.903
   11CHTO   C52 4509   6.586   6.517   2.844
   11CHTO   O35 4510   6.494   6.450   2.753
   11CHTO   H71 4511   6.543   6.401   2.689
   11CHTO   O28 4512   6.299   6.445   0.252
   11CHTO   C42 4513   6.162   6.401   0.226
   11CHTO   H84 4514   6.137   6.443   0.128
   11CHTO   C44 4515   6.056   6.457   0.325
   11CHTO   H86 4516   6.090   6.437   0.427
   11CHTO   O32 4517   6.053   6.600   0.310
   11CHTO   H69 4518   6.022   6.624   0.224
   11CHTO   C48 4519   5.913   6.392   0.307
   11CHTO   H90 4520   5.871   6.426   0.212
   11CHTO    N9 4521   5.817   6.438   0.413
   11CHTO   H77 4522   5.721   6.392   0.398
   11CHTO   H78 4523   5.808   6.546   0.410
   11CHTO   C51 4524   5.928   6.236   0.303
   11CHTO   H93 4525   5.972   6.203   0.397
   11CHTO   O30 4526   6.012   6.203   0.191
   11CHTO   C46 4527   6.155   6.246   0.213
   11CHTO   H88 4528   6.192   6.201   0.305
   11CHTO   C53 4529   6.239   6.196   0.093
   11CHTO   O72 4530   6.240   6.053   0.088
   11CHTO  H199 4531   6.293   6.025   0.015
   11CHTO   O22 4532   5.805   6.166   0.276
   11CHTO   C31 4533   5.763   6.050   0.357
   11CHTO   H59 4534   5.840   6.038   0.437
   11CHTO   C29 4535   5.628   6.071   0.427
   11CHTO   H57 4536   5.553   6.093   0.350
   11CHTO   O21 4537   5.637   6.187   0.511
   11CHTO   H37 4538   5.650   6.264   0.459
   11CHTO   C27 4539   5.582   5.943   0.508
   11CHTO   H55 4540   5.655   5.924   0.588
   11CHTO    N5 4541   5.448   5.959   0.570
   11CHTO   H43 4542   5.449   6.043   0.638
   11CHTO   H44 4543   5.373   5.974   0.494
   11CHTO   C25 4544   5.586   5.819   0.411
   11CHTO   H53 4545   5.516   5.836   0.328
   11CHTO   O17 4546   5.721   5.805   0.357
   11CHTO   C32 4547   5.764   5.916   0.276
   11CHTO   H60 4548   5.698   5.927   0.189
   11CHTO   C36 4549   5.907   5.884   0.225
   11CHTO   O25 4550   5.909   5.764   0.147
   11CHTO   H40 4551   5.997   5.745   0.121
   11CHTO   O15 4552   5.550   5.683   0.483
   11CHTO   C19 4553   5.449   5.579   0.466
   11CHTO   H47 4554   5.479   5.501   0.537
   11CHTO   C20 4555   5.304   5.625   0.501
   11CHTO   H48 4556   5.273   5.711   0.440
   11CHTO   O19 4557   5.305   5.667   0.639
   11CHTO   H35 4558   5.354   5.746   0.649
   11CHTO   C21 4559   5.197   5.510   0.482
   11CHTO   H49 4560   5.210   5.437   0.562
   11CHTO    N4 4561   5.057   5.559   0.492
   11CHTO   H41 4562   5.006   5.510   0.574
   11CHTO   H42 4563   5.054   5.666   0.508
   11CHTO   C22 4564   5.221   5.432   0.350
   11CHTO   H50 4565   5.185   5.492   0.265
   11CHTO   O14 4566   5.359   5.400   0.329
   11CHTO   C23 4567   5.448   5.513   0.326
   11CHTO   H51 4568   5.412   5.581   0.248
   11CHTO   C34 4569   5.588   5.464   0.285
   11CHTO   O23 4570   5.589   5.411   0.152
   11CHTO   H38 4571   5.542   5.330   0.150
   11CHTO   O16 4572   5.156   5.303   0.355
   11CHTO   C24 4573   5.078   5.262   0.220
   11CHTO   H52 4574   5.093   5.335   0.140
   11CHTO   C26 4575   4.928   5.248   0.251
   11CHTO   H54 4576   4.915   5.173   0.332
   11CHTO   O20 4577   4.878   5.374   0.298
   11CHTO   H36 4578   4.914   5.394   0.383
   11CHTO   C30 4579   4.848   5.201   0.126
   11CHTO   H58 4580   4.841   5.284   0.055
   11CHTO    N6 4581   4.707   5.166   0.159
   11CHTO   H45 4582   4.656   5.253   0.199
   11CHTO   H46 4583   4.704   5.087   0.232
   11CHTO   C33 4584   4.918   5.084   0.049
   11CHTO   H61 4585   4.896   4.988   0.100
   11CHTO   O18 4586   5.062   5.099   0.043
   11CHTO   C28 4587   5.130   5.126   0.166
   11CHTO   H56 4588   5.110   5.049   0.240
   11CHTO   C35 4589   5.283   5.131   0.141
   11CHTO   O24 4590   5.335   5.007   0.093
   11CHTO   H39 4591   5.331   4.942   0.160
   11CHTO    O9 4592   4.861   5.070   2.858
   11CHTO   C13 4593   4.913   5.185   2.756
   11CHTO   H26 4594   4.976   5.257   2.814
   11CHTO   C11 4595   4.793   5.259   2.683
   11CHTO   H24 4596   4.726   5.299   2.761
   11CHTO    O8 4597   4.718   5.160   2.608
   11CHTO    H3 4598   4.643   5.200   2.569
   11CHTO    C9 4599   4.852   5.379   2.603
   11CHTO   H22 4600   4.864   5.460   2.677
   11CHTO    N2 4601   4.757   5.439   2.505
   11CHTO   H10 4602   4.797   5.532   2.467
   11CHTO   H11 4603   4.740   5.369   2.424
   11CHTO    C7 4604   4.996   5.345   2.548
   11CHTO   H20 4605   5.061   5.374   2.634
   11CHTO    O4 4606   5.011   5.204   2.524
   11CHTO   C14 4607   5.013   5.125   2.645
   11CHTO   H27 4608   5.116   5.126   2.686
   11CHTO   C18 4609   4.981   4.979   2.605
   11CHTO   O13 4610   5.011   4.887   2.711
   11CHTO    H7 4611   4.991   4.800   2.683
   11CHTO    O2 4612   5.047   5.428   2.416
   11CHTO    C1 4613   5.168   5.502   2.444
   11CHTO   H14 4614   5.227   5.449   2.522
   11CHTO    C2 4615   5.143   5.650   2.493
   11CHTO   H15 4616   5.083   5.699   2.414
   11CHTO    O6 4617   5.066   5.647   2.615
   11CHTO    H1 4618   5.114   5.604   2.683
   11CHTO    C3 4619   5.282   5.727   2.513
   11CHTO   H16 4620   5.335   5.681   2.598
   11CHTO    N1 4621   5.263   5.872   2.546
   11CHTO    H8 4622   5.208   5.881   2.639
   11CHTO    H9 4623   5.208   5.921   2.467
   11CHTO    C4 4624   5.376   5.706   2.388
   11CHTO   H17 4625   5.338   5.766   2.305
   11CHTO    O1 4626   5.385   5.568   2.349
   11CHTO    C5 4627   5.260   5.504   2.318
   11CHTO   H18 4628   5.208   5.561   2.240
   11CHTO   C16 4629   5.290   5.362   2.264
   11CHTO   O11 4630   5.360   5.281   2.360
   11CHTO    H5 4631   5.447   5.314   2.373
   11CHTO    O3 4632   5.512   5.742   2.420
   11CHTO    C6 4633   5.594   5.786   2.306
   11CHTO   H19 4634   5.549   5.762   2.210
   11CHTO    C8 4635   5.614   5.941   2.312
   11CHTO   H21 4636   5.654   5.967   2.410
   11CHTO    O7 4637   5.484   6.001   2.295
   11CHTO    H2 4638   5.490   6.094   2.307
   11CHTO   C12 4639   5.715   5.988   2.200
   11CHTO   H25 4640   5.665   5.968   2.102
   11CHTO    N3 4641   5.742   6.136   2.206
   11CHTO   H12 4642   5.711   6.183   2.113
   11CHTO   H13 4643   5.691   6.182   2.289
   11CHTO   C15 4644   5.847   5.902   2.207
   11CHTO   H28 4645   5.905   5.924   2.297
   11CHTO   O10 4646   5.937   5.918   2.083
   11CHTO    H4 4647   5.967   6.006   2.077
   11CHTO    O5 4648   5.816   5.761   2.202
   11CHTO   C10 4649   5.732   5.716   2.310
   11CHTO   H23 4650   5.783   5.738   2.405
   11CHTO   C17 4651   5.719   5.563   2.300
   11CHTO   O12 4652   5.846   5.500   2.320
   11CHTO    H6 4653   5.835   5.407   2.313
   12CHTO  H203 4654   4.787   1.910   1.551
   12CHTO   O82 4655   4.767   1.921   1.642
   12CHTO  C123 4656   4.888   1.931   1.718
   12CHTO  H227 4657   4.946   2.017   1.682
   12CHTO   O77 4658   4.838   1.956   1.853
   12CHTO  C118 4659   4.939   1.972   1.953
   12CHTO  H222 4660   5.008   2.053   1.924
   12CHTO  C125 4661   4.868   2.013   2.088
   12CHTO   O84 4662   4.777   1.913   2.134
   12CHTO  H205 4663   4.824   1.836   2.160
   12CHTO  C114 4664   5.019   1.841   1.966
   12CHTO  H218 4665   4.950   1.761   1.993
   12CHTO  C116 4666   5.084   1.803   1.829
   12CHTO  H220 4667   5.162   1.879   1.804
   12CHTO   O79 4668   5.152   1.678   1.845
   12CHTO  H201 4669   5.199   1.656   1.766
   12CHTO  C120 4670   4.973   1.798   1.716
   12CHTO  H224 4671   4.908   1.711   1.739
   12CHTO   N21 4672   5.033   1.773   1.582
   12CHTO  H211 4673   5.122   1.713   1.590
   12CHTO  H212 4674   4.960   1.725   1.518
   12CHTO   O75 4675   5.116   1.863   2.070
   12CHTO  C112 4676   5.116   1.747   2.183
   12CHTO  H216 4677   5.077   1.654   2.139
   12CHTO   O73 4678   5.032   1.794   2.290
   12CHTO  C113 4679   5.005   1.694   2.389
   12CHTO  H217 4680   4.955   1.607   2.341
   12CHTO  C124 4681   4.905   1.758   2.487
   12CHTO   O83 4682   4.849   1.664   2.579
   12CHTO  H204 4683   4.791   1.709   2.637
   12CHTO  C109 4684   5.137   1.649   2.458
   12CHTO  H213 4685   5.172   1.733   2.519
   12CHTO  C110 4686   5.247   1.611   2.353
   12CHTO  H214 4687   5.220   1.515   2.308
   12CHTO   O78 4688   5.372   1.592   2.422
   12CHTO  H200 4689   5.437   1.560   2.363
   12CHTO  C111 4690   5.259   1.720   2.242
   12CHTO  H215 4691   5.296   1.813   2.287
   12CHTO   N19 4692   5.355   1.684   2.134
   12CHTO  H207 4693   5.325   1.592   2.086
   12CHTO  H208 4694   5.454   1.674   2.175
   12CHTO   O74 4695   5.107   1.536   2.546
   12CHTO  C115 4696   5.203   1.516   2.673
   12CHTO  H219 4697   5.284   1.589   2.675
   12CHTO   O76 4698   5.125   1.536   2.808
   12CHTO  C122 4699   5.006   1.456   2.815
   12CHTO  H226 4700   4.929   1.506   2.755
   12CHTO  C126 4701   4.952   1.456   0.021
   12CHTO   O85 4702   4.918   1.588   0.067
   12CHTO  H206 4703   4.995   1.640   0.075
   12CHTO  C121 4704   5.026   1.307   2.762
   12CHTO  H225 4705   4.977   1.237   2.833
   12CHTO   O81 4706   4.959   1.291   2.637
   12CHTO  H202 4707   4.999   1.345   2.571
   12CHTO  C119 4708   5.178   1.270   2.754
   12CHTO  H223 4709   5.213   1.284   2.857
   12CHTO  C117 4710   5.261   1.369   2.663
   12CHTO  H221 4711   5.257   1.347   2.557
   12CHTO   N20 4712   5.406   1.364   2.698
   12CHTO  H209 4713   5.443   1.263   2.689
   12CHTO  H210 4714   5.463   1.429   2.633
   12CHTO   O80 4715   5.207   1.116   2.733
   12CHTO  C103 4716   5.168   1.045   2.596
   12CHTO  H190 4717   5.090   1.099   2.543
   12CHTO  C101 4718   5.287   1.016   2.496
   12CHTO  H188 4719   5.371   0.972   2.551
   12CHTO   O68 4720   5.334   1.148   2.434
   12CHTO  H168 4721   5.410   1.133   2.382
   12CHTO   C99 4722   5.243   0.911   2.383
   12CHTO  H186 4723   5.160   0.955   2.323
   12CHTO   N17 4724   5.352   0.874   2.286
   12CHTO  H174 4725   5.312   0.809   2.209
   12CHTO  H175 4726   5.433   0.826   2.338
   12CHTO   C97 4727   5.182   0.785   2.452
   12CHTO  H184 4728   5.261   0.738   2.513
   12CHTO   O64 4729   5.069   0.825   2.531
   12CHTO  C104 4730   5.105   0.908   2.643
   12CHTO  H191 4731   5.176   0.855   2.707
   12CHTO  C108 4732   4.979   0.929   2.730
   12CHTO   O71 4733   4.873   0.992   2.657
   12CHTO  H171 4734   4.799   1.003   2.714
   12CHTO   O62 4735   5.125   0.691   2.359
   12CHTO   C91 4736   5.155   0.551   2.376
   12CHTO  H178 4737   5.259   0.542   2.409
   12CHTO   C92 4738   5.150   0.488   2.233
   12CHTO  H179 4739   5.060   0.526   2.181
   12CHTO   O66 4740   5.262   0.541   2.159
   12CHTO  H166 4741   5.257   0.513   2.069
   12CHTO   C93 4742   5.149   0.330   2.233
   12CHTO  H180 4743   5.247   0.296   2.271
   12CHTO   N16 4744   5.133   0.271   2.098
   12CHTO  H172 4745   5.213   0.305   2.034
   12CHTO  H173 4746   5.133   0.163   2.104
   12CHTO   C94 4747   5.037   0.281   2.331
   12CHTO  H181 4748   4.939   0.322   2.305
   12CHTO   O61 4749   5.068   0.330   2.462
   12CHTO   C95 4750   5.062   0.473   2.478
   12CHTO  H182 4751   4.959   0.506   2.464
   12CHTO  C106 4752   5.101   0.505   2.627
   12CHTO   O69 4753   5.005   0.453   2.719
   12CHTO  H169 4754   5.032   0.472   2.807
   12CHTO   O63 4755   5.026   0.112   2.337
   12CHTO   C96 4756   5.127   0.040   2.437
   12CHTO  H183 4757   5.184   0.116   2.491
   12CHTO   C98 4758   5.227   9.942   2.371
   12CHTO  H185 4759   5.173   9.869   2.310
   12CHTO   O67 4760   5.307   0.018   2.278
   12CHTO  H167 4761   5.365   9.961   2.231
   12CHTO  C102 4762   5.320   9.869   2.481
   12CHTO  H189 4763   5.388   9.946   2.519
   12CHTO   N18 4764   5.407   9.762   2.426
   12CHTO  H176 4765   5.347   9.686   2.379
   12CHTO  H177 4766   5.476   9.804   2.354
   12CHTO  C105 4767   5.235   9.818   2.601
   12CHTO  H192 4768   5.183   9.726   2.572
   12CHTO   O65 4769   5.136   9.912   2.647
   12CHTO  C100 4770   5.046   9.957   2.544
   12CHTO  H187 4771   5.003   9.869   2.494
   12CHTO  C107 4772   4.928   0.036   2.606
   12CHTO   O70 4773   4.972   0.154   2.675
   12CHTO  H170 4774   5.020   0.130   2.752
   12CHTO   O57 4775   5.342   9.787   2.724
   12CHTO   C85 4776   5.307   9.688   2.822
   12CHTO  H157 4777   5.216   9.636   2.784
   12CHTO   C83 4778   5.263   9.756   0.015
   12CHTO  H155 4779   5.180   9.824   2.933
   12CHTO   O56 4780   5.370   9.838   0.064
   12CHTO  H135 4781   5.342   9.887   0.140
   12CHTO   C81 4782   5.213   9.648   0.114
   12CHTO  H153 4783   5.129   9.596   0.068
   12CHTO   N14 4784   5.153   9.705   0.238
   12CHTO  H141 4785   5.170   9.810   0.245
   12CHTO  H142 4786   5.193   9.658   0.326
   12CHTO   C79 4787   5.327   9.541   0.141
   12CHTO  H151 4788   5.280   9.458   0.195
   12CHTO   O52 4789   5.379   9.486   0.015
   12CHTO   C86 4790   5.421   9.587   2.859
   12CHTO  H158 4791   5.506   9.638   2.908
   12CHTO   C90 4792   5.479   9.519   2.733
   12CHTO   O60 4793   5.604   9.455   2.762
   12CHTO  H138 4794   5.589   9.381   2.817
   12CHTO   O50 4795   5.436   9.591   0.220
   12CHTO   C73 4796   5.485   9.553   0.349
   12CHTO  H145 4797   5.413   9.487   0.401
   12CHTO   C74 4798   5.507   9.680   0.436
   12CHTO  H146 4799   5.411   9.733   0.442
   12CHTO   O54 4800   5.540   9.640   0.571
   12CHTO  H133 4801   5.467   9.597   0.611
   12CHTO   C75 4802   5.619   9.769   0.369
   12CHTO  H147 4803   5.586   9.795   0.267
   12CHTO   N13 4804   5.641   9.899   0.438
   12CHTO  H139 4805   5.742   9.906   0.476
   12CHTO  H140 4806   5.623   9.981   0.371
   12CHTO   C76 4807   5.752   9.681   0.355
   12CHTO  H148 4808   5.786   9.654   0.455
   12CHTO   O49 4809   5.723   9.560   0.278
   12CHTO   C77 4810   5.621   9.476   0.335
   12CHTO  H149 4811   5.653   9.441   0.434
   12CHTO   C88 4812   5.610   9.350   0.247
   12CHTO   O58 4813   5.515   9.252   0.303
   12CHTO  H136 4814   5.548   9.217   0.383
   12CHTO   O51 4815   5.865   9.760   0.273
   12CHTO   C78 4816   5.995   9.673   0.240
   12CHTO  H150 4817   5.974   9.564   0.248
   12CHTO   C80 4818   6.111   9.708   0.336
   12CHTO  H152 4819   6.120   9.819   0.341
   12CHTO   O55 4820   6.073   9.662   0.467
   12CHTO  H134 4821   6.001   9.713   0.500
   12CHTO   C84 4822   6.249   9.645   0.290
   12CHTO  H156 4823   6.241   9.537   0.301
   12CHTO   N15 4824   6.364   9.690   0.376
   12CHTO  H143 4825   6.412   9.606   0.421
   12CHTO  H144 4826   6.436   9.746   0.319
   12CHTO   C87 4827   6.273   9.677   0.140
   12CHTO  H159 4828   6.285   9.785   0.128
   12CHTO   O53 4829   6.152   9.629   0.060
   12CHTO   C82 4830   6.033   9.701   0.093
   12CHTO  H154 4831   6.048   9.808   0.077
   12CHTO   C89 4832   5.919   9.656   2.941
   12CHTO   O59 4833   5.948   9.689   2.805
   12CHTO  H137 4834   5.877   9.661   2.750
   12CHTO   O45 4835   6.411   9.605   0.081
   12CHTO   C67 4836   6.402   9.464   0.051
   12CHTO  H124 4837   6.329   9.415   0.115
   12CHTO   C65 4838   6.364   9.442   2.843
   12CHTO  H122 4839   6.276   9.505   2.825
   12CHTO   O44 4840   6.328   9.305   2.821
   12CHTO  H102 4841   6.251   9.283   2.870
   12CHTO   C63 4842   6.477   9.500   2.751
   12CHTO  H120 4843   6.488   9.606   2.772
   12CHTO   N11 4844   6.444   9.504   2.605
   12CHTO  H108 4845   6.349   9.551   2.590
   12CHTO  H109 4846   6.441   9.404   2.566
   12CHTO   C61 4847   6.618   9.435   2.784
   12CHTO  H118 4848   6.691   9.505   2.740
   12CHTO   O40 4849   6.646   9.431   2.927
   12CHTO   C68 4850   6.542   9.397   0.084
   12CHTO  H125 4851   6.576   9.438   0.182
   12CHTO   C72 4852   6.536   9.243   0.100
   12CHTO   O48 4853   6.448   9.200   0.204
   12CHTO  H105 4854   6.447   9.106   0.208
   12CHTO   O38 4855   6.639   9.302   2.732
   12CHTO   C55 4856   6.772   9.275   2.681
   12CHTO  H112 4857   6.842   9.352   2.717
   12CHTO   C56 4858   6.769   9.268   2.523
   12CHTO  H113 4859   6.688   9.198   2.496
   12CHTO   O42 4860   6.732   9.397   2.471
   12CHTO  H100 4861   6.721   9.393   2.378
   12CHTO   C57 4862   6.907   9.219   2.464
   12CHTO  H114 4863   6.980   9.296   2.484
   12CHTO   N10 4864   6.905   9.199   2.316
   12CHTO  H106 4865   6.807   9.167   2.283
   12CHTO  H107 4866   6.978   9.126   2.285
   12CHTO   C58 4867   6.950   9.089   2.537
   12CHTO  H115 4868   6.879   9.007   2.512
   12CHTO   O37 4869   6.954   9.109   2.679
   12CHTO   C59 4870   6.827   9.141   2.738
   12CHTO  H116 4871   6.756   9.060   2.719
   12CHTO   C70 4872   6.849   9.148   2.890
   12CHTO   O46 4873   6.942   9.249   2.931
   12CHTO  H103 4874   6.951   9.248   0.083
   12CHTO   O39 4875   7.102   9.047   2.496
   12CHTO   C60 4876   7.130   8.907   2.515
   12CHTO  H117 4877   7.068   8.868   2.596
   12CHTO   C62 4878   7.098   8.825   2.386
   12CHTO  H119 4879   6.989   8.839   2.367
   12CHTO   O43 4880   7.171   8.880   2.275
   12CHTO  H101 4881   7.147   8.836   2.196
   12CHTO   C66 4882   7.127   8.669   2.412
   12CHTO  H123 4883   7.068   8.636   2.497
   12CHTO   N12 4884   7.086   8.584   2.298
   12CHTO  H110 4885   7.104   8.480   2.320
   12CHTO  H111 4886   7.139   8.614   2.208
   12CHTO   C69 4887   7.276   8.649   2.451
   12CHTO  H126 4888   7.342   8.679   2.367
   12CHTO   O41 4889   7.309   8.737   2.578
   12CHTO   C64 4890   7.278   8.886   2.557
   12CHTO  H121 4891   7.344   8.926   2.476
   12CHTO   C71 4892   7.312   8.964   2.686
   12CHTO   O47 4893   7.235   8.919   2.798
   12CHTO  H104 4894   7.259   8.967   2.875
   12CHTO   O34 4895   7.306   8.500   2.486
   12CHTO   C49 4896   7.385   8.376   2.515
   12CHTO   H91 4897   7.441   8.353   2.425
   12CHTO   C47 4898   7.287   8.262   2.547
   12CHTO   H89 4899   7.351   8.171   2.556
   12CHTO   O33 4900   7.196   8.241   2.438
   12CHTO   H70 4901   7.144   8.164   2.453
   12CHTO   C45 4902   7.205   8.291   2.685
   12CHTO   H87 4903   7.110   8.339   2.659
   12CHTO    N8 4904   7.175   8.160   2.749
   12CHTO   H75 4905   7.119   8.097   2.681
   12CHTO   H76 4906   7.266   8.111   2.779
   12CHTO   C43 4907   7.283   8.399   2.776
   12CHTO   H85 4908   7.256   8.496   2.735
   12CHTO   O29 4909   7.425   8.377   2.769
   12CHTO   C50 4910   7.482   8.392   2.637
   12CHTO   H92 4911   7.528   8.491   2.631
   12CHTO   C54 4912   7.604   8.295   2.629
   12CHTO   O36 4913   7.677   8.309   2.506
   12CHTO   H72 4914   7.626   8.278   2.434
   12CHTO   O27 4915   7.235   8.404   2.911
   12CHTO   C37 4916   7.196   8.474   0.090
   12CHTO   H79 4917   7.269   8.456   0.170
   12CHTO   C38 4918   7.188   8.628   0.067
   12CHTO   H80 4919   7.128   8.646   2.917
   12CHTO   O31 4920   7.322   8.674   0.044
   12CHTO   H68 4921   7.322   8.765   0.020
   12CHTO   C39 4922   7.122   8.702   0.190
   12CHTO   H81 4923   7.191   8.693   0.274
   12CHTO    N7 4924   7.099   8.848   0.166
   12CHTO   H73 4925   7.032   8.862   0.083
   12CHTO   H74 4926   7.059   8.895   0.255
   12CHTO   C40 4927   6.988   8.630   0.233
   12CHTO   H82 4928   6.912   8.646   0.156
   12CHTO   O26 4929   7.014   8.491   0.255
   12CHTO   C41 4930   7.058   8.420   0.135
   12CHTO   H83 4931   6.985   8.436   0.054
   12CHTO   C52 4932   7.062   8.269   0.167
   12CHTO   O35 4933   6.928   8.213   0.185
   12CHTO   H71 4934   6.889   8.249   0.262
   12CHTO   O28 4935   6.937   8.675   0.360
   12CHTO   C42 4936   6.793   8.667   0.392
   12CHTO   H84 4937   6.792   8.664   0.501
   12CHTO   C44 4938   6.718   8.539   0.344
   12CHTO   H86 4939   6.732   8.528   0.236
   12CHTO   O32 4940   6.781   8.427   0.409
   12CHTO   H69 4941   6.747   8.346   0.376
   12CHTO   C48 4942   6.562   8.541   0.373
   12CHTO   H90 4943   6.548   8.528   0.480
   12CHTO    N9 4944   6.493   8.423   0.309
   12CHTO   H77 4945   6.505   8.427   0.201
   12CHTO   H78 4946   6.388   8.423   0.335
   12CHTO   C51 4947   6.498   8.678   0.331
   12CHTO   H93 4948   6.503   8.687   0.222
   12CHTO   O30 4949   6.569   8.785   0.396
   12CHTO   C46 4950   6.715   8.795   0.349
   12CHTO   H88 4951   6.717   8.804   0.240
   12CHTO   C53 4952   6.777   8.922   0.413
   12CHTO   O72 4953   6.711   9.041   0.368
   12CHTO  H199 4954   6.625   9.045   0.404
   12CHTO   O22 4955   6.361   8.686   0.376
   12CHTO   C31 4956   6.264   8.793   0.344
   12CHTO   H59 4957   6.167   8.759   0.385
   12CHTO   C29 4958   6.295   8.929   0.411
   12CHTO   H57 4959   6.388   8.970   0.368
   12CHTO   O21 4960   6.318   8.907   0.551
   12CHTO   H37 4961   6.397   8.858   0.564
   12CHTO   C27 4962   6.177   9.032   0.386
   12CHTO   H55 4963   6.087   8.994   0.437
   12CHTO    N5 4964   6.207   9.168   0.439
   12CHTO   H43 4965   6.227   9.162   0.545
   12CHTO   H44 4966   6.292   9.210   0.387
   12CHTO   C25 4967   6.143   9.038   0.233
   12CHTO   H53 4968   6.223   9.089   0.178
   12CHTO   O17 4969   6.127   8.905   0.175
   12CHTO   C32 4970   6.240   8.817   0.192
   12CHTO   H60 4971   6.329   8.862   0.148
   12CHTO   C36 4972   6.209   8.685   0.118
   12CHTO   O25 4973   6.194   8.707   2.918
   12CHTO   H40 4974   6.174   8.625   2.876
   12CHTO   O15 4975   6.012   9.114   0.212
   12CHTO   C19 4976   5.924   9.154   0.104
   12CHTO   H47 4977   5.856   9.227   0.151
   12CHTO   C20 4978   5.996   9.225   2.926
   12CHTO   H48 4979   6.071   9.159   2.879
   12CHTO   O19 4980   6.066   9.338   0.041
   12CHTO   H35 4981   6.138   9.309   0.093
   12CHTO   C21 4982   5.893   9.271   2.815
   12CHTO   H49 4983   5.829   9.348   2.858
   12CHTO    N4 4984   5.959   9.331   2.696
   12CHTO   H41 4985   6.017   9.417   2.725
   12CHTO   H42 4986   5.884   9.361   2.624
   12CHTO   C22 4987   5.801   9.151   2.779
   12CHTO   H50 4988   5.861   9.076   2.728
   12CHTO   O14 4989   5.741   9.094   2.896
   12CHTO   C23 4990   5.834   9.039   0.050
   12CHTO   H51 4991   5.892   8.961   2.940
   12CHTO   C34 4992   5.750   8.973   0.161
   12CHTO   O23 4993   5.830   8.892   0.248
   12CHTO   H38 4994   5.860   8.816   0.202
   12CHTO   O16 4995   5.689   9.192   2.697
   12CHTO   C24 4996   5.641   9.080   2.593
   12CHTO   H52 4997   5.686   8.982   2.613
   12CHTO   C26 4998   5.678   9.125   2.450
   12CHTO   H54 4999   5.632   9.225   2.432
   12CHTO   O20 5000   5.821   9.142   2.442
   12CHTO   H36 5001   5.865   9.059   2.456
   12CHTO   C30 5002   5.624   9.025   2.344
   12CHTO   H58 5003   5.676   8.929   2.354
   12CHTO    N6 5004   5.650   9.071   2.205
   12CHTO   H45 5005   5.612   8.999   2.134
   12CHTO   H46 5006   5.756   9.083   2.189
   12CHTO   C33 5007   5.472   8.997   2.368
   12CHTO   H61 5008   5.415   9.089   2.348
   12CHTO   O18 5009   5.450   8.961   2.506
   12CHTO   C28 5010   5.487   9.061   2.602
   12CHTO   H56 5011   5.438   9.156   2.580
   12CHTO   C35 5012   5.441   9.010   2.741
   12CHTO   O24 5013   5.451   9.109   2.844
   12CHTO   H39 5014   5.541   9.127   2.862
   12CHTO    O9 5015   5.417   8.898   2.278
   12CHTO   C13 5016   5.466   8.744   2.298
   12CHTO   H26 5017   5.571   8.744   2.335
   12CHTO   C11 5018   5.454   8.668   2.159
   12CHTO   H24 5019   5.528   8.712   2.091
   12CHTO    O8 5020   5.324   8.689   2.101
   12CHTO    H3 5021   5.311   8.780   2.082
   12CHTO    C9 5022   5.490   8.518   2.182
   12CHTO   H22 5023   5.592   8.519   2.224
   12CHTO    N2 5024   5.503   8.439   2.057
   12CHTO   H10 5025   5.573   8.486   1.990
   12CHTO   H11 5026   5.406   8.430   2.009
   12CHTO    C7 5027   5.392   8.456   2.288
   12CHTO   H20 5028   5.432   8.353   2.305
   12CHTO    O4 5029   5.398   8.528   2.412
   12CHTO   C14 5030   5.382   8.671   2.412
   12CHTO   H27 5031   5.421   8.706   2.510
   12CHTO   C18 5032   5.231   8.711   2.408
   12CHTO   O13 5033   5.161   8.662   2.523
   12CHTO    H7 5034   5.190   8.706   2.600
   12CHTO    O2 5035   5.237   8.449   2.238
   12CHTO    C1 5036   5.176   8.318   2.234
   12CHTO   H14 5037   5.255   8.239   2.241
   12CHTO    C2 5038   5.096   8.297   2.099
   12CHTO   H15 5039   5.028   8.383   2.089
   12CHTO    O6 5040   5.190   8.297   1.990
   12CHTO    H1 5041   5.227   8.382   1.979
   12CHTO    C3 5042   5.012   8.161   2.104
   12CHTO   H16 5043   5.082   8.076   2.109
   12CHTO    N1 5044   4.927   8.143   1.981
   12CHTO    H8 5045   4.822   8.139   2.006
   12CHTO    H9 5046   4.956   8.053   1.929
   12CHTO    C4 5047   4.928   8.154   2.237
   12CHTO   H17 5048   4.852   8.233   2.235
   12CHTO    O1 5049   5.014   8.172   2.351
   12CHTO    C5 5050   5.081   8.300   2.356
   12CHTO   H18 5051   5.007   8.380   2.354
   12CHTO   C16 5052   5.157   8.305   2.491
   12CHTO   O11 5053   5.067   8.300   2.603
   12CHTO    H5 5054   5.028   8.215   2.609
   12CHTO    O3 5055   4.867   8.025   2.257
   12CHTO    C6 5056   4.736   8.026   2.322
   12CHTO   H19 5057   4.713   8.122   2.370
   12CHTO    C8 5058   4.625   7.998   2.215
   12CHTO   H21 5059   4.653   7.908   2.160
   12CHTO    O7 5060   4.622   8.111   2.126
   12CHTO    H2 5061   4.699   8.113   2.073
   12CHTO   C12 5062   4.484   7.974   2.282
   12CHTO   H25 5063   4.452   8.072   2.325
   12CHTO    N3 5064   4.381   7.936   2.179
   12CHTO   H12 5065   4.299   8.006   2.180
   12CHTO   H13 5066   4.344   7.835   2.196
   12CHTO   C15 5067   4.497   7.871   2.400
   12CHTO   H28 5068   4.518   7.770   2.363
   12CHTO   O10 5069   4.371   7.867   2.491
   12CHTO    H4 5070   4.378   7.798   2.554
   12CHTO    O5 5071   4.600   7.912   2.492
   12CHTO   C10 5072   4.731   7.917   2.434
   12CHTO   H23 5073   4.756   7.819   2.393
   12CHTO   C17 5074   4.828   7.946   2.550
   12CHTO   O12 5075   4.965   7.929   2.512
   12CHTO    H6 5076   5.020   7.948   2.585
   13CHTO  H203 5077   8.065   4.056   0.788
   13CHTO   O82 5078   7.984   4.097   0.764
   13CHTO  C123 5079   7.992   4.239   0.790
   13CHTO  H227 5080   8.075   4.281   0.730
   13CHTO   O77 5081   7.865   4.288   0.739
   13CHTO  C118 5082   7.853   4.431   0.741
   13CHTO  H222 5083   7.935   4.475   0.684
   13CHTO  C125 5084   7.716   4.472   0.673
   13CHTO   O84 5085   7.602   4.415   0.738
   13CHTO  H205 5086   7.593   4.452   0.824
   13CHTO  C114 5087   7.860   4.482   0.887
   13CHTO  H218 5088   7.774   4.444   0.941
   13CHTO  C116 5089   7.986   4.431   0.961
   13CHTO  H220 5090   8.076   4.485   0.923
   13CHTO   O79 5091   7.976   4.467   1.100
   13CHTO  H201 5092   7.903   4.425   1.141
   13CHTO  C120 5093   8.006   4.275   0.942
   13CHTO  H224 5094   7.924   4.226   1.000
   13CHTO   N21 5095   8.135   4.228   0.999
   13CHTO  H211 5096   8.163   4.288   1.084
   13CHTO  H212 5097   8.127   4.124   1.028
   13CHTO   O75 5098   7.853   4.626   0.874
   13CHTO  C112 5099   7.772   4.698   0.993
   13CHTO  H216 5100   7.824   4.681   1.089
   13CHTO   O73 5101   7.639   4.643   0.995
   13CHTO  C113 5102   7.556   4.691   1.101
   13CHTO  H217 5103   7.606   4.671   1.199
   13CHTO  C124 5104   7.425   4.612   1.097
   13CHTO   O83 5105   7.445   4.470   1.110
   13CHTO  H204 5106   7.488   4.437   1.033
   13CHTO  C109 5107   7.532   4.843   1.083
   13CHTO  H213 5108   7.481   4.856   0.987
   13CHTO  C110 5109   7.670   4.917   1.078
   13CHTO  H214 5110   7.717   4.907   1.176
   13CHTO   O78 5111   7.646   5.057   1.055
   13CHTO  H200 5112   7.605   5.071   0.971
   13CHTO  C111 5113   7.761   4.854   0.968
   13CHTO  H215 5114   7.713   4.869   0.870
   13CHTO   N19 5115   7.896   4.916   0.960
   13CHTO  H207 5116   7.953   4.869   0.880
   13CHTO  H208 5117   7.948   4.904   1.053
   13CHTO   O74 5118   7.447   4.896   1.190
   13CHTO  C115 5119   7.300   4.947   1.131
   13CHTO  H219 5120   7.306   4.972   1.025
   13CHTO   O76 5121   7.192   4.834   1.142
   13CHTO  C122 5122   7.061   4.866   1.092
   13CHTO  H226 5123   6.995   4.785   1.123
   13CHTO  C126 5124   7.059   4.866   0.935
   13CHTO   O85 5125   7.092   4.738   0.879
   13CHTO  H206 5126   7.025   4.676   0.900
   13CHTO  C121 5127   7.006   5.002   1.151
   13CHTO  H225 5128   6.918   5.032   1.091
   13CHTO   O81 5129   6.961   4.980   1.286
   13CHTO  H202 5130   6.889   4.920   1.287
   13CHTO  C119 5131   7.111   5.117   1.147
   13CHTO  H223 5132   7.128   5.137   1.041
   13CHTO  C117 5133   7.250   5.074   1.207
   13CHTO  H221 5134   7.252   5.047   1.312
   13CHTO   N20 5135   7.351   5.185   1.194
   13CHTO  H209 5136   7.364   5.212   1.090
   13CHTO  H210 5137   7.318   5.271   1.250
   13CHTO   O80 5138   7.052   5.257   1.198
   13CHTO  C103 5139   6.959   5.346   1.102
   13CHTO  H190 5140   6.974   5.451   1.125
   13CHTO  C101 5141   6.975   5.328   0.946
   13CHTO  H188 5142   6.959   5.223   0.921
   13CHTO   O68 5143   7.121   5.366   0.905
   13CHTO  H168 5144   7.136   5.457   0.922
   13CHTO   C99 5145   6.864   5.415   0.870
   13CHTO  H186 5146   6.880   5.522   0.892
   13CHTO   N17 5147   6.869   5.401   0.721
   13CHTO  H174 5148   6.967   5.429   0.684
   13CHTO  H175 5149   6.845   5.300   0.692
   13CHTO   C97 5150   6.723   5.380   0.926
   13CHTO  H184 5151   6.699   5.277   0.898
   13CHTO   O64 5152   6.722   5.399   1.069
   13CHTO  C104 5153   6.810   5.312   1.140
   13CHTO  H191 5154   6.790   5.207   1.117
   13CHTO  C108 5155   6.786   5.328   1.291
   13CHTO   O71 5156   6.654   5.286   1.328
   13CHTO  H171 5157   6.590   5.346   1.293
   13CHTO   O62 5158   6.620   5.472   0.882
   13CHTO   C91 5159   6.494   5.415   0.842
   13CHTO  H178 5160   6.509   5.312   0.813
   13CHTO   C92 5161   6.445   5.490   0.713
   13CHTO  H179 5162   6.442   5.598   0.736
   13CHTO   O66 5163   6.545   5.474   0.611
   13CHTO  H166 5164   6.624   5.519   0.635
   13CHTO   C93 5165   6.303   5.442   0.662
   13CHTO  H180 5166   6.314   5.339   0.625
   13CHTO   N16 5167   6.251   5.520   0.547
   13CHTO  H172 5168   6.239   5.624   0.574
   13CHTO  H173 5169   6.157   5.478   0.513
   13CHTO   C94 5170   6.202   5.442   0.782
   13CHTO  H181 5171   6.183   5.543   0.819
   13CHTO   O61 5172   6.257   5.366   0.891
   13CHTO   C95 5173   6.377   5.420   0.948
   13CHTO  H182 5174   6.360   5.523   0.979
   13CHTO  C106 5175   6.408   5.336   1.077
   13CHTO   O69 5176   6.306   5.354   1.175
   13CHTO  H169 5177   6.328   5.305   1.252
   13CHTO   O63 5178   6.065   5.371   0.743
   13CHTO   C96 5179   5.947   5.412   0.840
   13CHTO  H183 5180   5.947   5.521   0.845
   13CHTO   C98 5181   5.959   5.359   0.987
   13CHTO  H185 5182   6.057   5.384   1.030
   13CHTO   O67 5183   5.863   5.428   1.068
   13CHTO  H167 5184   5.885   5.518   1.076
   13CHTO  C102 5185   5.930   5.202   0.997
   13CHTO  H189 5186   5.913   5.183   1.104
   13CHTO   N18 5187   6.045   5.114   0.961
   13CHTO  H176 5188   6.022   5.054   0.874
   13CHTO  H177 5189   6.071   5.050   1.043
   13CHTO  C105 5190   5.800   5.168   0.918
   13CHTO  H192 5191   5.822   5.099   0.836
   13CHTO   O65 5192   5.731   5.282   0.862
   13CHTO  C100 5193   5.811   5.363   0.774
   13CHTO  H187 5194   5.834   5.302   0.685
   13CHTO  C107 5195   5.724   5.482   0.727
   13CHTO   O70 5196   5.792   5.561   0.629
   13CHTO  H170 5197   5.738   5.633   0.604
   13CHTO   O57 5198   5.714   5.095   1.024
   13CHTO   C85 5199   5.587   5.038   0.993
   13CHTO  H157 5200   5.584   5.021   0.883
   13CHTO   C83 5201   5.473   5.142   1.022
   13CHTO  H155 5202   5.482   5.223   0.949
   13CHTO   O56 5203   5.495   5.201   1.152
   13CHTO  H135 5204   5.434   5.271   1.166
   13CHTO   C81 5205   5.334   5.074   1.006
   13CHTO  H153 5206   5.328   5.034   0.905
   13CHTO   N14 5207   5.221   5.169   1.015
   13CHTO  H141 5208   5.215   5.211   1.114
   13CHTO  H142 5209   5.129   5.119   0.993
   13CHTO   C79 5210   5.323   4.954   1.107
   13CHTO  H151 5211   5.225   4.908   1.091
   13CHTO   O52 5212   5.423   4.853   1.073
   13CHTO   C86 5213   5.561   4.903   1.073
   13CHTO  H158 5214   5.584   4.918   1.181
   13CHTO   C90 5215   5.658   4.793   1.024
   13CHTO   O60 5216   5.629   4.752   0.890
   13CHTO  H138 5217   5.689   4.684   0.864
   13CHTO   O50 5218   5.334   4.992   1.245
   13CHTO   C73 5219   5.281   4.940   1.368
   13CHTO  H145 5220   5.270   4.831   1.362
   13CHTO   C74 5221   5.141   5.003   1.397
   13CHTO  H146 5222   5.077   4.981   1.310
   13CHTO   O54 5223   5.082   4.934   1.508
   13CHTO  H133 5224   5.132   4.948   1.586
   13CHTO   C75 5225   5.156   5.159   1.420
   13CHTO  H147 5226   5.189   5.205   1.326
   13CHTO   N13 5227   5.029   5.228   1.455
   13CHTO  H139 5228   4.947   5.159   1.458
   13CHTO  H140 5229   5.007   5.305   1.383
   13CHTO   C76 5230   5.270   5.189   1.528
   13CHTO  H148 5231   5.234   5.158   1.627
   13CHTO   O49 5232   5.394   5.116   1.497
   13CHTO   C77 5233   5.376   4.974   1.486
   13CHTO  H149 5234   5.334   4.935   1.578
   13CHTO   C88 5235   5.513   4.906   1.470
   13CHTO   O58 5236   5.595   4.924   1.591
   13CHTO  H136 5237   5.678   4.882   1.579
   13CHTO   O51 5238   5.312   5.346   1.523
   13CHTO   C78 5239   5.434   5.381   1.619
   13CHTO  H150 5240   5.486   5.289   1.654
   13CHTO   C80 5241   5.385   5.460   1.742
   13CHTO  H152 5242   5.338   5.555   1.707
   13CHTO   O55 5243   5.286   5.380   1.809
   13CHTO  H134 5244   5.208   5.376   1.757
   13CHTO   C84 5245   5.506   5.494   1.838
   13CHTO  H156 5246   5.545   5.399   1.875
   13CHTO   N15 5247   5.466   5.574   1.958
   13CHTO  H143 5248   5.550   5.592   2.021
   13CHTO  H144 5249   5.424   5.668   1.928
   13CHTO   C87 5250   5.620   5.565   1.759
   13CHTO  H159 5251   5.595   5.670   1.742
   13CHTO   O53 5252   5.650   5.494   1.622
   13CHTO   C82 5253   5.537   5.464   1.540
   13CHTO  H154 5254   5.492   5.556   1.502
   13CHTO   C89 5255   5.587   5.385   1.417
   13CHTO   O59 5256   5.675   5.463   1.336
   13CHTO  H137 5257   5.704   5.412   1.263
   13CHTO   O45 5258   5.758   5.562   1.848
   13CHTO   C67 5259   5.836   5.442   1.832
   13CHTO  H124 5260   5.783   5.367   1.775
   13CHTO   C65 5261   5.969   5.477   1.759
   13CHTO  H122 5262   5.941   5.539   1.673
   13CHTO   O44 5263   6.033   5.357   1.711
   13CHTO  H102 5264   5.979   5.315   1.647
   13CHTO   C63 5265   6.057   5.569   1.851
   13CHTO  H120 5266   5.998   5.657   1.878
   13CHTO   N11 5267   6.176   5.633   1.786
   13CHTO  H108 5268   6.264   5.617   1.845
   13CHTO  H109 5269   6.191   5.593   1.688
   13CHTO   C61 5270   6.086   5.494   1.986
   13CHTO  H118 5271   6.133   5.569   2.052
   13CHTO   O40 5272   5.963   5.452   2.052
   13CHTO   C68 5273   5.862   5.378   1.975
   13CHTO  H125 5274   5.767   5.386   2.032
   13CHTO   C72 5275   5.898   5.227   1.968
   13CHTO   O48 5276   5.796   5.148   1.906
   13CHTO  H105 5277   5.823   5.058   1.904
   13CHTO   O38 5278   6.173   5.379   1.972
   13CHTO   C55 5279   6.260   5.336   2.080
   13CHTO  H112 5280   6.274   5.228   2.063
   13CHTO   C56 5281   6.205   5.365   2.228
   13CHTO  H113 5282   6.172   5.470   2.232
   13CHTO   O42 5283   6.089   5.285   2.252
   13CHTO  H100 5284   6.019   5.310   2.195
   13CHTO   C57 5285   6.314   5.340   2.339
   13CHTO  H114 5286   6.329   5.232   2.346
   13CHTO   N10 5287   6.273   5.389   2.474
   13CHTO  H106 5288   6.321   5.328   2.550
   13CHTO  H107 5289   6.166   5.382   2.485
   13CHTO   C58 5290   6.448   5.405   2.297
   13CHTO  H115 5291   6.435   5.516   2.292
   13CHTO   O37 5292   6.489   5.357   2.168
   13CHTO   C59 5293   6.403   5.398   2.060
   13CHTO  H116 5294   6.398   5.507   2.055
   13CHTO   C70 5295   6.469   5.346   1.932
   13CHTO   O46 5296   6.408   5.391   1.811
   13CHTO  H103 5297   6.454   5.355   1.738
   13CHTO   O39 5298   6.568   5.366   2.403
   13CHTO   C60 5299   6.675   5.463   2.406
   13CHTO  H117 5300   6.702   5.487   2.303
   13CHTO   C62 5301   6.634   5.595   2.478
   13CHTO  H119 5302   6.548   5.637   2.421
   13CHTO   O43 5303   6.590   5.564   2.612
   13CHTO  H101 5304   6.559   5.642   2.654
   13CHTO   C66 5305   6.756   5.700   2.472
   13CHTO  H123 5306   6.782   5.718   2.368
   13CHTO   N12 5307   6.718   5.832   2.528
   13CHTO  H110 5308   6.801   5.901   2.520
   13CHTO  H111 5309   6.686   5.821   2.631
   13CHTO   C69 5310   6.881   5.638   2.542
   13CHTO  H126 5311   6.857   5.622   2.650
   13CHTO   O41 5312   6.917   5.502   2.474
   13CHTO   C64 5313   6.801   5.401   2.473
   13CHTO  H121 5314   6.775   5.374   2.577
   13CHTO   C71 5315   6.847   5.272   2.401
   13CHTO   O47 5316   6.895   5.299   2.269
   13CHTO  H104 5317   6.924   5.219   2.229
   13CHTO   O34 5318   7.005   5.731   2.534
   13CHTO   C49 5319   7.113   5.784   2.437
   13CHTO   H91 5320   7.128   5.707   2.361
   13CHTO   C47 5321   7.243   5.805   2.518
   13CHTO   H89 5322   7.319   5.832   2.442
   13CHTO   O33 5323   7.284   5.683   2.581
   13CHTO   H70 5324   7.221   5.656   2.645
   13CHTO   C45 5325   7.225   5.924   2.627
   13CHTO   H87 5326   7.198   5.877   2.723
   13CHTO    N8 5327   7.356   5.992   2.645
   13CHTO   H75 5328   7.347   6.067   2.722
   13CHTO   H76 5329   7.432   5.920   2.673
   13CHTO   C43 5330   7.100   6.018   2.589
   13CHTO   H85 5331   7.012   5.964   2.623
   13CHTO   O29 5332   7.097   6.040   2.447
   13CHTO   C50 5333   7.076   5.920   2.369
   13CHTO   H92 5334   6.970   5.915   2.341
   13CHTO   C54 5335   7.150   5.939   2.234
   13CHTO   O36 5336   7.094   6.046   2.158
   13CHTO   H72 5337   7.140   6.054   2.076
   13CHTO   O27 5338   7.095   6.142   2.661
   13CHTO   C37 5339   7.060   6.281   2.656
   13CHTO   H79 5340   7.058   6.323   2.757
   13CHTO   C38 5341   7.167   6.361   2.576
   13CHTO   H80 5342   7.176   6.317   2.475
   13CHTO   O31 5343   7.293   6.346   2.645
   13CHTO   H68 5344   7.324   6.257   2.638
   13CHTO   C39 5345   7.125   6.512   2.564
   13CHTO   H81 5346   7.117   6.551   2.665
   13CHTO    N7 5347   7.225   6.598   2.491
   13CHTO   H73 5348   7.319   6.597   2.544
   13CHTO   H74 5349   7.238   6.562   2.391
   13CHTO   C40 5350   6.982   6.522   2.499
   13CHTO   H82 5351   6.986   6.491   2.394
   13CHTO   O26 5352   6.888   6.444   2.574
   13CHTO   C41 5353   6.919   6.302   2.591
   13CHTO   H83 5354   6.916   6.252   2.492
   13CHTO   C52 5355   6.804   6.245   2.678
   13CHTO   O35 5356   6.811   6.107   2.700
   13CHTO   H71 5357   6.739   6.080   2.753
   13CHTO   O28 5358   6.927   6.655   2.509
   13CHTO   C42 5359   6.851   6.719   2.401
   13CHTO   H84 5360   6.820   6.637   2.335
   13CHTO   C44 5361   6.932   6.819   2.312
   13CHTO   H86 5362   6.985   6.888   2.378
   13CHTO   O32 5363   7.032   6.741   2.243
   13CHTO   H69 5364   7.089   6.798   2.194
   13CHTO   C48 5365   6.843   6.904   2.212
   13CHTO   H90 5366   6.809   6.836   2.133
   13CHTO    N9 5367   6.921   7.013   2.143
   13CHTO   H77 5368   7.024   7.013   2.174
   13CHTO   H78 5369   6.914   7.002   2.035
   13CHTO   C51 5370   6.717   6.959   2.286
   13CHTO   H93 5371   6.749   7.031   2.362
   13CHTO   O30 5372   6.648   6.848   2.344
   13CHTO   C46 5373   6.721   6.785   2.454
   13CHTO   H88 5374   6.746   6.861   2.528
   13CHTO   C53 5375   6.626   6.681   2.517
   13CHTO   O72 5376   6.510   6.743   2.574
   13CHTO  H199 5377   6.455   6.778   2.507
   13CHTO   O22 5378   6.620   7.020   2.198
   13CHTO   C31 5379   6.515   7.113   2.247
   13CHTO   H59 5380   6.439   7.118   2.166
   13CHTO   C29 5381   6.441   7.066   2.375
   13CHTO   H57 5382   6.517   7.049   2.453
   13CHTO   O21 5383   6.380   6.938   2.348
   13CHTO   H37 5384   6.446   6.874   2.331
   13CHTO   C27 5385   6.335   7.170   2.428
   13CHTO   H55 5386   6.253   7.176   2.356
   13CHTO    N5 5387   6.280   7.131   2.560
   13CHTO   H43 5388   6.358   7.129   2.635
   13CHTO   H44 5389   6.202   7.199   2.590
   13CHTO   C25 5390   6.401   7.313   2.435
   13CHTO   H53 5391   6.481   7.312   2.510
   13CHTO   O17 5392   6.461   7.347   2.306
   13CHTO   C32 5393   6.567   7.259   2.266
   13CHTO   H60 5394   6.645   7.258   2.342
   13CHTO   C36 5395   6.628   7.313   2.134
   13CHTO   O25 5396   6.689   7.441   2.152
   13CHTO   H40 5397   6.724   7.471   2.071
   13CHTO   O15 5398   6.295   7.426   2.474
   13CHTO   C19 5399   6.174   7.499   2.437
   13CHTO   H47 5400   6.182   7.594   2.491
   13CHTO   C20 5401   6.164   7.531   2.285
   13CHTO   H48 5402   6.162   7.439   2.223
   13CHTO   O19 5403   6.282   7.606   2.250
   13CHTO   H35 5404   6.358   7.550   2.253
   13CHTO   C21 5405   6.034   7.615   2.252
   13CHTO   H49 5406   6.041   7.711   2.303
   13CHTO    N4 5407   6.018   7.642   2.107
   13CHTO   H41 5408   6.014   7.749   2.089
   13CHTO   H42 5409   5.928   7.596   2.068
   13CHTO   C22 5410   5.911   7.541   2.314
   13CHTO   H50 5411   5.901   7.446   2.263
   13CHTO   O14 5412   5.930   7.518   2.455
   13CHTO   C23 5413   6.042   7.432   2.485
   13CHTO   H51 5414   6.024   7.336   2.436
   13CHTO   C34 5415   6.043   7.407   2.637
   13CHTO   O23 5416   5.934   7.324   2.677
   13CHTO   H38 5417   5.938   7.309   2.770
   13CHTO   O16 5418   5.792   7.621   2.301
   13CHTO   C24 5419   5.653   7.548   2.334
   13CHTO   H52 5420   5.660   7.485   2.423
   13CHTO   C26 5421   5.606   7.462   2.214
   13CHTO   H54 5422   5.613   7.525   2.121
   13CHTO   O20 5423   5.696   7.351   2.197
   13CHTO   H36 5424   5.676   7.304   2.119
   13CHTO   C30 5425   5.459   7.412   2.229
   13CHTO   H58 5426   5.456   7.335   2.308
   13CHTO    N6 5427   5.408   7.348   2.105
   13CHTO   H45 5428   5.380   7.245   2.125
   13CHTO   H46 5429   5.482   7.349   2.026
   13CHTO   C33 5430   5.365   7.528   2.277
   13CHTO   H61 5431   5.356   7.602   2.196
   13CHTO   O18 5432   5.423   7.593   2.391
   13CHTO   C28 5433   5.548   7.658   2.364
   13CHTO   H56 5434   5.539   7.722   2.277
   13CHTO   C35 5435   5.589   7.745   2.484
   13CHTO   O24 5436   5.492   7.845   2.513
   13CHTO   H39 5437   5.520   7.896   2.587
   13CHTO    O9 5438   5.231   7.484   2.304
   13CHTO   C13 5439   5.217   7.390   2.436
   13CHTO   H26 5440   5.315   7.385   2.487
   13CHTO   C11 5441   5.167   7.247   2.391
   13CHTO   H24 5442   5.244   7.204   2.325
   13CHTO    O8 5443   5.045   7.258   2.315
   13CHTO    H3 5444   5.061   7.303   2.234
   13CHTO    C9 5445   5.156   7.160   2.519
   13CHTO   H22 5446   5.256   7.161   2.564
   13CHTO    N2 5447   5.133   7.017   2.488
   13CHTO   H10 5448   5.034   7.003   2.447
   13CHTO   H11 5449   5.145   6.958   2.578
   13CHTO    C7 5450   5.056   7.228   2.623
   13CHTO   H20 5451   5.119   7.236   2.715
   13CHTO    O4 5452   5.013   7.359   2.584
   13CHTO   C14 5453   5.116   7.451   2.545
   13CHTO   H27 5454   5.175   7.476   2.636
   13CHTO   C18 5455   5.048   7.583   2.498
   13CHTO   O13 5456   4.959   7.563   2.388
   13CHTO    H7 5457   4.886   7.510   2.414
   13CHTO    O2 5458   4.921   7.139   2.658
   13CHTO    C1 5459   4.907   7.109   2.798
   13CHTO   H14 5460   4.963   7.184   2.857
   13CHTO    C2 5461   4.960   6.965   2.835
   13CHTO   H15 5462   4.913   6.895   2.764
   13CHTO    O6 5463   5.103   6.964   2.817
   13CHTO    H1 5464   5.137   6.877   2.831
   13CHTO    C3 5465   4.922   6.926   0.045
   13CHTO   H16 5466   4.981   6.989   0.113
   13CHTO    N1 5467   4.955   6.783   0.075
   13CHTO    H8 5468   4.898   6.717   0.011
   13CHTO    H9 5469   4.933   6.761   0.179
   13CHTO    C4 5470   4.771   6.961   0.075
   13CHTO   H17 5471   4.707   6.890   0.021
   13CHTO    O1 5472   4.740   7.096   0.037
   13CHTO    C5 5473   4.758   7.125   2.838
   13CHTO   H18 5474   4.698   7.058   2.778
   13CHTO   C16 5475   4.711   7.271   2.813
   13CHTO   O11 5476   4.572   7.288   2.844
   13CHTO    H5 5477   4.547   7.376   2.825
   13CHTO    O3 5478   4.746   6.953   0.217
   13CHTO    C6 5479   4.606   6.940   0.257
   13CHTO   H19 5480   4.536   6.963   0.176
   13CHTO    C8 5481   4.577   6.795   0.307
   13CHTO   H21 5482   4.651   6.770   0.383
   13CHTO    O7 5483   4.591   6.707   0.194
   13CHTO    H2 5484   4.526   6.725   0.130
   13CHTO   C12 5485   4.433   6.786   0.373
   13CHTO   H25 5486   4.360   6.799   0.291
   13CHTO    N3 5487   4.407   6.649   0.431
   13CHTO   H12 5488   4.491   6.583   0.417
   13CHTO   H13 5489   4.382   6.656   0.537
   13CHTO   C15 5490   4.414   6.903   0.477
   13CHTO   H28 5491   4.476   6.889   0.565
   13CHTO   O10 5492   4.265   6.919   0.521
   13CHTO    H4 5493   4.259   6.983   0.590
   13CHTO    O5 5494   4.442   7.030   0.417
   13CHTO   C10 5495   4.577   7.042   0.370
   13CHTO   H23 5496   4.645   7.024   0.454
   13CHTO   C17 5497   4.602   7.187   0.325
   13CHTO   O12 5498   4.516   7.226   0.217
   13CHTO    H6 5499   4.427   7.231   0.247
   14CHTO  H203 5500   6.359   5.118   1.774
   14CHTO   O82 5501   6.312   5.089   1.699
   14CHTO  C123 5502   6.185   5.035   1.738
   14CHTO  H227 5503   6.128   5.112   1.791
   14CHTO   O77 5504   6.121   5.005   1.610
   14CHTO  C118 5505   5.987   4.955   1.620
   14CHTO  H222 5506   5.924   5.027   1.675
   14CHTO  C125 5507   5.930   4.939   1.474
   14CHTO   O84 5508   5.916   5.065   1.409
   14CHTO  H205 5509   6.001   5.102   1.393
   14CHTO  C114 5510   5.987   4.820   1.696
   14CHTO  H218 5511   6.046   4.748   1.638
   14CHTO  C116 5512   6.054   4.835   1.836
   14CHTO  H220 5513   5.988   4.897   1.901
   14CHTO   O79 5514   6.061   4.705   1.896
   14CHTO  H201 5515   6.094   4.711   1.984
   14CHTO  C120 5516   6.197   4.903   1.823
   14CHTO  H224 5517   6.263   4.830   1.771
   14CHTO   N21 5518   6.257   4.928   1.957
   14CHTO  H211 5519   6.323   5.013   1.954
   14CHTO  H212 5520   6.310   4.840   1.991
   14CHTO   O75 5521   5.850   4.779   1.703
   14CHTO  C112 5522   5.822   4.623   1.657
   14CHTO  H216 5523   5.911   4.562   1.679
   14CHTO   O73 5524   5.793   4.625   1.516
   14CHTO  C113 5525   5.760   4.497   1.460
   14CHTO  H217 5526   5.841   4.425   1.484
   14CHTO  C124 5527   5.758   4.513   1.307
   14CHTO   O83 5528   5.885   4.549   1.252
   14CHTO  H204 5529   5.907   4.637   1.278
   14CHTO  C109 5530   5.626   4.446   1.520
   14CHTO  H213 5531   5.550   4.522   1.498
   14CHTO  C110 5532   5.646   4.433   1.675
   14CHTO  H214 5533   5.717   4.352   1.693
   14CHTO   O78 5534   5.521   4.392   1.735
   14CHTO  H200 5535   5.455   4.457   1.721
   14CHTO  C111 5536   5.698   4.566   1.737
   14CHTO  H215 5537   5.618   4.641   1.731
   14CHTO   N19 5538   5.734   4.553   1.881
   14CHTO  H207 5539   5.813   4.481   1.893
   14CHTO  H208 5540   5.765   4.649   1.920
   14CHTO   O74 5541   5.582   4.317   1.466
   14CHTO  C115 5542   5.486   4.328   1.328
   14CHTO  H219 5543   5.491   4.427   1.284
   14CHTO   O76 5544   5.534   4.230   1.218
   14CHTO  C122 5545   5.469   4.240   1.090
   14CHTO  H226 5546   5.493   4.149   1.036
   14CHTO  C126 5547   5.536   4.357   1.009
   14CHTO   O85 5548   5.500   4.357   0.871
   14CHTO  H206 5549   5.409   4.378   0.861
   14CHTO  C121 5550   5.310   4.254   1.099
   14CHTO  H225 5551   5.275   4.301   1.005
   14CHTO   O81 5552   5.252   4.123   1.103
   14CHTO  H202 5553   5.276   4.079   1.182
   14CHTO  C119 5554   5.261   4.342   1.219
   14CHTO  H223 5555   5.294   4.443   1.196
   14CHTO  C117 5556   5.333   4.298   1.352
   14CHTO  H221 5557   5.328   4.192   1.378
   14CHTO   N20 5558   5.281   4.370   1.472
   14CHTO  H209 5559   5.293   4.477   1.460
   14CHTO  H210 5560   5.332   4.336   1.561
   14CHTO   O80 5561   5.100   4.362   1.221
   14CHTO  C103 5562   5.029   4.439   1.101
   14CHTO  H190 5563   5.103   4.469   1.026
   14CHTO  C101 5564   4.913   4.360   1.030
   14CHTO  H188 5565   4.848   4.318   1.106
   14CHTO   O68 5566   4.976   4.241   0.950
   14CHTO  H168 5567   5.030   4.273   0.881
   14CHTO   C99 5568   4.825   4.455   0.935
   14CHTO  H186 5569   4.888   4.492   0.851
   14CHTO   N17 5570   4.706   4.388   0.875
   14CHTO  H174 5571   4.737   4.299   0.821
   14CHTO  H175 5572   4.653   4.456   0.810
   14CHTO   C97 5573   4.784   4.583   1.015
   14CHTO  H184 5574   4.718   4.551   1.098
   14CHTO   O64 5575   4.903   4.647   1.062
   14CHTO  C104 5576   4.970   4.572   1.164
   14CHTO  H191 5577   4.904   4.547   1.247
   14CHTO  C108 5578   5.077   4.665   1.221
   14CHTO   O71 5579   5.118   4.625   1.352
   14CHTO  H171 5580   5.184   4.683   1.384
   14CHTO   O62 5581   4.719   4.684   0.934
   14CHTO   C91 5582   4.632   4.774   1.007
   14CHTO  H178 5583   4.575   4.714   1.078
   14CHTO   C92 5584   4.526   4.833   0.907
   14CHTO  H179 5585   4.487   4.752   0.842
   14CHTO   O66 5586   4.413   4.878   0.982
   14CHTO  H166 5587   4.438   4.946   1.043
   14CHTO   C93 5588   4.580   4.955   0.822
   14CHTO  H180 5589   4.492   5.004   0.779
   14CHTO   N16 5590   4.660   4.914   0.703
   14CHTO  H172 5591   4.667   4.806   0.696
   14CHTO  H173 5592   4.759   4.957   0.706
   14CHTO   C94 5593   4.657   5.059   0.914
   14CHTO  H181 5594   4.763   5.066   0.889
   14CHTO   O61 5595   4.651   5.022   1.053
   14CHTO   C95 5596   4.707   4.893   1.083
   14CHTO  H182 5597   4.812   4.892   1.055
   14CHTO  C106 5598   4.702   4.872   1.239
   14CHTO   O69 5599   4.786   4.966   1.307
   14CHTO  H169 5600   4.876   4.947   1.288
   14CHTO   O63 5601   4.586   5.202   0.898
   14CHTO   C96 5602   4.676   5.332   0.943
   14CHTO  H183 5603   4.615   5.420   0.922
   14CHTO   C98 5604   4.810   5.349   0.866
   14CHTO  H185 5605   4.867   5.255   0.869
   14CHTO   O67 5606   4.778   5.370   0.727
   14CHTO  H167 5607   4.732   5.452   0.716
   14CHTO  C102 5608   4.900   5.469   0.925
   14CHTO  H189 5609   4.845   5.561   0.905
   14CHTO   N18 5610   5.033   5.486   0.861
   14CHTO  H176 5611   5.091   5.395   0.870
   14CHTO  H177 5612   5.020   5.509   0.756
   14CHTO  C105 5613   4.911   5.452   1.079
   14CHTO  H192 5614   4.964   5.360   1.102
   14CHTO   O65 5615   4.780   5.444   1.139
   14CHTO  C100 5616   4.703   5.330   1.098
   14CHTO  H187 5617   4.760   5.239   1.124
   14CHTO  C107 5618   4.571   5.328   1.179
   14CHTO   O70 5619   4.597   5.308   1.318
   14CHTO  H170 5620   4.516   5.308   1.365
   14CHTO   O57 5621   4.993   5.582   1.141
   14CHTO   C85 5622   5.037   5.573   1.278
   14CHTO  H157 5623   5.023   5.467   1.307
   14CHTO   C83 5624   4.940   5.654   1.369
   14CHTO  H155 5625   4.840   5.609   1.360
   14CHTO   O56 5626   4.929   5.788   1.319
   14CHTO  H135 5627   4.864   5.836   1.368
   14CHTO   C81 5628   4.986   5.644   1.517
   14CHTO  H153 5629   4.989   5.538   1.545
   14CHTO   N14 5630   4.890   5.704   1.613
   14CHTO  H141 5631   4.882   5.810   1.596
   14CHTO  H142 5632   4.794   5.660   1.601
   14CHTO   C79 5633   5.132   5.702   1.531
   14CHTO  H151 5634   5.164   5.684   1.634
   14CHTO   O52 5635   5.224   5.627   1.444
   14CHTO   C86 5636   5.186   5.621   1.303
   14CHTO  H158 5637   5.203   5.724   1.266
   14CHTO   C90 5638   5.288   5.532   1.230
   14CHTO   O60 5639   5.279   5.546   1.087
   14CHTO  H138 5640   5.343   5.490   1.047
   14CHTO   O50 5641   5.143   5.843   1.504
   14CHTO   C73 5642   5.174   5.982   1.522
   14CHTO  H145 5643   5.138   6.016   1.620
   14CHTO   C74 5644   5.102   6.065   1.411
   14CHTO  H146 5645   4.995   6.043   1.418
   14CHTO   O54 5646   5.117   6.205   1.441
   14CHTO  H133 5647   5.071   6.257   1.378
   14CHTO   C75 5648   5.161   6.024   1.270
   14CHTO  H147 5649   5.141   5.917   1.254
   14CHTO   N13 5650   5.097   6.091   1.155
   14CHTO  H139 5651   4.992   6.068   1.153
   14CHTO  H140 5652   5.109   6.198   1.164
   14CHTO   C76 5653   5.321   6.042   1.271
   14CHTO  H148 5654   5.343   6.148   1.278
   14CHTO   O49 5655   5.381   5.971   1.385
   14CHTO   C77 5656   5.327   6.009   1.513
   14CHTO  H149 5657   5.345   6.116   1.527
   14CHTO   C88 5658   5.408   5.942   1.625
   14CHTO   O58 5659   5.418   5.798   1.609
   14CHTO  H136 5660   5.468   5.762   1.679
   14CHTO   O51 5661   5.386   5.974   1.143
   14CHTO   C78 5662   5.537   6.015   1.121
   14CHTO  H150 5663   5.583   6.051   1.215
   14CHTO   C80 5664   5.547   6.126   1.015
   14CHTO  H152 5665   5.486   6.096   0.926
   14CHTO   O55 5666   5.486   6.244   1.071
   14CHTO  H134 5667   5.535   6.275   1.145
   14CHTO   C84 5668   5.696   6.154   0.969
   14CHTO  H156 5669   5.748   6.200   1.053
   14CHTO   N15 5670   5.703   6.253   0.855
   14CHTO  H143 5671   5.659   6.345   0.884
   14CHTO  H144 5672   5.806   6.270   0.829
   14CHTO   C87 5673   5.767   6.021   0.935
   14CHTO  H159 5674   5.725   5.978   0.844
   14CHTO   O53 5675   5.752   5.924   1.054
   14CHTO   C82 5676   5.615   5.889   1.077
   14CHTO  H154 5677   5.572   5.848   0.986
   14CHTO   C89 5678   5.609   5.778   1.185
   14CHTO   O59 5679   5.667   5.817   1.309
   14CHTO  H137 5680   5.615   5.884   1.350
   14CHTO   O45 5681   5.923   6.046   0.913
   14CHTO   C67 5682   5.999   5.928   0.880
   14CHTO  H124 5683   5.940   5.837   0.892
   14CHTO   C65 5684   6.049   5.938   0.732
   14CHTO  H122 5685   5.961   5.962   0.672
   14CHTO   O44 5686   6.101   5.810   0.690
   14CHTO  H102 5687   6.033   5.746   0.689
   14CHTO   C63 5688   6.147   6.060   0.718
   14CHTO  H120 5689   6.093   6.151   0.745
   14CHTO   N11 5690   6.190   6.092   0.578
   14CHTO  H108 5691   6.105   6.101   0.515
   14CHTO  H109 5692   6.254   6.014   0.541
   14CHTO   C61 5693   6.266   6.047   0.821
   14CHTO  H118 5694   6.316   6.145   0.822
   14CHTO   O40 5695   6.220   6.023   0.957
   14CHTO   C68 5696   6.119   5.919   0.982
   14CHTO  H125 5697   6.075   5.939   1.082
   14CHTO   C72 5698   6.186   5.779   0.992
   14CHTO   O48 5699   6.094   5.676   1.031
   14CHTO  H105 5700   6.031   5.661   0.964
   14CHTO   O38 5701   6.360   5.942   0.789
   14CHTO   C55 5702   6.498   5.975   0.765
   14CHTO  H112 5703   6.509   6.082   0.737
   14CHTO   C56 5704   6.548   5.879   0.650
   14CHTO  H113 5705   6.501   5.782   0.669
   14CHTO   O42 5706   6.493   5.923   0.524
   14CHTO  H100 5707   6.514   5.861   0.456
   14CHTO   C57 5708   6.706   5.864   0.640
   14CHTO  H114 5709   6.743   5.949   0.584
   14CHTO   N10 5710   6.744   5.742   0.563
   14CHTO  H106 5711   6.752   5.765   0.458
   14CHTO  H107 5712   6.671   5.663   0.577
   14CHTO   C58 5713   6.773   5.863   0.780
   14CHTO  H115 5714   6.755   5.764   0.830
   14CHTO   O37 5715   6.723   5.969   0.862
   14CHTO   C59 5716   6.584   5.955   0.894
   14CHTO  H116 5717   6.565   5.856   0.937
   14CHTO   C70 5718   6.552   6.058   1.003
   14CHTO   O46 5719   6.577   6.194   0.965
   14CHTO  H103 5720   6.556   6.251   1.036
   14CHTO   O39 5721   6.935   5.895   0.770
   14CHTO   C60 5722   7.020   5.780   0.759
   14CHTO  H117 5723   6.959   5.689   0.754
   14CHTO   C62 5724   7.105   5.788   0.629
   14CHTO  H119 5725   7.034   5.800   0.545
   14CHTO   O43 5726   7.190   5.905   0.633
   14CHTO  H101 5727   7.138   5.983   0.630
   14CHTO   C66 5728   7.187   5.652   0.611
   14CHTO  H123 5729   7.117   5.568   0.613
   14CHTO   N12 5730   7.256   5.645   0.480
   14CHTO  H110 5731   7.309   5.551   0.471
   14CHTO  H111 5732   7.184   5.656   0.400
   14CHTO   C69 5733   7.283   5.637   0.732
   14CHTO  H126 5734   7.354   5.723   0.732
   14CHTO   O41 5735   7.198   5.640   0.866
   14CHTO   C64 5736   7.112   5.764   0.883
   14CHTO  H121 5737   7.177   5.853   0.892
   14CHTO   C71 5738   7.034   5.748   1.016
   14CHTO   O47 5739   6.969   5.870   1.056
   14CHTO  H104 5740   7.034   5.933   1.081
   14CHTO   O34 5741   7.367   5.502   0.727
   14CHTO   C49 5742   7.518   5.475   0.692
   14CHTO   H91 5743   7.519   5.418   0.599
   14CHTO   C47 5744   7.581   5.392   0.806
   14CHTO   H89 5745   7.683   5.366   0.769
   14CHTO   O33 5746   7.508   5.269   0.826
   14CHTO   H70 5747   7.514   5.216   0.749
   14CHTO   C45 5748   7.588   5.476   0.945
   14CHTO   H87 5749   7.498   5.454   1.004
   14CHTO    N8 5750   7.706   5.432   1.024
   14CHTO   H75 5751   7.702   5.325   1.040
   14CHTO   H76 5752   7.797   5.457   0.971
   14CHTO   C43 5753   7.580   5.634   0.915
   14CHTO   H85 5754   7.473   5.652   0.900
   14CHTO   O29 5755   7.655   5.665   0.796
   14CHTO   C50 5756   7.603   5.606   0.676
   14CHTO   H92 5757   7.540   5.682   0.626
   14CHTO   C54 5758   7.721   5.589   0.577
   14CHTO   O36 5759   7.678   5.548   0.447
   14CHTO   H72 5760   7.752   5.542   0.390
   14CHTO   O27 5761   7.613   5.721   1.024
   14CHTO   C37 5762   7.562   5.849   1.067
   14CHTO   H79 5763   7.647   5.916   1.090
   14CHTO   C38 5764   7.477   5.921   0.956
   14CHTO   H80 5765   7.402   5.849   0.919
   14CHTO   O31 5766   7.566   5.954   0.849
   14CHTO   H68 5767   7.596   5.876   0.805
   14CHTO   C39 5768   7.403   6.049   1.009
   14CHTO   H81 5769   7.478   6.126   1.025
   14CHTO    N7 5770   7.306   6.106   0.908
   14CHTO   H73 5771   7.359   6.131   0.818
   14CHTO   H74 5772   7.258   6.194   0.949
   14CHTO   C40 5773   7.332   6.022   1.147
   14CHTO   H82 5774   7.242   5.961   1.132
   14CHTO   O26 5775   7.423   5.960   1.239
   14CHTO   C41 5776   7.477   5.832   1.195
   14CHTO   H83 5777   7.394   5.762   1.174
   14CHTO   C52 5778   7.559   5.771   1.312
   14CHTO   O35 5779   7.674   5.858   1.354
   14CHTO   H71 5780   7.722   5.816   1.423
   14CHTO   O28 5781   7.296   6.144   1.215
   14CHTO   C42 5782   7.177   6.155   1.301
   14CHTO   H84 5783   7.202   6.238   1.367
   14CHTO   C44 5784   7.147   6.033   1.395
   14CHTO   H86 5785   7.138   5.943   1.334
   14CHTO   O32 5786   7.261   6.019   1.482
   14CHTO   H69 5787   7.253   5.942   1.534
   14CHTO   C48 5788   7.012   6.050   1.477
   14CHTO   H90 5789   7.024   6.134   1.545
   14CHTO    N9 5790   6.980   5.930   1.563
   14CHTO   H77 5791   6.976   5.959   1.667
   14CHTO   H78 5792   7.053   5.852   1.548
   14CHTO   C51 5793   6.895   6.084   1.377
   14CHTO   H93 5794   6.883   6.000   1.308
   14CHTO   O30 5795   6.928   6.205   1.309
   14CHTO   C46 5796   7.050   6.198   1.220
   14CHTO   H88 5797   7.031   6.127   1.139
   14CHTO   C53 5798   7.063   6.342   1.162
   14CHTO   O72 5799   7.168   6.355   1.066
   14CHTO  H199 5800   7.251   6.345   1.108
   14CHTO   O22 5801   6.771   6.114   1.444
   14CHTO   C31 5802   6.642   6.095   1.374
   14CHTO   H59 5803   6.666   6.080   1.267
   14CHTO   C29 5804   6.564   5.970   1.421
   14CHTO   H57 5805   6.546   5.981   1.529
   14CHTO   O21 5806   6.649   5.855   1.404
   14CHTO   H37 5807   6.610   5.780   1.443
   14CHTO   C27 5808   6.424   5.954   1.347
   14CHTO   H55 5809   6.444   5.928   1.242
   14CHTO    N5 5810   6.341   5.846   1.407
   14CHTO   H43 5811   6.250   5.834   1.350
   14CHTO   H44 5812   6.396   5.753   1.407
   14CHTO   C25 5813   6.347   6.091   1.347
   14CHTO   H53 5814   6.315   6.115   1.449
   14CHTO   O17 5815   6.433   6.198   1.300
   14CHTO   C32 5816   6.549   6.220   1.381
   14CHTO   H60 5817   6.520   6.237   1.485
   14CHTO   C36 5818   6.621   6.347   1.328
   14CHTO   O25 5819   6.534   6.461   1.332
   14CHTO   H40 5820   6.580   6.536   1.301
   14CHTO   O15 5821   6.222   6.087   1.254
   14CHTO   C19 5822   6.093   6.154   1.257
   14CHTO   H47 5823   6.046   6.126   1.162
   14CHTO   C20 5824   6.000   6.106   1.373
   14CHTO   H48 5825   6.044   6.127   1.472
   14CHTO   O19 5826   5.986   5.963   1.359
   14CHTO   H35 5827   6.067   5.920   1.379
   14CHTO   C21 5828   5.859   6.177   1.366
   14CHTO   H49 5829   5.807   6.141   1.277
   14CHTO    N4 5830   5.771   6.143   1.482
   14CHTO   H41 5831   5.676   6.192   1.472
   14CHTO   H42 5832   5.755   6.036   1.486
   14CHTO   C22 5833   5.877   6.330   1.349
   14CHTO   H50 5834   5.914   6.372   1.443
   14CHTO   O14 5835   5.967   6.361   1.242
   14CHTO   C23 5836   6.100   6.309   1.257
   14CHTO   H51 5837   6.142   6.348   1.350
   14CHTO   C34 5838   6.186   6.360   1.140
   14CHTO   O23 5839   6.203   6.502   1.145
   14CHTO   H38 5840   6.256   6.526   1.218
   14CHTO   O16 5841   5.753   6.391   1.308
   14CHTO   C24 5842   5.719   6.553   1.342
   14CHTO   H52 5843   5.686   6.606   1.253
   14CHTO   C26 5844   5.839   6.631   1.400
   14CHTO   H54 5845   5.875   6.579   1.491
   14CHTO   O20 5846   5.946   6.633   1.303
   14CHTO   H36 5847   5.919   6.678   1.225
   14CHTO   C30 5848   5.798   6.777   1.440
   14CHTO   H58 5849   5.781   6.835   1.349
   14CHTO    N6 5850   5.907   6.847   1.514
   14CHTO   H45 5851   5.994   6.785   1.525
   14CHTO   H46 5852   5.935   6.938   1.463
   14CHTO   C33 5853   5.664   6.781   1.519
   14CHTO   H61 5854   5.679   6.745   1.623
   14CHTO   O18 5855   5.565   6.696   1.457
   14CHTO   C28 5856   5.602   6.558   1.443
   14CHTO   H56 5857   5.635   6.517   1.538
   14CHTO   C35 5858   5.477   6.482   1.393
   14CHTO   O24 5859   5.490   6.339   1.400
   14CHTO   H39 5860   5.411   6.299   1.370
   14CHTO    O9 5861   5.617   6.917   1.532
   14CHTO   C13 5862   5.474   6.935   1.603
   14CHTO   H26 5863   5.454   6.845   1.666
   14CHTO   C11 5864   5.363   6.953   1.491
   14CHTO   H24 5865   5.353   6.857   1.437
   14CHTO    O8 5866   5.405   7.052   1.395
   14CHTO    H3 5867   5.414   7.136   1.436
   14CHTO    C9 5868   5.228   6.986   1.559
   14CHTO   H22 5869   5.208   6.903   1.629
   14CHTO    N2 5870   5.112   6.981   1.466
   14CHTO   H10 5871   5.052   7.071   1.475
   14CHTO   H11 5872   5.145   6.969   1.364
   14CHTO    C7 5873   5.242   7.119   1.646
   14CHTO   H20 5874   5.199   7.091   1.745
   14CHTO    O4 5875   5.378   7.161   1.663
   14CHTO   C14 5876   5.472   7.059   1.703
   14CHTO   H27 5877   5.442   7.023   1.804
   14CHTO   C18 5878   5.611   7.126   1.720
   14CHTO   O13 5879   5.610   7.224   1.824
   14CHTO    H7 5880   5.695   7.263   1.831
   14CHTO    O2 5881   5.149   7.252   1.585
   14CHTO    C1 5882   5.183   7.388   1.615
   14CHTO   H14 5883   5.098   7.451   1.583
   14CHTO    C2 5884   5.314   7.441   1.543
   14CHTO   H15 5885   5.398   7.376   1.573
   14CHTO    O6 5886   5.294   7.431   1.401
   14CHTO    H1 5887   5.288   7.341   1.375
   14CHTO    C3 5888   5.346   7.592   1.586
   14CHTO   H16 5889   5.267   7.658   1.546
   14CHTO    N1 5890   5.477   7.641   1.530
   14CHTO    H8 5891   5.473   7.640   1.422
   14CHTO    H9 5892   5.558   7.579   1.565
   14CHTO    C4 5893   5.339   7.607   1.743
   14CHTO   H17 5894   5.425   7.557   1.787
   14CHTO    O1 5895   5.217   7.552   1.796
   14CHTO    C5 5896   5.195   7.412   1.769
   14CHTO   H18 5897   5.279   7.354   1.807
   14CHTO   C16 5898   5.066   7.369   1.843
   14CHTO   O11 5899   5.079   7.382   1.985
   14CHTO    H5 5900   5.083   7.473   2.009
   14CHTO    O3 5901   5.334   7.746   1.779
   14CHTO    C6 5902   5.386   7.779   1.912
   14CHTO   H19 5903   5.396   7.692   1.977
   14CHTO    C8 5904   5.526   7.847   1.900
   14CHTO   H21 5905   5.518   7.927   1.825
   14CHTO    O7 5906   5.618   7.747   1.853
   14CHTO    H2 5907   5.701   7.785   1.836
   14CHTO   C12 5908   5.572   7.910   2.037
   14CHTO   H25 5909   5.594   7.824   2.104
   14CHTO    N3 5910   5.701   7.988   2.024
   14CHTO   H12 5911   5.738   7.985   1.922
   14CHTO   H13 5912   5.775   7.949   2.092
   14CHTO   C15 5913   5.456   7.994   2.101
   14CHTO   H28 5914   5.437   8.086   2.045
   14CHTO   O10 5915   5.481   8.029   2.249
   14CHTO    H4 5916   5.557   8.084   2.257
   14CHTO    O5 5917   5.335   7.917   2.110
   14CHTO   C10 5918   5.285   7.875   1.982
   14CHTO   H23 5919   5.271   7.964   1.920
   14CHTO   C17 5920   5.146   7.812   2.000
   14CHTO   O12 5921   5.146   7.698   2.086
   14CHTO    H6 5922   5.165   7.724   2.174
   15CHTO  H203 5923   6.265   4.931   1.435
   15CHTO   O82 5924   6.321   4.964   1.367
   15CHTO  C123 5925   6.370   4.856   1.286
   15CHTO  H227 5926   6.406   4.775   1.352
   15CHTO   O77 5927   6.252   4.812   1.212
   15CHTO  C118 5928   6.274   4.699   1.126
   15CHTO  H222 5929   6.310   4.614   1.186
   15CHTO  C125 5930   6.135   4.659   1.062
   15CHTO   O84 5931   6.078   4.764   0.983
   15CHTO  H205 5932   6.054   4.836   1.038
   15CHTO  C114 5933   6.378   4.734   1.018
   15CHTO  H218 5934   6.342   4.820   0.961
   15CHTO  C116 5935   6.512   4.782   1.085
   15CHTO  H220 5936   6.558   4.697   1.140
   15CHTO   O79 5937   6.604   4.818   0.980
   15CHTO  H201 5938   6.687   4.841   1.017
   15CHTO  C120 5939   6.483   4.901   1.185
   15CHTO  H224 5940   6.447   4.987   1.123
   15CHTO   N21 5941   6.607   4.944   1.254
   15CHTO  H211 5942   6.657   5.020   1.196
   15CHTO  H212 5943   6.585   4.982   1.353
   15CHTO   O75 5944   6.382   4.620   0.930
   15CHTO  C112 5945   6.504   4.511   0.944
   15CHTO  H216 5946   6.543   4.512   1.047
   15CHTO   O73 5947   6.605   4.549   0.849
   15CHTO  C113 5948   6.717   4.459   0.840
   15CHTO  H217 5949   6.763   4.449   0.941
   15CHTO  C124 5950   6.823   4.521   0.748
   15CHTO   O83 5951   6.777   4.540   0.614
   15CHTO  H204 5952   6.845   4.577   0.562
   15CHTO  C109 5953   6.667   4.322   0.789
   15CHTO  H213 5954   6.616   4.341   0.693
   15CHTO  C110 5955   6.565   4.265   0.891
   15CHTO  H214 5956   6.616   4.246   0.986
   15CHTO   O78 5957   6.516   4.137   0.844
   15CHTO  H200 5958   6.471   4.148   0.762
   15CHTO  C111 5959   6.448   4.366   0.912
   15CHTO  H215 5960   6.391   4.373   0.819
   15CHTO   N19 5961   6.352   4.324   1.018
   15CHTO  H207 5962   6.403   4.312   1.112
   15CHTO  H208 5963   6.305   4.231   0.990
   15CHTO   O74 5964   6.779   4.231   0.767
   15CHTO  C115 5965   6.759   4.156   0.626
   15CHTO  H219 5966   6.655   4.125   0.611
   15CHTO   O76 5967   6.793   4.251   0.505
   15CHTO  C122 5968   6.768   4.196   0.375
   15CHTO  H226 5969   6.812   4.265   0.302
   15CHTO  C126 5970   6.614   4.194   0.344
   15CHTO   O85 5971   6.556   4.325   0.341
   15CHTO  H206 5972   6.464   4.319   0.324
   15CHTO  C121 5973   6.833   4.054   0.354
   15CHTO  H225 5974   6.788   4.008   0.263
   15CHTO   O81 5975   6.973   4.066   0.331
   15CHTO  H202 5976   6.989   4.114   0.251
   15CHTO  C119 5977   6.804   3.959   0.475
   15CHTO  H223 5978   6.696   3.950   0.478
   15CHTO  C117 5979   6.846   4.025   0.612
   15CHTO  H221 5980   6.950   4.058   0.621
   15CHTO   N20 5981   6.823   3.935   0.730
   15CHTO  H209 5982   6.916   3.917   0.783
   15CHTO  H210 5983   6.779   3.841   0.699
   15CHTO   O80 5984   6.848   3.813   0.447
   15CHTO  C103 5985   6.741   3.693   0.462
   15CHTO  H190 5986   6.717   3.678   0.567
   15CHTO  C101 5987   6.607   3.704   0.379
   15CHTO  H188 5988   6.631   3.738   0.278
   15CHTO   O68 5989   6.512   3.811   0.444
   15CHTO  H168 5990   6.553   3.895   0.444
   15CHTO   C99 5991   6.532   3.563   0.370
   15CHTO  H186 5992   6.499   3.534   0.471
   15CHTO   N17 5993   6.409   3.563   0.283
   15CHTO  H174 5994   6.359   3.468   0.290
   15CHTO  H175 5995   6.343   3.643   0.314
   15CHTO   C97 5996   6.632   3.453   0.326
   15CHTO  H184 5997   6.663   3.474   0.222
   15CHTO   O64 5998   6.744   3.449   0.415
   15CHTO  C104 5999   6.825   3.568   0.416
   15CHTO  H191 6000   6.867   3.587   0.317
   15CHTO  C108 6001   6.944   3.545   0.510
   15CHTO   O71 6002   7.025   3.436   0.464
   15CHTO  H171 6003   7.097   3.424   0.522
   15CHTO   O62 6004   6.580   3.319   0.338
   15CHTO   C91 6005   6.644   3.221   0.255
   15CHTO  H178 6006   6.734   3.265   0.211
   15CHTO   C92 6007   6.549   3.188   0.135
   15CHTO  H179 6008   6.514   3.282   0.090
   15CHTO   O66 6009   6.627   3.124   0.033
   15CHTO  H166 6010   6.662   3.042   0.065
   15CHTO   C93 6011   6.429   3.094   0.175
   15CHTO  H180 6012   6.393   3.047   0.082
   15CHTO   N16 6013   6.311   3.166   0.229
   15CHTO  H172 6014   6.338   3.219   0.319
   15CHTO  H173 6015   6.231   3.097   0.249
   15CHTO   C94 6016   6.478   2.979   0.273
   15CHTO  H181 6017   6.445   2.996   0.376
   15CHTO   O61 6018   6.621   2.970   0.278
   15CHTO   C95 6019   6.685   3.088   0.332
   15CHTO  H182 6020   6.657   3.097   0.437
   15CHTO  C106 6021   6.840   3.063   0.329
   15CHTO   O69 6022   6.910   3.168   0.395
   15CHTO  H169 6023   7.002   3.152   0.391
   15CHTO   O63 6024   6.423   2.847   0.223
   15CHTO   C96 6025   6.432   2.727   0.325
   15CHTO  H183 6026   6.442   2.768   0.426
   15CHTO   C98 6027   6.554   2.633   0.298
   15CHTO  H185 6028   6.569   2.625   0.189
   15CHTO   O67 6029   6.672   2.698   0.348
   15CHTO  H167 6030   6.690   2.776   0.298
   15CHTO  C102 6031   6.540   2.486   0.362
   15CHTO  H189 6032   6.548   2.500   0.471
   15CHTO   N18 6033   6.647   2.390   0.325
   15CHTO  H176 6034   6.699   2.356   0.413
   15CHTO  H177 6035   6.717   2.436   0.256
   15CHTO  C105 6036   6.397   2.434   0.330
   15CHTO  H192 6037   6.385   2.430   0.221
   15CHTO   O65 6038   6.299   2.523   0.384
   15CHTO  C100 6039   6.295   2.651   0.318
   15CHTO  H187 6040   6.272   2.635   0.212
   15CHTO  C107 6041   6.181   2.735   0.380
   15CHTO   O70 6042   6.053   2.674   0.358
   15CHTO  H170 6043   5.986   2.727   0.396
   15CHTO   O57 6044   6.376   2.281   0.391
   15CHTO   C85 6045   6.348   2.261   0.531
   15CHTO  H157 6046   6.348   2.361   0.578
   15CHTO   C83 6047   6.468   2.185   0.597
   15CHTO  H155 6048   6.555   2.250   0.592
   15CHTO   O56 6049   6.499   2.068   0.518
   15CHTO  H135 6050   6.577   2.027   0.551
   15CHTO   C81 6051   6.435   2.155   0.746
   15CHTO  H153 6052   6.416   2.250   0.796
   15CHTO   N14 6053   6.551   2.098   0.819
   15CHTO  H141 6054   6.528   2.089   0.923
   15CHTO  H142 6055   6.575   2.001   0.780
   15CHTO   C79 6056   6.305   2.067   0.755
   15CHTO  H151 6057   6.282   2.054   0.861
   15CHTO   O52 6058   6.192   2.139   0.696
   15CHTO   C86 6059   6.213   2.184   0.558
   15CHTO  H158 6060   6.206   2.091   0.498
   15CHTO   C90 6061   6.093   2.272   0.514
   15CHTO   O60 6062   5.969   2.201   0.521
   15CHTO  H138 6063   5.946   2.186   0.611
   15CHTO   O50 6064   6.319   1.937   0.697
   15CHTO   C73 6065   6.251   1.812   0.684
   15CHTO  H145 6066   6.147   1.828   0.654
   15CHTO   C74 6067   6.251   1.733   0.819
   15CHTO  H146 6068   6.203   1.799   0.893
   15CHTO   O54 6069   6.166   1.618   0.804
   15CHTO  H133 6070   6.202   1.559   0.741
   15CHTO   C75 6071   6.400   1.698   0.860
   15CHTO  H147 6072   6.453   1.792   0.881
   15CHTO   N13 6073   6.410   1.617   0.984
   15CHTO  H139 6074   6.514   1.598   1.007
   15CHTO  H140 6075   6.366   1.672   1.067
   15CHTO   C76 6076   6.475   1.627   0.738
   15CHTO  H148 6077   6.431   1.528   0.725
   15CHTO   O49 6078   6.460   1.703   0.613
   15CHTO   C77 6079   6.323   1.726   0.576
   15CHTO  H149 6080   6.270   1.631   0.565
   15CHTO   C88 6081   6.316   1.794   0.438
   15CHTO   O58 6082   6.178   1.805   0.390
   15CHTO  H136 6083   6.177   1.847   0.306
   15CHTO   O51 6084   6.633   1.621   0.768
   15CHTO   C78 6085   6.706   1.519   0.677
   15CHTO  H150 6086   6.648   1.500   0.585
   15CHTO   C80 6087   6.729   1.385   0.750
   15CHTO  H152 6088   6.790   1.405   0.842
   15CHTO   O55 6089   6.600   1.335   0.791
   15CHTO  H134 6090   6.611   1.258   0.843
   15CHTO   C84 6091   6.805   1.282   0.657
   15CHTO  H156 6092   6.737   1.255   0.577
   15CHTO   N15 6093   6.840   1.155   0.729
   15CHTO  H143 6094   6.906   1.176   0.811
   15CHTO  H144 6095   6.888   1.087   0.662
   15CHTO   C87 6096   6.931   1.346   0.592
   15CHTO  H159 6097   7.013   1.352   0.664
   15CHTO   O53 6098   6.898   1.491   0.536
   15CHTO   C82 6099   6.842   1.577   0.636
   15CHTO  H154 6100   6.909   1.583   0.722
   15CHTO   C89 6101   6.828   1.720   0.579
   15CHTO   O59 6102   6.957   1.779   0.558
   15CHTO  H137 6103   6.947   1.866   0.524
   15CHTO   O45 6104   6.979   1.250   0.466
   15CHTO   C67 6105   7.072   1.310   0.375
   15CHTO  H124 6106   7.080   1.417   0.394
   15CHTO   C65 6107   7.214   1.245   0.391
   15CHTO  H122 6108   7.198   1.145   0.431
   15CHTO   O44 6109   7.282   1.325   0.490
   15CHTO  H102 6110   7.364   1.285   0.513
   15CHTO   C63 6111   7.287   1.221   0.253
   15CHTO  H120 6112   7.243   1.134   0.205
   15CHTO   N11 6113   7.431   1.181   0.260
   15CHTO  H108 6114   7.490   1.262   0.297
   15CHTO  H109 6115   7.466   1.152   0.163
   15CHTO   C61 6116   7.258   1.342   0.157
   15CHTO  H118 6117   7.304   1.318   0.060
   15CHTO   O40 6118   7.115   1.359   0.132
   15CHTO   C68 6119   7.021   1.298   0.226
   15CHTO  H125 6120   7.007   1.191   0.199
   15CHTO   C72 6121   6.883   1.366   0.210
   15CHTO   O48 6122   6.831   1.356   0.077
   15CHTO  H105 6123   6.748   1.399   0.073
   15CHTO   O38 6124   7.312   1.467   0.207
   15CHTO   C55 6125   7.317   1.574   0.112
   15CHTO  H112 6126   7.249   1.553   0.028
   15CHTO   C56 6127   7.466   1.597   0.061
   15CHTO  H113 6128   7.529   1.609   0.150
   15CHTO   O42 6129   7.511   1.478   2.935
   15CHTO  H100 6130   7.601   1.487   2.910
   15CHTO   C57 6131   7.474   1.725   2.910
   15CHTO  H114 6132   7.418   1.703   2.819
   15CHTO   N10 6133   7.613   1.759   2.869
   15CHTO  H106 6134   7.660   1.824   0.000
   15CHTO  H107 6135   7.613   1.808   2.772
   15CHTO   C58 6136   7.407   1.844   0.042
   15CHTO  H115 6137   7.466   1.869   0.134
   15CHTO   O37 6138   7.272   1.811   0.079
   15CHTO   C59 6139   7.264   1.706   0.176
   15CHTO  H116 6140   7.322   1.732   0.264
   15CHTO   C70 6141   7.117   1.691   0.218
   15CHTO   O46 6142   7.064   1.810   0.278
   15CHTO  H103 6143   7.057   1.878   0.213
   15CHTO   O39 6144   7.394   1.973   2.890
   15CHTO   C60 6145   7.383   2.094   0.026
   15CHTO  H117 6146   7.339   2.072   0.124
   15CHTO   C62 6147   7.523   2.157   0.052
   15CHTO  H119 6148   7.581   2.081   0.110
   15CHTO   O43 6149   7.590   2.180   2.868
   15CHTO  H101 6150   7.676   2.213   2.883
   15CHTO   C66 6151   7.505   2.289   0.142
   15CHTO  H123 6152   7.451   2.263   0.233
   15CHTO   N12 6153   7.635   2.346   0.186
   15CHTO  H110 6154   7.618   2.434   0.246
   15CHTO  H111 6155   7.690   2.272   0.241
   15CHTO   C69 6156   7.418   2.391   0.063
   15CHTO  H126 6157   7.469   2.416   2.908
   15CHTO   O41 6158   7.279   2.326   0.032
   15CHTO   C64 6159   7.287   2.195   2.897
   15CHTO  H121 6160   7.325   2.214   2.794
   15CHTO   C71 6161   7.144   2.136   2.885
   15CHTO   O47 6162   7.084   2.112   0.071
   15CHTO  H104 6163   6.998   2.077   0.059
   15CHTO   O34 6164   7.393   2.524   0.143
   15CHTO   C49 6165   7.356   2.665   0.090
   15CHTO   H91 6166   7.444   2.728   0.109
   15CHTO   C47 6167   7.236   2.718   0.170
   15CHTO   H89 6168   7.222   2.824   0.140
   15CHTO   O33 6169   7.270   2.714   0.310
   15CHTO   H70 6170   7.201   2.752   0.361
   15CHTO   C45 6171   7.105   2.632   0.133
   15CHTO   H87 6172   7.128   2.526   0.154
   15CHTO    N8 6173   6.988   2.671   0.215
   15CHTO   H75 6174   7.011   2.662   0.320
   15CHTO   H76 6175   6.959   2.772   0.193
   15CHTO   C43 6176   7.076   2.638   2.915
   15CHTO   H85 6177   6.999   2.562   2.898
   15CHTO   O29 6178   7.197   2.608   2.841
   15CHTO   C50 6179   7.323   2.666   2.879
   15CHTO   H92 6180   7.401   2.608   2.828
   15CHTO   C54 6181   7.341   2.807   2.815
   15CHTO   O36 6182   7.472   2.861   2.835
   15CHTO   H72 6183   7.535   2.811   2.788
   15CHTO   O27 6184   7.020   2.763   2.870
   15CHTO   C37 6185   6.913   2.771   2.774
   15CHTO   H79 6186   6.904   2.676   2.718
   15CHTO   C38 6187   6.773   2.795   2.842
   15CHTO   H80 6188   6.781   2.884   2.906
   15CHTO   O31 6189   6.744   2.680   2.924
   15CHTO   H68 6190   6.802   2.677   0.056
   15CHTO   C39 6191   6.658   2.816   2.735
   15CHTO   H81 6192   6.645   2.721   2.685
   15CHTO    N7 6193   6.525   2.854   2.795
   15CHTO   H73 6194   6.531   2.860   2.902
   15CHTO   H74 6195   6.449   2.782   2.766
   15CHTO   C40 6196   6.700   2.920   2.624
   15CHTO   H82 6197   6.700   3.022   2.663
   15CHTO   O26 6198   6.829   2.882   2.574
   15CHTO   C41 6199   6.936   2.886   2.671
   15CHTO   H83 6200   6.938   2.983   2.723
   15CHTO   C52 6201   7.068   2.871   2.593
   15CHTO   O35 6202   7.086   2.977   2.492
   15CHTO   H71 6203   7.166   2.964   2.446
   15CHTO   O28 6204   6.616   2.913   2.506
   15CHTO   C42 6205   6.617   3.018   2.403
   15CHTO   H84 6206   6.572   2.968   2.317
   15CHTO   C44 6207   6.758   3.068   2.355
   15CHTO   H86 6208   6.815   3.099   2.443
   15CHTO   O32 6209   6.825   2.954   2.297
   15CHTO   H69 6210   6.780   2.926   2.219
   15CHTO   C48 6211   6.752   3.191   2.256
   15CHTO   H90 6212   6.707   3.159   2.163
   15CHTO    N9 6213   6.890   3.241   2.220
   15CHTO   H77 6214   6.945   3.162   2.170
   15CHTO   H78 6215   6.942   3.273   2.309
   15CHTO   C51 6216   6.662   3.304   2.319
   15CHTO   H93 6217   6.705   3.332   2.416
   15CHTO   O30 6218   6.530   3.251   2.333
   15CHTO   C46 6219   6.523   3.137   2.440
   15CHTO   H88 6220   6.553   3.177   2.536
   15CHTO   C53 6221   6.376   3.088   2.447
   15CHTO   O72 6222   6.286   3.194   2.483
   15CHTO  H199 6223   6.281   3.256   2.414
   15CHTO   O22 6224   6.650   3.419   2.233
   15CHTO   C31 6225   6.615   3.555   2.279
   15CHTO   H59 6226   6.634   3.621   2.191
   15CHTO   C29 6227   6.467   3.573   2.317
   15CHTO   H57 6228   6.445   3.509   2.405
   15CHTO   O21 6229   6.386   3.524   2.208
   15CHTO   H37 6230   6.397   3.432   2.198
   15CHTO   C27 6231   6.435   3.724   2.354
   15CHTO   H55 6232   6.453   3.786   2.265
   15CHTO    N5 6233   6.294   3.745   2.399
   15CHTO   H43 6234   6.290   3.791   2.496
   15CHTO   H44 6235   6.241   3.805   2.326
   15CHTO   C25 6236   6.537   3.773   2.463
   15CHTO   H53 6237   6.520   3.718   2.557
   15CHTO   O17 6238   6.673   3.749   2.418
   15CHTO   C32 6239   6.705   3.611   2.394
   15CHTO   H60 6240   6.687   3.553   2.484
   15CHTO   C36 6241   6.856   3.604   2.360
   15CHTO   O25 6242   6.937   3.647   2.470
   15CHTO   H40 6243   6.931   3.584   2.540
   15CHTO   O15 6244   6.522   3.927   2.489
   15CHTO   C19 6245   6.559   4.062   2.528
   15CHTO   H47 6246   6.599   4.105   2.435
   15CHTO   C20 6247   6.438   4.149   2.574
   15CHTO   H48 6248   6.381   4.100   2.655
   15CHTO   O19 6249   6.350   4.161   2.461
   15CHTO   H35 6250   6.310   4.078   2.442
   15CHTO   C21 6251   6.482   4.292   2.625
   15CHTO   H49 6252   6.521   4.349   2.541
   15CHTO    N4 6253   6.370   4.372   2.681
   15CHTO   H41 6254   6.325   4.320   2.764
   15CHTO   H42 6255   6.295   4.389   2.605
   15CHTO   C22 6256   6.600   4.277   2.726
   15CHTO   H50 6257   6.564   4.224   2.815
   15CHTO   O14 6258   6.706   4.204   2.664
   15CHTO   C23 6259   6.676   4.067   2.632
   15CHTO   H51 6260   6.650   4.015   2.725
   15CHTO   C34 6261   6.803   4.003   2.574
   15CHTO   O23 6262   6.909   3.999   2.670
   15CHTO   H38 6263   6.984   3.959   2.632
   15CHTO   O16 6264   6.660   4.402   2.762
   15CHTO   C24 6265   6.700   4.417   2.921
   15CHTO   H52 6266   6.655   4.339   0.041
   15CHTO   C26 6267   6.651   4.555   0.029
   15CHTO   H54 6268   6.682   4.632   2.895
   15CHTO   O20 6269   6.507   4.553   0.032
   15CHTO   H36 6270   6.476   4.491   0.095
   15CHTO   C30 6271   6.712   4.596   0.167
   15CHTO   H58 6272   6.668   4.534   0.247
   15CHTO    N6 6273   6.678   4.736   0.202
   15CHTO   H45 6274   6.720   4.804   0.130
   15CHTO   H46 6275   6.717   4.761   0.300
   15CHTO   C33 6276   6.865   4.569   0.171
   15CHTO   H61 6277   6.916   4.635   0.098
   15CHTO   O18 6278   6.889   4.433   0.132
   15CHTO   C28 6279   6.854   4.404   2.938
   15CHTO   H56 6280   6.902   4.475   2.871
   15CHTO   C35 6281   6.906   4.263   2.904
   15CHTO   O24 6282   6.847   4.158   0.041
   15CHTO   H39 6283   6.874   4.166   0.131
   15CHTO    O9 6284   6.924   4.598   0.299
   15CHTO   C13 6285   7.089   4.632   0.310
   15CHTO   H26 6286   7.096   4.736   0.350
   15CHTO   C11 6287   7.175   4.615   0.177
   15CHTO   H24 6288   7.134   4.685   0.102
   15CHTO    O8 6289   7.166   4.482   0.122
   15CHTO    H3 6290   7.198   4.419   0.183
   15CHTO    C9 6291   7.319   4.659   0.213
   15CHTO   H22 6292   7.311   4.761   0.252
   15CHTO    N2 6293   7.407   4.673   0.094
   15CHTO   H10 6294   7.502   4.717   0.123
   15CHTO   H11 6295   7.423   4.576   0.048
   15CHTO    C7 6296   7.378   4.566   0.326
   15CHTO   H20 6297   7.469   4.620   0.359
   15CHTO    O4 6298   7.292   4.552   0.441
   15CHTO   C14 6299   7.148   4.543   0.426
   15CHTO   H27 6300   7.107   4.581   0.522
   15CHTO   C18 6301   7.103   4.395   0.414
   15CHTO   O13 6302   7.116   4.325   0.538
   15CHTO    H7 6303   7.088   4.236   0.527
   15CHTO    O2 6304   7.420   4.418   0.273
   15CHTO    C1 6305   7.539   4.366   0.336
   15CHTO   H14 6306   7.544   4.404   0.440
   15CHTO    C2 6307   7.674   4.403   0.261
   15CHTO   H15 6308   7.658   4.377   0.155
   15CHTO    O6 6309   7.696   4.545   0.272
   15CHTO    H1 6310   7.771   4.570   0.221
   15CHTO    C3 6311   7.799   4.320   0.319
   15CHTO   H16 6312   7.821   4.356   0.421
   15CHTO    N1 6313   7.925   4.341   0.238
   15CHTO    H8 6314   7.907   4.409   0.156
   15CHTO    H9 6315   7.963   4.247   0.200
   15CHTO    C4 6316   7.762   4.168   0.334
   15CHTO   H17 6317   7.750   4.125   0.234
   15CHTO    O1 6318   7.640   4.153   0.409
   15CHTO    C5 6319   7.525   4.211   0.347
   15CHTO   H18 6320   7.514   4.172   0.246
   15CHTO   C16 6321   7.402   4.168   0.430
   15CHTO   O11 6322   7.409   4.215   0.566
   15CHTO    H5 6323   7.333   4.187   0.613
   15CHTO    O3 6324   7.860   4.095   0.410
   15CHTO    C6 6325   7.864   3.951   0.380
   15CHTO   H19 6326   7.778   3.917   0.323
   15CHTO    C8 6327   7.993   3.918   0.297
   15CHTO   H21 6328   8.080   3.955   0.352
   15CHTO    O7 6329   7.981   3.988   0.172
   15CHTO    H2 6330   8.059   3.978   0.122
   15CHTO   C12 6331   8.007   3.762   0.277
   15CHTO   H25 6332   7.921   3.730   0.214
   15CHTO    N3 6333   8.131   3.726   0.201
   15CHTO   H12 6334   8.130   3.773   0.104
   15CHTO   H13 6335   8.139   3.619   0.191
   15CHTO   C15 6336   7.996   3.690   0.416
   15CHTO   H28 6337   8.082   3.711   0.479
   15CHTO   O10 6338   7.978   3.535   0.403
   15CHTO    H4 6339   7.980   3.495   0.488
   15CHTO    O5 6340   7.875   3.728   0.483
   15CHTO   C10 6341   7.865   3.869   0.513
   15CHTO   H23 6342   7.949   3.897   0.576
   15CHTO   C17 6343   7.736   3.884   0.595
   15CHTO   O12 6344   7.723   4.015   0.652
   15CHTO    H6 6345   7.708   4.078   0.584
   16CHTO  H203 6346   5.475   4.277   2.815
   16CHTO   O82 6347   5.551   4.292   2.762
   16CHTO  C123 6348   5.670   4.274   2.840
   16CHTO  H227 6349   5.659   4.328   2.935
   16CHTO   O77 6350   5.674   4.130   2.864
   16CHTO  C118 6351   5.782   4.087   0.008
   16CHTO  H222 6352   5.776   4.140   0.104
   16CHTO  C125 6353   5.765   3.933   0.034
   16CHTO   O84 6354   5.643   3.906   0.104
   16CHTO  H205 6355   5.635   3.814   0.118
   16CHTO  C114 6356   5.917   4.118   2.882
   16CHTO  H218 6357   5.924   4.059   2.790
   16CHTO  C116 6358   5.928   4.269   2.843
   16CHTO  H220 6359   5.940   4.329   2.936
   16CHTO   O79 6360   6.048   4.289   2.766
   16CHTO  H201 6361   6.124   4.274   2.819
   16CHTO  C120 6362   5.801   4.318   2.763
   16CHTO  H224 6363   5.804   4.269   2.664
   16CHTO   N21 6364   5.804   4.465   2.741
   16CHTO  H211 6365   5.750   4.489   2.650
   16CHTO  H212 6366   5.906   4.500   2.733
   16CHTO   O75 6367   6.016   4.076   0.036
   16CHTO  C112 6368   6.156   4.029   2.908
   16CHTO  H216 6369   6.174   4.088   2.817
   16CHTO   O73 6370   6.143   3.889   2.879
   16CHTO  C113 6371   6.256   3.834   2.809
   16CHTO  H217 6372   6.271   3.889   2.714
   16CHTO  C124 6373   6.224   3.688   2.775
   16CHTO   O83 6374   6.111   3.675   2.688
   16CHTO  H204 6375   6.033   3.700   2.734
   16CHTO  C109 6376   6.384   3.845   2.897
   16CHTO  H213 6377   6.367   3.780   0.044
   16CHTO  C110 6378   6.406   3.991   0.004
   16CHTO  H214 6379   6.437   4.051   2.860
   16CHTO   O78 6380   6.516   3.993   0.097
   16CHTO  H200 6381   6.495   3.943   0.174
   16CHTO  C111 6382   6.276   4.051   0.067
   16CHTO  H215 6383   6.254   3.997   0.160
   16CHTO   N19 6384   6.289   4.195   0.103
   16CHTO  H207 6385   6.197   4.230   0.148
   16CHTO  H208 6386   6.312   4.254   0.015
   16CHTO   O74 6387   6.501   3.797   2.823
   16CHTO  C115 6388   6.585   3.693   2.907
   16CHTO  H219 6389   6.577   3.712   0.073
   16CHTO   O76 6390   6.530   3.548   2.889
   16CHTO  C122 6391   6.589   3.481   2.777
   16CHTO  H226 6392   6.576   3.544   2.689
   16CHTO  C126 6393   6.509   3.350   2.747
   16CHTO   O85 6394   6.373   3.377   2.709
   16CHTO  H206 6395   6.329   3.296   2.693
   16CHTO  C121 6396   6.742   3.453   2.804
   16CHTO  H225 6397   6.750   3.356   2.858
   16CHTO   O81 6398   6.810   3.443   2.679
   16CHTO  H202 6399   6.781   3.368   2.631
   16CHTO  C119 6400   6.806   3.565   2.893
   16CHTO  H223 6401   6.780   3.538   0.054
   16CHTO  C117 6402   6.738   3.704   2.866
   16CHTO  H221 6403   6.738   3.739   2.763
   16CHTO   N20 6404   6.802   3.815   0.004
   16CHTO  H209 6405   6.844   3.889   2.878
   16CHTO  H210 6406   6.878   3.778   0.070
   16CHTO   O80 6407   6.967   3.558   2.898
   16CHTO  C103 6408   7.036   3.461   0.058
   16CHTO  H190 6409   6.967   3.436   0.139
   16CHTO  C101 6410   7.093   3.327   2.939
   16CHTO  H188 6411   7.163   3.351   2.859
   16CHTO   O68 6412   6.976   3.243   2.880
   16CHTO  H168 6413   6.936   3.289   2.808
   16CHTO   C99 6414   7.170   3.246   0.113
   16CHTO  H186 6415   7.096   3.215   0.190
   16CHTO   N17 6416   7.234   3.120   0.063
   16CHTO  H174 6417   7.274   3.063   0.146
   16CHTO  H175 6418   7.312   3.143   2.932
   16CHTO   C97 6419   7.273   3.337   0.187
   16CHTO  H184 6420   7.360   3.354   0.120
   16CHTO   O64 6421   7.213   3.461   0.228
   16CHTO  C104 6422   7.156   3.540   0.123
   16CHTO  H191 6423   7.230   3.563   0.046
   16CHTO  C108 6424   7.111   3.676   0.179
   16CHTO   O71 6425   7.220   3.751   0.233
   16CHTO  H171 6426   7.277   3.779   0.163
   16CHTO   O62 6427   7.316   3.272   0.308
   16CHTO   C91 6428   7.424   3.331   0.384
   16CHTO  H178 6429   7.480   3.397   0.317
   16CHTO   C92 6430   7.522   3.216   0.426
   16CHTO  H179 6431   7.556   3.162   0.336
   16CHTO   O66 6432   7.641   3.275   0.482
   16CHTO  H166 6433   7.688   3.322   0.416
   16CHTO   C93 6434   7.458   3.119   0.534
   16CHTO  H180 6435   7.540   3.084   0.599
   16CHTO   N16 6436   7.400   2.996   0.474
   16CHTO  H172 6437   7.412   2.995   0.367
   16CHTO  H173 6438   7.445   2.908   0.518
   16CHTO   C94 6439   7.352   3.195   0.622
   16CHTO  H181 6440   7.252   3.193   0.578
   16CHTO   O61 6441   7.388   3.334   0.635
   16CHTO   C95 6442   7.374   3.410   0.513
   16CHTO  H182 6443   7.269   3.436   0.500
   16CHTO  C106 6444   7.451   3.546   0.532
   16CHTO   O69 6445   7.432   3.634   0.420
   16CHTO  H169 6446   7.474   3.599   0.344
   16CHTO   O63 6447   7.348   3.130   0.770
   16CHTO   C96 6448   7.199   3.082   0.819
   16CHTO  H183 6449   7.211   3.040   0.919
   16CHTO   C98 6450   7.134   2.971   0.731
   16CHTO  H185 6451   7.143   2.998   0.624
   16CHTO   O67 6452   7.213   2.852   0.748
   16CHTO  H167 6453   7.182   2.784   0.691
   16CHTO  C102 6454   6.979   2.944   0.767
   16CHTO  H189 6455   6.979   2.905   0.870
   16CHTO   N18 6456   6.911   2.840   0.685
   16CHTO  H176 6457   6.979   2.798   0.612
   16CHTO  H177 6458   6.824   2.881   0.634
   16CHTO  C105 6459   6.908   3.082   0.766
   16CHTO  H192 6460   6.920   3.127   0.667
   16CHTO   O65 6461   6.969   3.170   0.863
   16CHTO  C100 6462   7.104   3.207   0.832
   16CHTO  H187 6463   7.104   3.263   0.737
   16CHTO  C107 6464   7.155   3.302   0.943
   16CHTO   O70 6465   7.076   3.421   0.950
   16CHTO  H170 6466   7.110   3.477   1.017
   16CHTO   O57 6467   6.748   3.063   0.801
   16CHTO   C85 6468   6.658   3.150   0.730
   16CHTO  H157 6469   6.708   3.172   0.633
   16CHTO   C83 6470   6.644   3.288   0.801
   16CHTO  H155 6471   6.744   3.329   0.815
   16CHTO   O56 6472   6.589   3.269   0.933
   16CHTO  H135 6473   6.501   3.238   0.928
   16CHTO   C81 6474   6.564   3.383   0.708
   16CHTO  H153 6475   6.621   3.396   0.617
   16CHTO   N14 6476   6.555   3.521   0.763
   16CHTO  H141 6477   6.494   3.522   0.851
   16CHTO  H142 6478   6.512   3.587   0.691
   16CHTO   C79 6479   6.423   3.321   0.668
   16CHTO  H151 6480   6.385   3.379   0.584
   16CHTO   O52 6481   6.435   3.182   0.621
   16CHTO   C86 6482   6.512   3.095   0.709
   16CHTO  H158 6483   6.455   3.094   0.804
   16CHTO   C90 6484   6.512   2.950   0.657
   16CHTO   O60 6485   6.380   2.895   0.659
   16CHTO  H138 6486   6.382   2.806   0.627
   16CHTO   O50 6487   6.326   3.327   0.773
   16CHTO   C73 6488   6.186   3.297   0.784
   16CHTO  H145 6489   6.170   3.189   0.773
   16CHTO   C74 6490   6.102   3.370   0.674
   16CHTO  H146 6491   6.141   3.337   0.576
   16CHTO   O54 6492   5.966   3.323   0.680
   16CHTO  H133 6493   5.927   3.346   0.762
   16CHTO   C75 6494   6.116   3.526   0.693
   16CHTO  H147 6495   6.222   3.553   0.684
   16CHTO   N13 6496   6.045   3.607   0.591
   16CHTO  H139 6497   5.994   3.544   0.519
   16CHTO  H140 6498   6.115   3.670   0.538
   16CHTO   C76 6499   6.071   3.563   0.842
   16CHTO  H148 6500   5.965   3.541   0.852
   16CHTO   O49 6501   6.147   3.484   0.940
   16CHTO   C77 6502   6.137   3.342   0.924
   16CHTO  H149 6503   6.033   3.310   0.938
   16CHTO   C88 6504   6.218   3.275   1.036
   16CHTO   O58 6505   6.204   3.128   1.033
   16CHTO  H136 6506   6.256   3.090   1.101
   16CHTO   O51 6507   6.105   3.718   0.872
   16CHTO   C78 6508   6.073   3.764   1.017
   16CHTO  H150 6509   6.073   3.678   1.088
   16CHTO   C80 6510   5.935   3.834   1.024
   16CHTO  H152 6511   5.932   3.915   0.947
   16CHTO   O55 6512   5.834   3.738   0.989
   16CHTO  H134 6513   5.830   3.669   1.053
   16CHTO   C84 6514   5.909   3.898   1.167
   16CHTO  H156 6515   5.901   3.817   1.239
   16CHTO   N15 6516   5.780   3.975   1.174
   16CHTO  H143 6517   5.780   4.054   1.102
   16CHTO  H144 6518   5.697   3.910   1.155
   16CHTO   C87 6519   6.030   3.986   1.208
   16CHTO  H159 6520   6.036   4.073   1.143
   16CHTO   O53 6521   6.160   3.901   1.197
   16CHTO   C82 6522   6.184   3.860   1.062
   16CHTO  H154 6523   6.189   3.947   0.996
   16CHTO   C89 6524   6.323   3.791   1.054
   16CHTO   O59 6525   6.429   3.883   1.080
   16CHTO  H137 6526   6.435   3.944   1.008
   16CHTO   O45 6527   6.020   4.037   1.361
   16CHTO   C67 6528   6.130   4.122   1.397
   16CHTO  H124 6529   6.213   4.106   1.328
   16CHTO   C65 6530   6.089   4.273   1.391
   16CHTO  H122 6531   5.985   4.277   1.425
   16CHTO   O44 6532   6.093   4.310   1.252
   16CHTO  H102 6533   6.182   4.318   1.223
   16CHTO   C63 6534   6.169   4.363   1.494
   16CHTO  H120 6535   6.120   4.356   1.591
   16CHTO   N11 6536   6.165   4.512   1.472
   16CHTO  H108 6537   6.122   4.534   1.377
   16CHTO  H109 6538   6.263   4.554   1.478
   16CHTO   C61 6539   6.313   4.303   1.513
   16CHTO  H118 6540   6.364   4.366   1.588
   16CHTO   O40 6541   6.308   4.168   1.567
   16CHTO   C68 6542   6.188   4.087   1.540
   16CHTO  H125 6543   6.112   4.108   1.619
   16CHTO   C72 6544   6.228   3.938   1.553
   16CHTO   O48 6545   6.117   3.848   1.551
   16CHTO  H105 6546   6.066   3.860   1.629
   16CHTO   O38 6547   6.387   4.302   1.390
   16CHTO   C55 6548   6.531   4.304   1.399
   16CHTO  H112 6549   6.563   4.284   1.503
   16CHTO   C56 6550   6.585   4.443   1.346
   16CHTO  H113 6551   6.537   4.459   1.248
   16CHTO   O42 6552   6.537   4.548   1.432
   16CHTO  H100 6553   6.561   4.631   1.397
   16CHTO   C57 6554   6.742   4.444   1.332
   16CHTO  H114 6555   6.781   4.446   1.434
   16CHTO   N10 6556   6.797   4.564   1.265
   16CHTO  H106 6557   6.727   4.601   1.191
   16CHTO  H107 6558   6.891   4.544   1.217
   16CHTO   C58 6559   6.792   4.314   1.263
   16CHTO  H115 6560   6.767   4.318   1.154
   16CHTO   O37 6561   6.735   4.196   1.321
   16CHTO   C59 6562   6.592   4.189   1.313
   16CHTO  H116 6563   6.560   4.198   1.209
   16CHTO   C70 6564   6.549   4.050   1.362
   16CHTO   O46 6565   6.589   4.022   1.496
   16CHTO  H103 6566   6.560   3.936   1.520
   16CHTO   O39 6567   6.949   4.294   1.285
   16CHTO   C60 6568   7.016   4.234   1.173
   16CHTO  H117 6569   6.945   4.173   1.116
   16CHTO   C62 6570   7.073   4.343   1.078
   16CHTO  H119 6571   6.985   4.399   1.039
   16CHTO   O43 6572   7.154   4.433   1.156
   16CHTO  H101 6573   7.185   4.503   1.102
   16CHTO   C66 6574   7.151   4.274   0.956
   16CHTO  H123 6575   7.081   4.210   0.902
   16CHTO   N12 6576   7.200   4.375   0.858
   16CHTO  H110 6577   7.160   4.354   0.759
   16CHTO  H111 6578   7.308   4.379   0.856
   16CHTO   C69 6579   7.264   4.182   1.010
   16CHTO  H126 6580   7.340   4.241   1.065
   16CHTO   O41 6581   7.201   4.077   1.106
   16CHTO   C64 6582   7.128   4.138   1.223
   16CHTO  H121 6583   7.199   4.196   1.285
   16CHTO   C71 6584   7.071   4.024   1.312
   16CHTO   O47 6585   6.981   3.938   1.240
   16CHTO  H104 6586   7.028   3.889   1.175
   16CHTO   O34 6587   7.336   4.106   0.894
   16CHTO   C49 6588   7.446   4.001   0.876
   16CHTO   H91 6589   7.527   4.050   0.821
   16CHTO   C47 6590   7.388   3.884   0.793
   16CHTO   H89 6591   7.473   3.815   0.770
   16CHTO   O33 6592   7.337   3.936   0.668
   16CHTO   H70 6593   7.408   3.968   0.615
   16CHTO   C45 6594   7.277   3.809   0.880
   16CHTO   H87 6595   7.202   3.883   0.914
   16CHTO    N8 6596   7.205   3.703   0.804
   16CHTO   H75 6597   7.128   3.660   0.866
   16CHTO   H76 6598   7.161   3.745   0.715
   16CHTO   C43 6599   7.345   3.753   1.015
   16CHTO   H85 6600   7.265   3.710   1.074
   16CHTO   O29 6601   7.413   3.860   1.085
   16CHTO   C50 6602   7.500   3.948   1.011
   16CHTO   H92 6603   7.518   4.035   1.075
   16CHTO   C54 6604   7.643   3.887   0.995
   16CHTO   O36 6605   7.705   3.862   1.121
   16CHTO   H72 6606   7.661   3.792   1.165
   16CHTO   O27 6607   7.437   3.645   0.989
   16CHTO   C37 6608   7.509   3.545   1.064
   16CHTO   H79 6609   7.601   3.588   1.106
   16CHTO   C38 6610   7.424   3.493   1.184
   16CHTO   H80 6611   7.322   3.471   1.147
   16CHTO   O31 6612   7.417   3.600   1.279
   16CHTO   H68 6613   7.358   3.578   1.349
   16CHTO   C39 6614   7.486   3.363   1.250
   16CHTO   H81 6615   7.577   3.394   1.300
   16CHTO    N7 6616   7.396   3.302   1.354
   16CHTO   H73 6617   7.379   3.372   1.434
   16CHTO   H74 6618   7.302   3.273   1.309
   16CHTO   C40 6619   7.526   3.258   1.140
   16CHTO   H82 6620   7.437   3.215   1.093
   16CHTO   O26 6621   7.612   3.321   1.043
   16CHTO   C41 6622   7.548   3.428   0.968
   16CHTO   H83 6623   7.458   3.391   0.918
   16CHTO   C52 6624   7.647   3.477   0.860
   16CHTO   O35 6625   7.682   3.370   0.766
   16CHTO   H71 6626   7.742   3.404   0.702
   16CHTO   O28 6627   7.609   3.152   1.192
   16CHTO   C42 6628   7.602   3.013   1.146
   16CHTO   H84 6629   7.703   2.976   1.164
   16CHTO   C44 6630   7.573   2.987   0.995
   16CHTO   H86 6631   7.474   3.025   0.971
   16CHTO   O32 6632   7.671   3.062   0.921
   16CHTO   H69 6633   7.654   3.057   0.829
   16CHTO   C48 6634   7.577   2.833   0.960
   16CHTO   H90 6635   7.678   2.797   0.977
   16CHTO    N9 6636   7.548   2.806   0.814
   16CHTO   H77 6637   7.555   2.700   0.794
   16CHTO   H78 6638   7.450   2.843   0.789
   16CHTO   C51 6639   7.479   2.754   1.055
   16CHTO   H93 6640   7.377   2.786   1.034
   16CHTO   O30 6641   7.516   2.778   1.192
   16CHTO   C46 6642   7.505   2.926   1.233
   16CHTO   H88 6643   7.403   2.960   1.217
   16CHTO   C53 6644   7.539   2.936   1.385
   16CHTO   O72 6645   7.670   2.887   1.414
   16CHTO  H199 6646   7.687   2.896   1.506
   16CHTO   O22 6647   7.493   2.611   1.038
   16CHTO   C31 6648   7.390   2.515   1.080
   16CHTO   H59 6649   7.339   2.559   1.169
   16CHTO   C29 6650   7.281   2.490   0.973
   16CHTO   H57 6651   7.334   2.467   0.879
   16CHTO   O21 6652   7.212   2.614   0.950
   16CHTO   H37 6653   7.155   2.607   0.876
   16CHTO   C27 6654   7.183   2.371   1.008
   16CHTO   H55 6655   7.122   2.400   1.095
   16CHTO    N5 6656   7.092   2.338   0.895
   16CHTO   H43 6657   7.032   2.424   0.870
   16CHTO   H44 6658   7.149   2.305   0.810
   16CHTO   C25 6659   7.268   2.247   1.051
   16CHTO   H53 6660   7.333   2.216   0.967
   16CHTO   O17 6661   7.353   2.285   1.164
   16CHTO   C32 6662   7.454   2.380   1.130
   16CHTO   H60 6663   7.517   2.340   1.050
   16CHTO   C36 6664   7.540   2.399   1.257
   16CHTO   O25 6665   7.658   2.478   1.232
   16CHTO   H40 6666   7.634   2.567   1.215
   16CHTO   O15 6667   7.180   2.122   1.096
   16CHTO   C19 6668   7.069   2.082   1.180
   16CHTO   H47 6669   7.098   1.982   1.216
   16CHTO   C20 6670   7.047   2.174   1.305
   16CHTO   H48 6671   7.039   2.280   1.277
   16CHTO   O19 6672   7.164   2.160   1.388
   16CHTO   H35 6673   7.239   2.199   1.346
   16CHTO   C21 6674   6.916   2.137   1.386
   16CHTO   H49 6675   6.929   2.038   1.430
   16CHTO    N4 6676   6.888   2.230   1.498
   16CHTO   H41 6677   6.800   2.198   1.552
   16CHTO   H42 6678   6.873   2.330   1.461
   16CHTO   C22 6679   6.798   2.127   1.285
   16CHTO   H50 6680   6.787   2.223   1.235
   16CHTO   O14 6681   6.831   2.025   1.189
   16CHTO   C23 6682   6.937   2.062   1.100
   16CHTO   H51 6683   6.906   2.154   1.048
   16CHTO   C34 6684   6.952   1.951   0.995
   16CHTO   O23 6685   6.833   1.932   0.917
   16CHTO   H38 6686   6.765   1.896   0.971
   16CHTO   O16 6687   6.673   2.088   1.344
   16CHTO   C24 6688   6.554   2.061   1.233
   16CHTO   H52 6689   6.594   2.048   1.132
   16CHTO   C26 6690   6.455   2.179   1.230
   16CHTO   H54 6691   6.420   2.199   1.335
   16CHTO   O20 6692   6.526   2.295   1.184
   16CHTO   H36 6693   6.470   2.371   1.189
   16CHTO   C30 6694   6.331   2.144   1.142
   16CHTO   H58 6695   6.363   2.134   1.037
   16CHTO    N6 6696   6.229   2.253   1.142
   16CHTO   H45 6697   6.273   2.345   1.105
   16CHTO   H46 6698   6.146   2.226   1.080
   16CHTO   C33 6699   6.272   2.007   1.185
   16CHTO   H61 6700   6.240   2.014   1.290
   16CHTO   O18 6701   6.376   1.908   1.177
   16CHTO   C28 6702   6.483   1.929   1.270
   16CHTO   H56 6703   6.445   1.937   1.372
   16CHTO   C35 6704   6.583   1.812   1.263
   16CHTO   O24 6705   6.524   1.687   1.298
   16CHTO   H39 6706   6.589   1.619   1.291
   16CHTO    O9 6707   6.154   1.966   1.112
   16CHTO   C13 6708   6.083   1.833   1.181
   16CHTO   H26 6709   6.165   1.762   1.206
   16CHTO   C11 6710   5.977   1.768   1.084
   16CHTO   H24 6711   6.030   1.737   0.992
   16CHTO    O8 6712   5.876   1.862   1.043
   16CHTO    H3 6713   5.826   1.890   1.117
   16CHTO    C9 6714   5.925   1.640   1.154
   16CHTO   H22 6715   6.014   1.581   1.179
   16CHTO    N2 6716   5.846   1.551   1.064
   16CHTO   H10 6717   5.903   1.528   0.976
   16CHTO   H11 6718   5.820   1.460   1.117
   16CHTO    C7 6719   5.851   1.679   1.287
   16CHTO   H20 6720   5.838   1.581   1.338
   16CHTO    O4 6721   5.931   1.763   1.373
   16CHTO   C14 6722   6.014   1.868   1.320
   16CHTO   H27 6723   6.096   1.880   1.394
   16CHTO   C18 6724   5.936   2.002   1.317
   16CHTO   O13 6725   5.914   2.050   1.450
   16CHTO    H7 6726   5.866   2.131   1.447
   16CHTO    O2 6727   5.700   1.750   1.263
   16CHTO    C1 6728   5.601   1.725   1.364
   16CHTO   H14 6729   5.510   1.783   1.336
   16CHTO    C2 6730   5.644   1.768   1.511
   16CHTO   H15 6731   5.739   1.717   1.532
   16CHTO    O6 6732   5.662   1.910   1.513
   16CHTO    H1 6733   5.737   1.934   1.461
   16CHTO    C3 6734   5.534   1.724   1.619
   16CHTO   H16 6735   5.442   1.783   1.603
   16CHTO    N1 6736   5.579   1.751   1.760
   16CHTO    H8 6737   5.502   1.722   1.830
   16CHTO    H9 6738   5.670   1.695   1.781
   16CHTO    C4 6739   5.492   1.574   1.597
   16CHTO   H17 6740   5.576   1.509   1.624
   16CHTO    O1 6741   5.453   1.550   1.461
   16CHTO    C5 6742   5.556   1.575   1.363
   16CHTO   H18 6743   5.642   1.513   1.388
   16CHTO   C16 6744   5.500   1.530   1.225
   16CHTO   O11 6745   5.381   1.601   1.189
   16CHTO    H5 6746   5.350   1.570   1.106
   16CHTO    O3 6747   5.375   1.541   1.674
   16CHTO    C6 6748   5.365   1.403   1.722
   16CHTO   H19 6749   5.432   1.335   1.670
   16CHTO    C8 6750   5.399   1.398   1.875
   16CHTO   H21 6751   5.342   1.477   1.925
   16CHTO    O7 6752   5.540   1.423   1.889
   16CHTO    H2 6753   5.559   1.513   1.868
   16CHTO   C12 6754   5.358   1.260   1.940
   16CHTO   H25 6755   5.427   1.183   1.898
   16CHTO    N3 6756   5.378   1.260   2.089
   16CHTO   H12 6757   5.482   1.278   2.112
   16CHTO   H13 6758   5.316   1.336   2.135
   16CHTO   C15 6759   5.211   1.223   1.897
   16CHTO   H28 6760   5.138   1.292   1.941
   16CHTO   O10 6761   5.172   1.078   1.932
   16CHTO    H4 6762   5.171   1.067   2.026
   16CHTO    O5 6763   5.200   1.224   1.754
   16CHTO   C10 6764   5.220   1.353   1.696
   16CHTO   H23 6765   5.149   1.423   1.740
   16CHTO   C17 6766   5.191   1.345   1.546
   16CHTO   O12 6767   5.053   1.317   1.521
   16CHTO    H6 6768   5.033   1.228   1.545
   17CHTO  H203 6769   5.534   4.549   2.467
   17CHTO   O82 6770   5.521   4.534   2.559
   17CHTO  C123 6771   5.502   4.659   2.627
   17CHTO  H227 6772   5.482   4.638   2.734
   17CHTO   O77 6773   5.630   4.728   2.613
   17CHTO  C118 6774   5.641   4.847   2.693
   17CHTO  H222 6775   5.625   4.824   2.799
   17CHTO  C125 6776   5.787   4.904   2.675
   17CHTO   O84 6777   5.886   4.809   2.717
   17CHTO  H205 6778   5.972   4.845   2.703
   17CHTO  C114 6779   5.538   4.951   2.645
   17CHTO  H218 6780   5.566   4.984   2.545
   17CHTO  C116 6781   5.393   4.892   2.635
   17CHTO  H220 6782   5.350   4.885   2.738
   17CHTO   O79 6783   5.313   4.988   2.564
   17CHTO  H201 6784   5.223   4.961   2.564
   17CHTO  C120 6785   5.390   4.751   2.565
   17CHTO  H224 6786   5.412   4.769   2.459
   17CHTO   N21 6787   5.255   4.687   2.571
   17CHTO  H211 6788   5.178   4.763   2.568
   17CHTO  H212 6789   5.246   4.627   2.660
   17CHTO   O75 6790   5.546   5.059   2.739
   17CHTO  C112 6791   5.572   5.205   2.673
   17CHTO  H216 6792   5.537   5.205   2.568
   17CHTO   O73 6793   5.713   5.229   2.681
   17CHTO  C113 6794   5.757   5.355   2.628
   17CHTO  H217 6795   5.728   5.361   2.521
   17CHTO  C124 6796   5.910   5.358   2.635
   17CHTO   O83 6797   5.971   5.254   2.558
   17CHTO  H204 6798   5.958   5.270   2.467
   17CHTO  C109 6799   5.694   5.471   2.708
   17CHTO  H213 6800   5.730   5.462   2.812
   17CHTO  C110 6801   5.538   5.458   2.706
   17CHTO  H214 6802   5.504   5.476   2.604
   17CHTO   O78 6803   5.483   5.562   2.789
   17CHTO  H200 6804   5.390   5.562   2.783
   17CHTO  C111 6805   5.494   5.316   2.753
   17CHTO  H215 6806   5.521   5.305   2.859
   17CHTO   N19 6807   5.348   5.295   2.743
   17CHTO  H207 6808   5.296   5.368   2.803
   17CHTO  H208 6809   5.322   5.196   2.778
   17CHTO   O74 6810   5.736   5.600   2.653
   17CHTO  C115 6811   5.771   5.705   2.765
   17CHTO  H219 6812   5.714   5.688   2.856
   17CHTO   O76 6813   5.920   5.694   2.809
   17CHTO  C122 6814   6.012   5.748   2.714
   17CHTO  H226 6815   5.998   5.692   2.621
   17CHTO  C126 6816   6.159   5.717   2.761
   17CHTO   O85 6817   6.189   5.770   2.891
   17CHTO  H206 6818   6.188   5.864   2.888
   17CHTO  C121 6819   5.988   5.903   2.689
   17CHTO  H225 6820   6.068   5.959   2.742
   17CHTO   O81 6821   5.999   5.929   2.549
   17CHTO  H202 6822   6.087   5.913   2.519
   17CHTO  C119 6823   5.850   5.952   2.742
   17CHTO  H223 6824   5.859   5.955   2.851
   17CHTO  C117 6825   5.736   5.849   2.707
   17CHTO  H221 6826   5.719   5.834   2.601
   17CHTO   N20 6827   5.603   5.897   2.760
   17CHTO  H209 6828   5.557   5.824   2.825
   17CHTO  H210 6829   5.537   5.921   2.678
   17CHTO   O80 6830   5.820   6.107   2.707
   17CHTO  C103 6831   5.900   6.219   2.780
   17CHTO  H190 6832   5.945   6.181   2.872
   17CHTO  C101 6833   6.010   6.291   2.693
   17CHTO  H188 6834   5.967   6.319   2.597
   17CHTO   O68 6835   6.126   6.192   2.666
   17CHTO  H168 6836   6.188   6.231   2.608
   17CHTO   C99 6837   6.063   6.424   2.765
   17CHTO  H186 6838   6.114   6.396   2.859
   17CHTO   N17 6839   6.161   6.502   2.683
   17CHTO  H174 6840   6.243   6.439   2.654
   17CHTO  H175 6841   6.196   6.588   2.740
   17CHTO   C97 6842   5.942   6.512   2.808
   17CHTO  H184 6843   5.892   6.550   2.717
   17CHTO   O64 6844   5.852   6.435   2.890
   17CHTO  C104 6845   5.790   6.325   2.821
   17CHTO  H191 6846   5.738   6.359   2.732
   17CHTO  C108 6847   5.683   6.263   2.913
   17CHTO   O71 6848   5.578   6.356   2.938
   17CHTO  H171 6849   5.513   6.316   0.051
   17CHTO   O62 6850   5.979   6.620   2.896
   17CHTO   C91 6851   5.897   6.739   2.885
   17CHTO  H178 6852   5.799   6.709   2.847
   17CHTO   C92 6853   5.960   6.835   2.778
   17CHTO  H179 6854   5.993   6.777   2.689
   17CHTO   O66 6855   5.856   6.922   2.731
   17CHTO  H166 6856   5.792   6.874   2.682
   17CHTO   C93 6857   6.075   6.925   2.834
   17CHTO  H180 6858   6.094   7.002   2.758
   17CHTO   N16 6859   6.205   6.855   2.849
   17CHTO  H172 6860   6.280   6.924   2.887
   17CHTO  H173 6861   6.237   6.815   2.754
   17CHTO   C94 6862   6.029   6.996   0.027
   17CHTO  H181 6863   6.095   6.972   0.111
   17CHTO   O61 6864   5.897   6.958   0.070
   17CHTO   C95 6865   5.876   6.816   0.082
   17CHTO  H182 6866   5.946   6.777   0.156
   17CHTO  C106 6867   5.732   6.793   0.140
   17CHTO   O69 6868   5.704   6.654   0.160
   17CHTO  H169 6869   5.698   6.611   0.077
   17CHTO   O63 6870   6.030   7.149   0.001
   17CHTO   C96 6871   6.032   7.232   0.131
   17CHTO  H183 6872   6.034   7.163   0.216
   17CHTO   C98 6873   5.909   7.324   0.151
   17CHTO  H185 6874   5.902   7.397   0.069
   17CHTO   O67 6875   5.790   7.243   0.141
   17CHTO  H167 6876   5.714   7.297   0.147
   17CHTO  C102 6877   5.920   7.397   0.293
   17CHTO  H189 6878   5.907   7.316   0.368
   17CHTO   N18 6879   5.812   7.494   0.324
   17CHTO  H176 6880   5.826   7.535   0.422
   17CHTO  H177 6881   5.812   7.573   0.250
   17CHTO  C105 6882   6.063   7.457   0.311
   17CHTO  H192 6883   6.056   7.564   0.333
   17CHTO   O65 6884   6.149   7.446   0.196
   17CHTO  C100 6885   6.165   7.317   0.134
   17CHTO  H187 6886   6.195   7.336   0.030
   17CHTO  C107 6887   6.282   7.241   0.202
   17CHTO   O70 6888   6.316   7.122   0.131
   17CHTO  H170 6889   6.387   7.079   0.175
   17CHTO   O57 6890   6.120   7.383   0.436
   17CHTO   C85 6891   6.167   7.457   0.549
   17CHTO  H157 6892   6.113   7.555   0.549
   17CHTO   C83 6893   6.319   7.493   0.532
   17CHTO  H155 6894   6.328   7.563   0.448
   17CHTO   O56 6895   6.392   7.375   0.494
   17CHTO  H135 6896   6.363   7.344   0.411
   17CHTO   C81 6897   6.373   7.562   0.660
   17CHTO  H153 6898   6.319   7.656   0.674
   17CHTO   N14 6899   6.515   7.605   0.648
   17CHTO  H141 6900   6.579   7.520   0.641
   17CHTO  H142 6901   6.544   7.663   0.734
   17CHTO   C79 6902   6.347   7.472   0.788
   17CHTO  H151 6903   6.377   7.531   0.875
   17CHTO   O52 6904   6.204   7.445   0.801
   17CHTO   C86 6905   6.146   7.379   0.685
   17CHTO  H158 6906   6.197   7.281   0.681
   17CHTO   C90 6907   5.996   7.349   0.711
   17CHTO   O60 6908   5.920   7.467   0.737
   17CHTO  H138 6909   5.914   7.519   0.659
   17CHTO   O50 6910   6.421   7.349   0.790
   17CHTO   C73 6911   6.476   7.237   0.862
   17CHTO  H145 6912   6.543   7.272   0.941
   17CHTO   C74 6913   6.559   7.150   0.763
   17CHTO  H146 6914   6.635   7.215   0.717
   17CHTO   O54 6915   6.632   7.051   0.839
   17CHTO  H133 6916   6.687   7.001   0.782
   17CHTO   C75 6917   6.463   7.086   0.656
   17CHTO  H147 6918   6.409   7.167   0.605
   17CHTO   N13 6919   6.533   7.011   0.549
   17CHTO  H139 6920   6.600   7.077   0.496
   17CHTO  H140 6921   6.591   6.931   0.593
   17CHTO   C76 6922   6.353   6.999   0.733
   17CHTO  H148 6923   6.406   6.922   0.789
   17CHTO   O49 6924   6.281   7.087   0.826
   17CHTO   C77 6925   6.364   7.148   0.926
   17CHTO  H149 6926   6.411   7.070   0.986
   17CHTO   C88 6927   6.271   7.224   1.022
   17CHTO   O58 6928   6.345   7.291   1.127
   17CHTO  H136 6929   6.394   7.362   1.091
   17CHTO   O51 6930   6.245   6.935   0.630
   17CHTO   C78 6931   6.098   6.910   0.686
   17CHTO  H150 6932   6.059   7.001   0.737
   17CHTO   C80 6933   6.093   6.791   0.785
   17CHTO  H152 6934   6.135   6.701   0.733
   17CHTO   O55 6935   6.179   6.823   0.896
   17CHTO  H134 6936   6.187   6.748   0.952
   17CHTO   C84 6937   5.946   6.762   0.834
   17CHTO  H156 6938   5.916   6.845   0.898
   17CHTO   N15 6939   5.940   6.638   0.920
   17CHTO  H143 6940   5.879   6.562   0.875
   17CHTO  H144 6941   5.901   6.661   1.016
   17CHTO   C87 6942   5.846   6.757   0.715
   17CHTO  H159 6943   5.851   6.662   0.662
   17CHTO   O53 6944   5.870   6.873   0.618
   17CHTO   C82 6945   6.004   6.880   0.568
   17CHTO  H154 6946   6.031   6.787   0.518
   17CHTO   C89 6947   6.007   6.992   0.460
   17CHTO   O59 6948   6.126   6.987   0.381
   17CHTO  H137 6949   6.200   7.011   0.434
   17CHTO   O45 6950   5.696   6.784   0.765
   17CHTO   C67 6951   5.618   6.671   0.805
   17CHTO  H124 6952   5.669   6.578   0.782
   17CHTO   C65 6953   5.588   6.677   0.959
   17CHTO  H122 6954   5.655   6.753   1.001
   17CHTO   O44 6955   5.620   6.550   1.018
   17CHTO  H102 6956   5.712   6.532   1.010
   17CHTO   C63 6957   5.442   6.728   0.986
   17CHTO  H120 6958   5.428   6.823   0.934
   17CHTO   N11 6959   5.409   6.767   1.127
   17CHTO  H108 6960   5.311   6.809   1.132
   17CHTO  H109 6961   5.414   6.681   1.191
   17CHTO   C61 6962   5.344   6.623   0.920
   17CHTO  H118 6963   5.245   6.671   0.914
   17CHTO   O40 6964   5.382   6.587   0.784
   17CHTO   C68 6965   5.484   6.669   0.719
   17CHTO  H125 6966   5.443   6.772   0.708
   17CHTO   C72 6967   5.505   6.614   0.577
   17CHTO   O48 6968   5.589   6.697   0.496
   17CHTO  H105 6969   5.677   6.695   0.529
   17CHTO   O38 6970   5.338   6.499   0.994
   17CHTO   C55 6971   5.218   6.420   0.992
   17CHTO  H112 6972   5.242   6.329   1.050
   17CHTO   C56 6973   5.169   6.384   0.844
   17CHTO  H113 6974   5.164   6.478   0.787
   17CHTO   O42 6975   5.268   6.301   0.781
   17CHTO  H100 6976   5.348   6.349   0.770
   17CHTO   C57 6977   5.027   6.316   0.845
   17CHTO  H114 6978   5.037   6.218   0.892
   17CHTO   N10 6979   4.971   6.295   0.709
   17CHTO  H106 6980   4.905   6.209   0.709
   17CHTO  H107 6981   5.050   6.279   0.638
   17CHTO   C58 6982   4.931   6.402   0.931
   17CHTO  H115 6983   4.924   6.504   0.886
   17CHTO   O37 6984   4.982   6.414   1.065
   17CHTO   C59 6985   5.104   6.489   1.074
   17CHTO  H116 6986   5.087   6.590   1.037
   17CHTO   C70 6987   5.144   6.499   1.221
   17CHTO   O46 6988   5.059   6.586   1.296
   17CHTO  H103 6989   5.088   6.591   1.385
   17CHTO   O39 6990   4.785   6.336   0.944
   17CHTO   C60 6991   4.685   6.428   0.990
   17CHTO  H117 6992   4.725   6.486   1.074
   17CHTO   C62 6993   4.642   6.528   0.878
   17CHTO  H119 6994   4.732   6.587   0.851
   17CHTO   O43 6995   4.597   6.456   0.762
   17CHTO  H101 6996   4.669   6.410   0.723
   17CHTO   C66 6997   4.532   6.630   0.937
   17CHTO  H123 6998   4.574   6.680   1.024
   17CHTO   N12 6999   4.495   6.737   0.841
   17CHTO  H110 7000   4.550   6.727   0.748
   17CHTO  H111 7001   4.511   6.834   0.885
   17CHTO   C69 7002   4.408   6.549   0.986
   17CHTO  H126 7003   4.362   6.495   0.900
   17CHTO   O41 7004   4.455   6.445   1.094
   17CHTO   C64 7005   4.563   6.349   1.044
   17CHTO  H121 7006   4.522   6.286   0.963
   17CHTO   C71 7007   4.606   6.256   1.160
   17CHTO   O47 7008   4.499   6.170   1.199
   17CHTO  H104 7009   4.527   6.113   1.268
   17CHTO   O34 7010   4.300   6.642   1.053
   17CHTO   C49 7011   4.163   6.691   1.002
   17CHTO   H91 7012   4.182   6.770   0.929
   17CHTO   C47 7013   4.084   6.748   1.122
   17CHTO   H89 7014   3.991   6.791   1.077
   17CHTO   O33 7015   4.157   6.854   1.186
   17CHTO   H70 7016   4.168   6.926   1.126
   17CHTO   C45 7017   4.050   6.631   1.230
   17CHTO   H87 7018   4.130   6.629   1.305
   17CHTO    N8 7019   3.922   6.665   1.298
   17CHTO   H75 7020   3.930   6.762   1.345
   17CHTO   H76 7021   3.841   6.664   1.227
   17CHTO   C43 7022   4.056   6.486   1.159
   17CHTO   H85 7023   4.162   6.460   1.156
   17CHTO   O29 7024   3.999   6.495   1.027
   17CHTO   C50 7025   4.076   6.577   0.937
   17CHTO   H92 7026   4.143   6.511   0.880
   17CHTO   C54 7027   3.979   6.631   0.828
   17CHTO   O36 7028   4.048   6.699   0.723
   17CHTO   H72 7029   4.099   6.638   0.673
   17CHTO   O27 7030   3.997   6.381   1.238
   17CHTO   C37 7031   4.001   6.237   1.239
   17CHTO   H79 7032   3.943   6.199   1.325
   17CHTO   C38 7033   3.935   6.178   1.111
   17CHTO   H80 7034   3.983   6.223   1.022
   17CHTO   O31 7035   3.796   6.215   1.113
   17CHTO   H68 7036   3.754   6.189   1.033
   17CHTO   C39 7037   3.953   6.021   1.105
   17CHTO   H81 7038   3.896   5.978   1.188
   17CHTO    N7 7039   3.898   5.960   0.978
   17CHTO   H73 7040   3.950   5.999   0.892
   17CHTO   H74 7041   3.906   5.853   0.982
   17CHTO   C40 7042   4.104   5.982   1.127
   17CHTO   H82 7043   4.163   6.013   1.040
   17CHTO   O26 7044   4.153   6.041   1.249
   17CHTO   C41 7045   4.148   6.187   1.251
   17CHTO   H83 7046   4.207   6.227   1.167
   17CHTO   C52 7047   4.215   6.237   1.382
   17CHTO   O35 7048   4.147   6.190   1.505
   17CHTO   H71 7049   4.193   6.222   1.580
   17CHTO   O28 7050   4.122   5.840   1.147
   17CHTO   C42 7051   4.245   5.772   1.106
   17CHTO   H84 7052   4.236   5.674   1.153
   17CHTO   C44 7053   4.379   5.833   1.159
   17CHTO   H86 7054   4.385   5.937   1.126
   17CHTO   O32 7055   4.371   5.831   1.303
   17CHTO   H69 7056   4.446   5.872   1.340
   17CHTO   C48 7057   4.506   5.757   1.103
   17CHTO   H90 7058   4.506   5.655   1.142
   17CHTO    N9 7059   4.634   5.819   1.152
   17CHTO   H77 7060   4.638   5.816   1.259
   17CHTO   H78 7061   4.719   5.766   1.110
   17CHTO   C51 7062   4.497   5.752   0.946
   17CHTO   H93 7063   4.491   5.854   0.909
   17CHTO   O30 7064   4.379   5.676   0.913
   17CHTO   C46 7065   4.250   5.747   0.952
   17CHTO   H88 7066   4.246   5.843   0.899
   17CHTO   C53 7067   4.133   5.656   0.907
   17CHTO   O72 7068   4.134   5.635   0.765
   17CHTO  H199 7069   4.112   5.714   0.721
   17CHTO   O22 7070   4.605   5.680   0.884
   17CHTO   C31 7071   4.648   5.709   0.745
   17CHTO   H59 7072   4.727   5.634   0.722
   17CHTO   C29 7073   4.538   5.693   0.638
   17CHTO   H57 7074   4.457   5.763   0.662
   17CHTO   O21 7075   4.483   5.560   0.649
   17CHTO   H37 7076   4.439   5.549   0.731
   17CHTO   C27 7077   4.592   5.723   0.492
   17CHTO   H55 7078   4.665   5.645   0.465
   17CHTO    N5 7079   4.484   5.724   0.390
   17CHTO   H43 7080   4.431   5.629   0.392
   17CHTO   H44 7081   4.526   5.740   0.292
   17CHTO   C25 7082   4.669   5.860   0.492
   17CHTO   H53 7083   4.598   5.942   0.509
   17CHTO   O17 7084   4.769   5.864   0.598
   17CHTO   C32 7085   4.716   5.848   0.730
   17CHTO   H60 7086   4.642   5.926   0.749
   17CHTO   C36 7087   4.833   5.864   0.830
   17CHTO   O25 7088   4.878   6.000   0.835
   17CHTO   H40 7089   4.945   6.009   0.900
   17CHTO   O15 7090   4.745   5.884   0.351
   17CHTO   C19 7091   4.796   6.011   0.299
   17CHTO   H47 7092   4.843   5.983   0.204
   17CHTO   C20 7093   4.685   6.116   0.271
   17CHTO   H48 7094   4.624   6.137   0.361
   17CHTO   O19 7095   4.597   6.058   0.172
   17CHTO   H35 7096   4.548   5.988   0.209
   17CHTO   C21 7097   4.745   6.253   0.220
   17CHTO   H49 7098   4.792   6.237   0.123
   17CHTO    N4 7099   4.642   6.359   0.198
   17CHTO   H41 7100   4.659   6.445   0.262
   17CHTO   H42 7101   4.542   6.321   0.216
   17CHTO   C22 7102   4.857   6.297   0.318
   17CHTO   H50 7103   4.812   6.316   0.415
   17CHTO   O14 7104   4.957   6.195   0.329
   17CHTO   C23 7105   4.909   6.073   0.387
   17CHTO   H51 7106   4.873   6.096   0.489
   17CHTO   C34 7107   5.027   5.976   0.401
   17CHTO   O23 7108   5.123   6.024   0.495
   17CHTO   H38 7109   5.088   6.019   0.582
   17CHTO   O16 7110   4.928   6.414   0.271
   17CHTO   C24 7111   5.000   6.499   0.389
   17CHTO   H52 7112   5.027   6.437   0.474
   17CHTO   C26 7113   4.905   6.612   0.436
   17CHTO   H54 7114   4.866   6.665   0.347
   17CHTO   O20 7115   4.793   6.550   0.503
   17CHTO   H36 7116   4.730   6.615   0.526
   17CHTO   C30 7117   4.979   6.715   0.527
   17CHTO   H58 7118   5.011   6.667   0.621
   17CHTO    N6 7119   4.889   6.827   0.566
   17CHTO   H45 7120   4.941   6.895   0.632
   17CHTO   H46 7121   4.857   6.881   0.478
   17CHTO   C33 7122   5.109   6.763   0.455
   17CHTO   H61 7123   5.081   6.811   0.360
   17CHTO   O18 7124   5.190   6.648   0.427
   17CHTO   C28 7125   5.133   6.556   0.332
   17CHTO   H56 7126   5.112   6.607   0.238
   17CHTO   C35 7127   5.232   6.441   0.305
   17CHTO   O24 7128   5.354   6.487   0.245
   17CHTO   H39 7129   5.412   6.415   0.233
   17CHTO    O9 7130   5.183   6.863   0.529
   17CHTO   C13 7131   5.280   6.954   0.433
   17CHTO   H26 7132   5.316   6.891   0.349
   17CHTO   C11 7133   5.401   7.010   0.519
   17CHTO   H24 7134   5.463   6.924   0.548
   17CHTO    O8 7135   5.354   7.072   0.640
   17CHTO    H3 7136   5.311   7.009   0.694
   17CHTO    C9 7137   5.486   7.102   0.428
   17CHTO   H22 7138   5.512   7.042   0.339
   17CHTO    N2 7139   5.617   7.143   0.485
   17CHTO   H10 7140   5.626   7.112   0.588
   17CHTO   H11 7141   5.698   7.102   0.427
   17CHTO    C7 7142   5.399   7.224   0.381
   17CHTO   H20 7143   5.463   7.277   0.308
   17CHTO    O4 7144   5.279   7.181   0.312
   17CHTO   C14 7145   5.198   7.073   0.364
   17CHTO   H27 7146   5.146   7.030   0.276
   17CHTO   C18 7147   5.088   7.132   0.456
   17CHTO   O13 7148   4.998   7.216   0.384
   17CHTO    H7 7149   5.041   7.295   0.358
   17CHTO    O2 7150   5.357   7.323   0.507
   17CHTO    C1 7151   5.318   7.458   0.477
   17CHTO   H14 7152   5.238   7.456   0.399
   17CHTO    C2 7153   5.436   7.554   0.427
   17CHTO   H15 7154   5.520   7.535   0.495
   17CHTO    O6 7155   5.473   7.515   0.294
   17CHTO    H1 7156   5.550   7.562   0.267
   17CHTO    C3 7157   5.395   7.710   0.430
   17CHTO   H16 7158   5.323   7.729   0.348
   17CHTO    N1 7159   5.513   7.799   0.406
   17CHTO    H8 7160   5.481   7.903   0.406
   17CHTO    H9 7161   5.587   7.784   0.483
   17CHTO    C4 7162   5.318   7.744   0.563
   17CHTO   H17 7163   5.388   7.737   0.646
   17CHTO    O1 7164   5.210   7.652   0.580
   17CHTO    C5 7165   5.254   7.519   0.606
   17CHTO   H18 7166   5.331   7.520   0.683
   17CHTO   C16 7167   5.134   7.436   0.658
   17CHTO   O11 7168   5.082   7.489   0.780
   17CHTO    H5 7169   5.042   7.573   0.765
   17CHTO    O3 7170   5.257   7.875   0.559
   17CHTO    C6 7171   5.228   7.944   0.687
   17CHTO   H19 7172   5.163   8.030   0.669
   17CHTO    C8 7173   5.152   7.854   0.790
   17CHTO   H21 7174   5.207   7.761   0.802
   17CHTO    O7 7175   5.023   7.827   0.731
   17CHTO    H2 7176   4.975   7.767   0.785
   17CHTO   C12 7177   5.141   7.922   0.932
   17CHTO   H25 7178   5.077   8.013   0.919
   17CHTO    N3 7179   5.073   7.833   1.031
   17CHTO   H12 7180   5.068   7.882   1.127
   17CHTO   H13 7181   4.973   7.809   0.996
   17CHTO   C15 7182   5.285   7.968   0.974
   17CHTO   H28 7183   5.352   7.882   0.984
   17CHTO   O10 7184   5.289   8.049   1.102
   17CHTO    H4 7185   5.262   7.996   1.175
   17CHTO    O5 7186   5.336   8.061   0.877
   17CHTO   C10 7187   5.360   8.001   0.748
   17CHTO   H23 7188   5.434   7.922   0.760
   17CHTO   C17 7189   5.421   8.108   0.657
   17CHTO   O12 7190   5.550   8.149   0.703
   17CHTO    H6 7191   5.585   8.215   0.646
   18CHTO  H203 7192   6.485   7.743   1.764
   18CHTO   O82 7193   6.463   7.820   1.715
   18CHTO  C123 7194   6.510   7.809   1.580
   18CHTO  H227 7195   6.615   7.776   1.582
   18CHTO   O77 7196   6.426   7.706   1.522
   18CHTO  C118 7197   6.459   7.667   1.388
   18CHTO  H222 7198   6.560   7.623   1.385
   18CHTO  C125 7199   6.354   7.558   1.343
   18CHTO   O84 7200   6.361   7.440   1.425
   18CHTO  H205 7201   6.330   7.460   1.511
   18CHTO  C114 7202   6.451   7.788   1.293
   18CHTO  H218 7203   6.348   7.823   1.291
   18CHTO  C116 7204   6.533   7.911   1.347
   18CHTO  H220 7205   6.642   7.889   1.341
   18CHTO   O79 7206   6.509   8.023   1.259
   18CHTO  H201 7207   6.547   8.007   1.175
   18CHTO  C120 7208   6.495   7.942   1.497
   18CHTO  H224 7209   6.388   7.974   1.497
   18CHTO   N21 7210   6.575   8.054   1.552
   18CHTO  H211 7211   6.587   8.044   1.659
   18CHTO  H212 7212   6.528   8.149   1.529
   18CHTO   O75 7213   6.485   7.738   1.162
   18CHTO  C112 7214   6.646   7.735   1.121
   18CHTO  H216 7215   6.707   7.728   1.212
   18CHTO   O73 7216   6.672   7.855   1.047
   18CHTO  C113 7217   6.807   7.870   1.001
   18CHTO  H217 7218   6.876   7.865   1.088
   18CHTO  C124 7219   6.822   8.008   0.937
   18CHTO   O83 7220   6.796   8.116   1.029
   18CHTO  H204 7221   6.864   8.119   1.093
   18CHTO  C109 7222   6.841   7.757   0.901
   18CHTO  H213 7223   6.772   7.768   0.816
   18CHTO  C110 7224   6.819   7.618   0.969
   18CHTO  H214 7225   6.894   7.606   1.048
   18CHTO   O78 7226   6.842   7.516   0.871
   18CHTO  H200 7227   6.837   7.431   0.910
   18CHTO  C111 7228   6.675   7.609   1.029
   18CHTO  H215 7229   6.602   7.610   0.947
   18CHTO   N19 7230   6.653   7.484   1.105
   18CHTO  H207 7231   6.552   7.482   1.144
   18CHTO  H208 7232   6.668   7.398   1.041
   18CHTO   O74 7233   6.979   7.769   0.853
   18CHTO  C115 7234   6.988   7.760   0.694
   18CHTO  H219 7235   6.933   7.674   0.655
   18CHTO   O76 7236   6.919   7.886   0.625
   18CHTO  C122 7237   7.007   7.998   0.612
   18CHTO  H226 7238   7.042   8.023   0.712
   18CHTO  C126 7239   6.926   8.123   0.562
   18CHTO   O85 7240   6.852   8.098   0.442
   18CHTO  H206 7241   6.910   8.084   0.371
   18CHTO  C121 7242   7.131   7.965   0.518
   18CHTO  H225 7243   7.109   8.002   0.416
   18CHTO   O81 7244   7.246   8.035   0.568
   18CHTO  H202 7245   7.234   8.128   0.560
   18CHTO  C119 7246   7.160   7.812   0.511
   18CHTO  H223 7247   7.082   7.770   0.447
   18CHTO  C117 7248   7.140   7.746   0.653
   18CHTO  H221 7249   7.197   7.792   0.734
   18CHTO   N20 7250   7.181   7.603   0.653
   18CHTO  H209 7251   7.120   7.546   0.584
   18CHTO  H210 7252   7.172   7.562   0.753
   18CHTO   O80 7253   7.296   7.777   0.424
   18CHTO  C103 7254   7.284   7.708   0.276
   18CHTO  H190 7255   7.382   7.700   0.230
   18CHTO  C101 7256   7.217   7.565   0.273
   18CHTO  H188 7257   7.125   7.568   0.331
   18CHTO   O68 7258   7.314   7.462   0.341
   18CHTO  H168 7259   7.393   7.455   0.290
   18CHTO   C99 7260   7.179   7.522   0.123
   18CHTO  H186 7261   7.272   7.514   0.062
   18CHTO   N17 7262   7.109   7.390   0.112
   18CHTO  H174 7263   7.170   7.312   0.154
   18CHTO  H175 7264   7.013   7.395   0.163
   18CHTO   C97 7265   7.096   7.636   0.058
   18CHTO  H184 7266   7.004   7.650   0.117
   18CHTO   O64 7267   7.176   7.756   0.057
   18CHTO  C104 7268   7.199   7.809   0.188
   18CHTO  H191 7269   7.104   7.829   0.237
   18CHTO  C108 7270   7.268   7.945   0.173
   18CHTO   O71 7271   7.391   7.937   0.099
   18CHTO  H171 7272   7.455   7.890   0.149
   18CHTO   O62 7273   7.067   7.619   2.859
   18CHTO   C91 7274   6.929   7.634   2.820
   18CHTO  H178 7275   6.865   7.593   2.899
   18CHTO   C92 7276   6.907   7.542   2.695
   18CHTO  H179 7277   6.987   7.562   2.623
   18CHTO   O66 7278   6.929   7.405   2.736
   18CHTO  H166 7279   6.865   7.379   2.799
   18CHTO   C93 7280   6.765   7.557   2.627
   18CHTO  H180 7281   6.693   7.506   2.692
   18CHTO   N16 7282   6.755   7.489   2.496
   18CHTO  H172 7283   6.656   7.502   2.455
   18CHTO  H173 7284   6.778   7.384   2.507
   18CHTO   C94 7285   6.723   7.708   2.615
   18CHTO  H181 7286   6.780   7.761   2.538
   18CHTO   O61 7287   6.744   7.778   2.738
   18CHTO   C95 7288   6.880   7.780   2.784
   18CHTO  H182 7289   6.943   7.822   2.705
   18CHTO  C106 7290   6.885   7.879   2.906
   18CHTO   O69 7291   6.852   8.013   2.865
   18CHTO  H169 7292   6.854   8.069   2.940
   18CHTO   O63 7293   6.565   7.718   2.586
   18CHTO   C96 7294   6.517   7.834   2.489
   18CHTO  H183 7295   6.408   7.824   2.481
   18CHTO   C98 7296   6.573   7.831   2.344
   18CHTO  H185 7297   6.683   7.843   2.346
   18CHTO   O67 7298   6.549   7.701   2.289
   18CHTO  H167 7299   6.457   7.685   2.281
   18CHTO  C102 7300   6.506   7.948   2.255
   18CHTO  H189 7301   6.399   7.922   2.247
   18CHTO   N18 7302   6.555   7.958   2.115
   18CHTO  H176 7303   6.661   7.976   2.114
   18CHTO  H177 7304   6.534   7.866   2.062
   18CHTO  C105 7305   6.517   8.084   2.330
   18CHTO  H192 7306   6.619   8.120   2.324
   18CHTO   O65 7307   6.479   8.075   2.468
   18CHTO  C100 7308   6.547   7.977   2.547
   18CHTO  H187 7309   6.656   7.996   2.543
   18CHTO  C107 7310   6.500   7.995   2.693
   18CHTO   O70 7311   6.541   8.121   2.746
   18CHTO  H170 7312   6.512   8.129   2.835
   18CHTO   O57 7313   6.413   8.189   2.255
   18CHTO   C85 7314   6.420   8.328   2.292
   18CHTO  H157 7315   6.527   8.347   2.314
   18CHTO   C83 7316   6.345   8.354   2.426
   18CHTO  H155 7317   6.391   8.294   2.504
   18CHTO   O56 7318   6.209   8.308   2.414
   18CHTO  H135 7319   6.165   8.316   2.497
   18CHTO   C81 7320   6.360   8.504   2.463
   18CHTO  H153 7321   6.466   8.527   2.469
   18CHTO   N14 7322   6.310   8.534   2.600
   18CHTO  H141 7323   6.204   8.520   2.604
   18CHTO  H142 7324   6.333   8.635   2.626
   18CHTO   C79 7325   6.297   8.595   2.350
   18CHTO  H151 7326   6.320   8.698   2.376
   18CHTO   O52 7327   6.363   8.568   2.222
   18CHTO   C86 7328   6.365   8.427   2.182
   18CHTO  H158 7329   6.259   8.404   2.157
   18CHTO   C90 7330   6.443   8.412   2.049
   18CHTO   O60 7331   6.579   8.456   2.063
   18CHTO  H138 7332   6.626   8.397   2.119
   18CHTO   O50 7333   6.155   8.582   2.337
   18CHTO   C73 7334   6.040   8.656   2.292
   18CHTO  H145 7335   6.040   8.662   2.182
   18CHTO   C74 7336   6.041   8.800   2.350
   18CHTO  H146 7337   6.133   8.849   2.315
   18CHTO   O54 7338   5.932   8.873   2.291
   18CHTO  H133 7339   5.932   8.962   2.321
   18CHTO   C75 7340   6.034   8.791   2.507
   18CHTO  H147 7341   6.125   8.739   2.542
   18CHTO   N13 7342   6.038   8.923   2.575
   18CHTO  H139 7343   5.948   8.940   2.631
   18CHTO  H140 7344   6.123   8.928   2.642
   18CHTO   C76 7345   5.910   8.701   2.553
   18CHTO  H148 7346   5.818   8.756   2.533
   18CHTO   O49 7347   5.907   8.572   2.482
   18CHTO   C77 7348   5.911   8.582   2.339
   18CHTO  H149 7349   5.823   8.638   2.303
   18CHTO   C88 7350   5.899   8.442   2.278
   18CHTO   O58 7351   5.890   8.447   2.130
   18CHTO  H136 7352   5.883   8.360   2.096
   18CHTO   O51 7353   5.928   8.665   2.707
   18CHTO   C78 7354   5.819   8.578   2.775
   18CHTO  H150 7355   5.775   8.505   2.703
   18CHTO   C80 7356   5.705   8.666   2.831
   18CHTO  H152 7357   5.751   8.756   2.879
   18CHTO   O55 7358   5.628   8.714   2.719
   18CHTO  H134 7359   5.584   8.643   2.676
   18CHTO   C84 7360   5.614   8.591   2.938
   18CHTO  H156 7361   5.558   8.514   2.885
   18CHTO   N15 7362   5.514   8.682   0.062
   18CHTO  H143 7363   5.454   8.626   0.131
   18CHTO  H144 7364   5.564   8.760   0.115
   18CHTO   C87 7365   5.707   8.523   0.100
   18CHTO  H159 7366   5.767   8.600   0.150
   18CHTO   O53 7367   5.796   8.427   0.026
   18CHTO   C82 7368   5.890   8.497   2.886
   18CHTO  H154 7369   5.950   8.564   0.007
   18CHTO   C89 7370   5.988   8.395   2.822
   18CHTO   O59 7371   6.069   8.332   2.923
   18CHTO  H137 7372   6.016   8.276   0.034
   18CHTO   O45 7373   5.627   8.434   0.214
   18CHTO   C67 7374   5.698   8.437   0.339
   18CHTO  H124 7375   5.800   8.471   0.322
   18CHTO   C65 7376   5.629   8.536   0.440
   18CHTO  H122 7377   5.522   8.529   0.422
   18CHTO   O44 7378   5.675   8.667   0.404
   18CHTO  H102 7379   5.641   8.692   0.320
   18CHTO   C63 7380   5.648   8.491   0.591
   18CHTO  H120 7381   5.573   8.416   0.614
   18CHTO   N11 7382   5.618   8.595   0.695
   18CHTO  H108 7383   5.521   8.638   0.677
   18CHTO  H109 7384   5.692   8.672   0.692
   18CHTO   C61 7385   5.787   8.419   0.609
   18CHTO  H118 7386   5.793   8.387   0.714
   18CHTO   O40 7387   5.795   8.299   0.527
   18CHTO   C68 7388   5.713   8.294   0.404
   18CHTO  H125 7389   5.613   8.252   0.429
   18CHTO   C72 7390   5.780   8.194   0.307
   18CHTO   O48 7391   5.781   8.060   0.359
   18CHTO  H105 7392   5.823   8.003   0.297
   18CHTO   O38 7393   5.899   8.505   0.577
   18CHTO   C55 7394   6.025   8.467   0.635
   18CHTO  H112 7395   6.021   8.363   0.672
   18CHTO   C56 7396   6.064   8.569   0.751
   18CHTO  H113 7397   6.065   8.669   0.706
   18CHTO   O42 7398   5.962   8.571   0.852
   18CHTO  H100 7399   5.953   8.486   0.892
   18CHTO   C57 7400   6.206   8.534   0.812
   18CHTO  H114 7401   6.192   8.442   0.869
   18CHTO   N10 7402   6.258   8.636   0.907
   18CHTO  H106 7403   6.322   8.589   0.980
   18CHTO  H107 7404   6.176   8.685   0.958
   18CHTO   C58 7405   6.311   8.508   0.701
   18CHTO  H115 7406   6.343   8.605   0.656
   18CHTO   O37 7407   6.259   8.424   0.596
   18CHTO   C59 7408   6.140   8.470   0.531
   18CHTO  H116 7409   6.155   8.571   0.493
   18CHTO   C70 7410   6.116   8.375   0.413
   18CHTO   O46 7411   6.037   8.433   0.309
   18CHTO  H103 7412   5.949   8.446   0.340
   18CHTO   O39 7413   6.449   8.425   0.764
   18CHTO   C60 7414   6.422   8.285   0.789
   18CHTO  H117 7415   6.316   8.273   0.809
   18CHTO   C62 7416   6.458   8.196   0.667
   18CHTO  H119 7417   6.416   8.245   0.577
   18CHTO   O43 7418   6.601   8.188   0.646
   18CHTO  H101 7419   6.619   8.138   0.570
   18CHTO   C66 7420   6.386   8.056   0.689
   18CHTO  H123 7421   6.281   8.075   0.709
   18CHTO   N12 7422   6.389   7.970   0.567
   18CHTO  H110 7423   6.441   7.878   0.585
   18CHTO  H111 7424   6.288   7.952   0.532
   18CHTO   C69 7425   6.440   7.982   0.815
   18CHTO  H126 7426   6.539   7.936   0.792
   18CHTO   O41 7427   6.459   8.084   0.943
   18CHTO   C64 7428   6.498   8.233   0.914
   18CHTO  H121 7429   6.607   8.239   0.895
   18CHTO   C71 7430   6.468   8.317   1.041
   18CHTO   O47 7431   6.331   8.310   1.081
   18CHTO  H104 7432   6.277   8.353   1.017
   18CHTO   O34 7433   6.336   7.861   0.855
   18CHTO   C49 7434   6.211   7.841   0.957
   18CHTO   H91 7435   6.233   7.750   1.013
   18CHTO   C47 7436   6.079   7.824   0.879
   18CHTO   H89 7437   6.003   7.792   0.954
   18CHTO   O33 7438   6.095   7.717   0.784
   18CHTO   H70 7439   6.156   7.742   0.717
   18CHTO   C45 7440   6.033   7.962   0.810
   18CHTO   H87 7441   6.108   7.986   0.735
   18CHTO    N8 7442   5.902   7.947   0.740
   18CHTO   H75 7443   5.916   7.956   0.633
   18CHTO   H76 7444   5.831   8.021   0.774
   18CHTO   C43 7445   6.036   8.085   0.915
   18CHTO   H85 7446   6.029   8.175   0.855
   18CHTO   O29 7447   6.157   8.083   0.994
   18CHTO   C50 7448   6.198   7.959   1.055
   18CHTO   H92 7449   6.298   7.976   1.099
   18CHTO   C54 7450   6.113   7.921   1.180
   18CHTO   O36 7451   6.127   8.018   1.286
   18CHTO   H72 7452   6.214   8.015   1.320
   18CHTO   O27 7453   5.923   8.087   1.004
   18CHTO   C37 7454   5.851   8.171   1.095
   18CHTO   H79 7455   5.849   8.125   1.195
   18CHTO   C38 7456   5.918   8.311   1.112
   18CHTO   H80 7457   5.935   8.354   1.012
   18CHTO   O31 7458   6.044   8.290   1.177
   18CHTO   H68 7459   6.093   8.371   1.180
   18CHTO   C39 7460   5.826   8.409   1.196
   18CHTO   H81 7461   5.819   8.369   1.297
   18CHTO    N7 7462   5.884   8.548   1.206
   18CHTO   H73 7463   5.818   8.621   1.162
   18CHTO   H74 7464   5.901   8.573   1.310
   18CHTO   C40 7465   5.679   8.409   1.136
   18CHTO   H82 7466   5.681   8.455   1.037
   18CHTO   O26 7467   5.630   8.274   1.132
   18CHTO   C41 7468   5.706   8.187   1.044
   18CHTO   H83 7469   5.708   8.229   0.942
   18CHTO   C52 7470   5.633   8.050   1.035
   18CHTO   O35 7471   5.612   7.987   1.166
   18CHTO   H71 7472   5.569   7.905   1.154
   18CHTO   O28 7473   5.587   8.484   1.219
   18CHTO   C42 7474   5.446   8.507   1.183
   18CHTO   H84 7475   5.413   8.577   1.259
   18CHTO   C44 7476   5.351   8.383   1.195
   18CHTO   H86 7477   5.384   8.306   1.125
   18CHTO   O32 7478   5.368   8.333   1.329
   18CHTO   H69 7479   5.319   8.254   1.341
   18CHTO   C48 7480   5.202   8.421   1.160
   18CHTO   H90 7481   5.169   8.500   1.227
   18CHTO    N9 7482   5.106   8.307   1.181
   18CHTO   H77 7483   5.005   8.339   1.157
   18CHTO   H78 7484   5.134   8.223   1.119
   18CHTO   C51 7485   5.204   8.475   1.012
   18CHTO   H93 7486   5.249   8.399   0.949
   18CHTO   O30 7487   5.280   8.596   1.013
   18CHTO   C46 7488   5.428   8.577   1.044
   18CHTO   H88 7489   5.472   8.516   0.965
   18CHTO   C53 7490   5.488   8.719   1.044
   18CHTO   O72 7491   5.631   8.718   1.050
   18CHTO  H199 7492   5.663   8.806   1.051
   18CHTO   O22 7493   5.074   8.513   0.962
   18CHTO   C31 7494   5.045   8.516   0.817
   18CHTO   H59 7495   4.939   8.548   0.809
   18CHTO   C29 7496   5.129   8.618   0.737
   18CHTO   H57 7497   5.235   8.590   0.748
   18CHTO   O21 7498   5.113   8.748   0.798
   18CHTO   H37 7499   5.025   8.779   0.786
   18CHTO   C27 7500   5.092   8.618   0.583
   18CHTO   H55 7501   4.989   8.656   0.572
   18CHTO    N5 7502   5.182   8.703   0.500
   18CHTO   H43 7503   5.127   8.786   0.458
   18CHTO   H44 7504   5.265   8.740   0.559
   18CHTO   C25 7505   5.091   8.471   0.528
   18CHTO   H53 7506   5.194   8.432   0.527
   18CHTO   O17 7507   5.009   8.384   0.612
   18CHTO   C32 7508   5.053   8.376   0.748
   18CHTO   H60 7509   5.157   8.342   0.751
   18CHTO   C36 7510   4.966   8.269   0.820
   18CHTO   O25 7511   4.827   8.301   0.816
   18CHTO   H40 7512   4.795   8.293   0.728
   18CHTO   O15 7513   5.029   8.463   0.382
   18CHTO   C19 7514   5.062   8.407   0.251
   18CHTO   H47 7515   4.967   8.360   0.219
   18CHTO   C20 7516   5.102   8.515   0.146
   18CHTO   H48 7517   5.188   8.576   0.180
   18CHTO   O19 7518   4.989   8.604   0.132
   18CHTO   H35 7519   4.977   8.655   0.209
   18CHTO   C21 7520   5.141   8.450   0.007
   18CHTO   H49 7521   5.053   8.401   2.906
   18CHTO    N4 7522   5.186   8.550   2.847
   18CHTO   H41 7523   5.107   8.621   2.829
   18CHTO   H42 7524   5.210   8.500   2.754
   18CHTO   C22 7525   5.247   8.340   0.033
   18CHTO   H50 7526   5.336   8.387   0.077
   18CHTO   O14 7527   5.193   8.243   0.124
   18CHTO   C23 7528   5.168   8.293   0.257
   18CHTO   H51 7529   5.264   8.328   0.298
   18CHTO   C34 7530   5.118   8.175   0.342
   18CHTO   O23 7531   5.219   8.074   0.353
   18CHTO   H38 7532   5.187   8.004   0.405
   18CHTO   O16 7533   5.282   8.263   2.857
   18CHTO   C24 7534   5.442   8.236   2.841
   18CHTO   H52 7535   5.501   8.296   2.910
   18CHTO   C26 7536   5.484   8.270   2.697
   18CHTO   H54 7537   5.418   8.213   2.627
   18CHTO   O20 7538   5.461   8.410   2.675
   18CHTO   H36 7539   5.477   8.433   2.586
   18CHTO   C30 7540   5.633   8.230   2.668
   18CHTO   H58 7541   5.700   8.296   2.724
   18CHTO    N6 7542   5.667   8.248   2.524
   18CHTO   H45 7543   5.606   8.184   2.463
   18CHTO   H46 7544   5.771   8.224   2.508
   18CHTO   C33 7545   5.663   8.085   2.718
   18CHTO   H61 7546   5.608   8.013   2.656
   18CHTO   O18 7547   5.618   8.072   2.854
   18CHTO   C28 7548   5.476   8.088   2.871
   18CHTO   H56 7549   5.422   8.024   2.802
   18CHTO   C35 7550   5.439   8.044   0.074
   18CHTO   O24 7551   5.491   8.130   0.176
   18CHTO   H39 7552   5.466   8.097   0.260
   18CHTO    O9 7553   5.802   8.050   2.705
   18CHTO   C13 7554   5.841   7.909   2.772
   18CHTO   H26 7555   5.750   7.845   2.774
   18CHTO   C11 7556   5.895   7.938   2.918
   18CHTO   H24 7557   5.813   7.981   0.037
   18CHTO    O8 7558   6.001   8.036   2.915
   18CHTO    H3 7559   5.968   8.118   2.883
   18CHTO    C9 7560   5.936   7.803   0.041
   18CHTO   H22 7561   5.846   7.739   0.036
   18CHTO    N2 7562   5.968   7.811   0.186
   18CHTO   H10 7563   5.893   7.760   0.245
   18CHTO   H11 7564   5.977   7.914   0.218
   18CHTO    C7 7565   6.049   7.737   2.896
   18CHTO   H20 7566   6.063   7.637   0.002
   18CHTO    O4 7567   6.007   7.718   2.759
   18CHTO   C14 7568   5.947   7.827   2.685
   18CHTO   H27 7569   5.892   7.780   2.601
   18CHTO   C18 7570   6.061   7.913   2.622
   18CHTO   O13 7571   6.012   8.004   2.523
   18CHTO    H7 7572   6.083   8.053   2.487
   18CHTO    O2 7573   6.191   7.823   2.898
   18CHTO    C1 7574   6.316   7.753   2.913
   18CHTO   H14 7575   6.393   7.815   2.864
   18CHTO    C2 7576   6.324   7.607   2.851
   18CHTO   H15 7577   6.244   7.548   2.896
   18CHTO    O6 7578   6.303   7.620   2.710
   18CHTO    H1 7579   6.299   7.535   2.670
   18CHTO    C3 7580   6.466   7.540   2.883
   18CHTO   H16 7581   6.544   7.596   2.829
   18CHTO    N1 7582   6.473   7.397   2.836
   18CHTO    H8 7583   6.570   7.356   2.856
   18CHTO    H9 7584   6.398   7.338   2.886
   18CHTO    C4 7585   6.501   7.555   0.094
   18CHTO   H17 7586   6.437   7.488   0.153
   18CHTO    O1 7587   6.486   7.690   0.139
   18CHTO    C5 7588   6.358   7.752   0.122
   18CHTO   H18 7589   6.282   7.700   0.180
   18CHTO   C16 7590   6.377   7.895   0.181
   18CHTO   O11 7591   6.257   7.973   0.186
   18CHTO    H5 7592   6.228   7.993   0.099
   18CHTO    O3 7593   6.641   7.526   0.118
   18CHTO    C6 7594   6.674   7.478   0.253
   18CHTO   H19 7595   6.588   7.479   0.321
   18CHTO    C8 7596   6.729   7.333   0.243
   18CHTO   H21 7597   6.812   7.333   0.172
   18CHTO    O7 7598   6.623   7.250   0.194
   18CHTO    H2 7599   6.655   7.163   0.177
   18CHTO   C12 7600   6.782   7.284   0.384
   18CHTO   H25 7601   6.692   7.268   0.447
   18CHTO    N3 7602   6.850   7.151   0.372
   18CHTO   H12 7603   6.885   7.118   0.468
   18CHTO   H13 7604   6.781   7.078   0.330
   18CHTO   C15 7605   6.873   7.393   0.453
   18CHTO   H28 7606   6.973   7.396   0.409
   18CHTO   O10 7607   6.884   7.370   0.603
   18CHTO    H4 7608   6.927   7.288   0.620
   18CHTO    O5 7609   6.813   7.523   0.449
   18CHTO   C10 7610   6.783   7.569   0.316
   18CHTO   H23 7611   6.874   7.563   0.256
   18CHTO   C17 7612   6.741   7.716   0.323
   18CHTO   O12 7613   6.854   7.800   0.350
   18CHTO    H6 7614   6.826   7.890   0.355
   19CHTO  H203 7615   6.400   9.660   1.818
   19CHTO   O82 7616   6.426   9.570   1.831
   19CHTO  C123 7617   6.350   9.484   1.745
   19CHTO  H227 7618   6.367   9.515   1.640
   19CHTO   O77 7619   6.411   9.353   1.768
   19CHTO  C118 7620   6.358   9.248   1.685
   19CHTO  H222 7621   6.366   9.277   1.580
   19CHTO  C125 7622   6.444   9.118   1.709
   19CHTO   O84 7623   6.439   9.073   1.845
   19CHTO  H205 7624   6.353   9.042   1.865
   19CHTO  C114 7625   6.209   9.227   1.721
   19CHTO  H218 7626   6.202   9.199   1.826
   19CHTO  C116 7627   6.128   9.359   1.701
   19CHTO  H220 7628   6.123   9.383   1.592
   19CHTO   O79 7629   5.993   9.336   1.745
   19CHTO  H201 7630   5.950   9.276   1.687
   19CHTO  C120 7631   6.196   9.479   1.779
   19CHTO  H224 7632   6.183   9.457   1.887
   19CHTO   N21 7633   6.129   9.609   1.754
   19CHTO  H211 7634   6.171   9.658   1.667
   19CHTO  H212 7635   6.022   9.595   1.742
   19CHTO   O75 7636   6.163   9.120   1.636
   19CHTO  C112 7637   6.075   9.008   1.715
   19CHTO  H216 7638   6.004   9.059   1.783
   19CHTO   O73 7639   6.167   8.925   1.788
   19CHTO  C113 7640   6.110   8.812   1.854
   19CHTO  H217 7641   6.029   8.846   1.923
   19CHTO  C124 7642   6.218   8.744   1.940
   19CHTO   O83 7643   6.262   8.827   2.048
   19CHTO  H204 7644   6.311   8.900   2.014
   19CHTO  C109 7645   6.051   8.716   1.748
   19CHTO  H213 7646   6.133   8.690   1.679
   19CHTO  C110 7647   5.939   8.791   1.670
   19CHTO  H214 7648   5.858   8.814   1.740
   19CHTO   O78 7649   5.884   8.704   1.569
   19CHTO  H200 7650   5.950   8.681   1.507
   19CHTO  C111 7651   5.995   8.923   1.608
   19CHTO  H215 7652   6.066   8.896   1.529
   19CHTO   N19 7653   5.891   9.009   1.545
   19CHTO  H207 7654   5.913   9.023   1.440
   19CHTO  H208 7655   5.793   8.966   1.556
   19CHTO   O74 7656   6.000   8.593   1.810
   19CHTO  C115 7657   6.045   8.461   1.725
   19CHTO  H219 7658   6.012   8.466   1.621
   19CHTO   O76 7659   6.205   8.447   1.719
   19CHTO  C122 7660   6.255   8.329   1.653
   19CHTO  H226 7661   6.363   8.327   1.669
   19CHTO  C126 7662   6.235   8.342   1.497
   19CHTO   O85 7663   6.294   8.234   1.424
   19CHTO  H206 7664   6.250   8.154   1.443
   19CHTO  C121 7665   6.191   8.198   1.713
   19CHTO  H225 7666   6.224   8.113   1.650
   19CHTO   O81 7667   6.240   8.175   1.846
   19CHTO  H202 7668   6.333   8.161   1.844
   19CHTO  C119 7669   6.034   8.204   1.712
   19CHTO  H223 7670   6.006   8.215   1.607
   19CHTO  C117 7671   5.980   8.331   1.788
   19CHTO  H221 7672   6.003   8.337   1.894
   19CHTO   N20 7673   5.831   8.339   1.779
   19CHTO  H209 7674   5.794   8.424   1.834
   19CHTO  H210 7675   5.799   8.346   1.676
   19CHTO   O80 7676   5.966   8.063   1.748
   19CHTO  C103 7677   6.009   7.936   1.668
   19CHTO  H190 7678   6.084   7.961   1.593
   19CHTO  C101 7679   6.065   7.817   1.754
   19CHTO  H188 7680   5.989   7.785   1.825
   19CHTO   O68 7681   6.190   7.866   1.834
   19CHTO  H168 7682   6.259   7.890   1.775
   19CHTO   C99 7683   6.099   7.693   1.658
   19CHTO  H186 7684   6.181   7.725   1.589
   19CHTO   N17 7685   6.150   7.572   1.730
   19CHTO  H174 7686   6.181   7.497   1.659
   19CHTO  H175 7687   6.073   7.533   1.796
   19CHTO   C97 7688   5.978   7.660   1.566
   19CHTO  H184 7689   5.901   7.607   1.626
   19CHTO   O64 7690   5.924   7.778   1.502
   19CHTO  C104 7691   5.883   7.883   1.591
   19CHTO  H191 7692   5.808   7.849   1.663
   19CHTO  C108 7693   5.816   7.994   1.509
   19CHTO   O71 7694   5.692   7.948   1.453
   19CHTO  H171 7695   5.652   8.018   1.404
   19CHTO   O62 7696   6.021   7.576   1.457
   19CHTO   C91 7697   5.919   7.515   1.375
   19CHTO  H178 7698   5.822   7.527   1.423
   19CHTO   C92 7699   5.947   7.361   1.371
   19CHTO  H179 7700   6.050   7.344   1.339
   19CHTO   O66 7701   5.938   7.312   1.507
   19CHTO  H166 7702   5.961   7.221   1.510
   19CHTO   C93 7703   5.845   7.287   1.276
   19CHTO  H180 7704   5.746   7.295   1.325
   19CHTO   N16 7705   5.870   7.142   1.263
   19CHTO  H172 7706   5.796   7.097   1.199
   19CHTO  H173 7707   5.868   7.095   1.361
   19CHTO   C94 7708   5.837   7.357   1.134
   19CHTO  H181 7709   5.875   7.292   1.055
   19CHTO   O61 7710   5.917   7.475   1.123
   19CHTO   C95 7711   5.913   7.574   1.228
   19CHTO  H182 7712   5.998   7.641   1.216
   19CHTO  C106 7713   5.786   7.667   1.211
   19CHTO   O69 7714   5.788   7.736   1.086
   19CHTO  H169 7715   5.857   7.800   1.086
   19CHTO   O63 7716   5.685   7.392   1.105
   19CHTO   C96 7717   5.628   7.324   0.979
   19CHTO  H183 7718   5.711   7.304   0.911
   19CHTO   C98 7719   5.525   7.412   0.901
   19CHTO  H185 7720   5.568   7.511   0.878
   19CHTO   O67 7721   5.501   7.350   0.774
   19CHTO  H167 7722   5.578   7.353   0.720
   19CHTO  C102 7723   5.386   7.425   0.979
   19CHTO  H189 7724   5.312   7.453   0.902
   19CHTO   N18 7725   5.381   7.534   1.079
   19CHTO  H176 7726   5.400   7.629   1.031
   19CHTO  H177 7727   5.283   7.537   1.126
   19CHTO  C105 7728   5.344   7.287   1.039
   19CHTO  H192 7729   5.353   7.289   1.148
   19CHTO   O65 7730   5.422   7.176   0.991
   19CHTO  C100 7731   5.562   7.185   1.023
   19CHTO  H187 7732   5.572   7.175   1.132
   19CHTO  C107 7733   5.636   7.065   0.959
   19CHTO   O70 7734   5.622   7.061   0.817
   19CHTO  H170 7735   5.668   7.133   0.778
   19CHTO   O57 7736   5.193   7.271   0.999
   19CHTO   C85 7737   5.112   7.173   1.066
   19CHTO  H157 7738   5.173   7.129   1.148
   19CHTO   C83 7739   5.080   7.055   0.969
   19CHTO  H155 7740   5.174   7.007   0.941
   19CHTO   O56 7741   5.023   7.107   0.846
   19CHTO  H135 7742   5.086   7.160   0.801
   19CHTO   C81 7743   4.990   6.951   1.041
   19CHTO  H153 7744   5.045   6.913   1.128
   19CHTO   N14 7745   4.964   6.829   0.960
   19CHTO  H141 7746   4.904   6.855   0.874
   19CHTO  H142 7747   4.912   6.756   1.018
   19CHTO   C79 7748   4.857   7.018   1.094
   19CHTO  H151 7749   4.805   6.944   1.155
   19CHTO   O52 7750   4.889   7.130   1.182
   19CHTO   C86 7751   4.975   7.231   1.121
   19CHTO  H158 7752   4.915   7.273   1.038
   19CHTO   C90 7753   4.999   7.347   1.219
   19CHTO   O60 7754   4.877   7.416   1.245
   19CHTO  H138 7755   4.851   7.464   1.169
   19CHTO   O50 7756   4.767   7.062   0.990
   19CHTO   C73 7757   4.636   7.094   0.941
   19CHTO  H145 7758   4.575   7.002   0.937
   19CHTO   C74 7759   4.648   7.152   0.797
   19CHTO  H146 7760   4.702   7.077   0.736
   19CHTO   O54 7761   4.515   7.161   0.741
   19CHTO  H133 7762   4.519   7.191   0.652
   19CHTO   C75 7763   4.724   7.290   0.803
   19CHTO  H147 7764   4.826   7.272   0.841
   19CHTO   N13 7765   4.744   7.353   0.670
   19CHTO  H139 7766   4.648   7.371   0.623
   19CHTO  H140 7767   4.802   7.287   0.606
   19CHTO   C76 7768   4.651   7.387   0.906
   19CHTO  H148 7769   4.552   7.410   0.866
   19CHTO   O49 7770   4.636   7.322   1.037
   19CHTO   C77 7771   4.564   7.198   1.032
   19CHTO  H149 7772   4.464   7.216   0.993
   19CHTO   C88 7773   4.543   7.149   1.176
   19CHTO   O58 7774   4.463   7.023   1.182
   19CHTO  H136 7775   4.512   6.952   1.144
   19CHTO   O51 7776   4.737   7.520   0.938
   19CHTO   C78 7777   4.649   7.656   0.930
   19CHTO  H150 7778   4.545   7.634   0.899
   19CHTO   C80 7779   4.713   7.751   0.826
   19CHTO  H152 7780   4.819   7.767   0.854
   19CHTO   O55 7781   4.709   7.685   0.699
   19CHTO  H134 7782   4.621   7.672   0.670
   19CHTO   C84 7783   4.639   7.890   0.821
   19CHTO  H156 7784   4.537   7.872   0.786
   19CHTO   N15 7785   4.701   7.987   0.724
   19CHTO  H143 7786   4.738   8.075   0.774
   19CHTO  H144 7787   4.782   7.941   0.670
   19CHTO   C87 7788   4.628   7.949   0.964
   19CHTO  H159 7789   4.727   7.978   1.000
   19CHTO   O53 7790   4.565   7.844   1.058
   19CHTO   C82 7791   4.644   7.724   1.068
   19CHTO  H154 7792   4.744   7.748   1.103
   19CHTO   C89 7793   4.579   7.632   1.173
   19CHTO   O59 7794   4.574   7.695   1.301
   19CHTO  H137 7795   4.535   7.637   1.364
   19CHTO   O45 7796   4.531   8.079   0.964
   19CHTO   C67 7797   4.519   8.146   1.090
   19CHTO  H124 7798   4.509   8.072   1.169
   19CHTO   C65 7799   4.642   8.238   1.121
   19CHTO  H122 7800   4.692   8.254   1.025
   19CHTO   O44 7801   4.729   8.163   1.207
   19CHTO  H102 7802   4.811   8.207   1.217
   19CHTO   C63 7803   4.601   8.383   1.168
   19CHTO  H120 7804   4.561   8.437   1.083
   19CHTO   N11 7805   4.714   8.473   1.209
   19CHTO  H108 7806   4.788   8.476   1.132
   19CHTO  H109 7807   4.758   8.437   1.300
   19CHTO   C61 7808   4.483   8.372   1.272
   19CHTO  H118 7809   4.452   8.476   1.294
   19CHTO   O40 7810   4.367   8.304   1.216
   19CHTO   C68 7811   4.383   8.227   1.093
   19CHTO  H125 7812   4.381   8.299   1.009
   19CHTO   C72 7813   4.260   8.134   1.076
   19CHTO   O48 7814   4.245   8.040   1.182
   19CHTO  H105 7815   4.223   8.085   1.262
   19CHTO   O38 7816   4.526   8.309   1.396
   19CHTO   C55 7817   4.426   8.258   1.487
   19CHTO  H112 7818   4.346   8.208   1.431
   19CHTO   C56 7819   4.369   8.371   1.582
   19CHTO  H113 7820   4.454   8.416   1.636
   19CHTO   O42 7821   4.310   8.477   1.504
   19CHTO  H100 7822   4.239   8.445   1.453
   19CHTO   C57 7823   4.265   8.308   1.683
   19CHTO  H114 7824   4.179   8.277   1.623
   19CHTO   N10 7825   4.214   8.404   1.785
   19CHTO  H106 7826   4.212   8.505   1.744
   19CHTO  H107 7827   4.114   8.376   1.815
   19CHTO   C58 7828   4.325   8.184   1.754
   19CHTO  H115 7829   4.400   8.216   1.830
   19CHTO   O37 7830   4.389   8.093   1.662
   19CHTO   C59 7831   4.489   8.147   1.575
   19CHTO  H116 7832   4.571   8.187   1.635
   19CHTO   C70 7833   4.546   8.032   1.490
   19CHTO   O46 7834   4.447   7.963   1.412
   19CHTO  H103 7835   4.389   7.916   1.469
   19CHTO   O39 7836   4.199   8.094   1.831
   19CHTO   C60 7837   4.133   8.000   1.743
   19CHTO  H117 7838   4.143   8.035   1.640
   19CHTO   C62 7839   4.200   7.860   1.753
   19CHTO  H119 7840   4.309   7.875   1.736
   19CHTO   O43 7841   4.183   7.806   1.886
   19CHTO  H101 7842   4.228   7.724   1.893
   19CHTO   C66 7843   4.141   7.767   1.637
   19CHTO  H123 7844   4.155   7.818   1.541
   19CHTO   N12 7845   4.214   7.639   1.625
   19CHTO  H110 7846   4.172   7.579   1.545
   19CHTO  H111 7847   4.319   7.658   1.608
   19CHTO   C69 7848   3.988   7.749   1.657
   19CHTO  H126 7849   3.969   7.690   1.750
   19CHTO   O41 7850   3.916   7.891   1.669
   19CHTO   C64 7851   3.981   7.989   1.772
   19CHTO  H121 7852   3.965   7.951   1.875
   19CHTO   C71 7853   3.908   8.124   1.758
   19CHTO   O47 7854   3.938   8.214   1.865
   19CHTO  H104 7855   4.028   8.242   1.860
   19CHTO   O34 7856   3.924   7.670   1.536
   19CHTO   C49 7857   3.873   7.701   1.393
   19CHTO   H91 7858   3.770   7.734   1.404
   19CHTO   C47 7859   3.878   7.570   1.311
   19CHTO   H89 7860   3.829   7.592   1.213
   19CHTO   O33 7861   3.802   7.469   1.379
   19CHTO   H70 7862   3.711   7.491   1.379
   19CHTO   C45 7863   4.033   7.530   1.288
   19CHTO   H87 7864   4.082   7.528   1.386
   19CHTO    N8 7865   4.051   7.397   1.223
   19CHTO   H75 7866   3.956   7.355   1.195
   19CHTO   H76 7867   4.102   7.330   1.291
   19CHTO   C43 7868   4.105   7.649   1.207
   19CHTO   H85 7869   4.210   7.621   1.201
   19CHTO   O29 7870   4.088   7.775   1.276
   19CHTO   C50 7871   3.956   7.812   1.323
   19CHTO   H92 7872   3.970   7.892   1.397
   19CHTO   C54 7873   3.874   7.881   1.211
   19CHTO   O36 7874   3.933   8.006   1.173
   19CHTO   H72 7875   3.882   8.045   1.105
   19CHTO   O27 7876   4.058   7.659   1.071
   19CHTO   C37 7877   4.081   7.673   0.930
   19CHTO   H79 7878   4.024   7.596   0.875
   19CHTO   C38 7879   4.029   7.811   0.878
   19CHTO   H80 7880   4.071   7.890   0.943
   19CHTO   O31 7881   3.885   7.811   0.892
   19CHTO   H68 7882   3.846   7.746   0.837
   19CHTO   C39 7883   4.070   7.839   0.728
   19CHTO   H81 7884   4.013   7.769   0.667
   19CHTO    N7 7885   4.034   7.978   0.682
   19CHTO   H73 7886   3.971   7.973   0.595
   19CHTO   H74 7887   4.123   8.036   0.661
   19CHTO   C40 7888   4.222   7.806   0.702
   19CHTO   H82 7889   4.285   7.884   0.744
   19CHTO   O26 7890   4.255   7.676   0.753
   19CHTO   C41 7891   4.232   7.658   0.896
   19CHTO   H83 7892   4.290   7.733   0.952
   19CHTO   C52 7893   4.286   7.518   0.935
   19CHTO   O35 7894   4.222   7.407   0.865
   19CHTO   H71 7895   4.260   7.326   0.893
   19CHTO   O28 7896   4.247   7.793   0.560
   19CHTO   C42 7897   4.380   7.822   0.504
   19CHTO   H84 7898   4.445   7.843   0.589
   19CHTO   C44 7899   4.388   7.947   0.411
   19CHTO   H86 7900   4.328   7.928   0.322
   19CHTO   O32 7901   4.330   8.057   0.483
   19CHTO   H69 7902   4.326   8.133   0.428
   19CHTO   C48 7903   4.537   7.977   0.367
   19CHTO   H90 7904   4.590   8.012   0.455
   19CHTO    N9 7905   4.546   8.090   0.268
   19CHTO   H77 7906   4.492   8.065   0.178
   19CHTO   H78 7907   4.649   8.110   0.244
   19CHTO   C51 7908   4.612   7.847   0.315
   19CHTO   H93 7909   4.581   7.827   0.212
   19CHTO   O30 7910   4.589   7.734   0.401
   19CHTO   C46 7911   4.442   7.702   0.427
   19CHTO   H88 7912   4.391   7.690   0.332
   19CHTO   C53 7913   4.434   7.572   0.509
   19CHTO   O72 7914   4.478   7.460   0.431
   19CHTO  H199 7915   4.415   7.441   0.365
   19CHTO   O22 7916   4.754   7.870   0.322
   19CHTO   C31 7917   4.853   7.799   0.238
   19CHTO   H59 7918   4.799   7.714   0.190
   19CHTO   C29 7919   4.909   7.887   0.124
   19CHTO   H57 7920   4.945   7.980   0.170
   19CHTO   O21 7921   4.800   7.922   0.037
   19CHTO   H37 7922   4.827   7.986   2.915
   19CHTO   C27 7923   5.030   7.819   0.047
   19CHTO   H55 7924   4.992   7.730   2.934
   19CHTO    N5 7925   5.092   7.911   2.889
   19CHTO   H43 7926   5.197   7.925   2.908
   19CHTO   H44 7927   5.078   7.873   2.789
   19CHTO   C25 7928   5.134   7.766   0.152
   19CHTO   H53 7929   5.174   7.852   0.209
   19CHTO   O17 7930   5.069   7.675   0.245
   19CHTO   C32 7931   4.967   7.737   0.325
   19CHTO   H60 7932   5.012   7.815   0.385
   19CHTO   C36 7933   4.911   7.630   0.422
   19CHTO   O25 7934   4.855   7.516   0.354
   19CHTO   H40 7935   4.778   7.542   0.308
   19CHTO   O15 7936   5.256   7.690   0.084
   19CHTO   C19 7937   5.310   7.596   2.928
   19CHTO   H47 7938   5.255   7.619   2.835
   19CHTO   C20 7939   5.463   7.614   2.902
   19CHTO   H48 7940   5.522   7.597   0.052
   19CHTO   O19 7941   5.484   7.749   2.859
   19CHTO   H35 7942   5.470   7.809   2.931
   19CHTO   C21 7943   5.516   7.514   2.791
   19CHTO   H49 7944   5.476   7.546   2.694
   19CHTO    N4 7945   5.664   7.515   2.777
   19CHTO   H41 7946   5.710   7.487   2.870
   19CHTO   H42 7947   5.698   7.614   2.748
   19CHTO   C22 7948   5.462   7.370   2.815
   19CHTO   H50 7949   5.520   7.322   2.895
   19CHTO   O14 7950   5.322   7.367   2.847
   19CHTO   C23 7951   5.281   7.446   0.018
   19CHTO   H51 7952   5.338   7.411   0.106
   19CHTO   C34 7953   5.133   7.419   0.044
   19CHTO   O23 7954   5.112   7.285   0.088
   19CHTO   H38 7955   5.021   7.270   0.102
   19CHTO   O16 7956   5.464   7.295   2.693
   19CHTO   C24 7957   5.550   7.161   2.686
   19CHTO   H52 7958   5.642   7.169   2.743
   19CHTO   C26 7959   5.582   7.141   2.536
   19CHTO   H54 7960   5.490   7.168   2.477
   19CHTO   O20 7961   5.683   7.237   2.499
   19CHTO   H36 7962   5.699   7.234   2.407
   19CHTO   C30 7963   5.623   6.996   2.497
   19CHTO   H58 7964   5.724   6.974   2.534
   19CHTO    N6 7965   5.628   6.976   2.349
   19CHTO   H45 7966   5.727   6.947   2.318
   19CHTO   H46 7967   5.600   7.066   2.296
   19CHTO   C33 7968   5.527   6.895   2.566
   19CHTO   H61 7969   5.425   6.914   2.529
   19CHTO   O18 7970   5.531   6.919   2.707
   19CHTO   C28 7971   5.469   7.042   2.746
   19CHTO   H56 7972   5.366   7.047   2.710
   19CHTO   C35 7973   5.466   7.046   2.901
   19CHTO   O24 7974   5.383   6.943   0.016
   19CHTO   H39 7975   5.385   6.950   0.110
   19CHTO    O9 7976   5.554   6.756   2.536
   19CHTO   C13 7977   5.416   6.667   2.507
   19CHTO   H26 7978   5.376   6.701   2.409
   19CHTO   C11 7979   5.310   6.689   2.623
   19CHTO   H24 7980   5.276   6.793   2.621
   19CHTO    O8 7981   5.370   6.666   2.752
   19CHTO    H3 7982   5.437   6.730   2.769
   19CHTO    C9 7983   5.190   6.595   2.593
   19CHTO   H22 7984   5.160   6.619   2.490
   19CHTO    N2 7985   5.070   6.629   2.674
   19CHTO   H10 7986   4.986   6.568   2.641
   19CHTO   H11 7987   5.046   6.734   2.663
   19CHTO    C7 7988   5.238   6.444   2.599
   19CHTO   H20 7989   5.194   6.401   2.508
   19CHTO    O4 7990   5.382   6.430   2.590
   19CHTO   C14 7991   5.446   6.511   2.489
   19CHTO   H27 7992   5.406   6.478   2.390
   19CHTO   C18 7993   5.597   6.475   2.490
   19CHTO   O13 7994   5.666   6.534   2.379
   19CHTO    H7 7995   5.638   6.495   2.299
   19CHTO    O2 7996   5.186   6.362   2.734
   19CHTO    C1 7997   5.115   6.240   2.708
   19CHTO   H14 7998   5.172   6.180   2.634
   19CHTO    C2 7999   4.966   6.258   2.655
   19CHTO   H15 8000   4.916   6.324   2.728
   19CHTO    O6 8001   4.968   6.322   2.526
   19CHTO    H1 8002   4.880   6.342   2.499
   19CHTO    C3 8003   4.890   6.117   2.647
   19CHTO   H16 8004   4.935   6.058   2.565
   19CHTO    N1 8005   4.745   6.134   2.614
   19CHTO    H8 8006   4.697   6.038   2.606
   19CHTO    H9 8007   4.696   6.192   2.691
   19CHTO    C4 8008   4.913   6.032   2.778
   19CHTO   H17 8009   4.853   6.075   2.859
   19CHTO    O1 8010   5.052   6.028   2.815
   19CHTO    C5 8011   5.112   6.156   2.839
   19CHTO   H18 8012   5.052   6.212   2.912
   19CHTO   C16 8013   5.253   6.134   2.898
   19CHTO   O11 8014   5.246   6.072   0.086
   19CHTO    H5 8015   5.332   6.061   0.120
   19CHTO    O3 8016   4.879   5.893   2.757
   19CHTO    C6 8017   4.811   5.825   2.869
   19CHTO   H19 8018   4.802   5.888   0.016
   19CHTO    C8 8019   4.668   5.783   2.825
   19CHTO   H21 8020   4.675   5.726   2.731
   19CHTO    O7 8021   4.593   5.904   2.802
   19CHTO    H2 8022   4.509   5.884   2.766
   19CHTO   C12 8023   4.598   5.692   2.934
   19CHTO   H25 8024   4.581   5.758   0.081
   19CHTO    N3 8025   4.463   5.643   2.890
   19CHTO   H12 8026   4.438   5.680   2.792
   19CHTO   H13 8027   4.458   5.535   2.892
   19CHTO   C15 8028   4.695   5.577   0.037
   19CHTO   H28 8029   4.708   5.502   2.899
   19CHTO   O10 8030   4.648   5.506   0.166
   19CHTO    H4 8031   4.635   5.569   0.235
   19CHTO    O5 8032   4.824   5.629   0.075
   19CHTO   C10 8033   4.892   5.699   2.911
   19CHTO   H23 8034   4.902   5.632   2.825
   19CHTO   C17 8035   5.033   5.733   0.019
   19CHTO   O12 8036   5.112   5.614   0.040
   19CHTO    H6 8037   5.132   5.575   2.898
   20CHTO  H203 8038   5.048   0.658   1.078
   20CHTO   O82 8039   5.027   0.704   0.999
   20CHTO  C123 8040   5.013   0.844   1.024
   20CHTO  H227 8041   4.949   0.858   1.113
   20CHTO   O77 8042   5.148   0.889   1.055
   20CHTO  C118 8043   5.155   1.027   1.094
   20CHTO  H222 8044   5.087   1.045   1.179
   20CHTO  C125 8045   5.303   1.059   1.140
   20CHTO   O84 8046   5.398   1.036   1.035
   20CHTO  H205 8047   5.484   1.056   1.066
   20CHTO  C114 8048   5.111   1.115   0.975
   20CHTO  H218 8049   5.177   1.096   0.891
   20CHTO  C116 8050   4.967   1.078   0.928
   20CHTO  H220 8051   4.894   1.108   1.008
   20CHTO   O79 8052   4.934   1.156   0.812
   20CHTO  H201 8053   4.927   1.247   0.834
   20CHTO  C120 8054   4.956   0.923   0.900
   20CHTO  H224 8055   5.019   0.903   0.811
   20CHTO   N21 8056   4.818   0.882   0.866
   20CHTO  H211 8057   4.766   0.962   0.814
   20CHTO  H212 8058   4.763   0.856   0.956
   20CHTO   O75 8059   5.123   1.251   1.020
   20CHTO  C112 8060   5.177   1.346   0.902
   20CHTO  H216 8061   5.129   1.317   0.807
   20CHTO   O73 8062   5.320   1.330   0.897
   20CHTO  C113 8063   5.380   1.400   0.788
   20CHTO  H217 8064   5.331   1.369   0.694
   20CHTO  C124 8065   5.527   1.357   0.777
   20CHTO   O83 8066   5.602   1.382   0.897
   20CHTO  H204 8067   5.690   1.351   0.885
   20CHTO  C109 8068   5.362   1.553   0.805
   20CHTO  H213 8069   5.419   1.583   0.894
   20CHTO  C110 8070   5.210   1.588   0.823
   20CHTO  H214 8071   5.160   1.573   0.727
   20CHTO   O78 8072   5.196   1.727   0.855
   20CHTO  H200 8073   5.239   1.747   0.936
   20CHTO  C111 8074   5.143   1.498   0.931
   20CHTO  H215 8075   5.184   1.524   1.030
   20CHTO   N19 8076   4.995   1.516   0.940
   20CHTO  H207 8077   4.973   1.619   0.963
   20CHTO  H208 8078   4.955   1.453   1.018
   20CHTO   O74 8079   5.418   1.619   0.688
   20CHTO  C115 8080   5.471   1.764   0.712
   20CHTO  H219 8081   5.414   1.815   0.790
   20CHTO   O76 8082   5.620   1.764   0.763
   20CHTO  C122 8083   5.709   1.693   0.675
   20CHTO  H226 8084   5.701   1.587   0.700
   20CHTO  C126 8085   5.857   1.733   0.710
   20CHTO   O85 8086   5.881   1.874   0.702
   20CHTO  H206 8087   5.970   1.892   0.723
   20CHTO  C121 8088   5.679   1.714   0.521
   20CHTO  H225 8089   5.775   1.726   0.466
   20CHTO   O81 8090   5.615   1.598   0.466
   20CHTO  H202 8091   5.673   1.524   0.471
   20CHTO  C119 8092   5.593   1.842   0.498
   20CHTO  H223 8093   5.653   1.924   0.539
   20CHTO  C117 8094   5.455   1.839   0.574
   20CHTO  H221 8095   5.376   1.785   0.522
   20CHTO   N20 8096   5.399   1.978   0.592
   20CHTO  H209 8097   5.466   2.037   0.653
   20CHTO  H210 8098   5.385   2.024   0.496
   20CHTO   O80 8099   5.581   1.883   0.352
   20CHTO  C103 8100   5.670   1.991   0.298
   20CHTO  H190 8101   5.668   2.079   0.362
   20CHTO  C101 8102   5.819   1.949   0.271
   20CHTO  H188 8103   5.820   1.851   0.224
   20CHTO   O68 8104   5.893   1.939   0.405
   20CHTO  H168 8105   5.980   1.905   0.392
   20CHTO   C99 8106   5.893   2.052   0.172
   20CHTO  H186 8107   5.903   2.150   0.222
   20CHTO   N17 8108   6.031   2.009   0.132
   20CHTO  H174 8109   6.077   2.085   0.072
   20CHTO  H175 8110   6.090   1.989   0.221
   20CHTO   C97 8111   5.802   2.076   0.048
   20CHTO  H184 8112   5.793   1.982   2.934
   20CHTO   O64 8113   5.674   2.127   0.090
   20CHTO  C104 8114   5.597   2.031   0.163
   20CHTO  H191 8115   5.581   1.941   0.103
   20CHTO  C108 8116   5.457   2.090   0.188
   20CHTO   O71 8117   5.460   2.212   0.263
   20CHTO  H171 8118   5.488   2.195   0.351
   20CHTO   O62 8119   5.848   2.183   2.904
   20CHTO   C91 8120   5.822   2.166   2.763
   20CHTO  H178 8121   5.753   2.082   2.749
   20CHTO   C92 8122   5.957   2.125   2.696
   20CHTO  H179 8123   6.036   2.190   2.736
   20CHTO   O66 8124   5.990   1.991   2.740
   20CHTO  H166 8125   6.075   1.968   2.709
   20CHTO   C93 8126   5.954   2.131   2.538
   20CHTO  H180 8127   5.898   2.044   2.501
   20CHTO   N16 8128   6.090   2.120   2.479
   20CHTO  H172 8129   6.153   2.199   2.516
   20CHTO  H173 8130   6.133   2.024   2.504
   20CHTO   C94 8131   5.882   2.262   2.490
   20CHTO  H181 8132   5.936   2.352   2.521
   20CHTO   O61 8133   5.752   2.268   2.550
   20CHTO   C95 8134   5.758   2.291   2.691
   20CHTO  H182 8135   5.818   2.380   2.710
   20CHTO  C106 8136   5.613   2.322   2.740
   20CHTO   O69 8137   5.612   2.369   2.875
   20CHTO  H169 8138   5.524   2.386   2.903
   20CHTO   O63 8139   5.860   2.262   2.330
   20CHTO   C96 8140   5.863   2.409   2.266
   20CHTO  H183 8141   5.849   2.397   2.158
   20CHTO   C98 8142   5.995   2.489   2.287
   20CHTO  H185 8143   6.020   2.493   2.394
   20CHTO   O67 8144   6.101   2.414   2.225
   20CHTO  H167 8145   6.089   2.409   2.132
   20CHTO  C102 8146   5.989   2.638   2.227
   20CHTO  H189 8147   5.993   2.626   2.118
   20CHTO   N18 8148   6.106   2.723   2.261
   20CHTO  H176 8149   6.113   2.735   2.368
   20CHTO  H177 8150   6.097   2.820   2.214
   20CHTO  C105 8151   5.854   2.706   2.261
   20CHTO  H192 8152   5.856   2.743   2.364
   20CHTO   O65 8153   5.739   2.620   2.247
   20CHTO  C100 8154   5.744   2.497   2.319
   20CHTO  H187 8155   5.759   2.518   2.426
   20CHTO  C107 8156   5.607   2.427   2.301
   20CHTO   O70 8157   5.502   2.501   2.364
   20CHTO  H170 8158   5.420   2.457   2.350
   20CHTO   O57 8159   5.842   2.824   2.158
   20CHTO   C85 8160   5.726   2.909   2.152
   20CHTO  H157 8161   5.688   2.916   2.256
   20CHTO   C83 8162   5.611   2.840   2.070
   20CHTO  H155 8163   5.563   2.766   2.136
   20CHTO   O56 8164   5.667   2.764   1.961
   20CHTO  H135 8165   5.708   2.821   1.899
   20CHTO   C81 8166   5.505   2.944   2.027
   20CHTO  H153 8167   5.466   2.992   2.117
   20CHTO   N14 8168   5.384   2.886   1.963
   20CHTO  H141 8169   5.339   2.814   2.028
   20CHTO  H142 8170   5.411   2.838   1.871
   20CHTO   C79 8171   5.574   3.054   1.940
   20CHTO  H151 8172   5.497   3.123   1.905
   20CHTO   O52 8173   5.663   3.130   2.027
   20CHTO   C86 8174   5.766   3.052   2.094
   20CHTO  H158 8175   5.847   3.043   2.018
   20CHTO   C90 8176   5.826   3.138   2.207
   20CHTO   O60 8177   5.944   3.081   2.263
   20CHTO  H138 8178   5.923   3.002   2.309
   20CHTO   O50 8179   5.644   3.003   1.824
   20CHTO   C73 8180   5.751   3.042   1.737
   20CHTO  H145 8181   5.847   3.034   1.789
   20CHTO   C74 8182   5.732   3.190   1.690
   20CHTO  H146 8183   5.730   3.253   1.780
   20CHTO   O54 8184   5.850   3.227   1.616
   20CHTO  H133 8185   5.924   3.231   1.673
   20CHTO   C75 8186   5.599   3.202   1.607
   20CHTO  H147 8187   5.515   3.179   1.673
   20CHTO   N13 8188   5.574   3.339   1.556
   20CHTO  H139 8189   5.480   3.377   1.592
   20CHTO  H140 8190   5.573   3.341   1.448
   20CHTO   C76 8191   5.597   3.091   1.490
   20CHTO  H148 8192   5.672   3.120   1.416
   20CHTO   O49 8193   5.630   2.958   1.540
   20CHTO   C77 8194   5.754   2.950   1.611
   20CHTO  H149 8195   5.836   2.981   1.546
   20CHTO   C88 8196   5.781   2.802   1.645
   20CHTO   O58 8197   5.913   2.784   1.706
   20CHTO  H136 8198   5.927   2.693   1.725
   20CHTO   O51 8199   5.447   3.080   1.424
   20CHTO   C78 8200   5.339   2.990   1.506
   20CHTO  H150 8201   5.377   2.964   1.607
   20CHTO   C80 8202   5.310   2.860   1.428
   20CHTO  H152 8203   5.285   2.887   1.322
   20CHTO   O55 8204   5.431   2.783   1.425
   20CHTO  H134 8205   5.420   2.707   1.372
   20CHTO   C84 8206   5.189   2.778   1.490
   20CHTO  H156 8207   5.222   2.738   1.586
   20CHTO   N15 8208   5.151   2.660   1.405
   20CHTO  H143 8209   5.071   2.606   1.452
   20CHTO  H144 8210   5.118   2.694   1.309
   20CHTO   C87 8211   5.068   2.872   1.515
   20CHTO  H159 8212   5.027   2.905   1.420
   20CHTO   O53 8213   5.114   2.990   1.594
   20CHTO   C82 8214   5.209   3.071   1.524
   20CHTO  H154 8215   5.170   3.102   1.427
   20CHTO   C89 8216   5.232   3.198   1.607
   20CHTO   O59 8217   5.111   3.274   1.619
   20CHTO  H137 8218   5.128   3.351   1.670
   20CHTO   O45 8219   4.945   2.797   1.600
   20CHTO   C67 8220   4.965   2.777   1.741
   20CHTO  H124 8221   5.069   2.749   1.760
   20CHTO   C65 8222   4.930   2.903   1.827
   20CHTO  H122 8223   4.947   2.991   1.764
   20CHTO   O44 8224   5.018   2.909   1.940
   20CHTO  H102 8225   5.005   2.989   1.988
   20CHTO   C63 8226   4.777   2.904   1.862
   20CHTO  H120 8227   4.720   2.889   1.770
   20CHTO   N11 8228   4.720   3.035   1.911
   20CHTO  H108 8229   4.761   3.059   2.007
   20CHTO  H109 8230   4.744   3.113   1.841
   20CHTO   C61 8231   4.746   2.780   1.955
   20CHTO  H118 8232   4.640   2.754   1.938
   20CHTO   O40 8233   4.825   2.662   1.921
   20CHTO   C68 8234   4.877   2.651   1.785
   20CHTO  H125 8235   4.791   2.638   1.716
   20CHTO   C72 8236   4.958   2.519   1.781
   20CHTO   O48 8237   5.005   2.485   1.650
   20CHTO  H105 8238   4.933   2.463   1.595
   20CHTO   O38 8239   4.773   2.804   2.095
   20CHTO   C55 8240   4.710   2.711   2.186
   20CHTO  H112 8241   4.680   2.620   2.133
   20CHTO   C56 8242   4.587   2.780   2.259
   20CHTO  H113 8243   4.623   2.873   2.304
   20CHTO   O42 8244   4.489   2.817   2.160
   20CHTO  H100 8245   4.418   2.864   2.201
   20CHTO   C57 8246   4.527   2.683   2.369
   20CHTO  H114 8247   4.482   2.599   2.317
   20CHTO   N10 8248   4.420   2.747   2.451
   20CHTO  H106 8249   4.415   2.705   2.550
   20CHTO  H107 8250   4.324   2.734   2.402
   20CHTO   C58 8251   4.641   2.630   2.460
   20CHTO  H115 8252   4.682   2.714   2.521
   20CHTO   O37 8253   4.746   2.572   2.380
   20CHTO   C59 8254   4.812   2.665   2.293
   20CHTO  H116 8255   4.850   2.750   2.350
   20CHTO   C70 8256   4.932   2.593   2.229
   20CHTO   O46 8257   5.030   2.550   2.324
   20CHTO  H103 8258   4.994   2.482   2.378
   20CHTO   O39 8259   4.587   2.510   2.560
   20CHTO   C60 8260   4.691   2.455   2.644
   20CHTO  H117 8261   4.789   2.488   2.609
   20CHTO   C62 8262   4.677   2.502   2.791
   20CHTO  H119 8263   4.679   2.613   2.789
   20CHTO   O43 8264   4.551   2.459   2.845
   20CHTO  H101 8265   4.540   2.493   2.932
   20CHTO   C66 8266   4.805   2.449   2.874
   20CHTO  H123 8267   4.895   2.488   2.826
   20CHTO   N12 8268   4.809   2.499   0.072
   20CHTO  H110 8269   4.815   2.607   0.072
   20CHTO  H111 8270   4.722   2.465   0.126
   20CHTO   C69 8271   4.813   2.294   2.868
   20CHTO  H126 8272   4.730   2.249   2.927
   20CHTO   O41 8273   4.803   2.243   2.719
   20CHTO   C64 8274   4.691   2.300   2.636
   20CHTO  H121 8275   4.594   2.261   2.672
   20CHTO   C71 8276   4.711   2.252   2.489
   20CHTO   O47 8277   4.705   2.109   2.480
   20CHTO  H104 8278   4.618   2.079   2.496
   20CHTO   O34 8279   4.951   2.243   2.928
   20CHTO   C49 8280   5.091   2.186   2.888
   20CHTO   H91 8281   5.136   2.150   0.039
   20CHTO   C47 8282   5.179   2.297   2.827
   20CHTO   H89 8283   5.282   2.254   2.818
   20CHTO   O33 8284   5.184   2.406   2.921
   20CHTO   H70 8285   5.243   2.472   2.891
   20CHTO   C45 8286   5.124   2.339   2.681
   20CHTO   H87 8287   5.021   2.374   2.693
   20CHTO    N8 8288   5.204   2.450   2.622
   20CHTO   H75 8289   5.143   2.539   2.613
   20CHTO   H76 8290   5.243   2.422   2.525
   20CHTO   C43 8291   5.112   2.210   2.586
   20CHTO   H85 8292   5.057   2.245   2.499
   20CHTO   O29 8293   5.043   2.102   2.652
   20CHTO   C50 8294   5.077   2.069   2.788
   20CHTO   H92 8295   4.996   2.005   2.826
   20CHTO   C54 8296   5.201   1.976   2.794
   20CHTO   O36 8297   5.173   1.847   2.737
   20CHTO   H72 8298   5.161   1.855   2.644
   20CHTO   O27 8299   5.240   2.164   2.536
   20CHTO   C37 8300   5.285   2.098   2.416
   20CHTO   H79 8301   5.234   2.000   2.406
   20CHTO   C38 8302   5.250   2.181   2.288
   20CHTO   H80 8303   5.282   2.285   2.305
   20CHTO   O31 8304   5.106   2.181   2.272
   20CHTO   H68 8305   5.075   2.093   2.258
   20CHTO   C39 8306   5.319   2.125   2.158
   20CHTO   H81 8307   5.272   2.030   2.135
   20CHTO    N7 8308   5.299   2.213   2.037
   20CHTO   H73 8309   5.193   2.221   2.015
   20CHTO   H74 8310   5.340   2.311   2.055
   20CHTO   C40 8311   5.472   2.094   2.182
   20CHTO   H82 8312   5.529   2.186   2.191
   20CHTO   O26 8313   5.484   2.012   2.300
   20CHTO   C41 8314   5.438   2.075   2.423
   20CHTO   H83 8315   5.489   2.171   2.437
   20CHTO   C52 8316   5.478   1.982   2.540
   20CHTO   O35 8317   5.624   1.964   2.549
   20CHTO   H71 8318   5.644   1.907   2.621
   20CHTO   O28 8319   5.529   2.016   2.075
   20CHTO   C42 8320   5.673   1.987   2.061
   20CHTO   H84 8321   5.675   1.913   1.981
   20CHTO   C44 8322   5.744   1.921   2.183
   20CHTO   H86 8323   5.746   1.992   2.265
   20CHTO   O32 8324   5.666   1.806   2.220
   20CHTO   H69 8325   5.584   1.833   2.257
   20CHTO   C48 8326   5.893   1.881   2.149
   20CHTO   H90 8327   5.890   1.800   2.076
   20CHTO    N9 8328   5.963   1.823   2.269
   20CHTO   H77 8329   6.064   1.796   2.243
   20CHTO   H78 8330   5.909   1.737   2.305
   20CHTO   C51 8331   5.973   2.001   2.085
   20CHTO   H93 8332   5.998   2.074   2.163
   20CHTO   O30 8333   5.897   2.059   1.978
   20CHTO   C46 8334   5.758   2.108   2.012
   20CHTO   H88 8335   5.764   2.184   2.090
   20CHTO   C53 8336   5.704   2.169   1.880
   20CHTO   O72 8337   5.592   2.254   1.902
   20CHTO  H199 8338   5.619   2.332   1.946
   20CHTO   O22 8339   6.091   1.957   2.014
   20CHTO   C31 8340   6.233   1.954   2.054
   20CHTO   H59 8341   6.289   1.974   1.963
   20CHTO   C29 8342   6.279   2.060   2.156
   20CHTO   H57 8343   6.220   2.045   2.248
   20CHTO   O21 8344   6.244   2.190   2.104
   20CHTO   H37 8345   6.260   2.256   2.169
   20CHTO   C27 8346   6.433   2.047   2.190
   20CHTO   H55 8347   6.491   2.072   2.100
   20CHTO    N5 8348   6.476   2.139   2.299
   20CHTO   H43 8349   6.456   2.241   2.271
   20CHTO   H44 8350   6.424   2.115   2.391
   20CHTO   C25 8351   6.467   1.898   2.226
   20CHTO   H53 8352   6.415   1.871   2.319
   20CHTO   O17 8353   6.420   1.810   2.120
   20CHTO   C32 8354   6.278   1.813   2.101
   20CHTO   H60 8355   6.230   1.790   2.196
   20CHTO   C36 8356   6.240   1.704   1.998
   20CHTO   O25 8357   6.270   1.573   2.045
   20CHTO   H40 8358   6.213   1.550   2.116
   20CHTO   O15 8359   6.623   1.873   2.245
   20CHTO   C19 8360   6.720   1.810   2.156
   20CHTO   H47 8361   6.667   1.802   2.060
   20CHTO   C20 8362   6.851   1.893   2.134
   20CHTO   H48 8363   6.906   1.907   2.229
   20CHTO   O19 8364   6.811   2.024   2.087
   20CHTO   H35 8365   6.770   2.018   2.004
   20CHTO   C21 8366   6.948   1.822   2.032
   20CHTO   H49 8367   6.903   1.827   1.933
   20CHTO    N4 8368   7.080   1.890   2.020
   20CHTO   H41 8369   7.142   1.840   1.948
   20CHTO   H42 8370   7.130   1.890   2.116
   20CHTO   C22 8371   6.963   1.671   2.067
   20CHTO   H50 8372   7.026   1.661   2.156
   20CHTO   O14 8373   6.836   1.608   2.090
   20CHTO   C23 8374   6.759   1.665   2.196
   20CHTO   H51 8375   6.821   1.664   2.287
   20CHTO   C34 8376   6.637   1.576   2.221
   20CHTO   O23 8377   6.675   1.446   2.269
   20CHTO   H38 8378   6.707   1.453   2.357
   20CHTO   O16 8379   7.020   1.599   1.956
   20CHTO   C24 8380   7.072   1.455   1.992
   20CHTO   H52 8381   7.032   1.419   2.087
   20CHTO   C26 8382   7.226   1.454   1.998
   20CHTO   H54 8383   7.264   1.483   1.897
   20CHTO   O20 8384   7.275   1.552   2.090
   20CHTO   H36 8385   7.244   1.535   2.177
   20CHTO   C30 8386   7.279   1.312   2.035
   20CHTO   H58 8387   7.286   1.304   2.145
   20CHTO    N6 8388   7.418   1.292   1.988
   20CHTO   H45 8389   7.423   1.303   1.880
   20CHTO   H46 8390   7.484   1.364   2.034
   20CHTO   C33 8391   7.184   1.197   1.988
   20CHTO   H61 8392   7.242   1.107   1.960
   20CHTO   O18 8393   7.105   1.236   1.874
   20CHTO   C28 8394   7.024   1.355   1.882
   20CHTO   H56 8395   7.027   1.406   1.786
   20CHTO   C35 8396   6.876   1.316   1.908
   20CHTO   O24 8397   6.823   1.232   1.805
   20CHTO   H39 8398   6.863   1.147   1.809
   20CHTO    O9 8399   7.101   1.156   2.098
   20CHTO   C13 8400   7.096   0.998   2.126
   20CHTO   H26 8401   7.199   0.967   2.153
   20CHTO   C11 8402   7.040   0.915   2.003
   20CHTO   H24 8403   7.111   0.927   1.920
   20CHTO    O8 8404   6.913   0.967   1.959
   20CHTO    H3 8405   6.885   0.922   1.882
   20CHTO    C9 8406   7.038   0.766   2.046
   20CHTO   H22 8407   7.141   0.743   2.077
   20CHTO    N2 8408   7.010   0.672   1.934
   20CHTO   H10 8409   6.909   0.685   1.899
   20CHTO   H11 8410   7.026   0.571   1.967
   20CHTO    C7 8411   6.943   0.746   2.170
   20CHTO   H20 8412   6.967   0.644   2.203
   20CHTO    O4 8413   6.973   0.836   2.279
   20CHTO   C14 8414   7.009   0.974   2.255
   20CHTO   H27 8415   7.071   1.004   2.342
   20CHTO   C18 8416   6.882   1.064   2.259
   20CHTO   O13 8417   6.828   1.072   2.390
   20CHTO    H7 8418   6.791   0.989   2.415
   20CHTO    O2 8419   6.782   0.758   2.130
   20CHTO    C1 8420   6.687   0.697   2.220
   20CHTO   H14 8421   6.707   0.733   2.323
   20CHTO    C2 8422   6.690   0.536   2.222
   20CHTO   H15 8423   6.694   0.506   2.116
   20CHTO    O6 8424   6.810   0.490   2.288
   20CHTO    H1 8425   6.812   0.520   2.377
   20CHTO    C3 8426   6.561   0.472   2.293
   20CHTO   H16 8427   6.569   0.489   2.402
   20CHTO    N1 8428   6.553   0.323   2.273
   20CHTO    H8 8429   6.467   0.283   2.325
   20CHTO    H9 8430   6.545   0.301   2.167
   20CHTO    C4 8431   6.430   0.546   2.248
   20CHTO   H17 8432   6.413   0.526   2.142
   20CHTO    O1 8433   6.447   0.688   2.269
   20CHTO    C5 8434   6.544   0.746   2.182
   20CHTO   H18 8435   6.525   0.717   2.078
   20CHTO   C16 8436   6.528   0.900   2.194
   20CHTO   O11 8437   6.594   0.970   2.088
   20CHTO    H5 8438   6.551   0.952   2.007
   20CHTO    O3 8439   6.315   0.503   2.325
   20CHTO    C6 8440   6.186   0.570   2.301
   20CHTO   H19 8441   6.199   0.676   2.277
   20CHTO    C8 8442   6.107   0.504   2.184
   20CHTO   H21 8443   6.103   0.396   2.202
   20CHTO    O7 8444   6.179   0.529   2.062
   20CHTO    H2 8445   6.183   0.621   2.044
   20CHTO   C12 8446   5.959   0.560   2.172
   20CHTO   H25 8447   5.969   0.663   2.132
   20CHTO    N3 8448   5.877   0.484   2.071
   20CHTO   H12 8449   5.935   0.406   2.024
   20CHTO   H13 8450   5.788   0.443   2.116
   20CHTO   C15 8451   5.891   0.568   2.314
   20CHTO   H28 8452   5.862   0.470   2.351
   20CHTO   O10 8453   5.768   0.662   2.312
   20CHTO    H4 8454   5.723   0.658   2.394
   20CHTO    O5 8455   5.977   0.634   2.409
   20CHTO   C10 8456   6.101   0.564   2.431
   20CHTO   H23 8457   6.079   0.461   2.458
   20CHTO   C17 8458   6.169   0.631   2.552
   20CHTO   O12 8459   6.277   0.552   2.602
   20CHTO    H6 8460   6.348   0.552   2.541
   21GLOH   H03 8461   9.266   2.489   1.982
   21GLOH    O1 8462   9.356   2.518   1.954
   21GLOH    C1 8463   9.364   2.662   1.947
   21GLOH   H02 8464   9.297   2.707   2.021
   21GLOH   H08 8465   9.332   2.696   1.849
   21GLOH    C2 8466   9.507   2.712   1.972
   21GLOH   H04 8467   9.572   2.670   1.893
   21GLOH    O2 8468   9.510   2.856   1.964
   21GLOH   H05 8469   9.602   2.888   1.985
   21GLOH    C3 8470   9.557   2.658   2.108
   21GLOH   H06 8471   9.542   2.550   2.112
   21GLOH   H07 8472   9.495   2.701   2.187
   21GLOH    O3 8473   9.695   2.688   2.134
   21GLOH   H01 8474   9.752   2.644   2.065
   22GLOH   H03 8475   9.510   1.431   2.373
   22GLOH    O1 8476   9.608   1.433   2.387
   22GLOH    C1 8477   9.647   1.550   2.461
   22GLOH   H02 8478   9.740   1.531   2.515
   22GLOH   H08 8479   9.572   1.574   2.536
   22GLOH    C2 8480   9.668   1.675   2.372
   22GLOH   H04 8481   9.735   1.647   2.290
   22GLOH    O2 8482   9.543   1.721   2.316
   22GLOH   H05 8483   9.517   1.657   2.244
   22GLOH    C3 8484   9.736   1.787   2.453
   22GLOH   H06 8485   9.677   1.806   2.543
   22GLOH   H07 8486   9.734   1.879   2.394
   22GLOH    O3 8487   9.871   1.753   2.487
   22GLOH   H01 8488   9.927   1.760   2.406
   23GLOH   H03 8489   0.300   6.186   0.547
   23GLOH    O1 8490   0.359   6.142   0.614
   23GLOH    C1 8491   0.494   6.190   0.603
   23GLOH   H02 8492   0.553   6.148   0.685
   23GLOH   H08 8493   0.497   6.298   0.616
   23GLOH    C2 8494   0.564   6.156   0.470
   23GLOH   H04 8495   0.541   6.051   0.447
   23GLOH    O2 8496   0.516   6.237   0.360
   23GLOH   H05 8497   0.528   6.335   0.381
   23GLOH    C3 8498   0.717   6.168   0.483
   23GLOH   H06 8499   0.741   6.271   0.508
   23GLOH   H07 8500   0.762   6.148   0.386
   23GLOH    O3 8501   0.772   6.079   0.582
   23GLOH   H01 8502   0.738   5.986   0.564
   24GLOH   H03 8503   8.845   8.969   2.104
   24GLOH    O1 8504   8.749   8.986   2.126
   24GLOH    C1 8505   8.710   8.892   2.228
   24GLOH   H02 8506   8.782   8.810   2.236
   24GLOH   H08 8507   8.614   8.847   2.202
   24GLOH    C2 8508   8.695   8.957   2.368
   24GLOH   H04 8509   8.611   9.028   2.363
   24GLOH    O2 8510   8.664   8.857   2.467
   24GLOH   H05 8511   8.730   8.784   2.464
   24GLOH    C3 8512   8.821   9.036   2.407
   24GLOH   H06 8513   8.907   8.969   2.406
   24GLOH   H07 8514   8.809   9.071   2.510
   24GLOH    O3 8515   8.844   9.148   2.320
   24GLOH   H01 8516   8.825   9.119   2.228
   25GLOH   H03 8517   3.992   8.838   0.636
   25GLOH    O1 8518   4.072   8.779   0.635
   25GLOH    C1 8519   4.175   8.831   0.723
   25GLOH   H02 8520   4.170   8.939   0.729
   25GLOH   H08 8521   4.273   8.806   0.683
   25GLOH    C2 8522   4.164   8.773   0.866
   25GLOH   H04 8523   4.157   8.664   0.857
   25GLOH    O2 8524   4.282   8.803   0.943
   25GLOH   H05 8525   4.266   8.776   1.038
   25GLOH    C3 8526   4.036   8.824   0.935
   25GLOH   H06 8527   4.029   8.777   1.033
   25GLOH   H07 8528   3.950   8.787   0.878
   25GLOH    O3 8529   4.029   8.967   0.947
   25GLOH   H01 8530   3.996   8.988   1.039
   26GLOH   H03 8531   9.938   7.089   0.763
   26GLOH    O1 8532   9.992   7.006   0.775
   26GLOH    C1 8533   0.111   7.014   0.693
   26GLOH   H02 8534   0.153   6.914   0.680
   26GLOH   H08 8535   0.187   7.073   0.743
   26GLOH    C2 8536   0.087   7.075   0.553
   26GLOH   H04 8537   0.008   7.017   0.505
   26GLOH    O2 8538   0.045   7.213   0.562
   26GLOH   H05 8539   9.965   7.218   0.622
   26GLOH    C3 8540   0.215   7.065   0.467
   26GLOH   H06 8541   0.299   7.097   0.529
   26GLOH   H07 8542   0.207   7.137   0.385
   26GLOH    O3 8543   0.239   6.933   0.416
   26GLOH   H01 8544   0.161   6.912   0.357
   27GLOH   H03 8545   1.982   7.319   2.803
   27GLOH    O1 8546   1.973   7.233   2.758
   27GLOH    C1 8547   1.865   7.159   2.820
   27GLOH   H02 8548   1.769   7.201   2.791
   27GLOH   H08 8549   1.872   7.166   2.929
   27GLOH    C2 8550   1.866   7.010   2.781
   27GLOH   H04 8551   1.961   6.966   2.815
   27GLOH    O2 8552   1.757   6.942   2.847
   27GLOH   H05 8553   1.768   6.950   0.005
   27GLOH    C3 8554   1.857   6.994   2.628
   27GLOH   H06 8555   1.758   7.027   2.595
   27GLOH   H07 8556   1.864   6.888   2.604
   27GLOH    O3 8557   1.960   7.068   2.562
   27GLOH   H01 8558   1.984   7.141   2.624
   28GLOH   H03 8559   9.812   5.126   2.441
   28GLOH    O1 8560   9.797   5.119   2.538
   28GLOH    C1 8561   9.683   5.198   2.574
   28GLOH   H02 8562   9.687   5.294   2.523
   28GLOH   H08 8563   9.686   5.220   2.681
   28GLOH    C2 8564   9.548   5.131   2.542
   28GLOH   H04 8565   9.469   5.201   2.574
   28GLOH    O2 8566   9.532   5.106   2.401
   28GLOH   H05 8567   9.437   5.114   2.374
   28GLOH    C3 8568   9.532   5.002   2.625
   28GLOH   H06 8569   9.616   4.936   2.602
   28GLOH   H07 8570   9.442   4.951   2.591
   28GLOH    O3 8571   9.526   5.026   2.767
   28GLOH   H01 8572   9.453   5.089   2.786
   29GLOH   H03 8573   4.137   4.104   1.581
   29GLOH    O1 8574   4.221   4.132   1.627
   29GLOH    C1 8575   4.189   4.197   1.751
   29GLOH   H02 8576   4.102   4.262   1.738
   29GLOH   H08 8577   4.272   4.261   1.780
   29GLOH    C2 8578   4.161   4.098   1.866
   29GLOH   H04 8579   4.254   4.044   1.887
   29GLOH    O2 8580   4.120   4.171   1.984
   29GLOH   H05 8581   4.126   4.108   2.063
   29GLOH    C3 8582   4.055   3.995   1.821
   29GLOH   H06 8583   4.095   3.942   1.734
   29GLOH   H07 8584   3.968   4.050   1.786
   29GLOH    O3 8585   4.017   3.900   1.922
   29GLOH   H01 8586   4.079   3.823   1.918
   30GLOH   H03 8587   3.636   8.287   2.009
   30GLOH    O1 8588   3.663   8.304   2.103
   30GLOH    C1 8589   3.548   8.362   2.167
   30GLOH   H02 8590   3.456   8.326   2.121
   30GLOH   H08 8591   3.549   8.470   2.153
   30GLOH    C2 8592   3.542   8.334   2.318
   30GLOH   H04 8593   3.638   8.367   2.361
   30GLOH    O2 8594   3.435   8.410   2.379
   30GLOH   H05 8595   3.458   8.506   2.374
   30GLOH    C3 8596   3.527   8.183   2.345
   30GLOH   H06 8597   3.519   8.169   2.453
   30GLOH   H07 8598   3.620   8.135   2.315
   30GLOH    O3 8599   3.416   8.120   2.278
   30GLOH   H01 8600   3.340   8.182   2.274
   31GLOH   H03 8601   0.514   4.123   0.041
   31GLOH    O1 8602   0.432   4.168   0.072
   31GLOH    C1 8603   0.411   4.132   0.210
   31GLOH   H02 8604   0.416   4.024   0.223
   31GLOH   H08 8605   0.311   4.162   0.241
   31GLOH    C2 8606   0.514   4.198   0.303
   31GLOH   H04 8607   0.502   4.306   0.292
   31GLOH    O2 8608   0.491   4.166   0.442
   31GLOH   H05 8609   0.478   4.067   0.453
   31GLOH    C3 8610   0.658   4.165   0.256
   31GLOH   H06 8611   0.727   4.196   0.334
   31GLOH   H07 8612   0.680   4.226   0.169
   31GLOH    O3 8613   0.675   4.026   0.225
   31GLOH   H01 8614   0.717   3.982   0.303
   32GLOH   H03 8615   8.278   2.924   2.810
   32GLOH    O1 8616   8.246   2.911   2.902
   32GLOH    C1 8617   8.104   2.884   2.896
   32GLOH   H02 8618   8.072   2.830   0.043
   32GLOH   H08 8619   8.082   2.819   2.811
   32GLOH    C2 8620   8.019   3.012   2.883
   32GLOH   H04 8621   8.061   3.073   2.801
   32GLOH    O2 8622   7.883   2.978   2.850
   32GLOH   H05 8623   7.840   2.929   2.926
   32GLOH    C3 8624   8.025   3.095   0.071
   32GLOH   H06 8625   7.961   3.183   0.058
   32GLOH   H07 8626   8.127   3.133   0.083
   32GLOH    O3 8627   7.985   3.023   0.189
   32GLOH   H01 8628   7.906   2.967   0.167
   33GLOH   H03 8629   0.201   0.508   2.933
   33GLOH    O1 8630   0.279   0.470   0.040
   33GLOH    C1 8631   0.353   0.394   2.883
   33GLOH   H02 8632   0.319   0.290   2.882
   33GLOH   H08 8633   0.459   0.392   2.908
   33GLOH    C2 8634   0.338   0.452   2.741
   33GLOH   H04 8635   0.383   0.552   2.739
   33GLOH    O2 8636   0.406   0.366   2.648
   33GLOH   H05 8637   0.430   0.412   2.566
   33GLOH    C3 8638   0.188   0.463   2.705
   33GLOH   H06 8639   0.147   0.362   2.699
   33GLOH   H07 8640   0.180   0.506   2.605
   33GLOH    O3 8641   0.111   0.542   2.799
   33GLOH   H01 8642   0.033   0.577   2.750
   34GLOH   H03 8643   4.502   0.094   0.946
   34GLOH    O1 8644   4.433   0.163   0.936
   34GLOH    C1 8645   4.357   0.124   0.820
   34GLOH   H02 8646   4.421   0.124   0.731
   34GLOH   H08 8647   4.277   0.194   0.800
   34GLOH    C2 8648   4.297   9.983   0.835
   34GLOH   H04 8649   4.248   9.955   0.741
   34GLOH    O2 8650   4.403   9.889   0.863
   34GLOH   H05 8651   4.370   9.795   0.851
   34GLOH    C3 8652   4.192   9.981   0.948
   34GLOH   H06 8653   4.242   9.999   1.043
   34GLOH   H07 8654   4.149   9.881   0.953
   34GLOH    O3 8655   4.088   0.079   0.928
   34GLOH   H01 8656   4.037   0.058   0.845
   35GLOH   H03 8657   8.071   1.345   0.955
   35GLOH    O1 8658   8.164   1.367   0.982
   35GLOH    C1 8659   8.186   1.508   0.964
   35GLOH   H02 8660   8.100   1.566   0.998
   35GLOH   H08 8661   8.199   1.531   0.858
   35GLOH    C2 8662   8.311   1.557   1.040
   35GLOH   H04 8663   8.398   1.504   0.997
   35GLOH    O2 8664   8.333   1.698   1.022
   35GLOH   H05 8665   8.262   1.750   1.072
   35GLOH    C3 8666   8.302   1.517   1.188
   35GLOH   H06 8667   8.391   1.555   1.239
   35GLOH   H07 8668   8.308   1.408   1.195
   35GLOH    O3 8669   8.183   1.564   1.254
   35GLOH   H01 8670   8.103   1.517   1.220
   36GLOH   H03 8671   9.184   0.140   0.482
   36GLOH    O1 8672   9.186   0.122   0.384
   36GLOH    C1 8673   9.202   0.245   0.311
   36GLOH   H02 8674   9.204   0.224   0.204
   36GLOH   H08 8675   9.297   0.292   0.336
   36GLOH    C2 8676   9.089   0.347   0.338
   36GLOH   H04 8677   9.092   0.373   0.445
   36GLOH    O2 8678   9.111   0.467   0.260
   36GLOH   H05 8679   9.142   0.542   0.318
   36GLOH    C3 8680   8.951   0.286   0.306
   36GLOH   H06 8681   8.875   0.357   0.337
   36GLOH   H07 8682   8.938   0.197   0.368
   36GLOH    O3 8683   8.935   0.253   0.167
   36GLOH   H01 8684   8.933   0.338   0.116
   37GLOH   H03 8685   8.879   4.687   2.099
   37GLOH    O1 8686   8.823   4.747   2.153
   37GLOH    C1 8687   8.875   4.881   2.147
   37GLOH   H02 8688   8.882   4.915   2.044
   37GLOH   H08 8689   8.976   4.884   2.189
   37GLOH    C2 8690   8.787   4.980   2.226
   37GLOH   H04 8691   8.780   4.943   2.330
   37GLOH    O2 8692   8.847   5.111   2.229
   37GLOH   H05 8693   8.869   5.137   2.135
   37GLOH    C3 8694   8.645   4.985   2.169
   37GLOH   H06 8695   8.582   5.037   2.242
   37GLOH   H07 8696   8.606   4.883   2.162
   37GLOH    O3 8697   8.634   5.050   2.040
   37GLOH   H01 8698   8.669   4.990   1.969
   38GLOH   H03 8699   8.738   5.190   2.315
   38GLOH    O1 8700   8.670   5.242   2.365
   38GLOH    C1 8701   8.722   5.374   2.391
   38GLOH   H02 8702   8.640   5.446   2.397
   38GLOH   H08 8703   8.788   5.406   2.311
   38GLOH    C2 8704   8.800   5.378   2.524
   38GLOH   H04 8705   8.873   5.296   2.524
   38GLOH    O2 8706   8.870   5.504   2.538
   38GLOH   H05 8707   8.937   5.512   2.466
   38GLOH    C3 8708   8.703   5.356   2.642
   38GLOH   H06 8709   8.652   5.260   2.627
   38GLOH   H07 8710   8.626   5.433   2.639
   38GLOH    O3 8711   8.771   5.357   2.769
   38GLOH   H01 8712   8.837   5.430   2.761
   39GLOH   H03 8713   1.083   4.856   0.324
   39GLOH    O1 8714   1.027   4.905   0.257
   39GLOH    C1 8715   1.118   4.977   0.172
   39GLOH   H02 8716   1.078   4.979   0.070
   39GLOH   H08 8717   1.213   4.925   0.166
   39GLOH    C2 8718   1.145   5.122   0.216
   39GLOH   H04 8719   1.236   5.157   0.165
   39GLOH    O2 8720   1.035   5.209   0.181
   39GLOH   H05 8721   1.070   5.303   0.187
   39GLOH    C3 8722   1.170   5.129   0.368
   39GLOH   H06 8723   1.239   5.049   0.395
   39GLOH   H07 8724   1.076   5.106   0.420
   39GLOH    O3 8725   1.220   5.257   0.412
   39GLOH   H01 8726   1.183   5.328   0.354
   40GLOH   H03 8727   1.304   0.865   0.104
   40GLOH    O1 8728   1.385   0.911   0.071
   40GLOH    C1 8729   1.501   0.852   0.133
   40GLOH   H02 8730   1.534   0.765   0.076
   40GLOH   H08 8731   1.478   0.816   0.234
   40GLOH    C2 8732   1.619   0.950   0.142
   40GLOH   H04 8733   1.707   0.896   0.182
   40GLOH    O2 8734   1.649   1.000   0.011
   40GLOH   H05 8735   1.564   1.005   2.904
   40GLOH    C3 8736   1.587   1.066   0.238
   40GLOH   H06 8737   1.510   1.129   0.191
   40GLOH   H07 8738   1.676   1.128   0.248
   40GLOH    O3 8739   1.542   1.020   0.367
   40GLOH   H01 8740   1.597   1.062   0.438
   41GLOH   H03 8741   2.233   8.533   0.927
   41GLOH    O1 8742   2.206   8.485   0.844
   41GLOH    C1 8743   2.116   8.379   0.881
   41GLOH   H02 8744   2.171   8.285   0.894
   41GLOH   H08 8745   2.044   8.362   0.801
   41GLOH    C2 8746   2.039   8.409   1.011
   41GLOH   H04 8747   1.981   8.501   0.995
   41GLOH    O2 8748   1.948   8.302   1.044
   41GLOH   H05 8749   2.000   8.222   1.074
   41GLOH    C3 8750   2.139   8.435   1.125
   41GLOH   H06 8751   2.204   8.347   1.136
   41GLOH   H07 8752   2.084   8.445   1.219
   41GLOH    O3 8753   2.219   8.552   1.101
   41GLOH   H01 8754   2.184   8.623   1.161
   42GLOH   H03 8755   3.934   4.049   0.872
   42GLOH    O1 8756   3.897   4.121   0.930
   42GLOH    C1 8757   3.865   4.062   1.057
   42GLOH   H02 8758   3.885   4.134   1.138
   42GLOH   H08 8759   3.927   3.975   1.077
   42GLOH    C2 8760   3.718   4.018   1.067
   42GLOH   H04 8761   3.708   3.953   1.155
   42GLOH    O2 8762   3.632   4.133   1.082
   42GLOH   H05 8763   3.541   4.102   1.111
   42GLOH    C3 8764   3.681   3.935   0.943
   42GLOH   H06 8765   3.685   4.000   0.855
   42GLOH   H07 8766   3.577   3.902   0.953
   42GLOH    O3 8767   3.768   3.822   0.925
   42GLOH   H01 8768   3.855   3.853   0.890
   43GLOH   H03 8769   2.633   5.977   2.659
   43GLOH    O1 8770   2.675   5.929   2.584
   43GLOH    C1 8771   2.604   5.955   2.462
   43GLOH   H02 8772   2.611   6.061   2.436
   43GLOH   H08 8773   2.498   5.932   2.474
   43GLOH    C2 8774   2.660   5.872   2.346
   43GLOH   H04 8775   2.653   5.765   2.374
   43GLOH    O2 8776   2.581   5.894   2.227
   43GLOH   H05 8777   2.579   5.810   2.173
   43GLOH    C3 8778   2.808   5.907   2.323
   43GLOH   H06 8779   2.863   5.886   2.415
   43GLOH   H07 8780   2.815   6.015   2.306
   43GLOH    O3 8781   2.868   5.835   2.213
   43GLOH   H01 8782   2.834   5.878   2.129
   44GLOH   H03 8783   4.888   3.560   2.478
   44GLOH    O1 8784   4.961   3.569   2.542
   44GLOH    C1 8785   5.047   3.676   2.496
   44GLOH   H02 8786   5.100   3.645   2.407
   44GLOH   H08 8787   5.122   3.698   2.572
   44GLOH    C2 8788   4.971   3.806   2.465
   44GLOH   H04 8789   5.045   3.882   2.434
   44GLOH    O2 8790   4.875   3.787   2.359
   44GLOH   H05 8791   4.839   3.875   2.328
   44GLOH    C3 8792   4.904   3.858   2.594
   44GLOH   H06 8793   4.834   3.782   2.631
   44GLOH   H07 8794   4.845   3.946   2.570
   44GLOH    O3 8795   5.002   3.889   2.694
   44GLOH   H01 8796   4.960   3.899   2.784
   45GLOH   H03 8797   3.985   4.243   0.607
   45GLOH    O1 8798   4.039   4.228   0.526
   45GLOH    C1 8799   3.983   4.115   0.456
   45GLOH   H02 8800   4.005   4.022   0.509
   45GLOH   H08 8801   4.028   4.107   0.357
   45GLOH    C2 8802   3.830   4.128   0.440
   45GLOH   H04 8803   3.809   4.225   0.392
   45GLOH    O2 8804   3.780   4.022   0.357
   45GLOH   H05 8805   3.776   3.937   0.410
   45GLOH    C3 8806   3.762   4.128   0.578
   45GLOH   H06 8807   3.778   4.032   0.626
   45GLOH   H07 8808   3.654   4.139   0.563
   45GLOH    O3 8809   3.811   4.234   0.663
   45GLOH   H01 8810   3.751   4.241   0.742
   46GLOH   H03 8811   0.873   9.945   0.598
   46GLOH    O1 8812   0.927   9.946   0.682
   46GLOH    C1 8813   0.870   9.850   0.773
   46GLOH   H02 8814   0.897   9.749   0.742
   46GLOH   H08 8815   0.761   9.855   0.771
   46GLOH    C2 8816   0.916   9.870   0.918
   46GLOH   H04 8817   0.870   9.962   0.956
   46GLOH    O2 8818   0.870   9.759   0.997
   46GLOH   H05 8819   0.832   9.792   1.083
   46GLOH    C3 8820   1.069   9.887   0.925
   46GLOH   H06 8821   1.096   9.978   0.871
   46GLOH   H07 8822   1.115   9.805   0.870
   46GLOH    O3 8823   1.123   9.894   1.059
   46GLOH   H01 8824   1.090   9.974   1.107
   47GLOH   H03 8825   2.368   7.889   1.098
   47GLOH    O1 8826   2.398   7.809   1.149
   47GLOH    C1 8827   2.541   7.810   1.159
   47GLOH   H02 8828   2.579   7.912   1.171
   47GLOH   H08 8829   2.586   7.769   1.069
   47GLOH    C2 8830   2.588   7.727   1.280
   47GLOH   H04 8831   2.556   7.623   1.263
   47GLOH    O2 8832   2.732   7.730   1.290
   47GLOH   H05 8833   2.766   7.636   1.296
   47GLOH    C3 8834   2.520   7.780   1.407
   47GLOH   H06 8835   2.412   7.770   1.394
   47GLOH   H07 8836   2.541   7.887   1.415
   47GLOH    O3 8837   2.560   7.713   1.528
   47GLOH   H01 8838   2.574   7.617   1.507
   48GLOH   H03 8839   2.852   6.870   2.345
   48GLOH    O1 8840   2.796   6.794   2.320
   48GLOH    C1 8841   2.674   6.840   2.258
   48GLOH   H02 8842   2.644   6.937   2.299
   48GLOH   H08 8843   2.592   6.770   2.278
   48GLOH    C2 8844   2.689   6.854   2.105
   48GLOH   H04 8845   2.717   6.755   2.064
   48GLOH    O2 8846   2.565   6.896   2.046
   48GLOH   H05 8847   2.569   6.878   1.948
   48GLOH    C3 8848   2.802   6.954   2.072
   48GLOH   H06 8849   2.888   6.930   2.133
   48GLOH   H07 8850   2.768   7.054   2.102
   48GLOH    O3 8851   2.838   6.954   1.933
   48GLOH   H01 8852   2.864   6.861   1.910
   49GLOH   H03 8853   3.650   6.066   2.648
   49GLOH    O1 8854   3.555   6.039   2.638
   49GLOH    C1 8855   3.516   6.043   2.499
   49GLOH   H02 8856   3.421   5.993   2.486
   49GLOH   H08 8857   3.589   5.989   2.438
   49GLOH    C2 8858   3.504   6.186   2.444
   49GLOH   H04 8859   3.602   6.235   2.454
   49GLOH    O2 8860   3.466   6.185   2.304
   49GLOH   H05 8861   3.451   6.280   2.275
   49GLOH    C3 8862   3.402   6.267   2.527
   49GLOH   H06 8863   3.404   6.371   2.494
   49GLOH   H07 8864   3.435   6.267   2.631
   49GLOH    O3 8865   3.269   6.214   2.517
   49GLOH   H01 8866   3.259   6.177   2.427
   50GLOH   H03 8867   3.736   2.919   1.424
   50GLOH    O1 8868   3.652   2.890   1.381
   50GLOH    C1 8869   3.679   2.771   1.305
   50GLOH   H02 8870   3.783   2.770   1.272
   50GLOH   H08 8871   3.618   2.770   1.215
   50GLOH    C2 8872   3.654   2.641   1.383
   50GLOH   H04 8873   3.679   2.557   1.316
   50GLOH    O2 8874   3.738   2.632   1.499
   50GLOH   H05 8875   3.701   2.690   1.572
   50GLOH    C3 8876   3.505   2.628   1.420
   50GLOH   H06 8877   3.477   2.712   1.483
   50GLOH   H07 8878   3.492   2.538   1.480
   50GLOH    O3 8879   3.420   2.622   1.304
   50GLOH   H01 8880   3.452   2.549   1.245
   51GLOH   H03 8881   9.784   5.850   0.543
   51GLOH    O1 8882   9.686   5.835   0.533
   51GLOH    C1 8883   9.629   5.943   0.457
   51GLOH   H02 8884   9.684   6.036   0.475
   51GLOH   H08 8885   9.527   5.961   0.490
   51GLOH    C2 8886   9.625   5.918   0.304
   51GLOH   H04 8887   9.567   5.827   0.285
   51GLOH    O2 8888   9.558   6.030   0.241
   51GLOH   H05 8889   9.614   6.112   0.258
   51GLOH    C3 8890   9.764   5.903   0.242
   51GLOH   H06 8891   9.818   5.997   0.253
   51GLOH   H07 8892   9.751   5.887   0.134
   51GLOH    O3 8893   9.844   5.795   0.296
   51GLOH   H01 8894   9.794   5.710   0.280
   52GLOH   H03 8895   4.139   8.650   2.437
   52GLOH    O1 8896   4.234   8.665   2.452
   52GLOH    C1 8897   4.253   8.718   2.585
   52GLOH   H02 8898   4.214   8.648   2.660
   52GLOH   H08 8899   4.199   8.812   2.598
   52GLOH    C2 8900   4.402   8.744   2.619
   52GLOH   H04 8901   4.442   8.815   2.546
   52GLOH    O2 8902   4.413   8.798   2.752
   52GLOH   H05 8903   4.479   8.871   2.754
   52GLOH    C3 8904   4.482   8.613   2.609
   52GLOH   H06 8905   4.447   8.544   2.687
   52GLOH   H07 8906   4.587   8.634   2.630
   52GLOH    O3 8907   4.468   8.553   2.479
   52GLOH   H01 8908   4.374   8.566   2.454
   53GLOH   H03 8909   8.526   4.540   0.563
   53GLOH    O1 8910   8.453   4.500   0.508
   53GLOH    C1 8911   8.431   4.581   0.391
   53GLOH   H02 8912   8.418   4.685   0.420
   53GLOH   H08 8913   8.339   4.550   0.341
   53GLOH    C2 8914   8.546   4.574   0.288
   53GLOH   H04 8915   8.637   4.611   0.337
   53GLOH    O2 8916   8.570   4.438   0.243
   53GLOH   H05 8917   8.626   4.393   0.314
   53GLOH    C3 8918   8.515   4.667   0.170
   53GLOH   H06 8919   8.422   4.634   0.122
   53GLOH   H07 8920   8.594   4.658   0.096
   53GLOH    O3 8921   8.503   4.803   0.214
   53GLOH   H01 8922   8.468   4.862   0.141
   54GLOH   H03 8923   3.708   1.404   2.510
   54GLOH    O1 8924   3.622   1.373   2.545
   54GLOH    C1 8925   3.629   1.230   2.563
   54GLOH   H02 8926   3.561   1.198   2.641
   54GLOH   H08 8927   3.729   1.200   2.595
   54GLOH    C2 8928   3.595   1.153   2.434
   54GLOH   H04 8929   3.660   1.189   2.353
   54GLOH    O2 8930   3.614   1.012   2.452
   54GLOH   H05 8931   3.641   0.972   2.364
   54GLOH    C3 8932   3.448   1.182   2.396
   54GLOH   H06 8933   3.383   1.142   2.474
   54GLOH   H07 8934   3.425   1.128   2.304
   54GLOH    O3 8935   3.428   1.323   2.380
   54GLOH   H01 8936   3.484   1.366   2.449
   55GLOH   H03 8937   4.250   0.272   1.403
   55GLOH    O1 8938   4.269   0.178   1.375
   55GLOH    C1 8939   4.277   0.091   1.489
   55GLOH   H02 8940   4.314   9.993   1.458
   55GLOH   H08 8941   4.178   0.075   1.532
   55GLOH    C2 8942   4.370   0.145   1.600
   55GLOH   H04 8943   4.468   0.169   1.555
   55GLOH    O2 8944   4.314   0.264   1.659
   55GLOH   H05 8945   4.362   0.345   1.623
   55GLOH    C3 8946   4.393   0.039   1.709
   55GLOH   H06 8947   4.300   0.024   1.763
   55GLOH   H07 8948   4.465   0.078   1.781
   55GLOH    O3 8949   4.441   9.913   1.657
   55GLOH   H01 8950   4.524   9.928   1.604
   56GLOH   H03 8951   8.449   3.734   0.319
   56GLOH    O1 8952   8.501   3.688   0.247
   56GLOH    C1 8953   8.633   3.744   0.237
   56GLOH   H02 8954   8.627   3.848   0.205
   56GLOH   H08 8955   8.690   3.691   0.161
   56GLOH    C2 8956   8.714   3.740   0.368
   56GLOH   H04 8957   8.815   3.775   0.344
   56GLOH    O2 8958   8.660   3.827   0.470
   56GLOH   H05 8959   8.701   3.918   0.455
   56GLOH    C3 8960   8.728   3.595   0.420
   56GLOH   H06 8961   8.629   3.550   0.423
   56GLOH   H07 8962   8.765   3.598   0.522
   56GLOH    O3 8963   8.816   3.517   0.337
   56GLOH   H01 8964   8.759   3.465   0.274
   57GLOH   H03 8965   9.047   2.653   0.226
   57GLOH    O1 8966   9.073   2.630   0.318
   57GLOH    C1 8967   9.105   2.750   0.392
   57GLOH   H02 8968   9.183   2.729   0.465
   57GLOH   H08 8969   9.018   2.783   0.448
   57GLOH    C2 8970   9.152   2.866   0.303
   57GLOH   H04 8971   9.239   2.832   0.245
   57GLOH    O2 8972   9.047   2.905   0.212
   57GLOH   H05 8973   9.031   2.829   0.148
   57GLOH    C3 8974   9.196   2.986   0.389
   57GLOH   H06 8975   9.109   3.022   0.445
   57GLOH   H07 8976   9.226   3.066   0.322
   57GLOH    O3 8977   9.304   2.954   0.479
   57GLOH   H01 8978   9.389   2.961   0.428
   58GLOH   H03 8979   8.649   5.969   0.867
   58GLOH    O1 8980   8.598   5.951   0.951
   58GLOH    C1 8981   8.692   5.934   1.060
   58GLOH   H02 8982   8.733   6.030   1.090
   58GLOH   H08 8983   8.775   5.872   1.029
   58GLOH    C2 8984   8.626   5.868   1.183
   58GLOH   H04 8985   8.595   5.767   1.153
   58GLOH    O2 8986   8.720   5.857   1.292
   58GLOH   H05 8987   8.704   5.931   1.358
   58GLOH    C3 8988   8.501   5.945   1.227
   58GLOH   H06 8989   8.531   6.045   1.260
   58GLOH   H07 8990   8.458   5.894   1.313
   58GLOH    O3 8991   8.405   5.955   1.121
   58GLOH   H01 8992   8.460   5.954   1.038
   59GLOH   H03 8993   4.475   0.588   2.284
   59GLOH    O1 8994   4.543   0.521   2.260
   59GLOH    C1 8995   4.673   0.573   2.295
   59GLOH   H02 8996   4.751   0.507   2.255
   59GLOH   H08 8997   4.685   0.574   2.403
   59GLOH    C2 8998   4.700   0.716   2.242
   59GLOH   H04 8999   4.687   0.714   2.133
   59GLOH    O2 9000   4.607   0.811   2.299
   59GLOH   H05 9001   4.656   0.896   2.309
   59GLOH    C3 9002   4.845   0.756   2.273
   59GLOH   H06 9003   4.911   0.690   2.218
   59GLOH   H07 9004   4.863   0.741   2.379
   59GLOH    O3 9005   4.872   0.893   2.238
   59GLOH   H01 9006   4.866   0.904   2.140
   60GLOH   H03 9007   2.207   5.568   1.418
   60GLOH    O1 9008   2.228   5.496   1.483
   60GLOH    C1 9009   2.335   5.540   1.568
   60GLOH   H02 9010   2.311   5.518   1.672
   60GLOH   H08 9011   2.348   5.648   1.561
   60GLOH    C2 9012   2.471   5.474   1.538
   60GLOH   H04 9013   2.543   5.511   1.612
   60GLOH    O2 9014   2.466   5.330   1.550
   60GLOH   H05 9015   2.374   5.299   1.526
   60GLOH    C3 9016   2.522   5.518   1.399
   60GLOH   H06 9017   2.447   5.494   1.325
   60GLOH   H07 9018   2.611   5.460   1.375
   60GLOH    O3 9019   2.553   5.658   1.398
   60GLOH   H01 9020   2.516   5.698   1.315
   61GLOH   H03 9021   2.175   3.636   1.242
   61GLOH    O1 9022   2.124   3.608   1.321
   61GLOH    C1 9023   1.983   3.626   1.296
   61GLOH   H02 9024   1.966   3.720   1.243
   61GLOH   H08 9025   1.930   3.633   1.391
   61GLOH    C2 9026   1.921   3.511   1.214
   61GLOH   H04 9027   1.944   3.416   1.264
   61GLOH    O2 9028   1.778   3.529   1.208
   61GLOH   H05 9029   1.734   3.497   1.292
   61GLOH    C3 9030   1.975   3.506   1.070
   61GLOH   H06 9031   1.947   3.599   1.020
   61GLOH   H07 9032   1.923   3.425   1.018
   61GLOH    O3 9033   2.117   3.487   1.061
   61GLOH   H01 9034   2.134   3.419   0.990
   62GLOH   H03 9035   9.960   5.219   1.169
   62GLOH    O1 9036   9.942   5.198   1.073
   62GLOH    C1 9037   9.934   5.325   1.004
   62GLOH   H02 9038   9.877   5.396   1.064
   62GLOH   H08 9039   9.879   5.312   0.911
   62GLOH    C2 9040   0.071   5.388   0.972
   62GLOH   H04 9041   0.051   5.494   0.948
   62GLOH    O2 9042   0.163   5.385   1.083
   62GLOH   H05 9043   0.141   5.460   1.145
   62GLOH    C3 9044   0.135   5.325   0.847
   62GLOH   H06 9045   0.139   5.217   0.862
   62GLOH   H07 9046   0.238   5.360   0.840
   62GLOH    O3 9047   0.063   5.356   0.727
   62GLOH   H01 9048   0.122   5.330   0.652
   63GLOH   H03 9049   9.832   9.429   1.295
   63GLOH    O1 9050   9.930   9.409   1.298
   63GLOH    C1 9051   9.989   9.488   1.403
   63GLOH   H02 9052   0.072   9.433   1.449
   63GLOH   H08 9053   9.916   9.508   1.482
   63GLOH    C2 9054   0.043   9.623   1.351
   63GLOH   H04 9055   9.961   9.677   1.303
   63GLOH    O2 9056   0.098   9.704   1.456
   63GLOH   H05 9057   0.076   9.665   1.546
   63GLOH    C3 9058   0.152   9.596   1.245
   63GLOH   H06 9059   0.238   9.552   1.294
   63GLOH   H07 9060   0.184   9.692   1.204
   63GLOH    O3 9061   0.103   9.510   1.140
   63GLOH   H01 9062   0.032   9.455   1.183
   64GLOH   H03 9063   0.998   0.609   2.562
   64GLOH    O1 9064   0.915   0.613   2.612
   64GLOH    C1 9065   0.938   0.664   2.744
   64GLOH   H02 9066   0.977   0.766   2.740
   64GLOH   H08 9067   1.013   0.604   2.796
   64GLOH    C2 9068   0.809   0.665   2.828
   64GLOH   H04 9069   0.830   0.722   2.920
   64GLOH    O2 9070   0.702   0.732   2.758
   64GLOH   H05 9071   0.720   0.717   2.662
   64GLOH    C3 9072   0.767   0.523   2.869
   64GLOH   H06 9073   0.765   0.461   2.779
   64GLOH   H07 9074   0.666   0.526   2.908
   64GLOH    O3 9075   0.856   0.465   0.026
   64GLOH   H01 9076   0.895   0.537   0.081
   65GLOH   H03 9077   8.941   9.995   2.418
   65GLOH    O1 9078   9.022   0.049   2.417
   65GLOH    C1 9079   8.990   0.185   2.451
   65GLOH   H02 9080   8.970   0.194   2.558
   65GLOH   H08 9081   8.899   0.217   2.400
   65GLOH    C2 9082   9.104   0.282   2.416
   65GLOH   H04 9083   9.075   0.383   2.447
   65GLOH    O2 9084   9.225   0.243   2.484
   65GLOH   H05 9085   9.220   0.146   2.496
   65GLOH    C3 9086   9.128   0.283   2.264
   65GLOH   H06 9087   9.162   0.184   2.233
   65GLOH   H07 9088   9.209   0.353   2.242
   65GLOH    O3 9089   9.009   0.321   2.191
   65GLOH   H01 9090   8.992   0.417   2.213
   66GLOH   H03 9091   4.848   1.831   0.920
   66GLOH    O1 9092   4.768   1.818   0.863
   66GLOH    C1 9093   4.662   1.897   0.920
   66GLOH   H02 9094   4.699   1.995   0.951
   66GLOH   H08 9095   4.624   1.849   1.010
   66GLOH    C2 9096   4.546   1.917   0.821
   66GLOH   H04 9097   4.471   1.983   0.869
   66GLOH    O2 9098   4.594   1.982   0.701
   66GLOH   H05 9099   4.692   1.992   0.710
   66GLOH    C3 9100   4.478   1.783   0.788
   66GLOH   H06 9101   4.548   1.724   0.728
   66GLOH   H07 9102   4.392   1.804   0.724
   66GLOH    O3 9103   4.437   1.709   0.905
   66GLOH   H01 9104   4.413   1.772   0.977
   67GLOH   H03 9105   4.353   9.478   0.524
   67GLOH    O1 9106   4.321   9.549   0.585
   67GLOH    C1 9107   4.187   9.591   0.549
   67GLOH   H02 9108   4.120   9.578   0.633
   67GLOH   H08 9109   4.147   9.529   0.469
   67GLOH    C2 9110   4.183   9.738   0.504
   67GLOH   H04 9111   4.239   9.798   0.578
   67GLOH    O2 9112   4.246   9.750   0.375
   67GLOH   H05 9113   4.344   9.764   0.390
   67GLOH    C3 9114   4.038   9.791   0.500
   67GLOH   H06 9115   3.984   9.753   0.587
   67GLOH   H07 9116   3.988   9.749   0.412
   67GLOH    O3 9117   4.031   9.935   0.497
   67GLOH   H01 9118   4.078   9.968   0.416
   68GLOH   H03 9119   1.800   2.379   1.022
   68GLOH    O1 9120   1.852   2.295   1.020
   68GLOH    C1 9121   1.989   2.327   0.987
   68GLOH   H02 9122   1.996   2.355   0.882
   68GLOH   H08 9123   2.052   2.239   1.000
   68GLOH    C2 9124   2.044   2.443   1.072
   68GLOH   H04 9125   2.029   2.418   1.178
   68GLOH    O2 9126   2.185   2.465   1.048
   68GLOH   H05 9127   2.210   2.553   1.087
   68GLOH    C3 9128   1.960   2.568   1.040
   68GLOH   H06 9129   1.966   2.587   0.933
   68GLOH   H07 9130   2.004   2.654   1.090
   68GLOH    O3 9131   1.823   2.554   1.080
   68GLOH   H01 9132   1.768   2.613   1.023
   69GLOH   H03 9133   3.841   6.063   2.761
   69GLOH    O1 9134   3.791   6.116   2.694
   69GLOH    C1 9135   3.749   6.238   2.759
   69GLOH   H02 9136   3.645   6.230   2.791
   69GLOH   H08 9137   3.753   6.321   2.689
   69GLOH    C2 9138   3.835   6.275   2.881
   69GLOH   H04 9139   3.936   6.300   2.846
   69GLOH    O2 9140   3.780   6.389   0.010
   69GLOH   H05 9141   3.688   6.365   0.042
   69GLOH    C3 9142   3.847   6.155   0.037
   69GLOH   H06 9143   3.748   6.134   0.077
   69GLOH   H07 9144   3.909   6.185   0.121
   69GLOH    O3 9145   3.901   6.038   2.915
   69GLOH   H01 9146   3.915   5.971   0.044
   70GLOH   H03 9147   3.789   5.180   0.222
   70GLOH    O1 9148   3.725   5.131   0.280
   70GLOH    C1 9149   3.752   4.990   0.265
   70GLOH   H02 9150   3.800   4.971   0.169
   70GLOH   H08 9151   3.658   4.934   0.264
   70GLOH    C2 9152   3.842   4.933   0.376
   70GLOH   H04 9153   3.787   4.943   0.471
   70GLOH    O2 9154   3.867   4.793   0.351
   70GLOH   H05 9155   3.794   4.739   0.393
   70GLOH    C3 9156   3.974   5.011   0.389
   70GLOH   H06 9157   3.951   5.118   0.394
   70GLOH   H07 9158   4.031   4.996   0.297
   70GLOH    O3 9159   4.051   4.972   0.504
   70GLOH   H01 9160   4.137   5.021   0.504
   71GLOH   H03 9161   8.180   1.078   0.530
   71GLOH    O1 9162   8.159   1.083   0.628
   71GLOH    C1 9163   8.213   1.205   0.684
   71GLOH   H02 9164   8.137   1.253   0.746
   71GLOH   H08 9165   8.236   1.276   0.605
   71GLOH    C2 9166   8.340   1.183   0.768
   71GLOH   H04 9167   8.423   1.166   0.699
   71GLOH    O2 9168   8.366   1.304   0.844
   71GLOH   H05 9169   8.290   1.321   0.907
   71GLOH    C3 9170   8.330   1.061   0.862
   71GLOH   H06 9171   8.311   0.973   0.801
   71GLOH   H07 9172   8.243   1.074   0.926
   71GLOH    O3 9173   8.449   1.040   0.941
   71GLOH   H01 9174   8.439   1.093   1.025
   72GLOH   H03 9175   2.239   8.820   0.027
   72GLOH    O1 9176   2.197   8.751   2.910
   72GLOH    C1 9177   2.275   8.739   2.790
   72GLOH   H02 9178   2.378   8.711   2.814
   72GLOH   H08 9179   2.280   8.835   2.738
   72GLOH    C2 9180   2.219   8.634   2.692
   72GLOH   H04 9181   2.194   8.544   2.750
   72GLOH    O2 9182   2.099   8.680   2.625
   72GLOH   H05 9183   2.081   8.615   2.555
   72GLOH    C3 9184   2.324   8.594   2.587
   72GLOH   H06 9185   2.410   8.551   2.639
   72GLOH   H07 9186   2.359   8.684   2.537
   72GLOH    O3 9187   2.271   8.500   2.491
   72GLOH   H01 9188   2.343   8.464   2.436
   73GLOH   H03 9189   0.170   8.055   0.189
   73GLOH    O1 9190   0.263   8.091   0.191
   73GLOH    C1 9191   0.258   8.236   0.189
   73GLOH   H02 9192   0.157   8.272   0.173
   73GLOH   H08 9193   0.318   8.274   0.106
   73GLOH    C2 9194   0.312   8.297   0.320
   73GLOH   H04 9195   0.416   8.263   0.333
   73GLOH    O2 9196   0.310   8.441   0.312
   73GLOH   H05 9197   0.384   8.470   0.250
   73GLOH    C3 9198   0.230   8.245   0.440
   73GLOH   H06 9199   0.126   8.274   0.426
   73GLOH   H07 9200   0.265   8.295   0.530
   73GLOH    O3 9201   0.241   8.102   0.453
   73GLOH   H01 9202   0.259   8.067   0.363
   74GLOH   H03 9203   2.446   4.670   0.210
   74GLOH    O1 9204   2.514   4.743   0.204
   74GLOH    C1 9205   2.518   4.786   0.067
   74GLOH   H02 9206   2.421   4.769   0.018
   74GLOH   H08 9207   2.591   4.728   0.011
   74GLOH    C2 9208   2.553   4.935   0.053
   74GLOH   H04 9209   2.570   4.956   2.887
   74GLOH    O2 9210   2.445   5.020   0.100
   74GLOH   H05 9211   2.412   4.986   0.188
   74GLOH    C3 9212   2.683   4.964   0.130
   74GLOH   H06 9213   2.758   4.892   0.097
   74GLOH   H07 9214   2.666   4.947   0.236
   74GLOH    O3 9215   2.730   5.099   0.109
   74GLOH   H01 9216   2.651   5.157   0.099
   75GLOH   H03 9217   4.908   9.270   0.279
   75GLOH    O1 9218   4.939   9.341   0.218
   75GLOH    C1 9219   4.865   9.462   0.244
   75GLOH   H02 9220   4.903   9.543   0.181
   75GLOH   H08 9221   4.880   9.493   0.347
   75GLOH    C2 9222   4.714   9.448   0.218
   75GLOH   H04 9223   4.673   9.383   0.297
   75GLOH    O2 9224   4.652   9.579   0.231
   75GLOH   H05 9225   4.592   9.596   0.153
   75GLOH    C3 9226   4.688   9.381   0.082
   75GLOH   H06 9227   4.734   9.282   0.084
   75GLOH   H07 9228   4.740   9.438   0.005
   75GLOH    O3 9229   4.548   9.369   0.049
   75GLOH   H01 9230   4.513   9.460   0.036
   76GLOH   H03 9231   3.295   1.604   2.795
   76GLOH    O1 9232   3.325   1.555   2.875
   76GLOH    C1 9233   3.470   1.557   2.878
   76GLOH   H02 9234   3.510   1.476   2.817
   76GLOH   H08 9235   3.505   1.540   0.039
   76GLOH    C2 9236   3.530   1.690   2.828
   76GLOH   H04 9237   3.639   1.679   2.826
   76GLOH    O2 9238   3.484   1.720   2.694
   76GLOH   H05 9239   3.527   1.657   2.631
   76GLOH    C3 9240   3.496   1.804   2.926
   76GLOH   H06 9241   3.388   1.809   2.938
   76GLOH   H07 9242   3.528   1.899   2.882
   76GLOH    O3 9243   3.561   1.783   0.111
   76GLOH   H01 9244   3.514   1.833   0.182
   77GLOH   H03 9245   7.961   7.909   2.197
   77GLOH    O1 9246   7.921   7.886   2.285
   77GLOH    C1 9247   7.827   7.779   2.263
   77GLOH   H02 9248   7.790   7.782   2.160
   77GLOH   H08 9249   7.741   7.791   2.328
   77GLOH    C2 9250   7.888   7.641   2.289
   77GLOH   H04 9251   7.904   7.631   2.398
   77GLOH    O2 9252   7.798   7.536   2.245
   77GLOH   H05 9253   7.837   7.450   2.271
   77GLOH    C3 9254   8.025   7.626   2.220
   77GLOH   H06 9255   8.089   7.708   2.251
   77GLOH   H07 9256   8.011   7.637   2.112
   77GLOH    O3 9257   8.088   7.500   2.250
   77GLOH   H01 9258   8.120   7.503   2.342
   78GLOH   H03 9259   0.623   7.910   1.787
   78GLOH    O1 9260   0.665   7.925   1.697
   78GLOH    C1 9261   0.601   8.042   1.644
   78GLOH   H02 9262   0.500   8.053   1.685
   78GLOH   H08 9263   0.588   8.032   1.536
   78GLOH    C2 9264   0.678   8.172   1.671
   78GLOH   H04 9265   0.616   8.256   1.636
   78GLOH    O2 9266   0.703   8.190   1.812
   78GLOH   H05 9267   0.790   8.146   1.836
   78GLOH    C3 9268   0.807   8.173   1.587
   78GLOH   H06 9269   0.780   8.146   1.485
   78GLOH   H07 9270   0.874   8.096   1.623
   78GLOH    O3 9271   0.872   8.301   1.587
   78GLOH   H01 9272   0.824   8.359   1.522
   79GLOH   H03 9273   4.599   1.495   2.485
   79GLOH    O1 9274   4.563   1.521   2.574
   79GLOH    C1 9275   4.606   1.427   2.675
   79GLOH   H02 9276   4.548   1.442   2.766
   79GLOH   H08 9277   4.710   1.446   2.701
   79GLOH    C2 9278   4.593   1.279   2.632
   79GLOH   H04 9279   4.489   1.262   2.599
   79GLOH    O2 9280   4.683   1.249   2.523
   79GLOH   H05 9281   4.670   1.315   2.450
   79GLOH    C3 9282   4.621   1.186   2.751
   79GLOH   H06 9283   4.721   1.206   2.788
   79GLOH   H07 9284   4.621   1.083   2.714
   79GLOH    O3 9285   4.525   1.199   2.858
   79GLOH   H01 9286   4.548   1.133   2.928
   80GLOH   H03 9287   9.943   5.457   0.726
   80GLOH    O1 9288   9.868   5.519   0.705
   80GLOH    C1 9289   9.886   5.564   0.570
   80GLOH   H02 9290   9.802   5.626   0.539
   80GLOH   H08 9291   9.886   5.479   0.502
   80GLOH    C2 9292   0.016   5.644   0.549
   80GLOH   H04 9293   0.099   5.580   0.584
   80GLOH    O2 9294   0.038   5.671   0.409
   80GLOH   H05 9295   9.964   5.729   0.376
   80GLOH    C3 9296   0.020   5.773   0.633
   80GLOH   H06 9297   0.122   5.811   0.629
   80GLOH   H07 9298   0.001   5.745   0.737
   80GLOH    O3 9299   9.928   5.878   0.595
   80GLOH   H01 9300   9.945   5.951   0.661
   81GLOH   H03 9301   3.195   2.272   2.336
   81GLOH    O1 9302   3.163   2.181   2.358
   81GLOH    C1 9303   3.224   2.141   2.482
   81GLOH   H02 9304   3.167   2.060   2.527
   81GLOH   H08 9305   3.223   2.223   2.553
   81GLOH    C2 9306   3.370   2.094   2.465
   81GLOH   H04 9307   3.372   2.015   2.388
   81GLOH    O2 9308   3.455   2.203   2.422
   81GLOH   H05 9309   3.456   2.209   2.322
   81GLOH    C3 9310   3.423   2.036   2.597
   81GLOH   H06 9311   3.425   2.115   2.671
   81GLOH   H07 9312   3.526   2.004   2.581
   81GLOH    O3 9313   3.343   1.926   2.643
   81GLOH   H01 9314   3.401   1.848   2.663
   82GLOH   H03 9315   1.500   8.002   2.364
   82GLOH    O1 9316   1.559   7.943   2.417
   82GLOH    C1 9317   1.543   7.980   2.555
   82GLOH   H02 9318   1.609   8.064   2.579
   82GLOH   H08 9319   1.572   7.897   2.620
   82GLOH    C2 9320   1.398   8.020   2.590
   82GLOH   H04 9321   1.333   7.934   2.570
   82GLOH    O2 9322   1.389   8.055   2.731
   82GLOH   H05 9323   1.396   7.972   2.787
   82GLOH    C3 9324   1.353   8.137   2.500
   82GLOH   H06 9325   1.409   8.227   2.530
   82GLOH   H07 9326   1.248   8.157   2.522
   82GLOH    O3 9327   1.371   8.114   2.359
   82GLOH   H01 9328   1.351   8.197   2.311
   83GLOH   H03 9329   1.386   9.876   2.156
   83GLOH    O1 9330   1.486   9.870   2.158
   83GLOH    C1 9331   1.526   9.761   2.073
   83GLOH   H02 9332   1.632   9.770   2.049
   83GLOH   H08 9333   1.472   9.764   1.978
   83GLOH    C2 9334   1.503   9.623   2.139
   83GLOH   H04 9335   1.396   9.614   2.164
   83GLOH    O2 9336   1.540   9.516   2.049
   83GLOH   H05 9337   1.500   9.531   1.959
   83GLOH    C3 9338   1.585   9.613   2.269
   83GLOH   H06 9339   1.691   9.610   2.244
   83GLOH   H07 9340   1.561   9.519   2.318
   83GLOH    O3 9341   1.558   9.723   2.357
   83GLOH   H01 9342   1.529   9.798   2.300
   84GLOH   H03 9343   8.401   4.362   0.536
   84GLOH    O1 9344   8.376   4.270   0.563
   84GLOH    C1 9345   8.408   4.253   0.703
   84GLOH   H02 9346   8.325   4.287   0.765
   84GLOH   H08 9347   8.495   4.314   0.730
   84GLOH    C2 9348   8.439   4.106   0.738
   84GLOH   H04 9349   8.528   4.075   0.681
   84GLOH    O2 9350   8.465   4.090   0.879
   84GLOH   H05 9351   8.535   4.153   0.911
   84GLOH    C3 9352   8.322   4.016   0.695
   84GLOH   H06 9353   8.235   4.041   0.756
   84GLOH   H07 9354   8.347   3.912   0.717
   84GLOH    O3 9355   8.292   4.032   0.556
   84GLOH   H01 9356   8.311   4.128   0.536
   85GLOH   H03 9357   3.907   5.609   1.875
   85GLOH    O1 9358   3.870   5.700   1.863
   85GLOH    C1 9359   3.726   5.690   1.861
   85GLOH   H02 9360   3.694   5.618   1.786
   85GLOH   H08 9361   3.683   5.786   1.832
   85GLOH    C2 9362   3.665   5.649   1.996
   85GLOH   H04 9363   3.558   5.636   1.979
   85GLOH    O2 9364   3.718   5.524   2.047
   85GLOH   H05 9365   3.791   5.490   1.987
   85GLOH    C3 9366   3.683   5.759   2.102
   85GLOH   H06 9367   3.789   5.783   2.109
   85GLOH   H07 9368   3.653   5.719   2.199
   85GLOH    O3 9369   3.606   5.877   2.072
   85GLOH   H01 9370   3.511   5.858   2.092
   86GLOH   H03 9371   8.402   7.996   0.542
   86GLOH    O1 9372   8.438   7.907   0.567
   86GLOH    C1 9373   8.373   7.863   0.689
   86GLOH   H02 9374   8.265   7.856   0.673
   86GLOH   H08 9375   8.388   7.936   0.768
   86GLOH    C2 9376   8.423   7.726   0.738
   86GLOH   H04 9377   8.412   7.655   0.655
   86GLOH    O2 9378   8.562   7.726   0.779
   86GLOH   H05 9379   8.596   7.633   0.767
   86GLOH    C3 9380   8.334   7.676   0.854
   86GLOH   H06 9381   8.299   7.762   0.911
   86GLOH   H07 9382   8.393   7.615   0.922
   86GLOH    O3 9383   8.222   7.598   0.807
   86GLOH   H01 9384   8.258   7.510   0.782
   87GLOH   H03 9385   1.215   5.312   1.588
   87GLOH    O1 9386   1.212   5.230   1.644
   87GLOH    C1 9387   1.347   5.188   1.669
   87GLOH   H02 9388   1.408   5.272   1.701
   87GLOH   H08 9389   1.391   5.148   1.578
   87GLOH    C2 9390   1.354   5.079   1.778
   87GLOH   H04 9391   1.296   4.992   1.743
   87GLOH    O2 9392   1.490   5.037   1.803
   87GLOH   H05 9393   1.490   4.968   1.875
   87GLOH    C3 9394   1.287   5.130   1.907
   87GLOH   H06 9395   1.286   5.048   1.980
   87GLOH   H07 9396   1.182   5.152   1.885
   87GLOH    O3 9397   1.352   5.246   1.963
   87GLOH   H01 9398   1.393   5.217   2.049
   88GLOH   H03 9399   5.224   2.992   1.049
   88GLOH    O1 9400   5.293   2.930   1.013
   88GLOH    C1 9401   5.299   2.951   0.871
   88GLOH   H02 9402   5.220   2.895   0.821
   88GLOH   H08 9403   5.394   2.915   0.831
   88GLOH    C2 9404   5.284   3.100   0.835
   88GLOH   H04 9405   5.367   3.155   0.882
   88GLOH    O2 9406   5.290   3.121   0.692
   88GLOH   H05 9407   5.383   3.096   0.660
   88GLOH    C3 9408   5.152   3.155   0.893
   88GLOH   H06 9409   5.069   3.098   0.849
   88GLOH   H07 9410   5.139   3.258   0.860
   88GLOH    O3 9411   5.148   3.147   1.036
   88GLOH   H01 9412   5.071   3.202   1.068
   89GLOH   H03 9413   4.637   0.951   0.136
   89GLOH    O1 9414   4.587   1.030   0.102
   89GLOH    C1 9415   4.582   1.127   0.210
   89GLOH   H02 9416   4.551   1.224   0.171
   89GLOH   H08 9417   4.681   1.140   0.254
   89GLOH    C2 9418   4.484   1.086   0.321
   89GLOH   H04 9419   4.386   1.071   0.276
   89GLOH    O2 9420   4.525   0.964   0.386
   89GLOH   H05 9421   4.569   0.904   0.320
   89GLOH    C3 9422   4.470   1.198   0.425
   89GLOH   H06 9423   4.570   1.228   0.458
   89GLOH   H07 9424   4.419   1.158   0.513
   89GLOH    O3 9425   4.399   1.311   0.373
   89GLOH   H01 9426   4.304   1.284   0.361
   90GLOH   H03 9427   4.330   2.816   2.912
   90GLOH    O1 9428   4.235   2.809   2.886
   90GLOH    C1 9429   4.211   2.685   2.817
   90GLOH   H02 9430   4.265   2.603   2.866
   90GLOH   H08 9431   4.248   2.690   2.715
   90GLOH    C2 9432   4.061   2.650   2.814
   90GLOH   H04 9433   4.025   2.640   2.917
   90GLOH    O2 9434   3.987   2.754   2.747
   90GLOH   H05 9435   4.022   2.839   2.780
   90GLOH    C3 9436   4.039   2.516   2.742
   90GLOH   H06 9437   4.065   2.528   2.637
   90GLOH   H07 9438   3.932   2.493   2.744
   90GLOH    O3 9439   4.114   2.408   2.800
   90GLOH   H01 9440   4.073   2.379   2.885
   91GLOH   H03 9441   4.108   3.271   2.184
   91GLOH    O1 9442   4.197   3.241   2.216
   91GLOH    C1 9443   4.297   3.308   2.136
   91GLOH   H02 9444   4.338   3.393   2.191
   91GLOH   H08 9445   4.254   3.348   2.045
   91GLOH    C2 9446   4.414   3.215   2.099
   91GLOH   H04 9447   4.374   3.127   2.047
   91GLOH    O2 9448   4.504   3.285   2.010
   91GLOH   H05 9449   4.461   3.286   1.919
   91GLOH    C3 9450   4.487   3.167   2.225
   91GLOH   H06 9451   4.535   3.252   2.273
   91GLOH   H07 9452   4.566   3.098   2.196
   91GLOH    O3 9453   4.395   3.104   2.315
   91GLOH   H01 9454   4.308   3.148   2.301
   92GLOH   H03 9455   4.885   2.661   0.610
   92GLOH    O1 9456   4.942   2.646   0.691
   92GLOH    C1 9457   4.862   2.573   0.787
   92GLOH   H02 9458   4.828   2.479   0.743
   92GLOH   H08 9459   4.773   2.629   0.812
   92GLOH    C2 9460   4.935   2.538   0.919
   92GLOH   H04 9461   4.861   2.489   0.984
   92GLOH    O2 9462   5.045   2.446   0.900
   92GLOH   H05 9463   5.099   2.476   0.822
   92GLOH    C3 9464   4.982   2.666   0.991
   92GLOH   H06 9465   5.053   2.717   0.927
   92GLOH   H07 9466   5.036   2.637   1.081
   92GLOH    O3 9467   4.872   2.753   1.024
   92GLOH   H01 9468   4.825   2.721   1.105
   93GLOH   H03 9469   4.602   9.422   1.977
   93GLOH    O1 9470   4.694   9.396   1.949
   93GLOH    C1 9471   4.708   9.254   1.966
   93GLOH   H02 9472   4.806   9.222   1.932
   93GLOH   H08 9473   4.635   9.202   1.903
   93GLOH    C2 9474   4.690   9.206   2.111
   93GLOH   H04 9475   4.599   9.252   2.153
   93GLOH    O2 9476   4.676   9.062   2.114
   93GLOH   H05 9477   4.751   9.022   2.169
   93GLOH    C3 9478   4.809   9.246   2.200
   93GLOH   H06 9479   4.900   9.207   2.155
   93GLOH   H07 9480   4.798   9.197   2.297
   93GLOH    O3 9481   4.824   9.387   2.222
   93GLOH   H01 9482   4.913   9.400   2.262
   94GLOH   H03 9483   4.805   0.489   1.392
   94GLOH    O1 9484   4.835   0.458   1.302
   94GLOH    C1 9485   4.771   0.333   1.269
   94GLOH   H02 9486   4.831   0.280   1.195
   94GLOH   H08 9487   4.674   0.352   1.223
   94GLOH    C2 9488   4.750   0.239   1.389
   94GLOH   H04 9489   4.682   0.288   1.460
   94GLOH    O2 9490   4.689   0.116   1.343
   94GLOH   H05 9491   4.607   0.136   1.288
   94GLOH    C3 9492   4.884   0.212   1.461
   94GLOH   H06 9493   4.932   0.308   1.481
   94GLOH   H07 9494   4.949   0.158   1.393
   94GLOH    O3 9495   4.870   0.140   1.584
   94GLOH   H01 9496   4.894   0.044   1.570
   95GLOH   H03 9497   3.222   6.750   2.127
   95GLOH    O1 9498   3.263   6.703   2.204
   95GLOH    C1 9499   3.312   6.802   2.296
   95GLOH   H02 9500   3.372   6.877   2.242
   95GLOH   H08 9501   3.379   6.756   2.368
   95GLOH    C2 9502   3.201   6.877   2.373
   95GLOH   H04 9503   3.249   6.964   2.421
   95GLOH    O2 9504   3.097   6.928   2.285
   95GLOH   H05 9505   3.109   6.888   2.195
   95GLOH    C3 9506   3.143   6.790   2.485
   95GLOH   H06 9507   3.104   6.698   2.441
   95GLOH   H07 9508   3.059   6.842   2.531
   95GLOH    O3 9509   3.242   6.759   2.585
   95GLOH   H01 9510   3.202   6.756   2.675
   96GLOH   H03 9511   3.137   6.796   2.919
   96GLOH    O1 9512   3.165   6.747   2.836
   96GLOH    C1 9513   3.269   6.654   2.870
   96GLOH   H02 9514   3.339   6.699   2.941
   96GLOH   H08 9515   3.328   6.629   2.781
   96GLOH    C2 9516   3.216   6.522   2.930
   96GLOH   H04 9517   3.135   6.485   2.866
   96GLOH    O2 9518   3.321   6.423   2.934
   96GLOH   H05 9519   3.286   6.339   2.899
   96GLOH    C3 9520   3.159   6.549   0.130
   96GLOH   H06 9521   3.067   6.607   0.118
   96GLOH   H07 9522   3.229   6.612   0.185
   96GLOH    O3 9523   3.131   6.430   0.207
   96GLOH   H01 9524   3.077   6.366   0.152
   97GLOH   H03 9525   5.011   3.183   0.165
   97GLOH    O1 9526   4.996   3.205   0.069
   97GLOH    C1 9527   5.121   3.238   0.007
   97GLOH   H02 9528   5.203   3.180   0.051
   97GLOH   H08 9529   5.145   3.343   0.024
   97GLOH    C2 9530   5.120   3.212   2.796
   97GLOH   H04 9531   5.223   3.223   2.759
   97GLOH    O2 9532   5.077   3.077   2.770
   97GLOH   H05 9533   5.003   3.059   2.831
   97GLOH    C3 9534   5.032   3.314   2.722
   97GLOH   H06 9535   4.930   3.307   2.762
   97GLOH   H07 9536   5.027   3.285   2.617
   97GLOH    O3 9537   5.080   3.449   2.734
   97GLOH   H01 9538   5.034   3.503   2.665
   98GLOH   H03 9539   2.808   8.191   1.232
   98GLOH    O1 9540   2.746   8.200   1.156
   98GLOH    C1 9541   2.812   8.266   1.046
   98GLOH   H02 9542   2.892   8.203   1.006
   98GLOH   H08 9543   2.859   8.359   1.080
   98GLOH    C2 9544   2.713   8.299   0.933
   98GLOH   H04 9545   2.636   8.365   0.976
   98GLOH    O2 9546   2.778   8.369   0.825
   98GLOH   H05 9547   2.818   8.304   0.760
   98GLOH    C3 9548   2.642   8.171   0.886
   98GLOH   H06 9549   2.717   8.102   0.845
   98GLOH   H07 9550   2.573   8.195   0.805
   98GLOH    O3 9551   2.573   8.111   0.996
   98GLOH   H01 9552   2.631   8.131   1.075
   99GLOH   H03 9553   1.169   6.699   2.928
   99GLOH    O1 9554   1.190   6.604   2.912
   99GLOH    C1 9555   1.225   6.584   2.774
   99GLOH   H02 9556   1.313   6.642   2.747
   99GLOH   H08 9557   1.144   6.617   2.709
   99GLOH    C2 9558   1.252   6.435   2.744
   99GLOH   H04 9559   1.164   6.377   2.773
   99GLOH    O2 9560   1.280   6.415   2.604
   99GLOH   H05 9561   1.197   6.406   2.553
   99GLOH    C3 9562   1.373   6.386   2.827
   99GLOH   H06 9563   1.381   6.278   2.815
   99GLOH   H07 9564   1.352   6.405   2.933
   99GLOH    O3 9565   1.494   6.451   2.787
   99GLOH   H01 9566   1.493   6.451   2.688
  100GLOH   H03 9567   8.185   7.112   1.295
  100GLOH    O1 9568   8.181   7.066   1.207
  100GLOH    C1 9569   8.123   7.153   1.107
  100GLOH   H02 9570   8.021   7.179   1.136
  100GLOH   H08 9571   8.116   7.101   1.012
  100GLOH    C2 9572   8.203   7.283   1.085
  100GLOH   H04 9573   8.165   7.331   0.993
  100GLOH    O2 9574   8.185   7.374   1.195
  100GLOH   H05 9575   8.267   7.376   1.253
  100GLOH    C3 9576   8.353   7.254   1.064
  100GLOH   H06 9577   8.392   7.208   1.155
  100GLOH   H07 9578   8.405   7.348   1.052
  100GLOH    O3 9579   8.376   7.168   0.951
  100GLOH   H01 9580   8.378   7.076   0.988
  101GLOH   H03 9581   2.143   6.586   2.104
  101GLOH    O1 9582   2.125   6.613   2.198
  101GLOH    C1 9583   2.241   6.681   2.250
  101GLOH   H02 9584   2.260   6.772   2.194
  101GLOH   H08 9585   2.329   6.618   2.241
  101GLOH    C2 9586   2.223   6.718   2.399
  101GLOH   H04 9587   2.205   6.626   2.456
  101GLOH    O2 9588   2.343   6.782   2.449
  101GLOH   H05 9589   2.340   6.786   2.546
  101GLOH    C3 9590   2.101   6.811   2.416
  101GLOH   H06 9591   2.122   6.906   2.367
  101GLOH   H07 9592   2.088   6.832   2.522
  101GLOH    O3 9593   1.983   6.750   2.362
  101GLOH   H01 9594   2.016   6.692   2.289
  102GLOH   H03 9595   4.513   2.031   0.584
  102GLOH    O1 9596   4.471   2.075   0.505
  102GLOH    C1 9597   4.536   2.203   0.494
  102GLOH   H02 9598   4.642   2.189   0.470
  102GLOH   H08 9599   4.532   2.257   0.589
  102GLOH    C2 9600   4.473   2.293   0.385
  102GLOH   H04 9601   4.369   2.313   0.413
  102GLOH    O2 9602   4.544   2.419   0.377
  102GLOH   H05 9603   4.639   2.407   0.408
  102GLOH    C3 9604   4.474   2.223   0.249
  102GLOH   H06 9605   4.577   2.205   0.218
  102GLOH   H07 9606   4.429   2.289   0.175
  102GLOH    O3 9607   4.402   2.099   0.256
  102GLOH   H01 9608   4.416   2.064   0.347
  103GLOH   H03 9609   1.157   1.196   0.811
  103GLOH    O1 9610   1.140   1.291   0.787
  103GLOH    C1 9611   1.012   1.332   0.841
  103GLOH   H02 9612   1.020   1.346   0.949
  103GLOH   H08 9613   0.937   1.255   0.824
  103GLOH    C2 9614   0.961   1.465   0.779
  103GLOH   H04 9615   1.046   1.535   0.777
  103GLOH    O2 9616   0.913   1.449   0.644
  103GLOH   H05 9617   0.990   1.420   0.587
  103GLOH    C3 9618   0.853   1.530   0.868
  103GLOH   H06 9619   0.819   1.621   0.818
  103GLOH   H07 9620   0.901   1.562   0.961
  103GLOH    O3 9621   0.741   1.445   0.897
  103GLOH   H01 9622   0.728   1.377   0.825
  104GLOH   H03 9623   2.642   3.218   2.435
  104GLOH    O1 9624   2.696   3.152   2.488
  104GLOH    C1 9625   2.603   3.076   2.567
  104GLOH   H02 9626   2.570   3.133   2.654
  104GLOH   H08 9627   2.651   2.986   2.605
  104GLOH    C2 9628   2.479   3.035   2.484
  104GLOH   H04 9629   2.513   2.974   2.399
  104GLOH    O2 9630   2.385   2.957   2.562
  104GLOH   H05 9631   2.433   2.883   2.605
  104GLOH    C3 9632   2.412   3.162   2.430
  104GLOH   H06 9633   2.380   3.223   2.514
  104GLOH   H07 9634   2.322   3.134   2.375
  104GLOH    O3 9635   2.500   3.237   2.344
  104GLOH   H01 9636   2.488   3.204   2.251
  105GLOH   H03 9637   3.508   8.658   1.039
  105GLOH    O1 9638   3.553   8.742   1.011
  105GLOH    C1 9639   3.663   8.767   1.101
  105GLOH   H02 9640   3.748   8.809   1.046
  105GLOH   H08 9641   3.698   8.675   1.147
  105GLOH    C2 9642   3.623   8.865   1.213
  105GLOH   H04 9643   3.542   8.819   1.270
  105GLOH    O2 9644   3.734   8.888   1.302
  105GLOH   H05 9645   3.808   8.936   1.254
  105GLOH    C3 9646   3.570   8.997   1.153
  105GLOH   H06 9647   3.647   9.041   1.090
  105GLOH   H07 9648   3.550   9.067   1.234
  105GLOH    O3 9649   3.450   8.972   1.076
  105GLOH   H01 9650   3.469   8.890   1.025
  106GLOH   H03 9651   1.785   4.449   2.318
  106GLOH    O1 9652   1.731   4.374   2.354
  106GLOH    C1 9653   1.708   4.278   2.249
  106GLOH   H02 9654   1.702   4.328   2.153
  106GLOH   H08 9655   1.612   4.228   2.265
  106GLOH    C2 9656   1.818   4.169   2.239
  106GLOH   H04 9657   1.913   4.217   2.267
  106GLOH    O2 9658   1.797   4.057   2.329
  106GLOH   H05 9659   1.716   4.006   2.299
  106GLOH    C3 9660   1.831   4.119   2.095
  106GLOH   H06 9661   1.732   4.097   2.055
  106GLOH   H07 9662   1.887   4.025   2.095
  106GLOH    O3 9663   1.897   4.217   2.012
  106GLOH   H01 9664   1.994   4.204   2.024
  107GLOH   H03 9665   8.362   5.010   2.923
  107GLOH    O1 9666   8.427   4.980   0.048
  107GLOH    C1 9667   8.498   5.096   0.100
  107GLOH   H02 9668   8.555   5.069   0.189
  107GLOH   H08 9669   8.427   5.173   0.130
  107GLOH    C2 9670   8.595   5.156   2.937
  107GLOH   H04 9671   8.537   5.183   2.848
  107GLOH    O2 9672   8.659   5.274   0.050
  107GLOH   H05 9673   8.704   5.319   2.914
  107GLOH    C3 9674   8.701   5.052   2.896
  107GLOH   H06 9675   8.651   4.959   2.870
  107GLOH   H07 9676   8.764   5.030   0.041
  107GLOH    O3 9677   8.782   5.095   2.785
  107GLOH   H01 9678   8.788   5.194   2.784
  108GLOH   H03 9679   3.766   3.275   1.391
  108GLOH    O1 9680   3.775   3.253   1.488
  108GLOH    C1 9681   3.644   3.211   1.532
  108GLOH   H02 9682   3.610   3.127   1.473
  108GLOH   H08 9683   3.572   3.291   1.518
  108GLOH    C2 9684   3.641   3.169   1.680
  108GLOH   H04 9685   3.720   3.095   1.697
  108GLOH    O2 9686   3.665   3.283   1.765
  108GLOH   H05 9687   3.673   3.250   1.860
  108GLOH    C3 9688   3.506   3.103   1.715
  108GLOH   H06 9689   3.426   3.174   1.693
  108GLOH   H07 9690   3.503   3.084   1.822
  108GLOH    O3 9691   3.484   2.980   1.643
  108GLOH   H01 9692   3.388   2.957   1.650
  109GLOH   H03 9693   4.602   3.895   2.002
  109GLOH    O1 9694   4.566   3.962   2.067
  109GLOH    C1 9695   4.439   3.915   2.119
  109GLOH   H02 9696   4.365   3.914   2.039
  109GLOH   H08 9697   4.403   3.984   2.195
  109GLOH    C2 9698   4.445   3.773   2.180
  109GLOH   H04 9699   4.479   3.704   2.102
  109GLOH    O2 9700   4.538   3.765   2.290
  109GLOH   H05 9701   4.503   3.816   2.365
  109GLOH    C3 9702   4.305   3.728   2.224
  109GLOH   H06 9703   4.312   3.626   2.263
  109GLOH   H07 9704   4.242   3.722   2.135
  109GLOH    O3 9705   4.246   3.815   2.322
  109GLOH   H01 9706   4.200   3.761   2.389
  110GLOH   H03 9707   0.097   5.535   2.653
  110GLOH    O1 9708   0.192   5.559   2.653
  110GLOH    C1 9709   0.260   5.491   2.546
  110GLOH   H02 9710   0.244   5.543   2.451
  110GLOH   H08 9711   0.221   5.390   2.533
  110GLOH    C2 9712   0.412   5.481   2.571
  110GLOH   H04 9713   0.427   5.419   2.661
  110GLOH    O2 9714   0.477   5.417   2.459
  110GLOH   H05 9715   0.571   5.402   2.481
  110GLOH    C3 9716   0.470   5.621   2.598
  110GLOH   H06 9717   0.456   5.683   2.510
  110GLOH   H07 9718   0.578   5.612   2.614
  110GLOH    O3 9719   0.408   5.681   2.713
  110GLOH   H01 9720   0.315   5.649   2.712
  111GLOH   H03 9721   1.437   6.166   1.179
  111GLOH    O1 9722   1.526   6.196   1.149
  111GLOH    C1 9723   1.599   6.085   1.094
  111GLOH   H02 9724   1.695   6.119   1.057
  111GLOH   H08 9725   1.546   6.042   1.010
  111GLOH    C2 9726   1.626   5.972   1.196
  111GLOH   H04 9727   1.530   5.932   1.230
  111GLOH    O2 9728   1.703   5.868   1.132
  111GLOH   H05 9729   1.672   5.778   1.164
  111GLOH    C3 9730   1.701   6.029   1.319
  111GLOH   H06 9731   1.647   6.116   1.356
  111GLOH   H07 9732   1.799   6.065   1.286
  111GLOH    O3 9733   1.717   5.933   1.425
  111GLOH   H01 9734   1.787   5.868   1.398
  112GLOH   H03 9735   2.425   4.311   1.683
  112GLOH    O1 9736   2.407   4.377   1.755
  112GLOH    C1 9737   2.266   4.372   1.786
  112GLOH   H02 9738   2.214   4.457   1.741
  112GLOH   H08 9739   2.252   4.380   1.894
  112GLOH    C2 9740   2.196   4.242   1.741
  112GLOH   H04 9741   2.235   4.161   1.804
  112GLOH    O2 9742   2.053   4.250   1.758
  112GLOH   H05 9743   2.016   4.335   1.723
  112GLOH    C3 9744   2.233   4.209   1.595
  112GLOH   H06 9745   2.198   4.290   1.531
  112GLOH   H07 9746   2.180   4.119   1.565
  112GLOH    O3 9747   2.375   4.191   1.579
  112GLOH   H01 9748   2.392   4.171   1.483
  113GLOH   H03 9749   1.963   3.089   2.071
  113GLOH    O1 9750   1.945   3.187   2.069
  113GLOH    C1 9751   2.064   3.254   2.025
  113GLOH   H02 9752   2.039   3.336   1.958
  113GLOH   H08 9753   2.128   3.186   1.968
  113GLOH    C2 9754   2.147   3.310   2.142
  113GLOH   H04 9755   2.167   3.227   2.211
  113GLOH    O2 9756   2.274   3.361   2.094
  113GLOH   H05 9757   2.304   3.441   2.148
  113GLOH    C3 9758   2.065   3.415   2.220
  113GLOH   H06 9759   2.129   3.458   2.297
  113GLOH   H07 9760   1.984   3.364   2.272
  113GLOH    O3 9761   2.011   3.520   2.137
  113GLOH   H01 9762   1.913   3.524   2.150
  114GLOH   H03 9763   9.987   8.877   0.242
  114GLOH    O1 9764   9.920   8.805   0.222
  114GLOH    C1 9765   9.862   8.760   0.346
  114GLOH   H02 9766   9.780   8.691   0.324
  114GLOH   H08 9767   9.818   8.844   0.399
  114GLOH    C2 9768   9.958   8.688   0.443
  114GLOH   H04 9769   0.045   8.753   0.460
  114GLOH    O2 9770   9.888   8.666   0.567
  114GLOH   H05 9771   9.803   8.617   0.548
  114GLOH    C3 9772   0.008   8.552   0.389
  114GLOH   H06 9773   9.921   8.490   0.367
  114GLOH   H07 9774   0.063   8.502   0.468
  114GLOH    O3 9775   0.091   8.564   0.272
  114GLOH   H01 9776   0.175   8.514   0.289
  115GLOH   H03 9777   8.059   7.452   1.186
  115GLOH    O1 9778   7.990   7.523   1.175
  115GLOH    C1 9779   8.027   7.597   1.057
  115GLOH   H02 9780   8.019   7.532   0.969
  115GLOH   H08 9781   8.131   7.629   1.063
  115GLOH    C2 9782   7.939   7.721   1.033
  115GLOH   H04 9783   7.835   7.688   1.016
  115GLOH    O2 9784   7.944   7.809   1.147
  115GLOH   H05 9785   7.947   7.754   1.229
  115GLOH    C3 9786   7.988   7.797   0.908
  115GLOH   H06 9787   8.083   7.844   0.932
  115GLOH   H07 9788   7.917   7.877   0.889
  115GLOH    O3 9789   8.000   7.714   0.791
  115GLOH   H01 9790   8.083   7.659   0.799
  116GLOH   H03 9791   8.896   4.674   1.876
  116GLOH    O1 9792   8.813   4.666   1.823
  116GLOH    C1 9793   8.793   4.526   1.795
  116GLOH   H02 9794   8.856   4.494   1.712
  116GLOH   H08 9795   8.690   4.508   1.766
  116GLOH    C2 9796   8.826   4.438   1.918
  116GLOH   H04 9797   8.756   4.465   1.998
  116GLOH    O2 9798   8.812   4.298   1.886
  116GLOH   H05 9799   8.809   4.245   1.971
  116GLOH    C3 9800   8.968   4.469   1.966
  116GLOH   H06 9801   9.036   4.450   1.883
  116GLOH   H07 9802   8.993   4.397   2.044
  116GLOH    O3 9803   8.986   4.604   2.015
  116GLOH   H01 9804   9.077   4.611   2.053
  117GLOH   H03 9805   9.456   3.938   0.219
  117GLOH    O1 9806   9.392   3.930   0.295
  117GLOH    C1 9807   9.265   3.984   0.252
  117GLOH   H02 9808   9.246   3.959   0.148
  117GLOH   H08 9809   9.269   4.093   0.257
  117GLOH    C2 9810   9.146   3.935   0.337
  117GLOH   H04 9811   9.171   3.951   0.443
  117GLOH    O2 9812   9.027   4.011   0.305
  117GLOH   H05 9813   8.981   3.976   0.223
  117GLOH    C3 9814   9.122   3.783   0.314
  117GLOH   H06 9815   9.181   3.752   0.228
  117GLOH   H07 9816   9.018   3.767   0.287
  117GLOH    O3 9817   9.156   3.702   0.428
  117GLOH   H01 9818   9.254   3.708   0.443
  118GLOH   H03 9819   1.142   5.902   0.804
  118GLOH    O1 9820   1.116   5.883   0.898
  118GLOH    C1 9821   1.116   6.008   0.969
  118GLOH   H02 9822   1.066   6.086   0.910
  118GLOH   H08 9823   1.218   6.042   0.987
  118GLOH    C2 9824   1.043   5.996   1.105
  118GLOH   H04 9825   1.094   5.919   1.164
  118GLOH    O2 9826   1.051   6.123   1.174
  118GLOH   H05 9827   1.145   6.132   1.208
  118GLOH    C3 9828   0.897   5.951   1.081
  118GLOH   H06 9829   0.899   5.866   1.013
  118GLOH   H07 9830   0.845   6.031   1.028
  118GLOH    O3 9831   0.826   5.916   1.201
  118GLOH   H01 9832   0.762   5.990   1.221
  119GLOH   H03 9833   8.466   6.167   1.986
  119GLOH    O1 9834   8.494   6.260   2.009
  119GLOH    C1 9835   8.398   6.316   2.101
  119GLOH   H02 9836   8.350   6.238   2.160
  119GLOH   H08 9837   8.319   6.368   2.047
  119GLOH    C2 9838   8.467   6.415   2.197
  119GLOH   H04 9839   8.515   6.492   2.136
  119GLOH    O2 9840   8.373   6.477   2.286
  119GLOH   H05 9841   8.426   6.515   2.359
  119GLOH    C3 9842   8.576   6.343   2.278
  119GLOH   H06 9843   8.636   6.281   2.211
  119GLOH   H07 9844   8.528   6.275   2.348
  119GLOH    O3 9845   8.660   6.436   2.348
  119GLOH   H01 9846   8.754   6.419   2.320
  120GLOH   H03 9847   0.932   4.469   2.472
  120GLOH    O1 9848   0.956   4.524   2.395
  120GLOH    C1 9849   0.891   4.473   2.277
  120GLOH   H02 9850   0.898   4.547   2.196
  120GLOH   H08 9851   0.784   4.458   2.296
  120GLOH    C2 9852   0.951   4.341   2.227
  120GLOH   H04 9853   0.944   4.266   2.307
  120GLOH    O2 9854   0.876   4.297   2.112
  120GLOH   H05 9855   0.841   4.204   2.127
  120GLOH    C3 9856   1.100   4.362   2.192
  120GLOH   H06 9857   1.147   4.418   2.273
  120GLOH   H07 9858   1.105   4.426   2.104
  120GLOH    O3 9859   1.172   4.240   2.169
  120GLOH   H01 9860   1.263   4.261   2.139
  121ACOH    H4 9861   8.986   0.008   1.056
  121ACOH    O2 9862   8.967   9.928   1.001
  121ACOH    C2 9863   9.084   9.876   0.959
  121ACOH    O1 9864   9.196   9.913   0.990
  121ACOH    C1 9865   9.060   9.759   0.872
  121ACOH    H1 9866   9.153   9.720   0.832
  121ACOH    H2 9867   8.995   9.789   0.789
  121ACOH    H3 9868   9.010   9.681   0.928
  122ACOH    H4 9869   3.256   6.776   0.390
  122ACOH    O2 9870   3.350   6.753   0.369
  122ACOH    C2 9871   3.402   6.693   0.478
  122ACOH    O1 9872   3.344   6.669   0.583
  122ACOH    C1 9873   3.544   6.656   0.458
  122ACOH    H1 9874   3.557   6.550   0.475
  122ACOH    H2 9875   3.606   6.712   0.527
  122ACOH    H3 9876   3.575   6.679   0.356
  123ACOH    H4 9877   4.859   4.377   1.452
  123ACOH    O2 9878   4.881   4.459   1.506
  123ACOH    C2 9879   4.783   4.549   1.484
  123ACOH    O1 9880   4.683   4.535   1.416
  123ACOH    C1 9881   4.811   4.672   1.562
  123ACOH    H1 9882   4.821   4.648   1.667
  123ACOH    H2 9883   4.730   4.744   1.550
  123ACOH    H3 9884   4.903   4.717   1.527
  124ACOH    H4 9885   4.907   1.453   2.036
  124ACOH    O2 9886   4.921   1.436   2.133
  124ACOH    C2 9887   4.928   1.302   2.148
  124ACOH    O1 9888   4.899   1.218   2.064
  124ACOH    C1 9889   4.967   1.266   2.287
  124ACOH    H1 9890   4.965   1.158   2.301
  124ACOH    H2 9891   4.897   1.311   2.357
  124ACOH    H3 9892   5.067   1.303   2.308
  125ACOH    H4 9893   7.852   1.888   1.229
  125ACOH    O2 9894   7.812   1.976   1.249
  125ACOH    C2 9895   7.891   2.036   1.340
  125ACOH    O1 9896   7.989   1.989   1.395
  125ACOH    C1 9897   7.841   2.173   1.370
  125ACOH    H1 9898   7.741   2.167   1.412
  125ACOH    H2 9899   7.837   2.230   1.278
  125ACOH    H3 9900   7.907   2.224   1.440
  126ACOH    H4 9901   8.320   6.469   0.403
  126ACOH    O2 9902   8.390   6.443   0.336
  126ACOH    C2 9903   8.323   6.374   0.242
  126ACOH    O1 9904   8.230   6.298   0.264
  126ACOH    C1 9905   8.403   6.366   0.118
  126ACOH    H1 9906   8.465   6.277   0.122
  126ACOH    H2 9907   8.467   6.453   0.107
  126ACOH    H3 9908   8.338   6.358   0.032
  127ACOH    H4 9909   2.939   7.195   1.071
  127ACOH    O2 9910   3.024   7.210   1.022
  127ACOH    C2 9911   3.042   7.343   1.011
  127ACOH    O1 9912   2.970   7.430   1.057
  127ACOH    C1 9913   3.169   7.373   0.940
  127ACOH    H1 9914   3.193   7.479   0.946
  127ACOH    H2 9915   3.158   7.346   0.836
  127ACOH    H3 9916   3.249   7.315   0.983
  128ACOH    H4 9917   8.572   4.726   1.152
  128ACOH    O2 9918   8.490   4.673   1.144
  128ACOH    C2 9919   8.505   4.595   1.036
  128ACOH    O1 9920   8.588   4.608   0.947
  128ACOH    C1 9921   8.394   4.497   1.027
  128ACOH    H1 9922   8.403   4.427   1.110
  128ACOH    H2 9923   8.398   4.442   0.934
  128ACOH    H3 9924   8.299   4.549   1.035
  129ACOH    H4 9925   3.883   6.461   0.089
  129ACOH    O2 9926   3.955   6.505   0.143
  129ACOH    C2 9927   3.912   6.509   0.270
  129ACOH    O1 9928   3.808   6.464   0.314
  129ACOH    C1 9929   4.013   6.576   0.355
  129ACOH    H1 9930   4.108   6.523   0.347
  129ACOH    H2 9931   3.982   6.576   0.459
  129ACOH    H3 9932   4.027   6.678   0.322
  130ACOH    H4 9933   7.824   8.348   1.294
  130ACOH    O2 9934   7.768   8.357   1.375
  130ACOH    C2 9935   7.792   8.478   1.428
  130ACOH    O1 9936   7.848   8.572   1.375
  130ACOH    C1 9937   7.728   8.488   1.561
  130ACOH    H1 9938   7.622   8.465   1.552
  130ACOH    H2 9939   7.740   8.587   1.604
  130ACOH    H3 9940   7.773   8.415   1.628
  131ACOH    H4 9941   2.650   7.566   0.865
  131ACOH    O2 9942   2.651   7.600   0.771
  131ACOH    C2 9943   2.557   7.529   0.706
  131ACOH    O1 9944   2.451   7.493   0.753
  131ACOH    C1 9945   2.576   7.538   0.559
  131ACOH    H1 9946   2.510   7.614   0.518
  131ACOH    H2 9947   2.553   7.443   0.513
  131ACOH    H3 9948   2.679   7.564   0.536
  132ACOH    H4 9949   5.839   9.266   0.990
  132ACOH    O2 9950   5.837   9.339   1.054
  132ACOH    C2 9951   5.830   9.452   0.981
  132ACOH    O1 9952   5.830   9.459   0.860
  132ACOH    C1 9953   5.825   9.570   1.070
  132ACOH    H1 9954   5.913   9.570   1.135
  132ACOH    H2 9955   5.736   9.565   1.132
  132ACOH    H3 9956   5.824   9.662   1.012
  133ACOH    H4 9957   0.658   0.371   0.496
  133ACOH    O2 9958   0.704   0.300   0.550
  133ACOH    C2 9959   0.611   0.247   0.632
  133ACOH    O1 9960   0.491   0.262   0.624
  133ACOH    C1 9961   0.671   0.148   0.725
  133ACOH    H1 9962   0.639   0.048   0.699
  133ACOH    H2 9963   0.639   0.170   0.827
  133ACOH    H3 9964   0.780   0.153   0.721
  134ACOH    H4 9965   8.312   0.835   2.001
  134ACOH    O2 9966   8.310   0.790   1.912
  134ACOH    C2 9967   8.208   0.703   1.919
  134ACOH    O1 9968   8.106   0.717   1.984
  134ACOH    C1 9969   8.220   0.601   1.813
  134ACOH    H1 9970   8.124   0.552   1.794
  134ACOH    H2 9971   8.291   0.526   1.844
  134ACOH    H3 9972   8.256   0.646   1.721
  135ACOH    H4 9973   0.495   8.743   1.169
  135ACOH    O2 9974   0.455   8.834   1.173
  135ACOH    C2 9975   0.537   8.905   1.252
  135ACOH    O1 9976   0.607   8.859   1.341
  135ACOH    C1 9977   0.513   9.050   1.237
  135ACOH    H1 9978   0.562   9.106   1.316
  135ACOH    H2 9979   0.406   9.070   1.242
  135ACOH    H3 9980   0.550   9.083   1.141
  136ACOH    H4 9981   5.077   2.087   1.069
  136ACOH    O2 9982   5.095   2.029   1.147
  136ACOH    C2 9983   5.039   1.910   1.121
  136ACOH    O1 9984   4.969   1.882   1.026
  136ACOH    C1 9985   5.068   1.811   1.228
  136ACOH    H1 9986   5.135   1.853   1.302
  136ACOH    H2 9987   5.113   1.722   1.184
  136ACOH    H3 9988   4.975   1.783   1.276
  137ACOH    H4 9989   0.188   7.281   1.164
  137ACOH    O2 9990   0.103   7.313   1.204
  137ACOH    C2 9991   0.122   7.313   1.337
  137ACOH    O1 9992   0.216   7.267   1.399
  137ACOH    C1 9993   0.005   7.373   1.404
  137ACOH    H1 9994   9.992   7.475   1.371
  137ACOH    H2 9995   0.019   7.373   1.512
  137ACOH    H3 9996   9.916   7.316   1.381
  138ACOH    H4 9997   5.109   9.173   2.405
  138ACOH    O2 9998   5.198   9.211   2.406
  138ACOH    C2 9999   5.196   9.320   2.326
  138ACOH    O110000   5.096   9.374   2.282
  138ACOH    C110001   5.331   9.375   2.304
  138ACOH    H110002   5.406   9.318   2.359
  138ACOH    H210003   5.335   9.478   2.336
  138ACOH    H310004   5.356   9.371   2.198
  139ACOH    H410005   7.727   7.522   2.107
  139ACOH    O210006   7.683   7.488   2.025
  139ACOH    C210007   7.733   7.555   1.921
  139ACOH    O110008   7.815   7.645   1.923
  139ACOH    C110009   7.673   7.505   1.794
  139ACOH    H110010   7.714   7.558   1.709
  139ACOH    H210011   7.566   7.521   1.797
  139ACOH    H310012   7.693   7.399   1.785
  140ACOH    H410013   5.638   2.645   0.336
  140ACOH    O210014   5.683   2.710   0.276
  140ACOH    C210015   5.697   2.823   0.348
  140ACOH    O110016   5.655   2.843   0.460
  140ACOH    C110017   5.770   2.926   0.270
  140ACOH    H110018   5.713   2.949   0.181
  140ACOH    H210019   5.867   2.887   0.241
  140ACOH    H310020   5.783   3.016   0.329
  141ACOH    H410021   1.464   8.212   0.176
  141ACOH    O210022   1.506   8.221   0.265
  141ACOH    C210023   1.409   8.214   0.358
  141ACOH    O110024   1.290   8.192   0.337
  141ACOH    C110025   1.462   8.231   0.495
  141ACOH    H110026   1.445   8.140   0.553
  141ACOH    H210027   1.412   8.314   0.545
  141ACOH    H310028   1.569   8.251   0.493
  142ACOH    H410029   5.493   9.579   2.035
  142ACOH    O210030   5.540   9.493   2.054
  142ACOH    C210031   5.646   9.488   1.971
  142ACOH    O110032   5.680   9.570   1.888
  142ACOH    C110033   5.724   9.365   1.995
  142ACOH    H110034   5.752   9.359   2.099
  142ACOH    H210035   5.814   9.363   1.934
  142ACOH    H310036   5.663   9.279   1.969
  143ACOH    H410037   7.538   8.866   2.031
  143ACOH    O210038   7.488   8.783   2.056
  143ACOH    C210039   7.575   8.680   2.050
  143ACOH    O110040   7.691   8.683   2.011
  143ACOH    C110041   7.510   8.555   2.095
  143ACOH    H110042   7.424   8.534   2.031
  143ACOH    H210043   7.475   8.567   2.197
  143ACOH    H310044   7.579   8.471   2.091
  144ACOH    H410045   8.078   7.482   0.542
  144ACOH    O210046   8.057   7.421   0.618
  144ACOH    C210047   8.118   7.304   0.594
  144ACOH    O110048   8.196   7.278   0.504
  144ACOH    C110049   8.085   7.204   0.699
  144ACOH    H110050   8.011   7.245   0.767
  144ACOH    H210051   8.174   7.179   0.755
  144ACOH    H310052   8.045   7.115   0.652
  145ACOH    H410053   1.168   1.782   1.288
  145ACOH    O210054   1.129   1.862   1.245
  145ACOH    C210055   1.086   1.824   1.123
  145ACOH    O110056   1.101   1.715   1.070
  145ACOH    C110057   1.020   1.936   1.051
  145ACOH    H110058   0.920   1.907   1.021
  145ACOH    H210059   1.078   1.962   0.963
  145ACOH    H310060   1.013   2.024   1.115
  146ACOH    H410061   4.546   8.805   0.432
  146ACOH    O210062   4.538   8.728   0.370
  146ACOH    C210063   4.642   8.646   0.394
  146ACOH    O110064   4.736   8.668   0.468
  146ACOH    C110065   4.634   8.521   0.314
  146ACOH    H110066   4.632   8.435   0.380
  146ACOH    H210067   4.720   8.515   0.249
  146ACOH    H310068   4.544   8.521   0.253
  147ACOH    H410069   5.348   2.802   1.072
  147ACOH    O210070   5.372   2.724   1.129
  147ACOH    C210071   5.396   2.619   1.049
  147ACOH    O110072   5.412   2.620   0.928
  147ACOH    C110073   5.416   2.495   1.128
  147ACOH    H110074   5.351   2.417   1.091
  147ACOH    H210075   5.393   2.513   1.233
  147ACOH    H310076   5.520   2.462   1.120
  148ACOH    H410077   4.901   2.158   0.627
  148ACOH    O210078   4.949   2.174   0.541
  148ACOH    C210079   4.939   2.061   0.469
  148ACOH    O110080   4.877   1.960   0.498
  148ACOH    C110081   5.013   2.072   0.341
  148ACOH    H110082   5.090   1.996   0.336
  148ACOH    H210083   5.059   2.171   0.331
  148ACOH    H310084   4.944   2.058   0.258
  149ACOH    H410085   7.506   0.911   0.481
  149ACOH    O210086   7.418   0.902   0.525
  149ACOH    C210087   7.403   1.008   0.607
  149ACOH    O110088   7.473   1.108   0.612
  149ACOH    C110089   7.277   0.999   0.684
  149ACOH    H110090   7.225   0.907   0.662
  149ACOH    H210091   7.213   1.083   0.660
  149ACOH    H310092   7.300   1.001   0.790
  150ACOH    H410093   4.675   8.424   2.224
  150ACOH    O210094   4.722   8.427   2.139
  150ACOH    C210095   4.626   8.431   2.045
  150ACOH    O110096   4.506   8.422   2.064
  150ACOH    C110097   4.684   8.451   1.910
  150ACOH    H110098   4.606   8.455   1.834
  150ACOH    H210099   4.751   8.368   1.887
  150ACOH    H310100   4.740   8.544   1.908
  151ACOH    H410101   5.218   3.043   0.573
  151ACOH    O210102   5.187   3.010   0.485
  151ACOH    C210103   5.209   2.877   0.483
  151ACOH    O110104   5.264   2.811   0.569
  151ACOH    C110105   5.166   2.817   0.354
  151ACOH    H110106   5.253   2.779   0.301
  151ACOH    H210107   5.116   2.890   0.292
  151ACOH    H310108   5.098   2.735   0.374
  152ACOH    H410109   8.358   7.743   1.296
  152ACOH    O210110   8.416   7.668   1.262
  152ACOH    C210111   8.491   7.722   1.164
  152ACOH    O110112   8.479   7.833   1.116
  152ACOH    C110113   8.592   7.626   1.114
  152ACOH    H110114   8.692   7.659   1.143
  152ACOH    H210115   8.589   7.621   1.006
  152ACOH    H310116   8.575   7.527   1.154
  153ACOH    H410117   8.846   4.767   1.381
  153ACOH    O210118   8.829   4.865   1.376
  153ACOH    C210119   8.779   4.887   1.253
  153ACOH    O110120   8.720   4.805   1.184
  153ACOH    C110121   8.775   5.032   1.224
  153ACOH    H110122   8.730   5.086   1.307
  153ACOH    H210123   8.718   5.052   1.133
  153ACOH    H310124   8.876   5.069   1.210
  154ACOH    H410125   4.669   0.311   0.207
  154ACOH    O210126   4.703   0.239   0.147
  154ACOH    C210127   4.606   0.216   0.056
  154ACOH    O110128   4.505   0.281   0.038
  154ACOH    C110129   4.645   0.102   2.911
  154ACOH    H110130   4.741   0.122   2.866
  154ACOH    H210131   4.571   0.086   2.833
  154ACOH    H310132   4.652   0.012   0.031
  155ACOH    H410133   3.206   7.687   2.088
  155ACOH    O210134   3.173   7.617   2.025
  155ACOH    C210135   3.276   7.533   2.007
  155ACOH    O110136   3.384   7.536   2.063
  155ACOH    C110137   3.240   7.427   1.910
  155ACOH    H110138   3.323   7.359   1.895
  155ACOH    H210139   3.214   7.472   1.814
  155ACOH    H310140   3.155   7.371   1.947
  156ACOH    H410141   3.856   8.457   1.082
  156ACOH    O210142   3.866   8.409   1.169
  156ACOH    C210143   3.994   8.424   1.208
  156ACOH    O110144   4.071   8.510   1.171
  156ACOH    C110145   4.026   8.337   1.324
  156ACOH    H110146   3.948   8.263   1.339
  156ACOH    H210147   4.034   8.397   1.414
  156ACOH    H310148   4.120   8.286   1.307
  157ACOH    H410149   4.306   9.709   1.438
  157ACOH    O210150   4.313   9.728   1.340
  157ACOH    C210151   4.443   9.713   1.309
  157ACOH    O110152   4.527   9.656   1.376
  157ACOH    C110153   4.470   9.764   1.173
  157ACOH    H110154   4.573   9.744   1.144
  157ACOH    H210155   4.453   9.871   1.169
  157ACOH    H310156   4.404   9.715   1.102
  158ACOH    H410157   3.323   8.163   1.118
  158ACOH    O210158   3.345   8.125   1.028
  158ACOH    C210159   3.476   8.094   1.030
  158ACOH    O110160   3.551   8.104   1.125
  158ACOH    C110161   3.523   8.046   0.898
  158ACOH    H110162   3.562   7.945   0.908
  158ACOH    H210163   3.603   8.111   0.862
  158ACOH    H310164   3.443   8.046   0.825
  159ACOH    H410165   2.777   7.013   0.671
  159ACOH    O210166   2.868   7.025   0.709
  159ACOH    C210167   2.900   6.909   0.769
  159ACOH    O110168   2.822   6.824   0.807
  159ACOH    C110169   3.044   6.908   0.806
  159ACOH    H110170   3.104   6.903   0.716
  159ACOH    H210171   3.067   6.822   0.869
  159ACOH    H310172   3.069   6.999   0.860
  160ACOH    H410173   3.626   7.631   0.043
  160ACOH    O210174   3.711   7.580   0.031
  160ACOH    C210175   3.699   7.467   0.103
  160ACOH    O110176   3.610   7.439   0.181
  160ACOH    C110177   3.815   7.377   0.081
  160ACOH    H110178   3.865   7.358   0.175
  160ACOH    H210179   3.885   7.422   0.011
  160ACOH    H310180   3.780   7.283   0.039
  161ACOH    H410181   4.812   0.160   1.717
  161ACOH    O210182   4.782   0.164   1.812
  161ACOH    C210183   4.741   0.290   1.836
  161ACOH    O110184   4.715   0.375   1.753
  161ACOH    C110185   4.717   0.310   1.981
  161ACOH    H110186   4.611   0.327   1.997
  161ACOH    H210187   4.773   0.396   2.015
  161ACOH    H310188   4.747   0.222   2.037
  162ACOH    H410189   4.554   2.212   1.128
  162ACOH    O210190   4.470   2.248   1.090
  162ACOH    C210191   4.496   2.272   0.959
  162ACOH    O110192   4.603   2.264   0.903
  162ACOH    C110193   4.372   2.315   0.890
  162ACOH    H110194   4.333   2.404   0.938
  162ACOH    H210195   4.297   2.237   0.896
  162ACOH    H310196   4.391   2.337   0.786
  163ACOH    H410197   4.664   9.626   0.374
  163ACOH    O210198   4.685   9.651   0.468
  163ACOH    C210199   4.600   9.750   0.501
  163ACOH    O110200   4.516   9.803   0.431
  163ACOH    C110201   4.627   9.796   0.640
  163ACOH    H110202   4.731   9.825   0.649
  163ACOH    H210203   4.607   9.715   0.709
  163ACOH    H310204   4.564   9.881   0.666
  164ACOH    H410205   7.960   2.642   0.726
  164ACOH    O210206   7.918   2.731   0.746
  164ACOH    C210207   7.969   2.819   0.659
  164ACOH    O110208   8.032   2.795   0.557
  164ACOH    C110209   7.928   2.958   0.693
  164ACOH    H110210   7.876   2.959   0.789
  164ACOH    H210211   7.862   2.997   0.616
  164ACOH    H310212   8.016   3.022   0.701
  165ACOH    H410213   8.534   5.156   2.058
  165ACOH    O210214   8.459   5.221   2.070
  165ACOH    C210215   8.474   5.317   1.978
  165ACOH    O110216   8.568   5.333   1.902
  165ACOH    C110217   8.362   5.415   1.983
  165ACOH    H110218   8.401   5.513   2.012
  165ACOH    H210219   8.288   5.384   2.056
  165ACOH    H310220   8.315   5.422   1.886
  166ACOH    H410221   3.759   8.258   1.497
  166ACOH    O210222   3.746   8.170   1.452
  166ACOH    C210223   3.641   8.111   1.513
  166ACOH    O110224   3.583   8.149   1.612
  166ACOH    C110225   3.605   7.982   1.449
  166ACOH    H110226   3.639   7.900   1.511
  166ACOH    H210227   3.651   7.975   1.350
  166ACOH    H310228   3.498   7.975   1.438
  167ACOH    H410229   8.392   6.500   1.496
  167ACOH    O210230   8.294   6.482   1.492
  167ACOH    C210231   8.267   6.399   1.594
  167ACOH    O110232   8.342   6.368   1.685
  167ACOH    C110233   8.126   6.354   1.592
  167ACOH    H110234   8.122   6.246   1.603
  167ACOH    H210235   8.079   6.381   1.498
  167ACOH    H310236   8.072   6.401   1.674
  168ACOH    H410237   4.922   4.530   0.251
  168ACOH    O210238   4.918   4.543   0.349
  168ACOH    C210239   4.804   4.485   0.391
  168ACOH    O110240   4.744   4.396   0.332
  168ACOH    C110241   4.778   4.515   0.533
  168ACOH    H110242   4.836   4.602   0.565
  168ACOH    H210243   4.807   4.430   0.594
  168ACOH    H310244   4.673   4.536   0.547
  169ACOH    H410245   8.146   7.603   1.700
  169ACOH    O210246   8.091   7.561   1.628
  169ACOH    C210247   8.041   7.447   1.680
  169ACOH    O110248   8.063   7.400   1.790
  169ACOH    C110249   7.956   7.379   1.580
  169ACOH    H110250   7.917   7.286   1.620
  169ACOH    H210251   8.016   7.356   1.492
  169ACOH    H310252   7.874   7.444   1.551
  170ACOH    H410253   1.662   4.789   1.146
  170ACOH    O210254   1.634   4.791   1.242
  170ACOH    C210255   1.643   4.664   1.286
  170ACOH    O110256   1.677   4.566   1.222
  170ACOH    C110257   1.608   4.654   1.430
  170ACOH    H110258   1.524   4.585   1.441
  170ACOH    H210259   1.579   4.751   1.469
  170ACOH    H310260   1.693   4.616   1.486
  171ACOH    H410261   2.984   1.610   0.349
  171ACOH    O210262   2.969   1.698   0.394
  171ACOH    C210263   2.857   1.680   0.468
  171ACOH    O110264   2.769   1.599   0.446
  171ACOH    C110265   2.833   1.796   0.557
  171ACOH    H110266   2.792   1.761   0.652
  171ACOH    H210267   2.763   1.865   0.511
  171ACOH    H310268   2.926   1.848   0.578
  172ACOH    H410269   4.332   8.545   0.537
  172ACOH    O210270   4.395   8.491   0.593
  172ACOH    C210271   4.329   8.378   0.626
  172ACOH    O110272   4.224   8.338   0.579
  172ACOH    C110273   4.409   8.298   0.721
  172ACOH    H110274   4.430   8.359   0.809
  172ACOH    H210275   4.503   8.269   0.675
  172ACOH    H310276   4.355   8.209   0.752
  173ACOH    H410277   8.476   4.328   0.189
  173ACOH    O210278   8.411   4.260   0.160
  173ACOH    C210279   8.478   4.146   0.135
  173ACOH    O110280   8.599   4.134   0.120
  173ACOH    C110281   8.385   4.034   0.109
  173ACOH    H110282   8.393   4.002   0.005
  173ACOH    H210283   8.282   4.065   0.128
  173ACOH    H310284   8.408   3.950   0.174
  174ACOH    H410285   4.385   8.690   0.905
  174ACOH    O210286   4.453   8.619   0.894
  174ACOH    C210287   4.545   8.668   0.809
  174ACOH    O110288   4.551   8.782   0.768
  174ACOH    C110289   4.654   8.570   0.787
  174ACOH    H110290   4.737   8.617   0.735
  174ACOH    H210291   4.617   8.489   0.725
  174ACOH    H310292   4.688   8.530   0.882
  175ACOH    H410293   2.322   9.671   2.124
  175ACOH    O210294   2.401   9.637   2.173
  175ACOH    C210295   2.507   9.704   2.122
  175ACOH    O110296   2.503   9.813   2.070
  175ACOH    C110297   2.635   9.643   2.163
  175ACOH    H110298   2.700   9.633   2.076
  175ACOH    H210299   2.619   9.544   2.206
  175ACOH    H310300   2.684   9.706   2.237
  176ACOH    H410301   8.044   8.233   0.205
  176ACOH    O210302   8.040   8.280   0.292
  176ACOH    C210303   8.045   8.412   0.266
  176ACOH    O110304   8.027   8.465   0.158
  176ACOH    C110305   8.075   8.487   0.390
  176ACOH    H110306   8.094   8.592   0.368
  176ACOH    H210307   8.162   8.445   0.439
  176ACOH    H310308   7.990   8.481   0.457
  177ACOH    H410309   3.000   7.463   1.569
  177ACOH    O210310   2.990   7.389   1.503
  177ACOH    C210311   3.031   7.275   1.562
  177ACOH    O110312   3.067   7.260   1.677
  177ACOH    C110313   3.020   7.162   1.467
  177ACOH    H110314   3.050   7.069   1.514
  177ACOH    H210315   3.083   7.180   1.380
  177ACOH    H310316   2.917   7.153   1.433
  178ACOH    H410317   9.836   0.562   0.786
  178ACOH    O210318   9.918   0.574   0.841
  178ACOH    C210319   0.022   0.535   0.765
  178ACOH    O110320   0.018   0.505   0.647
  178ACOH    C110321   0.150   0.547   0.838
  178ACOH    H110322   0.133   0.570   0.943
  178ACOH    H210323   0.210   0.626   0.794
  178ACOH    H310324   0.206   0.454   0.831
  179ACOH    H410325   8.289   2.241   0.871
  179ACOH    O210326   8.252   2.332   0.884
  179ACOH    C210327   8.264   2.360   1.015
  179ACOH    O110328   8.285   2.280   1.104
  179ACOH    C110329   8.226   2.500   1.045
  179ACOH    H110330   8.216   2.558   0.953
  179ACOH    H210331   8.303   2.547   1.107
  179ACOH    H310332   8.132   2.503   1.098
  180ACOH    H410333   8.550   4.448   2.181
  180ACOH    O210334   8.538   4.532   2.233
  180ACOH    C210335   8.638   4.538   2.323
  180ACOH    O110336   8.724   4.453   2.343
  180ACOH    C110337   8.624   4.659   2.407
  180ACOH    H110338   8.639   4.747   2.345
  180ACOH    H210339   8.698   4.659   2.487
  180ACOH    H310340   8.524   4.662   2.450
  181ACOH    H410341   5.046   8.903   1.932
  181ACOH    O210342   5.127   8.954   1.903
  181ACOH    C210343   5.185   9.004   2.013
  181ACOH    O110344   5.130   9.024   2.120
  181ACOH    C110345   5.321   9.053   1.983
  181ACOH    H110346   5.362   9.108   2.068
  181ACOH    H210347   5.319   9.119   1.897
  181ACOH    H310348   5.386   8.969   1.962
  182ACOH    H410349   8.464   6.058   0.030
  182ACOH    O210350   8.372   6.080   0.001
  182ACOH    C210351   8.292   5.984   0.051
  182ACOH    O110352   8.324   5.870   0.075
  182ACOH    C110353   8.150   6.027   0.052
  182ACOH    H110354   8.093   5.969   2.921
  182ACOH    H210355   8.141   6.132   0.029
  182ACOH    H310356   8.109   6.010   0.152
  183ACOH    H410357   8.124   3.182   0.507
  183ACOH    O210358   8.142   3.259   0.566
  183ACOH    C210359   8.225   3.341   0.499
  183ACOH    O110360   8.264   3.326   0.384
  183ACOH    C110361   8.269   3.457   0.581
  183ACOH    H110362   8.244   3.550   0.531
  183ACOH    H210363   8.376   3.452   0.595
  183ACOH    H310364   8.220   3.455   0.678
  184ACOH    H410365   8.689   1.168   2.723
  184ACOH    O210366   8.712   1.226   2.798
  184ACOH    C210367   8.787   1.152   2.882
  184ACOH    O110368   8.840   1.046   2.855
  184ACOH    C110369   8.819   1.227   0.064
  184ACOH    H110370   8.806   1.162   0.150
  184ACOH    H210371   8.752   1.313   0.075
  184ACOH    H310372   8.922   1.262   0.061
  185ACOH    H410373   1.908   2.590   0.261
  185ACOH    O210374   1.975   2.523   0.293
  185ACOH    C210375   1.917   2.403   0.273
  185ACOH    O110376   1.816   2.382   0.208
  185ACOH    C110377   2.000   2.293   0.327
  185ACOH    H110378   2.081   2.331   0.389
  185ACOH    H210379   2.041   2.235   0.245
  185ACOH    H310380   1.937   2.228   0.388
  186ACOH    H410381   4.406   1.043   1.255
  186ACOH    O210382   4.420   1.101   1.335
  186ACOH    C210383   4.385   1.225   1.298
  186ACOH    O110384   4.349   1.262   1.188
  186ACOH    C110385   4.399   1.319   1.412
  186ACOH    H110386   4.500   1.314   1.452
  186ACOH    H210387   4.328   1.292   1.491
  186ACOH    H310388   4.378   1.421   1.381
  187ACOH    H410389   8.936   5.495   0.672
  187ACOH    O210390   8.850   5.535   0.640
  187ACOH    C210391   8.806   5.620   0.735
  187ACOH    O110392   8.865   5.654   0.836
  187ACOH    C110393   8.676   5.677   0.694
  187ACOH    H110394   8.686   5.728   0.598
  187ACOH    H210395   8.640   5.748   0.768
  187ACOH    H310396   8.603   5.598   0.682
  188ACOH    H410397   4.977   0.511   1.269
  188ACOH    O210398   5.058   0.567   1.254
  188ACOH    C210399   5.108   0.593   1.376
  188ACOH    O110400   5.099   0.522   1.474
  188ACOH    C110401   5.202   0.708   1.372
  188ACOH    H110402   5.196   0.759   1.276
  188ACOH    H210403   5.303   0.673   1.387
  188ACOH    H310404   5.176   0.778   1.451
  189ACOH    H410405   7.476   0.320   1.201
  189ACOH    O210406   7.410   0.382   1.243
  189ACOH    C210407   7.356   0.318   1.348
  189ACOH    O110408   7.396   0.216   1.401
  189ACOH    C110409   7.245   0.398   1.405
  189ACOH    H110410   7.166   0.407   1.331
  189ACOH    H210411   7.281   0.497   1.430
  189ACOH    H310412   7.205   0.350   1.494
  190ACOH    H410413   3.871   9.334   2.306
  190ACOH    O210414   3.947   9.296   2.358
  190ACOH    C210415   4.001   9.200   2.282
  190ACOH    O110416   4.004   9.201   2.160
  190ACOH    C110417   4.096   9.117   2.359
  190ACOH    H110418   4.076   9.126   2.466
  190ACOH    H210419   4.198   9.150   2.340
  190ACOH    H310420   4.087   9.013   2.330
  191ACOH    H410421   9.926   4.370   1.877
  191ACOH    O210422   0.004   4.307   1.881
  191ACOH    C210423   0.112   4.387   1.893
  191ACOH    O110424   0.118   4.484   1.967
  191ACOH    C110425   0.232   4.315   1.847
  191ACOH    H110426   0.276   4.259   1.929
  191ACOH    H210427   0.306   4.386   1.810
  191ACOH    H310428   0.207   4.246   1.766
  192ACOH    H410429   4.848   0.353   0.604
  192ACOH    O210430   4.848   0.340   0.703
  192ACOH    C210431   4.806   0.455   0.758
  192ACOH    O110432   4.759   0.551   0.701
  192ACOH    C110433   4.812   0.447   0.906
  192ACOH    H110434   4.914   0.425   0.937
  192ACOH    H210435   4.747   0.368   0.941
  192ACOH    H310436   4.782   0.541   0.951
  193ACOH    H410437   4.702   8.891   1.381
  193ACOH    O210438   4.726   8.840   1.300
  193ACOH    C210439   4.699   8.918   1.194
  193ACOH    O110440   4.642   9.026   1.197
  193ACOH    C110441   4.729   8.849   1.067
  193ACOH    H110442   4.636   8.814   1.023
  193ACOH    H210443   4.795   8.765   1.083
  193ACOH    H310444   4.775   8.918   0.997
  194ACOH    H410445   3.717   5.961   2.017
  194ACOH    O210446   3.798   6.002   1.976
  194ACOH    C210447   3.754   6.096   1.890
  194ACOH    O110448   3.641   6.140   1.883
  194ACOH    C110449   3.867   6.154   1.814
  194ACOH    H110450   3.840   6.164   1.710
  194ACOH    H210451   3.954   6.090   1.821
  194ACOH    H310452   3.891   6.252   1.855
  195ACOH    H410453   4.715   1.968   1.365
  195ACOH    O210454   4.797   2.024   1.368
  195ACOH    C210455   4.778   2.127   1.283
  195ACOH    O110456   4.683   2.142   1.208
  195ACOH    C110457   4.889   2.225   1.288
  195ACOH    H110458   4.931   2.239   1.189
  195ACOH    H210459   4.968   2.190   1.354
  195ACOH    H310460   4.852   2.320   1.325
  196ACOH    H410461   2.314   5.799   0.221
  196ACOH    O210462   2.270   5.769   0.137
  196ACOH    C210463   2.369   5.735   0.052
  196ACOH    O110464   2.487   5.763   0.062
  196ACOH    C110465   2.312   5.669   2.873
  196ACOH    H110466   2.268   5.574   2.902
  196ACOH    H210467   2.390   5.650   2.800
  196ACOH    H310468   2.236   5.732   2.829
  197ACOH    H410469   4.242   5.954   0.564
  197ACOH    O210470   4.325   6.009   0.560
  197ACOH    C210471   4.328   6.084   0.671
  197ACOH    O110472   4.240   6.095   0.755
  197ACOH    C110473   4.450   6.168   0.676
  197ACOH    H110474   4.422   6.272   0.667
  197ACOH    H210475   4.518   6.142   0.595
  197ACOH    H310476   4.500   6.152   0.771
  198ACOH    H410477   5.534   2.552   0.522
  198ACOH    O210478   5.587   2.532   0.438
  198ACOH    C210479   5.640   2.410   0.453
  198ACOH    O110480   5.616   2.328   0.540
  198ACOH    C110481   5.733   2.381   0.341
  198ACOH    H110482   5.817   2.450   0.345
  198ACOH    H210483   5.681   2.394   0.246
  198ACOH    H310484   5.770   2.279   0.347
  199ACOH    H410485   7.837   2.525   1.874
  199ACOH    O210486   7.820   2.444   1.818
  199ACOH    C210487   7.916   2.355   1.846
  199ACOH    O110488   8.000   2.363   1.934
  199ACOH    C110489   7.903   2.233   1.763
  199ACOH    H110490   7.823   2.245   1.691
  199ACOH    H210491   7.882   2.147   1.826
  199ACOH    H310492   7.996   2.216   1.709
  200ACOH    H410493   5.211   3.551   0.679
  200ACOH    O210494   5.178   3.643   0.695
  200ACOH    C210495   5.116   3.685   0.583
  200ACOH    O110496   5.106   3.623   0.479
  200ACOH    C110497   5.062   3.822   0.599
  200ACOH    H110498   4.954   3.821   0.584
  200ACOH    H210499   5.106   3.889   0.526
  200ACOH    H310500   5.082   3.860   0.699
  201ACOH    H410501   1.592   2.961   1.258
  201ACOH    O210502   1.603   2.865   1.235
  201ACOH    C210503   1.484   2.804   1.254
  201ACOH    O110504   1.389   2.850   1.314
  201ACOH    C110505   1.490   2.661   1.216
  201ACOH    H110506   1.488   2.599   1.305
  201ACOH    H210507   1.581   2.640   1.161
  201ACOH    H310508   1.405   2.636   1.153
  202ACOH    H410509   4.983   0.844   1.943
  202ACOH    O210510   5.056   0.783   1.915
  202ACOH    C210511   5.004   0.660   1.905
  202ACOH    O110512   4.897   0.623   1.950
  202ACOH    C110513   5.101   0.566   1.844
  202ACOH    H110514   5.120   0.596   1.741
  202ACOH    H210515   5.063   0.465   1.845
  202ACOH    H310516   5.194   0.570   1.900
  203ACOH    H410517   2.769   3.051   2.403
  203ACOH    O210518   2.796   2.972   2.349
  203ACOH    C210519   2.780   3.006   2.220
  203ACOH    O110520   2.770   3.118   2.174
  203ACOH    C110521   2.792   2.887   2.132
  203ACOH    H110522   2.804   2.797   2.191
  203ACOH    H210523   2.877   2.898   2.066
  203ACOH    H310524   2.701   2.878   2.072
  204ACOH    H410525   5.279   4.056   1.737
  204ACOH    O210526   5.368   4.073   1.697
  204ACOH    C210527   5.391   3.977   1.606
  204ACOH    O110528   5.315   3.890   1.570
  204ACOH    C110529   5.526   3.992   1.546
  204ACOH    H110530   5.580   4.074   1.593
  204ACOH    H210531   5.517   4.013   1.439
  204ACOH    H310532   5.583   3.900   1.559
  205ACOH    H410533   2.238   2.986   2.541
  205ACOH    O210534   2.141   3.009   2.533
  205ACOH    C210535   2.097   2.965   2.414
  205ACOH    O110536   2.165   2.925   2.321
  205ACOH    C110537   1.952   2.990   2.398
  205ACOH    H110538   1.903   2.900   2.363
  205ACOH    H210539   1.936   3.070   2.326
  205ACOH    H310540   1.908   3.019   2.493
  206ACOH    H410541   4.285   5.274   0.694
  206ACOH    O210542   4.378   5.279   0.660
  206ACOH    C210543   4.389   5.190   0.560
  206ACOH    O110544   4.305   5.110   0.521
  206ACOH    C110545   4.524   5.198   0.499
  206ACOH    H110546   4.538   5.120   0.425
  206ACOH    H210547   4.599   5.189   0.577
  206ACOH    H310548   4.535   5.295   0.451
  207ACOH    H410549   7.707   1.754   0.613
  207ACOH    O210550   7.704   1.847   0.577
  207ACOH    C210551   7.722   1.839   0.444
  207ACOH    O110552   7.749   1.739   0.381
  207ACOH    C110553   7.711   1.973   0.382
  207ACOH    H110554   7.785   2.040   0.427
  207ACOH    H210555   7.612   2.014   0.400
  207ACOH    H310556   7.730   1.968   0.275
  208ACOH    H410557   4.126   6.312   0.559
  208ACOH    O210558   4.202   6.322   0.494
  208ACOH    C210559   4.176   6.240   0.391
  208ACOH    O110560   4.073   6.180   0.367
  208ACOH    C110561   4.291   6.240   0.297
  208ACOH    H110562   4.315   6.343   0.270
  208ACOH    H210563   4.268   6.184   0.208
  208ACOH    H310564   4.377   6.196   0.347
  209ACOH    H410565   5.751   9.549   1.732
  209ACOH    O210566   5.795   9.531   1.645
  209ACOH    C210567   5.716   9.447   1.576
  209ACOH    O110568   5.622   9.384   1.620
  209ACOH    C110569   5.768   9.425   1.439
  209ACOH    H110570   5.850   9.494   1.417
  209ACOH    H210571   5.688   9.441   1.367
  209ACOH    H310572   5.804   9.323   1.429
  210ACOH    H410573   5.570   2.121   0.887
  210ACOH    O210574   5.565   2.035   0.939
  210ACOH    C210575   5.436   2.018   0.974
  210ACOH    O110576   5.341   2.087   0.943
  210ACOH    C110577   5.424   1.899   1.061
  210ACOH    H110578   5.320   1.883   1.090
  210ACOH    H210579   5.484   1.913   1.150
  210ACOH    H310580   5.460   1.811   1.007
  211ACOH    H410581   5.221   9.934   1.635
  211ACOH    O210582   5.241   0.026   1.602
  211ACOH    C210583   5.182   0.112   1.687
  211ACOH    O110584   5.123   0.085   1.790
  211ACOH    C110585   5.206   0.252   1.645
  211ACOH    H110586   5.111   0.304   1.637
  211ACOH    H210587   5.255   0.256   1.548
  211ACOH    H310588   5.267   0.303   1.719
  212ACOH    H410589   3.732   5.639   1.443
  212ACOH    O210590   3.759   5.735   1.436
  212ACOH    C210591   3.666   5.805   1.503
  212ACOH    O110592   3.578   5.760   1.575
  212ACOH    C110593   3.690   5.951   1.488
  212ACOH    H110594   3.683   5.977   1.383
  212ACOH    H210595   3.788   5.976   1.526
  212ACOH    H310596   3.615   6.008   1.543
  213ACOH    H410597   4.910   4.065   2.177
  213ACOH    O210598   4.994   4.104   2.143
  213ACOH    C210599   4.973   4.235   2.124
  213ACOH    O110600   4.874   4.298   2.158
  213ACOH    C110601   5.093   4.300   2.067
  213ACOH    H110602   5.110   4.262   1.967
  213ACOH    H210603   5.179   4.276   2.129
  213ACOH    H310604   5.080   4.408   2.063
  214ACOH    H410605   8.022   1.839   1.863
  214ACOH    O210606   8.017   1.924   1.914
  214ACOH    C210607   7.941   1.907   2.025
  214ACOH    O110608   7.932   1.991   2.112
  214ACOH    C110609   7.887   1.770   2.045
  214ACOH    H110610   7.882   1.714   1.952
  214ACOH    H210611   7.788   1.776   2.088
  214ACOH    H310612   7.951   1.716   2.114
  215ACOH    H410613   5.569   3.476   0.415
  215ACOH    O210614   5.664   3.477   0.385
  215ACOH    C210615   5.711   3.351   0.393
  215ACOH    O110616   5.653   3.254   0.437
  215ACOH    C110617   5.850   3.345   0.343
  215ACOH    H110618   5.912   3.411   0.401
  215ACOH    H210619   5.852   3.377   0.239
  215ACOH    H310620   5.889   3.243   0.350
  216ACOH    H410621   3.704   9.229   2.038
  216ACOH    O210622   3.730   9.315   1.993
  216ACOH    C210623   3.725   9.410   2.089
  216ACOH    O110624   3.743   9.391   2.208
  216ACOH    C110625   3.729   9.545   2.028
  216ACOH    H110626   3.819   9.556   1.969
  216ACOH    H210627   3.726   9.622   2.104
  216ACOH    H310628   3.643   9.557   1.963
  217ACOH    H410629   7.404   9.389   1.967
  217ACOH    O210630   7.374   9.294   1.964
  217ACOH    C210631   7.326   9.273   1.840
  217ACOH    O110632   7.278   9.358   1.767
  217ACOH    C110633   7.304   9.128   1.815
  217ACOH    H110634   7.339   9.102   1.716
  217ACOH    H210635   7.198   9.105   1.823
  217ACOH    H310636   7.359   9.068   1.888
  218ACOH    H410637   3.077   1.504   1.661
  218ACOH    O210638   3.097   1.409   1.682
  218ACOH    C210639   3.002   1.336   1.620
  218ACOH    O110640   2.917   1.378   1.544
  218ACOH    C110641   3.013   1.192   1.653
  218ACOH    H110642   3.098   1.174   1.719
  218ACOH    H210643   3.025   1.134   1.562
  218ACOH    H310644   2.922   1.161   1.704
  219ACOH    H410645   4.123   8.307   0.445
  219ACOH    O210646   4.072   8.289   0.361
  219ACOH    C210647   3.953   8.351   0.376
  219ACOH    O110648   3.919   8.422   0.468
  219ACOH    C110649   3.866   8.330   0.258
  219ACOH    H110650   3.911   8.260   0.188
  219ACOH    H210651   3.852   8.425   0.207
  219ACOH    H310652   3.770   8.292   0.289
  220ACOH    H410653   4.544   9.120   0.899
  220ACOH    O210654   4.620   9.172   0.863
  220ACOH    C210655   4.570   9.254   0.769
  220ACOH    O110656   4.457   9.250   0.722
  220ACOH    C110657   4.673   9.343   0.712
  220ACOH    H110658   4.696   9.312   0.610
  220ACOH    H210659   4.764   9.339   0.771
  220ACOH    H310660   4.637   9.446   0.710
  221ACOH    H410661   9.137   3.245   1.367
  221ACOH    O210662   9.068   3.224   1.299
  221ACOH    C210663   9.132   3.217   1.181
  221ACOH    O110664   9.249   3.184   1.167
  221ACOH    C110665   9.036   3.218   1.069
  221ACOH    H110666   9.023   3.118   1.030
  221ACOH    H210667   9.074   3.282   0.989
  221ACOH    H310668   8.940   3.258   1.100
  222ACOH    H410669   8.109   2.524   1.397
  222ACOH    O210670   8.080   2.616   1.425
  222ACOH    C210671   8.046   2.605   1.555
  222ACOH    O110672   8.078   2.514   1.630
  222ACOH    C110673   7.983   2.730   1.604
  222ACOH    H110674   7.887   2.742   1.556
  222ACOH    H210675   8.046   2.815   1.579
  222ACOH    H310676   7.970   2.727   1.712
  223ACOH    H410677   4.731   4.095   1.623
  223ACOH    O210678   4.688   4.171   1.671
  223ACOH    C210679   4.783   4.224   1.750
  223ACOH    O110680   4.889   4.173   1.781
  223ACOH    C110681   4.736   4.352   1.808
  223ACOH    H110682   4.724   4.425   1.729
  223ACOH    H210683   4.807   4.390   1.881
  223ACOH    H310684   4.640   4.337   1.856
  224ACOH    H410685   8.473   3.655   1.303
  224ACOH    O210686   8.450   3.653   1.400
  224ACOH    C210687   8.397   3.532   1.426
  224ACOH    O110688   8.403   3.432   1.356
  224ACOH    C110689   8.340   3.529   1.563
  224ACOH    H110690   8.260   3.602   1.570
  224ACOH    H210691   8.418   3.554   1.635
  224ACOH    H310692   8.300   3.431   1.586
  225ACOH    H410693   7.303   0.547   2.864
  225ACOH    O210694   7.250   0.613   2.911
  225ACOH    C210695   7.333   0.674   0.056
  225ACOH    O110696   7.454   0.658   0.063
  225ACOH    C110697   7.260   0.772   0.139
  225ACOH    H110698   7.213   0.847   0.075
  225ACOH    H210699   7.327   0.822   0.209
  225ACOH    H310700   7.182   0.720   0.194
  226ACOH    H410701   4.373   4.965   2.219
  226ACOH    O210702   4.405   5.031   2.286
  226ACOH    C210703   4.384   5.154   2.237
  226ACOH    O110704   4.342   5.183   2.126
  226ACOH    C110705   4.421   5.256   2.338
  226ACOH    H110706   4.527   5.248   2.360
  226ACOH    H210707   4.365   5.238   2.429
  226ACOH    H310708   4.399   5.356   2.301
  227ACOH    H410709   7.607   1.197   1.204
  227ACOH    O210710   7.536   1.221   1.139
  227ACOH    C210711   7.592   1.307   1.051
  227ACOH    O110712   7.700   1.363   1.062
  227ACOH    C110713   7.500   1.332   0.938
  227ACOH    H110714   7.489   1.241   0.879
  227ACOH    H210715   7.536   1.412   0.875
  227ACOH    H310716   7.402   1.359   0.977
  228ACOH    H410717   4.180   8.636   1.178
  228ACOH    O210718   4.251   8.705   1.179
  228ACOH    C210719   4.242   8.768   1.298
  228ACOH    O110720   4.142   8.775   1.367
  228ACOH    C110721   4.363   8.849   1.323
  228ACOH    H110722   4.347   8.918   1.405
  228ACOH    H210723   4.389   8.906   1.234
  228ACOH    H310724   4.446   8.783   1.347
  229ACOH    H410725   8.371   6.520   0.833
  229ACOH    O210726   8.383   6.431   0.877
  229ACOH    C210727   8.281   6.352   0.838
  229ACOH    O110728   8.198   6.380   0.753
  229ACOH    C110729   8.289   6.218   0.901
  229ACOH    H110730   8.311   6.144   0.824
  229ACOH    H210731   8.194   6.193   0.947
  229ACOH    H310732   8.366   6.215   0.977
  230ACOH    H410733   5.061   3.575   2.061
  230ACOH    O210734   5.107   3.619   2.138
  230ACOH    C210735   5.150   3.739   2.095
  230ACOH    O110736   5.114   3.798   1.995
  230ACOH    C110737   5.240   3.802   2.195
  230ACOH    H110738   5.194   3.892   2.234
  230ACOH    H210739   5.334   3.829   2.146
  230ACOH    H310740   5.261   3.734   2.276
  231ACOH    H410741   4.187   5.527   2.371
  231ACOH    O210742   4.183   5.606   2.315
  231ACOH    C210743   4.128   5.569   2.198
  231ACOH    O110744   4.097   5.456   2.166
  231ACOH    C110745   4.110   5.685   2.107
  231ACOH    H110746   4.166   5.669   2.015
  231ACOH    H210747   4.145   5.776   2.154
  231ACOH    H310748   4.005   5.696   2.083
  232ACOH    H410749   5.075   2.575   0.667
  232ACOH    O210750   5.149   2.508   0.674
  232ACOH    C210751   5.158   2.448   0.554
  232ACOH    O110752   5.086   2.468   0.458
  232ACOH    C110753   5.262   2.342   0.554
  232ACOH    H110754   5.320   2.345   0.645
  232ACOH    H210755   5.329   2.357   0.469
  232ACOH    H310756   5.214   2.245   0.545
  233ACOH    H410757   7.992   7.779   0.660
  233ACOH    O210758   8.000   7.817   0.567
  233ACOH    C210759   7.996   7.951   0.580
  233ACOH    O110760   8.006   8.015   0.683
  233ACOH    C110761   7.999   8.017   0.448
  233ACOH    H110762   8.094   8.069   0.435
  233ACOH    H210763   7.919   8.091   0.442
  233ACOH    H310764   7.988   7.946   0.368
  234ACOH    H410765   5.000   9.358   0.084
  234ACOH    O210766   5.031   9.380   2.932
  234ACOH    C210767   5.108   9.277   2.892
  234ACOH    O110768   5.120   9.169   0.005
  234ACOH    C110769   5.168   9.304   2.759
  234ACOH    H110770   5.145   9.405   2.727
  234ACOH    H210771   5.128   9.234   2.686
  234ACOH    H310772   5.275   9.291   2.765
  235ACOH    H410773   8.264   5.966   1.177
  235ACOH    O210774   8.167   5.966   1.201
  235ACOH    C210775   8.157   5.987   1.334
  235ACOH    O110776   8.244   6.028   1.409
  235ACOH    C110777   8.017   5.972   1.379
  235ACOH    H110778   8.013   5.911   1.469
  235ACOH    H210779   7.957   5.925   1.302
  235ACOH    H310780   7.976   6.070   1.401
  236ACOH    H410781   5.290   3.713   0.002
  236ACOH    O210782   5.349   3.729   0.078
  236ACOH    C210783   5.287   3.815   0.161
  236ACOH    O110784   5.175   3.859   0.146
  236ACOH    C110785   5.369   3.844   0.281
  236ACOH    H110786   5.393   3.950   0.284
  236ACOH    H210787   5.462   3.787   0.279
  236ACOH    H310788   5.314   3.818   0.370
  237ACOH    H410789   5.330   3.582   1.190
  237ACOH    O210790   5.364   3.658   1.135
  237ACOH    C210791   5.350   3.626   1.006
  237ACOH    O110792   5.302   3.524   0.960
  237ACOH    C110793   5.401   3.736   0.920
  237ACOH    H110794   5.395   3.709   0.815
  237ACOH    H210795   5.504   3.757   0.947
  237ACOH    H310796   5.341   3.824   0.938
  238ACOH    H410797   3.922   5.795   1.761
  238ACOH    O210798   3.957   5.854   1.688
  238ACOH    C210799   4.018   5.773   1.600
  238ACOH    O110800   4.032   5.652   1.608
  238ACOH    C110801   4.075   5.852   1.489
  238ACOH    H110802   3.995   5.901   1.434
  238ACOH    H210803   4.129   5.787   1.420
  238ACOH    H310804   4.143   5.926   1.528
  239ACOH    H410805   4.798   9.451   1.859
  239ACOH    O210806   4.866   9.499   1.803
  239ACOH    C210807   4.870   9.436   1.685
  239ACOH    O110808   4.834   9.321   1.663
  239ACOH    C110809   4.953   9.509   1.586
  239ACOH    H110810   4.976   9.609   1.622
  239ACOH    H210811   4.899   9.517   1.492
  239ACOH    H310812   5.046   9.456   1.569
  240ACOH    H410813   4.740   0.901   1.546
  240ACOH    O210814   4.810   0.969   1.568
  240ACOH    C210815   4.918   0.899   1.609
  240ACOH    O110816   4.929   0.778   1.615
  240ACOH    C110817   5.027   0.991   1.645
  240ACOH    H110818   4.992   1.061   1.720
  240ACOH    H210819   5.059   1.046   1.557
  240ACOH    H310820   5.112   0.936   1.686
  241ACOH    H410821   5.485   9.364   1.724
  241ACOH    O210822   5.419   9.347   1.796
  241ACOH    C210823   5.319   9.436   1.779
  241ACOH    O110824   5.309   9.519   1.691
  241ACOH    C110825   5.215   9.416   1.882
  241ACOH    H110826   5.258   9.435   1.980
  241ACOH    H210827   5.178   9.314   1.878
  241ACOH    H310828   5.132   9.484   1.867
  242SOL     OW10829   8.618   0.101   1.319
  242SOL    HW110830   8.622   0.006   1.352
  242SOL    HW210831   8.622   0.164   1.396
  243SOL     OW10832   9.519   3.368   0.571
  243SOL    HW110833   9.560   3.277   0.566
  243SOL    HW210834   9.420   3.358   0.580
  244SOL     OW10835   9.775   9.012   1.571
  244SOL    HW110836   9.834   9.057   1.637
  244SOL    HW210837   9.776   9.064   1.485
  245SOL     OW10838   8.123   9.721   1.793
  245SOL    HW110839   8.142   9.817   1.813
  245SOL    HW210840   8.118   9.669   1.878
  246SOL     OW10841   2.842   4.300   0.583
  246SOL    HW110842   2.819   4.249   0.666
  246SOL    HW210843   2.903   4.375   0.606
  247SOL     OW10844   2.788   1.909   2.263
  247SOL    HW110845   2.884   1.926   2.286
  247SOL    HW210846   2.735   1.900   2.347
  248SOL     OW10847   8.723   4.905   0.317
  248SOL    HW110848   8.638   4.866   0.282
  248SOL    HW210849   8.732   4.882   0.414
  249SOL     OW10850   0.782   6.337   2.109
  249SOL    HW110851   0.699   6.366   2.155
  249SOL    HW210852   0.826   6.415   2.066
  250SOL     OW10853   4.528   0.708   0.787
  250SOL    HW110854   4.603   0.650   0.756
  250SOL    HW210855   4.533   0.796   0.739
  251SOL     OW10856   3.111   3.532   0.884
  251SOL    HW110857   3.134   3.435   0.886
  251SOL    HW210858   3.022   3.544   0.840
  252SOL     OW10859   1.988   7.742   0.927
  252SOL    HW110860   2.083   7.716   0.911
  252SOL    HW210861   1.981   7.789   1.015
  253SOL     OW10862   9.112   1.599   0.479
  253SOL    HW110863   9.134   1.594   0.576
  253SOL    HW210864   9.019   1.636   0.468
  254SOL     OW10865   1.591   0.607   1.724
  254SOL    HW110866   1.576   0.662   1.806
  254SOL    HW210867   1.593   0.510   1.748
  255SOL     OW10868   0.951   8.936   2.106
  255SOL    HW110869   0.980   9.027   2.136
  255SOL    HW210870   0.985   8.919   2.014
  256SOL     OW10871   0.918   3.745   1.580
  256SOL    HW110872   0.855   3.685   1.629
  256SOL    HW210873   0.990   3.776   1.643
  257SOL     OW10874   8.808   3.146   1.332
  257SOL    HW110875   8.906   3.162   1.318
  257SOL    HW210876   8.762   3.146   1.244
  258SOL     OW10877   3.847   0.526   1.210
  258SOL    HW110878   3.816   0.455   1.273
  258SOL    HW210879   3.825   0.499   1.116
  259SOL     OW10880   3.144   4.669   1.821
  259SOL    HW110881   3.217   4.734   1.845
  259SOL    HW210882   3.075   4.670   1.893
  260SOL     OW10883   4.213   0.425   1.405
  260SOL    HW110884   4.133   0.481   1.428
  260SOL    HW210885   4.268   0.473   1.336
  261SOL     OW10886   1.048   2.676   1.203
  261SOL    HW110887   1.086   2.615   1.272
  261SOL    HW210888   1.116   2.691   1.131
  262SOL     OW10889   2.817   5.685   0.618
  262SOL    HW110890   2.909   5.669   0.653
  262SOL    HW210891   2.823   5.738   0.533
  263SOL     OW10892   2.079   9.404   0.541
  263SOL    HW110893   2.076   9.485   0.600
  263SOL    HW210894   1.989   9.362   0.537
  264SOL     OW10895   3.500   0.461   0.756
  264SOL    HW110896   3.502   0.374   0.707
  264SOL    HW210897   3.567   0.523   0.716
  265SOL     OW10898   3.719   3.543   1.785
  265SOL    HW110899   3.705   3.447   1.759
  265SOL    HW210900   3.791   3.549   1.854
  266SOL     OW10901   3.951   1.167   1.314
  266SOL    HW110902   3.914   1.112   1.240
  266SOL    HW210903   3.936   1.264   1.295
  267SOL     OW10904   2.599   7.462   1.463
  267SOL    HW110905   2.671   7.464   1.394
  267SOL    HW210906   2.598   7.373   1.509
  268SOL     OW10907   1.946   5.565   1.923
  268SOL    HW110908   1.903   5.511   1.851
  268SOL    HW210909   2.043   5.576   1.904
  269SOL     OW10910   9.295   5.762   0.479
  269SOL    HW110911   9.289   5.745   0.578
  269SOL    HW210912   9.272   5.858   0.461
  270SOL     OW10913   0.907   4.718   1.525
  270SOL    HW110914   0.881   4.685   1.615
  270SOL    HW210915   0.849   4.677   1.455
  271SOL     OW10916   1.187   6.834   2.038
  271SOL    HW110917   1.284   6.833   2.017
  271SOL    HW210918   1.135   6.837   1.952
  272SOL     OW10919   9.556   0.108   0.588
  272SOL    HW110920   9.654   0.125   0.599
  272SOL    HW210921   9.534   0.015   0.617
  273SOL     OW10922   4.901   9.010   0.120
  273SOL    HW110923   4.984   9.047   0.078
  273SOL    HW210924   4.887   9.054   0.209
  274SOL     OW10925   3.701   4.687   2.119
  274SOL    HW110926   3.781   4.647   2.165
  274SOL    HW210927   3.699   4.785   2.136
  275SOL     OW10928   0.485   5.647   1.228
  275SOL    HW110929   0.397   5.693   1.240
  275SOL    HW210930   0.543   5.700   1.167
  276SOL     OW10931   1.187   3.326   1.341
  276SOL    HW110932   1.167   3.383   1.262
  276SOL    HW210933   1.199   3.384   1.422
  277SOL     OW10934   1.858   8.890   0.827
  277SOL    HW110935   1.943   8.854   0.788
  277SOL    HW210936   1.880   8.945   0.907
  278SOL     OW10937   1.755   1.734   1.080
  278SOL    HW110938   1.790   1.644   1.052
  278SOL    HW210939   1.726   1.784   0.999
  279SOL     OW10940   1.126   2.847   1.492
  279SOL    HW110941   1.199   2.786   1.461
  279SOL    HW210942   1.120   2.926   1.431
  280SOL     OW10943   0.683   7.319   1.825
  280SOL    HW110944   0.626   7.245   1.861
  280SOL    HW210945   0.703   7.385   1.899
  281SOL     OW10946   1.229   1.389   1.454
  281SOL    HW110947   1.196   1.295   1.454
  281SOL    HW210948   1.329   1.390   1.451
  282SOL     OW10949   0.085   6.936   1.306
  282SOL    HW110950   0.033   6.948   1.221
  282SOL    HW210951   0.179   6.967   1.291
  283SOL     OW10952   3.536   1.375   0.860
  283SOL    HW110953   3.461   1.432   0.893
  283SOL    HW210954   3.530   1.366   0.760
  284SOL     OW10955   0.060   0.616   1.576
  284SOL    HW110956   0.087   0.525   1.544
  284SOL    HW210957   0.101   0.633   1.666
  285SOL     OW10958   3.721   1.417   1.407
  285SOL    HW110959   3.766   1.477   1.474
  285SOL    HW210960   3.777   1.413   1.324
  286SOL     OW10961   9.670   8.914   0.189
  286SOL    HW110962   9.685   9.001   0.236
  286SOL    HW210963   9.758   8.868   0.176
  287SOL     OW10964   2.561   8.369   1.424
  287SOL    HW110965   2.606   8.285   1.454
  287SOL    HW210966   2.462   8.355   1.419
  288SOL     OW10967   7.653   9.988   0.613
  288SOL    HW110968   7.660   0.083   0.643
  288SOL    HW210969   7.594   9.937   0.677
  289SOL     OW10970   0.512   2.375   1.995
  289SOL    HW110971   0.490   2.422   1.910
  289SOL    HW210972   0.429   2.335   2.033
  290SOL     OW10973   2.815   1.737   1.773
  290SOL    HW110974   2.781   1.650   1.810
  290SOL    HW210975   2.758   1.766   1.697
  291SOL     OW10976   1.758   1.569   2.189
  291SOL    HW110977   1.697   1.514   2.131
  291SOL    HW210978   1.743   1.545   2.285
  292SOL     OW10979   3.345   0.547   0.960
  292SOL    HW110980   3.404   0.514   0.887
  292SOL    HW210981   3.382   0.518   1.048
  293SOL     OW10982   9.588   9.278   1.968
  293SOL    HW110983   9.651   9.210   2.007
  293SOL    HW210984   9.507   9.231   1.933
  294SOL     OW10985   0.721   2.415   1.114
  294SOL    HW110986   0.753   2.488   1.174
  294SOL    HW210987   0.623   2.402   1.126
  295SOL     OW10988   8.938   1.020   2.226
  295SOL    HW110989   8.991   1.009   2.309
  295SOL    HW210990   8.885   0.937   2.208
  296SOL     OW10991   3.177   2.144   0.476
  296SOL    HW110992   3.274   2.167   0.467
  296SOL    HW210993   3.143   2.176   0.564
  297SOL     OW10994   9.313   9.510   0.864
  297SOL    HW110995   9.250   9.434   0.851
  297SOL    HW210996   9.333   9.553   0.776
  298SOL     OW10997   2.364   9.812   1.717
  298SOL    HW110998   2.304   9.860   1.781
  298SOL    HW210999   2.311   9.784   1.636
  299SOL     OW11000   2.865   9.043   2.174
  299SOL    HW111001   2.881   9.141   2.177
  299SOL    HW211002   2.944   8.995   2.213
  300SOL     OW11003   1.414   7.898   0.701
  300SOL    HW111004   1.325   7.936   0.725
  300SOL    HW211005   1.402   7.815   0.647
  301SOL     OW11006   1.280   4.565   1.222
  301SOL    HW111007   1.229   4.649   1.200
  301SOL    HW211008   1.241   4.522   1.304
  302SOL     OW11009   9.667   3.603   0.776
  302SOL    HW111010   9.737   3.608   0.705
  302SOL    HW211011   9.703   3.638   0.862
  303SOL     OW11012   3.675   2.424   0.452
  303SOL    HW111013   3.761   2.404   0.406
  303SOL    HW211014   3.664   2.524   0.461
  304SOL     OW11015   9.084   2.804   0.838
  304SOL    HW111016   9.044   2.785   0.928
  304SOL    HW211017   9.036   2.750   0.769
  305SOL     OW11018   9.379   2.310   2.237
  305SOL    HW111019   9.299   2.256   2.210
  305SOL    HW211020   9.356   2.368   2.315
  306SOL     OW11021   3.501   3.527   1.224
  306SOL    HW111022   3.491   3.431   1.198
  306SOL    HW211023   3.473   3.586   1.148
  307SOL     OW11024   1.342   0.777   2.234
  307SOL    HW111025   1.440   0.765   2.248
  307SOL    HW211026   1.302   0.690   2.206
  308SOL     OW11027   8.216   9.661   1.543
  308SOL    HW111028   8.130   9.628   1.504
  308SOL    HW211029   8.203   9.680   1.640
  309SOL     OW11030   9.255   4.630   1.831
  309SOL    HW111031   9.190   4.694   1.789
  309SOL    HW211032   9.246   4.635   1.931
  310SOL     OW11033   1.954   9.321   0.819
  310SOL    HW111034   1.922   9.290   0.908
  310SOL    HW211035   2.033   9.265   0.791
  311SOL     OW11036   8.393   8.813   1.603
  311SOL    HW111037   8.340   8.830   1.687
  311SOL    HW211038   8.330   8.805   1.526
  312SOL     OW11039   8.725   7.132   0.507
  312SOL    HW111040   8.679   7.107   0.592
  312SOL    HW211041   8.677   7.209   0.465
  313SOL     OW11042   2.264   9.377   0.338
  313SOL    HW111043   2.196   9.381   0.411
  313SOL    HW211044   2.295   9.470   0.316
  314SOL     OW11045   1.673   0.813   2.167
  314SOL    HW111046   1.667   0.885   2.236
  314SOL    HW211047   1.750   0.830   2.106
  315SOL     OW11048   0.852   1.525   1.238
  315SOL    HW111049   0.841   1.430   1.207
  315SOL    HW211050   0.767   1.575   1.222
  316SOL     OW11051   9.183   2.571   1.618
  316SOL    HW111052   9.162   2.638   1.547
  316SOL    HW211053   9.260   2.514   1.588
  317SOL     OW11054   0.239   9.220   0.777
  317SOL    HW111055   0.281   9.220   0.686
  317SOL    HW211056   0.147   9.260   0.771
  318SOL     OW11057   1.907   4.432   1.098
  318SOL    HW111058   1.834   4.451   1.163
  318SOL    HW211059   1.931   4.516   1.050
  319SOL     OW11060   9.898   9.355   1.889
  319SOL    HW111061   9.828   9.403   1.834
  319SOL    HW211062   9.908   9.401   1.977
  320SOL     OW11063   8.880   4.898   0.804
  320SOL    HW111064   8.879   4.819   0.866
  320SOL    HW211065   8.920   4.976   0.851
  321SOL     OW11066   3.920   2.698   1.792
  321SOL    HW111067   3.831   2.725   1.757
  321SOL    HW211068   3.932   2.599   1.782
  322SOL     OW11069   3.293   6.050   1.268
  322SOL    HW111070   3.236   6.116   1.316
  322SOL    HW211071   3.246   5.963   1.262
  323SOL     OW11072   0.242   3.365   0.338
  323SOL    HW111073   0.248   3.412   0.250
  323SOL    HW211074   0.331   3.326   0.362
  324SOL     OW11075   8.339   9.759   2.177
  324SOL    HW111076   8.244   9.783   2.197
  324SOL    HW211077   8.342   9.678   2.119
  325SOL     OW11078   3.070   7.090   1.914
  325SOL    HW111079   3.084   7.150   1.835
  325SOL    HW211080   2.980   7.048   1.909
  326SOL     OW11081   2.954   2.307   1.479
  326SOL    HW111082   3.048   2.279   1.460
  326SOL    HW211083   2.910   2.237   1.536
  327SOL     OW11084   1.068   2.424   0.604
  327SOL    HW111085   1.092   2.363   0.679
  327SOL    HW211086   1.070   2.373   0.518
  328SOL     OW11087   1.941   4.883   2.033
  328SOL    HW111088   1.996   4.954   1.990
  328SOL    HW211089   1.997   4.834   2.101
  329SOL     OW11090   3.576   8.292   1.858
  329SOL    HW111091   3.584   8.227   1.782
  329SOL    HW211092   3.613   8.380   1.830
  330SOL     OW11093   0.918   8.250   2.092
  330SOL    HW111094   0.928   8.344   2.059
  330SOL    HW211095   0.928   8.186   2.016
  331SOL     OW11096   2.826   0.917   1.581
  331SOL    HW111097   2.792   0.823   1.587
  331SOL    HW211098   2.904   0.921   1.520
  332SOL     OW11099   0.924   5.739   0.442
  332SOL    HW111100   0.975   5.820   0.414
  332SOL    HW211101   0.980   5.684   0.503
  333SOL     OW11102   1.533   6.282   1.996
  333SOL    HW111103   1.457   6.306   2.057
  333SOL    HW211104   1.597   6.222   2.045
  334SOL     OW11105   4.064   5.355   0.490
  334SOL    HW111106   3.964   5.355   0.489
  334SOL    HW211107   4.096   5.319   0.578
  335SOL     OW11108   1.835   5.408   0.620
  335SOL    HW111109   1.930   5.386   0.644
  335SOL    HW211110   1.831   5.501   0.581
  336SOL     OW11111   8.173   2.387   1.352
  336SOL    HW111112   8.186   2.336   1.266
  336SOL    HW211113   8.254   2.378   1.408
  337SOL     OW11114   1.974   1.938   0.484
  337SOL    HW111115   2.070   1.964   0.476
  337SOL    HW211116   1.923   2.013   0.526
  338SOL     OW11117   4.681   1.479   1.223
  338SOL    HW111118   4.668   1.505   1.128
  338SOL    HW211119   4.710   1.383   1.228
  339SOL     OW11120   2.382   6.175   1.962
  339SOL    HW111121   2.295   6.136   1.933
  339SOL    HW211122   2.382   6.273   1.945
  340SOL     OW11123   4.880   8.955   2.240
  340SOL    HW111124   4.970   8.981   2.206
  340SOL    HW211125   4.874   8.856   2.248
  341SOL     OW11126   3.997   3.903   0.823
  341SOL    HW111127   4.087   3.917   0.866
  341SOL    HW211128   4.005   3.833   0.752
  342SOL     OW11129   9.740   3.986   0.657
  342SOL    HW111130   9.821   3.934   0.628
  342SOL    HW211131   9.681   4.002   0.577
  343SOL     OW11132   8.397   1.485   0.476
  343SOL    HW111133   8.435   1.488   0.568
  343SOL    HW211134   8.467   1.450   0.412
  344SOL     OW11135   3.352   5.808   2.108
  344SOL    HW111136   3.329   5.832   2.013
  344SOL    HW211137   3.284   5.849   2.169
  345SOL     OW11138   9.166   8.287   0.346
  345SOL    HW111139   9.081   8.334   0.321
  345SOL    HW211140   9.166   8.270   0.444
  346SOL     OW11141   0.145   1.409   0.304
  346SOL    HW111142   0.149   1.456   0.393
  346SOL    HW211143   0.056   1.364   0.294
  347SOL     OW11144   0.865   6.914   0.686
  347SOL    HW111145   0.835   6.987   0.747
  347SOL    HW211146   0.946   6.870   0.725
  348SOL     OW11147   3.138   2.535   0.568
  348SOL    HW111148   3.099   2.624   0.590
  348SOL    HW211149   3.237   2.538   0.581
  349SOL     OW11150   3.121   3.050   1.441
  349SOL    HW111151   3.180   3.131   1.431
  349SOL    HW211152   3.151   2.997   1.520
  350SOL     OW11153   1.398   8.811   1.778
  350SOL    HW111154   1.406   8.854   1.869
  350SOL    HW211155   1.347   8.872   1.717
  351SOL     OW11156   3.040   8.373   1.285
  351SOL    HW111157   2.985   8.294   1.311
  351SOL    HW211158   3.026   8.448   1.350
  352SOL     OW11159   1.110   0.216   1.897
  352SOL    HW111160   1.050   0.151   1.851
  352SOL    HW211161   1.201   0.176   1.908
  353SOL     OW11162   2.633   8.248   0.430
  353SOL    HW111163   2.585   8.280   0.348
  353SOL    HW211164   2.604   8.301   0.509
  354SOL     OW11165   2.028   1.942   0.011
  354SOL    HW111166   2.027   1.842   0.013
  354SOL    HW211167   1.997   1.974   2.863
  355SOL     OW11168   8.323   0.420   0.384
  355SOL    HW111169   8.408   0.437   0.434
  355SOL    HW211170   8.245   0.450   0.438
  356SOL     OW11171   1.646   8.596   0.371
  356SOL    HW111172   1.721   8.644   0.327
  356SOL    HW211173   1.672   8.570   0.464
  357SOL     OW11174   0.254   3.863   0.712
  357SOL    HW111175   0.294   3.792   0.770
  357SOL    HW211176   0.238   3.945   0.766
  358SOL     OW11177   2.556   9.002   0.377
  358SOL    HW111178   2.595   9.033   0.463
  358SOL    HW211179   2.629   8.983   0.312
  359SOL     OW11180   8.388   7.795   0.155
  359SOL    HW111181   8.480   7.797   0.117
  359SOL    HW211182   8.359   7.888   0.178
  360SOL     OW11183   4.375   1.859   1.113
  360SOL    HW111184   4.313   1.788   1.145
  360SOL    HW211185   4.324   1.942   1.092
  361SOL     OW11186   2.983   0.318   1.477
  361SOL    HW111187   2.970   0.360   1.567
  361SOL    HW211188   2.955   0.222   1.482
  362SOL     OW11189   8.527   3.698   1.158
  362SOL    HW111190   8.627   3.709   1.159
  362SOL    HW211191   8.490   3.733   1.073
  363SOL     OW11192   4.366   0.337   1.910
  363SOL    HW111193   4.351   0.312   1.815
  363SOL    HW211194   4.353   0.257   1.968
  364SOL     OW11195   9.702   2.939   1.216
  364SOL    HW111196   9.607   2.961   1.239
  364SOL    HW211197   9.717   2.956   1.119
  365SOL     OW11198   1.185   6.691   1.035
  365SOL    HW111199   1.172   6.781   1.077
  365SOL    HW211200   1.106   6.633   1.056
  366SOL     OW11201   8.440   9.919   0.503
  366SOL    HW111202   8.345   9.906   0.531
  366SOL    HW211203   8.444   9.974   0.420
  367SOL     OW11204   4.346   3.485   1.115
  367SOL    HW111205   4.308   3.416   1.054
  367SOL    HW211206   4.399   3.551   1.062
  368SOL     OW11207   9.591   5.929   0.927
  368SOL    HW111208   9.588   5.854   0.861
  368SOL    HW211209   9.652   5.905   1.003
  369SOL     OW11210   3.776   3.168   0.208
  369SOL    HW111211   3.775   3.145   0.305
  369SOL    HW211212   3.696   3.128   0.163
  370SOL     OW11213   3.835   1.799   1.230
  370SOL    HW111214   3.857   1.896   1.216
  370SOL    HW211215   3.901   1.759   1.293
  371SOL     OW11216   9.341   5.700   0.755
  371SOL    HW111217   9.440   5.691   0.753
  371SOL    HW211218   9.302   5.631   0.817
  372SOL     OW11219   4.019   9.865   0.114
  372SOL    HW111220   3.979   9.774   0.130
  372SOL    HW211221   3.946   9.933   0.108
  373SOL     OW11222   1.030   6.151   0.563
  373SOL    HW111223   0.934   6.131   0.581
  373SOL    HW211224   1.066   6.212   0.634
  374SOL     OW11225   3.780   9.887   1.570
  374SOL    HW111226   3.790   9.789   1.555
  374SOL    HW211227   3.688   9.916   1.544
  375SOL     OW11228   3.315   6.297   0.355
  375SOL    HW111229   3.253   6.354   0.302
  375SOL    HW211230   3.409   6.309   0.322
  376SOL     OW11231   9.126   7.554   2.144
  376SOL    HW111232   9.222   7.535   2.166
  376SOL    HW211233   9.072   7.470   2.155
  377SOL     OW11234   3.016   0.904   1.382
  377SOL    HW111235   2.945   0.850   1.335
  377SOL    HW211236   3.099   0.849   1.392
  378SOL     OW11237   9.190   1.582   0.741
  378SOL    HW111238   9.253   1.505   0.732
  378SOL    HW211239   9.242   1.667   0.754
  379SOL     OW11240   2.736   4.672   0.332
  379SOL    HW111241   2.658   4.705   0.279
  379SOL    HW211242   2.724   4.576   0.355
  380SOL     OW11243   1.721   2.874   1.903
  380SOL    HW111244   1.749   2.829   1.988
  380SOL    HW211245   1.748   2.818   1.825
  381SOL     OW11246   8.997   7.298   1.233
  381SOL    HW111247   9.028   7.308   1.138
  381SOL    HW211248   8.996   7.201   1.257
  382SOL     OW11249   9.685   9.606   0.925
  382SOL    HW111250   9.607   9.669   0.928
  382SOL    HW211251   9.763   9.651   0.881
  383SOL     OW11252   3.921   8.363   2.149
  383SOL    HW111253   3.822   8.355   2.133
  383SOL    HW211254   3.959   8.272   2.165
  384SOL     OW11255   0.103   7.930   1.844
  384SOL    HW111256   0.127   7.889   1.756
  384SOL    HW211257   0.099   7.859   1.914
  385SOL     OW11258   3.071   5.647   0.715
  385SOL    HW111259   3.109   5.651   0.807
  385SOL    HW211260   3.098   5.728   0.664
  386SOL     OW11261   4.391   4.510   1.761
  386SOL    HW111262   4.342   4.468   1.838
  386SOL    HW211263   4.329   4.518   1.683
  387SOL     OW11264   8.308   8.283   0.903
  387SOL    HW111265   8.253   8.285   0.819
  387SOL    HW211266   8.297   8.194   0.947
  388SOL     OW11267   2.762   5.100   1.704
  388SOL    HW111268   2.732   5.005   1.709
  388SOL    HW211269   2.739   5.138   1.614
  389SOL     OW11270   2.861   3.309   0.122
  389SOL    HW111271   2.879   3.405   0.102
  389SOL    HW211272   2.831   3.300   0.217
  390SOL     OW11273   4.523   4.317   1.306
  390SOL    HW111274   4.495   4.259   1.382
  390SOL    HW211275   4.578   4.393   1.340
  391SOL     OW11276   5.450   2.607   0.643
  391SOL    HW111277   5.447   2.601   0.743
  391SOL    HW211278   5.388   2.678   0.612
  392SOL     OW11279   9.454   0.342   1.429
  392SOL    HW111280   9.496   0.278   1.493
  392SOL    HW211281   9.520   0.365   1.357
  393SOL     OW11282   1.764   8.147   0.096
  393SOL    HW111283   1.736   8.169   0.003
  393SOL    HW211284   1.760   8.229   0.153
  394SOL     OW11285   0.462   9.997   1.543
  394SOL    HW111286   0.370   9.970   1.516
  394SOL    HW211287   0.496   0.068   1.481
  395SOL     OW11288   9.632   1.390   0.317
  395SOL    HW111289   9.639   1.481   0.276
  395SOL    HW211290   9.556   1.341   0.274
  396SOL     OW11291   1.764   0.236   0.422
  396SOL    HW111292   1.769   0.171   0.498
  396SOL    HW211293   1.856   0.262   0.394
  397SOL     OW11294   7.505   0.617   0.636
  397SOL    HW111295   7.525   0.665   0.722
  397SOL    HW211296   7.438   0.670   0.584
  398SOL     OW11297   0.585   7.032   1.374
  398SOL    HW111298   0.643   6.995   1.302
  398SOL    HW211299   0.594   7.131   1.378
  399SOL     OW11300   2.415   4.132   1.336
  399SOL    HW111301   2.368   4.045   1.322
  399SOL    HW211302   2.492   4.138   1.272
  400SOL     OW11303   3.026   5.414   1.751
  400SOL    HW111304   3.058   5.453   1.838
  400SOL    HW211305   2.929   5.394   1.758
  401SOL     OW11306   8.252   1.545   1.505
  401SOL    HW111307   8.274   1.632   1.548
  401SOL    HW211308   8.231   1.559   1.409
  402SOL     OW11309   2.073   8.743   1.797
  402SOL    HW111310   1.998   8.767   1.735
  402SOL    HW211311   2.091   8.819   1.859
  403SOL     OW11312   9.607   3.524   0.158
  403SOL    HW111313   9.689   3.563   0.115
  403SOL    HW211314   9.609   3.540   0.256
  404SOL     OW11315   3.071   7.828   0.311
  404SOL    HW111316   2.977   7.794   0.305
  404SOL    HW211317   3.081   7.888   0.390
  405SOL     OW11318   9.319   5.151   1.816
  405SOL    HW111319   9.247   5.090   1.850
  405SOL    HW211320   9.406   5.104   1.820
  406SOL     OW11321   8.887   1.848   0.009
  406SOL    HW111322   8.866   1.871   2.855
  406SOL    HW211323   8.962   1.905   0.041
  407SOL     OW11324   4.042   9.151   0.532
  407SOL    HW111325   3.949   9.137   0.497
  407SOL    HW211326   4.039   9.165   0.631
  408SOL     OW11327   1.169   8.004   0.750
  408SOL    HW111328   1.139   8.006   0.655
  408SOL    HW211329   1.095   7.969   0.808
  409SOL     OW11330   9.547   2.483   1.180
  409SOL    HW111331   9.619   2.549   1.201
  409SOL    HW211332   9.588   2.393   1.164
  410SOL     OW11333   0.865   6.576   2.007
  410SOL    HW111334   0.801   6.583   1.931
  410SOL    HW211335   0.882   6.666   2.045
  411SOL     OW11336   0.196   8.682   1.760
  411SOL    HW111337   0.264   8.664   1.689
  411SOL    HW211338   0.219   8.766   1.809
  412SOL     OW11339   2.339   4.558   0.203
  412SOL    HW111340   2.248   4.570   0.242
  412SOL    HW211341   2.346   4.468   0.160
  413SOL     OW11342   3.110   1.898   2.033
  413SOL    HW111343   3.046   1.930   1.963
  413SOL    HW211344   3.071   1.915   2.124
  414SOL     OW11345   7.708   0.372   2.140
  414SOL    HW111346   7.656   0.417   2.213
  414SOL    HW211347   7.794   0.421   2.124
  415SOL     OW11348   0.315   7.531   0.669
  415SOL    HW111349   0.299   7.526   0.571
  415SOL    HW211350   0.230   7.555   0.716
  416SOL     OW11351   2.061   4.917   1.716
  416SOL    HW111352   2.069   4.979   1.794
  416SOL    HW211353   2.018   4.965   1.639
  417SOL     OW11354   4.415   4.151   0.357
  417SOL    HW111355   4.472   4.088   0.304
  417SOL    HW211356   4.372   4.217   0.296
  418SOL     OW11357   3.612   4.318   2.100
  418SOL    HW111358   3.700   4.286   2.066
  418SOL    HW211359   3.614   4.418   2.111
  419SOL     OW11360   2.000   3.972   0.065
  419SOL    HW111361   1.976   3.885   0.022
  419SOL    HW211362   2.021   4.040   2.936
  420SOL     OW11363   2.087   6.164   0.765
  420SOL    HW111364   2.090   6.081   0.709
  420SOL    HW211365   1.995   6.176   0.802
  421SOL     OW11366   3.448   2.255   2.157
  421SOL    HW111367   3.427   2.195   2.080
  421SOL    HW211368   3.522   2.317   2.132
  422SOL     OW11369   1.696   4.903   0.117
  422SOL    HW111370   1.718   4.938   0.026
  422SOL    HW211371   1.761   4.940   0.183
  423SOL     OW11372   9.336   6.111   0.627
  423SOL    HW111373   9.292   6.046   0.690
  423SOL    HW211374   9.312   6.088   0.533
  424SOL     OW11375   1.505   9.054   0.288
  424SOL    HW111376   1.506   9.116   0.366
  424SOL    HW211377   1.419   9.062   0.239
  425SOL     OW11378   9.651   5.537   1.116
  425SOL    HW111379   9.640   5.494   1.027
  425SOL    HW211380   9.562   5.565   1.151
  426SOL     OW11381   2.712   0.272   2.042
  426SOL    HW111382   2.692   0.181   2.005
  426SOL    HW211383   2.637   0.302   2.100
  427SOL     OW11384   4.549   2.807   0.467
  427SOL    HW111385   4.477   2.795   0.535
  427SOL    HW211386   4.532   2.891   0.414
  428SOL     OW11387   3.741   8.974   2.326
  428SOL    HW111388   3.761   8.990   2.423
  428SOL    HW211389   3.810   8.913   2.287
  429SOL     OW11390   2.597   4.033   1.900
  429SOL    HW111391   2.556   3.999   1.815
  429SOL    HW211392   2.659   4.109   1.879
  430SOL     OW11393   2.863   3.114   0.630
  430SOL    HW111394   2.834   3.145   0.540
  430SOL    HW211395   2.808   3.034   0.657
  431SOL     OW11396   3.910   2.289   0.364
  431SOL    HW111397   3.963   2.309   0.282
  431SOL    HW211398   3.851   2.209   0.348
  432SOL     OW11399   3.845   9.590   1.150
  432SOL    HW111400   3.917   9.612   1.216
  432SOL    HW211401   3.881   9.526   1.082
  433SOL     OW11402   3.138   9.436   2.213
  433SOL    HW111403   3.182   9.378   2.281
  433SOL    HW211404   3.046   9.401   2.194
  434SOL     OW11405   8.550   2.584   1.342
  434SOL    HW111406   8.474   2.649   1.352
  434SOL    HW211407   8.603   2.581   1.427
  435SOL     OW11408   7.718   1.607   0.681
  435SOL    HW111409   7.659   1.530   0.658
  435SOL    HW211410   7.812   1.575   0.692
  436SOL     OW11411   0.535   3.327   0.416
  436SOL    HW111412   0.623   3.283   0.434
  436SOL    HW211413   0.520   3.333   0.318
  437SOL     OW11414   1.867   6.451   1.042
  437SOL    HW111415   1.769   6.448   1.058
  437SOL    HW211416   1.885   6.469   0.945
  438SOL     OW11417   0.419   4.914   1.987
  438SOL    HW111418   0.396   5.011   1.973
  438SOL    HW211419   0.342   4.857   1.959
  439SOL     OW11420   0.559   0.491   1.528
  439SOL    HW111421   0.477   0.466   1.579
  439SOL    HW211422   0.587   0.584   1.554
  440SOL     OW11423   9.208   9.429   1.138
  440SOL    HW111424   9.115   9.449   1.168
  440SOL    HW211425   9.234   9.492   1.065
  441SOL     OW11426   0.103   5.573   1.256
  441SOL    HW111427   0.147   5.662   1.241
  441SOL    HW211428   0.005   5.587   1.274
  442SOL     OW11429   2.326   6.944   1.700
  442SOL    HW111430   2.278   6.915   1.618
  442SOL    HW211431   2.267   6.930   1.780
  443SOL     OW11432   3.923   5.952   0.280
  443SOL    HW111433   3.957   6.040   0.311
  443SOL    HW211434   4.000   5.891   0.262
  444SOL     OW11435   9.294   3.309   0.318
  444SOL    HW111436   9.285   3.321   0.417
  444SOL    HW211437   9.207   3.280   0.279
  445SOL     OW11438   0.820   5.108   2.054
  445SOL    HW111439   0.751   5.131   1.985
  445SOL    HW211440   0.890   5.178   2.055
  446SOL     OW11441   0.538   3.279   1.741
  446SOL    HW111442   0.574   3.274   1.648
  446SOL    HW211443   0.452   3.331   1.740
  447SOL     OW11444   8.064   7.674   1.378
  447SOL    HW111445   8.071   7.632   1.468
  447SOL    HW211446   8.035   7.605   1.311
  448SOL     OW11447   0.685   5.839   0.532
  448SOL    HW111448   0.604   5.819   0.477
  448SOL    HW211449   0.764   5.790   0.494
  449SOL     OW11450   3.362   2.125   0.904
  449SOL    HW111451   3.303   2.207   0.902
  449SOL    HW211452   3.305   2.044   0.891
  450SOL     OW11453   7.914   1.098   0.731
  450SOL    HW111454   8.002   1.092   0.682
  450SOL    HW211455   7.916   1.177   0.792
  451SOL     OW11456   7.850   9.717   0.293
  451SOL    HW111457   7.909   9.651   0.247
  451SOL    HW211458   7.838   9.798   0.236
  452SOL     OW11459   2.196   8.570   1.609
  452SOL    HW111460   2.117   8.570   1.548
  452SOL    HW211461   2.175   8.625   1.691
  453SOL     OW11462   1.290   7.066   0.966
  453SOL    HW111463   1.319   7.021   0.882
  453SOL    HW211464   1.365   7.122   1.002
  454SOL     OW11465   2.463   5.232   1.810
  454SOL    HW111466   2.491   5.281   1.727
  454SOL    HW211467   2.472   5.134   1.796
  455SOL     OW11468   1.048   3.847   0.885
  455SOL    HW111469   0.967   3.794   0.909
  455SOL    HW211470   1.020   3.927   0.830
  456SOL     OW11471   8.783   2.069   1.662
  456SOL    HW111472   8.704   2.043   1.607
  456SOL    HW211473   8.771   2.036   1.756
  457SOL     OW11474   7.999   1.158   1.705
  457SOL    HW111475   8.044   1.228   1.761
  457SOL    HW211476   7.922   1.119   1.755
  458SOL     OW11477   0.768   0.326   1.596
  458SOL    HW111478   0.692   0.373   1.552
  458SOL    HW211479   0.754   0.324   1.695
  459SOL     OW11480   9.036   8.675   2.047
  459SOL    HW111481   8.946   8.639   2.020
  459SOL    HW211482   9.067   8.629   2.130
  460SOL     OW11483   4.302   2.350   1.300
  460SOL    HW111484   4.270   2.268   1.347
  460SOL    HW211485   4.362   2.323   1.224
  461SOL     OW11486   8.643   2.914   0.374
  461SOL    HW111487   8.550   2.951   0.373
  461SOL    HW211488   8.644   2.826   0.421
  462SOL     OW11489   9.624   3.334   0.879
  462SOL    HW111490   9.578   3.252   0.845
  462SOL    HW211491   9.615   3.407   0.812
  463SOL     OW11492   0.362   5.205   1.045
  463SOL    HW111493   0.433   5.232   0.980
  463SOL    HW211494   0.294   5.278   1.052
  464SOL     OW11495   8.154   9.187   1.943
  464SOL    HW111496   8.229   9.236   1.900
  464SOL    HW211497   8.182   9.154   2.034
  465SOL     OW11498   2.341   7.832   1.649
  465SOL    HW111499   2.423   7.792   1.606
  465SOL    HW211500   2.352   7.832   1.748
  466SOL     OW11501   1.589   2.043   1.179
  466SOL    HW111502   1.570   2.040   1.081
  466SOL    HW211503   1.541   1.968   1.224
  467SOL     OW11504   1.969   8.597   1.456
  467SOL    HW111505   1.925   8.663   1.516
  467SOL    HW211506   1.899   8.545   1.407
  468SOL     OW11507   0.951   2.906   0.533
  468SOL    HW111508   0.851   2.901   0.541
  468SOL    HW211509   0.987   2.818   0.503
  469SOL     OW11510   1.233   1.465   1.726
  469SOL    HW111511   1.221   1.435   1.631
  469SOL    HW211512   1.214   1.563   1.732
  470SOL     OW11513   3.974   3.276   2.058
  470SOL    HW111514   4.024   3.270   1.972
  470SOL    HW211515   3.960   3.185   2.095
  471SOL     OW11516   8.629   2.257   1.894
  471SOL    HW111517   8.690   2.302   1.829
  471SOL    HW211518   8.549   2.221   1.846
  472SOL     OW11519   4.642   2.579   1.464
  472SOL    HW111520   4.543   2.564   1.476
  472SOL    HW211521   4.692   2.498   1.494
  473SOL     OW11522   2.622   0.542   2.287
  473SOL    HW111523   2.564   0.467   2.253
  473SOL    HW211524   2.616   0.545   2.387
  474SOL     OW11525   3.385   9.192   2.116
  474SOL    HW111526   3.480   9.164   2.125
  474SOL    HW211527   3.381   9.289   2.091
  475SOL     OW11528   0.803   8.943   0.179
  475SOL    HW111529   0.885   8.988   0.215
  475SOL    HW211530   0.818   8.844   0.175
  476SOL     OW11531   0.487   8.778   0.155
  476SOL    HW111532   0.387   8.780   0.150
  476SOL    HW211533   0.522   8.871   0.163
  477SOL     OW11534   8.124   9.311   0.870
  477SOL    HW111535   8.056   9.336   0.801
  477SOL    HW211536   8.196   9.257   0.827
  478SOL     OW11537   4.246   1.493   2.122
  478SOL    HW111538   4.259   1.395   2.108
  478SOL    HW211539   4.160   1.508   2.172
  479SOL     OW11540   3.017   4.801   1.116
  479SOL    HW111541   2.940   4.747   1.081
  479SOL    HW211542   2.996   4.831   1.210
  480SOL     OW11543   2.993   0.247   1.945
  480SOL    HW111544   3.065   0.269   2.011
  480SOL    HW211545   2.906   0.240   1.992
  481SOL     OW11546   1.162   9.125   0.791
  481SOL    HW111547   1.254   9.104   0.824
  481SOL    HW211548   1.168   9.191   0.717
  482SOL     OW11549   1.049   4.949   2.079
  482SOL    HW111550   0.952   4.976   2.073
  482SOL    HW211551   1.097   5.015   2.136
  483SOL     OW11552   8.835   4.151   1.662
  483SOL    HW111553   8.828   4.210   1.743
  483SOL    HW211554   8.899   4.077   1.681
  484SOL     OW11555   1.662   5.233   1.884
  484SOL    HW111556   1.591   5.181   1.837
  484SOL    HW211557   1.706   5.175   1.953
  485SOL     OW11558   9.632   2.580   0.421
  485SOL    HW111559   9.673   2.499   0.380
  485SOL    HW211560   9.668   2.662   0.376
  486SOL     OW11561   9.492   0.358   0.694
  486SOL    HW111562   9.443   0.339   0.779
  486SOL    HW211563   9.509   0.272   0.645
  487SOL     OW11564   0.798   1.823   0.022
  487SOL    HW111565   0.852   1.887   2.909
  487SOL    HW211566   0.856   1.779   0.091
  488SOL     OW11567   9.509   4.092   0.497
  488SOL    HW111568   9.468   4.042   0.421
  488SOL    HW211569   9.442   4.102   0.570
  489SOL     OW11570   0.576   1.984   0.111
  489SOL    HW111571   0.619   2.011   0.197
  489SOL    HW211572   0.641   1.932   0.055
  490SOL     OW11573   0.710   8.478   0.334
  490SOL    HW111574   0.693   8.518   0.424
  490SOL    HW211575   0.633   8.500   0.273
  491SOL     OW11576   4.832   4.236   1.381
  491SOL    HW111577   4.831   4.156   1.440
  491SOL    HW211578   4.787   4.215   1.294
  492SOL     OW11579   8.777   0.689   1.658
  492SOL    HW111580   8.705   0.671   1.590
  492SOL    HW211581   8.758   0.637   1.741
  493SOL     OW11582   4.993   3.545   1.657
  493SOL    HW111583   4.955   3.631   1.693
  493SOL    HW211584   5.083   3.563   1.617
  494SOL     OW11585   1.263   2.792   0.673
  494SOL    HW111586   1.284   2.755   0.583
  494SOL    HW211587   1.180   2.749   0.709
  495SOL     OW11588   3.270   2.875   2.023
  495SOL    HW111589   3.361   2.872   2.063
  495SOL    HW211590   3.255   2.963   1.980
  496SOL     OW11591   0.410   7.130   0.870
  496SOL    HW111592   0.402   7.032   0.851
  496SOL    HW211593   0.425   7.179   0.785
  497SOL     OW11594   8.228   2.527   1.984
  497SOL    HW111595   8.151   2.466   1.966
  497SOL    HW211596   8.194   2.619   2.001
  498SOL     OW11597   4.606   3.602   0.667
  498SOL    HW111598   4.662   3.604   0.750
  498SOL    HW211599   4.591   3.696   0.636
  499SOL     OW11600   8.397   0.752   0.466
  499SOL    HW111601   8.375   0.785   0.375
  499SOL    HW211602   8.325   0.780   0.530
  500SOL     OW11603   9.891   2.815   0.765
  500SOL    HW111604   9.813   2.763   0.730
  500SOL    HW211605   9.945   2.850   0.689
  501SOL     OW11606   8.844   2.295   1.168
  501SOL    HW111607   8.942   2.306   1.183
  501SOL    HW211608   8.801   2.385   1.160
  502SOL     OW11609   9.310   3.239   1.942
  502SOL    HW111610   9.221   3.284   1.938
  502SOL    HW211611   9.307   3.152   1.892
  503SOL     OW11612   0.511   0.300   1.050
  503SOL    HW111613   0.565   0.216   1.063
  503SOL    HW211614   0.526   0.362   1.127
  504SOL     OW11615   3.843   3.884   1.377
  504SOL    HW111616   3.758   3.937   1.381
  504SOL    HW211617   3.821   3.788   1.358
  505SOL     OW11618   3.990   8.815   1.712
  505SOL    HW111619   3.929   8.894   1.713
  505SOL    HW211620   4.084   8.845   1.701
  506SOL     OW11621   9.042   9.555   0.556
  506SOL    HW111622   8.997   9.544   0.645
  506SOL    HW211623   9.019   9.477   0.498
  507SOL     OW11624   0.247   3.524   0.106
  507SOL    HW111625   0.163   3.492   0.064
  507SOL    HW211626   0.256   3.622   0.092
  508SOL     OW11627   9.490   4.554   2.171
  508SOL    HW111628   9.483   4.523   2.266
  508SOL    HW211629   9.582   4.538   2.137
  509SOL     OW11630   1.877   4.042   1.370
  509SOL    HW111631   1.908   3.978   1.440
  509SOL    HW211632   1.805   3.999   1.314
  510SOL     OW11633   3.571   5.487   1.192
  510SOL    HW111634   3.503   5.413   1.186
  510SOL    HW211635   3.613   5.486   1.282
  511SOL     OW11636   0.774   6.646   0.360
  511SOL    HW111637   0.837   6.593   0.417
  511SOL    HW211638   0.795   6.743   0.369
  512SOL     OW11639   0.642   6.786   1.617
  512SOL    HW111640   0.575   6.859   1.614
  512SOL    HW211641   0.729   6.819   1.581
  513SOL     OW11642   9.089   6.294   1.429
  513SOL    HW111643   9.135   6.250   1.352
  513SOL    HW211644   8.990   6.287   1.417
  514SOL     OW11645   1.835   2.724   2.106
  514SOL    HW111646   1.751   2.692   2.148
  514SOL    HW211647   1.890   2.645   2.077
  515SOL     OW11648   9.745   2.667   1.226
  515SOL    HW111649   9.727   2.766   1.226
  515SOL    HW211650   9.815   2.647   1.158
  516SOL     OW11651   3.696   9.166   0.831
  516SOL    HW111652   3.795   9.172   0.820
  516SOL    HW211653   3.668   9.070   0.827
  517SOL     OW11654   2.770   0.649   1.623
  517SOL    HW111655   2.857   0.637   1.575
  517SOL    HW211656   2.785   0.645   1.721
  518SOL     OW11657   9.981   1.173   0.538
  518SOL    HW111658   9.948   1.207   0.450
  518SOL    HW211659   9.917   1.105   0.574
  519SOL     OW11660   8.726   7.027   1.323
  519SOL    HW111661   8.694   7.079   1.244
  519SOL    HW211662   8.826   7.018   1.319
  520SOL     OW11663   3.883   3.011   1.436
  520SOL    HW111664   3.892   3.026   1.337
  520SOL    HW211665   3.855   3.097   1.480
  521SOL     OW11666   2.544   3.532   1.712
  521SOL    HW111667   2.631   3.574   1.687
  521SOL    HW211668   2.488   3.520   1.631
  522SOL     OW11669   3.001   1.509   0.723
  522SOL    HW111670   3.059   1.581   0.685
  522SOL    HW211671   2.985   1.439   0.654
  523SOL     OW11672   3.671   4.271   1.324
  523SOL    HW111673   3.590   4.259   1.382
  523SOL    HW211674   3.659   4.219   1.239
  524SOL     OW11675   2.539   3.053   1.861
  524SOL    HW111676   2.578   3.138   1.826
  524SOL    HW211677   2.453   3.035   1.814
  525SOL     OW11678   3.560   2.149   0.091
  525SOL    HW111679   3.464   2.132   0.116
  525SOL    HW211680   3.565   2.171   2.935
  526SOL     OW11681   8.955   0.386   1.935
  526SOL    HW111682   8.969   0.369   2.033
  526SOL    HW211683   8.884   0.456   1.923
  527SOL     OW11684   7.946   8.302   1.187
  527SOL    HW111685   7.970   8.206   1.171
  527SOL    HW211686   8.017   8.346   1.242
  528SOL     OW11687   3.160   2.672   1.316
  528SOL    HW111688   3.259   2.657   1.322
  528SOL    HW211689   3.143   2.764   1.281
  529SOL     OW11690   0.856   6.222   1.327
  529SOL    HW111691   0.933   6.186   1.274
  529SOL    HW211692   0.770   6.193   1.286
  530SOL     OW11693   4.489   3.671   0.975
  530SOL    HW111694   4.485   3.771   0.979
  530SOL    HW211695   4.579   3.643   0.943
  531SOL     OW11696   0.100   7.687   1.984
  531SOL    HW111697   0.083   7.611   1.921
  531SOL    HW211698   0.045   7.674   2.067
  532SOL     OW11699   1.918   9.828   0.090
  532SOL    HW111700   1.977   9.807   0.012
  532SOL    HW211701   1.822   9.816   0.063
  533SOL     OW11702   2.627   3.170   0.036
  533SOL    HW111703   2.711   3.224   0.045
  533SOL    HW211704   2.631   3.092   0.098
  534SOL     OW11705   2.969   5.034   0.205
  534SOL    HW111706   2.993   4.951   0.154
  534SOL    HW211707   2.885   5.073   0.167
  535SOL     OW11708   8.726   7.901   0.911
  535SOL    HW111709   8.675   7.826   0.868
  535SOL    HW211710   8.665   7.977   0.931
  536SOL     OW11711   3.031   1.964   0.310
  536SOL    HW111712   3.078   2.025   0.375
  536SOL    HW211713   3.026   1.872   0.349
  537SOL     OW11714   9.309   5.499   2.155
  537SOL    HW111715   9.390   5.557   2.146
  537SOL    HW211716   9.332   5.406   2.128
  538SOL     OW11717   9.381   7.601   1.148
  538SOL    HW111718   9.416   7.652   1.227
  538SOL    HW211719   9.453   7.595   1.078
  539SOL     OW11720   2.904   6.713   1.623
  539SOL    HW111721   2.854   6.798   1.607
  539SOL    HW211722   2.902   6.657   1.540
  540SOL     OW11723   0.894   7.705   0.491
  540SOL    HW111724   0.858   7.719   0.583
  540SOL    HW211725   0.908   7.794   0.447
  541SOL     OW11726   7.328   9.757   1.531
  541SOL    HW111727   7.248   9.712   1.570
  541SOL    HW211728   7.381   9.800   1.603
  542SOL     OW11729   3.816   4.262   1.565
  542SOL    HW111730   3.769   4.215   1.640
  542SOL    HW211731   3.756   4.266   1.485
  543SOL     OW11732   8.643   4.235   1.015
  543SOL    HW111733   8.693   4.316   1.043
  543SOL    HW211734   8.593   4.197   1.093
  544SOL     OW11735   1.026   3.601   1.373
  544SOL    HW111736   0.983   3.661   1.441
  544SOL    HW211737   0.979   3.610   1.286
  545SOL     OW11738   1.799   9.046   1.593
  545SOL    HW111739   1.790   9.103   1.675
  545SOL    HW211740   1.715   9.052   1.539
  546SOL     OW11741   0.321   0.210   0.858
  546SOL    HW111742   0.379   0.232   0.937
  546SOL    HW211743   0.363   0.245   0.775
  547SOL     OW11744   9.846   1.016   0.188
  547SOL    HW111745   9.771   0.994   0.250
  547SOL    HW211746   9.923   0.955   0.208
  548SOL     OW11747   2.823   9.633   0.761
  548SOL    HW111748   2.828   9.732   0.776
  548SOL    HW211749   2.735   9.599   0.794
  549SOL     OW11750   2.411   5.096   0.714
  549SOL    HW111751   2.360   5.082   0.799
  549SOL    HW211752   2.430   5.008   0.671
  550SOL     OW11753   0.733   9.948   2.146
  550SOL    HW111754   0.641   9.924   2.175
  550SOL    HW211755   0.730   0.002   2.062
  551SOL     OW11756   0.424   3.583   2.077
  551SOL    HW111757   0.327   3.603   2.090
  551SOL    HW211758   0.437   3.485   2.068
  552SOL     OW11759   0.290   5.325   0.158
  552SOL    HW111760   0.382   5.287   0.160
  552SOL    HW211761   0.224   5.251   0.141
  553SOL     OW11762   9.088   8.304   1.865
  553SOL    HW111763   9.113   8.304   1.961
  553SOL    HW211764   9.153   8.360   1.813
  554SOL     OW11765   0.969   7.942   0.928
  554SOL    HW111766   0.887   7.997   0.911
  554SOL    HW211767   1.021   7.982   1.003
  555SOL     OW11768   1.741   5.047   0.885
  555SOL    HW111769   1.656   5.097   0.899
  555SOL    HW211770   1.758   5.035   0.787
  556SOL     OW11771   8.470   8.666   1.985
  556SOL    HW111772   8.501   8.602   2.055
  556SOL    HW211773   8.403   8.729   2.025
  557SOL     OW11774   9.071   6.683   0.248
  557SOL    HW111775   9.079   6.623   0.328
  557SOL    HW211776   9.072   6.778   0.279
  558SOL     OW11777   0.439   7.313   0.369
  558SOL    HW111778   0.370   7.383   0.354
  558SOL    HW211779   0.471   7.279   0.280
  559SOL     OW11780   2.631   1.162   1.849
  559SOL    HW111781   2.612   1.194   1.756
  559SOL    HW211782   2.701   1.090   1.846
  560SOL     OW11783   8.912   6.861   1.974
  560SOL    HW111784   8.911   6.763   1.997
  560SOL    HW211785   8.983   6.878   1.906
  561SOL     OW11786   0.385   8.614   1.569
  561SOL    HW111787   0.429   8.537   1.524
  561SOL    HW211788   0.452   8.686   1.586
  562SOL     OW11789   8.299   8.045   1.038
  562SOL    HW111790   8.208   8.048   1.078
  562SOL    HW211791   8.350   7.968   1.078
  563SOL     OW11792   9.879   6.566   1.351
  563SOL    HW111793   9.813   6.492   1.363
  563SOL    HW211794   9.851   6.645   1.405
  564SOL     OW11795   4.581   2.952   0.756
  564SOL    HW111796   4.600   3.020   0.685
  564SOL    HW211797   4.654   2.953   0.824
  565SOL     OW11798   1.831   9.273   0.525
  565SOL    HW111799   1.801   9.191   0.574
  565SOL    HW211800   1.758   9.342   0.528
  566SOL     OW11801   2.057   6.725   0.898
  566SOL    HW111802   2.065   6.697   0.994
  566SOL    HW211803   2.000   6.659   0.849
  567SOL     OW11804   9.079   2.037   0.104
  567SOL    HW111805   9.140   2.059   0.028
  567SOL    HW211806   9.133   2.020   0.186
  568SOL     OW11807   4.418   9.869   2.075
  568SOL    HW111808   4.345   9.802   2.085
  568SOL    HW211809   4.484   9.858   2.150
  569SOL     OW11810   3.338   9.848   0.180
  569SOL    HW111811   3.266   9.780   0.166
  569SOL    HW211812   3.297   9.938   0.196
  570SOL     OW11813   2.328   5.444   0.862
  570SOL    HW111814   2.254   5.420   0.799
  570SOL    HW211815   2.415   5.408   0.827
  571SOL     OW11816   1.580   5.806   0.820
  571SOL    HW111817   1.521   5.887   0.813
  571SOL    HW211818   1.672   5.834   0.846
  572SOL     OW11819   3.431   8.320   0.231
  572SOL    HW111820   3.489   8.386   0.277
  572SOL    HW211821   3.389   8.362   0.150
  573SOL     OW11822   8.823   6.256   1.382
  573SOL    HW111823   8.769   6.175   1.406
  573SOL    HW211824   8.781   6.301   1.303
  574SOL     OW11825   8.208   1.407   2.190
  574SOL    HW111826   8.205   1.475   2.117
  574SOL    HW211827   8.234   1.451   2.276
  575SOL     OW11828   8.648   5.894   2.091
  575SOL    HW111829   8.684   5.869   2.181
  575SOL    HW211830   8.713   5.867   2.020
  576SOL     OW11831   9.201   1.740   1.369
  576SOL    HW111832   9.113   1.701   1.345
  576SOL    HW211833   9.187   1.829   1.412
  577SOL     OW11834   1.127   9.453   1.439
  577SOL    HW111835   1.113   9.384   1.510
  577SOL    HW211836   1.223   9.479   1.435
  578SOL     OW11837   4.230   8.634   0.459
  578SOL    HW111838   4.170   8.702   0.501
  578SOL    HW211839   4.223   8.640   0.359
  579SOL     OW11840   8.600   1.362   1.107
  579SOL    HW111841   8.620   1.393   1.014
  579SOL    HW211842   8.685   1.331   1.150
  580SOL     OW11843   2.178   9.199   0.695
  580SOL    HW111844   2.180   9.115   0.641
  580SOL    HW211845   2.158   9.276   0.635
  581SOL     OW11846   4.419   3.418   1.368
  581SOL    HW111847   4.395   3.441   1.273
  581SOL    HW211848   4.516   3.394   1.373
  582SOL     OW11849   8.691   0.122   2.229
  582SOL    HW111850   8.778   0.117   2.179
  582SOL    HW211851   8.631   0.049   2.199
  583SOL     OW11852   8.979   8.345   1.205
  583SOL    HW111853   8.898   8.396   1.235
  583SOL    HW211854   8.950   8.261   1.159
  584SOL     OW11855   2.030   2.607   1.427
  584SOL    HW111856   2.098   2.536   1.411
  584SOL    HW211857   2.049   2.653   1.514
  585SOL     OW11858   8.553   5.726   0.170
  585SOL    HW111859   8.578   5.789   0.243
  585SOL    HW211860   8.469   5.758   0.126
  586SOL     OW11861   8.949   1.177   1.790
  586SOL    HW111862   8.961   1.237   1.711
  586SOL    HW211863   8.898   1.095   1.764
  587SOL     OW11864   9.326   8.674   1.041
  587SOL    HW111865   9.242   8.626   1.067
  587SOL    HW211866   9.306   8.770   1.022
  588SOL     OW11867   0.592   2.602   0.327
  588SOL    HW111868   0.557   2.571   0.238
  588SOL    HW211869   0.605   2.524   0.387
  589SOL     OW11870   1.794   6.648   2.069
  589SOL    HW111871   1.830   6.577   2.128
  589SOL    HW211872   1.695   6.639   2.063
  590SOL     OW11873   9.596   4.211   1.147
  590SOL    HW111874   9.527   4.274   1.182
  590SOL    HW211875   9.656   4.259   1.083
  591SOL     OW11876   8.416   0.470   0.792
  591SOL    HW111877   8.477   0.445   0.867
  591SOL    HW211878   8.357   0.546   0.821
  592SOL     OW11879   0.610   3.066   0.749
  592SOL    HW111880   0.535   3.034   0.807
  592SOL    HW211881   0.622   3.165   0.761
  593SOL     OW11882   4.730   2.711   1.240
  593SOL    HW111883   4.704   2.652   1.316
  593SOL    HW211884   4.749   2.803   1.273
  594SOL     OW11885   1.854   3.030   1.405
  594SOL    HW111886   1.773   3.066   1.359
  594SOL    HW211887   1.846   3.046   1.504
  595SOL     OW11888   3.533   8.949   1.891
  595SOL    HW111889   3.439   8.972   1.916
  595SOL    HW211890   3.534   8.865   1.836
  596SOL     OW11891   2.610   0.042   1.943
  596SOL    HW111892   2.534   0.079   1.891
  596SOL    HW211893   2.578   9.966   2.000
  597SOL     OW11894   9.567   7.118   1.711
  597SOL    HW111895   9.499   7.083   1.776
  597SOL    HW211896   9.524   7.184   1.650
  598SOL     OW11897   1.182   5.939   0.657
  598SOL    HW111898   1.135   6.020   0.622
  598SOL    HW211899   1.202   5.876   0.582
  599SOL     OW11900   9.366   2.591   0.999
  599SOL    HW111901   9.443   2.561   1.056
  599SOL    HW211902   9.307   2.514   0.979
  600SOL     OW11903   9.786   0.428   0.204
  600SOL    HW111904   9.778   0.432   0.303
  600SOL    HW211905   9.834   0.509   0.170
  601SOL     OW11906   3.355   5.533   2.091
  601SOL    HW111907   3.359   5.632   2.107
  601SOL    HW211908   3.419   5.487   2.152
  602SOL     OW11909   9.432   1.473   0.009
  602SOL    HW111910   9.421   1.401   0.076
  602SOL    HW211911   9.463   1.434   2.863
  603SOL     OW11912   4.054   4.310   1.015
  603SOL    HW111913   3.989   4.250   0.968
  603SOL    HW211914   4.005   4.369   1.079
  604SOL     OW11915   3.233   1.291   1.352
  604SOL    HW111916   3.198   1.384   1.367
  604SOL    HW211917   3.328   1.296   1.322
  605SOL     OW11918   1.528   3.726   1.359
  605SOL    HW111919   1.430   3.732   1.339
  605SOL    HW211920   1.556   3.630   1.365
  606SOL     OW11921   2.172   7.224   2.206
  606SOL    HW111922   2.239   7.158   2.171
  606SOL    HW211923   2.206   7.317   2.193
  607SOL     OW11924   4.409   9.335   0.455
  607SOL    HW111925   4.413   9.297   0.547
  607SOL    HW211926   4.470   9.283   0.395
  608SOL     OW11927   8.398   1.841   0.248
  608SOL    HW111928   8.324   1.862   0.184
  608SOL    HW211929   8.485   1.871   0.209
  609SOL     OW11930   8.676   7.805   1.931
  609SOL    HW111931   8.699   7.708   1.936
  609SOL    HW211932   8.760   7.858   1.920
  610SOL     OW11933   8.609   7.065   2.112
  610SOL    HW111934   8.516   7.033   2.130
  610SOL    HW211935   8.642   7.027   2.026
  611SOL     OW11936   8.478   7.600   1.632
  611SOL    HW111937   8.465   7.687   1.680
  611SOL    HW211938   8.547   7.612   1.561
  612SOL     OW11939   9.224   4.976   0.545
  612SOL    HW111940   9.161   5.035   0.494
  612SOL    HW211941   9.287   4.932   0.481
  613SOL     OW11942   9.030   8.438   0.700
  613SOL    HW111943   9.087   8.514   0.667
  613SOL    HW211944   9.079   8.352   0.687
  614SOL     OW11945   7.568   0.783   0.840
  614SOL    HW111946   7.628   0.833   0.778
  614SOL    HW211947   7.608   0.781   0.931
  615SOL     OW11948   0.402   2.220   0.568
  615SOL    HW111949   0.400   2.217   0.668
  615SOL    HW211950   0.406   2.126   0.533
  616SOL     OW11951   8.986   9.361   1.915
  616SOL    HW111952   8.963   9.444   1.967
  616SOL    HW211953   8.915   9.344   1.846
  617SOL     OW11954   8.175   2.011   0.486
  617SOL    HW111955   8.190   1.912   0.474
  617SOL    HW211956   8.263   2.054   0.509
  618SOL     OW11957   3.853   2.248   1.995
  618SOL    HW111958   3.927   2.197   2.038
  618SOL    HW211959   3.786   2.185   1.957
  619SOL     OW11960   9.893   4.757   0.597
  619SOL    HW111961   9.976   4.788   0.644
  619SOL    HW211962   9.829   4.719   0.663
  620SOL     OW11963   2.422   2.438   0.441
  620SOL    HW111964   2.358   2.511   0.418
  620SOL    HW211965   2.433   2.377   0.362
  621SOL     OW11966   2.462   0.306   0.689
  621SOL    HW111967   2.558   0.334   0.691
  621SOL    HW211968   2.453   0.219   0.641
  622SOL     OW11969   0.963   3.055   0.985
  622SOL    HW111970   1.056   3.046   1.021
  622SOL    HW211971   0.915   3.128   1.033
  623SOL     OW11972   9.753   7.385   1.583
  623SOL    HW111973   9.689   7.402   1.658
  623SOL    HW211974   9.708   7.407   1.496
  624SOL     OW11975   2.715   7.836   0.638
  624SOL    HW111976   2.708   7.757   0.698
  624SOL    HW211977   2.627   7.853   0.594
  625SOL     OW11978   1.800   6.151   1.611
  625SOL    HW111979   1.727   6.208   1.646
  625SOL    HW211980   1.761   6.075   1.558
  626SOL     OW11981   0.571   7.575   1.371
  626SOL    HW111982   0.651   7.612   1.324
  626SOL    HW211983   0.561   7.621   1.460
  627SOL     OW11984   8.863   5.483   1.640
  627SOL    HW111985   8.838   5.545   1.566
  627SOL    HW211986   8.962   5.486   1.655
  628SOL     OW11987   4.744   0.758   0.485
  628SOL    HW111988   4.699   0.824   0.544
  628SOL    HW211989   4.768   0.677   0.538
  629SOL     OW11990   9.688   4.321   0.500
  629SOL    HW111991   9.621   4.249   0.484
  629SOL    HW211992   9.743   4.298   0.580
  630SOL     OW11993   8.708   3.792   0.735
  630SOL    HW111994   8.681   3.790   0.639
  630SOL    HW211995   8.783   3.728   0.751
  631SOL     OW11996   1.570   7.156   0.772
  631SOL    HW111997   1.627   7.236   0.753
  631SOL    HW211998   1.478   7.171   0.735
  632SOL     OW11999   1.566   4.733   0.538
  632SOL    HW112000   1.529   4.741   0.446
  632SOL    HW212001   1.665   4.740   0.535
  633SOL     OW12002   2.647   1.517   1.009
  633SOL    HW112003   2.577   1.580   0.976
  633SOL    HW212004   2.622   1.424   0.986
  634SOL     OW12005   2.066   9.272   1.832
  634SOL    HW112006   2.141   9.208   1.818
  634SOL    HW212007   2.060   9.297   1.929
  635SOL     OW12008   4.815   1.701   0.632
  635SOL    HW112009   4.797   1.741   0.722
  635SOL    HW212010   4.843   1.773   0.568
  636SOL     OW12011   1.764   8.466   1.320
  636SOL    HW112012   1.752   8.460   1.221
  636SOL    HW212013   1.684   8.511   1.360
  637SOL     OW12014   3.836   9.666   0.166
  637SOL    HW112015   3.829   9.598   0.238
  637SOL    HW212016   3.746   9.709   0.152
  638SOL     OW12017   9.663   0.318   2.310
  638SOL    HW112018   9.579   0.341   2.358
  638SOL    HW212019   9.641   0.281   2.219
  639SOL     OW12020   3.046   1.666   1.644
  639SOL    HW112021   3.022   1.699   1.553
  639SOL    HW212022   2.973   1.690   1.708
  640SOL     OW12023   1.241   3.435   1.597
  640SOL    HW112024   1.217   3.509   1.661
  640SOL    HW212025   1.339   3.416   1.604
  641SOL     OW12026   9.114   9.293   0.208
  641SOL    HW112027   9.196   9.235   0.207
  641SOL    HW212028   9.054   9.265   0.133
  642SOL     OW12029   0.499   4.110   1.839
  642SOL    HW112030   0.556   4.042   1.793
  642SOL    HW212031   0.441   4.065   1.907
  643SOL     OW12032   9.435   6.550   1.289
  643SOL    HW112033   9.500   6.552   1.213
  643SOL    HW212034   9.481   6.583   1.372
  644SOL     OW12035   2.142   2.359   1.843
  644SOL    HW112036   2.150   2.326   1.749
  644SOL    HW212037   2.138   2.281   1.905
  645SOL     OW12038   3.775   3.455   0.907
  645SOL    HW112039   3.709   3.519   0.868
  645SOL    HW212040   3.754   3.362   0.878
  646SOL     OW12041   9.267   6.284   0.841
  646SOL    HW112042   9.279   6.232   0.756
  646SOL    HW212043   9.268   6.382   0.821
  647SOL     OW12044   3.725   4.628   1.852
  647SOL    HW112045   3.722   4.646   1.950
  647SOL    HW212046   3.665   4.551   1.829
  648SOL     OW12047   2.712   4.412   2.245
  648SOL    HW112048   2.659   4.494   2.265
  648SOL    HW212049   2.661   4.331   2.273
  649SOL     OW12050   2.840   2.628   1.042
  649SOL    HW112051   2.827   2.711   1.095
  649SOL    HW212052   2.934   2.595   1.052
  650SOL     OW12053   0.611   5.480   2.097
  650SOL    HW112054   0.587   5.577   2.105
  650SOL    HW212055   0.538   5.424   2.133
  651SOL     OW12056   2.332   3.766   1.558
  651SOL    HW112057   2.375   3.682   1.526
  651SOL    HW212058   2.251   3.744   1.612
  652SOL     OW12059   3.196   4.406   1.780
  652SOL    HW112060   3.198   4.370   1.874
  652SOL    HW212061   3.181   4.505   1.783
  653SOL     OW12062   8.574   1.975   0.934
  653SOL    HW112063   8.561   1.901   0.868
  653SOL    HW212064   8.573   1.938   1.027
  654SOL     OW12065   9.102   1.109   2.012
  654SOL    HW112066   9.045   1.070   2.085
  654SOL    HW212067   9.043   1.140   1.937
  655SOL     OW12068   0.246   7.519   0.398
  655SOL    HW112069   0.159   7.470   0.386
  655SOL    HW212070   0.234   7.614   0.372
  656SOL     OW12071   1.602   0.559   1.318
  656SOL    HW112072   1.687   0.517   1.351
  656SOL    HW212073   1.574   0.516   1.233
  657SOL     OW12074   4.330   1.656   1.488
  657SOL    HW112075   4.422   1.632   1.460
  657SOL    HW212076   4.329   1.680   1.585
  658SOL     OW12077   2.443   4.259   0.350
  658SOL    HW112078   2.424   4.278   0.254
  658SOL    HW212079   2.494   4.174   0.359
  659SOL     OW12080   2.168   6.437   0.244
  659SOL    HW112081   2.175   6.413   0.341
  659SOL    HW212082   2.246   6.494   0.218
  660SOL     OW12083   9.131   8.744   0.284
  660SOL    HW112084   9.040   8.703   0.289
  660SOL    HW212085   9.127   8.839   0.312
  661SOL     OW12086   9.379   4.562   0.312
  661SOL    HW112087   9.317   4.500   0.264
  661SOL    HW212088   9.372   4.546   0.410
  662SOL     OW12089   7.837   9.260   1.185
  662SOL    HW112090   7.742   9.281   1.210
  662SOL    HW212091   7.844   9.162   1.165
  663SOL     OW12092   9.785   5.216   0.657
  663SOL    HW112093   9.773   5.312   0.684
  663SOL    HW212094   9.846   5.211   0.578
  664SOL     OW12095   9.493   1.540   1.713
  664SOL    HW112096   9.476   1.571   1.620
  664SOL    HW212097   9.590   1.520   1.724
  665SOL     OW12098   7.926   9.952   1.122
  665SOL    HW112099   7.920   9.861   1.080
  665SOL    HW212100   8.012   9.960   1.173
  666SOL     OW12101   1.954   4.157   0.533
  666SOL    HW112102   1.912   4.074   0.568
  666SOL    HW212103   2.052   4.142   0.519
  667SOL     OW12104   0.570   3.926   1.450
  667SOL    HW112105   0.660   3.959   1.421
  667SOL    HW212106   0.503   4.000   1.441
  668SOL     OW12107   8.747   4.327   0.404
  668SOL    HW112108   8.752   4.332   0.503
  668SOL    HW212109   8.829   4.369   0.364
  669SOL     OW12110   3.617   2.930   0.647
  669SOL    HW112111   3.530   2.977   0.640
  669SOL    HW212112   3.645   2.925   0.742
  670SOL     OW12113   0.066   8.334   1.683
  670SOL    HW112114   9.998   8.263   1.700
  670SOL    HW212115   0.090   8.379   1.769
  671SOL     OW12116   9.809   3.212   0.295
  671SOL    HW112117   9.713   3.234   0.278
  671SOL    HW212118   9.835   3.132   0.240
  672SOL     OW12119   1.086   7.144   1.984
  672SOL    HW112120   0.989   7.133   2.004
  672SOL    HW212121   1.140   7.112   2.062
  673SOL     OW12122   1.114   6.539   1.436
  673SOL    HW112123   1.130   6.636   1.415
  673SOL    HW212124   1.016   6.520   1.430
  674SOL     OW12125   3.953   0.464   0.588
  674SOL    HW112126   3.913   0.417   0.509
  674SOL    HW212127   4.052   0.469   0.578
  675SOL     OW12128   0.696   6.586   1.795
  675SOL    HW112129   0.684   6.656   1.724
  675SOL    HW212130   0.735   6.504   1.754
  676SOL     OW12131   1.544   8.410   1.783
  676SOL    HW112132   1.459   8.407   1.729
  676SOL    HW212133   1.526   8.378   1.876
  677SOL     OW12134   9.244   4.349   1.796
  677SOL    HW112135   9.261   4.447   1.804
  677SOL    HW212136   9.207   4.329   1.705
  678SOL     OW12137   1.530   2.015   0.914
  678SOL    HW112138   1.491   2.072   0.841
  678SOL    HW212139   1.571   1.933   0.874
  679SOL     OW12140   0.810   0.937   0.879
  679SOL    HW112141   0.812   0.839   0.899
  679SOL    HW212142   0.854   0.954   0.791
  680SOL     OW12143   3.514   3.849   0.633
  680SOL    HW112144   3.499   3.933   0.685
  680SOL    HW212145   3.439   3.837   0.567
  681SOL     OW12146   1.389   6.938   1.715
  681SOL    HW112147   1.416   6.910   1.807
  681SOL    HW212148   1.418   7.032   1.698
  682SOL     OW12149   8.046   2.509   0.710
  682SOL    HW112150   8.141   2.532   0.731
  682SOL    HW212151   8.041   2.413   0.681
  683SOL     OW12152   3.041   9.111   0.381
  683SOL    HW112153   3.030   9.134   0.478
  683SOL    HW212154   3.002   9.020   0.364
  684SOL     OW12155   1.123   3.480   0.682
  684SOL    HW112156   1.024   3.469   0.672
  684SOL    HW212157   1.158   3.413   0.748
  685SOL     OW12158   2.910   3.293   1.008
  685SOL    HW112159   2.999   3.287   0.965
  685SOL    HW212160   2.904   3.378   1.060
  686SOL     OW12161   3.587   8.660   0.136
  686SOL    HW112162   3.676   8.705   0.141
  686SOL    HW212163   3.576   8.600   0.216
  687SOL     OW12164   1.608   4.347   0.625
  687SOL    HW112165   1.537   4.417   0.622
  687SOL    HW212166   1.646   4.334   0.533
  688SOL     OW12167   1.881   0.319   1.857
  688SOL    HW112168   1.926   0.392   1.908
  688SOL    HW212169   1.863   0.241   1.917
  689SOL     OW12170   2.417   2.245   0.219
  689SOL    HW112171   2.352   2.173   0.195
  689SOL    HW212172   2.430   2.306   0.141
  690SOL     OW12173   0.928   4.346   0.567
  690SOL    HW112174   0.972   4.400   0.638
  690SOL    HW212175   0.834   4.377   0.555
  691SOL     OW12176   7.717   9.698   0.827
  691SOL    HW112177   7.798   9.699   0.886
  691SOL    HW212178   7.746   9.697   0.732
  692SOL     OW12179   2.316   8.854   1.421
  692SOL    HW112180   2.305   8.862   1.520
  692SOL    HW212181   2.409   8.825   1.399
  693SOL     OW12182   3.085   2.292   0.692
  693SOL    HW112183   3.096   2.382   0.650
  693SOL    HW212184   3.114   2.296   0.788
  694SOL     OW12185   1.176   4.788   0.425
  694SOL    HW112186   1.167   4.755   0.519
  694SOL    HW212187   1.271   4.775   0.395
  695SOL     OW12188   0.089   8.584   2.281
  695SOL    HW112189   0.049   8.602   2.191
  695SOL    HW212190   0.051   8.648   2.347
  696SOL     OW12191   7.931   1.462   1.225
  696SOL    HW112192   7.854   1.434   1.167
  696SOL    HW212193   7.936   1.401   1.304
  697SOL     OW12194   2.167   7.917   2.077
  697SOL    HW112195   2.161   8.015   2.096
  697SOL    HW212196   2.172   7.867   2.163
  698SOL     OW12197   0.777   0.301   0.220
  698SOL    HW112198   0.804   0.350   0.137
  698SOL    HW212199   0.700   0.348   0.263
  699SOL     OW12200   2.913   3.654   0.167
  699SOL    HW112201   2.836   3.627   0.224
  699SOL    HW212202   2.908   3.752   0.148
  700SOL     OW12203   2.651   3.971   0.958
  700SOL    HW112204   2.625   4.029   1.035
  700SOL    HW212205   2.734   3.920   0.981
  701SOL     OW12206   0.877   7.452   1.406
  701SOL    HW112207   0.841   7.468   1.498
  701SOL    HW212208   0.976   7.462   1.406
  702SOL     OW12209   9.160   1.239   1.426
  702SOL    HW112210   9.250   1.224   1.469
  702SOL    HW212211   9.115   1.152   1.412
  703SOL     OW12212   1.148   6.070   2.011
  703SOL    HW112213   1.242   6.071   1.976
  703SOL    HW212214   1.132   5.986   2.062
  704SOL     OW12215   0.435   7.281   0.637
  704SOL    HW112216   0.427   7.279   0.537
  704SOL    HW212217   0.392   7.363   0.673
  705SOL     OW12218   2.104   7.406   1.201
  705SOL    HW112219   2.099   7.323   1.146
  705SOL    HW212220   2.179   7.463   1.168
  706SOL     OW12221   9.481   6.769   1.707
  706SOL    HW112222   9.499   6.700   1.637
  706SOL    HW212223   9.567   6.795   1.752
  707SOL     OW12224   4.567   9.139   0.330
  707SOL    HW112225   4.545   9.061   0.388
  707SOL    HW212226   4.535   9.121   0.237
  708SOL     OW12227   9.762   5.796   1.104
  708SOL    HW112228   9.854   5.795   1.065
  708SOL    HW212229   9.725   5.703   1.102
  709SOL     OW12230   8.671   2.168   0.254
  709SOL    HW112231   8.758   2.208   0.224
  709SOL    HW212232   8.661   2.077   0.214
  710SOL     OW12233   0.153   8.889   1.220
  710SOL    HW112234   0.157   8.978   1.265
  710SOL    HW212235   0.240   8.871   1.173
  711SOL     OW12236   5.276   3.466   1.288
  711SOL    HW112237   5.179   3.451   1.307
  711SOL    HW212238   5.316   3.381   1.253
  712SOL     OW12239   2.800   7.885   1.897
  712SOL    HW112240   2.784   7.885   1.799
  712SOL    HW212241   2.729   7.938   1.943
  713SOL     OW12242   3.180   1.560   1.366
  713SOL    HW112243   3.106   1.625   1.384
  713SOL    HW212244   3.268   1.601   1.391
  714SOL     OW12245   1.337   1.322   2.153
  714SOL    HW112246   1.266   1.337   2.084
  714SOL    HW212247   1.331   1.228   2.186
  715SOL     OW12248   2.291   8.364   1.439
  715SOL    HW112249   2.226   8.289   1.424
  715SOL    HW212250   2.252   8.430   1.503
  716SOL     OW12251   2.767   8.735   2.010
  716SOL    HW112252   2.753   8.816   1.953
  716SOL    HW212253   2.687   8.721   2.068
  717SOL     OW12254   0.872   0.093   1.490
  717SOL    HW112255   0.929   0.106   1.409
  717SOL    HW212256   0.829   0.180   1.514
  718SOL     OW12257   8.625   8.093   0.674
  718SOL    HW112258   8.588   8.010   0.631
  718SOL    HW212259   8.595   8.097   0.770
  719SOL     OW12260   8.959   0.761   0.793
  719SOL    HW112261   8.948   0.857   0.820
  719SOL    HW212262   9.057   0.740   0.784
  720SOL     OW12263   1.753   6.896   2.339
  720SOL    HW112264   1.806   6.979   2.323
  720SOL    HW212265   1.815   6.819   2.357
  721SOL     OW12266   8.108   8.134   0.084
  721SOL    HW112267   8.186   8.097   0.133
  721SOL    HW212268   8.081   8.071   0.011
  722SOL     OW12269   1.627   5.623   1.205
  722SOL    HW112270   1.576   5.653   1.286
  722SOL    HW212271   1.702   5.564   1.233
  723SOL     OW12272   9.844   4.272   1.556
  723SOL    HW112273   9.754   4.301   1.591
  723SOL    HW212274   9.878   4.339   1.491
  724SOL     OW12275   0.300   9.326   1.168
  724SOL    HW112276   0.234   9.396   1.142
  724SOL    HW212277   0.351   9.296   1.087
  725SOL     OW12278   0.585   1.975   2.046
  725SOL    HW112279   0.626   1.889   2.016
  725SOL    HW212280   0.651   2.049   2.034
  726SOL     OW12281   8.769   9.389   1.390
  726SOL    HW112282   8.761   9.450   1.469
  726SOL    HW212283   8.767   9.294   1.421
  727SOL     OW12284   0.806   2.225   0.481
  727SOL    HW112285   0.738   2.298   0.490
  727SOL    HW212286   0.837   2.197   0.572
  728SOL     OW12287   0.411   1.940   0.526
  728SOL    HW112288   0.419   1.911   0.431
  728SOL    HW212289   0.482   1.896   0.581
  729SOL     OW12290   2.818   0.769   1.261
  729SOL    HW112291   2.734   0.822   1.259
  729SOL    HW212292   2.810   0.691   1.198
  730SOL     OW12293   9.530   2.985   0.347
  730SOL    HW112294   9.601   2.915   0.335
  730SOL    HW212295   9.542   3.057   0.279
  731SOL     OW12296   9.082   2.372   0.366
  731SOL    HW112297   9.162   2.341   0.418
  731SOL    HW212298   9.091   2.470   0.348
  732SOL     OW12299   3.063   8.384   0.574
  732SOL    HW112300   2.983   8.325   0.582
  732SOL    HW212301   3.106   8.395   0.664
  733SOL     OW12302   9.026   9.664   0.275
  733SOL    HW112303   9.062   9.613   0.353
  733SOL    HW212304   9.093   9.661   0.200
  734SOL     OW12305   7.912   1.744   1.169
  734SOL    HW112306   7.914   1.649   1.201
  734SOL    HW212307   7.890   1.745   1.071
  735SOL     OW12308   0.303   6.265   0.200
  735SOL    HW112309   0.388   6.244   0.249
  735SOL    HW212310   0.324   6.320   0.119
  736SOL     OW12311   1.136   8.054   1.119
  736SOL    HW112312   1.174   8.143   1.094
  736SOL    HW212313   1.209   7.993   1.147
  737SOL     OW12314   1.924   6.053   0.271
  737SOL    HW112315   2.009   6.078   0.317
  737SOL    HW212316   1.942   6.036   0.174
  738SOL     OW12317   8.670   7.199   1.117
  738SOL    HW112318   8.678   7.208   1.017
  738SOL    HW212319   8.692   7.287   1.160
  739SOL     OW12320   0.634   5.192   1.870
  739SOL    HW112321   0.616   5.134   1.791
  739SOL    HW212322   0.647   5.287   1.840
  740SOL     OW12323   9.071   4.007   0.831
  740SOL    HW112324   9.092   3.909   0.836
  740SOL    HW212325   8.989   4.020   0.776
  741SOL     OW12326   0.556   1.045   0.979
  741SOL    HW112327   0.654   1.030   0.963
  741SOL    HW212328   0.538   1.047   1.078
  742SOL     OW12329   2.028   0.532   0.789
  742SOL    HW112330   2.051   0.556   0.883
  742SOL    HW212331   2.001   0.435   0.785
  743SOL     OW12332   9.144   4.018   1.303
  743SOL    HW112333   9.142   4.078   1.222
  743SOL    HW212334   9.112   3.927   1.277
  744SOL     OW12335   9.286   5.136   2.299
  744SOL    HW112336   9.201   5.176   2.330
  744SOL    HW212337   9.318   5.185   2.217
  745SOL     OW12338   3.756   9.932   2.067
  745SOL    HW112339   3.770   0.029   2.049
  745SOL    HW212340   3.673   9.920   2.121
  746SOL     OW12341   3.062   3.832   0.611
  746SOL    HW112342   3.060   3.905   0.679
  746SOL    HW212343   2.968   3.806   0.588
  747SOL     OW12344   8.259   1.728   0.449
  747SOL    HW112345   8.301   1.639   0.468
  747SOL    HW212346   8.310   1.774   0.378
  748SOL     OW12347   1.829   9.753   0.752
  748SOL    HW112348   1.801   9.818   0.822
  748SOL    HW212349   1.797   9.662   0.776
  749SOL     OW12350   1.629   9.815   1.655
  749SOL    HW112351   1.685   9.782   1.732
  749SOL    HW212352   1.665   9.777   1.570
  750SOL     OW12353   8.053   8.049   1.165
  750SOL    HW112354   8.090   8.058   1.257
  750SOL    HW212355   8.005   7.962   1.156
  751SOL     OW12356   7.845   0.152   1.508
  751SOL    HW112357   7.749   0.155   1.536
  751SOL    HW212358   7.888   0.241   1.526
  752SOL     OW12359   9.818   0.987   0.669
  752SOL    HW112360   9.774   0.910   0.622
  752SOL    HW212361   9.752   1.034   0.727
  753SOL     OW12362   3.903   5.247   1.289
  753SOL    HW112363   3.929   5.297   1.372
  753SOL    HW212364   3.906   5.149   1.308
  754SOL     OW12365   4.050   9.617   0.874
  754SOL    HW112366   3.995   9.700   0.865
  754SOL    HW212367   4.147   9.640   0.860
  755SOL     OW12368   4.536   2.648   0.248
  755SOL    HW112369   4.533   2.553   0.279
  755SOL    HW212370   4.529   2.709   0.327
  756SOL     OW12371   3.725   2.340   1.682
  756SOL    HW112372   3.720   2.328   1.582
  756SOL    HW212373   3.633   2.335   1.720
  757SOL     OW12374   9.946   8.028   1.498
  757SOL    HW112375   0.045   8.038   1.497
  757SOL    HW212376   9.907   8.067   1.415
  758SOL     OW12377   8.788   0.482   1.382
  758SOL    HW112378   8.714   0.542   1.415
  758SOL    HW212379   8.824   0.519   1.296
  759SOL     OW12380   1.106   8.026   0.493
  759SOL    HW112381   1.152   8.098   0.440
  759SOL    HW212382   1.029   7.991   0.439
  760SOL     OW12383   3.134   3.183   0.597
  760SOL    HW112384   3.152   3.218   0.505
  760SOL    HW212385   3.038   3.153   0.602
  761SOL     OW12386   9.110   6.520   0.466
  761SOL    HW112387   9.027   6.487   0.511
  761SOL    HW212388   9.188   6.466   0.496
  762SOL     OW12389   2.130   9.878   1.303
  762SOL    HW112390   2.177   9.965   1.292
  762SOL    HW212391   2.082   9.855   1.218
  763SOL     OW12392   8.295   0.255   0.677
  763SOL    HW112393   8.197   0.268   0.661
  763SOL    HW212394   8.336   0.340   0.709
  764SOL     OW12395   4.749   4.745   0.150
  764SOL    HW112396   4.686   4.727   0.225
  764SOL    HW212397   4.755   4.844   0.134
  765SOL     OW12398   4.732   4.067   0.631
  765SOL    HW112399   4.785   4.056   0.546
  765SOL    HW212400   4.671   4.146   0.621
  766SOL     OW12401   0.837   8.760   1.150
  766SOL    HW112402   0.831   8.756   1.050
  766SOL    HW212403   0.753   8.724   1.190
  767SOL     OW12404   9.120   4.394   1.169
  767SOL    HW112405   9.053   4.382   1.242
  767SOL    HW212406   9.127   4.309   1.116
  768SOL     OW12407   2.234   0.791   1.736
  768SOL    HW112408   2.331   0.782   1.714
  768SOL    HW212409   2.214   0.885   1.764
  769SOL     OW12410   4.120   0.787   2.093
  769SOL    HW112411   4.200   0.774   2.151
  769SOL    HW212412   4.093   0.700   2.053
  770SOL     OW12413   1.459   1.246   1.037
  770SOL    HW112414   1.378   1.197   1.070
  770SOL    HW212415   1.440   1.344   1.033
  771SOL     OW12416   1.864   7.615   0.455
  771SOL    HW112417   1.948   7.613   0.401
  771SOL    HW212418   1.887   7.607   0.552
  772SOL     OW12419   4.028   3.428   0.793
  772SOL    HW112420   3.946   3.445   0.847
  772SOL    HW212421   4.102   3.396   0.852
  773SOL     OW12422   1.231   1.666   1.394
  773SOL    HW112423   1.314   1.718   1.416
  773SOL    HW212424   1.243   1.571   1.421
  774SOL     OW12425   3.392   3.924   2.141
  774SOL    HW112426   3.380   4.018   2.111
  774SOL    HW212427   3.490   3.906   2.156
  775SOL     OW12428   0.844   3.973   1.869
  775SOL    HW112429   0.904   4.042   1.829
  775SOL    HW212430   0.770   3.952   1.805
  776SOL     OW12431   0.522   6.774   0.198
  776SOL    HW112432   0.535   6.847   0.264
  776SOL    HW212433   0.612   6.745   0.164
  777SOL     OW12434   1.364   9.752   1.672
  777SOL    HW112435   1.455   9.789   1.650
  777SOL    HW212436   1.304   9.761   1.593
  778SOL     OW12437   3.644   1.253   1.623
  778SOL    HW112438   3.667   1.309   1.543
  778SOL    HW212439   3.707   1.274   1.697
  779SOL     OW12440   0.931   3.760   0.271
  779SOL    HW112441   0.889   3.828   0.331
  779SOL    HW212442   0.862   3.692   0.246
  780SOL     OW12443   1.937   7.843   1.644
  780SOL    HW112444   2.002   7.788   1.591
  780SOL    HW212445   1.849   7.847   1.597
  781SOL     OW12446   8.300   8.856   2.088
  781SOL    HW112447   8.307   8.950   2.120
  781SOL    HW212448   8.222   8.811   2.131
  782SOL     OW12449   2.450   8.365   0.245
  782SOL    HW112450   2.386   8.427   0.289
  782SOL    HW212451   2.399   8.289   0.203
  783SOL     OW12452   3.301   1.679   1.742
  783SOL    HW112453   3.310   1.601   1.804
  783SOL    HW212454   3.210   1.678   1.700
  784SOL     OW12455   8.351   9.327   1.821
  784SOL    HW112456   8.304   9.300   1.737
  784SOL    HW212457   8.442   9.287   1.823
  785SOL     OW12458   9.704   2.348   0.287
  785SOL    HW112459   9.749   2.259   0.300
  785SOL    HW212460   9.610   2.334   0.255
  786SOL     OW12461   8.743   2.007   1.920
  786SOL    HW112462   8.769   1.971   2.010
  786SOL    HW212463   8.700   2.097   1.931
  787SOL     OW12464   8.890   1.413   1.929
  787SOL    HW112465   8.915   1.336   1.869
  787SOL    HW212466   8.867   1.378   2.019
  788SOL     OW12467   4.767   3.130   1.560
  788SOL    HW112468   4.779   3.213   1.614
  788SOL    HW212469   4.714   3.063   1.612
  789SOL     OW12470   3.680   1.443   2.053
  789SOL    HW112471   3.611   1.515   2.047
  789SOL    HW212472   3.767   1.483   2.082
  790SOL     OW12473   0.343   6.420   2.915
  790SOL    HW112474   0.305   6.377   2.833
  790SOL    HW212475   0.312   6.515   2.920
  791SOL     OW12476   8.871   0.270   1.704
  791SOL    HW112477   8.928   0.288   1.624
  791SOL    HW212478   8.908   0.320   1.783
  792SOL     OW12479   0.865   3.726   1.989
  792SOL    HW112480   0.869   3.817   1.947
  792SOL    HW212481   0.940   3.670   1.954
  793SOL     OW12482   0.733   2.212   1.983
  793SOL    HW112483   0.807   2.254   1.930
  793SOL    HW212484   0.655   2.274   1.986
  794SOL     OW12485   8.660   0.284   1.520
  794SOL    HW112486   8.706   0.350   1.461
  794SOL    HW212487   8.715   0.268   1.602
  795SOL     OW12488   0.435   8.835   0.587
  795SOL    HW112489   0.468   8.838   0.681
  795SOL    HW212490   0.400   8.743   0.567
  796SOL     OW12491   2.480   2.433   1.309
  796SOL    HW112492   2.498   2.505   1.376
  796SOL    HW212493   2.550   2.436   1.238
  797SOL     OW12494   1.070   8.417   0.580
  797SOL    HW112495   1.137   8.479   0.538
  797SOL    HW212496   1.022   8.367   0.507
  798SOL     OW12497   1.874   4.218   0.937
  798SOL    HW112498   1.878   4.258   0.845
  798SOL    HW212499   1.894   4.290   1.004
  799SOL     OW12500   4.072   1.716   1.419
  799SOL    HW112501   4.166   1.687   1.441
  799SOL    HW212502   4.045   1.789   1.482
  800SOL     OW12503   0.573   1.662   0.038
  800SOL    HW112504   0.526   1.655   2.891
  800SOL    HW212505   0.656   1.717   0.027
  801SOL     OW12506   2.380   0.592   1.485
  801SOL    HW112507   2.302   0.551   1.532
  801SOL    HW212508   2.428   0.653   1.548
  802SOL     OW12509   1.173   1.964   2.024
  802SOL    HW112510   1.245   1.967   1.954
  802SOL    HW212511   1.139   2.057   2.040
  803SOL     OW12512   4.183   2.106   1.604
  803SOL    HW112513   4.178   2.140   1.698
  803SOL    HW212514   4.275   2.070   1.587
  804SOL     OW12515   8.295   8.780   1.167
  804SOL    HW112516   8.290   8.840   1.087
  804SOL    HW212517   8.390   8.771   1.196
  805SOL     OW12518   2.559   1.253   1.602
  805SOL    HW112519   2.468   1.278   1.571
  805SOL    HW212520   2.605   1.198   1.532
  806SOL     OW12521   1.774   8.390   0.223
  806SOL    HW112522   1.868   8.411   0.250
  806SOL    HW212523   1.711   8.440   0.282
  807SOL     OW12524   9.598   7.594   0.684
  807SOL    HW112525   9.662   7.670   0.672
  807SOL    HW212526   9.506   7.624   0.662
  808SOL     OW12527   0.425   3.756   1.296
  808SOL    HW112528   0.361   3.824   1.258
  808SOL    HW212529   0.493   3.802   1.352
  809SOL     OW12530   2.817   2.853   1.200
  809SOL    HW112531   2.793   2.946   1.174
  809SOL    HW212532   2.769   2.827   1.284
  810SOL     OW12533   9.553   3.651   2.124
  810SOL    HW112534   9.525   3.581   2.058
  810SOL    HW212535   9.651   3.644   2.141
  811SOL     OW12536   7.075   9.536   1.254
  811SOL    HW112537   7.172   9.555   1.269
  811SOL    HW212538   7.056   9.536   1.156
  812SOL     OW12539   4.103   2.536   1.251
  812SOL    HW112540   4.179   2.472   1.255
  812SOL    HW212541   4.050   2.531   1.335
  813SOL     OW12542   2.683   0.956   0.603
  813SOL    HW112543   2.683   0.880   0.666
  813SOL    HW212544   2.635   0.930   0.519
  814SOL     OW12545   0.332   8.265   1.658
  814SOL    HW112546   0.237   8.294   1.670
  814SOL    HW212547   0.378   8.264   1.747
  815SOL     OW12548   9.357   4.977   1.343
  815SOL    HW112549   9.291   4.976   1.419
  815SOL    HW212550   9.433   4.915   1.364
  816SOL     OW12551   2.964   4.793   1.646
  816SOL    HW112552   2.985   4.881   1.690
  816SOL    HW212553   3.024   4.722   1.683
  817SOL     OW12554   2.997   8.998   1.923
  817SOL    HW112555   2.934   8.999   2.001
  817SOL    HW212556   2.993   8.909   1.878
  818SOL     OW12557   4.051   4.908   2.220
  818SOL    HW112558   4.042   5.007   2.236
  818SOL    HW212559   4.146   4.886   2.198
  819SOL     OW12560   1.683   1.891   1.568
  819SOL    HW112561   1.742   1.972   1.570
  819SOL    HW212562   1.655   1.869   1.662
  820SOL     OW12563   9.798   0.406   0.474
  820SOL    HW112564   9.773   0.318   0.517
  820SOL    HW212565   9.857   0.457   0.536
  821SOL     OW12566   9.697   5.327   0.140
  821SOL    HW112567   9.706   5.235   0.179
  821SOL    HW212568   9.601   5.356   0.146
  822SOL     OW12569   1.006   1.006   0.200
  822SOL    HW112570   1.080   0.940   0.191
  822SOL    HW212571   1.031   1.091   0.153
  823SOL     OW12572   9.951   2.628   1.046
  823SOL    HW112573   0.017   2.568   1.001
  823SOL    HW212574   9.998   2.707   1.084
  824SOL     OW12575   3.639   8.891   0.806
  824SOL    HW112576   3.623   8.822   0.877
  824SOL    HW212577   3.553   8.911   0.759
  825SOL     OW12578   4.228   4.554   1.541
  825SOL    HW112579   4.162   4.492   1.500
  825SOL    HW212580   4.296   4.581   1.473
  826SOL     OW12581   1.940   5.540   0.236
  826SOL    HW112582   1.947   5.614   0.169
  826SOL    HW212583   1.857   5.487   0.216
  827SOL     OW12584   1.714   8.659   0.884
  827SOL    HW112585   1.763   8.746   0.876
  827SOL    HW212586   1.713   8.613   0.795
  828SOL     OW12587   1.576   5.791   0.326
  828SOL    HW112588   1.645   5.859   0.301
  828SOL    HW212589   1.492   5.808   0.275
  829SOL     OW12590   0.828   0.614   1.891
  829SOL    HW112591   0.906   0.624   1.828
  829SOL    HW212592   0.784   0.702   1.903
  830SOL     OW12593   7.804   9.685   1.300
  830SOL    HW112594   7.853   9.762   1.341
  830SOL    HW212595   7.869   9.619   1.264
  831SOL     OW12596   0.443   0.809   2.103
  831SOL    HW112597   0.427   0.907   2.111
  831SOL    HW212598   0.530   0.786   2.147
  832SOL     OW12599   2.248   0.828   0.597
  832SOL    HW112600   2.280   0.774   0.675
  832SOL    HW212601   2.265   0.778   0.512
  833SOL     OW12602   1.929   9.380   1.625
  833SOL    HW112603   1.949   9.319   1.549
  833SOL    HW212604   1.972   9.345   1.708
  834SOL     OW12605   9.575   6.865   2.064
  834SOL    HW112606   9.622   6.844   1.978
  834SOL    HW212607   9.594   6.959   2.091
  835SOL     OW12608   4.024   6.281   0.676
  835SOL    HW112609   4.073   6.219   0.737
  835SOL    HW212610   3.927   6.256   0.673
  836SOL     OW12611   3.338   5.031   0.868
  836SOL    HW112612   3.241   5.025   0.891
  836SOL    HW212613   3.392   5.036   0.952
  837SOL     OW12614   9.827   0.648   2.056
  837SOL    HW112615   9.863   0.568   2.104
  837SOL    HW212616   9.780   0.707   2.122
  838SOL     OW12617   9.903   3.466   1.619
  838SOL    HW112618   9.828   3.434   1.677
  838SOL    HW212619   9.950   3.387   1.579
  839SOL     OW12620   1.409   8.226   0.017
  839SOL    HW112621   1.398   8.171   2.876
  839SOL    HW212622   1.329   8.284   0.030
  840SOL     OW12623   1.380   2.494   0.785
  840SOL    HW112624   1.287   2.461   0.767
  840SOL    HW212625   1.425   2.516   0.699
  841SOL     OW12626   8.535   6.873   0.872
  841SOL    HW112627   8.528   6.945   0.803
  841SOL    HW212628   8.476   6.895   0.949
  842SOL     OW12629   9.009   6.753   1.286
  842SOL    HW112630   8.918   6.714   1.268
  842SOL    HW212631   9.067   6.682   1.328
  843SOL     OW12632   3.620   1.175   0.056
  843SOL    HW112633   3.535   1.195   0.105
  843SOL    HW212634   3.600   1.120   2.916
  844SOL     OW12635   1.486   5.523   0.322
  844SOL    HW112636   1.436   5.494   0.403
  844SOL    HW212637   1.528   5.612   0.339
  845SOL     OW12638   2.922   1.532   0.987
  845SOL    HW112639   2.823   1.527   0.999
  845SOL    HW212640   2.944   1.529   0.889
  846SOL     OW12641   2.801   7.765   0.293
  846SOL    HW112642   2.799   7.862   0.314
  846SOL    HW212643   2.709   7.733   0.271
  847SOL     OW12644   0.614   6.391   0.033
  847SOL    HW112645   0.519   6.406   0.005
  847SOL    HW212646   0.627   6.295   0.058
  848SOL     OW12647   3.753   3.800   0.505
  848SOL    HW112648   3.671   3.819   0.560
  848SOL    HW212649   3.728   3.747   0.425
  849SOL     OW12650   8.890   0.588   1.155
  849SOL    HW112651   8.963   0.521   1.143
  849SOL    HW212652   8.841   0.600   1.068
  850SOL     OW12653   2.914   7.308   0.740
  850SOL    HW112654   2.873   7.299   0.650
  850SOL    HW212655   2.918   7.218   0.784
  851SOL     OW12656   8.392   0.063   0.270
  851SOL    HW112657   8.313   0.124   0.267
  851SOL    HW212658   8.383   9.992   0.200
  852SOL     OW12659   1.591   3.099   1.839
  852SOL    HW112660   1.634   3.013   1.866
  852SOL    HW212661   1.491   3.090   1.843
  853SOL     OW12662   9.049   7.541   1.362
  853SOL    HW112663   8.995   7.541   1.447
  853SOL    HW212664   9.046   7.451   1.320
  854SOL     OW12665   1.593   1.511   0.766
  854SOL    HW112666   1.493   1.502   0.775
  854SOL    HW212667   1.622   1.470   0.679
  855SOL     OW12668   3.474   8.051   0.271
  855SOL    HW112669   3.550   8.021   0.214
  855SOL    HW212670   3.453   8.147   0.250
  856SOL     OW12671   8.745   7.001   0.139
  856SOL    HW112672   8.762   7.099   0.127
  856SOL    HW212673   8.816   6.949   0.092
  857SOL     OW12674   8.356   6.948   1.811
  857SOL    HW112675   8.303   7.024   1.772
  857SOL    HW212676   8.351   6.951   1.910
  858SOL     OW12677   3.222   2.939   1.675
  858SOL    HW112678   3.222   3.001   1.754
  858SOL    HW212679   3.149   2.871   1.687
  859SOL     OW12680   3.212   9.707   2.256
  859SOL    HW112681   3.176   9.614   2.245
  859SOL    HW212682   3.192   9.760   2.173
  860SOL     OW12683   4.136   0.807   1.484
  860SOL    HW112684   4.079   0.725   1.488
  860SOL    HW212685   4.131   0.846   1.392
  861SOL     OW12686   0.559   5.263   0.855
  861SOL    HW112687   0.629   5.328   0.883
  861SOL    HW212688   0.521   5.289   0.767
  862SOL     OW12689   1.296   4.395   0.421
  862SOL    HW112690   1.368   4.403   0.352
  862SOL    HW212691   1.319   4.453   0.500
  863SOL     OW12692   1.467   1.051   1.818
  863SOL    HW112693   1.492   1.019   1.726
  863SOL    HW212694   1.457   1.151   1.817
  864SOL     OW12695   9.432   0.836   1.201
  864SOL    HW112696   9.381   0.909   1.154
  864SOL    HW212697   9.527   0.864   1.211
  865SOL     OW12698   0.134   4.463   0.878
  865SOL    HW112699   0.201   4.535   0.898
  865SOL    HW212700   0.068   4.458   0.953
  866SOL     OW12701   1.163   4.701   0.685
  866SOL    HW112702   1.108   4.629   0.727
  866SOL    HW212703   1.133   4.790   0.719
  867SOL     OW12704   3.432   9.725   1.369
  867SOL    HW112705   3.492   9.684   1.300
  867SOL    HW212706   3.337   9.701   1.349
  868SOL     OW12707   4.619   1.195   0.733
  868SOL    HW112708   4.615   1.196   0.833
  868SOL    HW212709   4.660   1.280   0.700
  869SOL     OW12710   0.859   5.326   0.368
  869SOL    HW112711   0.784   5.378   0.330
  869SOL    HW212712   0.907   5.277   0.295
  870SOL     OW12713   2.378   4.373   0.588
  870SOL    HW112714   2.404   4.337   0.499
  870SOL    HW212715   2.459   4.411   0.634
  871SOL     OW12716   8.352   2.924   1.171
  871SOL    HW112717   8.410   2.894   1.095
  871SOL    HW212718   8.378   3.016   1.199
  872SOL     OW12719   1.258   8.703   0.995
  872SOL    HW112720   1.194   8.774   0.967
  872SOL    HW212721   1.209   8.633   1.047
  873SOL     OW12722   2.337   5.289   1.084
  873SOL    HW112723   2.318   5.197   1.052
  873SOL    HW212724   2.330   5.354   1.008
  874SOL     OW12725   2.336   8.137   0.569
  874SOL    HW112726   2.333   8.235   0.586
  874SOL    HW212727   2.278   8.115   0.491
  875SOL     OW12728   0.072   2.004   1.619
  875SOL    HW112729   0.072   1.917   1.669
  875SOL    HW212730   0.024   2.073   1.673
  876SOL     OW12731   2.818   6.096   1.020
  876SOL    HW112732   2.776   6.056   0.938
  876SOL    HW212733   2.807   6.195   1.018
  877SOL     OW12734   8.693   3.422   2.167
  877SOL    HW112735   8.740   3.335   2.177
  877SOL    HW212736   8.760   3.496   2.165
  878SOL     OW12737   8.682   3.154   1.089
  878SOL    HW112738   8.677   3.232   1.026
  878SOL    HW212739   8.718   3.075   1.042
  879SOL     OW12740   9.777   1.217   1.854
  879SOL    HW112741   9.760   1.121   1.829
  879SOL    HW212742   9.853   1.221   1.919
  880SOL     OW12743   0.578   4.752   0.449
  880SOL    HW112744   0.674   4.773   0.431
  880SOL    HW212745   0.558   4.768   0.546
  881SOL     OW12746   2.466   3.317   0.920
  881SOL    HW112747   2.555   3.299   0.876
  881SOL    HW212748   2.476   3.391   0.986
  882SOL     OW12749   8.095   8.715   0.019
  882SOL    HW112750   8.042   8.638   0.055
  882SOL    HW212751   8.193   8.696   0.030
  883SOL     OW12752   1.729   4.358   1.872
  883SOL    HW112753   1.696   4.294   1.802
  883SOL    HW212754   1.794   4.312   1.931
  884SOL     OW12755   2.826   9.402   1.923
  884SOL    HW112756   2.806   9.485   1.871
  884SOL    HW212757   2.867   9.334   1.863
  885SOL     OW12758   1.780   7.939   2.081
  885SOL    HW112759   1.766   7.880   2.160
  885SOL    HW212760   1.840   7.893   2.015
  886SOL     OW12761   8.788   1.927   2.183
  886SOL    HW112762   8.690   1.935   2.197
  886SOL    HW212763   8.815   1.831   2.186
  887SOL     OW12764   3.432   6.069   1.033
  887SOL    HW112765   3.391   6.069   1.124
  887SOL    HW212766   3.447   5.975   1.003
  888SOL     OW12767   9.280   4.900   2.150
  888SOL    HW112768   9.283   4.975   2.216
  888SOL    HW212769   9.373   4.883   2.115
  889SOL     OW12770   9.121   4.241   0.416
  889SOL    HW112771   9.082   4.156   0.381
  889SOL    HW212772   9.156   4.296   0.340
  890SOL     OW12773   1.990   5.763   1.631
  890SOL    HW112774   2.082   5.801   1.639
  890SOL    HW212775   1.935   5.791   1.710
  891SOL     OW12776   2.237   5.883   1.660
  891SOL    HW112777   2.262   5.960   1.601
  891SOL    HW212778   2.319   5.838   1.693
  892SOL     OW12779   7.338   9.591   1.309
  892SOL    HW112780   7.334   9.665   1.376
  892SOL    HW212781   7.419   9.602   1.251
  893SOL     OW12782   2.778   1.088   0.192
  893SOL    HW112783   2.806   1.087   0.289
  893SOL    HW212784   2.837   1.025   0.141
  894SOL     OW12785   9.442   1.613   1.456
  894SOL    HW112786   9.494   1.578   1.378
  894SOL    HW212787   9.360   1.660   1.424
  895SOL     OW12788   8.591   6.808   1.421
  895SOL    HW112789   8.576   6.813   1.520
  895SOL    HW212790   8.636   6.892   1.391
  896SOL     OW12791   0.818   2.718   2.176
  896SOL    HW112792   0.834   2.817   2.180
  896SOL    HW212793   0.719   2.700   2.174
  897SOL     OW12794   8.389   2.832   0.579
  897SOL    HW112795   8.437   2.891   0.644
  897SOL    HW212796   8.366   2.885   0.497
  898SOL     OW12797   0.729   8.292   0.112
  898SOL    HW112798   0.699   8.335   0.197
  898SOL    HW212799   0.799   8.349   0.069
  899SOL     OW12800   2.962   4.893   1.385
  899SOL    HW112801   2.957   4.838   1.468
  899SOL    HW212802   3.030   4.965   1.396
  900SOL     OW12803   1.870   1.423   0.103
  900SOL    HW112804   1.819   1.352   0.054
  900SOL    HW212805   1.943   1.381   0.156
  901SOL     OW12806   0.227   5.289   0.534
  901SOL    HW112807   0.216   5.192   0.511
  901SOL    HW212808   0.188   5.345   0.461
  902SOL     OW12809   0.426   4.006   1.012
  902SOL    HW112810   0.367   4.043   0.940
  902SOL    HW212811   0.372   3.985   1.093
  903SOL     OW12812   9.312   2.980   1.829
  903SOL    HW112813   9.234   2.918   1.827
  903SOL    HW212814   9.387   2.939   1.881
  904SOL     OW12815   0.340   9.225   1.528
  904SOL    HW112816   0.403   9.286   1.481
  904SOL    HW212817   0.277   9.280   1.584
  905SOL     OW12818   9.467   9.580   1.519
  905SOL    HW112819   9.432   9.508   1.459
  905SOL    HW212820   9.531   9.638   1.469
  906SOL     OW12821   1.913   8.604   1.976
  906SOL    HW112822   1.975   8.633   1.903
  906SOL    HW212823   1.830   8.659   1.973
  907SOL     OW12824   2.858   8.221   2.020
  907SOL    HW112825   2.852   8.317   1.993
  907SOL    HW212826   2.908   8.214   2.107
  908SOL     OW12827   0.875   6.906   1.527
  908SOL    HW112828   0.837   6.992   1.559
  908SOL    HW212829   0.975   6.909   1.534
  909SOL     OW12830   0.665   3.925   0.681
  909SOL    HW112831   0.659   3.876   0.768
  909SOL    HW212832   0.675   4.023   0.699
  910SOL     OW12833   9.463   3.477   1.913
  910SOL    HW112834   9.407   3.395   1.925
  910SOL    HW212835   9.406   3.550   1.875
  911SOL     OW12836   9.453   0.791   2.134
  911SOL    HW112837   9.463   0.831   2.043
  911SOL    HW212838   9.369   0.737   2.138
  912SOL     OW12839   2.768   0.557   1.091
  912SOL    HW112840   2.784   0.479   1.150
  912SOL    HW212841   2.818   0.544   1.005
  913SOL     OW12842   1.048   7.450   1.116
  913SOL    HW112843   1.054   7.370   1.056
  913SOL    HW212844   1.031   7.531   1.061
  914SOL     OW12845   5.416   9.714   2.004
  914SOL    HW112846   5.474   9.788   1.970
  914SOL    HW212847   5.320   9.739   1.992
  915SOL     OW12848   0.821   3.242   1.119
  915SOL    HW112849   0.783   3.331   1.097
  915SOL    HW212850   0.761   3.195   1.184
  916SOL     OW12851   2.093   4.023   1.193
  916SOL    HW112852   2.165   3.975   1.242
  916SOL    HW212853   2.018   4.044   1.257
  917SOL     OW12854   1.349   2.005   1.823
  917SOL    HW112855   1.367   2.099   1.852
  917SOL    HW212856   1.317   2.006   1.728
  918SOL     OW12857   9.472   0.865   1.867
  918SOL    HW112858   9.399   0.926   1.836
  918SOL    HW212859   9.450   0.771   1.841
  919SOL     OW12860   4.302   2.665   0.891
  919SOL    HW112861   4.372   2.663   0.963
  919SOL    HW212862   4.240   2.741   0.907
  920SOL     OW12863   2.764   6.949   1.604
  920SOL    HW112864   2.774   7.028   1.664
  920SOL    HW212865   2.736   6.979   1.513
  921SOL     OW12866   1.948   4.687   0.996
  921SOL    HW112867   1.857   4.723   0.978
  921SOL    HW212868   1.986   4.731   1.078
  922SOL     OW12869   8.754   6.398   1.607
  922SOL    HW112870   8.779   6.353   1.521
  922SOL    HW212871   8.805   6.356   1.683
  923SOL     OW12872   8.944   7.126   0.781
  923SOL    HW112873   8.952   7.062   0.857
  923SOL    HW212874   8.990   7.089   0.700
  924SOL     OW12875   9.782   2.529   0.098
  924SOL    HW112876   9.872   2.569   0.112
  924SOL    HW212877   9.763   2.461   0.168
  925SOL     OW12878   1.111   5.440   1.081
  925SOL    HW112879   1.016   5.428   1.109
  925SOL    HW212880   1.116   5.504   1.005
  926SOL     OW12881   1.633   2.048   0.281
  926SOL    HW112882   1.714   1.995   0.255
  926SOL    HW212883   1.572   2.056   0.203
  927SOL     OW12884   0.940   4.611   1.120
  927SOL    HW112885   1.018   4.672   1.137
  927SOL    HW212886   0.874   4.620   1.194
  928SOL     OW12887   1.832   2.120   1.606
  928SOL    HW112888   1.768   2.192   1.634
  928SOL    HW212889   1.891   2.153   1.533
  929SOL     OW12890   3.648   9.095   2.096
  929SOL    HW112891   3.616   9.027   2.030
  929SOL    HW212892   3.679   9.048   2.179
  930SOL     OW12893   0.605   9.322   0.127
  930SOL    HW112894   0.676   9.288   0.065
  930SOL    HW212895   0.632   9.412   0.162
  931SOL     OW12896   3.467   0.514   1.897
  931SOL    HW112897   3.534   0.451   1.857
  931SOL    HW212898   3.465   0.598   1.843
  932SOL     OW12899   8.027   1.701   0.273
  932SOL    HW112900   7.936   1.710   0.313
  932SOL    HW212901   8.096   1.695   0.345
  933SOL     OW12902   1.473   5.268   1.249
  933SOL    HW112903   1.567   5.273   1.214
  933SOL    HW212904   1.439   5.361   1.265
  934SOL     OW12905   3.607   2.000   0.508
  934SOL    HW112906   3.622   2.087   0.557
  934SOL    HW212907   3.631   1.924   0.568
  935SOL     OW12908   1.345   4.108   0.168
  935SOL    HW112909   1.258   4.155   0.177
  935SOL    HW212910   1.331   4.016   0.131
  936SOL     OW12911   2.523   7.776   0.263
  936SOL    HW112912   2.503   7.812   0.354
  936SOL    HW212913   2.517   7.850   0.195
  937SOL     OW12914   2.702   2.904   0.707
  937SOL    HW112915   2.748   2.820   0.737
  937SOL    HW212916   2.639   2.883   0.633
  938SOL     OW12917   9.735   4.709   0.823
  938SOL    HW112918   9.678   4.654   0.762
  938SOL    HW212919   9.715   4.806   0.808
  939SOL     OW12920   9.520   4.806   2.049
  939SOL    HW112921   9.619   4.824   2.052
  939SOL    HW212922   9.502   4.714   2.084
  940SOL     OW12923   8.805   9.310   1.720
  940SOL    HW112924   8.800   9.243   1.645
  940SOL    HW212925   8.780   9.400   1.685
  941SOL     OW12926   1.893   4.445   1.670
  941SOL    HW112927   1.857   4.398   1.589
  941SOL    HW212928   1.831   4.429   1.747
  942SOL     OW12929   0.448   9.773   1.937
  942SOL    HW112930   0.457   9.859   1.887
  942SOL    HW212931   0.521   9.711   1.908
  943SOL     OW12932   1.410   7.857   2.920
  943SOL    HW112933   1.387   7.760   2.911
  943SOL    HW212934   1.358   7.896   0.054
  944SOL     OW12935   0.360   7.665   1.790
  944SOL    HW112936   0.341   7.572   1.822
  944SOL    HW212937   0.280   7.701   1.743
  945SOL     OW12938   0.789   9.834   1.239
  945SOL    HW112939   0.746   9.851   1.328
  945SOL    HW212940   0.883   9.802   1.253
  946SOL     OW12941   8.545   6.538   1.502
  946SOL    HW112942   8.581   6.626   1.473
  946SOL    HW212943   8.617   6.485   1.547
  947SOL     OW12944   0.253   0.599   2.054
  947SOL    HW112945   0.256   0.507   2.092
  947SOL    HW212946   0.324   0.655   2.096
  948SOL     OW12947   2.287   1.796   0.313
  948SOL    HW112948   2.266   1.860   0.387
  948SOL    HW212949   2.385   1.774   0.315
  949SOL     OW12950   2.195   9.685   2.016
  949SOL    HW112951   2.247   9.632   1.950
  949SOL    HW212952   2.109   9.639   2.035
  950SOL     OW12953   3.983   9.980   1.739
  950SOL    HW112954   3.999   0.078   1.737
  950SOL    HW212955   3.909   9.957   1.675
  951SOL     OW12956   9.313   9.605   0.604
  951SOL    HW112957   9.362   9.560   0.529
  951SOL    HW212958   9.215   9.599   0.589
  952SOL     OW12959   0.367   0.734   1.013
  952SOL    HW112960   0.312   0.816   0.995
  952SOL    HW212961   0.446   0.759   1.069
  953SOL     OW12962   2.299   7.039   0.200
  953SOL    HW112963   2.372   6.972   0.186
  953SOL    HW212964   2.212   6.991   0.217
  954SOL     OW12965   1.248   7.056   2.187
  954SOL    HW112966   1.231   6.964   2.150
  954SOL    HW212967   1.339   7.059   2.228
  955SOL     OW12968   3.637   8.699   2.075
  955SOL    HW112969   3.716   8.690   2.014
  955SOL    HW212970   3.557   8.656   2.033
  956SOL     OW12971   2.693   8.856   0.763
  956SOL    HW112972   2.627   8.827   0.694
  956SOL    HW212973   2.714   8.779   0.823
  957SOL     OW12974   1.144   1.125   1.417
  957SOL    HW112975   1.166   1.132   1.320
  957SOL    HW212976   1.179   1.039   1.454
  958SOL     OW12977   4.494   0.254   2.241
  958SOL    HW112978   4.511   0.352   2.254
  958SOL    HW212979   4.570   0.202   2.279
  959SOL     OW12980   2.404   6.340   1.422
  959SOL    HW112981   2.461   6.376   1.496
  959SOL    HW212982   2.457   6.275   1.368
  960SOL     OW12983   3.937   1.915   0.198
  960SOL    HW112984   3.863   1.976   0.224
  960SOL    HW212985   4.019   1.969   0.177
  961SOL     OW12986   8.258   0.221   1.159
  961SOL    HW112987   8.277   0.186   1.067
  961SOL    HW212988   8.320   0.298   1.179
  962SOL     OW12989   8.452   2.339   0.230
  962SOL    HW112990   8.521   2.267   0.239
  962SOL    HW212991   8.496   2.429   0.237
  963SOL     OW12992   8.964   2.418   0.855
  963SOL    HW112993   8.939   2.500   0.803
  963SOL    HW212994   8.882   2.366   0.877
  964SOL     OW12995   1.323   4.538   1.991
  964SOL    HW112996   1.262   4.525   1.913
  964SOL    HW212997   1.306   4.627   2.033
  965SOL     OW12998   7.590   9.389   1.671
  965SOL    HW112999   7.515   9.391   1.605
  965SOL    HW213000   7.615   9.483   1.696
  966SOL     OW13001   0.627   3.900   1.716
  966SOL    HW113002   0.592   3.811   1.748
  966SOL    HW213003   0.610   3.909   1.618
  967SOL     OW13004   9.781   1.397   2.181
  967SOL    HW113005   9.742   1.411   2.272
  967SOL    HW213006   9.709   1.369   2.117
  968SOL     OW13007   5.155   9.785   1.958
  968SOL    HW113008   5.112   9.709   2.006
  968SOL    HW213009   5.102   9.869   1.974
  969SOL     OW13010   8.180   2.359   0.217
  969SOL    HW113011   8.279   2.345   0.214
  969SOL    HW213012   8.160   2.444   0.266
  970SOL     OW13013   0.112   4.042   0.400
  970SOL    HW113014   0.148   4.129   0.435
  970SOL    HW213015   0.102   4.048   0.301
  971SOL     OW13016   9.883   9.745   0.790
  971SOL    HW113017   9.852   9.722   0.697
  971SOL    HW213018   9.882   9.844   0.802
  972SOL     OW13019   2.236   9.470   1.439
  972SOL    HW113020   2.304   9.469   1.366
  972SOL    HW213021   2.243   9.385   1.492
  973SOL     OW13022   9.446   9.745   0.965
  973SOL    HW113023   9.403   9.658   0.939
  973SOL    HW213024   9.375   9.814   0.977
  974SOL     OW13025   1.302   1.130   0.381
  974SOL    HW113026   1.329   1.225   0.395
  974SOL    HW213027   1.381   1.077   0.349
  975SOL     OW13028   1.932   1.752   1.853
  975SOL    HW113029   1.845   1.702   1.849
  975SOL    HW213030   1.995   1.712   1.787
  976SOL     OW13031   1.667   3.226   0.936
  976SOL    HW113032   1.751   3.174   0.948
  976SOL    HW213033   1.681   3.297   0.867
  977SOL     OW13034   9.222   5.263   1.589
  977SOL    HW113035   9.265   5.226   1.671
  977SOL    HW213036   9.178   5.189   1.538
  978SOL     OW13037   4.014   4.957   1.948
  978SOL    HW113038   4.090   5.018   1.925
  978SOL    HW213039   4.015   4.940   2.047
  979SOL     OW13040   3.483   5.522   0.887
  979SOL    HW113041   3.518   5.508   0.980
  979SOL    HW213042   3.464   5.433   0.845
  980SOL     OW13043   1.309   6.439   0.532
  980SOL    HW113044   1.276   6.531   0.553
  980SOL    HW213045   1.259   6.403   0.453
  981SOL     OW13046   9.106   9.940   0.212
  981SOL    HW113047   9.138   0.015   0.270
  981SOL    HW213048   9.050   9.877   0.266
  982SOL     OW13049   2.800   5.941   1.983
  982SOL    HW113050   2.841   5.861   1.940
  982SOL    HW213051   2.709   5.956   1.945
  983SOL     OW13052   2.517   0.780   2.187
  983SOL    HW113053   2.582   0.853   2.208
  983SOL    HW213054   2.553   0.693   2.220
  984SOL     OW13055   0.739   7.301   1.225
  984SOL    HW113056   0.804   7.353   1.280
  984SOL    HW213057   0.651   7.295   1.273
  985SOL     OW13058   9.896   2.635   1.454
  985SOL    HW113059   9.828   2.646   1.381
  985SOL    HW213060   9.982   2.602   1.415
  986SOL     OW13061   9.346   6.637   0.215
  986SOL    HW113062   9.250   6.663   0.205
  986SOL    HW213063   9.355   6.538   0.202
  987SOL     OW13064   2.012   8.601   0.084
  987SOL    HW113065   2.074   8.660   0.033
  987SOL    HW213066   2.042   8.506   0.076
  988SOL     OW13067   1.829   3.191   0.454
  988SOL    HW113068   1.817   3.173   0.357
  988SOL    HW213069   1.740   3.205   0.497
  989SOL     OW13070   5.361   3.233   1.174
  989SOL    HW113071   5.283   3.202   1.119
  989SOL    HW213072   5.430   3.161   1.177
  990SOL     OW13073   0.428   6.513   1.763
  990SOL    HW113074   0.419   6.544   1.668
  990SOL    HW213075   0.519   6.536   1.797
  991SOL     OW13076   3.542   4.756   1.389
  991SOL    HW113077   3.493   4.843   1.380
  991SOL    HW213078   3.636   4.774   1.416
  992SOL     OW13079   2.505   4.497   2.023
  992SOL    HW113080   2.534   4.550   2.102
  992SOL    HW213081   2.581   4.488   1.958
  993SOL     OW13082   0.042   9.605   1.691
  993SOL    HW113083   9.947   9.627   1.712
  993SOL    HW213084   0.100   9.629   1.769
  994SOL     OW13085   9.753   2.811   0.331
  994SOL    HW113086   9.781   2.867   0.254
  994SOL    HW213087   9.833   2.770   0.374
  995SOL     OW13088   1.915   1.255   2.018
  995SOL    HW113089   1.919   1.333   2.080
  995SOL    HW213090   1.975   1.182   2.052
  996SOL     OW13091   3.101   4.012   1.483
  996SOL    HW113092   3.087   4.087   1.548
  996SOL    HW213093   3.145   3.935   1.531
  997SOL     OW13094   8.539   9.632   0.179
  997SOL    HW113095   8.537   9.636   0.279
  997SOL    HW213096   8.613   9.691   0.144
  998SOL     OW13097   0.004   3.430   0.016
  998SOL    HW113098   9.962   3.433   2.866
  998SOL    HW213099   0.021   3.335   0.042
  999SOL     OW13100   9.147   4.671   1.485
  999SOL    HW113101   9.225   4.609   1.475
  999SOL    HW213102   9.152   4.716   1.574
 1000SOL     OW13103   2.560   9.455   1.666
 1000SOL    HW113104   2.540   9.496   1.577
 1000SOL    HW213105   2.636   9.503   1.708
 1001SOL     OW13106   2.668   8.983   1.893
 1001SOL    HW113107   2.640   9.065   1.844
 1001SOL    HW213108   2.640   8.990   1.989
 1002SOL     OW13109   4.452   8.712   0.062
 1002SOL    HW113110   4.422   8.732   2.910
 1002SOL    HW213111   4.538   8.760   0.080
 1003SOL     OW13112   3.486   8.509   1.434
 1003SOL    HW113113   3.552   8.578   1.464
 1003SOL    HW213114   3.530   8.446   1.370
 1004SOL     OW13115   8.880   8.650   0.330
 1004SOL    HW113116   8.883   8.554   0.304
 1004SOL    HW213117   8.785   8.682   0.328
 1005SOL     OW13118   2.681   9.307   0.777
 1005SOL    HW113119   2.628   9.386   0.809
 1005SOL    HW213120   2.777   9.334   0.764
 1006SOL     OW13121   2.548   3.780   0.308
 1006SOL    HW113122   2.465   3.756   0.357
 1006SOL    HW213123   2.615   3.706   0.317
 1007SOL     OW13124   1.715   1.649   0.198
 1007SOL    HW113125   1.770   1.570   0.171
 1007SOL    HW213126   1.772   1.731   0.200
 1008SOL     OW13127   0.948   7.251   0.459
 1008SOL    HW113128   0.856   7.234   0.493
 1008SOL    HW213129   0.982   7.170   0.410
 1009SOL     OW13130   8.532   2.839   0.982
 1009SOL    HW113131   8.626   2.871   0.990
 1009SOL    HW213132   8.531   2.744   0.954
 1010SOL     OW13133   9.727   8.647   2.111
 1010SOL    HW113134   9.817   8.623   2.075
 1010SOL    HW213135   9.658   8.586   2.071
 1011SOL     OW13136   0.840   4.585   0.262
 1011SOL    HW113137   0.847   4.646   0.341
 1011SOL    HW213138   0.923   4.531   0.254
 1012SOL     OW13139   0.013   2.468   0.642
 1012SOL    HW113140   0.022   2.368   0.637
 1012SOL    HW213141   9.936   2.491   0.702
 1013SOL     OW13142   8.945   4.465   0.265
 1013SOL    HW113143   8.974   4.555   0.299
 1013SOL    HW213144   8.886   4.477   0.186
 1014SOL     OW13145   2.403   1.712   1.316
 1014SOL    HW113146   2.448   1.623   1.307
 1014SOL    HW213147   2.472   1.784   1.314
 1015SOL     OW13148   4.558   4.672   1.895
 1015SOL    HW113149   4.504   4.612   1.836
 1015SOL    HW213150   4.598   4.618   1.969
 1016SOL     OW13151   3.952   8.993   1.980
 1016SOL    HW113152   3.961   9.077   2.033
 1016SOL    HW213153   4.042   8.952   1.966
 1017SOL     OW13154   2.463   0.162   1.529
 1017SOL    HW113155   2.365   0.170   1.514
 1017SOL    HW213156   2.508   0.248   1.506
 1018SOL     OW13157   0.621   5.806   1.061
 1018SOL    HW113158   0.645   5.785   0.966
 1018SOL    HW213159   0.703   5.839   1.109
 1019SOL     OW13160   7.936   9.710   0.996
 1019SOL    HW113161   8.019   9.723   0.941
 1019SOL    HW213162   7.948   9.630   1.055
 1020SOL     OW13163   2.562   6.771   0.456
 1020SOL    HW113164   2.465   6.747   0.470
 1020SOL    HW213165   2.618   6.718   0.519
 1021SOL     OW13166   8.587   1.380   0.298
 1021SOL    HW113167   8.591   1.280   0.305
 1021SOL    HW213168   8.680   1.417   0.302
 1022SOL     OW13169   3.132   8.777   1.083
 1022SOL    HW113170   3.187   8.815   1.158
 1022SOL    HW213171   3.042   8.820   1.082
 1023SOL     OW13172   3.934   2.103   1.470
 1023SOL    HW113173   4.022   2.119   1.516
 1023SOL    HW213174   3.890   2.023   1.510
 1024SOL     OW13175   1.332   6.024   1.503
 1024SOL    HW113176   1.373   6.109   1.537
 1024SOL    HW213177   1.288   5.976   1.580
 1025SOL     OW13178   3.719   0.598   0.643
 1025SOL    HW113179   3.810   0.563   0.624
 1025SOL    HW213180   3.721   0.652   0.727
 1026SOL     OW13181   1.777   2.513   0.607
 1026SOL    HW113182   1.876   2.503   0.612
 1026SOL    HW213183   1.733   2.431   0.645
 1027SOL     OW13184   9.126   2.423   2.022
 1027SOL    HW113185   9.041   2.468   2.049
 1027SOL    HW213186   9.139   2.341   2.077
 1028SOL     OW13187   9.591   5.699   1.838
 1028SOL    HW113188   9.691   5.689   1.838
 1028SOL    HW213189   9.555   5.671   1.749
 1029SOL     OW13190   0.097   1.008   1.736
 1029SOL    HW113191   0.146   1.065   1.802
 1029SOL    HW213192   0.037   0.945   1.785
 1030SOL     OW13193   9.086   8.276   2.187
 1030SOL    HW113194   9.024   8.198   2.187
 1030SOL    HW213195   9.181   8.245   2.192
 1031SOL     OW13196   4.029   0.673   0.800
 1031SOL    HW113197   4.126   0.652   0.815
 1031SOL    HW213198   3.988   0.604   0.741
 1032SOL     OW13199   8.527   6.733   2.042
 1032SOL    HW113200   8.600   6.700   2.101
 1032SOL    HW213201   8.517   6.671   1.964
 1033SOL     OW13202   1.152   5.158   2.233
 1033SOL    HW113203   1.109   5.165   2.323
 1033SOL    HW213204   1.106   5.220   2.169
 1034SOL     OW13205   8.444   2.929   1.772
 1034SOL    HW113206   8.428   2.950   1.675
 1034SOL    HW213207   8.486   3.008   1.817
 1035SOL     OW13208   2.089   2.744   1.661
 1035SOL    HW113209   2.184   2.720   1.677
 1035SOL    HW213210   2.069   2.833   1.701
 1036SOL     OW13211   8.946   0.075   2.096
 1036SOL    HW113212   8.967   0.163   2.139
 1036SOL    HW213213   9.031   0.024   2.082
 1037SOL     OW13214   1.213   6.560   0.230
 1037SOL    HW113215   1.171   6.479   0.270
 1037SOL    HW213216   1.207   6.556   0.131
 1038SOL     OW13217   2.542   5.235   0.292
 1038SOL    HW113218   2.482   5.260   0.368
 1038SOL    HW213219   2.543   5.135   0.283
 1039SOL     OW13220   0.096   2.360   1.637
 1039SOL    HW113221   0.042   2.302   1.699
 1039SOL    HW213222   0.054   2.360   1.547
 1040SOL     OW13223   3.530   3.070   0.150
 1040SOL    HW113224   3.490   3.149   0.197
 1040SOL    HW213225   3.520   2.988   0.207
 1041SOL     OW13226   9.787   0.099   1.636
 1041SOL    HW113227   9.738   0.013   1.649
 1041SOL    HW213228   9.778   0.129   1.541
 1042SOL     OW13229   9.936   7.639   2.196
 1042SOL    HW113230   9.926   7.540   2.192
 1042SOL    HW213231   9.850   7.683   2.170
 1043SOL     OW13232   9.090   1.143   0.666
 1043SOL    HW113233   9.172   1.113   0.617
 1043SOL    HW213234   9.034   1.199   0.605
 1044SOL     OW13235   3.288   3.432   1.644
 1044SOL    HW113236   3.344   3.456   1.723
 1044SOL    HW213237   3.302   3.500   1.572
 1045SOL     OW13238   1.380   1.510   1.054
 1045SOL    HW113239   1.359   1.522   0.957
 1045SOL    HW213240   1.295   1.497   1.105
 1046SOL     OW13241   8.819   5.807   1.897
 1046SOL    HW113242   8.823   5.838   1.802
 1046SOL    HW213243   8.802   5.708   1.900
 1047SOL     OW13244   0.097   6.518   0.406
 1047SOL    HW113245   0.179   6.567   0.378
 1047SOL    HW213246   0.046   6.489   0.324
 1048SOL     OW13247   1.450   2.830   0.871
 1048SOL    HW113248   1.452   2.929   0.884
 1048SOL    HW213249   1.394   2.808   0.791
 1049SOL     OW13250   9.451   6.126   1.568
 1049SOL    HW113251   9.440   6.184   1.487
 1049SOL    HW213252   9.388   6.156   1.640
 1050SOL     OW13253   2.228   2.630   0.358
 1050SOL    HW113254   2.143   2.577   0.346
 1050SOL    HW213255   2.207   2.727   0.347
 1051SOL     OW13256   3.940   4.653   2.253
 1051SOL    HW113257   3.972   4.614   2.339
 1051SOL    HW213258   3.984   4.742   2.239
 1052SOL     OW13259   8.658   8.626   0.847
 1052SOL    HW113260   8.624   8.620   0.941
 1052SOL    HW213261   8.610   8.560   0.790
 1053SOL     OW13262   4.366   0.058   0.458
 1053SOL    HW113263   4.286   0.044   0.399
 1053SOL    HW213264   4.425   9.978   0.451
 1054SOL     OW13265   9.548   8.406   0.307
 1054SOL    HW113266   9.558   8.307   0.321
 1054SOL    HW213267   9.607   8.435   0.231
 1055SOL     OW13268   2.447   4.063   0.642
 1055SOL    HW113269   2.455   4.129   0.717
 1055SOL    HW213270   2.355   4.070   0.602
 1056SOL     OW13271   1.836   8.298   0.548
 1056SOL    HW113272   1.909   8.298   0.479
 1056SOL    HW213273   1.820   8.204   0.578
 1057SOL     OW13274   2.143   6.513   1.959
 1057SOL    HW113275   2.149   6.542   1.864
 1057SOL    HW213276   2.087   6.430   1.966
 1058SOL     OW13277   0.578   6.559   0.653
 1058SOL    HW113278   0.583   6.659   0.656
 1058SOL    HW213279   0.548   6.530   0.562
 1059SOL     OW13280   8.384   9.431   0.082
 1059SOL    HW113281   8.439   9.507   0.116
 1059SOL    HW213282   8.364   9.444   2.926
 1060SOL     OW13283   3.720   4.114   1.783
 1060SOL    HW113284   3.732   4.018   1.810
 1060SOL    HW213285   3.623   4.136   1.782
 1061SOL     OW13286   2.976   7.684   0.885
 1061SOL    HW113287   2.981   7.649   0.791
 1061SOL    HW213288   2.963   7.608   0.949
 1062SOL     OW13289   7.875   8.748   1.789
 1062SOL    HW113290   7.799   8.744   1.855
 1062SOL    HW213291   7.917   8.839   1.793
 1063SOL     OW13292   2.406   2.877   2.162
 1063SOL    HW113293   2.330   2.868   2.227
 1063SOL    HW213294   2.423   2.974   2.144
 1064SOL     OW13295   8.001   0.651   0.913
 1064SOL    HW113296   7.965   0.623   1.002
 1064SOL    HW213297   7.966   0.590   0.842
 1065SOL     OW13298   0.944   0.640   0.196
 1065SOL    HW113299   0.960   0.579   0.274
 1065SOL    HW213300   0.880   0.712   0.222
 1066SOL     OW13301   2.426   8.679   1.866
 1066SOL    HW113302   2.458   8.620   1.791
 1066SOL    HW213303   2.372   8.625   1.931
 1067SOL     OW13304   9.387   5.199   0.358
 1067SOL    HW113305   9.369   5.126   0.292
 1067SOL    HW213306   9.439   5.162   0.434
 1068SOL     OW13307   9.639   0.963   0.359
 1068SOL    HW113308   9.666   0.887   0.419
 1068SOL    HW213309   9.615   1.043   0.415
 1069SOL     OW13310   3.036   9.240   1.014
 1069SOL    HW113311   3.022   9.212   1.108
 1069SOL    HW213312   3.130   9.217   0.986
 1070SOL     OW13313   0.573   1.033   1.770
 1070SOL    HW113314   0.576   1.069   1.677
 1070SOL    HW213315   0.499   0.966   1.777
 1071SOL     OW13316   3.763   9.143   0.514
 1071SOL    HW113317   3.667   9.136   0.488
 1071SOL    HW213318   3.780   9.232   0.556
 1072SOL     OW13319   3.233   7.681   0.569
 1072SOL    HW113320   3.280   7.623   0.503
 1072SOL    HW213321   3.152   7.632   0.604
 1073SOL     OW13322   1.591   1.880   1.836
 1073SOL    HW113323   1.497   1.911   1.823
 1073SOL    HW213324   1.633   1.932   1.910
 1074SOL     OW13325   1.098   2.233   2.043
 1074SOL    HW113326   1.034   2.241   2.120
 1074SOL    HW213327   1.052   2.260   1.959
 1075SOL     OW13328   3.804   1.680   0.137
 1075SOL    HW113329   3.709   1.710   0.126
 1075SOL    HW213330   3.862   1.760   0.148
 1076SOL     OW13331   3.889   1.058   1.806
 1076SOL    HW113332   3.858   1.151   1.824
 1076SOL    HW213333   3.935   1.054   1.717
 1077SOL     OW13334   2.207   0.517   1.688
 1077SOL    HW113335   2.276   0.470   1.743
 1077SOL    HW213336   2.206   0.614   1.711
 1078SOL     OW13337   3.203   0.467   1.404
 1078SOL    HW113338   3.122   0.409   1.414
 1078SOL    HW213339   3.280   0.424   1.451
 1079SOL     OW13340   0.392   5.562   1.749
 1079SOL    HW113341   0.294   5.543   1.762
 1079SOL    HW213342   0.439   5.478   1.721
 1080SOL     OW13343   8.611   1.329   2.021
 1080SOL    HW113344   8.611   1.428   2.037
 1080SOL    HW213345   8.587   1.310   1.926
 1081SOL     OW13346   1.963   7.816   1.914
 1081SOL    HW113347   2.042   7.859   1.958
 1081SOL    HW213348   1.959   7.845   1.819
 1082SOL     OW13349   3.956   0.747   1.065
 1082SOL    HW113350   3.972   0.717   0.971
 1082SOL    HW213351   3.914   0.672   1.117
 1083SOL     OW13352   2.845   9.462   0.146
 1083SOL    HW113353   2.859   9.554   0.111
 1083SOL    HW213354   2.773   9.417   0.094
 1084SOL     OW13355   1.189   3.464   0.407
 1084SOL    HW113356   1.171   3.473   0.505
 1084SOL    HW213357   1.194   3.555   0.366
 1085SOL     OW13358   4.509   3.003   0.275
 1085SOL    HW113359   4.419   3.036   0.304
 1085SOL    HW213360   4.567   3.081   0.252
 1086SOL     OW13361   3.652   2.772   1.703
 1086SOL    HW113362   3.609   2.724   1.780
 1086SOL    HW213363   3.597   2.851   1.678
 1087SOL     OW13364   3.177   0.326   2.141
 1087SOL    HW113365   3.265   0.374   2.144
 1087SOL    HW213366   3.107   0.381   2.187
 1088SOL     OW13367   4.173   4.991   1.495
 1088SOL    HW113368   4.172   4.918   1.563
 1088SOL    HW213369   4.185   5.079   1.542
 1089SOL     OW13370   9.037   1.019   1.111
 1089SOL    HW113371   9.136   1.032   1.105
 1089SOL    HW213372   8.997   1.024   1.019
 1090SOL     OW13373   3.164   1.931   0.904
 1090SOL    HW113374   3.156   1.902   0.999
 1090SOL    HW213375   3.075   1.925   0.859
 1091SOL     OW13376   9.188   8.213   0.619
 1091SOL    HW113377   9.219   8.118   0.629
 1091SOL    HW213378   9.261   8.275   0.649
 1092SOL     OW13379   0.216   8.020   0.707
 1092SOL    HW113380   0.298   8.044   0.758
 1092SOL    HW213381   0.230   8.038   0.610
 1093SOL     OW13382   3.399   8.107   0.535
 1093SOL    HW113383   3.430   8.079   0.444
 1093SOL    HW213384   3.426   8.202   0.552
 1094SOL     OW13385   4.619   1.517   0.948
 1094SOL    HW113386   4.556   1.594   0.943
 1094SOL    HW213387   4.660   1.501   0.858
 1095SOL     OW13388   3.598   0.520   0.412
 1095SOL    HW113389   3.634   0.557   0.498
 1095SOL    HW213390   3.631   0.574   0.336
 1096SOL     OW13391   0.998   4.124   0.437
 1096SOL    HW113392   1.094   4.110   0.463
 1096SOL    HW213393   0.965   4.210   0.476
 1097SOL     OW13394   0.129   3.310   0.869
 1097SOL    HW113395   0.119   3.404   0.835
 1097SOL    HW213396   0.038   3.270   0.881
 1098SOL     OW13397   2.719   8.627   0.906
 1098SOL    HW113398   2.761   8.540   0.880
 1098SOL    HW213399   2.634   8.610   0.954
 1099SOL     OW13400   8.412   8.748   0.326
 1099SOL    HW113401   8.505   8.781   0.341
 1099SOL    HW213402   8.388   8.683   0.398
 1100SOL     OW13403   9.344   1.422   2.306
 1100SOL    HW113404   9.384   1.480   2.235
 1100SOL    HW213405   9.244   1.429   2.302
 1101SOL     OW13406   9.535   4.548   0.987
 1101SOL    HW113407   9.506   4.570   0.894
 1101SOL    HW213408   9.561   4.633   1.034
 1102SOL     OW13409   9.758   3.192   1.996
 1102SOL    HW113410   9.680   3.222   2.050
 1102SOL    HW213411   9.765   3.092   1.999
 1103SOL     OW13412   1.434   7.409   0.459
 1103SOL    HW113413   1.386   7.390   0.373
 1103SOL    HW213414   1.532   7.401   0.445
 1104SOL     OW13415   8.194   1.013   0.039
 1104SOL    HW113416   8.145   0.989   2.897
 1104SOL    HW213417   8.138   1.074   0.095
 1105SOL     OW13418   2.106   3.040   1.100
 1105SOL    HW113419   2.037   3.072   1.035
 1105SOL    HW213420   2.075   2.956   1.144
 1106SOL     OW13421   8.286   1.993   1.938
 1106SOL    HW113422   8.328   1.904   1.956
 1106SOL    HW213423   8.187   1.982   1.931
 1107SOL     OW13424   2.429   4.857   2.097
 1107SOL    HW113425   2.370   4.846   2.017
 1107SOL    HW213426   2.501   4.924   2.076
 1108SOL     OW13427   3.029   8.748   1.807
 1108SOL    HW113428   3.114   8.718   1.763
 1108SOL    HW213429   2.953   8.691   1.775
 1109SOL     OW13430   2.804   3.260   0.395
 1109SOL    HW113431   2.871   3.328   0.425
 1109SOL    HW213432   2.716   3.280   0.438
 1110SOL     OW13433   0.996   9.770   1.699
 1110SOL    HW113434   1.061   9.778   1.623
 1110SOL    HW213435   0.915   9.720   1.669
 1111SOL     OW13436   9.893   1.272   0.291
 1111SOL    HW113437   9.806   1.321   0.298
 1111SOL    HW213438   9.881   1.189   0.237
 1112SOL     OW13439   1.787   2.790   0.586
 1112SOL    HW113440   1.783   2.690   0.587
 1112SOL    HW213441   1.808   2.823   0.678
 1113SOL     OW13442   0.033   4.970   0.979
 1113SOL    HW113443   0.129   4.961   1.004
 1113SOL    HW213444   0.000   5.062   1.004
 1114SOL     OW13445   3.475   0.103   1.836
 1114SOL    HW113446   3.419   0.106   1.919
 1114SOL    HW213447   3.533   0.184   1.832
 1115SOL     OW13448   4.519   3.942   0.952
 1115SOL    HW113449   4.614   3.938   0.922
 1115SOL    HW213450   4.504   4.025   1.005
 1116SOL     OW13451   1.821   3.939   0.632
 1116SOL    HW113452   1.783   3.913   0.720
 1116SOL    HW213453   1.757   3.914   0.559
 1117SOL     OW13454   2.829   2.089   1.610
 1117SOL    HW113455   2.736   2.105   1.643
 1117SOL    HW213456   2.880   2.037   1.678
 1118SOL     OW13457   1.473   6.655   0.276
 1118SOL    HW113458   1.379   6.622   0.275
 1118SOL    HW213459   1.524   6.614   0.201
 1119SOL     OW13460   2.179   8.035   0.367
 1119SOL    HW113461   2.189   7.944   0.409
 1119SOL    HW213462   2.083   8.053   0.350
 1120SOL     OW13463   9.890   2.045   1.404
 1120SOL    HW113464   9.956   2.034   1.477
 1120SOL    HW213465   9.824   1.969   1.407
 1121SOL     OW13466   3.148   1.975   1.495
 1121SOL    HW113467   3.124   1.920   1.415
 1121SOL    HW213468   3.164   2.069   1.467
 1122SOL     OW13469   0.398   1.086   2.107
 1122SOL    HW113470   0.331   1.109   2.036
 1122SOL    HW213471   0.367   1.120   2.195
 1123SOL     OW13472   2.940   9.210   1.761
 1123SOL    HW113473   2.898   9.170   1.680
 1123SOL    HW213474   2.967   9.137   1.824
 1124SOL     OW13475   8.312   9.422   1.453
 1124SOL    HW113476   8.396   9.433   1.400
 1124SOL    HW213477   8.290   9.509   1.498
 1125SOL     OW13478   8.602   0.959   1.302
 1125SOL    HW113479   8.539   0.883   1.285
 1125SOL    HW213480   8.694   0.933   1.275
 1126SOL     OW13481   8.544   7.899   2.159
 1126SOL    HW113482   8.596   7.877   2.077
 1126SOL    HW213483   8.542   7.819   2.220
 1127SOL     OW13484   1.145   6.971   1.600
 1127SOL    HW113485   1.238   6.955   1.635
 1127SOL    HW213486   1.117   7.064   1.623
 1128SOL     OW13487   4.154   9.367   1.188
 1128SOL    HW113488   4.190   9.275   1.178
 1128SOL    HW213489   4.149   9.392   1.284
 1129SOL     OW13490   2.826   6.202   0.342
 1129SOL    HW113491   2.727   6.207   0.328
 1129SOL    HW213492   2.846   6.148   0.424
 1130SOL     OW13493   2.929   6.713   1.890
 1130SOL    HW113494   2.930   6.707   1.790
 1130SOL    HW213495   2.893   6.628   1.928
 1131SOL     OW13496   0.475   2.095   1.392
 1131SOL    HW113497   0.403   2.113   1.325
 1131SOL    HW213498   0.434   2.070   1.479
 1132SOL     OW13499   2.106   3.672   1.684
 1132SOL    HW113500   2.106   3.573   1.668
 1132SOL    HW213501   2.106   3.689   1.783
 1133SOL     OW13502   4.129   2.893   1.416
 1133SOL    HW113503   4.150   2.819   1.480
 1133SOL    HW213504   4.039   2.931   1.436
 1134SOL     OW13505   3.096   5.897   0.582
 1134SOL    HW113506   3.010   5.947   0.578
 1134SOL    HW213507   3.161   5.936   0.516
 1135SOL     OW13508   9.059   6.075   1.612
 1135SOL    HW113509   9.089   6.161   1.570
 1135SOL    HW213510   9.132   6.039   1.671
 1136SOL     OW13511   3.018   4.501   0.667
 1136SOL    HW113512   3.088   4.479   0.599
 1136SOL    HW213513   3.053   4.480   0.758
 1137SOL     OW13514   0.150   7.743   1.631
 1137SOL    HW113515   0.078   7.679   1.657
 1137SOL    HW213516   0.172   7.732   1.535
 1138SOL     OW13517   0.882   1.635   1.782
 1138SOL    HW113518   0.947   1.668   1.714
 1138SOL    HW213519   0.928   1.625   1.870
 1139SOL     OW13520   7.679   9.643   1.740
 1139SOL    HW113521   7.761   9.665   1.687
 1139SOL    HW213522   7.701   9.642   1.838
 1140SOL     OW13523   1.982   2.971   0.513
 1140SOL    HW113524   1.935   3.058   0.501
 1140SOL    HW213525   1.916   2.899   0.533
 1141SOL     OW13526   0.521   9.526   0.991
 1141SOL    HW113527   0.577   9.537   1.073
 1141SOL    HW213528   0.493   9.430   0.982
 1142SOL     OW13529   8.570   9.180   2.090
 1142SOL    HW113530   8.569   9.187   1.990
 1142SOL    HW213531   8.634   9.108   2.118
 1143SOL     OW13532   0.387   1.549   2.065
 1143SOL    HW113533   0.366   1.581   2.157
 1143SOL    HW213534   0.483   1.521   2.060
 1144SOL     OW13535   8.912   0.827   1.924
 1144SOL    HW113536   8.973   0.767   1.872
 1144SOL    HW213537   8.869   0.893   1.862
 1145SOL     OW13538   2.863   5.089   0.460
 1145SOL    HW113539   2.836   5.183   0.437
 1145SOL    HW213540   2.919   5.052   0.386
 1146SOL     OW13541   9.576   7.263   0.959
 1146SOL    HW113542   9.645   7.330   0.987
 1146SOL    HW213543   9.612   7.171   0.975
 1147SOL     OW13544   0.540   0.163   1.344
 1147SOL    HW113545   0.606   0.141   1.272
 1147SOL    HW213546   0.448   0.166   1.305
 1148SOL     OW13547   2.582   4.669   2.224
 1148SOL    HW113548   2.663   4.717   2.259
 1148SOL    HW213549   2.517   4.735   2.187
 1149SOL     OW13550   9.641   6.445   2.297
 1149SOL    HW113551   9.579   6.371   2.271
 1149SOL    HW213552   9.735   6.412   2.299
 1150SOL     OW13553   3.885   5.258   0.127
 1150SOL    HW113554   3.872   5.291   0.034
 1150SOL    HW213555   3.976   5.285   0.160
 1151SOL     OW13556   0.655   0.047   0.188
 1151SOL    HW113557   0.575   0.072   0.243
 1151SOL    HW213558   0.714   0.128   0.177
 1152SOL     OW13559   7.686   0.658   0.249
 1152SOL    HW113560   7.605   0.635   0.195
 1152SOL    HW213561   7.768   0.638   0.195
 1153SOL     OW13562   2.934   2.819   0.402
 1153SOL    HW113563   2.870   2.743   0.396
 1153SOL    HW213564   2.978   2.818   0.492
 1154SOL     OW13565   8.816   2.494   0.066
 1154SOL    HW113566   8.721   2.480   0.037
 1154SOL    HW213567   8.853   2.409   0.102
 1155SOL     OW13568   3.131   9.905   0.728
 1155SOL    HW113569   3.218   9.906   0.678
 1155SOL    HW213570   3.055   9.911   0.664
 1156SOL     OW13571   1.830   5.883   0.902
 1156SOL    HW113572   1.798   5.875   0.996
 1156SOL    HW213573   1.921   5.842   0.895
 1157SOL     OW13574   9.234   8.936   1.034
 1157SOL    HW113575   9.246   9.035   1.026
 1157SOL    HW213576   9.178   8.904   0.958
 1158SOL     OW13577   3.809   5.603   0.675
 1158SOL    HW113578   3.709   5.611   0.666
 1158SOL    HW213579   3.849   5.694   0.676
 1159SOL     OW13580   0.726   6.514   0.972
 1159SOL    HW113581   0.757   6.487   0.880
 1159SOL    HW213582   0.629   6.495   0.981
 1160SOL     OW13583   8.441   2.976   1.492
 1160SOL    HW113584   8.398   2.892   1.460
 1160SOL    HW213585   8.440   3.044   1.420
 1161SOL     OW13586   2.639   9.956   1.487
 1161SOL    HW113587   2.646   9.909   1.576
 1161SOL    HW213588   2.573   0.030   1.494
 1162SOL     OW13589   1.376   1.587   2.231
 1162SOL    HW113590   1.293   1.639   2.213
 1162SOL    HW213591   1.358   1.490   2.217
 1163SOL     OW13592   0.136   2.471   0.916
 1163SOL    HW113593   0.098   2.464   0.823
 1163SOL    HW213594   0.235   2.476   0.911
 1164SOL     OW13595   2.984   7.928   1.010
 1164SOL    HW113596   3.030   7.995   0.952
 1164SOL    HW213597   2.978   7.841   0.963
 1165SOL     OW13598   9.640   1.036   1.526
 1165SOL    HW113599   9.709   1.069   1.462
 1165SOL    HW213600   9.618   0.940   1.505
 1166SOL     OW13601   0.103   2.410   2.255
 1166SOL    HW113602   0.041   2.386   2.330
 1166SOL    HW213603   0.187   2.448   2.293
 1167SOL     OW13604   1.229   7.695   0.343
 1167SOL    HW113605   1.153   7.631   0.353
 1167SOL    HW213606   1.281   7.699   0.429
 1168SOL     OW13607   0.393   4.530   1.179
 1168SOL    HW113608   0.315   4.472   1.202
 1168SOL    HW213609   0.405   4.600   1.250
 1169SOL     OW13610   0.727   1.173   0.485
 1169SOL    HW113611   0.689   1.081   0.471
 1169SOL    HW213612   0.825   1.171   0.469
 1170SOL     OW13613   0.571   5.061   2.184
 1170SOL    HW113614   0.666   5.070   2.153
 1170SOL    HW213615   0.525   4.991   2.130
 1171SOL     OW13616   1.944   7.099   2.296
 1171SOL    HW113617   2.025   7.145   2.259
 1171SOL    HW213618   1.956   7.085   2.395
 1172SOL     OW13619   2.294   3.886   1.314
 1172SOL    HW113620   2.303   3.846   1.406
 1172SOL    HW213621   2.301   3.813   1.246
 1173SOL     OW13622   4.142   1.435   1.073
 1173SOL    HW113623   4.211   1.374   1.111
 1173SOL    HW213624   4.131   1.417   0.976
 1174SOL     OW13625   1.202   4.753   1.657
 1174SOL    HW113626   1.197   4.661   1.694
 1174SOL    HW213627   1.134   4.811   1.701
 1175SOL     OW13628   8.861   1.809   0.814
 1175SOL    HW113629   8.789   1.816   0.746
 1175SOL    HW213630   8.942   1.860   0.782
 1176SOL     OW13631   9.279   6.738   0.476
 1176SOL    HW113632   9.334   6.722   0.394
 1176SOL    HW213633   9.211   6.666   0.486
 1177SOL     OW13634   1.929   2.909   0.159
 1177SOL    HW113635   1.878   2.824   0.164
 1177SOL    HW213636   2.017   2.898   0.205
 1178SOL     OW13637   3.738   3.293   1.234
 1178SOL    HW113638   3.785   3.375   1.199
 1178SOL    HW213639   3.645   3.290   1.198
 1179SOL     OW13640   8.844   9.597   1.985
 1179SOL    HW113641   8.759   9.548   2.006
 1179SOL    HW213642   8.852   9.676   2.045
 1180SOL     OW13643   9.381   6.997   0.224
 1180SOL    HW113644   9.381   6.918   0.164
 1180SOL    HW213645   9.470   7.004   0.270
 1181SOL     OW13646   4.015   1.506   1.800
 1181SOL    HW113647   4.026   1.587   1.858
 1181SOL    HW213648   4.105   1.467   1.780
 1182SOL     OW13649   8.061   8.053   1.647
 1182SOL    HW113650   8.069   8.130   1.710
 1182SOL    HW213651   8.028   7.972   1.697
 1183SOL     OW13652   2.800   4.662   0.729
 1183SOL    HW113653   2.880   4.610   0.698
 1183SOL    HW213654   2.782   4.737   0.665
 1184SOL     OW13655   2.810   2.373   2.064
 1184SOL    HW113656   2.846   2.329   1.981
 1184SOL    HW213657   2.885   2.417   2.113
 1185SOL     OW13658   2.358   3.043   1.438
 1185SOL    HW113659   2.385   2.975   1.371
 1185SOL    HW213660   2.272   3.085   1.410
 1186SOL     OW13661   9.056   5.148   0.395
 1186SOL    HW113662   9.086   5.238   0.429
 1186SOL    HW213663   8.961   5.154   0.365
 1187SOL     OW13664   0.418   0.808   1.826
 1187SOL    HW113665   0.436   0.802   1.924
 1187SOL    HW213666   0.327   0.773   1.807
 1188SOL     OW13667   9.758   1.468   1.743
 1188SOL    HW113668   9.801   1.524   1.814
 1188SOL    HW213669   9.763   1.372   1.768
 1189SOL     OW13670   3.420   3.662   1.009
 1189SOL    HW113671   3.480   3.656   0.929
 1189SOL    HW213672   3.330   3.698   0.981
 1190SOL     OW13673   0.306   1.030   0.644
 1190SOL    HW113674   0.314   1.036   0.544
 1190SOL    HW213675   0.216   0.994   0.667
 1191SOL     OW13676   8.364   9.072   0.508
 1191SOL    HW113677   8.420   9.151   0.481
 1191SOL    HW213678   8.321   9.033   0.427
 1192SOL     OW13679   0.562   5.062   1.642
 1192SOL    HW113680   0.639   5.017   1.597
 1192SOL    HW213681   0.481   5.004   1.635
 1193SOL     OW13682   2.325   0.676   0.812
 1193SOL    HW113683   2.404   0.616   0.824
 1193SOL    HW213684   2.252   0.647   0.874
 1194SOL     OW13685   4.028   0.310   1.035
 1194SOL    HW113686   3.950   0.360   0.997
 1194SOL    HW213687   4.038   0.223   0.987
 1195SOL     OW13688   0.236   3.620   1.439
 1195SOL    HW113689   0.190   3.557   1.377
 1195SOL    HW213690   0.307   3.669   1.388
 1196SOL     OW13691   9.636   1.416   0.996
 1196SOL    HW113692   9.675   1.426   0.905
 1196SOL    HW213693   9.646   1.321   1.027
 1197SOL     OW13694   1.807   9.728   1.844
 1197SOL    HW113695   1.883   9.703   1.783
 1197SOL    HW213696   1.842   9.782   1.920
 1198SOL     OW13697   9.753   2.971   0.948
 1198SOL    HW113698   9.804   2.907   0.891
 1198SOL    HW213699   9.671   3.001   0.899
 1199SOL     OW13700   0.274   0.581   1.226
 1199SOL    HW113701   0.298   0.631   1.143
 1199SOL    HW213702   0.315   0.627   1.305
 1200SOL     OW13703   1.061   3.412   2.169
 1200SOL    HW113704   1.031   3.370   2.083
 1200SOL    HW213705   1.150   3.456   2.156
 1201SOL     OW13706   8.297   1.780   1.638
 1201SOL    HW113707   8.390   1.782   1.675
 1201SOL    HW213708   8.291   1.841   1.559
 1202SOL     OW13709   0.034   1.173   1.518
 1202SOL    HW113710   0.053   1.115   1.597
 1202SOL    HW213711   0.064   1.267   1.539
 1203SOL     OW13712   8.554   1.784   1.742
 1203SOL    HW113713   8.578   1.860   1.682
 1203SOL    HW213714   8.637   1.733   1.765
 1204SOL     OW13715   8.826   4.043   0.708
 1204SOL    HW113716   8.775   3.964   0.741
 1204SOL    HW213717   8.817   4.049   0.608
 1205SOL     OW13718   8.311   1.180   1.862
 1205SOL    HW113719   8.397   1.213   1.823
 1205SOL    HW213720   8.241   1.250   1.851
 1206SOL     OW13721   9.760   0.162   1.368
 1206SOL    HW113722   9.685   0.148   1.304
 1206SOL    HW213723   9.811   0.243   1.342
 1207SOL     OW13724   0.754   9.149   1.927
 1207SOL    HW113725   0.849   9.150   1.896
 1207SOL    HW213726   0.730   9.058   1.959
 1208SOL     OW13727   3.577   5.365   0.254
 1208SOL    HW113728   3.616   5.274   0.263
 1208SOL    HW213729   3.650   5.432   0.239
 1209SOL     OW13730   9.428   9.727   0.239
 1209SOL    HW113731   9.443   9.822   0.267
 1209SOL    HW213732   9.353   9.724   0.172
 1210SOL     OW13733   0.552   7.706   1.606
 1210SOL    HW113734   0.598   7.790   1.635
 1210SOL    HW213735   0.480   7.684   1.672
 1211SOL     OW13736   9.822   4.240   0.727
 1211SOL    HW113737   9.796   4.144   0.716
 1211SOL    HW213738   9.921   4.250   0.713
 1212SOL     OW13739   2.366   1.227   1.892
 1212SOL    HW113740   2.460   1.198   1.879
 1212SOL    HW213741   2.304   1.152   1.869
 1213SOL     OW13742   0.006   4.022   2.273
 1213SOL    HW113743   9.977   4.040   2.367
 1213SOL    HW213744   9.926   3.996   2.218
 1214SOL     OW13745   2.589   8.991   2.154
 1214SOL    HW113746   2.684   9.007   2.180
 1214SOL    HW213747   2.567   8.894   2.167
 1215SOL     OW13748   0.334   7.233   1.111
 1215SOL    HW113749   0.363   7.210   1.018
 1215SOL    HW213750   0.342   7.152   1.170
 1216SOL     OW13751   4.746   9.621   2.125
 1216SOL    HW113752   4.759   9.533   2.169
 1216SOL    HW213753   4.684   9.612   2.047
 1217SOL     OW13754   1.574   1.426   2.033
 1217SOL    HW113755   1.501   1.401   2.097
 1217SOL    HW213756   1.554   1.386   1.943
 1218SOL     OW13757   2.729   3.289   0.806
 1218SOL    HW113758   2.772   3.225   0.743
 1218SOL    HW213759   2.783   3.294   0.890
 1219SOL     OW13760   2.942   5.271   1.390
 1219SOL    HW113761   2.956   5.370   1.396
 1219SOL    HW213762   2.853   5.248   1.428
 1220SOL     OW13763   1.021   7.474   1.970
 1220SOL    HW113764   1.033   7.557   1.916
 1220SOL    HW213765   1.108   7.424   1.974
 1221SOL     OW13766   8.533   4.124   1.233
 1221SOL    HW113767   8.602   4.127   1.304
 1221SOL    HW213768   8.477   4.042   1.244
 1222SOL     OW13769   9.571   9.392   1.035
 1222SOL    HW113770   9.617   9.472   0.995
 1222SOL    HW213771   9.482   9.381   0.991
 1223SOL     OW13772   9.350   3.944   1.866
 1223SOL    HW113773   9.288   4.014   1.903
 1223SOL    HW213774   9.418   3.988   1.808
 1224SOL     OW13775   2.370   9.570   1.844
 1224SOL    HW113776   2.426   9.502   1.797
 1224SOL    HW213777   2.375   9.657   1.795
 1225SOL     OW13778   2.391   8.884   1.691
 1225SOL    HW113779   2.484   8.898   1.657
 1225SOL    HW213780   2.391   8.811   1.759
 1226SOL     OW13781   3.067   7.684   0.070
 1226SOL    HW113782   3.007   7.731   0.005
 1226SOL    HW213783   3.082   7.742   0.150
 1227SOL     OW13784   1.578   8.857   0.466
 1227SOL    HW113785   1.591   8.767   0.424
 1227SOL    HW213786   1.546   8.922   0.397
 1228SOL     OW13787   1.465   5.016   0.226
 1228SOL    HW113788   1.481   5.077   0.303
 1228SOL    HW213789   1.553   4.989   0.185
 1229SOL     OW13790   8.134   0.454   0.049
 1229SOL    HW113791   8.152   0.411   2.902
 1229SOL    HW213792   8.217   0.498   0.083
 1230SOL     OW13793   1.458   2.079   0.078
 1230SOL    HW113794   1.451   2.152   0.010
 1230SOL    HW213795   1.388   2.010   0.061
 1231SOL     OW13796   8.724   5.518   0.180
 1231SOL    HW113797   8.655   5.590   0.168
 1231SOL    HW213798   8.686   5.431   0.150
 1232SOL     OW13799   3.343   8.273   1.512
 1232SOL    HW113800   3.374   8.367   1.499
 1232SOL    HW213801   3.410   8.223   1.568
 1233SOL     OW13802   3.654   0.314   1.820
 1233SOL    HW113803   3.718   0.344   1.750
 1233SOL    HW213804   3.705   0.275   1.897
 1234SOL     OW13805   2.613   3.157   1.504
 1234SOL    HW113806   2.523   3.114   1.493
 1234SOL    HW213807   2.627   3.224   1.431
 1235SOL     OW13808   5.006   3.625   0.205
 1235SOL    HW113809   5.044   3.708   0.165
 1235SOL    HW213810   5.030   3.620   0.302
 1236SOL     OW13811   0.410   2.979   0.922
 1236SOL    HW113812   0.471   2.934   0.987
 1236SOL    HW213813   0.328   2.923   0.908
 1237SOL     OW13814   3.046   2.491   2.147
 1237SOL    HW113815   3.057   2.568   2.084
 1237SOL    HW213816   3.118   2.494   2.216
 1238SOL     OW13817   8.872   2.144   0.689
 1238SOL    HW113818   8.827   2.165   0.776
 1238SOL    HW213819   8.950   2.084   0.706
 1239SOL     OW13820   1.587   6.439   1.058
 1239SOL    HW113821   1.568   6.346   1.090
 1239SOL    HW213822   1.538   6.505   1.114
 1240SOL     OW13823   9.017   3.500   0.517
 1240SOL    HW113824   9.074   3.576   0.486
 1240SOL    HW213825   8.940   3.489   0.454
 1241SOL     OW13826   9.228   6.573   1.096
 1241SOL    HW113827   9.296   6.555   1.167
 1241SOL    HW213828   9.162   6.497   1.093
 1242SOL     OW13829   9.363   1.385   0.665
 1242SOL    HW113830   9.437   1.446   0.634
 1242SOL    HW213831   9.315   1.349   0.585
 1243SOL     OW13832   0.472   7.895   1.016
 1243SOL    HW113833   0.559   7.846   1.016
 1243SOL    HW213834   0.398   7.830   1.032
 1244SOL     OW13835   1.358   0.103   1.925
 1244SOL    HW113836   1.413   0.095   2.008
 1244SOL    HW213837   1.319   0.014   1.902
 1245SOL     OW13838   8.958   7.728   1.185
 1245SOL    HW113839   8.990   7.655   1.246
 1245SOL    HW213840   8.884   7.778   1.230
 1246SOL     OW13841   9.427   8.874   1.889
 1246SOL    HW113842   9.358   8.802   1.890
 1246SOL    HW213843   9.473   8.874   1.800
 1247SOL     OW13844   9.597   6.715   0.308
 1247SOL    HW113845   9.651   6.638   0.341
 1247SOL    HW213846   9.513   6.681   0.265
 1248SOL     OW13847   8.957   4.839   0.185
 1248SOL    HW113848   8.871   4.872   0.225
 1248SOL    HW213849   9.006   4.784   0.253
 1249SOL     OW13850   9.562   1.537   0.560
 1249SOL    HW113851   9.584   1.499   0.470
 1249SOL    HW213852   9.599   1.629   0.568
 1250SOL     OW13853   0.506   8.513   0.153
 1250SOL    HW113854   0.501   8.613   0.152
 1250SOL    HW213855   0.535   8.479   0.064
 1251SOL     OW13856   9.520   9.967   0.340
 1251SOL    HW113857   9.612   9.971   0.300
 1251SOL    HW213858   9.505   0.045   0.399
 1252SOL     OW13859   1.688   7.743   1.000
 1252SOL    HW113860   1.787   7.736   0.994
 1252SOL    HW213861   1.646   7.695   0.923
 1253SOL     OW13862   4.863   0.950   1.979
 1253SOL    HW113863   4.886   1.043   2.007
 1253SOL    HW213864   4.781   0.952   1.921
 1254SOL     OW13865   0.048   6.182   0.155
 1254SOL    HW113866   0.039   6.082   0.152
 1254SOL    HW213867   0.144   6.207   0.164
 1255SOL     OW13868   3.101   8.922   2.248
 1255SOL    HW113869   3.188   8.946   2.293
 1255SOL    HW213870   3.116   8.845   2.186
 1256SOL     OW13871   7.597   0.163   1.603
 1256SOL    HW113872   7.523   0.174   1.537
 1256SOL    HW213873   7.561   0.129   1.690
 1257SOL     OW13874   3.720   1.527   0.995
 1257SOL    HW113875   3.652   1.467   0.954
 1257SOL    HW213876   3.675   1.608   1.034
 1258SOL     OW13877   2.571   6.850   1.787
 1258SOL    HW113878   2.481   6.879   1.754
 1258SOL    HW213879   2.641   6.872   1.719
 1259SOL     OW13880   0.037   2.201   0.651
 1259SOL    HW113881   0.012   2.156   0.737
 1259SOL    HW213882   0.033   2.135   0.576
 1260SOL     OW13883   2.615   4.158   1.157
 1260SOL    HW113884   2.704   4.195   1.184
 1260SOL    HW213885   2.571   4.220   1.092
 1261SOL     OW13886   9.636   1.132   0.816
 1261SOL    HW113887   9.629   1.131   0.915
 1261SOL    HW213888   9.668   1.222   0.786
 1262SOL     OW13889   0.560   2.745   1.333
 1262SOL    HW113890   0.531   2.815   1.400
 1262SOL    HW213891   0.518   2.658   1.356
 1263SOL     OW13892   1.341   9.348   0.133
 1263SOL    HW113893   1.313   9.253   0.139
 1263SOL    HW213894   1.287   9.403   0.197
 1264SOL     OW13895   2.103   5.418   0.700
 1264SOL    HW113896   2.064   5.455   0.784
 1264SOL    HW213897   2.130   5.494   0.640
 1265SOL     OW13898   2.470   8.529   1.640
 1265SOL    HW113899   2.373   8.547   1.625
 1265SOL    HW213900   2.509   8.486   1.558
 1266SOL     OW13901   8.662   3.380   0.181
 1266SOL    HW113902   8.678   3.295   0.131
 1266SOL    HW213903   8.567   3.409   0.168
 1267SOL     OW13904   2.772   6.049   1.289
 1267SOL    HW113905   2.800   6.056   1.193
 1267SOL    HW213906   2.845   6.005   1.341
 1268SOL     OW13907   3.502   0.763   1.389
 1268SOL    HW113908   3.531   0.687   1.447
 1268SOL    HW213909   3.532   0.849   1.430
 1269SOL     OW13910   8.893   7.560   1.588
 1269SOL    HW113911   8.808   7.592   1.547
 1269SOL    HW213912   8.874   7.483   1.649
 1270SOL     OW13913   1.280   0.651   1.882
 1270SOL    HW113914   1.235   0.731   1.845
 1270SOL    HW213915   1.375   0.673   1.905
 1271SOL     OW13916   4.225   0.693   0.360
 1271SOL    HW113917   4.136   0.735   0.341
 1271SOL    HW213918   4.298   0.750   0.322
 1272SOL     OW13919   2.731   4.851   0.538
 1272SOL    HW113920   2.779   4.937   0.519
 1272SOL    HW213921   2.740   4.790   0.460
 1273SOL     OW13922   2.576   4.499   0.719
 1273SOL    HW113923   2.505   4.534   0.781
 1273SOL    HW213924   2.657   4.557   0.724
 1274SOL     OW13925   1.625   6.713   0.832
 1274SOL    HW113926   1.532   6.677   0.840
 1274SOL    HW213927   1.689   6.638   0.814
 1275SOL     OW13928   0.048   2.806   1.613
 1275SOL    HW113929   0.140   2.776   1.589
 1275SOL    HW213930   9.981   2.753   1.562
 1276SOL     OW13931   7.577   0.608   1.403
 1276SOL    HW113932   7.589   0.705   1.382
 1276SOL    HW213933   7.529   0.562   1.328
 1277SOL     OW13934   0.806   7.672   1.255
 1277SOL    HW113935   0.869   7.744   1.282
 1277SOL    HW213936   0.840   7.584   1.289
 1278SOL     OW13937   0.222   3.585   0.499
 1278SOL    HW113938   0.187   3.660   0.443
 1278SOL    HW213939   0.226   3.502   0.443
 1279SOL     OW13940   0.376   2.908   2.069
 1279SOL    HW113941   0.343   2.830   2.121
 1279SOL    HW213942   0.449   2.879   2.007
 1280SOL     OW13943   2.277   3.748   0.699
 1280SOL    HW113944   2.178   3.737   0.692
 1280SOL    HW213945   2.299   3.789   0.788
 1281SOL     OW13946   9.237   5.594   0.272
 1281SOL    HW113947   9.259   5.658   0.346
 1281SOL    HW213948   9.161   5.630   0.218
 1282SOL     OW13949   4.560   4.703   0.346
 1282SOL    HW113950   4.510   4.649   0.278
 1282SOL    HW213951   4.502   4.718   0.426
 1283SOL     OW13952   2.120   3.397   1.681
 1283SOL    HW113953   2.152   3.380   1.588
 1283SOL    HW213954   2.193   3.378   1.746
 1284SOL     OW13955   2.034   3.303   0.179
 1284SOL    HW113956   2.093   3.225   0.197
 1284SOL    HW213957   2.083   3.370   0.123
 1285SOL     OW13958   1.061   4.000   2.168
 1285SOL    HW113959   0.962   4.005   2.173
 1285SOL    HW213960   1.100   4.091   2.182
 1286SOL     OW13961   9.500   5.649   1.583
 1286SOL    HW113962   9.530   5.731   1.534
 1286SOL    HW213963   9.400   5.645   1.582
 1287SOL     OW13964   9.190   8.010   1.496
 1287SOL    HW113965   9.159   8.038   1.405
 1287SOL    HW213966   9.200   7.911   1.499
 1288SOL     OW13967   3.976   8.546   0.722
 1288SOL    HW113968   3.969   8.479   0.648
 1288SOL    HW213969   4.021   8.629   0.688
 1289SOL     OW13970   9.820   0.164   0.628
 1289SOL    HW113971   9.909   0.178   0.585
 1289SOL    HW213972   9.831   0.110   0.712
 1290SOL     OW13973   0.807   4.831   0.126
 1290SOL    HW113974   0.896   4.861   0.159
 1290SOL    HW213975   0.794   4.734   0.149
 1291SOL     OW13976   3.150   5.566   0.991
 1291SOL    HW113977   3.147   5.467   1.000
 1291SOL    HW213978   3.227   5.603   1.043
 1292SOL     OW13979   0.972   3.320   1.920
 1292SOL    HW113980   0.981   3.226   1.890
 1292SOL    HW213981   0.875   3.346   1.921
 1293SOL     OW13982   2.809   2.659   0.769
 1293SOL    HW113983   2.813   2.641   0.867
 1293SOL    HW213984   2.745   2.595   0.726
 1294SOL     OW13985   4.364   0.550   1.207
 1294SOL    HW113986   4.419   0.618   1.159
 1294SOL    HW213987   4.333   0.481   1.142
 1295SOL     OW13988   2.702   5.325   2.099
 1295SOL    HW113989   2.738   5.407   2.142
 1295SOL    HW213990   2.603   5.324   2.106
 1296SOL     OW13991   2.966   5.540   1.380
 1296SOL    HW113992   2.967   5.590   1.293
 1296SOL    HW213993   3.049   5.560   1.431
 1297SOL     OW13994   1.393   6.058   1.890
 1297SOL    HW113995   1.437   6.144   1.916
 1297SOL    HW213996   1.463   5.988   1.872
 1298SOL     OW13997   9.723   6.652   2.146
 1298SOL    HW113998   9.690   6.586   2.214
 1298SOL    HW213999   9.656   6.726   2.136
 1299SOL     OW14000   2.482   6.061   0.656
 1299SOL    HW114001   2.484   6.161   0.657
 1299SOL    HW214002   2.518   6.028   0.569
 1300SOL     OW14003   2.290   0.879   0.159
 1300SOL    HW114004   2.356   0.949   0.131
 1300SOL    HW214005   2.302   0.860   0.256
 1301SOL     OW14006   2.970   7.052   0.406
 1301SOL    HW114007   2.968   7.100   0.318
 1301SOL    HW214008   2.929   7.109   0.476
 1302SOL     OW14009   1.564   0.700   0.509
 1302SOL    HW114010   1.562   0.684   0.608
 1302SOL    HW214011   1.585   0.614   0.462
 1303SOL     OW14012   8.117   1.370   1.834
 1303SOL    HW114013   8.150   1.434   1.903
 1303SOL    HW214014   8.078   1.421   1.758
 1304SOL     OW14015   4.327   4.278   0.129
 1304SOL    HW114016   4.259   4.347   0.104
 1304SOL    HW214017   4.302   4.190   0.089
 1305SOL     OW14018   0.236   8.395   1.217
 1305SOL    HW114019   0.207   8.437   1.303
 1305SOL    HW214020   0.233   8.463   1.144
 1306SOL     OW14021   4.230   9.008   0.034
 1306SOL    HW114022   4.162   8.936   0.027
 1306SOL    HW214023   4.184   9.097   0.039
 1307SOL     OW14024   2.919   9.570   0.510
 1307SOL    HW114025   2.890   9.593   0.603
 1307SOL    HW214026   2.857   9.501   0.472
 1308SOL     OW14027   3.739   1.020   0.739
 1308SOL    HW114028   3.724   1.078   0.819
 1308SOL    HW214029   3.660   0.961   0.725
 1309SOL     OW14030   8.017   8.466   0.716
 1309SOL    HW114031   7.973   8.413   0.788
 1309SOL    HW214032   8.039   8.557   0.750
 1310SOL     OW14033   5.013   3.829   0.959
 1310SOL    HW114034   5.017   3.730   0.974
 1310SOL    HW214035   5.011   3.876   1.047
 1311SOL     OW14036   2.544   9.204   1.779
 1311SOL    HW114037   2.556   9.287   1.726
 1311SOL    HW214038   2.450   9.173   1.772
 1312SOL     OW14039   4.435   3.033   1.655
 1312SOL    HW114040   4.498   2.958   1.639
 1312SOL    HW214041   4.390   3.059   1.569
 1313SOL     OW14042   9.525   9.067   0.913
 1313SOL    HW114043   9.433   9.099   0.934
 1313SOL    HW214044   9.522   8.970   0.886
 1314SOL     OW14045   9.715   5.036   1.067
 1314SOL    HW114046   9.809   5.072   1.070
 1314SOL    HW214047   9.652   5.106   1.102
 1315SOL     OW14048   4.140   2.800   1.159
 1315SOL    HW114049   4.137   2.701   1.173
 1315SOL    HW214050   4.138   2.846   1.247
 1316SOL     OW14051   9.529   8.025   2.293
 1316SOL    HW114052   9.565   8.016   2.386
 1316SOL    HW214053   9.500   7.935   2.260
 1317SOL     OW14054   8.839   3.883   2.183
 1317SOL    HW114055   8.789   3.897   2.268
 1317SOL    HW214056   8.856   3.786   2.169
 1318SOL     OW14057   0.685   7.722   1.003
 1318SOL    HW114058   0.631   7.642   0.979
 1318SOL    HW214059   0.739   7.702   1.085
 1319SOL     OW14060   3.542   6.307   0.079
 1319SOL    HW114061   3.467   6.370   0.058
 1319SOL    HW214062   3.519   6.215   0.047
 1320SOL     OW14063   0.879   3.404   1.509
 1320SOL    HW114064   0.945   3.458   1.457
 1320SOL    HW214065   0.841   3.459   1.583
 1321SOL     OW14066   1.547   9.640   1.247
 1321SOL    HW114067   1.573   9.589   1.165
 1321SOL    HW214068   1.490   9.583   1.306
 1322SOL     OW14069   1.017   9.575   0.591
 1322SOL    HW114070   0.945   9.597   0.526
 1322SOL    HW214071   0.979   9.519   0.665
 1323SOL     OW14072   9.330   6.388   0.550
 1323SOL    HW114073   9.405   6.445   0.583
 1323SOL    HW214074   9.353   6.292   0.563
 1324SOL     OW14075   4.346   1.232   0.754
 1324SOL    HW114076   4.340   1.331   0.769
 1324SOL    HW214077   4.442   1.207   0.739
 1325SOL     OW14078   3.323   8.567   0.721
 1325SOL    HW114079   3.282   8.657   0.735
 1325SOL    HW214080   3.264   8.497   0.762
 1326SOL     OW14081   3.355   5.680   1.727
 1326SOL    HW114082   3.432   5.705   1.667
 1326SOL    HW214083   3.326   5.760   1.779
 1327SOL     OW14084   3.522   5.323   1.600
 1327SOL    HW114085   3.529   5.224   1.602
 1327SOL    HW214086   3.483   5.356   1.685
 1328SOL     OW14087   8.221   6.528   0.507
 1328SOL    HW114088   8.190   6.490   0.594
 1328SOL    HW214089   8.238   6.626   0.517
 1329SOL     OW14090   8.555   7.653   2.285
 1329SOL    HW114091   8.649   7.625   2.303
 1329SOL    HW214092   8.502   7.574   2.255
 1330SOL     OW14093   3.606   8.357   1.244
 1330SOL    HW114094   3.704   8.375   1.232
 1330SOL    HW214095   3.587   8.262   1.220
 1331SOL     OW14096   9.948   2.191   1.788
 1331SOL    HW114097   9.870   2.243   1.824
 1331SOL    HW214098   9.980   2.127   1.858
 1332SOL     OW14099   9.680   7.284   0.084
 1332SOL    HW114100   9.584   7.278   0.110
 1332SOL    HW214101   9.687   7.314   2.930
 1333SOL     OW14102   1.948   6.878   2.062
 1333SOL    HW114103   1.890   6.797   2.075
 1333SOL    HW214104   1.941   6.937   2.142
 1334SOL     OW14105   9.730   1.826   1.441
 1334SOL    HW114106   9.635   1.843   1.412
 1334SOL    HW214107   9.746   1.727   1.446
 1335SOL     OW14108   2.673   1.783   1.551
 1335SOL    HW114109   2.690   1.696   1.505
 1335SOL    HW214110   2.617   1.841   1.491
 1336SOL     OW14111   1.259   9.083   0.160
 1336SOL    HW114112   1.246   9.031   0.075
 1336SOL    HW214113   1.179   9.072   0.219
 1337SOL     OW14114   2.247   7.686   0.847
 1337SOL    HW114115   2.307   7.620   0.801
 1337SOL    HW214116   2.269   7.778   0.816
 1338SOL     OW14117   3.111   8.641   0.087
 1338SOL    HW114118   3.032   8.695   0.056
 1338SOL    HW214119   3.160   8.691   0.158
 1339SOL     OW14120   0.752   5.903   0.202
 1339SOL    HW114121   0.718   5.809   0.197
 1339SOL    HW214122   0.836   5.904   0.256
 1340SOL     OW14123   8.151   0.322   2.057
 1340SOL    HW114124   8.125   0.331   1.961
 1340SOL    HW214125   8.127   0.231   2.089
 1341SOL     OW14126   4.360   0.846   0.130
 1341SOL    HW114127   4.277   0.900   0.142
 1341SOL    HW214128   4.435   0.906   0.102
 1342SOL     OW14129   2.489   4.417   1.392
 1342SOL    HW114130   2.419   4.479   1.428
 1342SOL    HW214131   2.446   4.332   1.361
 1343SOL     OW14132   8.143   2.596   0.359
 1343SOL    HW114133   8.195   2.658   0.302
 1343SOL    HW214134   8.102   2.646   0.435
 1344SOL     OW14135   8.531   9.022   1.080
 1344SOL    HW114136   8.457   8.991   1.021
 1344SOL    HW214137   8.500   9.099   1.136
 1345SOL     OW14138   9.403   7.512   2.164
 1345SOL    HW114139   9.397   7.469   2.074
 1345SOL    HW214140   9.482   7.475   2.213
 1346SOL     OW14141   1.132   8.237   1.449
 1346SOL    HW114142   1.051   8.205   1.400
 1346SOL    HW214143   1.189   8.290   1.387
 1347SOL     OW14144   0.177   0.954   1.011
 1347SOL    HW114145   0.194   0.953   1.109
 1347SOL    HW214146   0.134   1.041   0.986
 1348SOL     OW14147   1.845   4.540   0.347
 1348SOL    HW114148   1.818   4.447   0.372
 1348SOL    HW214149   1.788   4.573   0.272
 1349SOL     OW14150   1.519   8.258   1.142
 1349SOL    HW114151   1.554   8.166   1.123
 1349SOL    HW214152   1.586   8.326   1.112
 1350SOL     OW14153   1.612   9.461   0.557
 1350SOL    HW114154   1.614   9.486   0.460
 1350SOL    HW214155   1.557   9.529   0.607
 1351SOL     OW14156   4.020   0.185   1.278
 1351SOL    HW114157   4.114   0.177   1.312
 1351SOL    HW214158   4.020   0.232   1.190
 1352SOL     OW14159   3.403   5.484   0.439
 1352SOL    HW114160   3.455   5.531   0.510
 1352SOL    HW214161   3.466   5.440   0.375
 1353SOL     OW14162   1.956   1.112   1.281
 1353SOL    HW114163   2.033   1.049   1.290
 1353SOL    HW214164   1.873   1.069   1.315
 1354SOL     OW14165   1.354   8.099   1.879
 1354SOL    HW114166   1.277   8.121   1.820
 1354SOL    HW214167   1.388   8.181   1.923
 1355SOL     OW14168   0.000   1.775   2.252
 1355SOL    HW114169   9.930   1.812   2.192
 1355SOL    HW214170   0.061   1.715   2.200
 1356SOL     OW14171   9.918   6.117   1.716
 1356SOL    HW114172   9.968   6.204   1.721
 1356SOL    HW214173   9.821   6.133   1.734
 1357SOL     OW14174   4.539   1.318   2.127
 1357SOL    HW114175   4.446   1.282   2.128
 1357SOL    HW214176   4.581   1.299   2.038
 1358SOL     OW14177   0.475   0.014   1.815
 1358SOL    HW114178   0.476   0.012   1.715
 1358SOL    HW214179   0.563   0.047   1.849
 1359SOL     OW14180   0.647   6.133   1.961
 1359SOL    HW114181   0.704   6.096   1.888
 1359SOL    HW214182   0.700   6.198   2.016
 1360SOL     OW14183   3.979   9.191   0.806
 1360SOL    HW114184   4.003   9.103   0.847
 1360SOL    HW214185   3.984   9.263   0.875
 1361SOL     OW14186   0.450   3.291   1.211
 1361SOL    HW114187   0.421   3.273   1.118
 1361SOL    HW214188   0.518   3.222   1.238
 1362SOL     OW14189   8.301   0.825   0.219
 1362SOL    HW114190   8.324   0.735   0.182
 1362SOL    HW214191   8.267   0.884   0.146
 1363SOL     OW14192   0.582   0.479   1.246
 1363SOL    HW114193   0.571   0.463   1.344
 1363SOL    HW214194   0.564   0.576   1.227
 1364SOL     OW14195   0.590   1.860   1.638
 1364SOL    HW114196   0.523   1.835   1.708
 1364SOL    HW214197   0.624   1.952   1.656
 1365SOL     OW14198   9.083   1.951   0.719
 1365SOL    HW114199   9.092   1.988   0.626
 1365SOL    HW214200   9.163   1.896   0.741
 1366SOL     OW14201   2.638   8.566   1.253
 1366SOL    HW114202   2.617   8.486   1.310
 1366SOL    HW214203   2.576   8.568   1.174
 1367SOL     OW14204   1.894   6.883   0.511
 1367SOL    HW114205   1.846   6.909   0.596
 1367SOL    HW214206   1.829   6.840   0.448
 1368SOL     OW14207   1.535   5.614   1.773
 1368SOL    HW114208   1.586   5.576   1.696
 1368SOL    HW214209   1.556   5.562   1.856
 1369SOL     OW14210   1.289   7.949   2.104
 1369SOL    HW114211   1.316   8.002   2.023
 1369SOL    HW214212   1.307   8.003   2.186
 1370SOL     OW14213   1.558   0.246   1.507
 1370SOL    HW114214   1.601   0.283   1.590
 1370SOL    HW214215   1.459   0.256   1.514
 1371SOL     OW14216   2.664   8.905   1.630
 1371SOL    HW114217   2.672   8.908   1.730
 1371SOL    HW214218   2.725   8.973   1.590
 1372SOL     OW14219   3.713   0.841   1.803
 1372SOL    HW114220   3.770   0.759   1.815
 1372SOL    HW214221   3.771   0.922   1.807
 1373SOL     OW14222   8.880   4.989   1.620
 1373SOL    HW114223   8.847   5.080   1.645
 1373SOL    HW214224   8.835   4.959   1.537
 1374SOL     OW14225   2.672   5.608   1.844
 1374SOL    HW114226   2.689   5.512   1.822
 1374SOL    HW214227   2.757   5.659   1.843
 1375SOL     OW14228   3.295   4.084   0.307
 1375SOL    HW114229   3.204   4.125   0.309
 1375SOL    HW214230   3.364   4.156   0.299
 1376SOL     OW14231   4.290   0.380   1.008
 1376SOL    HW114232   4.340   0.300   0.974
 1376SOL    HW214233   4.194   0.356   1.020
 1377SOL     OW14234   0.121   1.616   1.015
 1377SOL    HW114235   0.079   1.671   1.088
 1377SOL    HW214236   0.166   1.677   0.949
 1378SOL     OW14237   8.393   3.816   0.443
 1378SOL    HW114238   8.339   3.892   0.481
 1378SOL    HW214239   8.488   3.824   0.474
 1379SOL     OW14240   1.576   2.306   0.353
 1379SOL    HW114241   1.642   2.362   0.303
 1379SOL    HW214242   1.595   2.209   0.338
 1380SOL     OW14243   8.652   0.482   0.166
 1380SOL    HW114244   8.743   0.493   0.125
 1380SOL    HW214245   8.639   0.386   0.191
 1381SOL     OW14246   3.179   8.751   2.038
 1381SOL    HW114247   3.232   8.835   2.021
 1381SOL    HW214248   3.112   8.739   1.965
 1382SOL     OW14249   2.862   0.661   1.880
 1382SOL    HW114250   2.858   0.613   1.968
 1382SOL    HW214251   2.850   0.759   1.895
 1383SOL     OW14252   9.705   1.776   0.567
 1383SOL    HW114253   9.762   1.783   0.649
 1383SOL    HW214254   9.759   1.743   0.490
 1384SOL     OW14255   2.240   2.033   0.168
 1384SOL    HW114256   2.164   2.023   0.104
 1384SOL    HW214257   2.267   1.943   0.202
 1385SOL     OW14258   1.509   8.799   1.038
 1385SOL    HW114259   1.418   8.760   1.023
 1385SOL    HW214260   1.576   8.750   0.982
 1386SOL     OW14261   1.897   9.100   2.051
 1386SOL    HW114262   1.961   9.026   2.035
 1386SOL    HW214263   1.946   9.183   2.079
 1387SOL     OW14264   0.109   5.124   0.125
 1387SOL    HW114265   0.109   5.030   0.159
 1387SOL    HW214266   0.026   5.141   0.072
 1388SOL     OW14267   4.331   8.641   2.020
 1388SOL    HW114268   4.372   8.555   2.048
 1388SOL    HW214269   4.376   8.675   1.938
 1389SOL     OW14270   1.255   8.291   1.056
 1389SOL    HW114271   1.354   8.288   1.073
 1389SOL    HW214272   1.239   8.295   0.957
 1390SOL     OW14273   0.429   5.814   1.664
 1390SOL    HW114274   0.414   5.722   1.700
 1390SOL    HW214275   0.503   5.812   1.597
 1391SOL     OW14276   3.555   1.022   1.474
 1391SOL    HW114277   3.611   1.084   1.529
 1391SOL    HW214278   3.459   1.041   1.490
 1392SOL     OW14279   8.552   0.686   2.113
 1392SOL    HW114280   8.489   0.763   2.125
 1392SOL    HW214281   8.501   0.600   2.120
 1393SOL     OW14282   2.800   7.159   1.142
 1393SOL    HW114283   2.727   7.150   1.074
 1393SOL    HW214284   2.767   7.126   1.231
 1394SOL     OW14285   0.143   3.824   1.882
 1394SOL    HW114286   0.082   3.903   1.889
 1394SOL    HW214287   0.127   3.777   1.796
 1395SOL     OW14288   2.289   3.496   0.322
 1395SOL    HW114289   2.231   3.437   0.377
 1395SOL    HW214290   2.293   3.587   0.363
 1396SOL     OW14291   4.474   2.691   1.106
 1396SOL    HW114292   4.420   2.743   1.172
 1396SOL    HW214293   4.569   2.689   1.135
 1397SOL     OW14294   2.924   5.138   0.732
 1397SOL    HW114295   2.973   5.225   0.728
 1397SOL    HW214296   2.902   5.107   0.639
 1398SOL     OW14297   4.174   2.584   0.460
 1398SOL    HW114298   4.128   2.507   0.504
 1398SOL    HW214299   4.250   2.614   0.518
 1399SOL     OW14300   3.043   4.203   1.672
 1399SOL    HW114301   3.037   4.131   1.740
 1399SOL    HW214302   3.096   4.280   1.709
 1400SOL     OW14303   8.443   6.014   1.959
 1400SOL    HW114304   8.512   5.966   2.013
 1400SOL    HW214305   8.433   5.969   1.870
 1401SOL     OW14306   0.473   6.585   1.491
 1401SOL    HW114307   0.446   6.590   1.395
 1401SOL    HW214308   0.537   6.659   1.512
 1402SOL     OW14309   9.642   9.231   0.591
 1402SOL    HW114310   9.543   9.220   0.588
 1402SOL    HW214311   9.674   9.224   0.685
 1403SOL     OW14312   9.473   2.281   0.915
 1403SOL    HW114313   9.381   2.311   0.940
 1403SOL    HW214314   9.469   2.227   0.831
 1404SOL     OW14315   1.687   7.845   1.525
 1404SOL    HW114316   1.640   7.759   1.506
 1404SOL    HW214317   1.632   7.900   1.587
 1405SOL     OW14318   8.441   1.754   1.989
 1405SOL    HW114319   8.476   1.772   1.897
 1405SOL    HW214320   8.506   1.698   2.040
 1406SOL     OW14321   0.656   4.576   2.064
 1406SOL    HW114322   0.622   4.588   2.157
 1406SOL    HW214323   0.632   4.485   2.031
 1407SOL     OW14324   4.679   1.467   0.680
 1407SOL    HW114325   4.747   1.538   0.660
 1407SOL    HW214326   4.598   1.481   0.623
 1408SOL     OW14327   1.516   5.699   0.579
 1408SOL    HW114328   1.546   5.741   0.664
 1408SOL    HW214329   1.551   5.752   0.502
 1409SOL     OW14330   1.747   3.532   2.136
 1409SOL    HW114331   1.667   3.573   2.179
 1409SOL    HW214332   1.722   3.445   2.095
 1410SOL     OW14333   3.214   9.128   1.424
 1410SOL    HW114334   3.238   9.104   1.519
 1410SOL    HW214335   3.226   9.226   1.411
 1411SOL     OW14336   1.825   5.922   0.491
 1411SOL    HW114337   1.836   5.822   0.490
 1411SOL    HW214338   1.858   5.960   0.405
 1412SOL     OW14339   9.856   6.691   1.005
 1412SOL    HW114340   9.849   6.708   0.907
 1412SOL    HW214341   9.899   6.770   1.049
 1413SOL     OW14342   1.447   1.693   0.125
 1413SOL    HW114343   1.546   1.679   0.133
 1413SOL    HW214344   1.401   1.652   0.204
 1414SOL     OW14345   2.381   3.864   0.936
 1414SOL    HW114346   2.480   3.877   0.926
 1414SOL    HW214347   2.337   3.951   0.954
 1415SOL     OW14348   1.895   6.803   1.793
 1415SOL    HW114349   1.924   6.831   1.884
 1415SOL    HW214350   1.869   6.706   1.794
 1416SOL     OW14351   1.834   0.783   1.326
 1416SOL    HW114352   1.875   0.712   1.270
 1416SOL    HW214353   1.834   0.754   1.422
 1417SOL     OW14354   1.303   3.531   2.068
 1417SOL    HW114355   1.338   3.437   2.062
 1417SOL    HW214356   1.354   3.590   2.006
 1418SOL     OW14357   3.965   9.581   1.757
 1418SOL    HW114358   3.958   9.661   1.817
 1418SOL    HW214359   3.913   9.597   1.673
 1419SOL     OW14360   4.190   9.552   0.203
 1419SOL    HW114361   4.203   9.625   0.270
 1419SOL    HW214362   4.172   9.466   0.252
 1420SOL     OW14363   9.621   7.126   2.100
 1420SOL    HW114364   9.670   7.192   2.043
 1420SOL    HW214365   9.528   7.160   2.117
 1421SOL     OW14366   2.418   1.378   2.117
 1421SOL    HW114367   2.385   1.323   2.040
 1421SOL    HW214368   2.347   1.444   2.142
 1422SOL     OW14369   1.503   9.129   1.719
 1422SOL    HW114370   1.528   9.105   1.625
 1422SOL    HW214371   1.585   9.157   1.769
 1423SOL     OW14372   0.652   9.586   0.202
 1423SOL    HW114373   0.562   9.617   0.232
 1423SOL    HW214374   0.701   9.662   0.159
 1424SOL     OW14375   2.763   7.388   1.952
 1424SOL    HW114376   2.812   7.471   1.925
 1424SOL    HW214377   2.800   7.355   2.039
 1425SOL     OW14378   9.248   8.669   1.869
 1425SOL    HW114379   9.170   8.669   1.932
 1425SOL    HW214380   9.215   8.673   1.775
 1426SOL     OW14381   0.773   9.633   1.615
 1426SOL    HW114382   0.760   9.545   1.570
 1426SOL    HW214383   0.738   9.706   1.556
 1427SOL     OW14384   1.462   2.405   0.013
 1427SOL    HW114385   1.559   2.412   2.934
 1427SOL    HW214386   1.423   2.496   0.027
 1428SOL     OW14387   1.557   7.604   1.462
 1428SOL    HW114388   1.619   7.525   1.469
 1428SOL    HW214389   1.484   7.594   1.530
 1429SOL     OW14390   3.484   2.511   0.099
 1429SOL    HW114391   3.439   2.600   0.086
 1429SOL    HW214392   3.416   2.443   0.127
 1430SOL     OW14393   1.588   5.868   1.852
 1430SOL    HW114394   1.557   5.782   1.812
 1430SOL    HW214395   1.688   5.874   1.843
 1431SOL     OW14396   7.819   9.948   0.139
 1431SOL    HW114397   7.745   9.950   0.071
 1431SOL    HW214398   7.790   9.997   0.221
 1432SOL     OW14399   1.628   2.824   0.365
 1432SOL    HW114400   1.677   2.825   0.452
 1432SOL    HW214401   1.600   2.917   0.341
 1433SOL     OW14402   8.673   7.620   1.439
 1433SOL    HW114403   8.696   7.546   1.377
 1433SOL    HW214404   8.697   7.708   1.397
 1434SOL     OW14405   9.554   5.413   0.622
 1434SOL    HW114406   9.546   5.491   0.560
 1434SOL    HW214407   9.511   5.333   0.582
 1435SOL     OW14408   3.556   9.404   0.811
 1435SOL    HW114409   3.598   9.315   0.824
 1435SOL    HW214410   3.627   9.473   0.797
 1436SOL     OW14411   1.997   1.702   2.116
 1436SOL    HW114412   1.981   1.728   2.021
 1436SOL    HW214413   1.915   1.658   2.152
 1437SOL     OW14414   8.588   1.059   1.558
 1437SOL    HW114415   8.518   1.008   1.607
 1437SOL    HW214416   8.594   1.025   1.464
 1438SOL     OW14417   9.343   5.872   1.248
 1438SOL    HW114418   9.256   5.882   1.296
 1438SOL    HW214419   9.341   5.926   1.164
 1439SOL     OW14420   1.826   6.988   1.616
 1439SOL    HW114421   1.856   6.916   1.678
 1439SOL    HW214422   1.812   7.073   1.667
 1440SOL     OW14423   0.030   2.853   2.143
 1440SOL    HW114424   0.017   2.770   2.198
 1440SOL    HW214425   0.055   2.827   2.050
 1441SOL     OW14426   0.192   1.930   1.366
 1441SOL    HW114427   0.214   2.011   1.312
 1441SOL    HW214428   0.158   1.957   1.456
 1442SOL     OW14429   2.452   5.558   0.325
 1442SOL    HW114430   2.366   5.511   0.306
 1442SOL    HW214431   2.435   5.653   0.350
 1443SOL     OW14432   3.713   9.389   1.399
 1443SOL    HW114433   3.739   9.312   1.457
 1443SOL    HW214434   3.618   9.378   1.370
 1444SOL     OW14435   0.553   7.201   0.143
 1444SOL    HW114436   0.623   7.135   0.167
 1444SOL    HW214437   0.509   7.175   0.057
 1445SOL     OW14438   4.225   2.615   2.017
 1445SOL    HW114439   4.176   2.702   2.010
 1445SOL    HW214440   4.160   2.543   2.040
 1446SOL     OW14441   3.212   3.840   1.943
 1446SOL    HW114442   3.175   3.752   1.971
 1446SOL    HW214443   3.281   3.870   2.009
 1447SOL     OW14444   3.901   0.956   2.069
 1447SOL    HW114445   3.902   0.993   1.976
 1447SOL    HW214446   3.979   0.895   2.081
 1448SOL     OW14447   3.595   2.693   0.497
 1448SOL    HW114448   3.614   2.769   0.559
 1448SOL    HW214449   3.581   2.728   0.405
 1449SOL     OW14450   9.410   3.730   0.463
 1449SOL    HW114451   9.488   3.670   0.445
 1449SOL    HW214452   9.412   3.807   0.401
 1450SOL     OW14453   3.783   0.008   0.117
 1450SOL    HW114454   3.714   9.937   0.099
 1450SOL    HW214455   3.760   0.091   0.066
 1451SOL     OW14456   1.123   5.841   2.168
 1451SOL    HW114457   1.215   5.811   2.193
 1451SOL    HW214458   1.072   5.866   2.250
 1452SOL     OW14459   0.122   6.622   1.632
 1452SOL    HW114460   0.173   6.696   1.677
 1452SOL    HW214461   0.139   6.626   1.533
 1453SOL     OW14462   3.567   9.848   1.802
 1453SOL    HW114463   3.667   9.847   1.792
 1453SOL    HW214464   3.536   9.942   1.816
 1454SOL     OW14465   9.898   0.974   2.112
 1454SOL    HW114466   9.929   0.916   2.036
 1454SOL    HW214467   9.826   0.926   2.162
 1455SOL     OW14468   1.402   2.154   0.696
 1455SOL    HW114469   1.380   2.220   0.624
 1455SOL    HW214470   1.389   2.062   0.661
 1456SOL     OW14471   0.921   2.104   0.705
 1456SOL    HW114472   0.995   2.159   0.743
 1456SOL    HW214473   0.959   2.027   0.654
 1457SOL     OW14474   3.789   5.141   0.769
 1457SOL    HW114475   3.722   5.157   0.697
 1457SOL    HW214476   3.831   5.228   0.795
 1458SOL     OW14477   9.625   7.382   0.511
 1458SOL    HW114478   9.674   7.415   0.430
 1458SOL    HW214479   9.611   7.458   0.575
 1459SOL     OW14480   4.379   2.646   0.629
 1459SOL    HW114481   4.453   2.580   0.621
 1459SOL    HW214482   4.355   2.657   0.726
 1460SOL     OW14483   8.664   2.391   2.126
 1460SOL    HW114484   8.577   2.428   2.158
 1460SOL    HW214485   8.649   2.339   2.042
 1461SOL     OW14486   9.607   4.913   0.070
 1461SOL    HW114487   9.671   4.971   0.121
 1461SOL    HW214488   9.602   4.943   2.916
 1462SOL     OW14489   0.848   8.859   1.620
 1462SOL    HW114490   0.750   8.846   1.633
 1462SOL    HW214491   0.888   8.777   1.579
 1463SOL     OW14492   2.366   2.218   0.597
 1463SOL    HW114493   2.451   2.169   0.618
 1463SOL    HW214494   2.389   2.305   0.552
 1464SOL     OW14495   8.219   7.187   1.434
 1464SOL    HW114496   8.281   7.265   1.420
 1464SOL    HW214497   8.218   7.162   1.530
 1465SOL     OW14498   1.202   9.508   0.306
 1465SOL    HW114499   1.255   9.576   0.357
 1465SOL    HW214500   1.120   9.551   0.269
 1466SOL     OW14501   0.890   4.390   1.857
 1466SOL    HW114502   0.938   4.307   1.830
 1466SOL    HW214503   0.859   4.381   1.952
 1467SOL     OW14504   4.049   2.840   1.983
 1467SOL    HW114505   4.115   2.898   1.935
 1467SOL    HW214506   3.994   2.790   1.916
 1468SOL     OW14507   3.562   1.050   1.197
 1468SOL    HW114508   3.546   0.960   1.155
 1468SOL    HW214509   3.572   1.038   1.296
 1469SOL     OW14510   3.396   3.102   0.650
 1469SOL    HW114511   3.453   3.178   0.619
 1469SOL    HW214512   3.301   3.117   0.621
 1470SOL     OW14513   7.741   1.036   0.167
 1470SOL    HW114514   7.764   1.133   0.161
 1470SOL    HW214515   7.671   1.014   0.098
 1471SOL     OW14516   2.563   9.765   0.186
 1471SOL    HW114517   2.490   9.717   0.236
 1471SOL    HW214518   2.644   9.770   0.245
 1472SOL     OW14519   8.916   0.526   0.095
 1472SOL    HW114520   8.921   0.621   0.063
 1472SOL    HW214521   8.995   0.507   0.154
 1473SOL     OW14522   9.304   3.675   1.806
 1473SOL    HW114523   9.325   3.770   1.826
 1473SOL    HW214524   9.297   3.662   1.707
 1474SOL     OW14525   2.312   9.733   0.053
 1474SOL    HW114526   2.407   9.763   0.053
 1474SOL    HW214527   2.292   9.686   0.139
 1475SOL     OW14528   3.345   0.709   0.195
 1475SOL    HW114529   3.396   0.659   0.125
 1475SOL    HW214530   3.331   0.650   0.275
 1476SOL     OW14531   8.221   7.679   1.822
 1476SOL    HW114532   8.236   7.619   1.901
 1476SOL    HW214533   8.302   7.737   1.808
 1477SOL     OW14534   8.775   4.326   0.677
 1477SOL    HW114535   8.780   4.232   0.711
 1477SOL    HW214536   8.854   4.377   0.708
 1478SOL     OW14537   0.589   1.819   0.702
 1478SOL    HW114538   0.619   1.900   0.752
 1478SOL    HW214539   0.578   1.743   0.766
 1479SOL     OW14540   7.645   1.342   0.594
 1479SOL    HW114541   7.572   1.273   0.599
 1479SOL    HW214542   7.733   1.298   0.612
 1480SOL     OW14543   0.108   3.972   1.567
 1480SOL    HW114544   0.097   3.876   1.592
 1480SOL    HW214545   0.018   4.016   1.563
 1481SOL     OW14546   2.282   8.541   0.383
 1481SOL    HW114547   2.304   8.638   0.381
 1481SOL    HW214548   2.300   8.504   0.474
 1482SOL     OW14549   8.575   8.097   0.101
 1482SOL    HW114550   8.641   8.058   0.167
 1482SOL    HW214551   8.588   8.053   0.012
 1483SOL     OW14552   9.727   9.055   2.061
 1483SOL    HW114553   9.659   8.992   2.098
 1483SOL    HW214554   9.786   9.006   1.996
 1484SOL     OW14555   9.627   9.869   1.615
 1484SOL    HW114556   9.642   9.815   1.531
 1484SOL    HW214557   9.535   9.907   1.614
 1485SOL     OW14558   8.054   1.194   0.188
 1485SOL    HW114559   8.109   1.266   0.231
 1485SOL    HW214560   7.961   1.228   0.173
 1486SOL     OW14561   3.457   4.085   0.755
 1486SOL    HW114562   3.523   4.151   0.789
 1486SOL    HW214563   3.368   4.130   0.744
 1487SOL     OW14564   2.965   3.190   1.817
 1487SOL    HW114565   2.938   3.181   1.721
 1487SOL    HW214566   2.890   3.162   1.876
 1488SOL     OW14567   5.230   3.605   1.534
 1488SOL    HW114568   5.277   3.692   1.547
 1488SOL    HW214569   5.267   3.558   1.454
 1489SOL     OW14570   9.800   0.653   1.326
 1489SOL    HW114571   9.730   0.723   1.315
 1489SOL    HW214572   9.810   0.631   1.423
 1490SOL     OW14573   8.076   2.755   2.083
 1490SOL    HW114574   8.158   2.802   2.049
 1490SOL    HW214575   8.069   2.767   2.182
 1491SOL     OW14576   1.165   6.394   1.663
 1491SOL    HW114577   1.146   6.458   1.736
 1491SOL    HW214578   1.149   6.438   1.574
 1492SOL     OW14579   1.277   3.861   0.076
 1492SOL    HW114580   1.263   3.808   2.933
 1492SOL    HW214581   1.242   3.810   0.154
 1493SOL     OW14582   1.561   1.785   2.176
 1493SOL    HW114583   1.650   1.740   2.177
 1493SOL    HW214584   1.490   1.718   2.199
 1494SOL     OW14585   9.241   3.346   0.584
 1494SOL    HW114586   9.243   3.309   0.677
 1494SOL    HW214587   9.159   3.402   0.572
 1495SOL     OW14588   9.135   0.432   0.763
 1495SOL    HW114589   9.042   0.409   0.734
 1495SOL    HW214590   9.151   0.530   0.750
 1496SOL     OW14591   2.050   0.514   0.430
 1496SOL    HW114592   2.013   0.583   0.493
 1496SOL    HW214593   2.099   0.444   0.483
 1497SOL     OW14594   0.490   5.325   1.639
 1497SOL    HW114595   0.521   5.230   1.635
 1497SOL    HW214596   0.505   5.369   1.550
 1498SOL     OW14597   4.657   9.932   1.526
 1498SOL    HW114598   4.745   9.890   1.544
 1498SOL    HW214599   4.667   0.002   1.455
 1499SOL     OW14600   3.594   9.808   0.080
 1499SOL    HW114601   3.582   9.756   2.937
 1499SOL    HW214602   3.505   9.827   0.122
 1500SOL     OW14603   1.741   5.215   0.447
 1500SOL    HW114604   1.772   5.285   0.511
 1500SOL    HW214605   1.642   5.203   0.456
 1501SOL     OW14606   2.912   7.626   1.913
 1501SOL    HW114607   2.872   7.717   1.917
 1501SOL    HW214608   3.001   7.626   1.960
 1502SOL     OW14609   0.969   6.516   0.499
 1502SOL    HW114610   1.010   6.441   0.446
 1502SOL    HW214611   1.041   6.581   0.524
 1503SOL     OW14612   9.444   5.413   0.197
 1503SOL    HW114613   9.418   5.333   0.251
 1503SOL    HW214614   9.373   5.483   0.205
 1504SOL     OW14615   7.933   8.858   1.404
 1504SOL    HW114616   7.915   8.901   1.315
 1504SOL    HW214617   7.891   8.768   1.407
 1505SOL     OW14618   3.582   3.982   1.383
 1505SOL    HW114619   3.518   3.996   1.308
 1505SOL    HW214620   3.540   4.011   1.469
 1506SOL     OW14621   2.636   7.004   0.583
 1506SOL    HW114622   2.620   7.082   0.522
 1506SOL    HW214623   2.617   6.919   0.535
 1507SOL     OW14624   1.245   2.551   1.644
 1507SOL    HW114625   1.170   2.542   1.709
 1507SOL    HW214626   1.321   2.600   1.687
 1508SOL     OW14627   2.182   0.166   1.526
 1508SOL    HW114628   2.118   0.240   1.546
 1508SOL    HW214629   2.191   0.156   1.427
 1509SOL     OW14630   2.591   8.608   0.227
 1509SOL    HW114631   2.577   8.674   0.154
 1509SOL    HW214632   2.547   8.521   0.203
 1510SOL     OW14633   1.606   6.532   0.069
 1510SOL    HW114634   1.564   6.510   2.922
 1510SOL    HW214635   1.700   6.561   0.055
 1511SOL     OW14636   1.179   6.682   0.559
 1511SOL    HW114637   1.148   6.723   0.645
 1511SOL    HW214638   1.243   6.745   0.514
 1512SOL     OW14639   9.965   1.228   2.061
 1512SOL    HW114640   9.945   1.135   2.091
 1512SOL    HW214641   9.914   1.293   2.117
 1513SOL     OW14642   8.441   3.592   0.007
 1513SOL    HW114643   8.408   3.499   0.027
 1513SOL    HW214644   8.462   3.639   0.093
 1514SOL     OW14645   1.373   7.923   1.197
 1514SOL    HW114646   1.451   7.961   1.147
 1514SOL    HW214647   1.383   7.824   1.205
 1515SOL     OW14648   9.827   1.805   1.064
 1515SOL    HW114649   9.733   1.803   1.099
 1515SOL    HW214650   9.891   1.790   1.139
 1516SOL     OW14651   9.595   2.211   2.103
 1516SOL    HW114652   9.603   2.119   2.142
 1516SOL    HW214653   9.523   2.261   2.151
 1517SOL     OW14654   1.370   8.459   2.232
 1517SOL    HW114655   1.402   8.490   2.322
 1517SOL    HW214656   1.332   8.536   2.181
 1518SOL     OW14657   3.560   8.481   0.843
 1518SOL    HW114658   3.526   8.475   0.936
 1518SOL    HW214659   3.494   8.530   0.786
 1519SOL     OW14660   8.714   1.286   1.459
 1519SOL    HW114661   8.673   1.202   1.495
 1519SOL    HW214662   8.651   1.362   1.470
 1520SOL     OW14663   2.405   4.569   1.150
 1520SOL    HW114664   2.477   4.538   1.212
 1520SOL    HW214665   2.318   4.528   1.176
 1521SOL     OW14666   9.732   9.233   0.855
 1521SOL    HW114667   9.710   9.309   0.916
 1521SOL    HW214668   9.673   9.155   0.876
 1522SOL     OW14669   0.628   4.401   1.247
 1522SOL    HW114670   0.541   4.445   1.226
 1522SOL    HW214671   0.630   4.310   1.206
 1523SOL     OW14672   1.537   8.027   1.672
 1523SOL    HW114673   1.483   8.047   1.590
 1523SOL    HW214674   1.480   8.037   1.753
 1524SOL     OW14675   7.978   9.438   1.549
 1524SOL    HW114676   7.902   9.379   1.521
 1524SOL    HW214677   7.944   9.529   1.568
 1525SOL     OW14678   9.347   8.138   0.212
 1525SOL    HW114679   9.358   8.179   0.121
 1525SOL    HW214680   9.284   8.194   0.266
 1526SOL     OW14681   0.036   8.644   1.261
 1526SOL    HW114682   0.080   8.733   1.259
 1526SOL    HW214683   0.063   8.596   1.345
 1527SOL     OW14684   2.271   5.049   0.950
 1527SOL    HW114685   2.305   4.968   0.998
 1527SOL    HW214686   2.171   5.053   0.959
 1528SOL     OW14687   5.517   3.058   0.596
 1528SOL    HW114688   5.563   3.131   0.545
 1528SOL    HW214689   5.556   2.970   0.569
 1529SOL     OW14690   1.399   8.353   1.375
 1529SOL    HW114691   1.439   8.442   1.398
 1529SOL    HW214692   1.438   8.320   1.289
 1530SOL     OW14693   0.467   8.261   1.901
 1530SOL    HW114694   0.479   8.301   1.991
 1530SOL    HW214695   0.554   8.222   1.869
 1531SOL     OW14696   2.393   6.584   0.196
 1531SOL    HW114697   2.486   6.552   0.209
 1531SOL    HW214698   2.393   6.683   0.182
 1532SOL     OW14699   1.197   1.180   1.141
 1532SOL    HW114700   1.116   1.144   1.096
 1532SOL    HW214701   1.187   1.279   1.156
 1533SOL     OW14702   8.732   4.100   1.421
 1533SOL    HW114703   8.762   4.127   1.512
 1533SOL    HW214704   8.721   4.001   1.418
 1534SOL     OW14705   4.722   9.895   2.163
 1534SOL    HW114706   4.736   9.796   2.164
 1534SOL    HW214707   4.798   9.939   2.115
 1535SOL     OW14708   8.771   8.324   0.756
 1535SOL    HW114709   8.757   8.236   0.712
 1535SOL    HW214710   8.858   8.363   0.727
 1536SOL     OW14711   1.728   2.502   1.873
 1536SOL    HW114712   1.757   2.577   1.814
 1536SOL    HW214713   1.802   2.479   1.937
 1537SOL     OW14714   3.332   6.253   0.635
 1537SOL    HW114715   3.322   6.339   0.684
 1537SOL    HW214716   3.331   6.270   0.537
 1538SOL     OW14717   9.389   7.245   1.544
 1538SOL    HW114718   9.389   7.292   1.456
 1538SOL    HW214719   9.330   7.293   1.609
 1539SOL     OW14720   1.492   5.008   1.368
 1539SOL    HW114721   1.483   5.097   1.322
 1539SOL    HW214722   1.541   4.945   1.308
 1540SOL     OW14723   0.560   2.815   1.886
 1540SOL    HW114724   0.611   2.743   1.839
 1540SOL    HW214725   0.604   2.903   1.870
 1541SOL     OW14726   9.340   6.102   0.119
 1541SOL    HW114727   9.321   6.058   0.031
 1541SOL    HW214728   9.429   6.071   0.153
 1542SOL     OW14729   9.479   8.020   1.288
 1542SOL    HW114730   9.534   8.088   1.336
 1542SOL    HW214731   9.392   8.061   1.261
 1543SOL     OW14732   8.500   9.487   0.938
 1543SOL    HW114733   8.466   9.575   0.905
 1543SOL    HW214734   8.595   9.496   0.968
 1544SOL     OW14735   0.565   4.638   1.599
 1544SOL    HW114736   0.614   4.551   1.604
 1544SOL    HW214737   0.563   4.681   1.689
 1545SOL     OW14738   1.995   2.212   1.404
 1545SOL    HW114739   1.947   2.168   1.328
 1545SOL    HW214740   2.056   2.282   1.368
 1546SOL     OW14741   3.356   9.456   2.041
 1546SOL    HW114742   3.392   9.549   2.034
 1546SOL    HW214743   3.272   9.457   2.095
 1547SOL     OW14744   3.279   5.909   1.865
 1547SOL    HW114745   3.312   5.994   1.906
 1547SOL    HW214746   3.192   5.926   1.818
 1548SOL     OW14747   1.571   3.253   0.546
 1548SOL    HW114748   1.488   3.201   0.525
 1548SOL    HW214749   1.572   3.336   0.490
 1549SOL     OW14750   8.982   1.463   1.117
 1549SOL    HW114751   8.967   1.491   1.022
 1549SOL    HW214752   8.922   1.387   1.140
 1550SOL     OW14753   0.308   6.015   2.211
 1550SOL    HW114754   0.302   5.982   2.305
 1550SOL    HW214755   0.269   5.948   2.149
 1551SOL     OW14756   2.165   1.044   1.826
 1551SOL    HW114757   2.135   1.036   1.921
 1551SOL    HW214758   2.107   1.110   1.778
 1552SOL     OW14759   0.449   5.639   0.608
 1552SOL    HW114760   0.441   5.685   0.520
 1552SOL    HW214761   0.437   5.705   0.682
 1553SOL     OW14762   0.777   9.813   0.106
 1553SOL    HW114763   0.735   9.893   0.149
 1553SOL    HW214764   0.789   9.830   0.009
 1554SOL     OW14765   8.503   0.779   0.959
 1554SOL    HW114766   8.421   0.737   0.920
 1554SOL    HW214767   8.499   0.878   0.949
 1555SOL     OW14768   8.031   0.308   1.804
 1555SOL    HW114769   8.003   0.349   1.717
 1555SOL    HW214770   7.951   0.271   1.851
 1556SOL     OW14771   9.712   6.838   1.830
 1556SOL    HW114772   9.752   6.928   1.811
 1556SOL    HW214773   9.781   6.767   1.817
 1557SOL     OW14774   2.698   5.617   0.220
 1557SOL    HW114775   2.619   5.578   0.268
 1557SOL    HW214776   2.667   5.668   0.140
 1558SOL     OW14777   9.312   1.336   1.733
 1558SOL    HW114778   9.225   1.385   1.736
 1558SOL    HW214779   9.388   1.401   1.740
 1559SOL     OW14780   9.169   8.734   1.608
 1559SOL    HW114781   9.144   8.829   1.626
 1559SOL    HW214782   9.197   8.724   1.512
 1560SOL     OW14783   4.942   2.931   0.681
 1560SOL    HW114784   4.899   2.955   0.593
 1560SOL    HW214785   4.953   2.832   0.686
 1561SOL     OW14786   2.095   5.093   1.931
 1561SOL    HW114787   2.115   5.167   1.867
 1561SOL    HW214788   2.125   5.120   2.023
 1562SOL     OW14789   9.536   5.641   2.101
 1562SOL    HW114790   9.572   5.722   2.148
 1562SOL    HW214791   9.548   5.652   2.002
 1563SOL     OW14792   2.246   6.130   1.519
 1563SOL    HW114793   2.300   6.208   1.488
 1563SOL    HW214794   2.168   6.163   1.573
 1564SOL     OW14795   8.669   1.832   0.617
 1564SOL    HW114796   8.587   1.804   0.667
 1564SOL    HW214797   8.655   1.923   0.578
 1565SOL     OW14798   3.655   3.671   0.294
 1565SOL    HW114799   3.689   3.587   0.251
 1565SOL    HW214800   3.557   3.678   0.280
 1566SOL     OW14801   0.801   3.248   0.460
 1566SOL    HW114802   0.827   3.294   0.545
 1566SOL    HW214803   0.869   3.267   0.389
 1567SOL     OW14804   3.656   4.153   0.161
 1567SOL    HW114805   3.595   4.089   0.115
 1567SOL    HW214806   3.708   4.105   0.232
 1568SOL     OW14807   9.835   1.119   1.342
 1568SOL    HW114808   9.839   1.191   1.274
 1568SOL    HW214809   9.908   1.132   1.410
 1569SOL     OW14810   7.937   0.409   1.564
 1569SOL    HW114811   8.021   0.445   1.522
 1569SOL    HW214812   7.860   0.468   1.540
 1570SOL     OW14813   9.787   1.557   1.482
 1570SOL    HW114814   9.721   1.514   1.421
 1570SOL    HW214815   9.770   1.526   1.576
 1571SOL     OW14816   1.199   3.903   1.115
 1571SOL    HW114817   1.267   3.972   1.090
 1571SOL    HW214818   1.142   3.881   1.035
 1572SOL     OW14819   3.116   5.288   1.014
 1572SOL    HW114820   3.027   5.307   1.056
 1572SOL    HW214821   3.121   5.191   0.990
 1573SOL     OW14822   0.330   0.467   1.689
 1573SOL    HW114823   0.268   0.419   1.628
 1573SOL    HW214824   0.281   0.541   1.735
 1574SOL     OW14825   2.226   1.736   1.112
 1574SOL    HW114826   2.283   1.730   1.193
 1574SOL    HW214827   2.175   1.822   1.113
 1575SOL     OW14828   1.832   3.497   0.246
 1575SOL    HW114829   1.766   3.470   0.316
 1575SOL    HW214830   1.899   3.424   0.233
 1576SOL     OW14831   9.876   0.394   1.269
 1576SOL    HW114832   9.972   0.375   1.248
 1576SOL    HW214833   9.867   0.491   1.294
 1577SOL     OW14834   1.007   9.657   0.175
 1577SOL    HW114835   1.054   9.656   0.087
 1577SOL    HW214836   0.927   9.717   0.169
 1578SOL     OW14837   1.186   0.424   1.737
 1578SOL    HW114838   1.160   0.353   1.802
 1578SOL    HW214839   1.230   0.500   1.785
 1579SOL     OW14840   2.030   7.650   1.317
 1579SOL    HW114841   2.071   7.651   1.408
 1579SOL    HW214842   2.046   7.561   1.274
 1580SOL     OW14843   0.044   6.494   0.972
 1580SOL    HW114844   9.975   6.558   1.003
 1580SOL    HW214845   0.060   6.425   1.043
 1581SOL     OW14846   1.784   2.502   1.335
 1581SOL    HW114847   1.796   2.519   1.237
 1581SOL    HW214848   1.871   2.518   1.382
 1582SOL     OW14849   1.968   6.023   2.940
 1582SOL    HW114850   2.054   6.067   2.912
 1582SOL    HW214851   1.895   6.048   2.876
 1583SOL     OW14852   9.552   8.855   2.132
 1583SOL    HW114853   9.615   8.777   2.127
 1583SOL    HW214854   9.499   8.861   2.048
 1584SOL     OW14855   0.161   8.450   1.907
 1584SOL    HW114856   0.201   8.532   1.865
 1584SOL    HW214857   0.212   8.426   1.989
 1585SOL     OW14858   1.506   4.871   2.014
 1585SOL    HW114859   1.574   4.797   2.013
 1585SOL    HW214860   1.420   4.836   2.050
 1586SOL     OW14861   0.411   1.831   1.839
 1586SOL    HW114862   0.485   1.780   1.883
 1586SOL    HW214863   0.359   1.881   1.908
 1587SOL     OW14864   9.075   6.345   1.025
 1587SOL    HW114865   9.135   6.317   0.951
 1587SOL    HW214866   8.980   6.346   0.993
 1588SOL     OW14867   2.000   5.053   0.995
 1588SOL    HW114868   1.977   5.057   1.092
 1588SOL    HW214869   1.916   5.055   0.941
 1589SOL     OW14870   9.334   4.808   0.981
 1589SOL    HW114871   9.259   4.759   1.027
 1589SOL    HW214872   9.415   4.806   1.038
 1590SOL     OW14873   2.561   5.324   0.787
 1590SOL    HW114874   2.610   5.366   0.711
 1590SOL    HW214875   2.528   5.233   0.760
 1591SOL     OW14876   2.155   4.156   2.100
 1591SOL    HW114877   2.252   4.180   2.091
 1591SOL    HW214878   2.136   4.075   2.046
 1592SOL     OW14879   3.085   4.255   0.312
 1592SOL    HW114880   2.992   4.218   0.303
 1592SOL    HW214881   3.105   4.313   0.233
 1593SOL     OW14882   0.203   7.774   0.315
 1593SOL    HW114883   0.141   7.844   0.280
 1593SOL    HW214884   0.292   7.783   0.270
 1594SOL     OW14885   1.381   9.917   0.979
 1594SOL    HW114886   1.287   9.900   1.008
 1594SOL    HW214887   1.382   9.935   0.881
 1595SOL     OW14888   0.626   1.205   1.975
 1595SOL    HW114889   0.561   1.169   2.042
 1595SOL    HW214890   0.614   1.158   1.888
 1596SOL     OW14891   4.305   4.884   1.278
 1596SOL    HW114892   4.257   4.921   1.358
 1596SOL    HW214893   4.335   4.959   1.220
 1597SOL     OW14894   1.311   5.519   1.262
 1597SOL    HW114895   1.243   5.494   1.193
 1597SOL    HW214896   1.306   5.617   1.280
 1598SOL     OW14897   8.105   3.043   0.422
 1598SOL    HW114898   8.083   2.956   0.467
 1598SOL    HW214899   8.061   3.046   0.332
 1599SOL     OW14900   9.305   6.366   0.201
 1599SOL    HW114901   9.323   6.276   0.159
 1599SOL    HW214902   9.239   6.355   0.275
 1600SOL     OW14903   0.033   1.743   1.240
 1600SOL    HW114904   0.079   1.820   1.284
 1600SOL    HW214905   0.030   1.666   1.304
 1601SOL     OW14906   2.916   1.238   2.180
 1601SOL    HW114907   2.817   1.249   2.175
 1601SOL    HW214908   2.938   1.142   2.200
 1602SOL     OW14909   2.949   7.203   0.179
 1602SOL    HW114910   3.010   7.282   0.178
 1602SOL    HW214911   2.854   7.235   0.175
 1603SOL     OW14912   2.699   8.611   0.470
 1603SOL    HW114913   2.798   8.604   0.459
 1603SOL    HW214914   2.655   8.612   0.379
 1604SOL     OW14915   1.662   2.319   1.677
 1604SOL    HW114916   1.572   2.348   1.645
 1604SOL    HW214917   1.690   2.376   1.754
 1605SOL     OW14918   9.887   5.219   1.960
 1605SOL    HW114919   9.920   5.291   2.022
 1605SOL    HW214920   9.962   5.157   1.938
 1606SOL     OW14921   1.105   5.620   0.879
 1606SOL    HW114922   1.109   5.717   0.902
 1606SOL    HW214923   1.096   5.608   0.780
 1607SOL     OW14924   2.863   3.928   0.161
 1607SOL    HW114925   2.883   3.984   0.241
 1607SOL    HW214926   2.801   3.977   0.100
 1608SOL     OW14927   1.476   5.128   0.926
 1608SOL    HW114928   1.451   5.034   0.902
 1608SOL    HW214929   1.408   5.166   0.988
 1609SOL     OW14930   0.043   1.522   1.406
 1609SOL    HW114931   0.106   1.527   1.483
 1609SOL    HW214932   9.949   1.534   1.439
 1610SOL     OW14933   0.932   8.099   1.292
 1610SOL    HW114934   0.845   8.113   1.246
 1610SOL    HW214935   1.004   8.082   1.224
 1611SOL     OW14936   8.007   0.225   0.681
 1611SOL    HW114937   8.002   0.184   0.590
 1611SOL    HW214938   8.012   0.153   0.750
 1612SOL     OW14939   2.510   0.732   1.679
 1612SOL    HW114940   2.522   0.772   1.770
 1612SOL    HW214941   2.598   0.700   1.644
 1613SOL     OW14942   3.257   8.637   1.700
 1613SOL    HW114943   3.252   8.636   1.600
 1613SOL    HW214944   3.270   8.544   1.733
 1614SOL     OW14945   3.194   3.821   1.671
 1614SOL    HW114946   3.213   3.833   1.768
 1614SOL    HW214947   3.109   3.771   1.659
 1615SOL     OW14948   8.959   8.758   0.571
 1615SOL    HW114949   8.931   8.723   0.482
 1615SOL    HW214950   9.050   8.722   0.593
 1616SOL     OW14951   4.171   3.331   1.436
 1616SOL    HW114952   4.260   3.375   1.419
 1616SOL    HW214953   4.126   3.312   1.349
 1617SOL     OW14954   9.957   6.951   1.053
 1617SOL    HW114955   0.011   6.969   0.971
 1617SOL    HW214956   9.863   6.983   1.039
 1618SOL     OW14957   2.474   6.330   0.710
 1618SOL    HW114958   2.383   6.353   0.745
 1618SOL    HW214959   2.544   6.372   0.768
 1619SOL     OW14960   8.685   6.035   1.483
 1619SOL    HW114961   8.741   5.984   1.549
 1619SOL    HW214962   8.599   6.061   1.526
 1620SOL     OW14963   2.123   3.337   0.475
 1620SOL    HW114964   2.058   3.288   0.417
 1620SOL    HW214965   2.075   3.378   0.552
 1621SOL     OW14966   0.284   7.189   1.676
 1621SOL    HW114967   0.239   7.207   1.589
 1621SOL    HW214968   0.219   7.148   1.739
 1622SOL     OW14969   8.357   7.047   0.467
 1622SOL    HW114970   8.292   7.123   0.472
 1622SOL    HW214971   8.404   7.049   0.379
 1623SOL     OW14972   8.995   8.947   1.205
 1623SOL    HW114973   8.925   8.982   1.143
 1623SOL    HW214974   9.079   8.928   1.154
 1624SOL     OW14975   2.142   0.644   1.020
 1624SOL    HW114976   2.113   0.739   1.025
 1624SOL    HW214977   2.191   0.620   1.104
 1625SOL     OW14978   2.761   2.085   2.052
 1625SOL    HW114979   2.737   2.178   2.079
 1625SOL    HW214980   2.756   2.025   2.132
 1626SOL     OW14981   4.269   8.879   1.695
 1626SOL    HW114982   4.336   8.809   1.720
 1626SOL    HW214983   4.318   8.957   1.655
 1627SOL     OW14984   3.841   1.936   2.168
 1627SOL    HW114985   3.775   1.982   2.109
 1627SOL    HW214986   3.842   1.838   2.147
 1628SOL     OW14987   9.196   4.393   0.194
 1628SOL    HW114988   9.102   4.421   0.215
 1628SOL    HW214989   9.205   4.379   0.095
 1629SOL     OW14990   3.507   8.825   2.279
 1629SOL    HW114991   3.544   8.772   2.203
 1629SOL    HW214992   3.576   8.890   2.311
 1630SOL     OW14993   3.040   0.643   1.560
 1630SOL    HW114994   3.094   0.580   1.504
 1630SOL    HW214995   3.097   0.720   1.588
 1631SOL     OW14996   9.388   7.667   0.315
 1631SOL    HW114997   9.343   7.749   0.280
 1631SOL    HW214998   9.336   7.586   0.287
 1632SOL     OW14999   0.624   5.788   1.474
 1632SOL    HW115000   0.591   5.767   1.382
 1632SOL    HW215001   0.672   5.876   1.473
 1633SOL     OW15002   1.607   8.833   1.293
 1633SOL    HW115003   1.560   8.827   1.205
 1633SOL    HW215004   1.706   8.831   1.278
 1634SOL     OW15005   1.352   5.545   0.087
 1634SOL    HW115006   1.396   5.495   0.013
 1634SOL    HW215007   1.406   5.534   0.171
 1635SOL     OW15008   9.410   1.285   0.207
 1635SOL    HW115009   9.343   1.310   0.276
 1635SOL    HW215010   9.409   1.185   0.194
 1636SOL     OW15011   9.074   9.595   1.468
 1636SOL    HW115012   9.120   9.651   1.538
 1636SOL    HW215013   9.100   9.499   1.480
 1637SOL     OW15014   4.675   3.772   1.924
 1637SOL    HW115015   4.750   3.781   1.857
 1637SOL    HW215016   4.706   3.718   2.002
 1638SOL     OW15017   2.815   6.487   1.998
 1638SOL    HW115018   2.832   6.390   1.978
 1638SOL    HW215019   2.827   6.503   2.096
 1639SOL     OW15020   1.138   1.364   1.967
 1639SOL    HW115021   1.169   1.386   1.874
 1639SOL    HW215022   1.060   1.301   1.961
 1640SOL     OW15023   1.461   3.897   0.820
 1640SOL    HW115024   1.400   3.818   0.809
 1640SOL    HW215025   1.554   3.864   0.839
 1641SOL     OW15026   1.518   9.199   0.519
 1641SOL    HW115027   1.534   9.295   0.541
 1641SOL    HW215028   1.576   9.142   0.577
 1642SOL     OW15029   1.442   4.647   1.005
 1642SOL    HW115030   1.482   4.561   0.974
 1642SOL    HW215031   1.385   4.630   1.085
 1643SOL     OW15032   1.743   6.747   0.321
 1643SOL    HW115033   1.646   6.723   0.320
 1643SOL    HW215034   1.798   6.667   0.299
 1644SOL     OW15035   8.430   9.250   0.279
 1644SOL    HW115036   8.387   9.161   0.263
 1644SOL    HW215037   8.412   9.310   0.202
 1645SOL     OW15038   1.293   6.154   1.266
 1645SOL    HW115039   1.304   6.098   1.349
 1645SOL    HW215040   1.303   6.250   1.289
 1646SOL     OW15041   8.886   1.886   1.089
 1646SOL    HW115042   8.971   1.933   1.064
 1646SOL    HW215043   8.841   1.852   1.006
 1647SOL     OW15044   2.631   5.024   2.029
 1647SOL    HW115045   2.720   4.981   2.014
 1647SOL    HW215046   2.643   5.123   2.036
 1648SOL     OW15047   2.428   5.295   2.075
 1648SOL    HW115048   2.343   5.254   2.107
 1648SOL    HW215049   2.442   5.271   1.979
 1649SOL     OW15050   2.706   6.203   1.740
 1649SOL    HW115051   2.772   6.223   1.813
 1649SOL    HW215052   2.650   6.124   1.766
 1650SOL     OW15053   8.612   6.071   0.125
 1650SOL    HW115054   8.682   6.141   0.144
 1650SOL    HW215055   8.611   6.004   0.199
 1651SOL     OW15056   0.324   1.402   1.835
 1651SOL    HW115057   0.405   1.388   1.778
 1651SOL    HW215058   0.349   1.456   1.916
 1652SOL     OW15059   9.546   4.237   0.145
 1652SOL    HW115060   9.642   4.239   0.117
 1652SOL    HW215061   9.525   4.319   0.198
 1653SOL     OW15062   7.729   1.145   1.297
 1653SOL    HW115063   7.766   1.194   1.377
 1653SOL    HW215064   7.804   1.108   1.243
 1654SOL     OW15065   3.810   1.321   1.835
 1654SOL    HW115066   3.887   1.384   1.821
 1654SOL    HW215067   3.755   1.353   1.912
 1655SOL     OW15068   2.594   5.966   0.421
 1655SOL    HW115069   2.592   6.052   0.371
 1655SOL    HW215070   2.683   5.922   0.408
 1656SOL     OW15071   8.907   6.255   1.792
 1656SOL    HW115072   8.936   6.177   1.737
 1656SOL    HW215073   8.985   6.292   1.842
 1657SOL     OW15074   8.053   9.659   0.610
 1657SOL    HW115075   7.957   9.685   0.596
 1657SOL    HW215076   8.079   9.590   0.543
 1658SOL     OW15077   2.617   8.873   1.129
 1658SOL    HW115078   2.604   8.871   1.228
 1658SOL    HW215079   2.583   8.788   1.089
 1659SOL     OW15080   9.161   4.304   1.534
 1659SOL    HW115081   9.192   4.209   1.537
 1659SOL    HW215082   9.234   4.361   1.496
 1660SOL     OW15083   9.714   0.959   1.781
 1660SOL    HW115084   9.631   0.924   1.824
 1660SOL    HW215085   9.693   0.988   1.687
 1661SOL     OW15086   1.916   6.514   0.775
 1661SOL    HW115087   1.992   6.476   0.722
 1661SOL    HW215088   1.830   6.491   0.731
 1662SOL     OW15089   0.949   8.451   0.069
 1662SOL    HW115090   1.047   8.431   0.078
 1662SOL    HW215091   0.930   8.542   0.104
 1663SOL     OW15092   0.078   0.157   0.986
 1663SOL    HW115093   0.077   0.222   1.062
 1663SOL    HW215094   0.161   0.171   0.932
 1664SOL     OW15095   3.568   2.803   0.249
 1664SOL    HW115096   3.651   2.796   0.193
 1664SOL    HW215097   3.488   2.780   0.194
 1665SOL     OW15098   4.253   3.031   1.033
 1665SOL    HW115099   4.271   3.008   0.937
 1665SOL    HW215100   4.208   2.954   1.078
 1666SOL     OW15101   0.058   0.235   0.506
 1666SOL    HW115102   0.073   0.327   0.541
 1666SOL    HW215103   0.029   0.240   0.410
 1667SOL     OW15104   0.894   7.937   0.343
 1667SOL    HW115105   0.917   7.998   0.267
 1667SOL    HW215106   0.799   7.949   0.369
 1668SOL     OW15107   9.602   4.551   0.646
 1668SOL    HW115108   9.505   4.557   0.621
 1668SOL    HW215109   9.645   4.478   0.593
 1669SOL     OW15110   1.899   5.038   1.255
 1669SOL    HW115111   1.924   4.942   1.244
 1669SOL    HW215112   1.904   5.063   1.351
 1670SOL     OW15113   8.989   0.574   2.220
 1670SOL    HW115114   8.923   0.649   2.216
 1670SOL    HW215115   9.078   0.606   2.188
 1671SOL     OW15116   2.088   3.954   1.942
 1671SOL    HW115117   2.013   3.968   1.877
 1671SOL    HW215118   2.103   3.856   1.955
 1672SOL     OW15119   0.447   0.380   1.926
 1672SOL    HW115120   0.413   0.407   1.836
 1672SOL    HW215121   0.371   0.350   1.983
 1673SOL     OW15122   8.790   2.931   0.964
 1673SOL    HW115123   8.845   2.861   1.009
 1673SOL    HW215124   8.811   2.932   0.866
 1674SOL     OW15125   9.780   9.659   1.734
 1674SOL    HW115126   9.725   9.575   1.731
 1674SOL    HW215127   9.723   9.736   1.704
 1675SOL     OW15128   4.153   1.029   0.177
 1675SOL    HW115129   4.169   1.090   0.099
 1675SOL    HW215130   4.152   1.082   0.261
 1676SOL     OW15131   9.621   6.565   1.086
 1676SOL    HW115132   9.715   6.597   1.074
 1676SOL    HW215133   9.599   6.500   1.013
 1677SOL     OW15134   0.789   9.635   0.445
 1677SOL    HW115135   0.772   9.597   0.353
 1677SOL    HW215136   0.703   9.635   0.497
 1678SOL     OW15137   0.818   7.142   1.653
 1678SOL    HW115138   0.912   7.174   1.667
 1678SOL    HW215139   0.755   7.201   1.703
 1679SOL     OW15140   1.831   3.731   1.956
 1679SOL    HW115141   1.930   3.721   1.950
 1679SOL    HW215142   1.795   3.666   2.023
 1680SOL     OW15143   0.972   0.964   1.836
 1680SOL    HW115144   1.070   0.946   1.824
 1680SOL    HW215145   0.924   0.944   1.751
 1681SOL     OW15146   9.947   6.738   0.485
 1681SOL    HW115147   9.997   6.653   0.474
 1681SOL    HW215148   9.909   6.743   0.578
 1682SOL     OW15149   2.995   2.782   1.709
 1682SOL    HW115150   2.904   2.817   1.732
 1682SOL    HW215151   2.988   2.713   1.638
 1683SOL     OW15152   4.151   0.033   0.284
 1683SOL    HW115153   4.160   0.114   0.227
 1683SOL    HW215154   4.118   9.956   0.229
 1684SOL     OW15155   3.810   5.393   1.078
 1684SOL    HW115156   3.850   5.337   1.150
 1684SOL    HW215157   3.727   5.438   1.113
 1685SOL     OW15158   1.426   9.454   1.425
 1685SOL    HW115159   1.501   9.450   1.491
 1685SOL    HW215160   1.401   9.362   1.397
 1686SOL     OW15161   4.323   9.642   0.834
 1686SOL    HW115162   4.330   9.603   0.742
 1686SOL    HW215163   4.347   9.573   0.902
 1687SOL     OW15164   2.429   5.744   1.803
 1687SOL    HW115165   2.515   5.693   1.806
 1687SOL    HW215166   2.355   5.687   1.839
 1688SOL     OW15167   2.514   1.058   0.098
 1688SOL    HW115168   2.452   1.137   0.101
 1688SOL    HW215169   2.604   1.085   0.131
 1689SOL     OW15170   0.709   2.011   0.343
 1689SOL    HW115171   0.742   2.095   0.387
 1689SOL    HW215172   0.735   1.932   0.397
 1690SOL     OW15173   1.211   5.464   1.914
 1690SOL    HW115174   1.230   5.518   1.832
 1690SOL    HW215175   1.269   5.382   1.914
 1691SOL     OW15176   9.450   7.755   1.364
 1691SOL    HW115177   9.468   7.851   1.341
 1691SOL    HW215178   9.363   7.748   1.412
 1692SOL     OW15179   0.353   9.226   0.525
 1692SOL    HW115180   0.306   9.292   0.468
 1692SOL    HW215181   0.348   9.135   0.482
 1693SOL     OW15182   3.491   9.172   0.455
 1693SOL    HW115183   3.444   9.185   0.543
 1693SOL    HW215184   3.423   9.155   0.384
 1694SOL     OW15185   0.455   4.727   1.365
 1694SOL    HW115186   0.516   4.801   1.338
 1694SOL    HW215187   0.484   4.690   1.453
 1695SOL     OW15188   2.185   8.071   1.645
 1695SOL    HW115189   2.163   8.100   1.553
 1695SOL    HW215190   2.240   7.987   1.642
 1696SOL     OW15191   9.275   9.201   0.989
 1696SOL    HW115192   9.257   9.264   1.064
 1696SOL    HW215193   9.221   9.228   0.909
 1697SOL     OW15194   4.201   1.912   0.401
 1697SOL    HW115195   4.177   1.981   0.332
 1697SOL    HW215196   4.118   1.865   0.431
 1698SOL     OW15197   1.609   4.162   0.188
 1698SOL    HW115198   1.513   4.137   0.194
 1698SOL    HW215199   1.640   4.152   0.093
 1699SOL     OW15200   8.820   4.013   1.026
 1699SOL    HW115201   8.756   4.089   1.022
 1699SOL    HW215202   8.897   4.031   0.966
 1700SOL     OW15203   0.039   7.857   0.886
 1700SOL    HW115204   9.952   7.906   0.877
 1700SOL    HW215205   0.110   7.907   0.835
 1701SOL     OW15206   1.015   1.600   2.022
 1701SOL    HW115207   1.065   1.659   2.084
 1701SOL    HW215208   1.068   1.517   2.004
 1702SOL     OW15209   2.340   8.840   0.399
 1702SOL    HW115210   2.419   8.900   0.385
 1702SOL    HW215211   2.267   8.891   0.443
 1703SOL     OW15212   4.455   4.156   1.516
 1703SOL    HW115213   4.369   4.154   1.566
 1703SOL    HW215214   4.531   4.166   1.580
 1704SOL     OW15215   2.440   3.145   2.106
 1704SOL    HW115216   2.378   3.223   2.089
 1704SOL    HW215217   2.482   3.117   2.019
 1705SOL     OW15218   2.455   5.764   1.184
 1705SOL    HW115219   2.413   5.844   1.226
 1705SOL    HW215220   2.411   5.746   1.096
 1706SOL     OW15221   8.916   6.789   0.603
 1706SOL    HW115222   8.985   6.861   0.607
 1706SOL    HW215223   8.855   6.806   0.526
 1707SOL     OW15224   3.840   8.899   0.623
 1707SOL    HW115225   3.773   8.887   0.697
 1707SOL    HW215226   3.819   8.984   0.574
 1708SOL     OW15227   0.505   5.419   1.381
 1708SOL    HW115228   0.568   5.353   1.341
 1708SOL    HW215229   0.509   5.505   1.329
 1709SOL     OW15230   1.093   7.041   0.315
 1709SOL    HW115231   1.079   7.107   0.241
 1709SOL    HW215232   1.190   7.041   0.340
 1710SOL     OW15233   0.910   3.627   1.123
 1710SOL    HW115234   0.833   3.573   1.087
 1710SOL    HW215235   0.883   3.723   1.127
 1711SOL     OW15236   3.748   4.947   2.201
 1711SOL    HW115237   3.741   5.045   2.183
 1711SOL    HW215238   3.840   4.924   2.232
 1712SOL     OW15239   2.812   9.306   1.375
 1712SOL    HW115240   2.726   9.291   1.326
 1712SOL    HW215241   2.824   9.404   1.391
 1713SOL     OW15242   9.608   4.349   1.676
 1713SOL    HW115243   9.556   4.422   1.723
 1713SOL    HW215244   9.568   4.260   1.699
 1714SOL     OW15245   2.075   4.025   2.356
 1714SOL    HW115246   1.975   4.029   2.359
 1714SOL    HW215247   2.107   4.066   2.270
 1715SOL     OW15248   7.953   9.314   1.802
 1715SOL    HW115249   7.979   9.352   1.713
 1715SOL    HW215250   8.031   9.269   1.844
 1716SOL     OW15251   1.765   6.776   1.446
 1716SOL    HW115252   1.775   6.852   1.510
 1716SOL    HW215253   1.721   6.699   1.491
 1717SOL     OW15254   8.217   7.480   2.020
 1717SOL    HW115255   8.165   7.437   1.946
 1717SOL    HW215256   8.161   7.486   2.102
 1718SOL     OW15257   3.054   6.235   0.687
 1718SOL    HW115258   3.036   6.325   0.727
 1718SOL    HW215259   3.153   6.223   0.674
 1719SOL     OW15260   3.319   0.518   0.394
 1719SOL    HW115261   3.418   0.506   0.410
 1719SOL    HW215262   3.271   0.505   0.481
 1720SOL     OW15263   4.796   2.689   0.483
 1720SOL    HW115264   4.707   2.730   0.500
 1720SOL    HW215265   4.830   2.718   0.393
 1721SOL     OW15266   0.079   5.032   1.623
 1721SOL    HW115267   9.992   5.054   1.579
 1721SOL    HW215268   0.128   5.116   1.645
 1722SOL     OW15269   1.722   9.035   0.627
 1722SOL    HW115270   1.680   8.964   0.571
 1722SOL    HW215271   1.766   8.992   0.707
 1723SOL     OW15272   1.396   8.068   1.436
 1723SOL    HW115273   1.393   8.024   1.346
 1723SOL    HW215274   1.389   8.168   1.424
 1724SOL     OW15275   8.429   3.079   0.101
 1724SOL    HW115276   8.381   3.014   0.042
 1724SOL    HW215277   8.525   3.085   0.072
 1725SOL     OW15278   0.966   4.080   0.758
 1725SOL    HW115279   1.033   4.127   0.700
 1725SOL    HW215280   0.875   4.119   0.743
 1726SOL     OW15281   9.228   1.409   1.218
 1726SOL    HW115282   9.147   1.438   1.167
 1726SOL    HW215283   9.199   1.364   1.303
 1727SOL     OW15284   3.848   1.864   1.576
 1727SOL    HW115285   3.798   1.777   1.572
 1727SOL    HW215286   3.923   1.856   1.641
 1728SOL     OW15287   0.346   9.958   0.732
 1728SOL    HW115288   0.336   0.041   0.787
 1728SOL    HW215289   0.360   9.880   0.792
 1729SOL     OW15290   8.849   2.046   1.309
 1729SOL    HW115291   8.834   2.140   1.280
 1729SOL    HW215292   8.849   1.986   1.229
 1730SOL     OW15293   1.214   8.936   1.370
 1730SOL    HW115294   1.198   8.838   1.354
 1730SOL    HW215295   1.242   8.950   1.465
 1731SOL     OW15296   9.804   4.195   0.074
 1731SOL    HW115297   9.888   4.247   0.093
 1731SOL    HW215298   9.823   4.097   0.082
 1732SOL     OW15299   0.534   1.618   0.901
 1732SOL    HW115300   0.456   1.560   0.923
 1732SOL    HW215301   0.615   1.561   0.887
 1733SOL     OW15302   8.823   8.760   1.324
 1733SOL    HW115303   8.857   8.733   1.414
 1733SOL    HW215304   8.887   8.825   1.282
 1734SOL     OW15305   2.866   5.306   1.124
 1734SOL    HW115306   2.774   5.346   1.115
 1734SOL    HW215307   2.888   5.294   1.221
 1735SOL     OW15308   0.383   4.810   0.267
 1735SOL    HW115309   0.448   4.803   0.343
 1735SOL    HW215310   0.432   4.837   0.184
 1736SOL     OW15311   7.436   9.484   2.280
 1736SOL    HW115312   7.494   9.497   2.360
 1736SOL    HW215313   7.402   9.390   2.278
 1737SOL     OW15314   4.624   4.473   2.102
 1737SOL    HW115315   4.579   4.386   2.082
 1737SOL    HW215316   4.718   4.456   2.132
 1738SOL     OW15317   2.195   9.939   0.666
 1738SOL    HW115318   2.223   9.964   0.759
 1738SOL    HW215319   2.174   9.842   0.662
 1739SOL     OW15320   3.791   9.858   1.115
 1739SOL    HW115321   3.796   9.758   1.124
 1739SOL    HW215322   3.838   9.900   1.193
 1740SOL     OW15323   4.177   4.047   1.015
 1740SOL    HW115324   4.167   3.998   1.102
 1740SOL    HW215325   4.145   4.141   1.026
 1741SOL     OW15326   9.836   7.210   0.717
 1741SOL    HW115327   9.751   7.186   0.671
 1741SOL    HW215328   9.831   7.305   0.749
 1742SOL     OW15329   9.977   2.688   0.448
 1742SOL    HW115330   9.992   2.610   0.509
 1742SOL    HW215331   0.018   2.770   0.488
 1743SOL     OW15332   9.284   1.199   0.862
 1743SOL    HW115333   9.336   1.268   0.811
 1743SOL    HW215334   9.206   1.170   0.807
 1744SOL     OW15335   8.423   7.425   2.193
 1744SOL    HW115336   8.384   7.345   2.240
 1744SOL    HW215337   8.361   7.453   2.120
 1745SOL     OW15338   2.242   2.719   1.129
 1745SOL    HW115339   2.329   2.756   1.160
 1745SOL    HW215340   2.168   2.758   1.183
 1746SOL     OW15341   2.591   2.410   1.691
 1746SOL    HW115342   2.527   2.428   1.766
 1746SOL    HW215343   2.682   2.441   1.717
 1747SOL     OW15344   4.459   9.468   2.032
 1747SOL    HW115345   4.397   9.392   2.050
 1747SOL    HW215346   4.408   9.554   2.036
 1748SOL     OW15347   1.565   5.462   1.998
 1748SOL    HW115348   1.469   5.445   2.019
 1748SOL    HW215349   1.606   5.379   1.962
 1749SOL     OW15350   0.537   6.455   2.180
 1749SOL    HW115351   0.472   6.520   2.220
 1749SOL    HW215352   0.488   6.375   2.147
 1750SOL     OW15353   4.036   2.432   2.102
 1750SOL    HW115354   3.962   2.377   2.062
 1750SOL    HW215355   3.997   2.512   2.147
 1751SOL     OW15356   1.831   7.209   1.783
 1751SOL    HW115357   1.928   7.221   1.765
 1751SOL    HW215358   1.797   7.288   1.835
 1752SOL     OW15359   9.363   7.697   0.591
 1752SOL    HW115360   9.306   7.776   0.610
 1752SOL    HW215361   9.376   7.688   0.492
 1753SOL     OW15362   8.626   9.453   2.114
 1753SOL    HW115363   8.679   9.477   2.195
 1753SOL    HW215364   8.612   9.354   2.112
 1754SOL     OW15365   1.340   2.888   0.222
 1754SOL    HW115366   1.261   2.941   0.254
 1754SOL    HW215367   1.422   2.945   0.224
 1755SOL     OW15368   9.356   4.484   1.437
 1755SOL    HW115369   9.363   4.452   1.343
 1755SOL    HW215370   9.445   4.516   1.468
 1756SOL     OW15371   9.379   9.715   2.178
 1756SOL    HW115372   9.424   9.652   2.115
 1756SOL    HW215373   9.443   9.741   2.250
 1757SOL     OW15374   0.867   4.353   1.391
 1757SOL    HW115375   0.783   4.371   1.339
 1757SOL    HW215376   0.927   4.294   1.338
 1758SOL     OW15377   8.090   0.007   0.103
 1758SOL    HW115378   7.995   9.978   0.112
 1758SOL    HW215379   8.104   0.091   0.156
 1759SOL     OW15380   1.403   3.060   1.515
 1759SOL    HW115381   1.370   2.997   1.444
 1759SOL    HW215382   1.325   3.102   1.561
 1760SOL     OW15383   7.727   0.910   0.662
 1760SOL    HW115384   7.794   0.982   0.681
 1760SOL    HW215385   7.713   0.902   0.564
 1761SOL     OW15386   3.729   2.280   1.406
 1761SOL    HW115387   3.804   2.220   1.434
 1761SOL    HW215388   3.735   2.298   1.307
 1762SOL     OW15389   4.102   4.368   1.375
 1762SOL    HW115390   4.117   4.270   1.394
 1762SOL    HW215391   4.162   4.397   1.301
 1763SOL     OW15392   2.642   2.136   0.339
 1763SOL    HW115393   2.559   2.170   0.295
 1763SOL    HW215394   2.678   2.058   0.286
 1764SOL     OW15395   9.711   3.367   1.337
 1764SOL    HW115396   9.744   3.451   1.379
 1764SOL    HW215397   9.670   3.387   1.248
 1765SOL     OW15398   2.003   7.892   0.687
 1765SOL    HW115399   1.926   7.951   0.662
 1765SOL    HW215400   1.978   7.837   0.767
 1766SOL     OW15401   3.130   9.389   1.667
 1766SOL    HW115402   3.217   9.378   1.715
 1766SOL    HW215403   3.064   9.322   1.701
 1767SOL     OW15404   1.752   9.497   0.793
 1767SOL    HW115405   1.830   9.435   0.804
 1767SOL    HW215406   1.702   9.474   0.710
 1768SOL     OW15407   9.197   7.924   0.662
 1768SOL    HW115408   9.258   7.940   0.739
 1768SOL    HW215409   9.104   7.906   0.695
 1769SOL     OW15410   4.424   3.649   1.865
 1769SOL    HW115411   4.429   3.592   1.784
 1769SOL    HW215412   4.511   3.695   1.880
 1770SOL     OW15413   4.688   3.611   1.261
 1770SOL    HW115414   4.689   3.528   1.318
 1770SOL    HW215415   4.640   3.592   1.175
 1771SOL     OW15416   9.164   3.742   0.861
 1771SOL    HW115417   9.248   3.724   0.811
 1771SOL    HW215418   9.179   3.726   0.958
 1772SOL     OW15419   3.862   4.531   1.607
 1772SOL    HW115420   3.823   4.547   1.698
 1772SOL    HW215421   3.857   4.434   1.585
 1773SOL     OW15422   3.483   3.318   0.280
 1773SOL    HW115423   3.463   3.378   0.357
 1773SOL    HW215424   3.560   3.355   0.227
 1774SOL     OW15425   3.522   2.835   2.136
 1774SOL    HW115426   3.510   2.775   2.215
 1774SOL    HW215427   3.585   2.909   2.159
 1775SOL     OW15428   2.350   3.198   0.554
 1775SOL    HW115429   2.271   3.249   0.520
 1775SOL    HW215430   2.318   3.124   0.615
 1776SOL     OW15431   1.563   1.706   0.426
 1776SOL    HW115432   1.605   1.781   0.477
 1776SOL    HW215433   1.625   1.677   0.353
 1777SOL     OW15434   0.645   6.142   0.141
 1777SOL    HW115435   0.596   6.170   0.223
 1777SOL    HW215436   0.675   6.047   0.150
 1778SOL     OW15437   7.912   0.481   0.718
 1778SOL    HW115438   7.926   0.382   0.712
 1778SOL    HW215439   7.847   0.510   0.648
 1779SOL     OW15440   3.466   4.967   2.207
 1779SOL    HW115441   3.565   4.967   2.220
 1779SOL    HW215442   3.431   4.873   2.208
 1780SOL     OW15443   8.291   0.114   0.907
 1780SOL    HW115444   8.308   0.166   0.823
 1780SOL    HW215445   8.199   0.075   0.903
 1781SOL     OW15446   2.815   6.374   1.046
 1781SOL    HW115447   2.903   6.366   1.093
 1781SOL    HW215448   2.746   6.407   1.110
 1782SOL     OW15449   0.012   4.648   0.377
 1782SOL    HW115450   9.952   4.579   0.338
 1782SOL    HW215451   9.966   4.692   0.455
 1783SOL     OW15452   7.910   0.627   0.077
 1783SOL    HW115453   7.988   0.566   0.087
 1783SOL    HW215454   7.872   0.618   2.926
 1784SOL     OW15455   8.702   7.553   0.270
 1784SOL    HW115456   8.660   7.516   0.187
 1784SOL    HW215457   8.639   7.617   0.313
 1785SOL     OW15458   2.797   5.729   1.490
 1785SOL    HW115459   2.701   5.714   1.466
 1785SOL    HW215460   2.851   5.650   1.459
 1786SOL     OW15461   4.938   9.964   1.988
 1786SOL    HW115462   4.975   0.037   1.932
 1786SOL    HW215463   4.892   9.896   1.930
 1787SOL     OW15464   1.066   4.173   0.176
 1787SOL    HW115465   1.031   4.107   0.109
 1787SOL    HW215466   1.033   4.148   0.267
 1788SOL     OW15467   9.776   6.303   0.601
 1788SOL    HW115468   9.709   6.253   0.657
 1788SOL    HW215469   9.832   6.237   0.551
 1789SOL     OW15470   9.903   8.596   1.034
 1789SOL    HW115471   9.946   8.614   1.122
 1789SOL    HW215472   9.872   8.501   1.031
 1790SOL     OW15473   1.394   6.569   0.873
 1790SOL    HW115474   1.447   6.505   0.929
 1790SOL    HW215475   1.315   6.601   0.925
 1791SOL     OW15476   0.436   5.803   0.384
 1791SOL    HW115477   0.430   5.782   0.287
 1791SOL    HW215478   0.361   5.864   0.410
 1792SOL     OW15479   3.975   3.025   2.173
 1792SOL    HW115480   3.997   2.959   2.102
 1792SOL    HW215481   4.052   3.034   2.236
 1793SOL     OW15482   3.570   5.892   0.630
 1793SOL    HW115483   3.550   5.958   0.702
 1793SOL    HW215484   3.540   5.929   0.542
 1794SOL     OW15485   9.108   9.084   1.421
 1794SOL    HW115486   9.080   9.043   1.508
 1794SOL    HW215487   9.060   9.039   1.346
 1795SOL     OW15488   8.876   3.145   0.551
 1795SOL    HW115489   8.948   3.214   0.558
 1795SOL    HW215490   8.856   3.128   0.455
 1796SOL     OW15491   3.528   9.058   0.004
 1796SOL    HW115492   3.476   8.975   0.019
 1796SOL    HW215493   3.500   9.100   2.858
 1797SOL     OW15494   2.033   9.980   0.301
 1797SOL    HW115495   2.000   9.949   0.212
 1797SOL    HW215496   2.101   0.053   0.288
 1798SOL     OW15497   2.975   8.412   0.172
 1798SOL    HW115498   3.039   8.353   0.222
 1798SOL    HW215499   3.027   8.482   0.123
 1799SOL     OW15500   4.618   0.424   0.310
 1799SOL    HW115501   4.545   0.389   0.369
 1799SOL    HW215502   4.584   0.501   0.257
 1800SOL     OW15503   9.967   7.956   2.247
 1800SOL    HW115504   9.897   8.015   2.207
 1800SOL    HW215505   9.938   7.860   2.239
 1801SOL     OW15506   3.296   9.165   0.960
 1801SOL    HW115507   3.321   9.180   0.864
 1801SOL    HW215508   3.355   9.096   1.000
 1802SOL     OW15509   2.679   3.871   1.448
 1802SOL    HW115510   2.747   3.935   1.413
 1802SOL    HW215511   2.623   3.916   1.518
 1803SOL     OW15512   2.466   1.153   0.404
 1803SOL    HW115513   2.397   1.131   0.473
 1803SOL    HW215514   2.521   1.230   0.436
 1804SOL     OW15515   2.959   8.575   0.399
 1804SOL    HW115516   3.008   8.521   0.467
 1804SOL    HW215517   2.950   8.522   0.315
 1805SOL     OW15518   1.656   5.043   1.588
 1805SOL    HW115519   1.599   5.030   1.506
 1805SOL    HW215520   1.600   5.033   1.670
 1806SOL     OW15521   4.777   3.379   1.688
 1806SOL    HW115522   4.742   3.393   1.781
 1806SOL    HW215523   4.858   3.436   1.674
 1807SOL     OW15524   9.315   0.718   1.421
 1807SOL    HW115525   9.272   0.781   1.485
 1807SOL    HW215526   9.351   0.768   1.343
 1808SOL     OW15527   1.969   6.014   2.052
 1808SOL    HW115528   1.978   5.934   2.112
 1808SOL    HW215529   2.050   6.021   1.993
 1809SOL     OW15530   9.666   9.919   1.029
 1809SOL    HW115531   9.592   9.854   1.013
 1809SOL    HW215532   9.717   9.892   1.111
 1810SOL     OW15533   8.664   0.301   0.523
 1810SOL    HW115534   8.636   0.226   0.582
 1810SOL    HW215535   8.608   0.381   0.542
 1811SOL     OW15536   2.981   0.967   2.192
 1811SOL    HW115537   3.043   0.911   2.247
 1811SOL    HW215538   3.015   0.972   2.098
 1812SOL     OW15539   9.808   0.263   1.863
 1812SOL    HW115540   9.800   0.207   1.781
 1812SOL    HW215541   9.781   0.357   1.841
 1813SOL     OW15542   2.552   6.220   0.315
 1813SOL    HW115543   2.471   6.198   0.261
 1813SOL    HW215544   2.538   6.307   0.363
 1814SOL     OW15545   0.834   0.899   1.610
 1814SOL    HW115546   0.891   0.837   1.556
 1814SOL    HW215547   0.841   0.992   1.574
 1815SOL     OW15548   2.750   7.160   1.791
 1815SOL    HW115549   2.768   7.083   1.852
 1815SOL    HW215550   2.766   7.246   1.840
 1816SOL     OW15551   3.173   9.608   0.207
 1816SOL    HW115552   3.156   9.516   0.171
 1816SOL    HW215553   3.181   9.604   0.306
 1817SOL     OW15554   3.236   4.404   1.507
 1817SOL    HW115555   3.142   4.408   1.473
 1817SOL    HW215556   3.235   4.400   1.607
 1818SOL     OW15557   0.925   8.498   1.973
 1818SOL    HW115558   0.829   8.515   1.952
 1818SOL    HW215559   0.955   8.561   2.044
 1819SOL     OW15560   3.478   8.375   0.587
 1819SOL    HW115561   3.542   8.369   0.664
 1819SOL    HW215562   3.405   8.439   0.611
 1820SOL     OW15563   2.070   6.606   1.148
 1820SOL    HW115564   2.154   6.555   1.166
 1820SOL    HW215565   1.997   6.542   1.125
 1821SOL     OW15566   8.406   2.479   2.183
 1821SOL    HW115567   8.380   2.394   2.228
 1821SOL    HW215568   8.344   2.497   2.107
 1822SOL     OW15569   8.394   1.428   0.108
 1822SOL    HW115570   8.469   1.418   0.174
 1822SOL    HW215571   8.401   1.518   0.064
 1823SOL     OW15572   3.689   3.209   2.009
 1823SOL    HW115573   3.768   3.265   2.037
 1823SOL    HW215574   3.677   3.135   2.075
 1824SOL     OW15575   4.233   9.545   1.808
 1824SOL    HW115576   4.242   9.594   1.895
 1824SOL    HW215577   4.136   9.540   1.783
 1825SOL     OW15578   1.746   6.945   0.738
 1825SOL    HW115579   1.682   7.021   0.750
 1825SOL    HW215580   1.703   6.861   0.771
 1826SOL     OW15581   4.774   2.813   0.230
 1826SOL    HW115582   4.782   2.866   0.146
 1826SOL    HW215583   4.694   2.753   0.225
 1827SOL     OW15584   0.841   5.655   1.582
 1827SOL    HW115585   0.830   5.559   1.608
 1827SOL    HW215586   0.754   5.691   1.550
 1828SOL     OW15587   2.259   4.828   1.352
 1828SOL    HW115588   2.318   4.897   1.394
 1828SOL    HW215589   2.279   4.738   1.393
 1829SOL     OW15590   9.665   8.543   0.519
 1829SOL    HW115591   9.612   8.536   0.603
 1829SOL    HW215592   9.616   8.497   0.445
 1830SOL     OW15593   0.680   1.247   0.746
 1830SOL    HW115594   0.583   1.228   0.764
 1830SOL    HW215595   0.702   1.222   0.651
 1831SOL     OW15596   7.574   0.190   0.823
 1831SOL    HW115597   7.564   0.092   0.840
 1831SOL    HW215598   7.579   0.239   0.910
 1832SOL     OW15599   2.785   5.339   0.354
 1832SOL    HW115600   2.817   5.414   0.296
 1832SOL    HW215601   2.698   5.305   0.318
 1833SOL     OW15602   1.757   8.983   0.196
 1833SOL    HW115603   1.768   9.009   0.100
 1833SOL    HW215604   1.666   9.009   0.228
 1834SOL     OW15605   9.036   5.708   1.059
 1834SOL    HW115606   9.028   5.805   1.085
 1834SOL    HW215607   8.973   5.689   0.984
 1835SOL     OW15608   9.899   4.740   1.045
 1835SOL    HW115609   9.945   4.827   1.026
 1835SOL    HW215610   9.832   4.721   0.973
 1836SOL     OW15611   3.328   5.391   0.126
 1836SOL    HW115612   3.422   5.381   0.159
 1836SOL    HW215613   3.274   5.311   0.154
 1837SOL     OW15614   3.514   8.739   1.720
 1837SOL    HW115615   3.419   8.711   1.713
 1837SOL    HW215616   3.555   8.742   1.629
 1838SOL     OW15617   0.137   1.664   2.005
 1838SOL    HW115618   0.125   1.710   1.917
 1838SOL    HW215619   0.230   1.626   2.010
 1839SOL     OW15620   9.799   4.462   1.850
 1839SOL    HW115621   9.795   4.558   1.821
 1839SOL    HW215622   9.735   4.408   1.796
 1840SOL     OW15623   3.736   9.042   0.181
 1840SOL    HW115624   3.663   9.046   0.112
 1840SOL    HW215625   3.741   9.130   0.228
 1841SOL     OW15626   1.084   7.692   1.812
 1841SOL    HW115627   1.018   7.727   1.745
 1841SOL    HW215628   1.171   7.675   1.766
 1842SOL     OW15629   2.951   3.468   0.479
 1842SOL    HW115630   3.030   3.499   0.426
 1842SOL    HW215631   2.963   3.495   0.575
 1843SOL     OW15632   7.754   0.072   0.370
 1843SOL    HW115633   7.848   0.091   0.397
 1843SOL    HW215634   7.704   0.035   0.449
 1844SOL     OW15635   3.128   9.922   1.437
 1844SOL    HW115636   3.208   9.970   1.472
 1844SOL    HW215637   3.116   9.942   1.340
 1845SOL     OW15638   7.697   9.199   1.838
 1845SOL    HW115639   7.794   9.222   1.832
 1845SOL    HW215640   7.644   9.264   1.783
 1846SOL     OW15641   9.398   1.013   0.203
 1846SOL    HW115642   9.341   0.935   0.180
 1846SOL    HW215643   9.482   0.981   0.247
 1847SOL     OW15644   1.363   4.881   0.892
 1847SOL    HW115645   1.274   4.906   0.931
 1847SOL    HW215646   1.389   4.790   0.926
 1848SOL     OW15647   2.996   9.623   1.631
 1848SOL    HW115648   3.050   9.540   1.643
 1848SOL    HW215649   3.043   9.700   1.675
 1849SOL     OW15650   2.372   7.840   1.915
 1849SOL    HW115651   2.294   7.866   1.973
 1849SOL    HW215652   2.428   7.773   1.964
 1850SOL     OW15653   3.128   2.855   0.202
 1850SOL    HW115654   3.061   2.829   0.272
 1850SOL    HW215655   3.111   2.950   0.174
 1851SOL     OW15656   9.691   7.013   0.999
 1851SOL    HW115657   9.644   6.947   1.058
 1851SOL    HW215658   9.674   6.989   0.903
 1852SOL     OW15659   4.897   1.485   1.877
 1852SOL    HW115660   4.827   1.465   1.808
 1852SOL    HW215661   4.967   1.544   1.838
 1853SOL     OW15662   0.941   2.307   1.826
 1853SOL    HW115663   0.955   2.252   1.743
 1853SOL    HW215664   0.966   2.402   1.807
 1854SOL     OW15665   4.226   3.691   0.863
 1854SOL    HW115666   4.323   3.685   0.884
 1854SOL    HW215667   4.208   3.647   0.775
 1855SOL     OW15668   9.796   6.783   1.500
 1855SOL    HW115669   9.741   6.851   1.452
 1855SOL    HW215670   9.875   6.827   1.543
 1856SOL     OW15671   2.280   1.103   0.596
 1856SOL    HW115672   2.304   1.135   0.688
 1856SOL    HW215673   2.260   1.006   0.598
 1857SOL     OW15674   0.389   1.857   0.267
 1857SOL    HW115675   0.458   1.894   0.205
 1857SOL    HW215676   0.361   1.767   0.236
 1858SOL     OW15677   0.202   7.690   1.359
 1858SOL    HW115678   0.252   7.610   1.327
 1858SOL    HW215679   0.137   7.719   1.288
 1859SOL     OW15680   1.739   5.266   1.154
 1859SOL    HW115681   1.748   5.292   1.058
 1859SOL    HW215682   1.790   5.181   1.170
 1860SOL     OW15683   3.171   1.234   2.058
 1860SOL    HW115684   3.104   1.262   2.126
 1860SOL    HW215685   3.263   1.254   2.091
 1861SOL     OW15686   8.430   1.151   0.087
 1861SOL    HW115687   8.350   1.096   0.064
 1861SOL    HW215688   8.409   1.248   0.077
 1862SOL     OW15689   2.765   0.344   0.079
 1862SOL    HW115690   2.701   0.380   0.147
 1862SOL    HW215691   2.849   0.399   0.079
 1863SOL     OW15692   1.037   3.089   0.725
 1863SOL    HW115693   0.999   3.030   0.654
 1863SOL    HW215694   0.994   3.069   0.813
 1864SOL     OW15695   8.955   0.807   0.060
 1864SOL    HW115696   9.052   0.811   0.086
 1864SOL    HW215697   8.936   0.878   2.934
 1865SOL     OW15698   0.208   4.665   1.641
 1865SOL    HW115699   0.235   4.583   1.590
 1865SOL    HW215700   0.113   4.688   1.619
 1866SOL     OW15701   2.435   1.792   2.107
 1866SOL    HW115702   2.499   1.717   2.089
 1866SOL    HW215703   2.473   1.877   2.070
 1867SOL     OW15704   8.907   8.663   1.566
 1867SOL    HW115705   8.885   8.565   1.574
 1867SOL    HW215706   9.004   8.677   1.585
 1868SOL     OW15707   0.407   0.162   2.239
 1868SOL    HW115708   0.485   0.226   2.233
 1868SOL    HW215709   0.439   0.069   2.224
 1869SOL     OW15710   1.853   8.778   1.629
 1869SOL    HW115711   1.765   8.735   1.652
 1869SOL    HW215712   1.839   8.875   1.610
 1870SOL     OW15713   1.385   6.711   1.562
 1870SOL    HW115714   1.400   6.798   1.610
 1870SOL    HW215715   1.328   6.728   1.481
 1871SOL     OW15716   1.062   6.285   2.163
 1871SOL    HW115717   1.089   6.204   2.111
 1871SOL    HW215718   0.963   6.298   2.156
 1872SOL     OW15719   8.945   1.576   0.052
 1872SOL    HW115720   8.910   1.526   2.914
 1872SOL    HW215721   8.921   1.673   0.044
 1873SOL     OW15722   1.057   4.463   0.787
 1873SOL    HW115723   0.987   4.443   0.855
 1873SOL    HW215724   1.145   4.429   0.819
 1874SOL     OW15725   4.137   1.495   0.123
 1874SOL    HW115726   4.221   1.540   0.154
 1874SOL    HW215727   4.083   1.558   0.068
 1875SOL     OW15728   3.047   6.346   1.188
 1875SOL    HW115729   3.059   6.286   1.267
 1875SOL    HW215730   3.122   6.333   1.124
 1876SOL     OW15731   0.745   8.453   1.417
 1876SOL    HW115732   0.648   8.438   1.435
 1876SOL    HW215733   0.763   8.446   1.319
 1877SOL     OW15734   3.273   2.414   2.299
 1877SOL    HW115735   3.336   2.368   2.237
 1877SOL    HW215736   3.323   2.445   2.380
 1878SOL     OW15737   0.363   3.945   2.012
 1878SOL    HW115738   0.445   3.890   2.028
 1878SOL    HW215739   0.298   3.891   1.958
 1879SOL     OW15740   2.181   9.701   0.918
 1879SOL    HW115741   2.238   9.626   0.954
 1879SOL    HW215742   2.149   9.678   0.827
 1880SOL     OW15743   2.434   7.024   0.770
 1880SOL    HW115744   2.387   6.936   0.778
 1880SOL    HW215745   2.508   7.016   0.703
 1881SOL     OW15746   8.924   1.949   0.338
 1881SOL    HW115747   8.995   1.989   0.397
 1881SOL    HW215748   8.931   1.989   0.246
 1882SOL     OW15749   2.668   7.495   1.006
 1882SOL    HW115750   2.758   7.462   1.033
 1882SOL    HW215751   2.597   7.441   1.052
 1883SOL     OW15752   1.137   9.317   0.569
 1883SOL    HW115753   1.204   9.304   0.496
 1883SOL    HW215754   1.118   9.414   0.579
 1884SOL     OW15755   1.352   2.732   1.852
 1884SOL    HW115756   1.261   2.767   1.828
 1884SOL    HW215757   1.420   2.770   1.789
 1885SOL     OW15758   3.230   4.243   0.731
 1885SOL    HW115759   3.206   4.310   0.802
 1885SOL    HW215760   3.229   4.287   0.641
 1886SOL     OW15761   1.371   6.851   0.447
 1886SOL    HW115762   1.378   6.938   0.399
 1886SOL    HW215763   1.419   6.780   0.395
 1887SOL     OW15764   4.266   3.092   0.353
 1887SOL    HW115765   4.220   3.058   0.270
 1887SOL    HW215766   4.215   3.063   0.434
 1888SOL     OW15767   3.972   9.394   0.992
 1888SOL    HW115768   4.040   9.378   1.064
 1888SOL    HW215769   3.999   9.473   0.937
 1889SOL     OW15770   3.298   1.093   1.533
 1889SOL    HW115771   3.265   1.159   1.466
 1889SOL    HW215772   3.323   1.141   1.617
 1890SOL     OW15773   9.248   2.264   0.587
 1890SOL    HW115774   9.243   2.359   0.617
 1890SOL    HW215775   9.325   2.219   0.632
 1891SOL     OW15776   2.089   4.807   0.635
 1891SOL    HW115777   2.094   4.845   0.727
 1891SOL    HW215778   2.163   4.741   0.623
 1892SOL     OW15779   2.504   3.532   1.201
 1892SOL    HW115780   2.577   3.601   1.200
 1892SOL    HW215781   2.419   3.575   1.172
 1893SOL     OW15782   0.465   4.271   1.614
 1893SOL    HW115783   0.549   4.324   1.605
 1893SOL    HW215784   0.466   4.219   1.699
 1894SOL     OW15785   3.587   3.293   0.605
 1894SOL    HW115786   3.635   3.278   0.691
 1894SOL    HW215787   3.638   3.251   0.530
 1895SOL     OW15788   8.305   0.271   1.748
 1895SOL    HW115789   8.332   0.179   1.720
 1895SOL    HW215790   8.207   0.273   1.767
 1896SOL     OW15791   1.638   9.055   2.143
 1896SOL    HW115792   1.728   9.072   2.103
 1896SOL    HW215793   1.648   9.036   2.241
 1897SOL     OW15794   2.787   8.032   0.353
 1897SOL    HW115795   2.723   8.103   0.381
 1897SOL    HW215796   2.851   8.014   0.428
 1898SOL     OW15797   9.039   0.999   1.386
 1898SOL    HW115798   8.958   0.943   1.404
 1898SOL    HW215799   9.055   1.004   1.288
 1899SOL     OW15800   1.806   4.308   1.441
 1899SOL    HW115801   1.845   4.223   1.408
 1899SOL    HW215802   1.712   4.316   1.408
 1900SOL     OW15803   3.148   5.096   1.456
 1900SOL    HW115804   3.182   5.126   1.545
 1900SOL    HW215805   3.082   5.163   1.420
 1901SOL     OW15806   9.240   0.495   1.669
 1901SOL    HW115807   9.236   0.486   1.570
 1901SOL    HW215808   9.166   0.554   1.701
 1902SOL     OW15809   1.326   7.657   1.661
 1902SOL    HW115810   1.402   7.677   1.723
 1902SOL    HW215811   1.296   7.742   1.617
 1903SOL     OW15812   2.337   9.085   2.076
 1903SOL    HW115813   2.324   9.176   2.116
 1903SOL    HW215814   2.424   9.048   2.106
 1904SOL     OW15815   3.935   8.632   1.516
 1904SOL    HW115816   3.995   8.665   1.443
 1904SOL    HW215817   3.951   8.685   1.599
 1905SOL     OW15818   3.279   4.684   0.221
 1905SOL    HW115819   3.194   4.679   0.273
 1905SOL    HW215820   3.312   4.779   0.219
 1906SOL     OW15821   3.460   0.699   2.285
 1906SOL    HW115822   3.427   0.774   2.227
 1906SOL    HW215823   3.468   0.731   2.379
 1907SOL     OW15824   1.676   6.447   0.666
 1907SOL    HW115825   1.583   6.479   0.652
 1907SOL    HW215826   1.682   6.349   0.644
 1908SOL     OW15827   0.352   2.197   2.324
 1908SOL    HW115828   0.314   2.108   2.348
 1908SOL    HW215829   0.327   2.220   2.230
 1909SOL     OW15830   0.998   0.464   1.545
 1909SOL    HW115831   0.915   0.412   1.566
 1909SOL    HW215832   1.066   0.449   1.617
 1910SOL     OW15833   2.581   0.903   1.227
 1910SOL    HW115834   2.498   0.849   1.242
 1910SOL    HW215835   2.598   0.913   1.129
 1911SOL     OW15836   4.659   8.938   1.534
 1911SOL    HW115837   4.575   8.989   1.555
 1911SOL    HW215838   4.733   8.971   1.592
 1912SOL     OW15839   0.056   5.905   0.165
 1912SOL    HW115840   9.980   5.861   0.213
 1912SOL    HW215841   0.120   5.834   0.133
 1913SOL     OW15842   0.942   1.149   2.240
 1913SOL    HW115843   0.881   1.074   2.265
 1913SOL    HW215844   0.939   1.163   2.141
 1914SOL     OW15845   9.834   3.919   0.110
 1914SOL    HW115846   9.735   3.926   0.119
 1914SOL    HW215847   9.862   3.824   0.122
 1915SOL     OW15848   0.683   7.640   0.266
 1915SOL    HW115849   0.665   7.589   0.351
 1915SOL    HW215850   0.762   7.699   0.279
 1916SOL     OW15851   2.772   9.913   0.814
 1916SOL    HW115852   2.674   9.930   0.803
 1916SOL    HW215853   2.819   9.998   0.834
 1917SOL     OW15854   1.740   9.674   1.441
 1917SOL    HW115855   1.684   9.672   1.358
 1917SOL    HW215856   1.802   9.752   1.438
 1918SOL     OW15857   8.882   2.385   0.553
 1918SOL    HW115858   8.892   2.302   0.608
 1918SOL    HW215859   8.950   2.384   0.479
 1919SOL     OW15860   1.315   1.501   0.788
 1919SOL    HW115861   1.255   1.420   0.785
 1919SOL    HW215862   1.274   1.574   0.734
 1920SOL     OW15863   4.411   4.634   1.350
 1920SOL    HW115864   4.391   4.728   1.324
 1920SOL    HW215865   4.509   4.624   1.368
 1921SOL     OW15866   1.285   2.280   0.180
 1921SOL    HW115867   1.345   2.334   0.121
 1921SOL    HW215868   1.323   2.189   0.192
 1922SOL     OW15869   9.747   0.761   0.515
 1922SOL    HW115870   9.718   0.685   0.573
 1922SOL    HW215871   9.846   0.757   0.502
 1923SOL     OW15872   9.572   1.950   2.178
 1923SOL    HW115873   9.558   1.874   2.242
 1923SOL    HW215874   9.578   1.913   2.085
 1924SOL     OW15875   0.789   4.045   2.127
 1924SOL    HW115876   0.714   3.989   2.163
 1924SOL    HW215877   0.805   4.021   2.032
 1925SOL     OW15878   8.690   6.975   1.864
 1925SOL    HW115879   8.642   6.912   1.803
 1925SOL    HW215880   8.773   6.931   1.899
 1926SOL     OW15881   7.958   8.554   2.019
 1926SOL    HW115882   7.865   8.590   2.023
 1926SOL    HW215883   7.984   8.541   1.923
 1927SOL     OW15884   9.943   5.204   0.426
 1927SOL    HW115885   0.012   5.135   0.445
 1927SOL    HW215886   9.986   5.285   0.387
 1928SOL     OW15887   9.247   0.020   1.376
 1928SOL    HW115888   9.148   0.024   1.389
 1928SOL    HW215889   9.271   0.066   1.291
 1929SOL     OW15890   2.667   1.077   1.420
 1929SOL    HW115891   2.624   1.016   1.354
 1929SOL    HW215892   2.722   1.024   1.484
 1930SOL     OW15893   4.425   3.514   0.066
 1930SOL    HW115894   4.353   3.547   0.128
 1930SOL    HW215895   4.395   3.429   0.023
 1931SOL     OW15896   2.431   8.123   1.892
 1931SOL    HW115897   2.389   8.036   1.865
 1931SOL    HW215898   2.508   8.105   1.952
 1932SOL     OW15899   2.361   5.708   0.932
 1932SOL    HW115900   2.443   5.736   0.881
 1932SOL    HW215901   2.341   5.612   0.912
 1933SOL     OW15902   0.244   5.916   1.484
 1933SOL    HW115903   0.300   5.882   1.560
 1933SOL    HW215904   0.148   5.917   1.512
 1934SOL     OW15905   4.557   3.992   0.184
 1934SOL    HW115906   4.631   4.057   0.168
 1934SOL    HW215907   4.593   3.910   0.228
 1935SOL     OW15908   3.221   8.302   2.269
 1935SOL    HW115909   3.180   8.367   2.205
 1935SOL    HW215910   3.292   8.348   2.323
 1936SOL     OW15911   1.809   1.132   1.618
 1936SOL    HW115912   1.773   1.086   1.700
 1936SOL    HW215913   1.885   1.191   1.645
 1937SOL     OW15914   2.745   8.135   0.104
 1937SOL    HW115915   2.792   8.223   0.091
 1937SOL    HW215916   2.775   8.094   0.189
 1938SOL     OW15917   9.346   1.220   2.095
 1938SOL    HW115918   9.258   1.181   2.070
 1938SOL    HW215919   9.338   1.267   2.184
 1939SOL     OW15920   3.787   8.682   0.449
 1939SOL    HW115921   3.844   8.603   0.474
 1939SOL    HW215922   3.803   8.755   0.516
 1940SOL     OW15923   3.668   0.712   0.889
 1940SOL    HW115924   3.641   0.731   0.983
 1940SOL    HW215925   3.613   0.769   0.827
 1941SOL     OW15926   9.084   8.582   1.121
 1941SOL    HW115927   9.056   8.493   1.156
 1941SOL    HW215928   9.025   8.609   1.045
 1942SOL     OW15929   0.313   2.002   2.045
 1942SOL    HW115930   0.288   2.099   2.044
 1942SOL    HW215931   0.412   1.994   2.055
 1943SOL     OW15932   1.338   0.246   0.726
 1943SOL    HW115933   1.412   0.279   0.784
 1943SOL    HW215934   1.339   0.295   0.639
 1944SOL     OW15935   0.660   8.995   0.559
 1944SOL    HW115936   0.570   8.951   0.557
 1944SOL    HW215937   0.648   9.094   0.556
 1945SOL     OW15938   9.214   7.361   1.717
 1945SOL    HW115939   9.181   7.456   1.718
 1945SOL    HW215940   9.136   7.299   1.702
 1946SOL     OW15941   0.213   5.832   2.023
 1946SOL    HW115942   0.300   5.855   1.979
 1946SOL    HW215943   0.137   5.870   1.971
 1947SOL     OW15944   3.527   6.122   0.779
 1947SOL    HW115945   3.499   6.114   0.874
 1947SOL    HW215946   3.455   6.166   0.726
 1948SOL     OW15947   3.013   1.258   1.000
 1948SOL    HW115948   3.031   1.216   1.089
 1948SOL    HW215949   2.975   1.350   1.014
 1949SOL     OW15950   1.268   7.931   0.198
 1949SOL    HW115951   1.262   8.014   0.254
 1949SOL    HW215952   1.245   7.852   0.255
 1950SOL     OW15953   0.141   2.616   1.324
 1950SOL    HW115954   0.202   2.643   1.398
 1950SOL    HW215955   0.135   2.691   1.257
 1951SOL     OW15956   4.352   1.718   2.011
 1951SOL    HW115957   4.393   1.777   2.081
 1951SOL    HW215958   4.327   1.630   2.053
 1952SOL     OW15959   2.565   2.788   0.502
 1952SOL    HW115960   2.638   2.721   0.492
 1952SOL    HW215961   2.515   2.797   0.416
 1953SOL     OW15962   8.076   2.232   2.182
 1953SOL    HW115963   8.020   2.149   2.183
 1953SOL    HW215964   8.047   2.291   2.107
 1954SOL     OW15965   8.516   8.355   0.417
 1954SOL    HW115966   8.483   8.438   0.462
 1954SOL    HW215967   8.520   8.370   0.318
 1955SOL     OW15968   4.389   3.282   1.776
 1955SOL    HW115969   4.402   3.361   1.716
 1955SOL    HW215970   4.416   3.199   1.728
 1956SOL     OW15971   9.724   7.787   2.122
 1956SOL    HW115972   9.627   7.781   2.144
 1956SOL    HW215973   9.743   7.875   2.078
 1957SOL     OW15974   9.981   4.748   1.319
 1957SOL    HW115975   9.939   4.752   1.228
 1957SOL    HW215976   0.070   4.793   1.317
 1958SOL     OW15977   0.642   5.645   0.186
 1958SOL    HW115978   0.556   5.678   0.146
 1958SOL    HW215979   0.625   5.562   0.239
 1959SOL     OW15980   4.436   9.084   1.610
 1959SOL    HW115981   4.424   9.146   1.688
 1959SOL    HW215982   4.419   9.134   1.526
 1960SOL     OW15983   9.095   1.530   1.722
 1960SOL    HW115984   9.037   1.468   1.668
 1960SOL    HW215985   9.071   1.625   1.700
 1961SOL     OW15986   1.541   0.294   0.045
 1961SOL    HW115987   1.544   0.236   0.127
 1961SOL    HW215988   1.515   0.240   2.907
 1962SOL     OW15989   8.135   6.859   2.219
 1962SOL    HW115990   8.139   6.760   2.232
 1962SOL    HW215991   8.041   6.890   2.233
 1963SOL     OW15992   2.699   3.364   2.025
 1963SOL    HW115993   2.718   3.287   2.086
 1963SOL    HW215994   2.686   3.330   1.932
 1964SOL     OW15995   9.591   5.397   0.890
 1964SOL    HW115996   9.580   5.415   0.793
 1964SOL    HW215997   9.552   5.308   0.912
 1965SOL     OW15998   3.469   6.071   2.900
 1965SOL    HW115999   3.485   6.051   2.804
 1965SOL    HW216000   3.450   5.986   0.009
 1966SOL     OW16001   8.568   9.280   0.768
 1966SOL    HW116002   8.608   9.333   0.694
 1966SOL    HW216003   8.541   9.341   0.843
 1967SOL     OW16004   1.013   7.485   0.095
 1967SOL    HW116005   0.916   7.469   0.074
 1967SOL    HW216006   1.022   7.501   0.194
 1968SOL     OW16007   0.867   8.537   0.720
 1968SOL    HW116008   0.942   8.501   0.665
 1968SOL    HW216009   0.788   8.554   0.661
 1969SOL     OW16010   2.295   8.545   2.065
 1969SOL    HW116011   2.268   8.460   2.019
 1969SOL    HW216012   2.215   8.588   2.106
 1970SOL     OW16013   2.005   8.219   1.794
 1970SOL    HW116014   1.913   8.216   1.757
 1970SOL    HW216015   2.065   8.157   1.743
 1971SOL     OW16016   8.723   0.639   0.387
 1971SOL    HW116017   8.706   0.585   0.305
 1971SOL    HW216018   8.660   0.611   0.459
 1972SOL     OW16019   0.528   4.802   0.717
 1972SOL    HW116020   0.568   4.864   0.784
 1972SOL    HW216021   0.438   4.836   0.689
 1973SOL     OW16022   4.390   0.690   1.442
 1973SOL    HW116023   4.383   0.642   1.355
 1973SOL    HW216024   4.302   0.734   1.462
 1974SOL     OW16025   1.624   3.659   1.044
 1974SOL    HW116026   1.682   3.605   1.106
 1974SOL    HW216027   1.532   3.619   1.041
 1975SOL     OW16028   1.595   0.890   1.229
 1975SOL    HW116029   1.612   0.978   1.275
 1975SOL    HW216030   1.670   0.827   1.250
 1976SOL     OW16031   0.509   9.933   0.508
 1976SOL    HW116032   0.476   9.990   0.433
 1976SOL    HW216033   0.451   9.948   0.589
 1977SOL     OW16034   9.286   3.642   1.532
 1977SOL    HW116035   9.191   3.638   1.503
 1977SOL    HW216036   9.344   3.601   1.461
 1978SOL     OW16037   7.997   7.836   1.809
 1978SOL    HW116038   7.921   7.778   1.838
 1978SOL    HW216039   8.081   7.783   1.808
 1979SOL     OW16040   1.458   6.860   1.973
 1979SOL    HW116041   1.498   6.772   1.998
 1979SOL    HW216042   1.525   6.933   1.987
 1980SOL     OW16043   1.712   6.165   0.583
 1980SOL    HW116044   1.612   6.168   0.577
 1980SOL    HW216045   1.744   6.073   0.558
 1981SOL     OW16046   3.899   1.452   0.258
 1981SOL    HW116047   3.846   1.526   0.217
 1981SOL    HW216048   3.993   1.456   0.224
 1982SOL     OW16049   4.688   3.418   0.486
 1982SOL    HW116050   4.661   3.453   0.397
 1982SOL    HW216051   4.661   3.483   0.557
 1983SOL     OW16052   3.739   2.390   0.105
 1983SOL    HW116053   3.663   2.455   0.099
 1983SOL    HW216054   3.703   2.298   0.117
 1984SOL     OW16055   0.757   0.450   0.846
 1984SOL    HW116056   0.665   0.486   0.828
 1984SOL    HW216057   0.814   0.465   0.765
 1985SOL     OW16058   3.771   6.169   0.658
 1985SOL    HW116059   3.688   6.161   0.713
 1985SOL    HW216060   3.805   6.078   0.635
 1986SOL     OW16061   4.252   3.568   0.271
 1986SOL    HW116062   4.243   3.626   0.351
 1986SOL    HW216063   4.293   3.480   0.298
 1987SOL     OW16064   2.475   2.711   0.251
 1987SOL    HW116065   2.520   2.643   0.192
 1987SOL    HW216066   2.381   2.683   0.268
 1988SOL     OW16067   0.254   2.275   2.071
 1988SOL    HW116068   0.188   2.312   2.136
 1988SOL    HW216069   0.245   2.323   1.984
 1989SOL     OW16070   0.989   5.994   0.337
 1989SOL    HW116071   1.016   6.041   0.421
 1989SOL    HW216072   0.983   6.060   0.262
 1990SOL     OW16073   8.878   3.203   1.886
 1990SOL    HW116074   8.930   3.193   1.802
 1990SOL    HW216075   8.781   3.187   1.868
 1991SOL     OW16076   8.949   1.552   0.862
 1991SOL    HW116077   8.908   1.643   0.853
 1991SOL    HW216078   9.039   1.552   0.819
 1992SOL     OW16079   8.846   1.479   0.301
 1992SOL    HW116080   8.845   1.560   0.360
 1992SOL    HW216081   8.891   1.502   0.215
 1993SOL     OW16082   1.127   3.800   1.753
 1993SOL    HW116083   1.151   3.871   1.820
 1993SOL    HW216084   1.116   3.713   1.801
 1994SOL     OW16085   3.496   1.645   2.031
 1994SOL    HW116086   3.456   1.731   2.064
 1994SOL    HW216087   3.424   1.587   1.994
 1995SOL     OW16088   4.349   9.272   1.796
 1995SOL    HW116089   4.329   9.253   1.892
 1995SOL    HW216090   4.343   9.371   1.780
 1996SOL     OW16091   3.348   7.524   0.300
 1996SOL    HW116092   3.432   7.480   0.269
 1996SOL    HW216093   3.354   7.623   0.285
 1997SOL     OW16094   0.738   2.072   1.333
 1997SOL    HW116095   0.779   2.002   1.392
 1997SOL    HW216096   0.642   2.084   1.359
 1998SOL     OW16097   1.869   7.427   0.126
 1998SOL    HW116098   1.771   7.419   0.110
 1998SOL    HW216099   1.896   7.524   0.122
 1999SOL     OW16100   9.933   6.133   0.454
 1999SOL    HW116101   0.024   6.172   0.446
 1999SOL    HW216102   9.940   6.035   0.476
 2000SOL     OW16103   4.046   3.891   0.151
 2000SOL    HW116104   4.134   3.936   0.134
 2000SOL    HW216105   3.974   3.959   0.158
 2001SOL     OW16106   8.661   2.093   0.519
 2001SOL    HW116107   8.743   2.114   0.572
 2001SOL    HW216108   8.673   2.125   0.425
 2002SOL     OW16109   4.958   3.369   0.467
 2002SOL    HW116110   4.860   3.382   0.477
 2002SOL    HW216111   5.004   3.458   0.475
 2003SOL     OW16112   0.345   2.736   0.675
 2003SOL    HW116113   0.439   2.702   0.687
 2003SOL    HW216114   0.347   2.829   0.640
 2004SOL     OW16115   0.560   4.337   1.990
 2004SOL    HW116116   0.549   4.254   1.935
 2004SOL    HW216117   0.483   4.346   2.052
 2005SOL     OW16118   2.714   1.484   1.821
 2005SOL    HW116119   2.668   1.431   1.749
 2005SOL    HW216120   2.790   1.431   1.859
 2006SOL     OW16121   0.491   6.841   1.880
 2006SOL    HW116122   0.544   6.821   1.798
 2006SOL    HW216123   0.531   6.793   1.958
 2007SOL     OW16124   3.507   2.442   1.137
 2007SOL    HW116125   3.482   2.474   1.045
 2007SOL    HW216126   3.598   2.401   1.135
 2008SOL     OW16127   4.280   9.132   1.170
 2008SOL    HW116128   4.332   9.107   1.088
 2008SOL    HW216129   4.343   9.157   1.243
 2009SOL     OW16130   9.479   8.552   1.980
 2009SOL    HW116131   9.394   8.582   1.937
 2009SOL    HW216132   9.546   8.528   1.910
 2010SOL     OW16133   1.670   2.677   0.913
 2010SOL    HW116134   1.637   2.582   0.908
 2010SOL    HW216135   1.594   2.740   0.897
 2011SOL     OW16136   0.324   2.986   0.567
 2011SOL    HW116137   0.315   3.081   0.600
 2011SOL    HW216138   0.392   2.983   0.494
 2012SOL     OW16139   2.500   6.850   0.194
 2012SOL    HW116140   2.526   6.839   0.290
 2012SOL    HW216141   2.574   6.818   0.135
 2013SOL     OW16142   9.228   2.537   0.633
 2013SOL    HW116143   9.295   2.595   0.678
 2013SOL    HW216144   9.136   2.570   0.654
 2014SOL     OW16145   4.046   8.793   0.037
 2014SOL    HW116146   3.969   8.799   0.101
 2014SOL    HW216147   4.017   8.744   2.896
 2015SOL     OW16148   0.166   0.678   1.818
 2015SOL    HW116149   0.197   0.642   1.906
 2015SOL    HW216150   0.085   0.735   1.833
 2016SOL     OW16151   8.926   4.326   1.376
 2016SOL    HW116152   8.864   4.248   1.386
 2016SOL    HW216153   9.001   4.318   1.441
 2017SOL     OW16154   3.101   2.680   1.949
 2017SOL    HW116155   3.158   2.754   1.983
 2017SOL    HW216156   3.053   2.710   1.867
 2018SOL     OW16157   0.174   2.821   0.874
 2018SOL    HW116158   0.229   2.776   0.804
 2018SOL    HW216159   0.078   2.820   0.847
 2019SOL     OW16160   0.120   3.114   0.330
 2019SOL    HW116161   0.171   3.198   0.347
 2019SOL    HW216162   0.059   3.096   0.408
 2020SOL     OW16163   4.269   3.735   1.587
 2020SOL    HW116164   4.169   3.726   1.586
 2020SOL    HW216165   4.297   3.804   1.520
 2021SOL     OW16166   8.682   9.435   0.573
 2021SOL    HW116167   8.691   9.373   0.495
 2021SOL    HW216168   8.652   9.525   0.541
 2022SOL     OW16169   3.633   9.301   0.258
 2022SOL    HW116170   3.583   9.286   0.173
 2022SOL    HW216171   3.581   9.262   0.334
 2023SOL     OW16172   3.787   8.403   1.559
 2023SOL    HW116173   3.737   8.434   1.640
 2023SOL    HW216174   3.852   8.474   1.531
 2024SOL     OW16175   1.843   8.234   1.442
 2024SOL    HW116176   1.816   8.320   1.398
 2024SOL    HW216177   1.809   8.233   1.536
 2025SOL     OW16178   9.970   9.244   0.361
 2025SOL    HW116179   9.992   9.179   0.434
 2025SOL    HW216180   9.924   9.324   0.400
 2026SOL     OW16181   8.725   6.379   1.956
 2026SOL    HW116182   8.781   6.323   1.895
 2026SOL    HW216183   8.639   6.331   1.977
 2027SOL     OW16184   9.173   6.644   2.093
 2027SOL    HW116185   9.194   6.586   2.171
 2027SOL    HW216186   9.076   6.634   2.070
 2028SOL     OW16187   4.451   1.890   2.210
 2028SOL    HW116188   4.394   1.881   2.291
 2028SOL    HW216189   4.548   1.885   2.235
 2029SOL     OW16190   3.492   4.957   0.473
 2029SOL    HW116191   3.404   4.981   0.512
 2029SOL    HW216192   3.548   4.910   0.542
 2030SOL     OW16193   0.794   4.967   1.525
 2030SOL    HW116194   0.852   5.035   1.569
 2030SOL    HW216195   0.840   4.878   1.527
 2031SOL     OW16196   2.831   7.486   1.306
 2031SOL    HW116197   2.874   7.465   1.219
 2031SOL    HW216198   2.888   7.452   1.381
 2032SOL     OW16199   0.532   0.895   0.715
 2032SOL    HW116200   0.446   0.942   0.693
 2032SOL    HW216201   0.566   0.927   0.803
 2033SOL     OW16202   2.982   5.926   1.459
 2033SOL    HW116203   3.051   5.884   1.400
 2033SOL    HW216204   2.908   5.861   1.476
 2034SOL     OW16205   0.746   7.021   0.193
 2034SOL    HW116206   0.816   7.014   0.122
 2034SOL    HW216207   0.779   6.979   0.277
 2035SOL     OW16208   9.091   1.991   1.436
 2035SOL    HW116209   9.003   2.015   1.395
 2035SOL    HW216210   9.094   2.025   1.530
 2036SOL     OW16211   9.311   3.538   0.167
 2036SOL    HW116212   9.305   3.457   0.225
 2036SOL    HW216213   9.406   3.553   0.140
 2037SOL     OW16214   4.765   2.967   1.338
 2037SOL    HW116215   4.758   3.024   1.256
 2037SOL    HW216216   4.788   3.025   1.417
 2038SOL     OW16217   9.453   5.998   2.147
 2038SOL    HW116218   9.526   5.948   2.195
 2038SOL    HW216219   9.460   5.980   2.049
 2039SOL     OW16220   1.303   9.161   1.908
 2039SOL    HW116221   1.377   9.152   1.841
 2039SOL    HW216222   1.288   9.258   1.928
 2040SOL     OW16223   0.371   3.653   0.859
 2040SOL    HW116224   0.435   3.610   0.795
 2040SOL    HW216225   0.396   3.630   0.953
 2041SOL     OW16226   9.022   5.086   0.972
 2041SOL    HW116227   9.089   5.148   0.931
 2041SOL    HW216228   9.066   5.033   1.044
 2042SOL     OW16229   9.521   3.230   2.124
 2042SOL    HW116230   9.473   3.212   2.210
 2042SOL    HW216231   9.456   3.233   2.049
 2043SOL     OW16232   9.361   6.977   1.841
 2043SOL    HW116233   9.401   6.896   1.797
 2043SOL    HW216234   9.346   6.958   1.938
 2044SOL     OW16235   0.519   8.385   2.140
 2044SOL    HW116236   0.565   8.473   2.141
 2044SOL    HW216237   0.422   8.397   2.162
 2045SOL     OW16238   9.879   8.923   1.174
 2045SOL    HW116239   9.977   8.909   1.186
 2045SOL    HW216240   9.855   8.907   1.078
 2046SOL     OW16241   9.083   8.846   0.831
 2046SOL    HW116242   9.043   8.889   0.750
 2046SOL    HW216243   9.028   8.767   0.857
 2047SOL     OW16244   8.377   7.381   0.783
 2047SOL    HW116245   8.469   7.413   0.763
 2047SOL    HW216246   8.381   7.309   0.853
 2048SOL     OW16247   4.125   3.656   1.115
 2048SOL    HW116248   4.143   3.683   1.020
 2048SOL    HW216249   4.197   3.594   1.146
 2049SOL     OW16250   2.607   6.638   1.423
 2049SOL    HW116251   2.582   6.574   1.496
 2049SOL    HW216252   2.706   6.640   1.412
 2050SOL     OW16253   8.004   8.995   1.819
 2050SOL    HW116254   7.983   9.027   1.726
 2050SOL    HW216255   8.055   9.065   1.868
 2051SOL     OW16256   2.399   0.387   1.832
 2051SOL    HW116257   2.492   0.419   1.814
 2051SOL    HW216258   2.394   0.288   1.820
 2052SOL     OW16259   3.676   1.760   1.866
 2052SOL    HW116260   3.605   1.720   1.925
 2052SOL    HW216261   3.652   1.745   1.770
 2053SOL     OW16262   2.421   1.763   0.592
 2053SOL    HW116263   2.470   1.805   0.516
 2053SOL    HW216264   2.380   1.834   0.648
 2054SOL     OW16265   9.822   8.327   1.043
 2054SOL    HW116266   9.856   8.265   1.113
 2054SOL    HW216267   9.722   8.324   1.042
 2055SOL     OW16268   0.436   2.509   1.400
 2055SOL    HW116269   0.442   2.468   1.309
 2055SOL    HW216270   0.417   2.437   1.467
 2056SOL     OW16271   3.889   1.419   1.188
 2056SOL    HW116272   3.983   1.426   1.155
 2056SOL    HW216273   3.826   1.455   1.119
 2057SOL     OW16274   1.036   2.575   2.103
 2057SOL    HW116275   0.953   2.623   2.132
 2057SOL    HW216276   1.046   2.491   2.155
 2058SOL     OW16277   4.474   0.161   1.208
 2058SOL    HW116278   4.395   0.166   1.269
 2058SOL    HW216279   4.445   0.177   1.114
 2059SOL     OW16280   9.543   3.068   0.798
 2059SOL    HW116281   9.583   3.085   0.708
 2059SOL    HW216282   9.453   3.027   0.788
 2060SOL     OW16283   0.029   2.617   0.178
 2060SOL    HW116284   0.102   2.549   0.167
 2060SOL    HW216285   0.021   2.642   0.275
 2061SOL     OW16286   1.089   0.333   0.834
 2061SOL    HW116287   1.176   0.295   0.800
 2061SOL    HW216288   1.041   0.380   0.760
 2062SOL     OW16289   8.596   0.413   0.990
 2062SOL    HW116290   8.643   0.329   1.015
 2062SOL    HW216291   8.663   0.483   0.965
 2063SOL     OW16292   1.425   8.847   0.695
 2063SOL    HW116293   1.415   8.749   0.714
 2063SOL    HW216294   1.477   8.859   0.610
 2064SOL     OW16295   9.164   4.147   1.052
 2064SOL    HW116296   9.259   4.115   1.055
 2064SOL    HW216297   9.119   4.109   0.971
 2065SOL     OW16298   3.469   4.234   1.514
 2065SOL    HW116299   3.468   4.203   1.609
 2065SOL    HW216300   3.386   4.286   1.494
 2066SOL     OW16301   1.848   0.280   1.162
 2066SOL    HW116302   1.761   0.238   1.186
 2066SOL    HW216303   1.833   0.356   1.099
 2067SOL     OW16304   8.553   8.560   1.087
 2067SOL    HW116305   8.563   8.641   1.145
 2067SOL    HW216306   8.467   8.514   1.110
 2068SOL     OW16307   0.280   9.915   0.282
 2068SOL    HW116308   0.239   9.934   0.371
 2068SOL    HW216309   0.263   9.993   0.221
 2069SOL     OW16310   9.384   1.701   1.904
 2069SOL    HW116311   9.415   1.643   1.828
 2069SOL    HW216312   9.291   1.675   1.930
 2070SOL     OW16313   2.908   1.978   1.857
 2070SOL    HW116314   2.877   1.887   1.830
 2070SOL    HW216315   2.847   2.016   1.927
 2071SOL     OW16316   1.349   3.247   0.340
 2071SOL    HW116317   1.308   3.336   0.359
 2071SOL    HW216318   1.278   3.177   0.339
 2072SOL     OW16319   0.272   4.585   0.438
 2072SOL    HW116320   0.326   4.614   0.359
 2072SOL    HW216321   0.175   4.600   0.420
 2073SOL     OW16322   2.356   1.501   0.608
 2073SOL    HW116323   2.313   1.485   0.697
 2073SOL    HW216324   2.377   1.598   0.599
 2074SOL     OW16325   0.011   9.089   0.571
 2074SOL    HW116326   9.996   9.000   0.615
 2074SOL    HW216327   0.005   9.161   0.640
 2075SOL     OW16328   4.634   3.539   0.239
 2075SOL    HW116329   4.714   3.501   0.193
 2075SOL    HW216330   4.555   3.535   0.178
 2076SOL     OW16331   2.612   6.849   1.007
 2076SOL    HW116332   2.689   6.832   0.945
 2076SOL    HW216333   2.601   6.948   1.019
 2077SOL     OW16334   4.406   3.509   1.624
 2077SOL    HW116335   4.357   3.596   1.616
 2077SOL    HW216336   4.422   3.472   1.532
 2078SOL     OW16337   8.018   0.107   0.434
 2078SOL    HW116338   8.070   0.024   0.453
 2078SOL    HW216339   8.069   0.164   0.370
 2079SOL     OW16340   2.369   5.822   0.372
 2079SOL    HW116341   2.318   5.817   0.457
 2079SOL    HW216342   2.453   5.874   0.386
 2080SOL     OW16343   2.411   6.268   1.055
 2080SOL    HW116344   2.462   6.222   1.128
 2080SOL    HW216345   2.384   6.200   0.986
 2081SOL     OW16346   8.607   2.562   0.254
 2081SOL    HW116347   8.599   2.606   0.343
 2081SOL    HW216348   8.699   2.578   0.217
 2082SOL     OW16349   1.473   5.165   0.462
 2082SOL    HW116350   1.459   5.094   0.530
 2082SOL    HW216351   1.387   5.214   0.447
 2083SOL     OW16352   0.458   0.162   0.347
 2083SOL    HW116353   0.462   0.212   0.433
 2083SOL    HW216354   0.382   0.197   0.291
 2084SOL     OW16355   8.380   8.327   2.077
 2084SOL    HW116356   8.411   8.317   1.983
 2084SOL    HW216357   8.280   8.325   2.080
 2085SOL     OW16358   2.799   0.357   1.280
 2085SOL    HW116359   2.710   0.370   1.324
 2085SOL    HW216360   2.871   0.354   1.350
 2086SOL     OW16361   3.353   0.972   1.872
 2086SOL    HW116362   3.398   0.900   1.819
 2086SOL    HW216363   3.374   1.061   1.832
 2087SOL     OW16364   2.597   0.800   0.100
 2087SOL    HW116365   2.563   0.891   0.078
 2087SOL    HW216366   2.669   0.775   0.035
 2088SOL     OW16367   0.801   3.939   0.440
 2088SOL    HW116368   0.759   3.935   0.531
 2088SOL    HW216369   0.877   4.004   0.442
 2089SOL     OW16370   9.545   8.805   0.806
 2089SOL    HW116371   9.495   8.846   0.730
 2089SOL    HW216372   9.553   8.706   0.791
 2090SOL     OW16373   0.987   0.724   1.470
 2090SOL    HW116374   0.934   0.732   1.385
 2090SOL    HW216375   0.992   0.628   1.496
 2091SOL     OW16376   8.336   8.405   1.152
 2091SOL    HW116377   8.321   8.366   1.061
 2091SOL    HW216378   8.381   8.337   1.210
 2092SOL     OW16379   0.322   5.131   1.304
 2092SOL    HW116380   0.289   5.212   1.352
 2092SOL    HW216381   0.345   5.155   1.210
 2093SOL     OW16382   4.165   8.371   0.110
 2093SOL    HW116383   4.143   8.320   0.193
 2093SOL    HW216384   4.190   8.465   0.133
 2094SOL     OW16385   4.660   8.892   0.063
 2094SOL    HW116386   4.754   8.920   0.080
 2094SOL    HW216387   4.600   8.972   0.062
 2095SOL     OW16388   4.233   0.989   1.938
 2095SOL    HW116389   4.264   0.935   1.860
 2095SOL    HW216390   4.185   0.929   2.002
 2096SOL     OW16391   3.554   4.434   1.775
 2096SOL    HW116392   3.511   4.345   1.786
 2096SOL    HW216393   3.512   4.483   1.699
 2097SOL     OW16394   0.012   6.342   0.748
 2097SOL    HW116395   0.013   6.403   0.827
 2097SOL    HW216396   9.926   6.354   0.698
 2098SOL     OW16397   3.801   0.207   2.027
 2098SOL    HW116398   3.899   0.221   2.031
 2098SOL    HW216399   3.756   0.265   2.095
 2099SOL     OW16400   8.351   8.103   1.838
 2099SOL    HW116401   8.264   8.146   1.813
 2099SOL    HW216402   8.425   8.170   1.828
 2100SOL     OW16403   7.943   9.899   1.427
 2100SOL    HW116404   7.898   9.982   1.459
 2100SOL    HW216405   8.028   9.923   1.380
 2101SOL     OW16406   3.185   3.986   1.028
 2101SOL    HW116407   3.169   3.891   1.056
 2101SOL    HW216408   3.145   4.002   0.938
 2102SOL     OW16409   3.524   0.781   1.117
 2102SOL    HW116410   3.440   0.742   1.077
 2102SOL    HW216411   3.526   0.761   1.215
 2103SOL     OW16412   9.878   8.805   2.287
 2103SOL    HW116413   9.824   8.745   2.229
 2103SOL    HW216414   9.818   8.852   2.351
 2104SOL     OW16415   9.774   7.793   0.660
 2104SOL    HW116416   9.855   7.791   0.602
 2104SOL    HW216417   9.782   7.869   0.725
 2105SOL     OW16418   9.156   0.169   0.638
 2105SOL    HW116419   9.071   0.122   0.659
 2105SOL    HW216420   9.159   0.257   0.684
 2106SOL     OW16421   9.529   5.891   1.450
 2106SOL    HW116422   9.502   5.970   1.505
 2106SOL    HW216423   9.464   5.878   1.375
 2107SOL     OW16424   7.345   9.224   2.229
 2107SOL    HW116425   7.255   9.187   2.249
 2107SOL    HW216426   7.354   9.238   2.130
 2108SOL     OW16427   3.855   9.385   0.628
 2108SOL    HW116428   3.912   9.330   0.688
 2108SOL    HW216429   3.817   9.461   0.679
 2109SOL     OW16430   1.683   1.626   1.861
 2109SOL    HW116431   1.642   1.573   1.935
 2109SOL    HW216432   1.640   1.716   1.856
 2110SOL     OW16433   0.654   4.997   0.879
 2110SOL    HW116434   0.710   4.991   0.962
 2110SOL    HW216435   0.615   5.089   0.872
 2111SOL     OW16436   2.309   6.768   0.787
 2111SOL    HW116437   2.214   6.765   0.820
 2111SOL    HW216438   2.368   6.721   0.853
 2112SOL     OW16439   0.742   2.958   1.501
 2112SOL    HW116440   0.780   2.869   1.526
 2112SOL    HW216441   0.812   3.028   1.516
 2113SOL     OW16442   0.842   6.462   0.162
 2113SOL    HW116443   0.761   6.446   0.106
 2113SOL    HW216444   0.824   6.536   0.227
 2114SOL     OW16445   0.414   8.591   0.918
 2114SOL    HW116446   0.327   8.641   0.927
 2114SOL    HW216447   0.396   8.495   0.902
 2115SOL     OW16448   0.776   6.190   0.824
 2115SOL    HW116449   0.804   6.282   0.800
 2115SOL    HW216450   0.776   6.132   0.742
 2116SOL     OW16451   4.493   4.188   1.073
 2116SOL    HW116452   4.501   4.236   1.160
 2116SOL    HW216453   4.433   4.239   1.011
 2117SOL     OW16454   1.550   0.382   0.860
 2117SOL    HW116455   1.543   0.473   0.819
 2117SOL    HW216456   1.523   0.386   0.956
 2118SOL     OW16457   8.797   8.894   1.665
 2118SOL    HW116458   8.823   8.806   1.625
 2118SOL    HW216459   8.745   8.878   1.749
 2119SOL     OW16460   1.731   3.821   0.867
 2119SOL    HW116461   1.810   3.867   0.908
 2119SOL    HW216462   1.693   3.756   0.933
 2120SOL     OW16463   4.261   4.475   1.182
 2120SOL    HW116464   4.334   4.516   1.236
 2120SOL    HW216465   4.300   4.430   1.101
 2121SOL     OW16466   9.574   6.404   0.872
 2121SOL    HW116467   9.582   6.309   0.840
 2121SOL    HW216468   9.560   6.464   0.793
 2122SOL     OW16469   4.594   8.670   1.565
 2122SOL    HW116470   4.621   8.765   1.551
 2122SOL    HW216471   4.633   8.613   1.493
 2123SOL     OW16472   1.068   6.345   1.010
 2123SOL    HW116473   1.024   6.424   1.051
 2123SOL    HW216474   1.053   6.265   1.068
 2124SOL     OW16475   1.985   9.542   1.337
 2124SOL    HW116476   1.909   9.574   1.394
 2124SOL    HW216477   2.062   9.518   1.395
 2125SOL     OW16478   1.404   6.285   1.577
 2125SOL    HW116479   1.324   6.316   1.628
 2125SOL    HW216480   1.406   6.330   1.488
 2126SOL     OW16481   7.570   9.919   0.882
 2126SOL    HW116482   7.615   9.833   0.859
 2126SOL    HW216483   7.576   9.934   0.981
 2127SOL     OW16484   3.127   5.942   2.205
 2127SOL    HW116485   3.117   6.035   2.172
 2127SOL    HW216486   3.036   5.900   2.215
 2128SOL     OW16487   4.110   3.897   1.248
 2128SOL    HW116488   4.118   3.809   1.203
 2128SOL    HW216489   4.021   3.903   1.293
 2129SOL     OW16490   3.232   4.422   0.146
 2129SOL    HW116491   3.249   4.519   0.160
 2129SOL    HW216492   3.313   4.370   0.175
 2130SOL     OW16493   9.377   7.353   1.291
 2130SOL    HW116494   9.349   7.430   1.234
 2130SOL    HW216495   9.339   7.268   1.255
 2131SOL     OW16496   4.241   0.591   1.767
 2131SOL    HW116497   4.259   0.689   1.757
 2131SOL    HW216498   4.312   0.539   1.721
 2132SOL     OW16499   9.083   4.818   1.733
 2132SOL    HW116500   9.002   4.849   1.683
 2132SOL    HW216501   9.106   4.883   1.805
 2133SOL     OW16502   2.588   9.246   1.232
 2133SOL    HW116503   2.636   9.214   1.151
 2133SOL    HW216504   2.514   9.183   1.254
 2134SOL     OW16505   3.298   2.494   1.903
 2134SOL    HW116506   3.263   2.409   1.943
 2134SOL    HW216507   3.227   2.565   1.908
 2135SOL     OW16508   4.304   4.001   0.065
 2135SOL    HW116509   4.393   3.998   0.111
 2135SOL    HW216510   4.301   3.933   2.933
 2136SOL     OW16511   1.230   0.906   1.772
 2136SOL    HW116512   1.235   0.899   1.672
 2136SOL    HW216513   1.307   0.962   1.805
 2137SOL     OW16514   2.544   2.882   0.942
 2137SOL    HW116515   2.606   2.908   0.868
 2137SOL    HW216516   2.475   2.954   0.954
 2138SOL     OW16517   3.998   0.819   0.259
 2138SOL    HW116518   3.904   0.847   0.279
 2138SOL    HW216519   4.049   0.897   0.224
 2139SOL     OW16520   4.108   1.951   1.052
 2139SOL    HW116521   4.111   1.856   1.083
 2139SOL    HW216522   4.035   1.999   1.100
 2140SOL     OW16523   4.576   0.935   0.639
 2140SOL    HW116524   4.599   1.024   0.678
 2140SOL    HW216525   4.544   0.947   0.545
 2141SOL     OW16526   1.113   6.814   0.141
 2141SOL    HW116527   1.138   6.729   0.187
 2141SOL    HW216528   1.119   6.891   0.205
 2142SOL     OW16529   0.454   3.557   1.113
 2142SOL    HW116530   0.439   3.469   1.159
 2142SOL    HW216531   0.445   3.631   1.180
 2143SOL     OW16532   4.007   0.951   0.758
 2143SOL    HW116533   3.910   0.975   0.753
 2143SOL    HW216534   4.016   0.852   0.769
 2144SOL     OW16535   0.746   3.379   0.108
 2144SOL    HW116536   0.743   3.461   0.166
 2144SOL    HW216537   0.824   3.322   0.134
 2145SOL     OW16538   2.613   2.084   0.606
 2145SOL    HW116539   2.695   2.113   0.653
 2145SOL    HW216540   2.623   2.101   0.508
 2146SOL     OW16541   1.196   3.725   0.302
 2146SOL    HW116542   1.216   3.774   0.386
 2146SOL    HW216543   1.098   3.732   0.282
 2147SOL     OW16544   1.707   7.391   0.430
 2147SOL    HW116545   1.758   7.318   0.383
 2147SOL    HW216546   1.761   7.475   0.428
 2148SOL     OW16547   9.317   5.230   1.237
 2148SOL    HW116548   9.313   5.301   1.307
 2148SOL    HW216549   9.335   5.142   1.281
 2149SOL     OW16550   8.829   9.022   0.290
 2149SOL    HW116551   8.826   9.003   0.192
 2149SOL    HW216552   8.923   9.016   0.322
 2150SOL     OW16553   3.500   9.900   2.200
 2150SOL    HW116554   3.462   9.877   2.290
 2150SOL    HW216555   3.480   9.827   2.135
 2151SOL     OW16556   3.676   0.377   2.198
 2151SOL    HW116557   3.708   0.447   2.261
 2151SOL    HW216558   3.579   0.391   2.179
 2152SOL     OW16559   0.058   3.167   0.066
 2152SOL    HW116560   0.079   3.152   0.162
 2152SOL    HW216561   0.074   3.083   0.014
 2153SOL     OW16562   9.118   2.307   1.216
 2153SOL    HW116563   9.173   2.379   1.258
 2153SOL    HW216564   9.165   2.219   1.227
 2154SOL     OW16565   0.795   2.605   1.285
 2154SOL    HW116566   0.881   2.649   1.262
 2154SOL    HW216567   0.725   2.674   1.305
 2155SOL     OW16568   1.728   7.376   1.489
 2155SOL    HW116569   1.827   7.374   1.471
 2155SOL    HW216570   1.709   7.331   1.576
 2156SOL     OW16571   0.248   0.257   0.204
 2156SOL    HW116572   0.265   0.339   0.149
 2156SOL    HW216573   0.150   0.247   0.222
 2157SOL     OW16574   1.762   7.447   1.907
 2157SOL    HW116575   1.840   7.491   1.863
 2157SOL    HW216576   1.734   7.502   1.987
 2158SOL     OW16577   2.581   7.223   1.587
 2158SOL    HW116578   2.487   7.215   1.621
 2158SOL    HW216579   2.645   7.201   1.661
 2159SOL     OW16580   1.113   2.844   1.768
 2159SOL    HW116581   1.121   2.854   1.669
 2159SOL    HW216582   1.053   2.915   1.804
 2160SOL     OW16583   9.307   2.481   1.311
 2160SOL    HW116584   9.329   2.438   1.399
 2160SOL    HW216585   9.389   2.485   1.254
 2161SOL     OW16586   9.519   4.574   1.788
 2161SOL    HW116587   9.427   4.612   1.799
 2161SOL    HW216588   9.585   4.649   1.782
 2162SOL     OW16589   1.550   8.595   1.429
 2162SOL    HW116590   1.553   8.680   1.376
 2162SOL    HW216591   1.564   8.615   1.526
 2163SOL     OW16592   9.801   1.803   1.712
 2163SOL    HW116593   9.729   1.828   1.777
 2163SOL    HW216594   9.772   1.823   1.619
 2164SOL     OW16595   4.159   1.697   1.160
 2164SOL    HW116596   4.122   1.699   1.253
 2164SOL    HW216597   4.151   1.605   1.122
 2165SOL     OW16598   2.362   0.738   1.255
 2165SOL    HW116599   2.361   0.686   1.341
 2165SOL    HW216600   2.405   0.682   1.184
 2166SOL     OW16601   0.953   1.098   1.051
 2166SOL    HW116602   0.905   1.040   0.984
 2166SOL    HW216603   0.889   1.167   1.086
 2167SOL     OW16604   1.270   9.005   1.632
 2167SOL    HW116605   1.352   9.055   1.662
 2167SOL    HW216606   1.193   9.069   1.626
 2168SOL     OW16607   8.329   6.779   0.531
 2168SOL    HW116608   8.319   6.876   0.510
 2168SOL    HW216609   8.412   6.744   0.487
 2169SOL     OW16610   4.754   1.228   1.488
 2169SOL    HW116611   4.775   1.135   1.521
 2169SOL    HW216612   4.747   1.226   1.388
 2170SOL     OW16613   0.990   1.138   0.443
 2170SOL    HW116614   1.054   1.214   0.454
 2170SOL    HW216615   1.007   1.093   0.355
 2171SOL     OW16616   0.134   3.554   0.757
 2171SOL    HW116617   0.206   3.600   0.810
 2171SOL    HW216618   0.150   3.569   0.660
 2172SOL     OW16619   3.392   1.217   0.205
 2172SOL    HW116620   3.319   1.271   0.164
 2172SOL    HW216621   3.412   1.254   0.296
 2173SOL     OW16622   2.307   6.474   1.192
 2173SOL    HW116623   2.322   6.449   1.288
 2173SOL    HW216624   2.332   6.396   1.134
 2174SOL     OW16625   2.001   5.758   0.082
 2174SOL    HW116626   1.978   5.849   0.047
 2174SOL    HW216627   2.099   5.756   0.105
 2175SOL     OW16628   2.636   8.061   2.056
 2175SOL    HW116629   2.655   7.990   2.124
 2175SOL    HW216630   2.715   8.121   2.048
 2176SOL     OW16631   2.578   9.332   2.019
 2176SOL    HW116632   2.668   9.371   2.001
 2176SOL    HW216633   2.551   9.273   1.943
 2177SOL     OW16634   2.385   2.049   1.566
 2177SOL    HW116635   2.461   2.067   1.628
 2177SOL    HW216636   2.408   2.084   1.475
 2178SOL     OW16637   3.539   5.621   0.637
 2178SOL    HW116638   3.536   5.721   0.636
 2178SOL    HW216639   3.508   5.587   0.725
 2179SOL     OW16640   8.169   0.246   0.244
 2179SOL    HW116641   8.229   0.299   0.304
 2179SOL    HW216642   8.131   0.306   0.173
 2180SOL     OW16643   2.043   6.239   1.690
 2180SOL    HW116644   2.053   6.336   1.670
 2180SOL    HW216645   1.956   6.206   1.654
 2181SOL     OW16646   2.987   8.165   2.255
 2181SOL    HW116647   2.944   8.169   2.345
 2181SOL    HW216648   3.077   8.209   2.259
 2182SOL     OW16649   3.918   4.909   0.727
 2182SOL    HW116650   3.960   4.913   0.637
 2182SOL    HW216651   3.868   4.994   0.744
 2183SOL     OW16652   3.311   8.392   1.823
 2183SOL    HW116653   3.394   8.338   1.841
 2183SOL    HW216654   3.231   8.334   1.832
 2184SOL     OW16655   0.500   1.365   1.188
 2184SOL    HW116656   0.544   1.450   1.215
 2184SOL    HW216657   0.434   1.383   1.115
 2185SOL     OW16658   0.817   2.769   0.301
 2185SOL    HW116659   0.735   2.712   0.306
 2185SOL    HW216660   0.895   2.717   0.335
 2186SOL     OW16661   8.643   2.449   0.663
 2186SOL    HW116662   8.583   2.369   0.664
 2186SOL    HW216663   8.730   2.426   0.620
 2187SOL     OW16664   3.806   1.190   0.253
 2187SOL    HW116665   3.842   1.284   0.260
 2187SOL    HW216666   3.744   1.184   0.175
 2188SOL     OW16667   4.866   8.679   2.199
 2188SOL    HW116668   4.773   8.678   2.235
 2188SOL    HW216669   4.901   8.586   2.193
 2189SOL     OW16670   3.799   0.459   0.946
 2189SOL    HW116671   3.779   0.388   0.878
 2189SOL    HW216672   3.747   0.541   0.924
 2190SOL     OW16673   9.550   2.068   1.572
 2190SOL    HW116674   9.598   2.148   1.536
 2190SOL    HW216675   9.539   2.078   1.671
 2191SOL     OW16676   9.496   7.869   1.756
 2191SOL    HW116677   9.545   7.947   1.719
 2191SOL    HW216678   9.523   7.786   1.707
 2192SOL     OW16679   2.354   1.193   0.850
 2192SOL    HW116680   2.344   1.096   0.873
 2192SOL    HW216681   2.439   1.227   0.891
 2193SOL     OW16682   3.407   0.452   1.203
 2193SOL    HW116683   3.334   0.461   1.270
 2193SOL    HW216684   3.418   0.355   1.179
 2194SOL     OW16685   4.661   1.441   2.338
 2194SOL    HW116686   4.736   1.492   2.296
 2194SOL    HW216687   4.606   1.398   2.266
 2195SOL     OW16688   4.252   1.015   0.894
 2195SOL    HW116689   4.163   0.989   0.855
 2195SOL    HW216690   4.288   1.094   0.844
 2196SOL     OW16691   0.465   6.817   1.083
 2196SOL    HW116692   0.447   6.827   0.985
 2196SOL    HW216693   0.561   6.840   1.102
 2197SOL     OW16694   2.315   4.604   1.509
 2197SOL    HW116695   2.387   4.620   1.577
 2197SOL    HW216696   2.225   4.616   1.551
 2198SOL     OW16697   8.558   8.180   2.239
 2198SOL    HW116698   8.565   8.082   2.220
 2198SOL    HW216699   8.482   8.219   2.187
 2199SOL     OW16700   4.052   3.275   1.205
 2199SOL    HW116701   4.005   3.190   1.183
 2199SOL    HW216702   3.997   3.352   1.173
 2200SOL     OW16703   2.665   0.725   0.757
 2200SOL    HW116704   2.613   0.692   0.678
 2200SOL    HW216705   2.740   0.662   0.778
 2201SOL     OW16706   8.805   5.166   0.284
 2201SOL    HW116707   8.760   5.208   0.205
 2201SOL    HW216708   8.770   5.073   0.297
 2202SOL     OW16709   8.585   9.190   1.822
 2202SOL    HW116710   8.671   9.234   1.796
 2202SOL    HW216711   8.551   9.135   1.746
 2203SOL     OW16712   9.747   2.255   0.936
 2203SOL    HW116713   9.783   2.340   0.898
 2203SOL    HW216714   9.647   2.256   0.932
 2204SOL     OW16715   3.516   6.014   0.395
 2204SOL    HW116716   3.416   6.016   0.386
 2204SOL    HW216717   3.551   6.107   0.399
 2205SOL     OW16718   8.192   1.039   0.379
 2205SOL    HW116719   8.234   0.959   0.335
 2205SOL    HW216720   8.129   1.082   0.315
 2206SOL     OW16721   9.102   2.795   1.783
 2206SOL    HW116722   9.057   2.854   1.716
 2206SOL    HW216723   9.131   2.710   1.739
 2207SOL     OW16724   4.099   1.858   1.687
 2207SOL    HW116725   4.185   1.808   1.699
 2207SOL    HW216726   4.118   1.953   1.663
 2208SOL     OW16727   9.941   7.017   2.080
 2208SOL    HW116728   9.951   6.918   2.075
 2208SOL    HW216729   9.844   7.041   2.076
 2209SOL     OW16730   2.500   0.183   0.310
 2209SOL    HW116731   2.531   0.278   0.310
 2209SOL    HW216732   2.558   0.129   0.249
 2210SOL     OW16733   2.327   9.487   1.013
 2210SOL    HW116734   2.333   9.395   0.974
 2210SOL    HW216735   2.369   9.488   1.104
 2211SOL     OW16736   8.279   2.402   0.528
 2211SOL    HW116737   8.244   2.460   0.455
 2211SOL    HW216738   8.205   2.344   0.563
 2212SOL     OW16739   1.848   9.660   0.305
 2212SOL    HW116740   1.762   9.610   0.292
 2212SOL    HW216741   1.869   9.713   0.223
 2213SOL     OW16742   8.927   8.114   0.599
 2213SOL    HW116743   9.021   8.148   0.607
 2213SOL    HW216744   8.918   8.030   0.652
 2214SOL     OW16745   4.467   3.115   1.190
 2214SOL    HW116746   4.429   3.114   1.282
 2214SOL    HW216747   4.397   3.090   1.124
 2215SOL     OW16748   9.120   3.446   2.226
 2215SOL    HW116749   9.109   3.417   2.131
 2215SOL    HW216750   9.213   3.483   2.239
 2216SOL     OW16751   4.775   4.161   0.176
 2216SOL    HW116752   4.832   4.180   0.097
 2216SOL    HW216753   4.757   4.246   0.226
 2217SOL     OW16754   1.227   5.786   0.435
 2217SOL    HW116755   1.212   5.694   0.471
 2217SOL    HW216756   1.262   5.781   0.342
 2218SOL     OW16757   1.665   3.653   0.657
 2218SOL    HW116758   1.633   3.722   0.592
 2218SOL    HW216759   1.704   3.698   0.738
 2219SOL     OW16760   3.973   2.514   1.492
 2219SOL    HW116761   3.979   2.461   1.576
 2219SOL    HW216762   3.881   2.554   1.485
 2220SOL     OW16763   0.321   9.447   2.164
 2220SOL    HW116764   0.234   9.424   2.209
 2220SOL    HW216765   0.349   9.539   2.190
 2221SOL     OW16766   0.220   2.034   0.954
 2221SOL    HW116767   0.125   2.058   0.932
 2221SOL    HW216768   0.239   1.941   0.923
 2222SOL     OW16769   9.340   6.573   1.883
 2222SOL    HW116770   9.287   6.617   1.956
 2222SOL    HW216771   9.373   6.643   1.820
 2223SOL     OW16772   0.531   5.183   0.176
 2223SOL    HW116773   0.629   5.172   0.162
 2223SOL    HW216774   0.484   5.096   0.159
 2224SOL     OW16775   1.148   9.821   0.598
 2224SOL    HW116776   1.073   9.882   0.624
 2224SOL    HW216777   1.116   9.726   0.601
 2225SOL     OW16778   4.148   1.226   0.374
 2225SOL    HW116779   4.127   1.207   0.470
 2225SOL    HW216780   4.073   1.280   0.334
 2226SOL     OW16781   2.332   7.218   1.707
 2226SOL    HW116782   2.332   7.118   1.706
 2226SOL    HW216783   2.239   7.251   1.720
 2227SOL     OW16784   2.220   0.181   0.336
 2227SOL    HW116785   2.317   0.184   0.311
 2227SOL    HW216786   2.205   0.236   0.417
 2228SOL     OW16787   8.982   7.580   0.319
 2228SOL    HW116788   8.884   7.575   0.302
 2228SOL    HW216789   9.006   7.672   0.351
 2229SOL     OW16790   0.163   8.698   0.937
 2229SOL    HW116791   0.169   8.797   0.924
 2229SOL    HW216792   0.073   8.674   0.972
 2230SOL     OW16793   2.191   7.793   0.496
 2230SOL    HW116794   2.121   7.809   0.566
 2230SOL    HW216795   2.161   7.719   0.436
 2231SOL     OW16796   2.578   8.801   1.391
 2231SOL    HW116797   2.618   8.828   1.479
 2231SOL    HW216798   2.612   8.710   1.365
 2232SOL     OW16799   2.753   2.616   0.390
 2232SOL    HW116800   2.780   2.520   0.387
 2232SOL    HW216801   2.690   2.635   0.315
 2233SOL     OW16802   1.007   8.867   1.845
 2233SOL    HW116803   1.068   8.787   1.851
 2233SOL    HW216804   0.949   8.859   1.764
 2234SOL     OW16805   9.124   7.620   1.722
 2234SOL    HW116806   9.119   7.669   1.809
 2234SOL    HW216807   9.032   7.613   1.683
 2235SOL     OW16808   0.692   0.077   1.121
 2235SOL    HW116809   0.761   0.130   1.072
 2235SOL    HW216810   0.736   9.997   1.163
 2236SOL     OW16811   0.605   2.408   0.524
 2236SOL    HW116812   0.526   2.346   0.536
 2236SOL    HW216813   0.599   2.482   0.590
 2237SOL     OW16814   4.431   1.770   0.416
 2237SOL    HW116815   4.345   1.821   0.417
 2237SOL    HW216816   4.507   1.831   0.437
 2238SOL     OW16817   9.449   3.000   1.295
 2238SOL    HW116818   9.420   2.979   1.389
 2238SOL    HW216819   9.383   3.063   1.254
 2239SOL     OW16820   3.690   1.810   0.696
 2239SOL    HW116821   3.740   1.724   0.706
 2239SOL    HW216822   3.744   1.885   0.734
 2240SOL     OW16823   4.211   9.684   2.050
 2240SOL    HW116824   4.127   9.730   2.020
 2240SOL    HW216825   4.189   9.615   2.119
 2241SOL     OW16826   1.348   6.089   0.121
 2241SOL    HW116827   1.272   6.137   0.077
 2241SOL    HW216828   1.425   6.152   0.134
 2242SOL     OW16829   1.225   7.880   1.540
 2242SOL    HW116830   1.286   7.948   1.500
 2242SOL    HW216831   1.146   7.867   1.479
 2243SOL     OW16832   9.226   5.732   1.575
 2243SOL    HW116833   9.180   5.649   1.604
 2243SOL    HW216834   9.177   5.772   1.498
 2244SOL     OW16835   2.268   4.107   0.988
 2244SOL    HW116836   2.199   4.092   1.058
 2244SOL    HW216837   2.229   4.160   0.913
 2245SOL     OW16838   1.978   7.050   1.398
 2245SOL    HW116839   1.921   7.021   1.474
 2245SOL    HW216840   1.928   7.037   1.312
 2246SOL     OW16841   2.867   8.712   1.272
 2246SOL    HW116842   2.871   8.787   1.205
 2246SOL    HW216843   2.787   8.655   1.254
 2247SOL     OW16844   1.208   1.747   0.694
 2247SOL    HW116845   1.209   1.764   0.792
 2247SOL    HW216846   1.271   1.809   0.648
 2248SOL     OW16847   9.695   8.516   1.804
 2248SOL    HW116848   9.631   8.540   1.731
 2248SOL    HW216849   9.779   8.571   1.794
 2249SOL     OW16850   0.680   8.172   2.203
 2249SOL    HW116851   0.620   8.250   2.187
 2249SOL    HW216852   0.773   8.195   2.175
 2250SOL     OW16853   2.049   6.510   1.656
 2250SOL    HW116854   2.051   6.568   1.574
 2250SOL    HW216855   1.966   6.528   1.708
 2251SOL     OW16856   9.336   7.166   2.125
 2251SOL    HW116857   9.263   7.210   2.178
 2251SOL    HW216858   9.318   7.067   2.121
 2252SOL     OW16859   8.071   1.712   1.773
 2252SOL    HW116860   8.025   1.643   1.718
 2252SOL    HW216861   8.152   1.745   1.723
 2253SOL     OW16862   9.005   5.715   0.171
 2253SOL    HW116863   8.958   5.690   0.255
 2253SOL    HW216864   8.959   5.673   0.093
 2254SOL     OW16865   2.340   9.357   2.152
 2254SOL    HW116866   2.425   9.346   2.102
 2254SOL    HW216867   2.339   9.445   2.199
 2255SOL     OW16868   0.754   7.495   2.028
 2255SOL    HW116869   0.850   7.473   2.012
 2255SOL    HW216870   0.744   7.592   2.048
 2256SOL     OW16871   0.585   0.367   2.176
 2256SOL    HW116872   0.544   0.380   2.086
 2256SOL    HW216873   0.672   0.416   2.180
 2257SOL     OW16874   9.352   8.328   1.307
 2257SOL    HW116875   9.268   8.333   1.362
 2257SOL    HW216876   9.421   8.389   1.347
 2258SOL     OW16877   2.824   0.954   1.853
 2258SOL    HW116878   2.826   0.943   1.754
 2258SOL    HW216879   2.915   0.979   1.886
 2259SOL     OW16880   7.147   9.610   1.690
 2259SOL    HW116881   7.071   9.592   1.628
 2259SOL    HW216882   7.187   9.524   1.721
 2260SOL     OW16883   0.754   4.636   1.315
 2260SOL    HW116884   0.698   4.555   1.297
 2260SOL    HW216885   0.698   4.718   1.302
 2261SOL     OW16886   4.236   2.161   0.625
 2261SOL    HW116887   4.188   2.093   0.680
 2261SOL    HW216888   4.308   2.117   0.572
 2262SOL     OW16889   0.037   3.230   2.014
 2262SOL    HW116890   9.939   3.222   1.997
 2262SOL    HW216891   0.058   3.193   2.105
 2263SOL     OW16892   2.683   0.089   0.117
 2263SOL    HW116893   2.638   0.045   0.040
 2263SOL    HW216894   2.714   0.180   0.091
 2264SOL     OW16895   9.223   0.798   0.157
 2264SOL    HW116896   9.300   0.749   0.115
 2264SOL    HW216897   9.203   0.758   0.246
 2265SOL     OW16898   3.033   5.940   1.737
 2265SOL    HW116899   3.023   5.930   1.638
 2265SOL    HW216900   2.971   6.010   1.770
 2266SOL     OW16901   4.631   3.156   0.570
 2266SOL    HW116902   4.648   3.251   0.541
 2266SOL    HW216903   4.692   3.095   0.520
 2267SOL     OW16904   0.368   5.186   1.966
 2267SOL    HW116905   0.368   5.236   2.053
 2267SOL    HW216906   0.458   5.195   1.922
 2268SOL     OW16907   8.218   8.540   1.567
 2268SOL    HW116908   8.210   8.625   1.516
 2268SOL    HW216909   8.300   8.544   1.625
 2269SOL     OW16910   1.093   1.236   0.084
 2269SOL    HW116911   1.163   1.228   0.012
 2269SOL    HW216912   1.102   1.325   0.129
 2270SOL     OW16913   2.872   1.927   0.865
 2270SOL    HW116914   2.895   1.887   0.953
 2270SOL    HW216915   2.776   1.908   0.843
 2271SOL     OW16916   2.625   5.717   0.808
 2271SOL    HW116917   2.656   5.685   0.898
 2271SOL    HW216918   2.696   5.701   0.740
 2272SOL     OW16919   8.152   9.987   1.835
 2272SOL    HW116920   8.148   0.020   1.929
 2272SOL    HW216921   8.063   9.998   1.791
 2273SOL     OW16922   4.355   4.713   0.543
 2273SOL    HW116923   4.275   4.695   0.487
 2273SOL    HW216924   4.340   4.795   0.598
 2274SOL     OW16925   3.361   5.310   1.157
 2274SOL    HW116926   3.276   5.304   1.106
 2274SOL    HW216927   3.341   5.336   1.252
 2275SOL     OW16928   4.820   8.943   0.533
 2275SOL    HW116929   4.723   8.958   0.548
 2275SOL    HW216930   4.836   8.845   0.516
 2276SOL     OW16931   2.903   5.145   2.175
 2276SOL    HW116932   2.824   5.202   2.153
 2276SOL    HW216933   2.897   5.059   2.125
 2277SOL     OW16934   3.397   4.992   1.369
 2277SOL    HW116935   3.306   5.024   1.392
 2277SOL    HW216936   3.417   5.013   1.273
 2278SOL     OW16937   2.764   4.235   1.812
 2278SOL    HW116938   2.731   4.281   1.730
 2278SOL    HW216939   2.854   4.196   1.794
 2279SOL     OW16940   9.609   7.120   0.550
 2279SOL    HW116941   9.627   7.070   0.466
 2279SOL    HW216942   9.613   7.219   0.532
 2280SOL     OW16943   1.682   7.878   0.131
 2280SOL    HW116944   1.595   7.863   0.085
 2280SOL    HW216945   1.708   7.974   0.122
 2281SOL     OW16946   0.358   7.497   1.225
 2281SOL    HW116947   0.365   7.404   1.190
 2281SOL    HW216948   0.441   7.520   1.275
 2282SOL     OW16949   2.493   9.002   0.919
 2282SOL    HW116950   2.530   8.978   1.009
 2282SOL    HW216951   2.563   8.986   0.849
 2283SOL     OW16952   0.132   6.666   1.349
 2283SOL    HW116953   0.046   6.617   1.340
 2283SOL    HW216954   0.117   6.764   1.335
 2284SOL     OW16955   3.370   9.346   1.788
 2284SOL    HW116956   3.465   9.350   1.756
 2284SOL    HW216957   3.364   9.386   1.879
 2285SOL     OW16958   3.677   0.912   2.216
 2285SOL    HW116959   3.658   0.815   2.201
 2285SOL    HW216960   3.759   0.939   2.165
 2286SOL     OW16961   2.105   8.169   1.395
 2286SOL    HW116962   2.010   8.192   1.419
 2286SOL    HW216963   2.109   8.139   1.300
 2287SOL     OW16964   9.139   2.049   0.467
 2287SOL    HW116965   9.166   2.138   0.504
 2287SOL    HW216966   9.220   1.989   0.463
 2288SOL     OW16967   7.530   0.341   0.591
 2288SOL    HW116968   7.515   0.437   0.613
 2288SOL    HW216969   7.540   0.289   0.676
 2289SOL     OW16970   0.947   6.575   1.111
 2289SOL    HW116971   0.921   6.629   1.191
 2289SOL    HW216972   0.866   6.553   1.057
 2290SOL     OW16973   8.822   9.823   2.139
 2290SOL    HW116974   8.874   9.908   2.131
 2290SOL    HW216975   8.724   9.843   2.141
 2291SOL     OW16976   8.225   9.210   1.607
 2291SOL    HW116977   8.138   9.167   1.582
 2291SOL    HW216978   8.244   9.285   1.543
 2292SOL     OW16979   2.758   8.971   0.192
 2292SOL    HW116980   2.790   9.059   0.156
 2292SOL    HW216981   2.835   8.922   0.232
 2293SOL     OW16982   2.317   6.674   0.528
 2293SOL    HW116983   2.222   6.670   0.496
 2293SOL    HW216984   2.319   6.706   0.622
 2294SOL     OW16985   2.538   3.398   0.264
 2294SOL    HW116986   2.533   3.298   0.262
 2294SOL    HW216987   2.447   3.435   0.283
 2295SOL     OW16988   9.292   0.369   0.975
 2295SOL    HW116989   9.237   0.392   0.894
 2295SOL    HW216990   9.342   0.450   1.005
 2296SOL     OW16991   9.246   7.880   0.234
 2296SOL    HW116992   9.166   7.879   0.293
 2296SOL    HW216993   9.281   7.974   0.225
 2297SOL     OW16994   0.013   6.942   1.577
 2297SOL    HW116995   0.090   6.911   1.632
 2297SOL    HW216996   0.041   6.951   1.481
 2298SOL     OW16997   3.135   4.432   0.907
 2298SOL    HW116998   3.115   4.366   0.980
 2298SOL    HW216999   3.175   4.515   0.946
 2299SOL     OW17000   4.102   4.509   0.689
 2299SOL    HW117001   4.197   4.480   0.676
 2299SOL    HW217002   4.100   4.588   0.750
 2300SOL     OW17003   1.562   7.595   0.803
 2300SOL    HW117004   1.509   7.639   0.731
 2300SOL    HW217005   1.500   7.554   0.870
 2301SOL     OW17006   2.185   2.232   1.605
 2301SOL    HW117007   2.253   2.159   1.605
 2301SOL    HW217008   2.106   2.204   1.550
 2302SOL     OW17009   2.593   9.549   0.902
 2302SOL    HW117010   2.497   9.533   0.922
 2302SOL    HW217011   2.629   9.618   0.965
 2303SOL     OW17012   8.507   2.741   2.187
 2303SOL    HW117013   8.475   2.646   2.181
 2303SOL    HW217014   8.533   2.762   2.282
 2304SOL     OW17015   0.596   4.740   1.859
 2304SOL    HW117016   0.537   4.815   1.890
 2304SOL    HW217017   0.614   4.678   1.935
 2305SOL     OW17018   1.640   3.621   0.089
 2305SOL    HW117019   1.636   3.577   2.940
 2305SOL    HW217020   1.715   3.581   0.142
 2306SOL     OW17021   2.086   0.654   2.238
 2306SOL    HW117022   2.059   0.608   2.153
 2306SOL    HW217023   2.015   0.641   2.307
 2307SOL     OW17024   0.691   1.609   0.283
 2307SOL    HW117025   0.660   1.519   0.316
 2307SOL    HW217026   0.642   1.632   0.200
 2308SOL     OW17027   4.129   5.334   0.225
 2308SOL    HW117028   4.188   5.255   0.208
 2308SOL    HW217029   4.114   5.344   0.323
 2309SOL     OW17030   2.065   1.987   0.843
 2309SOL    HW117031   1.996   1.924   0.807
 2309SOL    HW217032   2.070   1.978   0.942
 2310SOL     OW17033   0.390   9.003   1.685
 2310SOL    HW117034   0.370   9.086   1.634
 2310SOL    HW217035   0.328   8.997   1.764
 2311SOL     OW17036   9.465   2.113   0.701
 2311SOL    HW117037   9.488   2.042   0.767
 2311SOL    HW217038   9.517   2.098   0.617
 2312SOL     OW17039   1.968   6.987   0.909
 2312SOL    HW117040   2.010   6.896   0.909
 2312SOL    HW217041   1.886   6.985   0.852
 2313SOL     OW17042   0.093   5.419   0.331
 2313SOL    HW117043   0.169   5.406   0.267
 2313SOL    HW217044   0.082   5.516   0.351
 2314SOL     OW17045   0.477   1.100   1.255
 2314SOL    HW117046   0.477   1.199   1.236
 2314SOL    HW217047   0.383   1.068   1.265
 2315SOL     OW17048   3.752   3.441   0.187
 2315SOL    HW117049   3.772   3.343   0.188
 2315SOL    HW217050   3.838   3.492   0.177
 2316SOL     OW17051   8.524   9.461   1.285
 2316SOL    HW117052   8.520   9.546   1.233
 2316SOL    HW217053   8.618   9.442   1.312
 2317SOL     OW17054   8.781   9.775   0.307
 2317SOL    HW117055   8.865   9.727   0.282
 2317SOL    HW217056   8.780   9.866   0.265
 2318SOL     OW17057   2.565   9.635   0.480
 2318SOL    HW117058   2.630   9.710   0.467
 2318SOL    HW217059   2.611   9.548   0.462
 2319SOL     OW17060   4.105   1.183   0.638
 2319SOL    HW117061   4.196   1.194   0.677
 2319SOL    HW217062   4.063   1.100   0.675
 2320SOL     OW17063   8.036   0.019   0.867
 2320SOL    HW117064   7.976   0.014   0.947
 2320SOL    HW217065   8.071   9.928   0.846
 2321SOL     OW17066   0.244   6.631   0.820
 2321SOL    HW117067   0.170   6.601   0.880
 2321SOL    HW217068   0.289   6.551   0.780
 2322SOL     OW17069   8.762   9.544   0.995
 2322SOL    HW117070   8.824   9.522   1.069
 2322SOL    HW217071   8.745   9.642   0.992
 2323SOL     OW17072   0.174   8.961   0.869
 2323SOL    HW117073   0.208   9.051   0.845
 2323SOL    HW217074   0.102   8.935   0.804
 2324SOL     OW17075   8.621   5.920   0.356
 2324SOL    HW117076   8.710   5.899   0.398
 2324SOL    HW217077   8.566   5.974   0.420
 2325SOL     OW17078   1.264   4.778   2.121
 2325SOL    HW117079   1.182   4.830   2.095
 2325SOL    HW217080   1.249   4.735   2.210
 2326SOL     OW17081   0.297   7.428   0.101
 2326SOL    HW117082   0.272   7.510   0.154
 2326SOL    HW217083   0.374   7.449   0.041
 2327SOL     OW17084   2.077   7.319   1.706
 2327SOL    HW117085   2.054   7.325   1.609
 2327SOL    HW217086   2.053   7.405   1.751
 2328SOL     OW17087   8.780   8.591   1.991
 2328SOL    HW117088   8.745   8.675   1.950
 2328SOL    HW217089   8.712   8.556   2.056
 2329SOL     OW17090   3.000   7.938   2.096
 2329SOL    HW117091   2.942   7.938   2.014
 2329SOL    HW217092   2.993   8.026   2.141
 2330SOL     OW17093   9.049   7.836   0.427
 2330SOL    HW117094   8.953   7.849   0.451
 2330SOL    HW217095   9.107   7.868   0.501
 2331SOL     OW17096   2.095   4.741   2.209
 2331SOL    HW117097   2.154   4.689   2.147
 2331SOL    HW217098   2.148   4.771   2.288
 2332SOL     OW17099   9.415   7.267   0.147
 2332SOL    HW117100   9.347   7.330   0.184
 2332SOL    HW217101   9.392   7.173   0.174
 2333SOL     OW17102   9.623   3.567   0.425
 2333SOL    HW117103   9.710   3.595   0.467
 2333SOL    HW217104   9.585   3.491   0.478
 2334SOL     OW17105   3.128   6.473   2.204
 2334SOL    HW117106   3.032   6.488   2.228
 2334SOL    HW217107   3.177   6.560   2.206
 2335SOL     OW17108   9.949   4.476   1.093
 2335SOL    HW117109   9.873   4.429   1.048
 2335SOL    HW217110   9.938   4.574   1.081
 2336SOL     OW17111   8.683   1.125   0.824
 2336SOL    HW117112   8.597   1.097   0.867
 2336SOL    HW217113   8.669   1.134   0.725
 2337SOL     OW17114   8.869   3.723   1.607
 2337SOL    HW117115   8.861   3.645   1.669
 2337SOL    HW217116   8.916   3.798   1.653
 2338SOL     OW17117   4.311   3.094   1.423
 2338SOL    HW117118   4.259   3.179   1.430
 2338SOL    HW217119   4.249   3.017   1.413
 2339SOL     OW17120   8.810   0.781   2.167
 2339SOL    HW117121   8.715   0.749   2.161
 2339SOL    HW217122   8.846   0.797   2.075
 2340SOL     OW17123   8.924   1.670   2.208
 2340SOL    HW117124   8.967   1.582   2.226
 2340SOL    HW217125   8.981   1.744   2.244
 2341SOL     OW17126   0.758   7.522   1.647
 2341SOL    HW117127   0.743   7.445   1.709
 2341SOL    HW217128   0.674   7.576   1.640
 2342SOL     OW17129   2.526   7.665   2.067
 2342SOL    HW117130   2.574   7.731   2.125
 2342SOL    HW217131   2.593   7.601   2.028
 2343SOL     OW17132   9.782   2.073   0.275
 2343SOL    HW117133   9.857   2.051   0.212
 2343SOL    HW217134   9.695   2.069   0.225
 2344SOL     OW17135   9.772   5.580   2.253
 2344SOL    HW117136   9.688   5.565   2.200
 2344SOL    HW217137   9.838   5.508   2.231
 2345SOL     OW17138   8.663   2.550   1.585
 2345SOL    HW117139   8.672   2.630   1.643
 2345SOL    HW217140   8.715   2.474   1.624
 2346SOL     OW17141   9.763   4.725   1.782
 2346SOL    HW117142   9.782   4.776   1.866
 2346SOL    HW217143   9.829   4.750   1.711
 2347SOL     OW17144   0.480   8.378   1.456
 2347SOL    HW117145   0.430   8.336   1.531
 2347SOL    HW217146   0.470   8.322   1.374
 2348SOL     OW17147   9.715   3.775   1.676
 2348SOL    HW117148   9.761   3.723   1.749
 2348SOL    HW217149   9.757   3.866   1.669
 2349SOL     OW17150   4.462   1.049   1.611
 2349SOL    HW117151   4.469   1.065   1.512
 2349SOL    HW217152   4.385   1.102   1.647
 2350SOL     OW17153   4.669   8.912   1.888
 2350SOL    HW117154   4.719   8.964   1.819
 2350SOL    HW217155   4.657   8.968   1.970
 2351SOL     OW17156   7.770   9.269   1.500
 2351SOL    HW117157   7.722   9.279   1.413
 2351SOL    HW217158   7.709   9.298   1.575
 2352SOL     OW17159   4.742   3.643   2.159
 2352SOL    HW117160   4.825   3.668   2.210
 2352SOL    HW217161   4.662   3.677   2.209
 2353SOL     OW17162   9.770   7.451   0.288
 2353SOL    HW117163   9.866   7.432   0.312
 2353SOL    HW217164   9.742   7.391   0.213
 2354SOL     OW17165   1.262   1.958   1.568
 2354SOL    HW117166   1.336   1.914   1.517
 2354SOL    HW217167   1.211   2.019   1.507
 2355SOL     OW17168   0.767   8.136   0.591
 2355SOL    HW117169   0.828   8.191   0.533
 2355SOL    HW217170   0.714   8.073   0.534
 2356SOL     OW17171   8.526   8.318   1.832
 2356SOL    HW117172   8.506   8.402   1.780
 2356SOL    HW217173   8.625   8.312   1.848
 2357SOL     OW17174   2.978   0.821   0.416
 2357SOL    HW117175   3.040   0.801   0.492
 2357SOL    HW217176   2.941   0.913   0.426
 2358SOL     OW17177   1.136   6.313   0.747
 2358SOL    HW117178   1.110   6.326   0.843
 2358SOL    HW217179   1.214   6.371   0.726
 2359SOL     OW17180   3.799   9.256   1.166
 2359SOL    HW117181   3.840   9.311   1.093
 2359SOL    HW217182   3.772   9.316   1.241
 2360SOL     OW17183   0.709   4.188   0.744
 2360SOL    HW117184   0.701   4.246   0.663
 2360SOL    HW217185   0.669   4.234   0.823
 2361SOL     OW17186   2.246   3.117   0.198
 2361SOL    HW117187   2.331   3.119   0.251
 2361SOL    HW217188   2.266   3.139   0.102
 2362SOL     OW17189   9.718   9.135   0.343
 2362SOL    HW117190   9.812   9.166   0.330
 2362SOL    HW217191   9.690   9.153   0.437
 2363SOL     OW17192   3.623   5.201   0.561
 2363SOL    HW117193   3.595   5.133   0.494
 2363SOL    HW217194   3.681   5.269   0.517
 2364SOL     OW17195   1.408   9.032   0.893
 2364SOL    HW117196   1.413   8.975   0.811
 2364SOL    HW217197   1.445   8.983   0.971
 2365SOL     OW17198   8.843   3.435   1.673
 2365SOL    HW117199   8.915   3.366   1.673
 2365SOL    HW217200   8.755   3.392   1.692
 2366SOL     OW17201   8.994   0.321   1.464
 2366SOL    HW117202   8.919   0.379   1.432
 2366SOL    HW217203   9.081   0.364   1.445
 2367SOL     OW17204   9.895   8.544   0.093
 2367SOL    HW117205   9.970   8.560   0.157
 2367SOL    HW217206   9.865   8.630   0.052
 2368SOL     OW17207   9.890   0.421   2.193
 2368SOL    HW117208   9.936   0.341   2.154
 2368SOL    HW217209   9.814   0.390   2.250
 2369SOL     OW17210   2.108   3.140   1.350
 2369SOL    HW117211   2.116   3.116   1.254
 2369SOL    HW217212   2.020   3.110   1.385
 2370SOL     OW17213   9.089   8.365   1.454
 2370SOL    HW117214   9.060   8.356   1.358
 2370SOL    HW217215   9.009   8.369   1.513
 2371SOL     OW17216   8.938   2.642   0.668
 2371SOL    HW117217   8.878   2.721   0.658
 2371SOL    HW217218   8.908   2.569   0.607
 2372SOL     OW17219   9.832   6.183   1.243
 2372SOL    HW117220   9.793   6.179   1.151
 2372SOL    HW217221   9.821   6.094   1.287
 2373SOL     OW17222   3.467   2.245   1.488
 2373SOL    HW117223   3.471   2.148   1.512
 2373SOL    HW217224   3.554   2.273   1.446
 2374SOL     OW17225   9.480   1.942   1.342
 2374SOL    HW117226   9.407   1.993   1.297
 2374SOL    HW217227   9.501   1.984   1.430
 2375SOL     OW17228   3.669   3.876   2.144
 2375SOL    HW117229   3.690   3.874   2.047
 2375SOL    HW217230   3.731   3.939   2.191
 2376SOL     OW17231   2.460   2.699   1.963
 2376SOL    HW117232   2.557   2.675   1.967
 2376SOL    HW217233   2.438   2.760   2.038
 2377SOL     OW17234   9.189   9.751   1.662
 2377SOL    HW117235   9.231   9.838   1.635
 2377SOL    HW217236   9.258   9.693   1.705
 2378SOL     OW17237   2.175   5.218   2.167
 2378SOL    HW117238   2.186   5.197   2.264
 2378SOL    HW217239   2.102   5.285   2.155
 2379SOL     OW17240   9.124   1.989   1.005
 2379SOL    HW117241   9.169   1.902   1.024
 2379SOL    HW217242   9.123   2.005   0.906
 2380SOL     OW17243   8.144   1.925   0.880
 2380SOL    HW117244   8.145   1.906   0.978
 2380SOL    HW217245   8.216   1.991   0.858
 2381SOL     OW17246   0.328   0.827   0.191
 2381SOL    HW117247   0.394   0.848   0.120
 2381SOL    HW217248   0.351   0.739   0.233
 2382SOL     OW17249   3.130   0.496   0.607
 2382SOL    HW117250   3.137   0.596   0.606
 2382SOL    HW217251   3.048   0.468   0.557
 2383SOL     OW17252   4.316   3.963   0.535
 2383SOL    HW117253   4.311   4.009   0.624
 2383SOL    HW217254   4.329   4.031   0.463
 2384SOL     OW17255   5.024   3.854   1.538
 2384SOL    HW117256   5.010   3.790   1.462
 2384SOL    HW217257   5.122   3.871   1.548
 2385SOL     OW17258   3.897   3.505   1.143
 2385SOL    HW117259   3.977   3.566   1.135
 2385SOL    HW217260   3.851   3.500   1.054
 2386SOL     OW17261   9.414   1.562   1.072
 2386SOL    HW117262   9.489   1.508   1.034
 2386SOL    HW217263   9.350   1.502   1.120
 2387SOL     OW17264   0.625   9.270   0.571
 2387SOL    HW117265   0.528   9.259   0.548
 2387SOL    HW217266   0.635   9.343   0.638
 2388SOL     OW17267   3.218   5.287   0.504
 2388SOL    HW117268   3.284   5.358   0.480
 2388SOL    HW217269   3.162   5.319   0.581
 2389SOL     OW17270   8.110   9.589   2.030
 2389SOL    HW117271   8.038   9.521   2.043
 2389SOL    HW217272   8.199   9.544   2.030
 2390SOL     OW17273   1.545   6.277   0.167
 2390SOL    HW117274   1.553   6.368   0.127
 2390SOL    HW217275   1.618   6.262   0.234
 2391SOL     OW17276   3.988   0.581   1.449
 2391SOL    HW117277   3.933   0.538   1.521
 2391SOL    HW217278   3.938   0.576   1.362
 2392SOL     OW17279   1.758   6.983   0.169
 2392SOL    HW117280   1.798   7.060   0.219
 2392SOL    HW217281   1.762   6.901   0.226
 2393SOL     OW17282   1.082   5.571   0.596
 2393SOL    HW117283   1.019   5.500   0.629
 2393SOL    HW217284   1.173   5.532   0.586
 2394SOL     OW17285   4.024   1.059   1.560
 2394SOL    HW117286   3.991   1.106   1.478
 2394SOL    HW217287   4.051   0.966   1.536
 2395SOL     OW17288   8.505   7.103   0.242
 2395SOL    HW117289   8.546   7.180   0.291
 2395SOL    HW217290   8.578   7.047   0.202
 2396SOL     OW17291   1.899   6.518   0.277
 2396SOL    HW117292   1.989   6.492   0.240
 2396SOL    HW217293   1.845   6.436   0.295
 2397SOL     OW17294   9.585   1.187   0.504
 2397SOL    HW117295   9.611   1.212   0.598
 2397SOL    HW217296   9.607   1.263   0.443
 2398SOL     OW17297   1.260   3.702   0.787
 2398SOL    HW117298   1.222   3.623   0.739
 2398SOL    HW217299   1.186   3.754   0.830
 2399SOL     OW17300   8.408   0.451   1.185
 2399SOL    HW117301   8.478   0.434   1.115
 2399SOL    HW217302   8.414   0.545   1.216
 2400SOL     OW17303   1.710   5.392   0.229
 2400SOL    HW117304   1.625   5.436   0.256
 2400SOL    HW217305   1.730   5.317   0.291
 2401SOL     OW17306   7.522   0.157   2.117
 2401SOL    HW117307   7.580   0.238   2.123
 2401SOL    HW217308   7.518   0.127   2.021
 2402SOL     OW17309   2.082   8.779   0.710
 2402SOL    HW117310   2.054   8.709   0.644
 2402SOL    HW217311   2.165   8.750   0.756
 2403SOL     OW17312   8.012   1.493   1.614
 2403SOL    HW117313   8.101   1.509   1.572
 2403SOL    HW217314   7.956   1.435   1.554
 2404SOL     OW17315   8.709   2.544   1.117
 2404SOL    HW117316   8.656   2.559   1.200
 2404SOL    HW217317   8.648   2.549   1.037
 2405SOL     OW17318   4.067   1.452   0.717
 2405SOL    HW117319   4.163   1.471   0.735
 2405SOL    HW217320   4.057   1.358   0.683
 2406SOL     OW17321   9.073   1.431   2.212
 2406SOL    HW117322   8.998   1.366   2.200
 2406SOL    HW217323   9.107   1.460   2.123
 2407SOL     OW17324   4.145   2.096   0.183
 2407SOL    HW117325   4.244   2.103   0.193
 2407SOL    HW217326   4.109   2.181   0.144
 2408SOL     OW17327   4.808   2.981   0.914
 2408SOL    HW117328   4.860   2.985   0.829
 2408SOL    HW217329   4.831   2.896   0.963
 2409SOL     OW17330   1.825   6.142   0.832
 2409SOL    HW117331   1.776   6.161   0.747
 2409SOL    HW217332   1.819   6.044   0.854
 2410SOL     OW17333   2.877   3.871   1.086
 2410SOL    HW117334   2.961   3.821   1.068
 2410SOL    HW217335   2.888   3.927   1.168
 2411SOL     OW17336   7.929   8.291   0.907
 2411SOL    HW117337   7.914   8.194   0.891
 2411SOL    HW217338   7.927   8.310   1.006
 2412SOL     OW17339   0.345   6.994   1.248
 2412SOL    HW117340   0.419   7.009   1.314
 2412SOL    HW217341   0.374   6.926   1.181
 2413SOL     OW17342   1.966   7.298   0.752
 2413SOL    HW117343   1.867   7.316   0.754
 2413SOL    HW217344   1.995   7.264   0.842
 2414SOL     OW17345   3.034   2.775   0.669
 2414SOL    HW117346   3.048   2.861   0.718
 2414SOL    HW217347   2.952   2.730   0.704
 2415SOL     OW17348   4.754   0.682   1.168
 2415SOL    HW117349   4.662   0.686   1.131
 2415SOL    HW217350   4.772   0.591   1.205
 2416SOL     OW17351   1.161   9.344   1.074
 2416SOL    HW117352   1.084   9.282   1.092
 2416SOL    HW217353   1.126   9.432   1.043
 2417SOL     OW17354   9.647   3.123   0.557
 2417SOL    HW117355   9.746   3.133   0.547
 2417SOL    HW217356   9.611   3.070   0.481
 2418SOL     OW17357   9.254   2.069   1.236
 2418SOL    HW117358   9.214   2.040   1.149
 2418SOL    HW217359   9.198   2.035   1.312
 2419SOL     OW17360   1.975   5.765   2.167
 2419SOL    HW117361   1.893   5.707   2.162
 2419SOL    HW217362   2.055   5.707   2.178
 2420SOL     OW17363   1.796   1.717   1.366
 2420SOL    HW117364   1.789   1.746   1.271
 2420SOL    HW217365   1.761   1.789   1.426
 2421SOL     OW17366   1.466   7.069   1.407
 2421SOL    HW117367   1.525   7.127   1.351
 2421SOL    HW217368   1.449   7.115   1.495
 2422SOL     OW17369   3.803   4.778   1.497
 2422SOL    HW117370   3.823   4.819   1.586
 2422SOL    HW217371   3.824   4.681   1.499
 2423SOL     OW17372   0.742   7.107   0.843
 2423SOL    HW117373   0.734   7.199   0.880
 2423SOL    HW217374   0.689   7.043   0.899
 2424SOL     OW17375   1.633   3.896   1.864
 2424SOL    HW117376   1.712   3.846   1.898
 2424SOL    HW217377   1.621   3.876   1.766
 2425SOL     OW17378   8.498   3.826   0.919
 2425SOL    HW117379   8.476   3.924   0.913
 2425SOL    HW217380   8.573   3.805   0.857
 2426SOL     OW17381   3.402   8.592   1.987
 2426SOL    HW117382   3.326   8.651   2.014
 2426SOL    HW217383   3.369   8.518   1.929
 2427SOL     OW17384   3.194   9.573   0.479
 2427SOL    HW117385   3.095   9.571   0.491
 2427SOL    HW217386   3.238   9.528   0.558
 2428SOL     OW17387   2.846   8.220   0.618
 2428SOL    HW117388   2.887   8.129   0.611
 2428SOL    HW217389   2.777   8.231   0.546
 2429SOL     OW17390   9.526   6.562   0.649
 2429SOL    HW117391   9.599   6.579   0.583
 2429SOL    HW217392   9.483   6.649   0.674
 2430SOL     OW17393   9.831   9.422   0.524
 2430SOL    HW117394   9.754   9.362   0.542
 2430SOL    HW217395   9.801   9.517   0.528
 2431SOL     OW17396   1.149   1.442   1.189
 2431SOL    HW117397   1.086   1.517   1.169
 2431SOL    HW217398   1.163   1.435   1.288
 2432SOL     OW17399   3.080   5.368   0.730
 2432SOL    HW117400   3.071   5.467   0.714
 2432SOL    HW217401   3.116   5.353   0.822
 2433SOL     OW17402   0.674   2.048   0.822
 2433SOL    HW117403   0.679   2.074   0.919
 2433SOL    HW217404   0.759   2.072   0.776
 2434SOL     OW17405   7.975   9.501   1.169
 2434SOL    HW117406   8.072   9.483   1.153
 2434SOL    HW217407   7.925   9.414   1.170
 2435SOL     OW17408   1.462   9.660   0.675
 2435SOL    HW117409   1.478   9.751   0.714
 2435SOL    HW217410   1.398   9.609   0.733
 2436SOL     OW17411   3.922   4.653   0.116
 2436SOL    HW117412   3.908   4.717   0.191
 2436SOL    HW217413   3.865   4.571   0.130
 2437SOL     OW17414   1.921   5.090   1.531
 2437SOL    HW117415   1.826   5.074   1.557
 2437SOL    HW217416   1.940   5.188   1.535
 2438SOL     OW17417   9.676   9.460   1.287
 2438SOL    HW117418   9.614   9.421   1.355
 2438SOL    HW217419   9.640   9.443   1.195
 2439SOL     OW17420   2.680   9.980   1.214
 2439SOL    HW117421   2.662   9.964   1.311
 2439SOL    HW217422   2.755   0.044   1.204
 2440SOL     OW17423   9.033   3.592   1.434
 2440SOL    HW117424   8.978   3.515   1.400
 2440SOL    HW217425   8.978   3.648   1.495
 2441SOL     OW17426   4.836   2.146   0.773
 2441SOL    HW117427   4.757   2.190   0.816
 2441SOL    HW217428   4.912   2.142   0.839
 2442SOL     OW17429   3.268   9.005   1.959
 2442SOL    HW117430   3.169   9.014   1.948
 2442SOL    HW217431   3.301   9.075   2.022
 2443SOL     OW17432   8.029   8.707   1.108
 2443SOL    HW117433   7.987   8.634   1.161
 2443SOL    HW217434   8.125   8.717   1.134
 2444SOL     OW17435   1.341   0.410   0.497
 2444SOL    HW117436   1.433   0.418   0.459
 2444SOL    HW217437   1.287   0.346   0.442
 2445SOL     OW17438   0.587   1.372   0.368
 2445SOL    HW117439   0.507   1.334   0.323
 2445SOL    HW217440   0.642   1.298   0.407
 2446SOL     OW17441   8.235   7.175   1.711
 2446SOL    HW117442   8.317   7.231   1.699
 2446SOL    HW217443   8.165   7.227   1.759
 2447SOL     OW17444   9.818   9.906   1.261
 2447SOL    HW117445   9.814   9.991   1.313
 2447SOL    HW217446   9.906   9.901   1.214
 2448SOL     OW17447   2.596   1.249   0.978
 2448SOL    HW117448   2.662   1.223   1.048
 2448SOL    HW217449   2.633   1.227   0.888
 2449SOL     OW17450   8.596   2.672   0.505
 2449SOL    HW117451   8.613   2.594   0.566
 2449SOL    HW217452   8.516   2.722   0.536
 2450SOL     OW17453   2.761   9.614   1.764
 2450SOL    HW117454   2.715   9.702   1.761
 2450SOL    HW217455   2.847   9.619   1.714
 2451SOL     OW17456   2.998   7.600   1.650
 2451SOL    HW117457   2.965   7.607   1.744
 2451SOL    HW217458   3.008   7.691   1.611
 2452SOL     OW17459   1.710   8.428   1.040
 2452SOL    HW117460   1.798   8.381   1.032
 2452SOL    HW217461   1.716   8.517   0.995
 2453SOL     OW17462   0.453   2.381   1.156
 2453SOL    HW117463   0.427   2.417   1.066
 2453SOL    HW217464   0.411   2.291   1.170
 2454SOL     OW17465   0.426   2.188   0.839
 2454SOL    HW117466   0.511   2.135   0.837
 2454SOL    HW217467   0.354   2.133   0.882
 2455SOL     OW17468   1.862   2.100   1.192
 2455SOL    HW117469   1.771   2.060   1.200
 2455SOL    HW217470   1.861   2.171   1.121
 2456SOL     OW17471   0.790   5.112   0.142
 2456SOL    HW117472   0.886   5.142   0.147
 2456SOL    HW217473   0.787   5.012   0.135
 2457SOL     OW17474   4.314   4.347   0.932
 2457SOL    HW117475   4.215   4.345   0.945
 2457SOL    HW217476   4.334   4.399   0.848
 2458SOL     OW17477   9.951   2.071   0.876
 2458SOL    HW117478   9.911   1.981   0.856
 2458SOL    HW217479   9.879   2.134   0.905
 2459SOL     OW17480   1.313   1.631   0.366
 2459SOL    HW117481   1.240   1.680   0.412
 2459SOL    HW217482   1.401   1.666   0.397
 2460SOL     OW17483   1.087   9.216   1.586
 2460SOL    HW117484   1.009   9.182   1.533
 2460SOL    HW217485   1.064   9.215   1.683
 2461SOL     OW17486   0.572   5.751   2.112
 2461SOL    HW117487   0.635   5.816   2.154
 2461SOL    HW217488   0.520   5.797   2.041
 2462SOL     OW17489   9.210   7.471   0.213
 2462SOL    HW117490   9.218   7.498   0.117
 2462SOL    HW217491   9.125   7.509   0.251
 2463SOL     OW17492   8.901   4.616   1.393
 2463SOL    HW117493   8.886   4.517   1.399
 2463SOL    HW217494   8.994   4.638   1.422
 2464SOL     OW17495   2.765   1.189   1.184
 2464SOL    HW117496   2.863   1.171   1.194
 2464SOL    HW217497   2.718   1.167   1.270
 2465SOL     OW17498   2.879   3.519   1.154
 2465SOL    HW117499   2.960   3.539   1.209
 2465SOL    HW217500   2.809   3.588   1.173
 2466SOL     OW17501   2.036   7.164   0.523
 2466SOL    HW117502   2.022   7.219   0.606
 2466SOL    HW217503   2.009   7.070   0.541
 2467SOL     OW17504   4.156   5.012   0.830
 2467SOL    HW117505   4.068   4.980   0.796
 2467SOL    HW217506   4.210   4.933   0.860
 2468SOL     OW17507   1.533   7.710   1.824
 2468SOL    HW117508   1.628   7.742   1.828
 2468SOL    HW217509   1.494   7.710   1.916
 2469SOL     OW17510   2.843   9.579   1.409
 2469SOL    HW117511   2.879   9.627   1.329
 2469SOL    HW217512   2.902   9.597   1.488
 2470SOL     OW17513   1.799   1.489   0.953
 2470SOL    HW117514   1.829   1.397   0.977
 2470SOL    HW217515   1.721   1.483   0.891
 2471SOL     OW17516   8.850   7.353   1.751
 2471SOL    HW117517   8.914   7.282   1.723
 2471SOL    HW217518   8.765   7.311   1.781
 2472SOL     OW17519   3.231   9.404   1.413
 2472SOL    HW117520   3.208   9.494   1.376
 2472SOL    HW217521   3.197   9.397   1.507
 2473SOL     OW17522   3.090   6.183   1.412
 2473SOL    HW117523   3.043   6.097   1.429
 2473SOL    HW217524   3.103   6.231   1.499
 2474SOL     OW17525   0.378   6.688   2.235
 2474SOL    HW117526   0.351   6.763   2.295
 2474SOL    HW217527   0.457   6.716   2.180
 2475SOL     OW17528   1.296   0.016   1.380
 2475SOL    HW117529   1.314   0.095   1.439
 2475SOL    HW217530   1.380   9.990   1.333
 2476SOL     OW17531   8.470   9.077   1.602
 2476SOL    HW117532   8.458   8.978   1.595
 2476SOL    HW217533   8.380   9.122   1.595
 2477SOL     OW17534   2.319   6.078   0.877
 2477SOL    HW117535   2.383   6.054   0.804
 2477SOL    HW217536   2.233   6.109   0.836
 2478SOL     OW17537   0.143   0.362   1.510
 2478SOL    HW117538   0.114   0.275   1.550
 2478SOL    HW217539   0.146   0.354   1.411
 2479SOL     OW17540   9.132   4.957   0.017
 2479SOL    HW117541   9.092   4.958   2.866
 2479SOL    HW217542   9.069   4.913   0.081
 2480SOL     OW17543   0.590   2.536   2.208
 2480SOL    HW117544   0.566   2.484   2.126
 2480SOL    HW217545   0.681   2.508   2.239
 2481SOL     OW17546   9.745   3.703   1.028
 2481SOL    HW117547   9.725   3.798   1.051
 2481SOL    HW217548   9.827   3.673   1.078
 2482SOL     OW17549   0.359   3.131   2.231
 2482SOL    HW117550   0.382   3.048   2.180
 2482SOL    HW217551   0.262   3.131   2.253
 2483SOL     OW17552   9.333   9.276   2.167
 2483SOL    HW117553   9.353   9.239   2.077
 2483SOL    HW217554   9.418   9.288   2.218
 2484SOL     OW17555   2.469   8.627   1.032
 2484SOL    HW117556   2.437   8.679   0.953
 2484SOL    HW217557   2.391   8.586   1.079
 2485SOL     OW17558   9.761   4.533   2.111
 2485SOL    HW117559   9.769   4.501   2.016
 2485SOL    HW217560   9.827   4.483   2.168
 2486SOL     OW17561   4.273   2.304   2.169
 2486SOL    HW117562   4.184   2.342   2.144
 2486SOL    HW217563   4.337   2.378   2.191
 2487SOL     OW17564   9.899   1.520   0.557
 2487SOL    HW117565   9.867   1.563   0.473
 2487SOL    HW217566   9.999   1.522   0.560
 2488SOL     OW17567   4.165   9.308   0.336
 2488SOL    HW117568   4.110   9.254   0.400
 2488SOL    HW217569   4.259   9.315   0.372
 2489SOL     OW17570   3.916   2.516   1.049
 2489SOL    HW117571   3.965   2.503   0.963
 2489SOL    HW217572   3.982   2.520   1.125
 2490SOL     OW17573   1.019   6.225   1.818
 2490SOL    HW117574   1.084   6.275   1.761
 2490SOL    HW217575   1.068   6.178   1.891
 2491SOL     OW17576   1.690   3.900   1.219
 2491SOL    HW117577   1.629   3.852   1.281
 2491SOL    HW217578   1.709   3.842   1.139
 2492SOL     OW17579   5.068   2.185   0.938
 2492SOL    HW117580   5.162   2.160   0.916
 2492SOL    HW217581   5.056   2.284   0.930
 2493SOL     OW17582   4.079   0.537   1.974
 2493SOL    HW117583   4.142   0.556   1.898
 2493SOL    HW217584   4.089   0.442   2.003
 2494SOL     OW17585   9.558   3.807   1.322
 2494SOL    HW117586   9.482   3.785   1.261
 2494SOL    HW217587   9.522   3.840   1.409
 2495SOL     OW17588   1.748   9.920   0.957
 2495SOL    HW117589   1.669   9.907   1.017
 2495SOL    HW217590   1.746   0.012   0.920
 2496SOL     OW17591   2.765   5.346   1.828
 2496SOL    HW117592   2.757   5.256   1.783
 2496SOL    HW217593   2.748   5.336   1.926
 2497SOL     OW17594   3.196   9.848   2.018
 2497SOL    HW117595   3.224   9.943   2.029
 2497SOL    HW217596   3.155   9.835   1.928
 2498SOL     OW17597   0.530   8.049   0.173
 2498SOL    HW117598   0.586   8.118   0.127
 2498SOL    HW217599   0.433   8.073   0.164
 2499SOL     OW17600   8.325   2.751   1.373
 2499SOL    HW117601   8.234   2.712   1.385
 2499SOL    HW217602   8.327   2.809   1.292
 2500SOL     OW17603   9.760   6.479   1.938
 2500SOL    HW117604   9.817   6.528   1.872
 2500SOL    HW217605   9.748   6.535   2.020
 2501SOL     OW17606   9.030   3.933   1.981
 2501SOL    HW117607   9.089   4.013   1.992
 2501SOL    HW217608   8.966   3.928   2.058
 2502SOL     OW17609   0.639   2.362   1.644
 2502SOL    HW117610   0.542   2.365   1.620
 2502SOL    HW217611   0.664   2.268   1.669
 2503SOL     OW17612   8.266   6.189   0.533
 2503SOL    HW117613   8.236   6.209   0.440
 2503SOL    HW217614   8.215   6.245   0.598
 2504SOL     OW17615   8.759   7.854   1.333
 2504SOL    HW117616   8.698   7.916   1.283
 2504SOL    HW217617   8.788   7.897   1.418
 2505SOL     OW17618   8.863   2.762   1.925
 2505SOL    HW117619   8.955   2.776   1.890
 2505SOL    HW217620   8.798   2.764   1.849
 2506SOL     OW17621   8.824   8.954   0.020
 2506SOL    HW117622   8.738   8.911   2.935
 2506SOL    HW217623   8.901   8.896   2.933
 2507SOL     OW17624   9.763   2.642   1.693
 2507SOL    HW117625   9.820   2.630   1.612
 2507SOL    HW217626   9.672   2.673   1.666
 2508SOL     OW17627   9.422   6.284   1.349
 2508SOL    HW117628   9.423   6.381   1.325
 2508SOL    HW217629   9.348   6.239   1.299
 2509SOL     OW17630   3.138   8.104   0.856
 2509SOL    HW117631   3.160   8.045   0.778
 2509SOL    HW217632   3.215   8.103   0.921
 2510SOL     OW17633   4.160   2.684   1.590
 2510SOL    HW117634   4.091   2.623   1.552
 2510SOL    HW217635   4.135   2.710   1.683
 2511SOL     OW17636   0.278   3.293   1.436
 2511SOL    HW117637   0.357   3.297   1.375
 2511SOL    HW217638   0.296   3.229   1.510
 2512SOL     OW17639   9.548   4.190   2.036
 2512SOL    HW117640   9.467   4.246   2.050
 2512SOL    HW217641   9.533   4.100   2.076
 2513SOL     OW17642   9.979   0.234   0.240
 2513SOL    HW117643   9.965   0.158   0.178
 2513SOL    HW217644   9.905   0.301   0.228
 2514SOL     OW17645   2.344   5.235   0.487
 2514SOL    HW117646   2.366   5.195   0.576
 2514SOL    HW217647   2.268   5.299   0.498
 2515SOL     OW17648   1.593   0.452   0.390
 2515SOL    HW117649   1.652   0.376   0.416
 2515SOL    HW217650   1.615   0.481   0.297
 2516SOL     OW17651   2.561   8.823   0.058
 2516SOL    HW117652   2.634   8.878   0.097
 2516SOL    HW217653   2.472   8.867   0.074
 2517SOL     OW17654   7.600   9.012   2.013
 2517SOL    HW117655   7.636   9.074   1.944
 2517SOL    HW217656   7.611   9.053   2.104
 2518SOL     OW17657   2.162   6.000   1.091
 2518SOL    HW117658   2.222   6.018   1.013
 2518SOL    HW217659   2.084   6.063   1.088
 2519SOL     OW17660   3.331   4.344   1.249
 2519SOL    HW117661   3.387   4.420   1.215
 2519SOL    HW217662   3.295   4.368   1.339
 2520SOL     OW17663   9.201   5.380   0.447
 2520SOL    HW117664   9.203   5.456   0.382
 2520SOL    HW217665   9.269   5.312   0.421
 2521SOL     OW17666   8.977   6.964   0.997
 2521SOL    HW117667   8.905   6.895   0.991
 2521SOL    HW217668   8.990   6.992   1.092
 2522SOL     OW17669   0.714   4.401   1.622
 2522SOL    HW117670   0.764   4.390   1.708
 2522SOL    HW217671   0.774   4.381   1.545
 2523SOL     OW17672   3.608   3.653   0.808
 2523SOL    HW117673   3.566   3.701   0.731
 2523SOL    HW217674   3.671   3.714   0.855
 2524SOL     OW17675   8.886   9.465   0.765
 2524SOL    HW117676   8.843   9.491   0.851
 2524SOL    HW217677   8.816   9.447   0.696
 2525SOL     OW17678   3.915   3.543   1.987
 2525SOL    HW117679   3.939   3.451   2.018
 2525SOL    HW217680   3.998   3.591   1.960
 2526SOL     OW17681   1.517   0.640   0.774
 2526SOL    HW117682   1.420   0.629   0.751
 2526SOL    HW217683   1.527   0.712   0.843
 2527SOL     OW17684   1.850   2.138   0.622
 2527SOL    HW117685   1.939   2.173   0.651
 2527SOL    HW217686   1.778   2.195   0.661
 2528SOL     OW17687   8.926   4.261   2.329
 2528SOL    HW117688   8.935   4.217   2.418
 2528SOL    HW217689   8.859   4.335   2.334
 2529SOL     OW17690   1.183   8.655   1.849
 2529SOL    HW117691   1.150   8.572   1.802
 2529SOL    HW217692   1.266   8.688   1.803
 2530SOL     OW17693   0.215   9.636   1.904
 2530SOL    HW117694   0.248   9.542   1.900
 2530SOL    HW217695   0.292   9.699   1.914
 2531SOL     OW17696   9.199   4.329   0.657
 2531SOL    HW117697   9.253   4.255   0.696
 2531SOL    HW217698   9.162   4.301   0.568
 2532SOL     OW17699   9.545   2.085   0.147
 2532SOL    HW117700   9.509   2.040   0.064
 2532SOL    HW217701   9.500   2.173   0.158
 2533SOL     OW17702   8.597   7.438   0.044
 2533SOL    HW117703   8.513   7.387   0.065
 2533SOL    HW217704   8.586   7.486   2.899
 2534SOL     OW17705   0.447   9.264   0.947
 2534SOL    HW117706   0.372   9.248   0.883
 2534SOL    HW217707   0.521   9.199   0.930
 2535SOL     OW17708   1.405   9.305   0.966
 2535SOL    HW117709   1.420   9.210   0.937
 2535SOL    HW217710   1.320   9.311   1.018
 2536SOL     OW17711   2.849   2.489   1.740
 2536SOL    HW117712   2.898   2.524   1.660
 2536SOL    HW217713   2.893   2.406   1.773
 2537SOL     OW17714   3.860   0.611   1.819
 2537SOL    HW117715   3.934   0.594   1.884
 2537SOL    HW217716   3.856   0.536   1.753
 2538SOL     OW17717   3.883   4.838   1.118
 2538SOL    HW117718   3.969   4.786   1.114
 2538SOL    HW217719   3.886   4.901   1.196
 2539SOL     OW17720   2.147   6.395   0.523
 2539SOL    HW117721   2.191   6.391   0.613
 2539SOL    HW217722   2.106   6.485   0.509
 2540SOL     OW17723   0.482   7.454   2.126
 2540SOL    HW117724   0.577   7.473   2.100
 2540SOL    HW217725   0.433   7.540   2.140
 2541SOL     OW17726   4.837   9.150   0.357
 2541SOL    HW117727   4.858   9.081   0.427
 2541SOL    HW217728   4.738   9.156   0.344
 2542SOL     OW17729   2.740   0.349   0.723
 2542SOL    HW117730   2.779   0.268   0.766
 2542SOL    HW217731   2.774   0.431   0.769
 2543SOL     OW17732   0.365   1.265   0.236
 2543SOL    HW117733   0.367   1.258   0.136
 2543SOL    HW217734   0.282   1.313   0.264
 2544SOL     OW17735   3.593   1.751   1.120
 2544SOL    HW117736   3.537   1.827   1.152
 2544SOL    HW217737   3.686   1.761   1.155
 2545SOL     OW17738   4.536   8.937   0.537
 2545SOL    HW117739   4.445   8.977   0.532
 2545SOL    HW217740   4.548   8.889   0.624
 2546SOL     OW17741   1.867   2.856   0.839
 2546SOL    HW117742   1.960   2.822   0.853
 2546SOL    HW217743   1.801   2.789   0.875
 2547SOL     OW17744   0.840   6.717   1.326
 2547SOL    HW117745   0.827   6.628   1.370
 2547SOL    HW217746   0.856   6.786   1.396
 2548SOL     OW17747   2.336   3.366   1.838
 2548SOL    HW117748   2.410   3.430   1.819
 2548SOL    HW217749   2.313   3.370   1.935
 2549SOL     OW17750   8.148   9.769   0.839
 2549SOL    HW117751   8.124   9.722   0.754
 2549SOL    HW217752   8.246   9.759   0.856
 2550SOL     OW17753   2.617   6.472   1.199
 2550SOL    HW117754   2.607   6.537   1.274
 2550SOL    HW217755   2.527   6.439   1.171
 2551SOL     OW17756   8.803   6.257   0.258
 2551SOL    HW117757   8.741   6.279   0.334
 2551SOL    HW217758   8.837   6.341   0.217
 2552SOL     OW17759   2.893   3.174   1.551
 2552SOL    HW117760   2.959   3.120   1.499
 2552SOL    HW217761   2.800   3.146   1.527
 2553SOL     OW17762   4.321   0.127   2.075
 2553SOL    HW117763   4.349   0.032   2.065
 2553SOL    HW217764   4.379   0.173   2.142
 2554SOL     OW17765   3.885   3.055   1.167
 2554SOL    HW117766   3.867   2.975   1.110
 2554SOL    HW217767   3.807   3.118   1.161
 2555SOL     OW17768   4.613   2.852   1.541
 2555SOL    HW117769   4.622   2.753   1.536
 2555SOL    HW217770   4.657   2.893   1.461
 2556SOL     OW17771   9.727   2.207   1.208
 2556SOL    HW117772   9.742   2.216   1.110
 2556SOL    HW217773   9.783   2.132   1.244
 2557SOL     OW17774   7.853   2.661   1.957
 2557SOL    HW117775   7.778   2.723   1.982
 2557SOL    HW217776   7.938   2.692   1.999
 2558SOL     OW17777   2.813   4.441   1.995
 2558SOL    HW117778   2.793   4.363   1.935
 2558SOL    HW217779   2.779   4.421   2.087
 2559SOL     OW17780   4.228   1.243   0.021
 2559SOL    HW117781   4.316   1.255   2.915
 2559SOL    HW217782   4.196   1.332   0.054
 2560SOL     OW17783   9.573   4.796   1.120
 2560SOL    HW117784   9.630   4.872   1.092
 2560SOL    HW217785   9.569   4.792   1.220
 2561SOL     OW17786   9.847   5.107   1.509
 2561SOL    HW117787   9.872   5.167   1.433
 2561SOL    HW217788   9.791   5.157   1.575
 2562SOL     OW17789   8.527   8.361   0.141
 2562SOL    HW117790   8.435   8.370   0.104
 2562SOL    HW217791   8.560   8.267   0.127
 2563SOL     OW17792   8.189   0.821   0.630
 2563SOL    HW117793   8.180   0.921   0.636
 2563SOL    HW217794   8.112   0.785   0.577
 2564SOL     OW17795   0.237   0.311   2.092
 2564SOL    HW117796   0.292   0.257   2.155
 2564SOL    HW217797   0.143   0.277   2.092
 2565SOL     OW17798   9.580   1.332   2.012
 2565SOL    HW117799   9.634   1.283   1.943
 2565SOL    HW217800   9.497   1.279   2.032
 2566SOL     OW17801   1.350   2.645   0.080
 2566SOL    HW117802   1.264   2.602   0.108
 2566SOL    HW217803   1.354   2.738   0.116
 2567SOL     OW17804   2.396   0.119   1.796
 2567SOL    HW117805   2.417   0.120   1.698
 2567SOL    HW217806   2.317   0.060   1.813
 2568SOL     OW17807   1.916   8.059   0.316
 2568SOL    HW117808   1.867   8.093   0.236
 2568SOL    HW217809   1.857   7.995   0.366
 2569SOL     OW17810   0.212   0.101   1.842
 2569SOL    HW117811   0.306   0.069   1.837
 2569SOL    HW217812   0.194   0.140   1.932
 2570SOL     OW17813   3.005   6.494   0.781
 2570SOL    HW117814   2.986   6.553   0.703
 2570SOL    HW217815   2.931   6.504   0.848
 2571SOL     OW17816   9.233   5.928   1.767
 2571SOL    HW117817   9.323   5.946   1.808
 2571SOL    HW217818   9.241   5.852   1.702
 2572SOL     OW17819   4.508   4.231   2.057
 2572SOL    HW117820   4.524   4.133   2.050
 2572SOL    HW217821   4.420   4.254   2.016
 2573SOL     OW17822   1.596   2.624   2.195
 2573SOL    HW117823   1.548   2.577   2.121
 2573SOL    HW217824   1.553   2.601   2.282
 2574SOL     OW17825   9.587   0.772   1.492
 2574SOL    HW117826   9.651   0.712   1.540
 2574SOL    HW217827   9.498   0.727   1.484
 2575SOL     OW17828   0.595   2.881   1.100
 2575SOL    HW117829   0.687   2.857   1.069
 2575SOL    HW217830   0.571   2.824   1.179
 2576SOL     OW17831   3.680   4.652   0.477
 2576SOL    HW117832   3.747   4.588   0.513
 2576SOL    HW217833   3.654   4.717   0.548
 2577SOL     OW17834   2.648   3.279   1.755
 2577SOL    HW117835   2.611   3.372   1.746
 2577SOL    HW217836   2.645   3.234   1.666
 2578SOL     OW17837   2.145   8.977   0.529
 2578SOL    HW117838   2.071   9.010   0.470
 2578SOL    HW217839   2.108   8.912   0.595
 2579SOL     OW17840   1.136   5.443   0.227
 2579SOL    HW117841   1.054   5.501   0.223
 2579SOL    HW217842   1.209   5.484   0.174
 2580SOL     OW17843   1.332   6.411   1.341
 2580SOL    HW117844   1.381   6.477   1.284
 2580SOL    HW217845   1.248   6.452   1.377
 2581SOL     OW17846   0.002   2.012   0.453
 2581SOL    HW117847   0.069   2.019   0.378
 2581SOL    HW217848   9.911   2.031   0.417
 2582SOL     OW17849   9.912   6.264   2.013
 2582SOL    HW117850   9.851   6.337   1.983
 2582SOL    HW217851   9.986   6.254   1.946
 2583SOL     OW17852   0.218   8.079   1.483
 2583SOL    HW117853   0.283   8.006   1.461
 2583SOL    HW217854   0.260   8.142   1.548
 2584SOL     OW17855   1.485   0.396   1.120
 2584SOL    HW117856   1.513   0.315   1.172
 2584SOL    HW217857   1.403   0.435   1.161
 2585SOL     OW17858   4.564   3.853   0.574
 2585SOL    HW117859   4.623   3.927   0.605
 2585SOL    HW217860   4.471   3.886   0.561
 2586SOL     OW17861   2.230   2.028   0.450
 2586SOL    HW117862   2.278   2.090   0.512
 2586SOL    HW217863   2.231   2.066   0.357
 2587SOL     OW17864   0.591   0.486   0.410
 2587SOL    HW117865   0.568   0.544   0.488
 2587SOL    HW217866   0.547   0.520   0.327
 2588SOL     OW17867   0.333   4.915   1.624
 2588SOL    HW117868   0.320   4.816   1.623
 2588SOL    HW217869   0.244   4.960   1.615
 2589SOL     OW17870   2.936   9.719   1.192
 2589SOL    HW117871   2.980   9.808   1.184
 2589SOL    HW217872   2.857   9.714   1.129
 2590SOL     OW17873   2.520   6.143   1.273
 2590SOL    HW117874   2.615   6.114   1.283
 2590SOL    HW217875   2.459   6.065   1.289
 2591SOL     OW17876   0.335   4.084   1.459
 2591SOL    HW117877   0.376   4.157   1.513
 2591SOL    HW217878   0.255   4.047   1.507
 2592SOL     OW17879   7.968   1.506   0.699
 2592SOL    HW117880   8.026   1.587   0.704
 2592SOL    HW217881   7.976   1.464   0.609
 2593SOL     OW17882   3.462   0.950   0.271
 2593SOL    HW117883   3.425   1.034   0.230
 2593SOL    HW217884   3.413   0.871   0.235
 2594SOL     OW17885   4.478   8.730   1.805
 2594SOL    HW117886   4.515   8.690   1.721
 2594SOL    HW217887   4.544   8.796   1.841
 2595SOL     OW17888   0.951   8.135   0.164
 2595SOL    HW117889   0.869   8.180   0.128
 2595SOL    HW217890   1.020   8.128   0.092
 2596SOL     OW17891   0.027   7.984   0.245
 2596SOL    HW117892   0.001   8.034   0.327
 2596SOL    HW217893   9.945   7.951   0.198
 2597SOL     OW17894   3.807   0.315   1.386
 2597SOL    HW117895   3.722   0.267   1.363
 2597SOL    HW217896   3.884   0.264   1.349
 2598SOL     OW17897   8.650   9.845   1.423
 2598SOL    HW117898   8.699   9.870   1.506
 2598SOL    HW217899   8.711   9.793   1.363
 2599SOL     OW17900   9.079   5.558   2.299
 2599SOL    HW117901   9.163   5.528   2.254
 2599SOL    HW217902   9.088   5.653   2.329
 2600SOL     OW17903   3.628   4.827   0.676
 2600SOL    HW117904   3.558   4.802   0.743
 2600SOL    HW217905   3.714   4.846   0.724
 2601SOL     OW17906   1.424   7.207   1.648
 2601SOL    HW117907   1.468   7.240   1.731
 2601SOL    HW217908   1.354   7.272   1.619
 2602SOL     OW17909   3.069   0.093   1.726
 2602SOL    HW117910   2.993   0.093   1.661
 2602SOL    HW217911   3.042   0.147   1.807
 2603SOL     OW17912   2.073   9.403   1.125
 2603SOL    HW117913   2.150   9.445   1.078
 2603SOL    HW217914   2.042   9.463   1.199
 2604SOL     OW17915   1.268   7.524   2.186
 2604SOL    HW117916   1.174   7.527   2.221
 2604SOL    HW217917   1.275   7.455   2.114
 2605SOL     OW17918   7.595   9.341   1.292
 2605SOL    HW117919   7.587   9.426   1.239
 2605SOL    HW217920   7.517   9.334   1.354
 2606SOL     OW17921   9.949   5.427   0.083
 2606SOL    HW117922   9.855   5.393   0.079
 2606SOL    HW217923   9.985   5.416   0.176
 2607SOL     OW17924   9.587   6.153   0.749
 2607SOL    HW117925   9.503   6.133   0.698
 2607SOL    HW217926   9.609   6.075   0.808
 2608SOL     OW17927   9.360   1.897   0.474
 2608SOL    HW117928   9.358   1.819   0.411
 2608SOL    HW217929   9.449   1.943   0.467
 2609SOL     OW17930   7.747   9.918   2.020
 2609SOL    HW117931   7.753   9.819   2.006
 2609SOL    HW217932   7.726   9.938   2.115
 2610SOL     OW17933   9.406   2.708   0.760
 2610SOL    HW117934   9.396   2.669   0.852
 2610SOL    HW217935   9.373   2.802   0.759
 2611SOL     OW17936   0.584   4.403   0.889
 2611SOL    HW117937   0.541   4.448   0.811
 2611SOL    HW217938   0.523   4.408   0.968
 2612SOL     OW17939   4.604   1.606   1.452
 2612SOL    HW117940   4.635   1.561   1.369
 2612SOL    HW217941   4.640   1.558   1.532
 2613SOL     OW17942   0.417   6.229   2.080
 2613SOL    HW117943   0.372   6.156   2.131
 2613SOL    HW217944   0.495   6.191   2.030
 2614SOL     OW17945   3.928   9.937   1.340
 2614SOL    HW117946   3.960   0.030   1.320
 2614SOL    HW217947   3.877   9.938   1.426
 2615SOL     OW17948   1.148   2.240   0.789
 2615SOL    HW117949   1.138   2.252   0.888
 2615SOL    HW217950   1.241   2.208   0.769
 2616SOL     OW17951   1.185   3.171   1.646
 2616SOL    HW117952   1.197   3.269   1.630
 2616SOL    HW217953   1.094   3.143   1.615
 2617SOL     OW17954   1.868   0.861   1.988
 2617SOL    HW117955   1.822   0.937   1.942
 2617SOL    HW217956   1.908   0.800   1.920
 2618SOL     OW17957   0.667   2.871   0.571
 2618SOL    HW117958   0.652   2.944   0.637
 2618SOL    HW217959   0.617   2.891   0.487
 2619SOL     OW17960   3.685   2.026   1.951
 2619SOL    HW117961   3.593   2.061   1.935
 2619SOL    HW217962   3.694   1.936   1.909
 2620SOL     OW17963   0.401   5.970   1.009
 2620SOL    HW117964   0.468   5.899   1.035
 2620SOL    HW217965   0.448   6.058   0.999
 2621SOL     OW17966   9.741   4.357   0.965
 2621SOL    HW117967   9.762   4.322   0.874
 2621SOL    HW217968   9.670   4.427   0.958
 2622SOL     OW17969   1.077   4.978   0.733
 2622SOL    HW117970   1.122   5.063   0.705
 2622SOL    HW217971   0.983   4.977   0.699
 2623SOL     OW17972   0.125   3.768   0.319
 2623SOL    HW117973   0.184   3.779   0.239
 2623SOL    HW217974   0.113   3.856   0.365
 2624SOL     OW17975   2.672   1.200   0.719
 2624SOL    HW117976   2.662   1.110   0.676
 2624SOL    HW217977   2.647   1.271   0.653
 2625SOL     OW17978   0.591   5.412   0.324
 2625SOL    HW117979   0.550   5.407   0.416
 2625SOL    HW217980   0.564   5.332   0.271
 2626SOL     OW17981   8.442   1.156   1.177
 2626SOL    HW117982   8.502   1.094   1.227
 2626SOL    HW217983   8.491   1.240   1.154
 2627SOL     OW17984   2.111   2.213   0.699
 2627SOL    HW117985   2.097   2.134   0.758
 2627SOL    HW217986   2.206   2.215   0.668
 2628SOL     OW17987   0.816   4.990   0.653
 2628SOL    HW117988   0.761   4.968   0.734
 2628SOL    HW217989   0.789   5.079   0.617
 2629SOL     OW17990   1.010   4.885   1.810
 2629SOL    HW117991   1.029   4.902   1.907
 2629SOL    HW217992   0.950   4.806   1.801
 2630SOL     OW17993   0.410   2.455   0.893
 2630SOL    HW117994   0.463   2.515   0.832
 2630SOL    HW217995   0.421   2.360   0.864
 2631SOL     OW17996   2.465   4.968   1.740
 2631SOL    HW117997   2.395   4.912   1.785
 2631SOL    HW217998   2.551   4.918   1.739
 2632SOL     OW17999   0.825   5.468   1.935
 2632SOL    HW118000   0.881   5.549   1.952
 2632SOL    HW218001   0.742   5.473   1.991
 2633SOL     OW18002   3.424   2.307   0.429
 2633SOL    HW118003   3.520   2.336   0.428
 2633SOL    HW218004   3.384   2.323   0.339
 2634SOL     OW18005   4.787   2.412   0.460
 2634SOL    HW118006   4.876   2.368   0.464
 2634SOL    HW218007   4.799   2.511   0.466
 2635SOL     OW18008   8.418   0.414   1.545
 2635SOL    HW118009   8.501   0.361   1.525
 2635SOL    HW218010   8.371   0.373   1.624
 2636SOL     OW18011   1.865   5.019   0.287
 2636SOL    HW118012   1.952   4.982   0.319
 2636SOL    HW218013   1.839   5.097   0.344
 2637SOL     OW18014   9.823   4.031   1.684
 2637SOL    HW118015   9.883   4.031   1.764
 2637SOL    HW218016   9.836   4.116   1.633
 2638SOL     OW18017   8.724   5.997   0.712
 2638SOL    HW118018   8.646   6.041   0.668
 2638SOL    HW218019   8.780   5.951   0.644
 2639SOL     OW18020   3.197   1.330   0.811
 2639SOL    HW118021   3.145   1.411   0.782
 2639SOL    HW218022   3.149   1.284   0.885
 2640SOL     OW18023   0.839   5.419   1.170
 2640SOL    HW118024   0.768   5.350   1.185
 2640SOL    HW218025   0.884   5.440   1.257
 2641SOL     OW18026   9.336   7.143   0.597
 2641SOL    HW118027   9.293   7.203   0.529
 2641SOL    HW218028   9.433   7.131   0.573
 2642SOL     OW18029   9.408   2.383   1.539
 2642SOL    HW118030   9.432   2.387   1.636
 2642SOL    HW218031   9.482   2.340   1.488
 2643SOL     OW18032   3.015   4.701   0.326
 2643SOL    HW118033   2.917   4.681   0.329
 2643SOL    HW218034   3.044   4.742   0.412
 2644SOL     OW18035   1.300   0.680   0.401
 2644SOL    HW118036   1.298   0.582   0.420
 2644SOL    HW218037   1.387   0.718   0.431
 2645SOL     OW18038   4.513   4.241   0.598
 2645SOL    HW118039   4.481   4.220   0.506
 2645SOL    HW218040   4.458   4.190   0.665
 2646SOL     OW18041   1.838   2.156   2.078
 2646SOL    HW118042   1.879   2.116   1.996
 2646SOL    HW218043   1.744   2.122   2.088
 2647SOL     OW18044   8.318   2.840   2.004
 2647SOL    HW118045   8.356   2.869   1.916
 2647SOL    HW218046   8.392   2.814   2.066
 2648SOL     OW18047   9.614   8.116   0.295
 2648SOL    HW118048   9.667   8.046   0.247
 2648SOL    HW218049   9.517   8.103   0.275
 2649SOL     OW18050   1.589   3.459   1.381
 2649SOL    HW118051   1.561   3.417   1.467
 2649SOL    HW218052   1.556   3.404   1.305
 2650SOL     OW18053   4.413   9.056   2.184
 2650SOL    HW118054   4.511   9.058   2.164
 2650SOL    HW218055   4.387   8.963   2.210
 2651SOL     OW18056   1.206   9.385   2.189
 2651SOL    HW118057   1.291   9.347   2.225
 2651SOL    HW218058   1.218   9.409   2.092
 2652SOL     OW18059   3.118   3.725   1.078
 2652SOL    HW118060   3.121   3.680   1.167
 2652SOL    HW218061   3.112   3.655   1.006
 2653SOL     OW18062   2.371   7.076   2.081
 2653SOL    HW118063   2.439   7.003   2.083
 2653SOL    HW218064   2.409   7.157   2.036
 2654SOL     OW18065   9.558   1.897   0.860
 2654SOL    HW118066   9.553   1.876   0.957
 2654SOL    HW218067   9.649   1.873   0.825
 2655SOL     OW18068   2.806   4.175   0.831
 2655SOL    HW118069   2.791   4.255   0.889
 2655SOL    HW218070   2.743   4.102   0.859
 2656SOL     OW18071   2.119   5.452   1.157
 2656SOL    HW118072   2.144   5.531   1.213
 2656SOL    HW218073   2.196   5.388   1.153
 2657SOL     OW18074   8.598   1.099   0.293
 2657SOL    HW118075   8.531   1.110   0.220
 2657SOL    HW218076   8.649   1.014   0.279
 2658SOL     OW18077   2.065   1.030   2.081
 2658SOL    HW118078   1.995   0.961   2.063
 2658SOL    HW218079   2.140   0.988   2.131
 2659SOL     OW18080   3.429   1.322   2.117
 2659SOL    HW118081   3.423   1.327   2.216
 2659SOL    HW218082   3.524   1.337   2.089
 2660SOL     OW18083   3.410   4.762   0.840
 2660SOL    HW118084   3.347   4.715   0.902
 2660SOL    HW218085   3.390   4.860   0.840
 2661SOL     OW18086   1.036   4.165   1.800
 2661SOL    HW118087   1.090   4.205   1.725
 2661SOL    HW218088   1.095   4.107   1.856
 2662SOL     OW18089   9.097   9.115   1.897
 2662SOL    HW118090   9.062   9.053   1.967
 2662SOL    HW218091   9.059   9.207   1.911
 2663SOL     OW18092   3.819   8.519   0.940
 2663SOL    HW118093   3.727   8.508   0.902
 2663SOL    HW218094   3.885   8.529   0.866
 2664SOL     OW18095   9.993   6.065   0.762
 2664SOL    HW118096   0.040   6.042   0.848
 2664SOL    HW218097   0.001   6.163   0.746
 2665SOL     OW18098   2.424   3.523   1.470
 2665SOL    HW118099   2.344   3.463   1.464
 2665SOL    HW218100   2.471   3.524   1.382
 2666SOL     OW18101   3.379   3.671   0.301
 2666SOL    HW118102   3.399   3.596   0.363
 2666SOL    HW218103   3.346   3.750   0.353
 2667SOL     OW18104   2.579   1.921   1.325
 2667SOL    HW118105   2.678   1.936   1.319
 2667SOL    HW218106   2.531   2.008   1.316
 2668SOL     OW18107   9.200   4.153   1.981
 2668SOL    HW118108   9.215   4.219   1.907
 2668SOL    HW218109   9.193   4.202   2.068
 2669SOL     OW18110   2.639   9.302   0.059
 2669SOL    HW118111   2.576   9.287   2.924
 2669SOL    HW218112   2.591   9.289   0.146
 2670SOL     OW18113   4.282   1.209   2.109
 2670SOL    HW118114   4.234   1.182   2.192
 2670SOL    HW218115   4.272   1.138   2.039
 2671SOL     OW18116   0.592   9.330   1.799
 2671SOL    HW118117   0.622   9.334   1.704
 2671SOL    HW218118   0.645   9.260   1.848
 2672SOL     OW18119   2.293   7.208   0.408
 2672SOL    HW118120   2.295   7.140   0.335
 2672SOL    HW218121   2.213   7.193   0.466
 2673SOL     OW18122   1.473   2.507   1.972
 2673SOL    HW118123   1.426   2.586   1.931
 2673SOL    HW218124   1.565   2.500   1.934
 2674SOL     OW18125   2.257   7.403   0.221
 2674SOL    HW118126   2.247   7.345   0.140
 2674SOL    HW218127   2.271   7.344   0.302
 2675SOL     OW18128   2.282   4.796   1.853
 2675SOL    HW118129   2.254   4.721   1.914
 2675SOL    HW218130   2.202   4.829   1.802
 2676SOL     OW18131   1.242   3.855   0.532
 2676SOL    HW118132   1.245   3.955   0.536
 2676SOL    HW218133   1.260   3.818   0.623
 2677SOL     OW18134   2.414   0.601   0.150
 2677SOL    HW118135   2.337   0.604   0.086
 2677SOL    HW218136   2.477   0.676   0.130
 2678SOL     OW18137   2.100   4.903   0.375
 2678SOL    HW118138   2.191   4.938   0.353
 2678SOL    HW218139   2.095   4.883   0.473
 2679SOL     OW18140   9.394   0.398   2.032
 2679SOL    HW118141   9.479   0.347   2.047
 2679SOL    HW218142   9.322   0.334   2.006
 2680SOL     OW18143   0.483   7.543   0.904
 2680SOL    HW118144   0.446   7.530   0.812
 2680SOL    HW218145   0.417   7.595   0.958
 2681SOL     OW18146   3.754   2.307   1.126
 2681SOL    HW118147   3.813   2.381   1.093
 2681SOL    HW218148   3.713   2.260   1.049
 2682SOL     OW18149   0.534   6.496   0.390
 2682SOL    HW118150   0.615   6.549   0.367
 2682SOL    HW218151   0.452   6.549   0.371
 2683SOL     OW18152   0.508   6.958   0.407
 2683SOL    HW118153   0.408   6.955   0.412
 2683SOL    HW218154   0.537   7.054   0.400
 2684SOL     OW18155   8.850   8.107   1.110
 2684SOL    HW118156   8.795   8.183   1.075
 2684SOL    HW218157   8.834   8.026   1.054
 2685SOL     OW18158   1.697   2.727   1.469
 2685SOL    HW118159   1.706   2.797   1.398
 2685SOL    HW218160   1.716   2.637   1.430
 2686SOL     OW18161   1.617   6.345   1.739
 2686SOL    HW118162   1.593   6.326   1.834
 2686SOL    HW218163   1.540   6.322   1.679
 2687SOL     OW18164   1.319   6.050   0.395
 2687SOL    HW118165   1.328   6.062   0.296
 2687SOL    HW218166   1.287   5.957   0.414
 2688SOL     OW18167   1.138   3.063   1.316
 2688SOL    HW118168   1.163   3.160   1.325
 2688SOL    HW218169   1.170   3.028   1.229
 2689SOL     OW18170   1.219   5.449   1.509
 2689SOL    HW118171   1.261   5.473   1.422
 2689SOL    HW218172   1.234   5.524   1.574
 2690SOL     OW18173   9.860   5.155   2.285
 2690SOL    HW118174   9.893   5.240   2.244
 2690SOL    HW218175   9.907   5.077   2.244
 2691SOL     OW18176   4.793   3.995   1.515
 2691SOL    HW118177   4.730   3.944   1.457
 2691SOL    HW218178   4.878   3.944   1.526
 2692SOL     OW18179   1.414   8.938   2.027
 2692SOL    HW118180   1.492   8.975   2.077
 2692SOL    HW218181   1.354   9.012   1.997
 2693SOL     OW18182   0.635   7.962   0.418
 2693SOL    HW118183   0.585   7.987   0.336
 2693SOL    HW218184   0.588   7.887   0.465
 2694SOL     OW18185   2.345   9.238   0.909
 2694SOL    HW118186   2.401   9.157   0.920
 2694SOL    HW218187   2.283   9.226   0.832
 2695SOL     OW18188   9.861   5.674   1.833
 2695SOL    HW118189   9.893   5.648   1.742
 2695SOL    HW218190   9.921   5.632   1.902
 2696SOL     OW18191   9.627   4.546   1.479
 2696SOL    HW118192   9.620   4.482   1.554
 2696SOL    HW218193   9.713   4.530   1.429
 2697SOL     OW18194   9.112   8.541   2.267
 2697SOL    HW118195   9.101   8.443   2.250
 2697SOL    HW218196   9.209   8.564   2.268
 2698SOL     OW18197   9.839   1.825   2.033
 2698SOL    HW118198   9.851   1.730   2.006
 2698SOL    HW218199   9.755   1.861   1.994
 2699SOL     OW18200   8.080   8.729   2.189
 2699SOL    HW118201   8.041   8.663   2.125
 2699SOL    HW218202   8.089   8.687   2.280
 2700SOL     OW18203   1.997   5.362   1.527
 2700SOL    HW118204   2.084   5.409   1.517
 2700SOL    HW218205   1.954   5.389   1.613
 2701SOL     OW18206   0.522   0.631   0.632
 2701SOL    HW118207   0.498   0.578   0.714
 2701SOL    HW218208   0.528   0.728   0.656
 2702SOL     OW18209   6.964   9.540   1.502
 2702SOL    HW118210   7.004   9.539   1.411
 2702SOL    HW218211   6.866   9.517   1.496
 2703SOL     OW18212   8.798   3.789   1.178
 2703SOL    HW118213   8.799   3.869   1.119
 2703SOL    HW218214   8.763   3.813   1.268
 2704SOL     OW18215   9.176   2.684   1.187
 2704SOL    HW118216   9.209   2.607   1.241
 2704SOL    HW218217   9.234   2.697   1.107
 2705SOL     OW18218   9.338   7.912   1.969
 2705SOL    HW118219   9.341   8.011   1.984
 2705SOL    HW218220   9.393   7.889   1.890
 2706SOL     OW18221   9.863   0.018   0.857
 2706SOL    HW118222   9.935   0.067   0.906
 2706SOL    HW218223   9.791   9.991   0.921
 2707SOL     OW18224   2.189   5.606   0.524
 2707SOL    HW118225   2.281   5.618   0.562
 2707SOL    HW218226   2.196   5.558   0.436
 2708SOL     OW18227   9.630   4.631   0.201
 2708SOL    HW118228   9.628   4.718   0.153
 2708SOL    HW218229   9.539   4.609   0.234
 2709SOL     OW18230   9.196   9.956   2.054
 2709SOL    HW118231   9.206   9.894   2.131
 2709SOL    HW218232   9.258   9.928   1.980
 2710SOL     OW18233   9.531   9.293   0.225
 2710SOL    HW118234   9.600   9.233   0.264
 2710SOL    HW218235   9.574   9.353   0.157
 2711SOL     OW18236   8.119   1.727   0.693
 2711SOL    HW118237   8.138   1.802   0.756
 2711SOL    HW218238   8.176   1.736   0.612
 2712SOL     OW18239   1.541   6.833   1.293
 2712SOL    HW118240   1.625   6.808   1.341
 2712SOL    HW218241   1.502   6.914   1.335
 2713SOL     OW18242   2.429   0.071   0.554
 2713SOL    HW118243   2.339   0.029   0.553
 2713SOL    HW218244   2.454   0.099   0.462
 2714SOL     OW18245   9.493   8.592   1.634
 2714SOL    HW118246   9.401   8.558   1.653
 2714SOL    HW218247   9.492   8.692   1.635
 2715SOL     OW18248   3.343   7.802   0.259
 2715SOL    HW118249   3.245   7.807   0.281
 2715SOL    HW218250   3.385   7.891   0.276
 2716SOL     OW18251   9.232   0.713   0.749
 2716SOL    HW118252   9.285   0.663   0.681
 2716SOL    HW218253   9.282   0.795   0.777
 2717SOL     OW18254   3.230   7.817   2.181
 2717SOL    HW118255   3.156   7.876   2.149
 2717SOL    HW218256   3.306   7.872   2.213
 2718SOL     OW18257   0.070   5.588   2.005
 2718SOL    HW118258   0.124   5.669   2.029
 2718SOL    HW218259   0.103   5.551   1.918
 2719SOL     OW18260   9.021   5.981   1.131
 2719SOL    HW118261   8.985   5.999   1.039
 2719SOL    HW218262   9.072   6.061   1.163
 2720SOL     OW18263   8.949   7.183   0.339
 2720SOL    HW118264   8.902   7.221   0.260
 2720SOL    HW218265   8.882   7.162   0.411
 2721SOL     OW18266   3.308   1.478   1.926
 2721SOL    HW118267   3.338   1.407   1.990
 2721SOL    HW218268   3.221   1.516   1.958
 2722SOL     OW18269   2.957   1.733   1.389
 2722SOL    HW118270   2.919   1.826   1.387
 2722SOL    HW218271   2.882   1.667   1.390
 2723SOL     OW18272   0.963   5.388   1.422
 2723SOL    HW118273   0.909   5.389   1.506
 2723SOL    HW218274   1.056   5.419   1.443
 2724SOL     OW18275   4.491   9.108   0.064
 2724SOL    HW118276   4.397   9.082   0.043
 2724SOL    HW218277   4.503   9.206   0.049
 2725SOL     OW18278   0.824   6.048   1.770
 2725SOL    HW118279   0.896   6.115   1.788
 2725SOL    HW218280   0.863   5.956   1.774
 2726SOL     OW18281   9.991   5.912   1.886
 2726SOL    HW118282   9.971   5.987   1.823
 2726SOL    HW218283   9.937   5.832   1.860
 2727SOL     OW18284   0.836   3.894   1.140
 2727SOL    HW118285   0.872   3.977   1.097
 2727SOL    HW218286   0.833   3.907   1.239
 2728SOL     OW18287   9.970   5.914   1.535
 2728SOL    HW118288   9.955   5.988   1.601
 2728SOL    HW218289   9.904   5.922   1.460
 2729SOL     OW18290   2.680   5.452   0.579
 2729SOL    HW118291   2.733   5.535   0.596
 2729SOL    HW218292   2.719   5.404   0.500
 2730SOL     OW18293   0.288   4.674   0.963
 2730SOL    HW118294   0.335   4.620   1.033
 2730SOL    HW218295   0.299   4.771   0.982
 2731SOL     OW18296   7.961   0.890   1.594
 2731SOL    HW118297   8.001   0.977   1.621
 2731SOL    HW218298   7.983   0.820   1.662
 2732SOL     OW18299   0.285   4.827   0.590
 2732SOL    HW118300   0.284   4.747   0.531
 2732SOL    HW218301   0.215   4.818   0.661
 2733SOL     OW18302   9.446   6.275   2.163
 2733SOL    HW118303   9.451   6.175   2.169
 2733SOL    HW218304   9.476   6.304   2.072
 2734SOL     OW18305   9.413   1.192   1.522
 2734SOL    HW118306   9.391   1.244   1.604
 2734SOL    HW218307   9.493   1.135   1.539
 2735SOL     OW18308   8.747   0.637   0.928
 2735SOL    HW118309   8.666   0.696   0.929
 2735SOL    HW218310   8.817   0.677   0.868
 2736SOL     OW18311   2.903   9.940   0.572
 2736SOL    HW118312   2.854   9.886   0.503
 2736SOL    HW218313   2.852   9.936   0.658
 2737SOL     OW18314   0.123   5.500   1.755
 2737SOL    HW118315   0.141   5.406   1.724
 2737SOL    HW218316   0.072   5.549   1.684
 2738SOL     OW18317   1.358   1.924   0.552
 2738SOL    HW118318   1.457   1.922   0.540
 2738SOL    HW218319   1.315   1.958   0.468
 2739SOL     OW18320   1.917   7.706   0.109
 2739SOL    HW118321   1.970   7.755   0.040
 2739SOL    HW218322   1.834   7.757   0.130
 2740SOL     OW18323   3.795   9.175   1.554
 2740SOL    HW118324   3.782   9.114   1.633
 2740SOL    HW218325   3.866   9.136   1.495
 2741SOL     OW18326   8.046   0.377   1.232
 2741SOL    HW118327   8.124   0.326   1.196
 2741SOL    HW218328   7.965   0.318   1.230
 2742SOL     OW18329   1.590   3.854   0.494
 2742SOL    HW118330   1.541   3.938   0.517
 2742SOL    HW218331   1.546   3.809   0.417
 2743SOL     OW18332   0.986   9.879   2.241
 2743SOL    HW118333   0.893   9.903   2.213
 2743SOL    HW218334   0.993   9.780   2.253
 2744SOL     OW18335   1.971   2.496   2.019
 2744SOL    HW118336   1.997   2.439   2.097
 2744SOL    HW218337   2.027   2.473   1.940
 2745SOL     OW18338   1.720   5.038   2.075
 2745SOL    HW118339   1.803   4.984   2.067
 2745SOL    HW218340   1.640   4.981   2.056
 2746SOL     OW18341   9.013   3.939   1.706
 2746SOL    HW118342   9.095   3.972   1.659
 2746SOL    HW218343   9.028   3.938   1.805
 2747SOL     OW18344   0.699   9.339   1.541
 2747SOL    HW118345   0.759   9.263   1.517
 2747SOL    HW218346   0.628   9.348   1.471
 2748SOL     OW18347   8.804   2.341   1.699
 2748SOL    HW118348   8.900   2.359   1.722
 2748SOL    HW218349   8.795   2.247   1.666
 2749SOL     OW18350   9.372   8.627   2.225
 2749SOL    HW118351   9.414   8.717   2.237
 2749SOL    HW218352   9.411   8.582   2.145
 2750SOL     OW18353   2.721   2.616   1.943
 2750SOL    HW118354   2.726   2.549   2.017
 2750SOL    HW218355   2.771   2.581   1.864
 2751SOL     OW18356   9.817   2.504   0.836
 2751SOL    HW118357   9.751   2.558   0.784
 2751SOL    HW218358   9.851   2.558   0.913
 2752SOL     OW18359   3.929   9.024   1.184
 2752SOL    HW118360   3.878   9.109   1.171
 2752SOL    HW218361   3.983   9.030   1.268
 2753SOL     OW18362   3.021   4.789   0.073
 2753SOL    HW118363   3.021   4.754   0.166
 2753SOL    HW218364   3.115   4.791   0.038
 2754SOL     OW18365   3.107   2.967   0.932
 2754SOL    HW118366   3.096   3.064   0.908
 2754SOL    HW218367   3.095   2.956   1.030
 2755SOL     OW18368   9.363   6.065   1.012
 2755SOL    HW118369   9.350   6.146   0.955
 2755SOL    HW218370   9.448   6.019   0.986
 2756SOL     OW18371   4.619   3.867   1.343
 2756SOL    HW118372   4.637   3.772   1.317
 2756SOL    HW218373   4.522   3.878   1.363
 2757SOL     OW18374   2.045   8.408   0.341
 2757SOL    HW118375   2.129   8.459   0.357
 2757SOL    HW218376   2.053   8.356   0.256
 2758SOL     OW18377   3.362   9.757   1.641
 2758SOL    HW118378   3.392   9.726   1.551
 2758SOL    HW218379   3.442   9.778   1.697
 2759SOL     OW18380   0.528   1.380   1.651
 2759SOL    HW118381   0.542   1.301   1.592
 2759SOL    HW218382   0.513   1.462   1.595
 2760SOL     OW18383   0.169   0.863   1.509
 2760SOL    HW118384   0.151   0.920   1.589
 2760SOL    HW218385   0.119   0.777   1.517
 2761SOL     OW18386   2.099   1.632   1.672
 2761SOL    HW118387   2.157   1.554   1.696
 2761SOL    HW218388   2.154   1.701   1.624
 2762SOL     OW18389   4.105   1.978   0.781
 2762SOL    HW118390   4.111   1.971   0.881
 2762SOL    HW218391   4.102   1.887   0.741
 2763SOL     OW18392   3.437   5.837   0.106
 2763SOL    HW118393   3.527   5.829   0.149
 2763SOL    HW218394   3.375   5.769   0.146
 2764SOL     OW18395   9.227   3.311   1.490
 2764SOL    HW118396   9.217   3.410   1.480
 2764SOL    HW218397   9.323   3.288   1.500
 2765SOL     OW18398   3.969   9.798   1.940
 2765SOL    HW118399   3.895   9.831   1.999
 2765SOL    HW218400   3.988   9.865   1.869
 2766SOL     OW18401   1.273   1.055   2.220
 2766SOL    HW118402   1.176   1.066   2.243
 2766SOL    HW218403   1.296   0.958   2.223
 2767SOL     OW18404   3.283   8.903   1.277
 2767SOL    HW118405   3.346   8.935   1.206
 2767SOL    HW218406   3.257   8.979   1.336
 2768SOL     OW18407   2.920   3.744   2.138
 2768SOL    HW118408   2.974   3.806   2.195
 2768SOL    HW218409   2.981   3.677   2.096
 2769SOL     OW18410   3.728   4.604   1.077
 2769SOL    HW118411   3.786   4.536   1.123
 2769SOL    HW218412   3.770   4.695   1.086
 2770SOL     OW18413   0.946   3.138   1.503
 2770SOL    HW118414   1.004   3.117   1.425
 2770SOL    HW218415   0.924   3.236   1.504
 2771SOL     OW18416   9.622   5.712   0.759
 2771SOL    HW118417   9.649   5.758   0.675
 2771SOL    HW218418   9.680   5.631   0.772
 2772SOL     OW18419   1.752   4.285   0.395
 2772SOL    HW118420   1.826   4.232   0.436
 2772SOL    HW218421   1.706   4.230   0.326
 2773SOL     OW18422   0.891   6.838   2.096
 2773SOL    HW118423   0.990   6.835   2.106
 2773SOL    HW218424   0.861   6.934   2.091
 2774SOL     OW18425   9.448   8.876   0.340
 2774SOL    HW118426   9.527   8.881   0.280
 2774SOL    HW218427   9.420   8.780   0.350
 2775SOL     OW18428   1.613   8.418   2.938
 2775SOL    HW118429   1.677   8.414   0.073
 2775SOL    HW218430   1.544   8.346   0.007
 2776SOL     OW18431   1.171   4.303   1.592
 2776SOL    HW118432   1.156   4.384   1.536
 2776SOL    HW218433   1.131   4.223   1.547
 2777SOL     OW18434   4.686   3.380   1.418
 2777SOL    HW118435   4.704   3.398   1.515
 2777SOL    HW218436   4.713   3.286   1.396
 2778SOL     OW18437   1.455   0.697   1.506
 2778SOL    HW118438   1.498   0.653   1.428
 2778SOL    HW218439   1.494   0.662   1.591
 2779SOL     OW18440   8.732   9.132   1.525
 2779SOL    HW118441   8.772   9.045   1.556
 2779SOL    HW218442   8.632   9.125   1.527
 2780SOL     OW18443   3.276   5.640   0.235
 2780SOL    HW118444   3.279   5.562   0.172
 2780SOL    HW218445   3.308   5.612   0.325
 2781SOL     OW18446   2.595   6.574   1.837
 2781SOL    HW118447   2.669   6.551   1.900
 2781SOL    HW218448   2.586   6.674   1.831
 2782SOL     OW18449   9.721   5.574   0.270
 2782SOL    HW118450   9.640   5.577   0.328
 2782SOL    HW218451   9.720   5.491   0.215
 2783SOL     OW18452   1.942   1.481   0.511
 2783SOL    HW118453   2.016   1.416   0.491
 2783SOL    HW218454   1.952   1.513   0.606
 2784SOL     OW18455   1.928   8.334   2.035
 2784SOL    HW118456   1.956   8.288   1.951
 2784SOL    HW218457   1.918   8.432   2.018
 2785SOL     OW18458   1.554   0.135   0.265
 2785SOL    HW118459   1.629   0.170   0.321
 2785SOL    HW218460   1.549   0.036   0.275
 2786SOL     OW18461   9.852   6.009   2.105
 2786SOL    HW118462   9.864   6.108   2.090
 2786SOL    HW218463   9.907   5.959   2.039
 2787SOL     OW18464   3.951   2.673   2.192
 2787SOL    HW118465   3.918   2.721   2.274
 2787SOL    HW218466   3.978   2.740   2.123
 2788SOL     OW18467   3.735   9.602   0.754
 2788SOL    HW118468   3.786   9.674   0.801
 2788SOL    HW218469   3.706   9.636   0.664
 2789SOL     OW18470   2.042   2.474   0.641
 2789SOL    HW118471   2.119   2.537   0.650
 2789SOL    HW218472   2.071   2.381   0.665
 2790SOL     OW18473   9.506   9.813   0.574
 2790SOL    HW118474   9.492   9.856   0.485
 2790SOL    HW218475   9.430   9.751   0.594
 2791SOL     OW18476   2.127   1.476   1.105
 2791SOL    HW118477   2.118   1.440   1.197
 2791SOL    HW218478   2.151   1.573   1.109
 2792SOL     OW18479   3.148   0.888   1.096
 2792SOL    HW118480   3.120   0.978   1.131
 2792SOL    HW218481   3.177   0.830   1.172
 2793SOL     OW18482   9.520   3.936   0.820
 2793SOL    HW118483   9.608   3.951   0.775
 2793SOL    HW218484   9.486   3.844   0.797
 2794SOL     OW18485   9.818   1.673   0.339
 2794SOL    HW118486   9.901   1.702   0.291
 2794SOL    HW218487   9.741   1.673   0.275
 2795SOL     OW18488   3.532   1.366   0.575
 2795SOL    HW118489   3.542   1.455   0.532
 2795SOL    HW218490   3.614   1.311   0.561
 2796SOL     OW18491   0.555   9.050   0.213
 2796SOL    HW118492   0.648   9.013   0.206
 2796SOL    HW218493   0.556   9.147   0.189
 2797SOL     OW18494   1.147   4.502   1.785
 2797SOL    HW118495   1.172   4.429   1.721
 2797SOL    HW218496   1.055   4.486   1.820
 2798SOL     OW18497   5.414   3.487   0.457
 2798SOL    HW118498   5.336   3.508   0.398
 2798SOL    HW218499   5.380   3.452   0.544
 2799SOL     OW18500   9.916   9.189   2.205
 2799SOL    HW118501   9.995   9.129   2.202
 2799SOL    HW218502   9.841   9.147   2.154
 2800SOL     OW18503   0.501   9.383   1.351
 2800SOL    HW118504   0.427   9.358   1.287
 2800SOL    HW218505   0.559   9.453   1.309
 2801SOL     OW18506   8.369   9.845   1.408
 2801SOL    HW118507   8.327   9.773   1.464
 2801SOL    HW218508   8.468   9.841   1.418
 2802SOL     OW18509   9.455   7.785   2.179
 2802SOL    HW118510   9.408   7.830   2.103
 2802SOL    HW218511   9.428   7.688   2.181
 2803SOL     OW18512   9.283   7.066   1.271
 2803SOL    HW118513   9.292   6.991   1.206
 2803SOL    HW218514   9.324   7.040   1.358
 2804SOL     OW18515   8.529   9.653   1.779
 2804SOL    HW118516   8.470   9.614   1.850
 2804SOL    HW218517   8.548   9.749   1.800
 2805SOL     OW18518   9.608   0.401   1.204
 2805SOL    HW118519   9.705   0.413   1.221
 2805SOL    HW218520   9.590   0.307   1.174
 2806SOL     OW18521   7.925   1.323   0.890
 2806SOL    HW118522   7.845   1.340   0.947
 2806SOL    HW218523   7.934   1.396   0.822
 2807SOL     OW18524   4.404   0.327   0.447
 2807SOL    HW118525   4.394   0.228   0.459
 2807SOL    HW218526   4.339   0.374   0.508
 2808SOL     OW18527   8.701   8.322   1.023
 2808SOL    HW118528   8.732   8.340   0.930
 2808SOL    HW218529   8.668   8.406   1.065
 2809SOL     OW18530   2.052   6.954   0.283
 2809SOL    HW118531   2.000   7.036   0.259
 2809SOL    HW218532   2.013   6.913   0.366
 2810SOL     OW18533   9.931   3.167   0.606
 2810SOL    HW118534   9.946   3.254   0.558
 2810SOL    HW218535   9.913   3.184   0.702
 2811SOL     OW18536   1.651   2.293   0.726
 2811SOL    HW118537   1.566   2.245   0.704
 2811SOL    HW218538   1.645   2.331   0.819
 2812SOL     OW18539   1.860   5.825   1.870
 2812SOL    HW118540   1.895   5.895   1.932
 2812SOL    HW218541   1.886   5.735   1.904
 2813SOL     OW18542   9.566   4.097   1.778
 2813SOL    HW118543   9.654   4.061   1.747
 2813SOL    HW218544   9.576   4.131   1.872
 2814SOL     OW18545   2.000   1.674   0.042
 2814SOL    HW118546   2.018   1.674   0.140
 2814SOL    HW218547   1.957   1.587   0.016
 2815SOL     OW18548   1.518   8.347   0.836
 2815SOL    HW118549   1.580   8.381   0.907
 2815SOL    HW218550   1.536   8.250   0.819
 2816SOL     OW18551   1.400   1.381   0.445
 2816SOL    HW118552   1.380   1.471   0.408
 2816SOL    HW218553   1.496   1.378   0.475
 2817SOL     OW18554   0.886   8.674   0.223
 2817SOL    HW118555   0.824   8.612   0.271
 2817SOL    HW218556   0.952   8.712   0.288
 2818SOL     OW18557   9.539   8.314   1.095
 2818SOL    HW118558   9.477   8.298   1.173
 2818SOL    HW218559   9.549   8.413   1.081
 2819SOL     OW18560   2.282   2.199   1.098
 2819SOL    HW118561   2.351   2.171   1.032
 2819SOL    HW218562   2.255   2.294   1.081
 2820SOL     OW18563   1.211   2.726   0.987
 2820SOL    HW118564   1.152   2.687   0.916
 2820SOL    HW218565   1.306   2.725   0.955
 2821SOL     OW18566   9.593   3.478   1.113
 2821SOL    HW118567   9.633   3.566   1.089
 2821SOL    HW218568   9.595   3.418   1.033
 2822SOL     OW18569   9.646   6.152   1.762
 2822SOL    HW118570   9.588   6.141   1.681
 2822SOL    HW218571   9.612   6.229   1.816
 2823SOL     OW18572   1.315   2.698   0.426
 2823SOL    HW118573   1.341   2.754   0.347
 2823SOL    HW218574   1.392   2.641   0.453
 2824SOL     OW18575   2.842   4.128   0.365
 2824SOL    HW118576   2.857   4.184   0.446
 2824SOL    HW218577   2.749   4.090   0.368
 2825SOL     OW18578   9.412   4.033   1.048
 2825SOL    HW118579   9.477   4.096   1.093
 2825SOL    HW218580   9.455   3.994   0.967
 2826SOL     OW18581   3.671   1.156   0.967
 2826SOL    HW118582   3.625   1.125   1.050
 2826SOL    HW218583   3.623   1.236   0.930
 2827SOL     OW18584   8.352   8.653   0.077
 2827SOL    HW118585   8.441   8.637   0.033
 2827SOL    HW218586   8.367   8.687   0.170
 2828SOL     OW18587   8.241   9.473   1.060
 2828SOL    HW118588   8.190   9.420   0.993
 2828SOL    HW218589   8.339   9.467   1.040
 2829SOL     OW18590   0.839   4.993   1.096
 2829SOL    HW118591   0.871   5.057   1.166
 2829SOL    HW218592   0.917   4.953   1.049
 2830SOL     OW18593   0.881   7.773   1.641
 2830SOL    HW118594   0.813   7.838   1.674
 2830SOL    HW218595   0.845   7.680   1.647
 2831SOL     OW18596   9.913   9.458   2.151
 2831SOL    HW118597   9.829   9.495   2.190
 2831SOL    HW218598   9.922   9.362   2.177
 2832SOL     OW18599   0.072   3.700   1.639
 2832SOL    HW118600   0.001   3.630   1.643
 2832SOL    HW218601   0.140   3.675   1.569
 2833SOL     OW18602   4.017   3.364   0.369
 2833SOL    HW118603   4.038   3.305   0.291
 2833SOL    HW218604   3.995   3.456   0.337
 2834SOL     OW18605   0.754   3.562   1.699
 2834SOL    HW118606   0.661   3.592   1.679
 2834SOL    HW218607   0.755   3.515   1.787
 2835SOL     OW18608   8.884   4.652   0.938
 2835SOL    HW118609   8.918   4.578   0.880
 2835SOL    HW218610   8.787   4.638   0.957
 2836SOL     OW18611   4.112   5.863   0.556
 2836SOL    HW118612   4.099   5.769   0.525
 2836SOL    HW218613   4.024   5.902   0.583
 2837SOL     OW18614   9.919   6.406   2.249
 2837SOL    HW118615   9.920   6.338   2.176
 2837SOL    HW218616   9.998   6.466   2.241
 2838SOL     OW18617   4.001   4.075   1.508
 2838SOL    HW118618   3.939   4.151   1.527
 2838SOL    HW218619   3.950   4.001   1.464
 2839SOL     OW18620   4.017   2.348   0.104
 2839SOL    HW118621   4.076   2.422   0.136
 2839SOL    HW218622   3.922   2.380   0.100
 2840SOL     OW18623   0.544   9.669   0.567
 2840SOL    HW118624   0.455   9.626   0.553
 2840SOL    HW218625   0.538   9.766   0.546
 2841SOL     OW18626   2.679   6.587   0.612
 2841SOL    HW118627   2.631   6.520   0.556
 2841SOL    HW218628   2.672   6.560   0.708
 2842SOL     OW18629   2.175   1.333   0.483
 2842SOL    HW118630   2.198   1.243   0.521
 2842SOL    HW218631   2.242   1.400   0.514
 2843SOL     OW18632   2.219   5.560   1.894
 2843SOL    HW118633   2.213   5.467   1.857
 2843SOL    HW218634   2.255   5.556   1.987
 2844SOL     OW18635   4.733   0.936   1.268
 2844SOL    HW118636   4.687   0.900   1.350
 2844SOL    HW218637   4.762   0.859   1.211
 2845SOL     OW18638   0.286   0.116   1.241
 2845SOL    HW118639   0.250   0.053   1.310
 2845SOL    HW218640   0.330   0.064   1.168
 2846SOL     OW18641   1.019   5.312   2.048
 2846SOL    HW118642   0.936   5.361   2.019
 2846SOL    HW218643   1.099   5.355   2.005
 2847SOL     OW18644   2.675   7.288   0.159
 2847SOL    HW118645   2.629   7.376   0.175
 2847SOL    HW218646   2.659   7.258   0.066
 2848SOL     OW18647   3.128   9.827   1.755
 2848SOL    HW118648   3.214   9.803   1.710
 2848SOL    HW218649   3.106   9.923   1.738
 2849SOL     OW18650   2.926   5.718   1.884
 2849SOL    HW118651   2.981   5.774   1.822
 2849SOL    HW218652   2.985   5.650   1.928
 2850SOL     OW18653   1.903   1.803   0.713
 2850SOL    HW118654   1.927   1.836   0.622
 2850SOL    HW218655   1.944   1.713   0.728
 2851SOL     OW18656   2.631   9.852   1.739
 2851SOL    HW118657   2.648   9.920   1.810
 2851SOL    HW218658   2.533   9.833   1.734
 2852SOL     OW18659   8.844   0.854   1.227
 2852SOL    HW118660   8.856   0.756   1.210
 2852SOL    HW218661   8.910   0.906   1.172
 2853SOL     OW18662   1.991   5.516   0.927
 2853SOL    HW118663   2.037   5.491   1.013
 2853SOL    HW218664   1.900   5.475   0.925
 2854SOL     OW18665   2.103   1.986   1.114
 2854SOL    HW118666   2.168   2.061   1.120
 2854SOL    HW218667   2.016   2.013   1.155
 2855SOL     OW18668   8.450   7.332   1.672
 2855SOL    HW118669   8.454   7.431   1.660
 2855SOL    HW218670   8.514   7.305   1.744
 2856SOL     OW18671   1.711   3.290   1.997
 2856SOL    HW118672   1.800   3.257   2.028
 2856SOL    HW218673   1.669   3.221   1.937
 2857SOL     OW18674   1.166   9.801   1.483
 2857SOL    HW118675   1.210   9.884   1.449
 2857SOL    HW218676   1.118   9.755   1.408
 2858SOL     OW18677   1.148   8.274   0.804
 2858SOL    HW118678   1.130   8.326   0.720
 2858SOL    HW218679   1.165   8.178   0.781
 2859SOL     OW18680   0.554   7.106   1.954
 2859SOL    HW118681   0.475   7.150   1.998
 2859SOL    HW218682   0.526   7.018   1.916
 2860SOL     OW18683   2.042   6.644   0.480
 2860SOL    HW118684   1.988   6.608   0.404
 2860SOL    HW218685   2.000   6.729   0.513
 2861SOL     OW18686   8.843   1.275   2.164
 2861SOL    HW118687   8.749   1.277   2.129
 2861SOL    HW218688   8.868   1.181   2.189
 2862SOL     OW18689   3.205   5.206   1.712
 2862SOL    HW118690   3.279   5.214   1.778
 2862SOL    HW218691   3.146   5.287   1.717
 2863SOL     OW18692   0.867   9.099   1.469
 2863SOL    HW118693   0.886   9.068   1.376
 2863SOL    HW218694   0.855   9.019   1.528
 2864SOL     OW18695   2.755   3.632   1.561
 2864SOL    HW118696   2.834   3.659   1.617
 2864SOL    HW218697   2.720   3.713   1.514
 2865SOL     OW18698   8.997   8.943   2.090
 2865SOL    HW118699   9.056   8.990   2.156
 2865SOL    HW218700   9.028   8.849   2.078
 2866SOL     OW18701   2.253   2.650   0.669
 2866SOL    HW118702   2.279   2.682   0.578
 2866SOL    HW218703   2.334   2.647   0.727
 2867SOL     OW18704   9.667   4.897   0.456
 2867SOL    HW118705   9.585   4.841   0.444
 2867SOL    HW218706   9.738   4.844   0.501
 2868SOL     OW18707   0.763   6.019   1.503
 2868SOL    HW118708   0.806   6.093   1.450
 2868SOL    HW218709   0.783   6.032   1.600
 2869SOL     OW18710   9.480   1.564   2.118
 2869SOL    HW118711   9.524   1.483   2.078
 2869SOL    HW218712   9.445   1.621   2.044
 2870SOL     OW18713   1.737   8.224   1.695
 2870SOL    HW118714   1.681   8.142   1.694
 2870SOL    HW218715   1.683   8.301   1.729
 2871SOL     OW18716   9.963   8.868   0.720
 2871SOL    HW118717   9.901   8.865   0.798
 2871SOL    HW218718   9.946   8.789   0.661
 2872SOL     OW18719   4.505   0.607   0.134
 2872SOL    HW118720   4.463   0.525   0.095
 2872SOL    HW218721   4.442   0.684   0.126
 2873SOL     OW18722   0.262   1.779   0.842
 2873SOL    HW118723   0.356   1.745   0.837
 2873SOL    HW218724   0.227   1.795   0.750
 2874SOL     OW18725   2.739   2.859   1.796
 2874SOL    HW118726   2.669   2.926   1.818
 2874SOL    HW218727   2.727   2.778   1.853
 2875SOL     OW18728   0.693   8.139   1.153
 2875SOL    HW118729   0.693   8.106   1.058
 2875SOL    HW218730   0.599   8.150   1.185
 2876SOL     OW18731   9.666   2.669   0.679
 2876SOL    HW118732   9.660   2.634   0.585
 2876SOL    HW218733   9.574   2.687   0.713
 2877SOL     OW18734   9.308   1.064   1.097
 2877SOL    HW118735   9.354   1.127   1.160
 2877SOL    HW218736   9.305   1.105   1.006
 2878SOL     OW18737   8.667   7.336   2.112
 2878SOL    HW118738   8.663   7.237   2.130
 2878SOL    HW218739   8.583   7.379   2.144
 2879SOL     OW18740   8.264   1.924   1.407
 2879SOL    HW118741   8.319   2.003   1.382
 2879SOL    HW218742   8.168   1.951   1.414
 2880SOL     OW18743   3.445   3.512   1.851
 2880SOL    HW118744   3.540   3.529   1.823
 2880SOL    HW218745   3.424   3.567   1.932
 2881SOL     OW18746   0.324   8.333   0.904
 2881SOL    HW118747   0.369   8.247   0.882
 2881SOL    HW218748   0.226   8.323   0.892
 2882SOL     OW18749   0.710   0.365   1.861
 2882SOL    HW118750   0.613   0.370   1.885
 2882SOL    HW218751   0.753   0.455   1.875
 2883SOL     OW18752   3.290   2.333   0.189
 2883SOL    HW118753   3.282   2.235   0.172
 2883SOL    HW218754   3.203   2.368   0.224
 2884SOL     OW18755   1.602   0.179   1.249
 2884SOL    HW118756   1.579   0.082   1.238
 2884SOL    HW218757   1.598   0.203   1.346
 2885SOL     OW18758   9.151   2.787   1.443
 2885SOL    HW118759   9.235   2.834   1.471
 2885SOL    HW218760   9.156   2.766   1.345
 2886SOL     OW18761   0.091   4.274   0.691
 2886SOL    HW118762   0.145   4.287   0.607
 2886SOL    HW218763   0.109   4.350   0.753
 2887SOL     OW18764   3.464   9.358   1.272
 2887SOL    HW118765   3.440   9.296   1.198
 2887SOL    HW218766   3.383   9.374   1.329
 2888SOL     OW18767   3.093   2.141   1.153
 2888SOL    HW118768   2.998   2.162   1.174
 2888SOL    HW218769   3.110   2.044   1.167
 2889SOL     OW18770   2.515   7.507   0.201
 2889SOL    HW118771   2.420   7.477   0.210
 2889SOL    HW218772   2.521   7.605   0.222
 2890SOL     OW18773   1.608   8.662   1.699
 2890SOL    HW118774   1.526   8.716   1.719
 2890SOL    HW218775   1.596   8.569   1.732
 2891SOL     OW18776   4.391   9.247   1.402
 2891SOL    HW118777   4.316   9.312   1.417
 2891SOL    HW218778   4.477   9.297   1.394
 2892SOL     OW18779   1.275   5.633   1.704
 2892SOL    HW118780   1.246   5.729   1.698
 2892SOL    HW218781   1.373   5.630   1.725
 2893SOL     OW18782   5.009   3.454   1.354
 2893SOL    HW118783   4.996   3.437   1.451
 2893SOL    HW218784   4.989   3.550   1.333
 2894SOL     OW18785   8.916   7.931   1.899
 2894SOL    HW118786   8.985   7.862   1.919
 2894SOL    HW218787   8.950   7.992   1.828
 2895SOL     OW18788   2.426   1.663   0.927
 2895SOL    HW118789   2.367   1.709   0.993
 2895SOL    HW218790   2.374   1.593   0.879
 2896SOL     OW18791   8.606   8.579   2.934
 2896SOL    HW118792   8.624   8.543   2.842
 2896SOL    HW218793   8.589   8.502   0.055
 2897SOL     OW18794   4.132   4.717   1.128
 2897SOL    HW118795   4.189   4.779   1.182
 2897SOL    HW218796   4.162   4.622   1.143
 2898SOL     OW18797   9.445   2.338   0.180
 2898SOL    HW118798   9.403   2.387   0.256
 2898SOL    HW218799   9.466   2.401   0.106
 2899SOL     OW18800   8.016   8.518   1.749
 2899SOL    HW118801   8.087   8.525   1.679
 2899SOL    HW218802   7.961   8.602   1.748
 2900SOL     OW18803   9.266   3.225   0.826
 2900SOL    HW118804   9.270   3.129   0.801
 2900SOL    HW218805   9.300   3.237   0.920
 2901SOL     OW18806   4.720   4.068   1.181
 2901SOL    HW118807   4.678   3.996   1.237
 2901SOL    HW218808   4.650   4.116   1.129
 2902SOL     OW18809   8.961   8.030   2.158
 2902SOL    HW118810   8.995   7.948   2.204
 2902SOL    HW218811   8.930   8.007   2.066
 2903SOL     OW18812   1.771   3.644   1.622
 2903SOL    HW118813   1.684   3.694   1.624
 2903SOL    HW218814   1.845   3.707   1.600
 2904SOL     OW18815   4.124   4.022   2.196
 2904SOL    HW118816   4.171   3.949   2.247
 2904SOL    HW218817   4.027   4.021   2.220
 2905SOL     OW18818   2.444   3.926   0.103
 2905SOL    HW118819   2.487   3.871   0.175
 2905SOL    HW218820   2.481   3.900   0.014
 2906SOL     OW18821   2.670   3.333   1.303
 2906SOL    HW118822   2.605   3.394   1.260
 2906SOL    HW218823   2.759   3.379   1.312
 2907SOL     OW18824   4.267   0.447   0.241
 2907SOL    HW118825   4.243   0.537   0.278
 2907SOL    HW218826   4.321   0.397   0.308
 2908SOL     OW18827   9.055   8.979   1.665
 2908SOL    HW118828   9.080   9.032   1.745
 2908SOL    HW218829   8.959   8.952   1.671
 2909SOL     OW18830   9.607   2.014   0.486
 2909SOL    HW118831   9.644   1.928   0.522
 2909SOL    HW218832   9.667   2.048   0.414
 2910SOL     OW18833   2.253   3.015   0.727
 2910SOL    HW118834   2.291   3.027   0.819
 2910SOL    HW218835   2.182   2.944   0.730
 2911SOL     OW18836   0.743   9.304   2.151
 2911SOL    HW118837   0.658   9.292   2.201
 2911SOL    HW218838   0.742   9.248   2.068
 2912SOL     OW18839   1.961   5.382   2.136
 2912SOL    HW118840   1.872   5.345   2.161
 2912SOL    HW218841   1.949   5.451   2.064
 2913SOL     OW18842   3.292   9.153   0.273
 2913SOL    HW118843   3.265   9.227   0.211
 2913SOL    HW218844   3.210   9.118   0.319
 2914SOL     OW18845   1.303   2.392   1.205
 2914SOL    HW118846   1.257   2.425   1.287
 2914SOL    HW218847   1.397   2.367   1.227
 2915SOL     OW18848   0.390   7.885   1.407
 2915SOL    HW118849   0.472   7.839   1.443
 2915SOL    HW218850   0.322   7.816   1.382
 2916SOL     OW18851   0.813   0.521   1.101
 2916SOL    HW118852   0.741   0.486   1.161
 2916SOL    HW218853   0.793   0.496   1.007
 2917SOL     OW18854   3.098   6.814   0.402
 2917SOL    HW118855   3.049   6.750   0.461
 2917SOL    HW218856   3.055   6.904   0.409
 2918SOL     OW18857   1.969   0.263   0.737
 2918SOL    HW118858   1.972   0.194   0.665
 2918SOL    HW218859   1.892   0.242   0.799
 2919SOL     OW18860   2.450   2.639   0.859
 2919SOL    HW118861   2.487   2.727   0.890
 2919SOL    HW218862   2.419   2.587   0.939
 2920SOL     OW18863   3.242   0.113   0.251
 2920SOL    HW118864   3.168   0.108   0.318
 2920SOL    HW218865   3.233   0.198   0.199
 2921SOL     OW18866   2.578   9.633   1.439
 2921SOL    HW118867   2.565   9.731   1.450
 2921SOL    HW218868   2.676   9.613   1.429
 2922SOL     OW18869   3.395   8.816   0.028
 2922SOL    HW118870   3.469   8.758   0.064
 2922SOL    HW218871   3.336   8.761   2.909
 2923SOL     OW18872   4.915   3.781   1.781
 2923SOL    HW118873   4.980   3.788   1.856
 2923SOL    HW218874   4.951   3.829   1.700
 2924SOL     OW18875   4.710   1.418   1.676
 2924SOL    HW118876   4.672   1.365   1.752
 2924SOL    HW218877   4.732   1.357   1.600
 2925SOL     OW18878   2.899   8.157   1.369
 2925SOL    HW118879   2.825   8.159   1.436
 2925SOL    HW218880   2.912   8.064   1.336
 2926SOL     OW18881   3.287   9.101   1.686
 2926SOL    HW118882   3.278   9.039   1.765
 2926SOL    HW218883   3.323   9.189   1.717
 2927SOL     OW18884   2.197   6.885   1.462
 2927SOL    HW118885   2.136   6.960   1.438
 2927SOL    HW218886   2.147   6.798   1.455
 2928SOL     OW18887   2.245   1.444   0.860
 2928SOL    HW118888   2.207   1.457   0.951
 2928SOL    HW218889   2.276   1.350   0.849
 2929SOL     OW18890   3.004   7.169   2.173
 2929SOL    HW118891   3.041   7.154   2.082
 2929SOL    HW218892   3.044   7.103   2.237
 2930SOL     OW18893   3.083   2.916   1.204
 2930SOL    HW118894   3.099   2.973   1.284
 2930SOL    HW218895   2.986   2.890   1.201
 2931SOL     OW18896   8.847   8.394   1.591
 2931SOL    HW118897   8.836   8.372   1.687
 2931SOL    HW218898   8.758   8.394   1.546
 2932SOL     OW18899   3.301   9.202   0.669
 2932SOL    HW118900   3.204   9.179   0.655
 2932SOL    HW218901   3.310   9.301   0.677
 2933SOL     OW18902   0.293   1.613   0.180
 2933SOL    HW118903   0.247   1.534   0.219
 2933SOL    HW218904   0.380   1.584   0.139
 2934SOL     OW18905   2.549   4.198   2.292
 2934SOL    HW118906   2.526   4.116   2.343
 2934SOL    HW218907   2.494   4.203   2.209
 2935SOL     OW18908   9.305   0.138   1.127
 2935SOL    HW118909   9.266   0.061   1.075
 2935SOL    HW218910   9.301   0.220   1.071
 2936SOL     OW18911   9.050   0.688   1.722
 2936SOL    HW118912   8.958   0.680   1.684
 2936SOL    HW218913   9.099   0.762   1.675
 2937SOL     OW18914   1.131   2.500   1.405
 2937SOL    HW118915   1.183   2.518   1.488
 2937SOL    HW218916   1.042   2.460   1.429
 2938SOL     OW18917   2.893   0.564   0.831
 2938SOL    HW118918   2.973   0.523   0.788
 2938SOL    HW218919   2.915   0.657   0.862
 2939SOL     OW18920   3.943   0.041   0.721
 2939SOL    HW118921   3.971   0.011   0.630
 2939SOL    HW218922   3.883   0.121   0.712
 2940SOL     OW18923   0.043   8.323   0.857
 2940SOL    HW118924   9.972   8.330   0.927
 2940SOL    HW218925   0.015   8.256   0.788
 2941SOL     OW18926   4.990   3.500   1.940
 2941SOL    HW118927   4.899   3.463   1.954
 2941SOL    HW218928   5.012   3.500   1.843
 2942SOL     OW18929   1.197   1.030   0.809
 2942SOL    HW118930   1.258   1.015   0.731
 2942SOL    HW218931   1.204   0.953   0.873
 2943SOL     OW18932   4.069   2.821   0.367
 2943SOL    HW118933   4.074   2.884   0.444
 2943SOL    HW218934   4.096   2.730   0.396
 2944SOL     OW18935   2.117   7.186   1.025
 2944SOL    HW118936   2.190   7.216   0.964
 2944SOL    HW218937   2.070   7.107   0.985
 2945SOL     OW18938   0.416   6.101   1.374
 2945SOL    HW118939   0.428   6.179   1.436
 2945SOL    HW218940   0.352   6.036   1.415
 2946SOL     OW18941   4.359   1.641   0.180
 2946SOL    HW118942   4.382   1.683   0.267
 2946SOL    HW218943   4.419   1.677   0.108
 2947SOL     OW18944   3.276   8.235   1.249
 2947SOL    HW118945   3.189   8.285   1.248
 2947SOL    HW218946   3.313   8.235   1.342
 2948SOL     OW18947   9.673   5.845   2.227
 2948SOL    HW118948   9.739   5.910   2.189
 2948SOL    HW218949   9.722   5.766   2.265
 2949SOL     OW18950   3.668   9.690   0.511
 2949SOL    HW118951   3.577   9.706   0.474
 2949SOL    HW218952   3.717   9.626   0.451
 2950SOL     OW18953   8.966   7.324   2.166
 2950SOL    HW118954   8.958   7.224   2.172
 2950SOL    HW218955   8.876   7.363   2.147
 2951SOL     OW18956   9.312   6.238   1.769
 2951SOL    HW118957   9.391   6.276   1.817
 2951SOL    HW218958   9.228   6.262   1.818
 2952SOL     OW18959   9.442   1.251   1.260
 2952SOL    HW118960   9.367   1.314   1.238
 2952SOL    HW218961   9.437   1.225   1.356
 2953SOL     OW18962   8.664   8.828   0.394
 2953SOL    HW118963   8.672   8.827   0.494
 2953SOL    HW218964   8.720   8.902   0.357
 2954SOL     OW18965   2.682   5.643   1.066
 2954SOL    HW118966   2.616   5.697   1.118
 2954SOL    HW218967   2.656   5.547   1.068
 2955SOL     OW18968   3.355   4.943   0.233
 2955SOL    HW118969   3.306   5.030   0.225
 2955SOL    HW218970   3.419   4.949   0.310
 2956SOL     OW18971   0.235   5.381   1.398
 2956SOL    HW118972   0.333   5.398   1.397
 2956SOL    HW218973   0.187   5.457   1.353
 2957SOL     OW18974   4.229   5.112   1.871
 2957SOL    HW118975   4.285   5.031   1.852
 2957SOL    HW218976   4.267   5.160   1.950
 2958SOL     OW18977   2.245   5.188   1.514
 2958SOL    HW118978   2.163   5.185   1.458
 2958SOL    HW218979   2.306   5.113   1.489
 2959SOL     OW18980   4.124   9.206   1.646
 2959SOL    HW118981   4.051   9.234   1.709
 2959SOL    HW218982   4.212   9.215   1.693
 2960SOL     OW18983   8.643   4.571   0.669
 2960SOL    HW118984   8.619   4.596   0.763
 2960SOL    HW218985   8.691   4.484   0.670
 2961SOL     OW18986   9.935   6.426   0.203
 2961SOL    HW118987   9.892   6.459   0.119
 2961SOL    HW218988   9.969   6.333   0.189
 2962SOL     OW18989   1.650   7.222   1.266
 2962SOL    HW118990   1.728   7.166   1.236
 2962SOL    HW218991   1.680   7.284   1.338
 2963SOL     OW18992   9.897   8.286   0.175
 2963SOL    HW118993   9.895   8.381   0.142
 2963SOL    HW218994   9.867   8.225   0.102
 2964SOL     OW18995   8.448   6.098   1.602
 2964SOL    HW118996   8.374   6.073   1.540
 2964SOL    HW218997   8.425   6.183   1.649
 2965SOL     OW18998   8.755   0.876   0.242
 2965SOL    HW118999   8.817   0.848   0.169
 2965SOL    HW219000   8.731   0.796   0.297
 2966SOL     OW19001   4.049   2.101   2.110
 2966SOL    HW119002   4.108   2.131   2.185
 2966SOL    HW219003   3.983   2.034   2.145
 2967SOL     OW19004   1.998   1.554   0.771
 2967SOL    HW119005   1.932   1.535   0.843
 2967SOL    HW219006   2.088   1.518   0.798
 2968SOL     OW19007   8.939   9.508   1.200
 2968SOL    HW119008   8.890   9.448   1.264
 2968SOL    HW219009   8.940   9.601   1.236
 2969SOL     OW19010   4.413   4.565   0.164
 2969SOL    HW119011   4.461   4.477   0.159
 2969SOL    HW219012   4.317   4.552   0.142
 2970SOL     OW19013   3.135   0.245   0.730
 2970SOL    HW119014   3.144   0.331   0.680
 2970SOL    HW219015   3.183   0.172   0.680
 2971SOL     OW19016   3.851   0.399   1.638
 2971SOL    HW119017   3.927   0.347   1.678
 2971SOL    HW219018   3.831   0.363   1.547
 2972SOL     OW19019   4.723   1.200   1.214
 2972SOL    HW119020   4.735   1.102   1.232
 2972SOL    HW219021   4.677   1.212   1.127
 2973SOL     OW19022   8.874   3.935   0.108
 2973SOL    HW119023   8.793   3.994   0.103
 2973SOL    HW219024   8.867   3.862   0.040
 2974SOL     OW19025   0.863   0.229   0.973
 2974SOL    HW119026   0.960   0.236   0.948
 2974SOL    HW219027   0.812   0.303   0.930
 2975SOL     OW19028   9.231   0.617   2.087
 2975SOL    HW119029   9.195   0.633   1.996
 2975SOL    HW219030   9.293   0.538   2.085
 2976SOL     OW19031   0.889   9.132   0.770
 2976SOL    HW119032   0.986   9.122   0.791
 2976SOL    HW219033   0.873   9.112   0.673
 2977SOL     OW19034   0.382   3.246   0.951
 2977SOL    HW119035   0.390   3.147   0.940
 2977SOL    HW219036   0.289   3.274   0.928
 2978SOL     OW19037   1.954   9.087   0.361
 2978SOL    HW119038   1.914   9.162   0.413
 2978SOL    HW219039   1.885   9.044   0.303
 2979SOL     OW19040   9.334   1.061   0.570
 2979SOL    HW119041   9.412   1.110   0.530
 2979SOL    HW219042   9.367   0.996   0.639
 2980SOL     OW19043   0.065   0.121   1.615
 2980SOL    HW119044   0.116   0.111   1.701
 2980SOL    HW219045   9.967   0.107   1.633
 2981SOL     OW19046   3.445   8.518   1.089
 2981SOL    HW119047   3.489   8.457   1.154
 2981SOL    HW219048   3.346   8.504   1.092
 2982SOL     OW19049   0.249   4.292   0.469
 2982SOL    HW119050   0.341   4.251   0.465
 2982SOL    HW219051   0.254   4.388   0.441
 2983SOL     OW19052   2.454   4.859   0.571
 2983SOL    HW119053   2.409   4.770   0.569
 2983SOL    HW219054   2.553   4.845   0.568
 2984SOL     OW19055   0.450   7.780   0.196
 2984SOL    HW119056   0.530   7.722   0.215
 2984SOL    HW219057   0.481   7.871   0.167
 2985SOL     OW19058   8.106   9.134   1.079
 2985SOL    HW119059   8.119   9.183   1.165
 2985SOL    HW219060   8.103   9.200   1.004
 2986SOL     OW19061   8.164   1.849   1.148
 2986SOL    HW119062   8.073   1.812   1.166
 2986SOL    HW219063   8.209   1.871   1.235
 2987SOL     OW19064   4.119   3.004   0.569
 2987SOL    HW119065   4.065   3.086   0.590
 2987SOL    HW219066   4.179   2.983   0.646
 2988SOL     OW19067   0.189   6.258   0.450
 2988SOL    HW119068   0.225   6.253   0.357
 2988SOL    HW219069   0.154   6.350   0.467
 2989SOL     OW19070   3.166   8.504   1.078
 2989SOL    HW119071   3.147   8.602   1.079
 2989SOL    HW219072   3.114   8.459   1.151
 2990SOL     OW19073   8.269   2.781   0.208
 2990SOL    HW119074   8.313   2.852   0.263
 2990SOL    HW219075   8.257   2.814   0.114
 2991SOL     OW19076   8.773   6.782   0.974
 2991SOL    HW119077   8.688   6.810   0.929
 2991SOL    HW219078   8.824   6.720   0.914
 2992SOL     OW19079   8.564   1.735   1.424
 2992SOL    HW119080   8.507   1.813   1.449
 2992SOL    HW219081   8.660   1.756   1.443
 2993SOL     OW19082   9.450   0.915   0.778
 2993SOL    HW119083   9.499   0.840   0.823
 2993SOL    HW219084   9.497   1.001   0.794
 2994SOL     OW19085   3.797   9.487   0.373
 2994SOL    HW119086   3.833   9.446   0.457
 2994SOL    HW219087   3.742   9.420   0.324
 2995SOL     OW19088   8.900   6.593   2.047
 2995SOL    HW119089   8.845   6.544   1.980
 2995SOL    HW219090   8.897   6.544   2.135
 2996SOL     OW19091   0.840   7.468   0.758
 2996SOL    HW119092   0.823   7.566   0.754
 2996SOL    HW219093   0.789   7.429   0.835
 2997SOL     OW19094   2.330   8.020   1.012
 2997SOL    HW119095   2.300   7.997   0.919
 2997SOL    HW219096   2.421   8.062   1.008
 2998SOL     OW19097   1.236   9.897   2.137
 2998SOL    HW119098   1.149   9.896   2.188
 2998SOL    HW219099   1.218   9.880   2.040
 2999SOL     OW19100   1.546   9.497   0.037
 2999SOL    HW119101   1.579   9.465   2.890
 2999SOL    HW219102   1.467   9.442   0.065
 3000SOL     OW19103   3.236   0.384   0.166
 3000SOL    HW119104   3.248   0.425   0.256
 3000SOL    HW219105   3.321   0.393   0.114
 3001SOL     OW19106   3.502   0.869   0.733
 3001SOL    HW119107   3.427   0.847   0.795
 3001SOL    HW219108   3.464   0.903   0.647
 3002SOL     OW19109   2.689   5.205   1.466
 3002SOL    HW119110   2.673   5.126   1.407
 3002SOL    HW219111   2.602   5.251   1.485
 3003SOL     OW19112   0.976   0.969   0.657
 3003SOL    HW119113   0.973   1.030   0.577
 3003SOL    HW219114   1.054   0.992   0.714
 3004SOL     OW19115   3.703   3.599   2.163
 3004SOL    HW119116   3.780   3.578   2.103
 3004SOL    HW219117   3.698   3.698   2.178
 3005SOL     OW19118   8.547   6.798   1.695
 3005SOL    HW119119   8.546   6.706   1.733
 3005SOL    HW219120   8.469   6.850   1.731
 3006SOL     OW19121   9.319   4.089   0.716
 3006SOL    HW119122   9.231   4.058   0.752
 3006SOL    HW219123   9.393   4.038   0.760
 3007SOL     OW19124   1.715   7.215   2.193
 3007SOL    HW119125   1.802   7.182   2.231
 3007SOL    HW219126   1.717   7.315   2.188
 3008SOL     OW19127   3.046   1.130   1.237
 3008SOL    HW119128   3.112   1.190   1.280
 3008SOL    HW219129   3.027   1.052   1.297
 3009SOL     OW19130   8.891   2.537   2.081
 3009SOL    HW119131   8.803   2.493   2.101
 3009SOL    HW219132   8.875   2.622   2.030
 3010SOL     OW19133   0.015   5.802   1.009
 3010SOL    HW119134   0.050   5.895   1.016
 3010SOL    HW219135   0.081   5.744   0.961
 3011SOL     OW19136   0.097   1.321   0.733
 3011SOL    HW119137   0.141   1.400   0.691
 3011SOL    HW219138   0.057   1.263   0.662
 3012SOL     OW19139   3.419   2.175   1.168
 3012SOL    HW119140   3.441   2.272   1.175
 3012SOL    HW219141   3.394   2.153   1.074
 3013SOL     OW19142   3.088   6.047   1.003
 3013SOL    HW119143   2.989   6.061   1.013
 3013SOL    HW219144   3.134   6.136   1.005
 3014SOL     OW19145   1.931   3.957   0.981
 3014SOL    HW119146   1.996   3.958   1.057
 3014SOL    HW219147   1.914   4.050   0.950
 3015SOL     OW19148   2.786   9.779   0.380
 3015SOL    HW119149   2.832   9.837   0.312
 3015SOL    HW219150   2.844   9.702   0.403
 3016SOL     OW19151   1.775   8.038   0.626
 3016SOL    HW119152   1.705   8.052   0.695
 3016SOL    HW219153   1.741   7.974   0.556
 3017SOL     OW19154   8.937   6.623   0.817
 3017SOL    HW119155   8.921   6.678   0.735
 3017SOL    HW219156   9.033   6.597   0.822
 3018SOL     OW19157   4.148   3.677   1.884
 3018SOL    HW119158   4.111   3.667   1.791
 3018SOL    HW219159   4.247   3.667   1.881
 3019SOL     OW19160   0.763   8.132   0.864
 3019SOL    HW119161   0.809   8.216   0.892
 3019SOL    HW219162   0.764   8.124   0.764
 3020SOL     OW19163   1.093   4.514   1.439
 3020SOL    HW119164   1.010   4.466   1.412
 3020SOL    HW219165   1.070   4.606   1.471
 3021SOL     OW19166   9.971   5.280   1.322
 3021SOL    HW119167   9.920   5.367   1.326
 3021SOL    HW219168   0.066   5.296   1.347
 3022SOL     OW19169   9.559   1.799   1.122
 3022SOL    HW119170   9.504   1.716   1.112
 3022SOL    HW219171   9.528   1.851   1.201
 3023SOL     OW19172   2.942   9.717   0.098
 3023SOL    HW119173   2.930   9.813   0.123
 3023SOL    HW219174   3.030   9.684   0.132
 3024SOL     OW19175   0.121   4.873   0.242
 3024SOL    HW119176   0.218   4.847   0.242
 3024SOL    HW219177   0.066   4.796   0.273
 3025SOL     OW19178   4.003   5.177   2.220
 3025SOL    HW119179   3.906   5.194   2.203
 3025SOL    HW219180   4.055   5.260   2.200
 3026SOL     OW19181   8.933   5.177   1.982
 3026SOL    HW119182   8.882   5.184   1.896
 3026SOL    HW219183   8.944   5.268   2.022
 3027SOL     OW19184   9.591   6.602   1.513
 3027SOL    HW119185   9.666   6.667   1.517
 3027SOL    HW219186   9.627   6.510   1.498
 3028SOL     OW19187   2.164   5.682   1.313
 3028SOL    HW119188   2.071   5.716   1.322
 3028SOL    HW219189   2.226   5.759   1.297
 3029SOL     OW19190   9.202   0.221   1.954
 3029SOL    HW119191   9.111   0.261   1.942
 3029SOL    HW219192   9.193   0.129   1.993
 3030SOL     OW19193   3.293   3.867   0.465
 3030SOL    HW119194   3.206   3.860   0.514
 3030SOL    HW219195   3.295   3.950   0.411
 3031SOL     OW19196   2.871   6.069   0.587
 3031SOL    HW119197   2.938   6.134   0.624
 3031SOL    HW219198   2.813   6.035   0.660
 3032SOL     OW19199   9.570   8.483   1.395
 3032SOL    HW119200   9.615   8.555   1.343
 3032SOL    HW219201   9.546   8.517   1.486
 3033SOL     OW19202   9.459   3.854   1.574
 3033SOL    HW119203   9.398   3.774   1.566
 3033SOL    HW219204   9.543   3.826   1.621
 3034SOL     OW19205   3.128   6.843   2.032
 3034SOL    HW119206   3.066   6.785   1.980
 3034SOL    HW219207   3.136   6.932   1.987
 3035SOL     OW19208   3.852   4.484   0.588
 3035SOL    HW119209   3.945   4.503   0.619
 3035SOL    HW219210   3.827   4.391   0.613
 3036SOL     OW19211   3.962   9.318   1.833
 3036SOL    HW119212   3.958   9.414   1.805
 3036SOL    HW219213   3.889   9.300   1.899
 3037SOL     OW19214   2.593   2.505   0.668
 3037SOL    HW119215   2.545   2.490   0.582
 3037SOL    HW219216   2.535   2.559   0.729
 3038SOL     OW19217   1.949   7.574   0.706
 3038SOL    HW119218   1.957   7.625   0.792
 3038SOL    HW219219   1.976   7.479   0.722
 3039SOL     OW19220   3.170   5.553   1.563
 3039SOL    HW119221   3.235   5.609   1.615
 3039SOL    HW219222   3.111   5.503   1.627
 3040SOL     OW19223   1.221   2.996   1.058
 3040SOL    HW119224   1.220   2.898   1.039
 3040SOL    HW219225   1.297   3.038   1.009
 3041SOL     OW19226   2.488   3.123   0.323
 3041SOL    HW119227   2.569   3.064   0.324
 3041SOL    HW219228   2.455   3.134   0.417
 3042SOL     OW19229   1.240   0.770   0.917
 3042SOL    HW119230   1.247   0.706   0.841
 3042SOL    HW219231   1.172   0.737   0.983
 3043SOL     OW19232   8.866   5.686   1.442
 3043SOL    HW119233   8.807   5.737   1.380
 3043SOL    HW219234   8.932   5.633   1.389
 3044SOL     OW19235   0.016   3.078   1.576
 3044SOL    HW119236   9.949   3.097   1.504
 3044SOL    HW219237   0.017   2.980   1.596
 3045SOL     OW19238   8.802   2.897   0.676
 3045SOL    HW119239   8.703   2.911   0.684
 3045SOL    HW219240   8.843   2.977   0.631
 3046SOL     OW19241   9.857   3.610   1.873
 3046SOL    HW119242   9.796   3.535   1.849
 3046SOL    HW219243   9.952   3.582   1.861
 3047SOL     OW19244   8.243   8.855   1.819
 3047SOL    HW119245   8.270   8.855   1.916
 3047SOL    HW219246   8.152   8.897   1.810
 3048SOL     OW19247   2.956   0.813   0.911
 3048SOL    HW119248   2.916   0.900   0.884
 3048SOL    HW219249   3.022   0.827   0.985
 3049SOL     OW19250   8.730   0.553   1.895
 3049SOL    HW119251   8.700   0.618   1.966
 3049SOL    HW219252   8.659   0.485   1.880
 3050SOL     OW19253   8.392   9.693   1.168
 3050SOL    HW119254   8.376   9.753   1.247
 3050SOL    HW219255   8.316   9.628   1.160
 3051SOL     OW19256   9.230   4.632   2.109
 3051SOL    HW119257   9.319   4.591   2.126
 3051SOL    HW219258   9.232   4.728   2.135
 3052SOL     OW19259   8.413   2.374   1.480
 3052SOL    HW119260   8.475   2.441   1.439
 3052SOL    HW219261   8.405   2.392   1.578
 3053SOL     OW19262   8.194   8.770   1.420
 3053SOL    HW119263   8.102   8.808   1.423
 3053SOL    HW219264   8.231   8.776   1.328
 3054SOL     OW19265   2.342   1.260   0.180
 3054SOL    HW119266   2.242   1.265   0.180
 3054SOL    HW219267   2.373   1.222   0.267
 3055SOL     OW19268   3.571   9.590   1.174
 3055SOL    HW119269   3.671   9.585   1.169
 3055SOL    HW219270   3.535   9.502   1.204
 3056SOL     OW19271   1.419   6.616   1.184
 3056SOL    HW119272   1.336   6.647   1.137
 3056SOL    HW219273   1.463   6.694   1.229
 3057SOL     OW19274   1.132   1.486   0.192
 3057SOL    HW119275   1.060   1.555   0.186
 3057SOL    HW219276   1.206   1.521   0.250
 3058SOL     OW19277   7.551   9.833   1.375
 3058SOL    HW119278   7.619   9.765   1.400
 3058SOL    HW219279   7.469   9.820   1.430
 3059SOL     OW19280   9.610   6.929   0.747
 3059SOL    HW119281   9.610   6.999   0.675
 3059SOL    HW219282   9.524   6.878   0.744
 3060SOL     OW19283   1.075   0.091   1.233
 3060SOL    HW119284   1.152   0.053   1.284
 3060SOL    HW219285   1.076   0.191   1.240
 3061SOL     OW19286   2.830   5.809   0.367
 3061SOL    HW119287   2.920   5.831   0.330
 3061SOL    HW219288   2.788   5.737   0.312
 3062SOL     OW19289   4.972   3.965   1.196
 3062SOL    HW119290   4.881   4.005   1.182
 3062SOL    HW219291   5.032   4.033   1.239
 3063SOL     OW19292   0.466   2.524   0.100
 3063SOL    HW119293   0.460   2.578   0.016
 3063SOL    HW219294   0.374   2.492   0.125
 3064SOL     OW19295   9.986   8.622   2.029
 3064SOL    HW119296   0.035   8.547   1.984
 3064SOL    HW219297   9.991   8.703   1.972
 3065SOL     OW19298   3.307   3.251   1.436
 3065SOL    HW119299   3.298   3.303   1.521
 3065SOL    HW219300   3.315   3.313   1.359
 3066SOL     OW19301   1.668   1.107   0.586
 3066SOL    HW119302   1.638   1.103   0.682
 3066SOL    HW219303   1.727   1.028   0.567
 3067SOL     OW19304   9.985   0.189   2.065
 3067SOL    HW119305   9.954   0.100   2.097
 3067SOL    HW219306   9.932   0.216   1.985
 3068SOL     OW19307   2.660   2.813   1.422
 3068SOL    HW119308   2.681   2.874   1.499
 3068SOL    HW219309   2.614   2.731   1.456
 3069SOL     OW19310   9.387   9.872   1.868
 3069SOL    HW119311   9.385   9.920   1.780
 3069SOL    HW219312   9.394   9.774   1.852
 3070SOL     OW19313   0.648   8.607   0.565
 3070SOL    HW119314   0.551   8.584   0.573
 3070SOL    HW219315   0.659   8.706   0.569
 3071SOL     OW19316   8.700   3.127   0.054
 3071SOL    HW119317   8.752   3.100   0.135
 3071SOL    HW219318   8.761   3.137   2.917
 3072SOL     OW19319   2.371   3.675   1.885
 3072SOL    HW119320   2.442   3.636   1.825
 3072SOL    HW219321   2.414   3.732   1.954
 3073SOL     OW19322   0.719   6.904   1.160
 3073SOL    HW119323   0.760   6.826   1.208
 3073SOL    HW219324   0.791   6.970   1.138
 3074SOL     OW19325   0.063   7.610   0.756
 3074SOL    HW119326   9.981   7.555   0.767
 3074SOL    HW219327   0.056   7.692   0.813
 3075SOL     OW19328   8.372   0.554   0.151
 3075SOL    HW119329   8.470   0.545   0.131
 3075SOL    HW219330   8.352   0.510   0.238
 3076SOL     OW19331   0.446   3.914   0.513
 3076SOL    HW119332   0.526   3.913   0.574
 3076SOL    HW219333   0.364   3.896   0.567
 3077SOL     OW19334   4.385   4.583   2.191
 3077SOL    HW119335   4.387   4.572   2.291
 3077SOL    HW219336   4.472   4.553   2.153
 3078SOL     OW19337   3.508   0.435   0.129
 3078SOL    HW119338   3.583   0.500   0.140
 3078SOL    HW219339   3.514   0.364   0.200
 3079SOL     OW19340   9.092   9.005   0.376
 3079SOL    HW119341   9.172   9.053   0.342
 3079SOL    HW219342   9.072   9.036   0.469
 3080SOL     OW19343   1.064   0.722   0.566
 3080SOL    HW119344   1.026   0.810   0.592
 3080SOL    HW219345   1.132   0.735   0.494
 3081SOL     OW19346   2.903   9.965   0.218
 3081SOL    HW119347   2.954   0.031   0.274
 3081SOL    HW219348   2.823   0.009   0.179
 3082SOL     OW19349   2.770   5.102   0.960
 3082SOL    HW119350   2.806   5.172   1.022
 3082SOL    HW219351   2.808   5.115   0.869
 3083SOL     OW19352   1.479   3.696   0.297
 3083SOL    HW119353   1.381   3.702   0.280
 3083SOL    HW219354   1.528   3.682   0.211
 3084SOL     OW19355   9.396   4.404   1.178
 3084SOL    HW119356   9.297   4.402   1.163
 3084SOL    HW219357   9.440   4.458   1.106
 3085SOL     OW19358   9.833   7.075   1.756
 3085SOL    HW119359   9.896   7.046   1.684
 3085SOL    HW219360   9.745   7.100   1.715
 3086SOL     OW19361   3.170   1.615   1.099
 3086SOL    HW119362   3.087   1.584   1.053
 3086SOL    HW219363   3.174   1.575   1.190
 3087SOL     OW19364   9.131   1.160   0.253
 3087SOL    HW119365   9.206   1.105   0.216
 3087SOL    HW219366   9.063   1.099   0.295
 3088SOL     OW19367   2.791   4.671   1.002
 3088SOL    HW119368   2.733   4.747   1.033
 3088SOL    HW219369   2.797   4.674   0.902
 3089SOL     OW19370   0.047   4.311   0.158
 3089SOL    HW119371   9.984   4.369   0.209
 3089SOL    HW219372   0.135   4.357   0.149
 3090SOL     OW19373   3.053   4.044   0.790
 3090SOL    HW119374   2.963   4.086   0.803
 3090SOL    HW219375   3.117   4.114   0.759
 3091SOL     OW19376   0.686   5.740   0.808
 3091SOL    HW119377   0.720   5.646   0.812
 3091SOL    HW219378   0.683   5.770   0.712
 3092SOL     OW19379   2.857   8.561   1.687
 3092SOL    HW119380   2.762   8.545   1.663
 3092SOL    HW219381   2.913   8.561   1.604
 3093SOL     OW19382   2.721   9.423   0.386
 3093SOL    HW119383   2.770   9.438   0.300
 3093SOL    HW219384   2.648   9.357   0.371
 3094SOL     OW19385   9.794   3.938   2.119
 3094SOL    HW119386   9.696   3.954   2.108
 3094SOL    HW219387   9.812   3.840   2.128
 3095SOL     OW19388   2.342   9.642   0.325
 3095SOL    HW119389   2.411   9.641   0.397
 3095SOL    HW219390   2.257   9.681   0.362
 3096SOL     OW19391   8.943   0.761   0.515
 3096SOL    HW119392   8.934   0.757   0.615
 3096SOL    HW219393   8.865   0.716   0.472
 3097SOL     OW19394   2.210   4.277   0.784
 3097SOL    HW119395   2.153   4.356   0.809
 3097SOL    HW219396   2.267   4.300   0.705
 3098SOL     OW19397   3.884   4.831   1.757
 3098SOL    HW119398   3.932   4.876   1.833
 3098SOL    HW219399   3.834   4.752   1.792
 3099SOL     OW19400   3.667   8.710   1.490
 3099SOL    HW119401   3.756   8.671   1.511
 3099SOL    HW219402   3.679   8.786   1.426
 3100SOL     OW19403   9.338   4.551   0.579
 3100SOL    HW119404   9.286   4.473   0.614
 3100SOL    HW219405   9.314   4.633   0.630
 3101SOL     OW19406   1.913   6.442   2.197
 3101SOL    HW119407   1.930   6.376   2.123
 3101SOL    HW219408   1.999   6.487   2.220
 3102SOL     OW19409   2.583   6.422   1.614
 3102SOL    HW119410   2.576   6.483   1.694
 3102SOL    HW219411   2.630   6.338   1.641
 3103SOL     OW19412   1.328   0.825   1.242
 3103SOL    HW119413   1.295   0.846   1.334
 3103SOL    HW219414   1.426   0.845   1.238
 3104SOL     OW19415   1.180   0.786   0.180
 3104SOL    HW119416   1.099   0.730   0.165
 3104SOL    HW219417   1.231   0.753   0.260
 3105SOL     OW19418   9.393   9.376   1.338
 3105SOL    HW119419   9.326   9.400   1.268
 3105SOL    HW219420   9.440   9.292   1.311
 3106SOL     OW19421   0.152   8.497   1.465
 3106SOL    HW119422   0.228   8.547   1.505
 3106SOL    HW219423   0.108   8.440   1.536
 3107SOL     OW19424   8.914   8.387   0.258
 3107SOL    HW119425   8.903   8.363   0.161
 3107SOL    HW219426   8.857   8.327   0.314
 3108SOL     OW19427   1.991   0.523   2.009
 3108SOL    HW119428   1.903   0.530   2.056
 3108SOL    HW219429   1.993   0.588   1.933
 3109SOL     OW19430   4.938   3.716   1.309
 3109SOL    HW119431   4.846   3.684   1.289
 3109SOL    HW219432   4.955   3.803   1.262
 3110SOL     OW19433   9.770   7.922   0.145
 3110SOL    HW119434   9.763   7.910   0.046
 3110SOL    HW219435   9.732   7.841   0.191
 3111SOL     OW19436   8.946   7.871   0.752
 3111SOL    HW119437   8.976   7.777   0.771
 3111SOL    HW219438   8.867   7.893   0.809
 3112SOL     OW19439   7.889   9.426   2.040
 3112SOL    HW119440   7.904   9.388   1.949
 3112SOL    HW219441   7.873   9.352   2.105
 3113SOL     OW19442   3.439   3.644   2.084
 3113SOL    HW119443   3.528   3.622   2.123
 3113SOL    HW219444   3.407   3.731   2.122
 3114SOL     OW19445   3.390   3.144   0.919
 3114SOL    HW119446   3.401   3.130   0.821
 3114SOL    HW219447   3.403   3.058   0.968
 3115SOL     OW19448   4.925   9.881   1.599
 3115SOL    HW119449   5.020   9.850   1.593
 3115SOL    HW219450   4.884   9.849   1.685
 3116SOL     OW19451   3.467   4.584   1.188
 3116SOL    HW119452   3.485   4.646   1.264
 3116SOL    HW219453   3.549   4.576   1.131
 3117SOL     OW19454   2.695   3.720   1.218
 3117SOL    HW119455   2.678   3.770   1.303
 3117SOL    HW219456   2.751   3.776   1.158
 3118SOL     OW19457   9.645   5.162   2.090
 3118SOL    HW119458   9.661   5.143   2.187
 3118SOL    HW219459   9.731   5.184   2.045
 3119SOL     OW19460   7.792   2.855   0.125
 3119SOL    HW119461   7.695   2.844   0.148
 3119SOL    HW219462   7.840   2.768   0.139
 3120SOL     OW19463   9.672   8.750   1.255
 3120SOL    HW119464   9.590   8.808   1.251
 3120SOL    HW219465   9.752   8.803   1.229
 3121SOL     OW19466   9.875   8.159   0.413
 3121SOL    HW119467   9.893   8.217   0.334
 3121SOL    HW219468   9.779   8.131   0.413
 3122SOL     OW19469   9.827   7.776   1.522
 3122SOL    HW119470   9.870   7.866   1.526
 3122SOL    HW219471   9.826   7.744   1.427
 3123SOL     OW19472   3.886   2.799   1.037
 3123SOL    HW119473   3.868   2.702   1.027
 3123SOL    HW219474   3.979   2.813   1.072
 3124SOL     OW19475   0.134   6.051   1.005
 3124SOL    HW119476   0.231   6.029   1.004
 3124SOL    HW219477   0.120   6.138   1.054
 3125SOL     OW19478   8.172   8.113   1.409
 3125SOL    HW119479   8.159   8.211   1.393
 3125SOL    HW219480   8.130   8.087   1.496
 3126SOL     OW19481   0.706   3.628   0.559
 3126SOL    HW119482   0.714   3.727   0.564
 3126SOL    HW219483   0.611   3.601   0.574
 3127SOL     OW19484   3.459   2.327   1.754
 3127SOL    HW119485   3.401   2.399   1.791
 3127SOL    HW219486   3.439   2.314   1.657
 3128SOL     OW19487   9.211   9.737   0.071
 3128SOL    HW119488   9.175   9.822   0.109
 3128SOL    HW219489   9.197   9.735   2.913
 3129SOL     OW19490   1.259   9.426   1.923
 3129SOL    HW119491   1.334   9.464   1.869
 3129SOL    HW219492   1.175   9.476   1.903
 3130SOL     OW19493   3.200   1.380   0.089
 3130SOL    HW119494   3.251   1.450   0.039
 3130SOL    HW219495   3.131   1.340   0.029
 3131SOL     OW19496   0.078   6.285   1.158
 3131SOL    HW119497   9.992   6.254   1.200
 3131SOL    HW219498   0.145   6.304   1.229
 3132SOL     OW19499   2.976   8.845   0.312
 3132SOL    HW119500   2.951   8.757   0.352
 3132SOL    HW219501   3.073   8.845   0.289
 3133SOL     OW19502   9.308   7.982   0.905
 3133SOL    HW119503   9.282   8.071   0.944
 3133SOL    HW219504   9.274   7.909   0.964
 3134SOL     OW19505   0.986   8.977   1.219
 3134SOL    HW119506   1.068   8.959   1.273
 3134SOL    HW219507   0.935   8.892   1.207
 3135SOL     OW19508   7.727   0.794   1.070
 3135SOL    HW119509   7.795   0.850   1.022
 3135SOL    HW219510   7.771   0.710   1.103
 3136SOL     OW19511   2.075   4.515   0.826
 3136SOL    HW119512   2.035   4.587   0.882
 3136SOL    HW219513   2.003   4.471   0.772
 3137SOL     OW19514   1.501   3.350   1.621
 3137SOL    HW119515   1.550   3.399   1.693
 3137SOL    HW219516   1.510   3.251   1.635
 3138SOL     OW19517   9.244   8.204   1.044
 3138SOL    HW119518   9.282   8.294   1.067
 3138SOL    HW219519   9.192   8.169   1.122
 3139SOL     OW19520   1.856   8.731   0.268
 3139SOL    HW119521   1.912   8.688   0.197
 3139SOL    HW219522   1.829   8.822   0.238
 3140SOL     OW19523   3.917   0.327   0.145
 3140SOL    HW119524   4.001   0.277   0.122
 3140SOL    HW219525   3.930   0.424   0.126
 3141SOL     OW19526   0.749   3.035   0.275
 3141SOL    HW119527   0.788   2.943   0.279
 3141SOL    HW219528   0.784   3.090   0.350
 3142SOL     OW19529   3.209   7.943   0.645
 3142SOL    HW119530   3.280   8.001   0.604
 3142SOL    HW219531   3.227   7.847   0.625
 3143SOL     OW19532   3.869   8.664   1.913
 3143SOL    HW119533   3.934   8.642   1.985
 3143SOL    HW219534   3.914   8.722   1.845
 3144SOL     OW19535   0.745   7.414   0.113
 3144SOL    HW119536   0.716   7.495   0.164
 3144SOL    HW219537   0.680   7.339   0.129
 3145SOL     OW19538   1.773   6.273   0.333
 3145SOL    HW119539   1.828   6.197   0.298
 3145SOL    HW219540   1.751   6.258   0.429
 3146SOL     OW19541   8.752   7.404   1.291
 3146SOL    HW119542   8.845   7.371   1.273
 3146SOL    HW219543   8.707   7.344   1.357
 3147SOL     OW19544   7.800   9.743   2.268
 3147SOL    HW119545   7.738   9.819   2.285
 3147SOL    HW219546   7.766   9.688   2.191
 3148SOL     OW19547   1.221   7.548   0.794
 3148SOL    HW119548   1.276   7.521   0.873
 3148SOL    HW219549   1.165   7.471   0.764
 3149SOL     OW19550   8.414   8.582   0.554
 3149SOL    HW119551   8.433   8.517   0.628
 3149SOL    HW219552   8.408   8.674   0.591
 3150SOL     OW19553   0.748   5.466   0.906
 3150SOL    HW119554   0.822   5.439   0.843
 3150SOL    HW219555   0.782   5.467   1.000
 3151SOL     OW19556   1.674   1.461   1.644
 3151SOL    HW119557   1.760   1.462   1.592
 3151SOL    HW219558   1.680   1.526   1.720
 3152SOL     OW19559   0.652   1.512   0.598
 3152SOL    HW119560   0.626   1.468   0.512
 3152SOL    HW219561   0.748   1.493   0.618
 3153SOL     OW19562   2.359   4.539   0.882
 3153SOL    HW119563   2.370   4.560   0.980
 3153SOL    HW219564   2.262   4.541   0.858
 3154SOL     OW19565   0.617   6.727   2.101
 3154SOL    HW119566   0.626   6.627   2.109
 3154SOL    HW219567   0.707   6.769   2.111
 3155SOL     OW19568   9.379   7.362   1.935
 3155SOL    HW119569   9.364   7.281   1.991
 3155SOL    HW219570   9.316   7.361   1.857
 3156SOL     OW19571   0.853   4.405   0.967
 3156SOL    HW119572   0.757   4.417   0.942
 3156SOL    HW219573   0.882   4.481   1.025
 3157SOL     OW19574   9.768   7.284   1.931
 3157SOL    HW119575   9.717   7.353   1.880
 3157SOL    HW219576   9.805   7.217   1.867
 3158SOL     OW19577   0.943   0.484   0.642
 3158SOL    HW119578   0.932   0.435   0.555
 3158SOL    HW219579   0.980   0.575   0.625
 3159SOL     OW19580   0.740   0.872   1.940
 3159SOL    HW119581   0.832   0.908   1.919
 3159SOL    HW219582   0.672   0.926   1.890
 3160SOL     OW19583   1.624   6.577   1.560
 3160SOL    HW119584   1.533   6.618   1.558
 3160SOL    HW219585   1.625   6.500   1.624
 3161SOL     OW19586   7.961   8.970   2.106
 3161SOL    HW119587   7.955   8.964   2.006
 3161SOL    HW219588   7.999   8.885   2.143
 3162SOL     OW19589   1.010   8.674   2.164
 3162SOL    HW119590   1.110   8.670   2.166
 3162SOL    HW219591   0.980   8.770   2.160
 3163SOL     OW19592   1.190   0.232   0.353
 3163SOL    HW119593   1.107   0.176   0.357
 3163SOL    HW219594   1.259   0.186   0.297
 3164SOL     OW19595   1.852   1.897   0.228
 3164SOL    HW119596   1.904   1.884   0.312
 3164SOL    HW219597   1.915   1.918   0.153
 3165SOL     OW19598   8.886   7.059   2.165
 3165SOL    HW119599   8.787   7.057   2.177
 3165SOL    HW219600   8.913   6.987   2.101
 3166SOL     OW19601   3.105   8.126   1.566
 3166SOL    HW119602   3.189   8.178   1.550
 3166SOL    HW219603   3.036   8.151   1.498
 3167SOL     OW19604   0.446   5.545   0.961
 3167SOL    HW119605   0.450   5.559   1.060
 3167SOL    HW219606   0.538   5.536   0.924
 3168SOL     OW19607   1.509   0.838   0.972
 3168SOL    HW119608   1.410   0.821   0.968
 3168SOL    HW219609   1.535   0.859   1.067
 3169SOL     OW19610   3.977   3.383   1.617
 3169SOL    HW119611   4.050   3.365   1.551
 3169SOL    HW219612   3.893   3.338   1.586
 3170SOL     OW19613   7.970   9.085   1.560
 3170SOL    HW119614   7.960   9.001   1.506
 3170SOL    HW219615   7.894   9.147   1.540
 3171SOL     OW19616   1.055   8.776   0.415
 3171SOL    HW119617   0.997   8.802   0.493
 3171SOL    HW219618   1.130   8.719   0.447
 3172SOL     OW19619   9.820   2.979   0.129
 3172SOL    HW119620   9.910   2.942   0.103
 3172SOL    HW219621   9.773   3.011   0.047
 3173SOL     OW19622   1.912   9.857   2.069
 3173SOL    HW119623   1.862   9.943   2.063
 3173SOL    HW219624   2.005   9.875   2.101
 3174SOL     OW19625   8.521   1.949   2.188
 3174SOL    HW119626   8.462   2.030   2.197
 3174SOL    HW219627   8.480   1.886   2.122
 3175SOL     OW19628   9.715   4.979   0.799
 3175SOL    HW119629   9.747   5.058   0.747
 3175SOL    HW219630   9.712   5.003   0.896
 3176SOL     OW19631   0.457   5.915   1.918
 3176SOL    HW119632   0.517   5.995   1.926
 3176SOL    HW219633   0.451   5.887   1.823
 3177SOL     OW19634   4.118   3.268   1.828
 3177SOL    HW119635   4.215   3.286   1.811
 3177SOL    HW219636   4.063   3.309   1.754
 3178SOL     OW19637   2.640   6.484   0.863
 3178SOL    HW119638   2.705   6.441   0.926
 3178SOL    HW219639   2.575   6.540   0.915
 3179SOL     OW19640   0.113   8.154   1.242
 3179SOL    HW119641   0.154   8.123   1.328
 3179SOL    HW219642   0.152   8.243   1.217
 3180SOL     OW19643   1.754   0.547   2.138
 3180SOL    HW119644   1.674   0.488   2.143
 3180SOL    HW219645   1.726   0.642   2.157
 3181SOL     OW19646   3.453   5.275   0.770
 3181SOL    HW119647   3.415   5.189   0.805
 3181SOL    HW219648   3.509   5.256   0.690
 3182SOL     OW19649   7.714   9.632   2.017
 3182SOL    HW119650   7.622   9.595   2.018
 3182SOL    HW219651   7.780   9.557   2.027
 3183SOL     OW19652   4.512   2.405   1.724
 3183SOL    HW119653   4.502   2.454   1.811
 3183SOL    HW219654   4.455   2.448   1.655
 3184SOL     OW19655   0.668   5.220   1.280
 3184SOL    HW119656   0.601   5.145   1.276
 3184SOL    HW219657   0.757   5.183   1.305
 3185SOL     OW19658   0.106   3.064   1.274
 3185SOL    HW119659   0.011   3.086   1.296
 3185SOL    HW219660   0.167   3.107   1.340
 3186SOL     OW19661   4.282   4.824   0.208
 3186SOL    HW119662   4.348   4.758   0.173
 3186SOL    HW219663   4.219   4.779   0.270
 3187SOL     OW19664   8.579   9.674   0.459
 3187SOL    HW119665   8.526   9.752   0.494
 3187SOL    HW219666   8.660   9.708   0.410
 3188SOL     OW19667   0.157   3.668   2.102
 3188SOL    HW119668   0.149   3.727   2.022
 3188SOL    HW219669   0.171   3.724   2.183
 3189SOL     OW19670   8.930   2.721   1.066
 3189SOL    HW119671   9.012   2.703   1.121
 3189SOL    HW219672   8.861   2.653   1.087
 3190SOL     OW19673   2.750   9.187   1.016
 3190SOL    HW119674   2.849   9.203   1.012
 3190SOL    HW219675   2.708   9.220   0.932
 3191SOL     OW19676   1.718   3.396   0.729
 3191SOL    HW119677   1.669   3.335   0.666
 3191SOL    HW219678   1.691   3.490   0.711
 3192SOL     OW19679   2.095   7.613   0.307
 3192SOL    HW119680   2.156   7.540   0.277
 3192SOL    HW219681   2.045   7.649   0.228
 3193SOL     OW19682   0.893   9.409   0.774
 3193SOL    HW119683   0.798   9.440   0.766
 3193SOL    HW219684   0.896   9.309   0.776
 3194SOL     OW19685   1.042   2.652   0.437
 3194SOL    HW119686   1.035   2.574   0.499
 3194SOL    HW219687   1.139   2.670   0.417
 3195SOL     OW19688   2.094   0.122   2.063
 3195SOL    HW119689   1.996   0.140   2.073
 3195SOL    HW219690   2.144   0.208   2.067
 3196SOL     OW19691   2.268   9.966   0.937
 3196SOL    HW119692   2.197   0.026   0.973
 3196SOL    HW219693   2.238   9.870   0.946
 3197SOL     OW19694   2.185   6.937   1.930
 3197SOL    HW119695   2.100   6.914   1.978
 3197SOL    HW219696   2.244   6.988   1.993
 3198SOL     OW19697   3.032   9.156   0.654
 3198SOL    HW119698   2.997   9.241   0.691
 3198SOL    HW219699   3.001   9.079   0.710
 3199SOL     OW19700   1.046   1.780   0.469
 3199SOL    HW119701   1.094   1.759   0.554
 3199SOL    HW219702   0.947   1.781   0.485
 3200SOL     OW19703   8.820   6.394   0.925
 3200SOL    HW119704   8.852   6.484   0.895
 3200SOL    HW219705   8.779   6.403   1.016
 3201SOL     OW19706   1.088   3.569   1.891
 3201SOL    HW119707   1.044   3.479   1.886
 3201SOL    HW219708   1.161   3.567   1.959
 3202SOL     OW19709   4.635   3.235   0.219
 3202SOL    HW119710   4.561   3.293   0.255
 3202SOL    HW219711   4.708   3.294   0.183
 3203SOL     OW19712   7.926   2.625   0.166
 3203SOL    HW119713   7.931   2.545   0.107
 3203SOL    HW219714   7.993   2.617   0.240
 3204SOL     OW19715   8.763   8.223   0.408
 3204SOL    HW119716   8.677   8.263   0.438
 3204SOL    HW219717   8.811   8.185   0.488
 3205SOL     OW19718   9.852   1.802   0.800
 3205SOL    HW119719   9.841   1.797   0.899
 3205SOL    HW219720   9.926   1.741   0.771
 3206SOL     OW19721   0.484   0.518   0.879
 3206SOL    HW119722   0.439   0.595   0.926
 3206SOL    HW219723   0.488   0.439   0.940
 3207SOL     OW19724   2.662   9.088   0.609
 3207SOL    HW119725   2.692   9.013   0.669
 3207SOL    HW219726   2.661   9.173   0.661
 3208SOL     OW19727   9.709   0.525   1.841
 3208SOL    HW119728   9.612   0.549   1.836
 3208SOL    HW219729   9.750   0.567   1.921
 3209SOL     OW19730   1.345   5.499   0.569
 3209SOL    HW119731   1.404   5.579   0.575
 3209SOL    HW219732   1.365   5.436   0.644
 3210SOL     OW19733   2.676   2.418   1.109
 3210SOL    HW119734   2.658   2.372   1.022
 3210SOL    HW219735   2.732   2.499   1.093
 3211SOL     OW19736   3.546   1.715   1.625
 3211SOL    HW119737   3.461   1.703   1.676
 3211SOL    HW219738   3.534   1.680   1.532
 3212SOL     OW19739   2.468   7.346   1.120
 3212SOL    HW119740   2.427   7.270   1.171
 3212SOL    HW219741   2.403   7.422   1.114
 3213SOL     OW19742   9.221   0.464   1.392
 3213SOL    HW119743   9.304   0.408   1.399
 3213SOL    HW219744   9.246   0.561   1.390
 3214SOL     OW19745   2.052   0.112   1.067
 3214SOL    HW119746   2.012   0.020   1.068
 3214SOL    HW219747   1.981   0.179   1.090
 3215SOL     OW19748   1.179   6.803   1.385
 3215SOL    HW119749   1.172   6.871   1.458
 3215SOL    HW219750   1.167   6.847   1.297
 3216SOL     OW19751   0.728   3.091   2.126
 3216SOL    HW119752   0.690   3.151   2.197
 3216SOL    HW219753   0.821   3.066   2.150
 3217SOL     OW19754   9.174   6.565   1.413
 3217SOL    HW119755   9.139   6.474   1.435
 3217SOL    HW219756   9.268   6.557   1.379
 3218SOL     OW19757   4.056   0.253   1.756
 3218SOL    HW119758   4.146   0.264   1.713
 3218SOL    HW219759   4.064   0.261   1.855
 3219SOL     OW19760   3.435   9.717   2.004
 3219SOL    HW119761   3.485   9.755   1.927
 3219SOL    HW219762   3.343   9.756   2.006
 3220SOL     OW19763   0.282   3.102   1.633
 3220SOL    HW119764   0.184   3.095   1.614
 3220SOL    HW219765   0.296   3.114   1.731
 3221SOL     OW19766   3.207   3.279   0.341
 3221SOL    HW119767   3.173   3.371   0.321
 3221SOL    HW219768   3.304   3.273   0.315
 3222SOL     OW19769   0.594   0.751   1.617
 3222SOL    HW119770   0.677   0.807   1.619
 3222SOL    HW219771   0.541   0.767   1.700
 3223SOL     OW19772   7.844   9.205   2.189
 3223SOL    HW119773   7.893   9.121   2.162
 3223SOL    HW219774   7.754   9.180   2.224
 3224SOL     OW19775   3.382   4.179   2.043
 3224SOL    HW119776   3.463   4.230   2.071
 3224SOL    HW219777   3.301   4.237   2.052
 3225SOL     OW19778   4.124   4.684   0.391
 3225SOL    HW119779   4.044   4.743   0.398
 3225SOL    HW219780   4.096   4.589   0.380
 3226SOL     OW19781   9.177   6.009   2.184
 3226SOL    HW119782   9.276   5.996   2.184
 3226SOL    HW219783   9.135   5.946   2.118
 3227SOL     OW19784   2.597   1.575   2.051
 3227SOL    HW119785   2.537   1.503   2.085
 3227SOL    HW219786   2.633   1.548   1.962
 3228SOL     OW19787   4.846   3.416   0.128
 3228SOL    HW119788   4.907   3.492   0.147
 3228SOL    HW219789   4.897   3.339   0.089
 3229SOL     OW19790   2.586   2.141   1.731
 3229SOL    HW119791   2.586   2.238   1.708
 3229SOL    HW219792   2.551   2.129   1.824
 3230SOL     OW19793   8.362   6.929   1.079
 3230SOL    HW119794   8.381   6.843   1.126
 3230SOL    HW219795   8.290   6.979   1.127
 3231SOL     OW19796   3.940   8.833   2.207
 3231SOL    HW119797   3.976   8.742   2.186
 3231SOL    HW219798   3.931   8.885   2.122
 3232SOL     OW19799   2.572   7.201   0.403
 3232SOL    HW119800   2.473   7.210   0.410
 3232SOL    HW219801   2.601   7.219   0.309
 3233SOL     OW19802   9.232   1.353   0.417
 3233SOL    HW119803   9.176   1.435   0.432
 3233SOL    HW219804   9.178   1.285   0.368
 3234SOL     OW19805   3.132   3.538   0.283
 3234SOL    HW119806   3.217   3.590   0.272
 3234SOL    HW219807   3.060   3.581   0.230
 3235SOL     OW19808   4.212   3.002   1.839
 3235SOL    HW119809   4.171   3.093   1.833
 3235SOL    HW219810   4.295   2.998   1.783
 3236SOL     OW19811   2.702   4.360   1.573
 3236SOL    HW119812   2.788   4.393   1.534
 3236SOL    HW219813   2.627   4.382   1.510
 3237SOL     OW19814   3.162   4.343   2.050
 3237SOL    HW119815   3.170   4.427   2.103
 3237SOL    HW219816   3.071   4.304   2.064
 3238SOL     OW19817   2.903   0.381   0.499
 3238SOL    HW119818   2.868   0.450   0.435
 3238SOL    HW219819   2.833   0.361   0.568
 3239SOL     OW19820   0.294   7.686   1.049
 3239SOL    HW119821   0.317   7.615   1.116
 3239SOL    HW219822   0.200   7.716   1.063
 3240SOL     OW19823   3.573   4.533   0.862
 3240SOL    HW119824   3.639   4.562   0.931
 3240SOL    HW219825   3.511   4.609   0.842
 3241SOL     OW19826   9.585   7.666   1.595
 3241SOL    HW119827   9.677   7.702   1.583
 3241SOL    HW219828   9.532   7.682   1.511
 3242SOL     OW19829   1.952   9.576   2.084
 3242SOL    HW119830   1.888   9.529   2.023
 3242SOL    HW219831   1.920   9.670   2.099
 3243SOL     OW19832   9.854   3.622   0.560
 3243SOL    HW119833   9.912   3.704   0.567
 3243SOL    HW219834   9.909   3.545   0.527
 3244SOL     OW19835   2.106   4.627   0.330
 3244SOL    HW119836   2.096   4.727   0.328
 3244SOL    HW219837   2.015   4.585   0.335
 3245SOL     OW19838   3.882   1.024   1.096
 3245SOL    HW119839   3.890   0.928   1.067
 3245SOL    HW219840   3.814   1.070   1.040
 3246SOL     OW19841   3.397   1.222   1.751
 3246SOL    HW119842   3.359   1.307   1.789
 3246SOL    HW219843   3.487   1.241   1.711
 3247SOL     OW19844   0.124   7.215   0.139
 3247SOL    HW119845   0.183   7.293   0.116
 3247SOL    HW219846   0.171   7.130   0.117
 3248SOL     OW19847   4.369   0.734   2.202
 3248SOL    HW119848   4.446   0.785   2.239
 3248SOL    HW219849   4.394   0.695   2.114
 3249SOL     OW19850   9.873   3.211   0.874
 3249SOL    HW119851   9.850   3.123   0.916
 3249SOL    HW219852   9.794   3.273   0.882
 3250SOL     OW19853   3.780   9.012   1.773
 3250SOL    HW119854   3.686   8.992   1.802
 3250SOL    HW219855   3.840   9.008   1.853
 3251SOL     OW19856   8.056   9.806   2.183
 3251SOL    HW119857   7.972   9.789   2.234
 3251SOL    HW219858   8.074   9.730   2.121
 3252SOL     OW19859   2.421   4.222   2.048
 3252SOL    HW119860   2.472   4.159   1.989
 3252SOL    HW219861   2.445   4.316   2.025
 3253SOL     OW19862   1.750   0.040   1.772
 3253SOL    HW119863   1.842   0.039   1.732
 3253SOL    HW219864   1.690   9.980   1.719
 3254SOL     OW19865   8.504   1.489   0.725
 3254SOL    HW119866   8.597   1.473   0.758
 3254SOL    HW219867   8.443   1.420   0.764
 3255SOL     OW19868   4.389   3.340   0.350
 3255SOL    HW119869   4.340   3.253   0.351
 3255SOL    HW219870   4.389   3.379   0.442
 3256SOL     OW19871   8.805   3.169   2.150
 3256SOL    HW119872   8.849   3.183   2.062
 3256SOL    HW219873   8.763   3.078   2.152
 3257SOL     OW19874   4.635   0.979   1.815
 3257SOL    HW119875   4.581   1.007   1.736
 3257SOL    HW219876   4.629   0.879   1.825
 3258SOL     OW19877   0.398   5.743   0.102
 3258SOL    HW119878   0.419   5.779   0.011
 3258SOL    HW219879   0.321   5.680   0.096
 3259SOL     OW19880   2.134   6.125   0.430
 3259SOL    HW119881   2.132   6.055   0.502
 3259SOL    HW219882   2.136   6.216   0.472
 3260SOL     OW19883   9.388   6.971   1.512
 3260SOL    HW119884   9.423   6.914   1.588
 3260SOL    HW219885   9.389   7.067   1.540
 3261SOL     OW19886   3.094   1.619   2.016
 3261SOL    HW119887   3.004   1.606   2.056
 3261SOL    HW219888   3.114   1.717   2.011
 3262SOL     OW19889   8.133   6.591   2.255
 3262SOL    HW119890   8.064   6.519   2.260
 3262SOL    HW219891   8.225   6.551   2.261
 3263SOL     OW19892   9.683   7.903   1.140
 3263SOL    HW119893   9.607   7.943   1.192
 3263SOL    HW219894   9.677   7.933   1.045
 3264SOL     OW19895   9.373   0.573   0.565
 3264SOL    HW119896   9.409   0.490   0.607
 3264SOL    HW219897   9.430   0.599   0.487
 3265SOL     OW19898   0.477   3.350   0.155
 3265SOL    HW119899   0.418   3.412   0.102
 3265SOL    HW219900   0.569   3.351   0.117
 3266SOL     OW19901   0.213   2.376   0.438
 3266SOL    HW119902   0.279   2.317   0.484
 3266SOL    HW219903   0.153   2.418   0.505
 3267SOL     OW19904   2.892   4.538   0.017
 3267SOL    HW119905   2.976   4.484   0.013
 3267SOL    HW219906   2.915   4.635   0.026
 3268SOL     OW19907   2.015   0.009   1.686
 3268SOL    HW119908   2.075   0.065   1.628
 3268SOL    HW219909   2.069   9.970   1.761
 3269SOL     OW19910   8.372   7.298   0.100
 3269SOL    HW119911   8.406   7.213   0.142
 3269SOL    HW219912   8.276   7.311   0.126
 3270SOL     OW19913   9.830   5.521   1.334
 3270SOL    HW119914   9.775   5.491   1.413
 3270SOL    HW219915   9.771   5.531   1.254
 3271SOL     OW19916   2.440   0.346   0.963
 3271SOL    HW119917   2.439   0.327   0.865
 3271SOL    HW219918   2.447   0.260   1.014
 3272SOL     OW19919   9.812   9.142   1.325
 3272SOL    HW119920   9.883   9.212   1.325
 3272SOL    HW219921   9.842   9.064   1.271
 3273SOL     OW19922   2.505   8.750   0.597
 3273SOL    HW119923   2.578   8.698   0.553
 3273SOL    HW219924   2.441   8.782   0.527
 3274SOL     OW19925   7.595   9.117   2.273
 3274SOL    HW119926   7.504   9.158   2.263
 3274SOL    HW219927   7.597   9.062   2.356
 3275SOL     OW19928   9.006   9.140   0.607
 3275SOL    HW119929   8.987   9.213   0.542
 3275SOL    HW219930   8.925   9.120   0.661
 3276SOL     OW19931   8.273   1.142   2.129
 3276SOL    HW119932   8.247   1.232   2.164
 3276SOL    HW219933   8.294   1.149   2.032
 3277SOL     OW19934   8.327   9.879   0.076
 3277SOL    HW119935   8.357   9.870   2.922
 3277SOL    HW219936   8.235   9.918   0.078
 3278SOL     OW19937   4.842   9.041   1.713
 3278SOL    HW119938   4.838   9.139   1.692
 3278SOL    HW219939   4.938   9.015   1.727
 3279SOL     OW19940   4.328   1.504   0.766
 3279SOL    HW119941   4.357   1.578   0.827
 3279SOL    HW219942   4.373   1.514   0.677
 3280SOL     OW19943   9.907   8.921   1.893
 3280SOL    HW119944   9.934   8.998   1.835
 3280SOL    HW219945   9.896   8.839   1.837
 3281SOL     OW19946   3.099   7.442   0.197
 3281SOL    HW119947   3.190   7.448   0.239
 3281SOL    HW219948   3.087   7.518   0.133
 3282SOL     OW19949   8.409   9.221   1.215
 3282SOL    HW119950   8.313   9.228   1.243
 3282SOL    HW219951   8.455   9.307   1.235
 3283SOL     OW19952   8.415   2.151   1.756
 3283SOL    HW119953   8.370   2.240   1.747
 3283SOL    HW219954   8.364   2.094   1.820
 3284SOL     OW19955   2.248   4.594   2.028
 3284SOL    HW119956   2.341   4.559   2.026
 3284SOL    HW219957   2.187   4.524   2.066
 3285SOL     OW19958   1.509   2.536   0.539
 3285SOL    HW119959   1.606   2.552   0.557
 3285SOL    HW219960   1.497   2.451   0.487
 3286SOL     OW19961   7.956   0.820   1.328
 3286SOL    HW119962   7.947   0.835   1.427
 3286SOL    HW219963   7.925   0.901   1.279
 3287SOL     OW19964   9.717   5.225   1.731
 3287SOL    HW119965   9.650   5.154   1.757
 3287SOL    HW219966   9.783   5.236   1.804
 3288SOL     OW19967   4.823   9.772   1.827
 3288SOL    HW119968   4.850   9.676   1.825
 3288SOL    HW219969   4.724   9.780   1.839
 3289SOL     OW19970   1.367   7.645   0.588
 3289SOL    HW119971   1.304   7.619   0.661
 3289SOL    HW219972   1.397   7.563   0.539
 3290SOL     OW19973   0.734   5.241   0.586
 3290SOL    HW119974   0.780   5.269   0.502
 3290SOL    HW219975   0.642   5.280   0.589
 3291SOL     OW19976   0.120   5.058   1.941
 3291SOL    HW119977   0.202   5.114   1.939
 3291SOL    HW219978   0.134   4.974   1.888
 3292SOL     OW19979   0.434   9.980   1.058
 3292SOL    HW119980   0.419   9.894   1.010
 3292SOL    HW219981   0.532   9.994   1.072
 3293SOL     OW19982   2.971   6.252   0.108
 3293SOL    HW119983   2.921   6.225   0.191
 3293SOL    HW219984   2.928   6.209   0.029
 3294SOL     OW19985   8.699   7.226   0.841
 3294SOL    HW119986   8.791   7.196   0.817
 3294SOL    HW219987   8.632   7.167   0.796
 3295SOL     OW19988   1.921   1.039   0.316
 3295SOL    HW119989   1.952   0.974   0.246
 3295SOL    HW219990   1.872   0.991   0.388
 3296SOL     OW19991   1.257   8.590   0.478
 3296SOL    HW119992   1.303   8.590   0.389
 3296SOL    HW219993   1.326   8.587   0.551
 3297SOL     OW19994   9.958   4.784   1.593
 3297SOL    HW119995   0.002   4.872   1.614
 3297SOL    HW219996   9.952   4.773   1.494
 3298SOL     OW19997   8.083   2.235   0.633
 3298SOL    HW119998   8.094   2.155   0.574
 3298SOL    HW219999   8.069   2.204   0.728
 3299SOL     OW20000   9.079   7.293   0.972
 3299SOL    HW120001   9.019   7.260   0.899
 3299SOL    HW220002   9.175   7.287   0.943
 3300SOL     OW20003   0.700   7.208   0.587
 3300SOL    HW120004   0.605   7.237   0.603
 3300SOL    HW220005   0.736   7.167   0.671
 3301SOL     OW20006   3.441   4.585   1.572
 3301SOL    HW120007   3.481   4.639   1.498
 3301SOL    HW220008   3.363   4.533   1.538
 3302SOL     OW20009   1.943   0.580   0.186
 3302SOL    HW120010   1.982   0.548   0.272
 3302SOL    HW220011   1.850   0.546   0.177
 3303SOL     OW20012   2.966   4.365   1.454
 3303SOL    HW120013   2.976   4.290   1.520
 3303SOL    HW220014   2.928   4.329   1.369
 3304SOL     OW20015   1.007   3.287   0.289
 3304SOL    HW120016   1.054   3.198   0.289
 3304SOL    HW220017   1.070   3.358   0.321
 3305SOL     OW20018   1.820   5.408   1.737
 3305SOL    HW120019   1.760   5.452   1.670
 3305SOL    HW220020   1.770   5.338   1.787
 3306SOL     OW20021   8.897   0.332   0.674
 3306SOL    HW120022   8.904   0.233   0.686
 3306SOL    HW220023   8.820   0.353   0.613
 3307SOL     OW20024   0.613   0.929   0.449
 3307SOL    HW120025   0.524   0.961   0.418
 3307SOL    HW220026   0.607   0.899   0.544
 3308SOL     OW20027   8.776   9.090   0.750
 3308SOL    HW120028   8.699   9.152   0.762
 3308SOL    HW220029   8.743   8.999   0.725
 3309SOL     OW20030   8.111   8.260   1.821
 3309SOL    HW120031   8.075   8.344   1.780
 3309SOL    HW220032   8.106   8.267   1.920
 3310SOL     OW20033   2.112   3.683   1.959
 3310SOL    HW120034   2.085   3.618   2.030
 3310SOL    HW220035   2.210   3.672   1.939
 3311SOL     OW20036   2.260   1.802   1.536
 3311SOL    HW120037   2.300   1.892   1.557
 3311SOL    HW220038   2.305   1.763   1.456
 3312SOL     OW20039   3.416   4.697   2.128
 3312SOL    HW120040   3.389   4.744   2.044
 3312SOL    HW220041   3.515   4.679   2.125
 3313SOL     OW20042   3.318   0.090   1.617
 3313SOL    HW120043   3.224   0.096   1.648
 3313SOL    HW220044   3.380   0.090   1.696
 3314SOL     OW20045   0.876   1.159   1.529
 3314SOL    HW120046   0.966   1.160   1.487
 3314SOL    HW220047   0.865   1.240   1.587
 3315SOL     OW20048   0.523   8.775   1.895
 3315SOL    HW120049   0.544   8.794   1.799
 3315SOL    HW220050   0.587   8.825   1.953
 3316SOL     OW20051   0.305   2.709   1.538
 3316SOL    HW120052   0.358   2.633   1.499
 3316SOL    HW220053   0.359   2.793   1.532
 3317SOL     OW20054   9.214   9.414   1.772
 3317SOL    HW120055   9.135   9.395   1.831
 3317SOL    HW220056   9.197   9.379   1.680
 3318SOL     OW20057   9.372   2.492   0.395
 3318SOL    HW120058   9.463   2.532   0.408
 3318SOL    HW220059   9.315   2.513   0.475
 3319SOL     OW20060   0.809   6.439   0.716
 3319SOL    HW120061   0.879   6.465   0.650
 3319SOL    HW220062   0.722   6.483   0.693
 3320SOL     OW20063   8.821   1.817   1.467
 3320SOL    HW120064   8.869   1.757   1.403
 3320SOL    HW220065   8.819   1.910   1.431
 3321SOL     OW20066   2.588   0.407   1.470
 3321SOL    HW120067   2.513   0.471   1.454
 3321SOL    HW220068   2.643   0.438   1.547
 3322SOL     OW20069   5.293   3.402   0.692
 3322SOL    HW120070   5.314   3.424   0.787
 3322SOL    HW220071   5.283   3.304   0.682
 3323SOL     OW20072   3.973   3.238   0.605
 3323SOL    HW120073   3.988   3.278   0.514
 3323SOL    HW220074   3.998   3.304   0.675
 3324SOL     OW20075   8.881   6.501   0.152
 3324SOL    HW120076   8.948   6.567   0.183
 3324SOL    HW220077   8.856   6.521   0.057
 3325SOL     OW20078   8.882   2.205   2.187
 3325SOL    HW120079   8.827   2.122   2.192
 3325SOL    HW220080   8.822   2.284   2.176
 3326SOL     OW20081   3.839   9.618   1.512
 3326SOL    HW120082   3.911   9.635   1.445
 3326SOL    HW220083   3.783   9.542   1.481
 3327SOL     OW20084   3.796   5.406   0.484
 3327SOL    HW120085   3.797   5.467   0.563
 3327SOL    HW220086   3.778   5.458   0.401
 3328SOL     OW20087   4.139   5.787   0.238
 3328SOL    HW120088   4.228   5.829   0.255
 3328SOL    HW220089   4.115   5.726   0.313
 3329SOL     OW20090   1.597   5.837   2.125
 3329SOL    HW120091   1.656   5.759   2.146
 3329SOL    HW220092   1.590   5.848   2.026
 3330SOL     OW20093   9.014   7.021   1.277
 3330SOL    HW120094   9.110   7.049   1.280
 3330SOL    HW220095   9.008   6.921   1.288
 3331SOL     OW20096   9.776   5.932   1.340
 3331SOL    HW120097   9.690   5.917   1.388
 3331SOL    HW220098   9.777   5.879   1.256
 3332SOL     OW20099   1.292   3.061   0.631
 3332SOL    HW120100   1.203   3.091   0.665
 3332SOL    HW220101   1.300   2.961   0.641
 3333SOL     OW20102   0.786   9.912   0.468
 3333SOL    HW120103   0.800   9.816   0.445
 3333SOL    HW220104   0.687   9.931   0.472
 3334SOL     OW20105   2.070   4.652   1.626
 3334SOL    HW120106   2.002   4.592   1.667
 3334SOL    HW220107   2.057   4.746   1.657
 3335SOL     OW20108   2.254   7.958   0.761
 3335SOL    HW120109   2.160   7.941   0.734
 3335SOL    HW220110   2.296   8.024   0.699
 3336SOL     OW20111   2.194   9.936   1.894
 3336SOL    HW120112   2.194   9.848   1.941
 3336SOL    HW220113   2.162   0.007   1.956
 3337SOL     OW20114   8.986   4.478   0.746
 3337SOL    HW120115   8.998   4.566   0.699
 3337SOL    HW220116   9.066   4.420   0.728
 3338SOL     OW20117   2.408   8.086   2.250
 3338SOL    HW120118   2.321   8.127   2.223
 3338SOL    HW220119   2.473   8.093   2.174
 3339SOL     OW20120   8.354   8.144   0.492
 3339SOL    HW120121   8.284   8.183   0.553
 3339SOL    HW220122   8.423   8.213   0.472
 3340SOL     OW20123   0.774   0.857   0.233
 3340SOL    HW120124   0.723   0.881   0.316
 3340SOL    HW220125   0.850   0.921   0.220
 3341SOL     OW20126   8.452   0.735   1.228
 3341SOL    HW120127   8.483   0.740   1.133
 3341SOL    HW220128   8.361   0.776   1.235
 3342SOL     OW20129   8.792   0.061   1.856
 3342SOL    HW120130   8.813   0.144   1.805
 3342SOL    HW220131   8.842   0.061   1.942
 3343SOL     OW20132   9.588   0.717   0.912
 3343SOL    HW120133   9.671   0.731   0.965
 3343SOL    HW220134   9.521   0.666   0.967
 3344SOL     OW20135   2.949   5.677   1.142
 3344SOL    HW120136   2.854   5.675   1.110
 3344SOL    HW220137   3.009   5.642   1.071
 3345SOL     OW20138   9.163   6.280   2.194
 3345SOL    HW120139   9.261   6.300   2.204
 3345SOL    HW220140   9.149   6.181   2.199
 3346SOL     OW20141   2.125   2.781   0.873
 3346SOL    HW120142   2.178   2.766   0.957
 3346SOL    HW220143   2.165   2.728   0.798
 3347SOL     OW20144   9.865   7.102   0.179
 3347SOL    HW120145   9.794   7.162   0.143
 3347SOL    HW220146   9.955   7.142   0.163
 3348SOL     OW20147   9.373   2.903   1.556
 3348SOL    HW120148   9.429   2.822   1.575
 3348SOL    HW220149   9.357   2.953   1.641
 3349SOL     OW20150   1.494   1.408   1.444
 3349SOL    HW120151   1.547   1.383   1.362
 3349SOL    HW220152   1.557   1.434   1.517
 3350SOL     OW20153   8.934   8.620   0.888
 3350SOL    HW120154   8.834   8.627   0.881
 3350SOL    HW220155   8.966   8.547   0.828
 3351SOL     OW20156   9.019   7.611   0.810
 3351SOL    HW120157   9.019   7.599   0.910
 3351SOL    HW220158   9.081   7.545   0.769
 3352SOL     OW20159   1.510   3.646   2.239
 3352SOL    HW120160   1.481   3.649   2.334
 3352SOL    HW220161   1.433   3.616   2.182
 3353SOL     OW20162   1.989   7.568   1.791
 3353SOL    HW120163   2.036   7.598   1.708
 3353SOL    HW220164   1.978   7.646   1.853
 3354SOL     OW20165   2.743   3.010   0.298
 3354SOL    HW120166   2.811   2.940   0.320
 3354SOL    HW220167   2.779   3.100   0.318
 3355SOL     OW20168   9.965   5.640   1.578
 3355SOL    HW120169   9.974   5.738   1.561
 3355SOL    HW220170   9.914   5.598   1.503
 3356SOL     OW20171   1.715   5.278   2.207
 3356SOL    HW120172   1.729   5.187   2.168
 3356SOL    HW220173   1.618   5.290   2.229
 3357SOL     OW20174   9.646   8.211   1.399
 3357SOL    HW120175   9.626   8.309   1.399
 3357SOL    HW220176   9.723   8.193   1.338
 3358SOL     OW20177   1.632   6.902   1.044
 3358SOL    HW120178   1.626   6.831   0.974
 3358SOL    HW220179   1.588   6.870   1.128
 3359SOL     OW20180   4.378   4.470   0.687
 3359SOL    HW120181   4.385   4.555   0.635
 3359SOL    HW220182   4.438   4.402   0.647
 3360SOL     OW20183   0.163   8.530   0.714
 3360SOL    HW120184   0.163   8.605   0.781
 3360SOL    HW220185   0.117   8.451   0.754
 3361SOL     OW20186   9.280   4.776   0.718
 3361SOL    HW120187   9.302   4.795   0.814
 3361SOL    HW220188   9.270   4.862   0.669
 3362SOL     OW20189   5.004   3.543   0.980
 3362SOL    HW120190   4.977   3.460   1.030
 3362SOL    HW220191   5.100   3.536   0.953
 3363SOL     OW20192   1.080   4.080   1.474
 3363SOL    HW120193   1.079   4.113   1.380
 3363SOL    HW220194   1.152   4.012   1.484
 3364SOL     OW20195   8.715   6.413   1.182
 3364SOL    HW120196   8.743   6.505   1.209
 3364SOL    HW220197   8.616   6.410   1.173
 3365SOL     OW20198   4.180   0.238   0.099
 3365SOL    HW120199   4.250   0.211   0.033
 3365SOL    HW220200   4.210   0.320   0.149
 3366SOL     OW20201   3.178   4.578   2.195
 3366SOL    HW120202   3.266   4.620   2.172
 3366SOL    HW220203   3.164   4.585   2.294
 3367SOL     OW20204   2.094   9.734   0.402
 3367SOL    HW120205   2.015   9.682   0.366
 3367SOL    HW220206   2.087   9.829   0.372
 3368SOL     OW20207   4.450   0.482   1.619
 3368SOL    HW120208   4.541   0.487   1.660
 3368SOL    HW220209   4.440   0.557   1.554
 3369SOL     OW20210   0.263   8.896   1.918
 3369SOL    HW120211   0.353   8.857   1.939
 3369SOL    HW220212   0.216   8.918   2.004
 3370SOL     OW20213   1.700   6.095   2.106
 3370SOL    HW120214   1.656   6.010   2.132
 3370SOL    HW220215   1.798   6.080   2.095
 3371SOL     OW20216   0.127   2.380   1.183
 3371SOL    HW120217   0.138   2.465   1.235
 3371SOL    HW220218   0.120   2.401   1.085
 3372SOL     OW20219   3.085   5.845   0.227
 3372SOL    HW120220   3.077   5.863   0.129
 3372SOL    HW220221   3.148   5.769   0.242
 3373SOL     OW20222   1.951   3.857   1.561
 3373SOL    HW120223   2.020   3.791   1.591
 3373SOL    HW220224   1.931   3.921   1.635
 3374SOL     OW20225   2.957   3.693   1.724
 3374SOL    HW120226   2.906   3.742   1.795
 3374SOL    HW220227   2.986   3.604   1.759
 3375SOL     OW20228   2.493   0.584   1.076
 3375SOL    HW120229   2.465   0.496   1.039
 3375SOL    HW220230   2.593   0.588   1.083
 3376SOL     OW20231   2.674   6.600   0.251
 3376SOL    HW120232   2.759   6.552   0.272
 3376SOL    HW220233   2.649   6.659   0.328
 3377SOL     OW20234   1.261   5.210   1.082
 3377SOL    HW120235   1.204   5.291   1.075
 3377SOL    HW220236   1.328   5.222   1.156
 3378SOL     OW20237   1.132   3.456   1.097
 3378SOL    HW120238   1.050   3.513   1.101
 3378SOL    HW220239   1.124   3.391   1.021
 3379SOL     OW20240   8.862   5.889   0.491
 3379SOL    HW120241   8.873   5.794   0.460
 3379SOL    HW220242   8.918   5.949   0.434
 3380SOL     OW20243   8.535   2.006   1.558
 3380SOL    HW120244   8.490   2.058   1.631
 3380SOL    HW220245   8.512   2.046   1.469
 3381SOL     OW20246   1.110   8.509   1.132
 3381SOL    HW120247   1.015   8.490   1.106
 3381SOL    HW220248   1.166   8.429   1.112
 3382SOL     OW20249   9.044   3.255   0.232
 3382SOL    HW120250   8.961   3.200   0.240
 3382SOL    HW220251   9.024   3.339   0.181
 3383SOL     OW20252   9.594   7.457   1.790
 3383SOL    HW120253   9.577   7.541   1.739
 3383SOL    HW220254   9.513   7.432   1.843
 3384SOL     OW20255   2.310   3.011   1.713
 3384SOL    HW120256   2.214   3.019   1.740
 3384SOL    HW220257   2.320   3.036   1.616
 3385SOL     OW20258   1.580   8.075   0.820
 3385SOL    HW120259   1.517   8.009   0.778
 3385SOL    HW220260   1.597   8.050   0.915
 3386SOL     OW20261   4.607   9.581   1.653
 3386SOL    HW120262   4.580   9.635   1.733
 3386SOL    HW220263   4.571   9.623   1.570
 3387SOL     OW20264   8.539   1.815   1.154
 3387SOL    HW120265   8.557   1.776   1.244
 3387SOL    HW220266   8.469   1.760   1.107
 3388SOL     OW20267   8.266   0.689   0.853
 3388SOL    HW120268   8.250   0.737   0.766
 3388SOL    HW220269   8.178   0.668   0.895
 3389SOL     OW20270   2.474   4.296   0.967
 3389SOL    HW120271   2.433   4.376   0.923
 3389SOL    HW220272   2.404   4.225   0.978
 3390SOL     OW20273   0.503   2.972   0.361
 3390SOL    HW120274   0.436   2.949   0.290
 3390SOL    HW220275   0.587   3.005   0.318
 3391SOL     OW20276   0.163   5.036   0.460
 3391SOL    HW120277   0.215   4.972   0.517
 3391SOL    HW220278   0.143   4.991   0.372
 3392SOL     OW20279   1.306   4.279   1.194
 3392SOL    HW120280   1.312   4.375   1.165
 3392SOL    HW220281   1.333   4.220   1.118
 3393SOL     OW20282   2.511   9.966   0.793
 3393SOL    HW120283   2.427   9.960   0.846
 3393SOL    HW220284   2.490   0.000   0.701
 3394SOL     OW20285   1.294   9.527   0.833
 3394SOL    HW120286   1.335   9.446   0.876
 3394SOL    HW220287   1.205   9.545   0.874
 3395SOL     OW20288   8.208   1.594   1.983
 3395SOL    HW120289   8.296   1.642   1.993
 3395SOL    HW220290   8.154   1.639   1.911
 3396SOL     OW20291   9.275   1.059   1.799
 3396SOL    HW120292   9.219   1.058   1.882
 3396SOL    HW220293   9.300   1.153   1.777
 3397SOL     OW20294   3.686   2.228   0.641
 3397SOL    HW120295   3.686   2.306   0.578
 3397SOL    HW220296   3.656   2.258   0.731
 3398SOL     OW20297   8.936   1.027   0.858
 3398SOL    HW120298   8.842   1.061   0.850
 3398SOL    HW220299   8.992   1.070   0.788
 3399SOL     OW20300   1.720   0.166   0.834
 3399SOL    HW120301   1.692   0.120   0.750
 3399SOL    HW220302   1.661   0.245   0.851
 3400SOL     OW20303   1.545   4.387   1.028
 3400SOL    HW120304   1.582   4.294   1.036
 3400SOL    HW220305   1.588   4.446   1.096
 3401SOL     OW20306   1.392   4.077   1.017
 3401SOL    HW120307   1.484   4.101   1.048
 3401SOL    HW220308   1.398   4.017   0.937
 3402SOL     OW20309   3.436   1.704   0.707
 3402SOL    HW120310   3.523   1.754   0.709
 3402SOL    HW220311   3.418   1.667   0.798
 3403SOL     OW20312   0.110   9.692   0.942
 3403SOL    HW120313   0.029   9.698   0.884
 3403SOL    HW220314   0.101   9.616   1.006
 3404SOL     OW20315   1.741   7.862   0.410
 3404SOL    HW120316   1.778   7.772   0.434
 3404SOL    HW220317   1.699   7.859   0.319
 3405SOL     OW20318   1.270   7.350   1.975
 3405SOL    HW120319   1.222   7.263   1.978
 3405SOL    HW220320   1.363   7.336   1.941
 3406SOL     OW20321   1.325   7.239   0.649
 3406SOL    HW120322   1.236   7.276   0.673
 3406SOL    HW220323   1.369   7.298   0.581
 3407SOL     OW20324   8.751   7.541   1.942
 3407SOL    HW120325   8.804   7.495   1.872
 3407SOL    HW220326   8.721   7.474   2.011
 3408SOL     OW20327   9.702   0.918   1.203
 3408SOL    HW120328   9.762   0.975   1.260
 3408SOL    HW220329   9.758   0.860   1.144
 3409SOL     OW20330   0.391   1.453   0.667
 3409SOL    HW120331   0.484   1.486   0.649
 3409SOL    HW220332   0.396   1.367   0.719
 3410SOL     OW20333   2.833   0.588   0.335
 3410SOL    HW120334   2.868   0.677   0.368
 3410SOL    HW220335   2.884   0.561   0.253
 3411SOL     OW20336   9.122   9.315   0.789
 3411SOL    HW120337   9.041   9.372   0.797
 3411SOL    HW220338   9.104   9.239   0.726
 3412SOL     OW20339   1.079   4.440   0.247
 3412SOL    HW120340   1.140   4.434   0.325
 3412SOL    HW220341   1.067   4.350   0.206
 3413SOL     OW20342   0.170   1.828   0.585
 3413SOL    HW120343   0.095   1.883   0.547
 3413SOL    HW220344   0.257   1.871   0.563
 3414SOL     OW20345   2.252   0.868   2.193
 3414SOL    HW120346   2.197   0.788   2.216
 3414SOL    HW220347   2.349   0.842   2.191
 3415SOL     OW20348   1.619   7.994   1.089
 3415SOL    HW120349   1.674   8.008   1.171
 3415SOL    HW220350   1.640   7.905   1.049
 3416SOL     OW20351   3.164   2.279   2.023
 3416SOL    HW120352   3.182   2.198   2.079
 3416SOL    HW220353   3.115   2.347   2.078
 3417SOL     OW20354   0.215   5.268   1.646
 3417SOL    HW120355   0.310   5.267   1.677
 3417SOL    HW220356   0.211   5.306   1.553
 3418SOL     OW20357   9.625   6.948   1.370
 3418SOL    HW120358   9.603   6.899   1.286
 3418SOL    HW220359   9.542   6.962   1.424
 3419SOL     OW20360   1.026   9.136   1.845
 3419SOL    HW120361   1.021   9.036   1.838
 3419SOL    HW220362   1.111   9.162   1.891
 3420SOL     OW20363   9.770   2.923   2.054
 3420SOL    HW120364   9.869   2.926   2.069
 3420SOL    HW220365   9.731   2.843   2.098
 3421SOL     OW20366   4.272   5.099   0.234
 3421SOL    HW120367   4.274   5.004   0.202
 3421SOL    HW220368   4.290   5.101   0.332
 3422SOL     OW20369   3.079   9.334   0.200
 3422SOL    HW120370   2.993   9.379   0.175
 3422SOL    HW220371   3.061   9.262   0.267
 3423SOL     OW20372   9.650   7.421   1.306
 3423SOL    HW120373   9.689   7.329   1.297
 3423SOL    HW220374   9.550   7.414   1.309
 3424SOL     OW20375   2.840   0.510   2.113
 3424SOL    HW120376   2.808   0.421   2.081
 3424SOL    HW220377   2.777   0.546   2.182
 3425SOL     OW20378   1.311   7.345   0.218
 3425SOL    HW120379   1.322   7.431   0.168
 3425SOL    HW220380   1.233   7.294   0.182
 3426SOL     OW20381   9.418   3.506   1.341
 3426SOL    HW120382   9.458   3.430   1.394
 3426SOL    HW220383   9.462   3.511   1.252
 3427SOL     OW20384   0.832   1.885   1.513
 3427SOL    HW120385   0.884   1.803   1.489
 3427SOL    HW220386   0.745   1.858   1.555
 3428SOL     OW20387   0.767   7.760   2.080
 3428SOL    HW120388   0.854   7.809   2.071
 3428SOL    HW220389   0.698   7.823   2.115
 3429SOL     OW20390   1.790   0.486   0.996
 3429SOL    HW120391   1.804   0.585   0.988
 3429SOL    HW220392   1.721   0.457   0.929
 3430SOL     OW20393   0.663   8.534   1.911
 3430SOL    HW120394   0.619   8.452   1.872
 3430SOL    HW220395   0.601   8.612   1.901
 3431SOL     OW20396   4.724   3.434   1.971
 3431SOL    HW120397   4.727   3.504   2.042
 3431SOL    HW220398   4.647   3.372   1.989
 3432SOL     OW20399   3.064   2.366   0.356
 3432SOL    HW120400   3.082   2.440   0.421
 3432SOL    HW220401   3.097   2.280   0.394
 3433SOL     OW20402   2.092   8.095   1.126
 3433SOL    HW120403   2.041   8.009   1.138
 3433SOL    HW220404   2.183   8.074   1.088
 3434SOL     OW20405   8.687   3.824   1.428
 3434SOL    HW120406   8.600   3.776   1.435
 3434SOL    HW220407   8.751   3.788   1.496
 3435SOL     OW20408   4.356   4.865   1.855
 3435SOL    HW120409   4.292   4.826   1.789
 3435SOL    HW220410   4.437   4.808   1.861
 3436SOL     OW20411   0.141   0.343   1.222
 3436SOL    HW120412   0.202   0.264   1.226
 3436SOL    HW220413   0.195   0.427   1.217
 3437SOL     OW20414   2.112   8.920   2.024
 3437SOL    HW120415   2.192   8.975   2.048
 3437SOL    HW220416   2.109   8.839   2.083
 3438SOL     OW20417   0.222   2.414   0.170
 3438SOL    HW120418   0.241   2.326   0.128
 3438SOL    HW220419   0.220   2.404   0.269
 3439SOL     OW20420   8.778   4.436   1.157
 3439SOL    HW120421   8.793   4.534   1.169
 3439SOL    HW220422   8.824   4.385   1.230
 3440SOL     OW20423   2.559   0.891   0.367
 3440SOL    HW120424   2.524   0.984   0.362
 3440SOL    HW220425   2.579   0.858   0.275
 3441SOL     OW20426   0.710   3.593   0.278
 3441SOL    HW120427   0.624   3.643   0.265
 3441SOL    HW220428   0.726   3.580   0.376
 3442SOL     OW20429   9.374   9.025   1.465
 3442SOL    HW120430   9.407   8.984   1.381
 3442SOL    HW220431   9.277   9.050   1.455
 3443SOL     OW20432   2.693   4.824   1.700
 3443SOL    HW120433   2.636   4.742   1.703
 3443SOL    HW220434   2.787   4.799   1.678
 3444SOL     OW20435   3.634   6.260   0.427
 3444SOL    HW120436   3.684   6.241   0.512
 3444SOL    HW220437   3.684   6.329   0.375
 3445SOL     OW20438   3.811   0.334   0.394
 3445SOL    HW120439   3.724   0.384   0.393
 3445SOL    HW220440   3.848   0.329   0.301
 3446SOL     OW20441   4.004   3.658   1.642
 3446SOL    HW120442   3.992   3.559   1.636
 3446SOL    HW220443   3.926   3.703   1.599
 3447SOL     OW20444   7.873   1.752   0.902
 3447SOL    HW120445   7.944   1.804   0.855
 3447SOL    HW220446   7.801   1.727   0.837
 3448SOL     OW20447   1.524   3.329   1.146
 3448SOL    HW120448   1.583   3.292   1.074
 3448SOL    HW220449   1.462   3.397   1.106
 3449SOL     OW20450   3.745   1.571   0.469
 3449SOL    HW120451   3.799   1.509   0.412
 3449SOL    HW220452   3.769   1.556   0.565
 3450SOL     OW20453   9.966   6.744   2.071
 3450SOL    HW120454   0.038   6.682   2.101
 3450SOL    HW220455   9.878   6.711   2.105
 3451SOL     OW20456   9.176   9.512   2.170
 3451SOL    HW120457   9.238   9.590   2.179
 3451SOL    HW220458   9.229   9.427   2.169
 3452SOL     OW20459   1.266   5.785   1.371
 3452SOL    HW120460   1.284   5.877   1.406
 3452SOL    HW220461   1.167   5.771   1.366
 3453SOL     OW20462   3.900   5.386   0.825
 3453SOL    HW120463   3.871   5.470   0.778
 3453SOL    HW220464   3.872   5.391   0.921
 3454SOL     OW20465   1.042   8.440   1.733
 3454SOL    HW120466   0.988   8.373   1.682
 3454SOL    HW220467   1.002   8.454   1.823
 3455SOL     OW20468   8.859   7.559   0.595
 3455SOL    HW120469   8.916   7.576   0.675
 3455SOL    HW220470   8.916   7.526   0.520
 3456SOL     OW20471   0.917   9.214   1.110
 3456SOL    HW120472   0.855   9.199   1.034
 3456SOL    HW220473   0.940   9.127   1.153
 3457SOL     OW20474   0.344   8.994   0.381
 3457SOL    HW120475   0.419   9.009   0.318
 3457SOL    HW220476   0.371   8.927   0.451
 3458SOL     OW20477   3.967   2.425   1.755
 3458SOL    HW120478   4.016   2.364   1.818
 3458SOL    HW220479   3.875   2.389   1.738
 3459SOL     OW20480   9.573   1.633   0.202
 3459SOL    HW120481   9.493   1.663   0.254
 3459SOL    HW220482   9.543   1.595   0.114
 3460SOL     OW20483   0.211   9.965   0.002
 3460SOL    HW120484   0.239   9.874   0.033
 3460SOL    HW220485   0.290   0.011   2.901
 3461SOL     OW20486   7.904   0.014   1.742
 3461SOL    HW120487   7.880   0.060   1.656
 3461SOL    HW220488   7.851   0.054   1.817
 3462SOL     OW20489   1.477   1.329   1.789
 3462SOL    HW120490   1.549   1.362   1.727
 3462SOL    HW220491   1.392   1.378   1.771
 3463SOL     OW20492   1.255   4.139   0.522
 3463SOL    HW120493   1.256   4.231   0.481
 3463SOL    HW220494   1.345   4.118   0.560
 3464SOL     OW20495   9.794   4.807   2.049
 3464SOL    HW120496   9.797   4.713   2.084
 3464SOL    HW220497   9.865   4.861   2.093
 3465SOL     OW20498   8.516   0.390   1.883
 3465SOL    HW120499   8.479   0.406   1.975
 3465SOL    HW220500   8.448   0.340   1.828
 3466SOL     OW20501   8.575   0.631   1.468
 3466SOL    HW120502   8.510   0.565   1.506
 3466SOL    HW220503   8.533   0.677   1.390
 3467SOL     OW20504   1.401   5.358   0.795
 3467SOL    HW120505   1.433   5.435   0.850
 3467SOL    HW220506   1.443   5.274   0.829
 3468SOL     OW20507   8.793   8.003   1.567
 3468SOL    HW120508   8.876   8.041   1.607
 3468SOL    HW220509   8.731   7.973   1.639
 3469SOL     OW20510   8.795   3.424   0.892
 3469SOL    HW120511   8.839   3.493   0.835
 3469SOL    HW220512   8.798   3.451   0.988
 3470SOL     OW20513   2.845   9.086   1.532
 3470SOL    HW120514   2.912   9.032   1.481
 3470SOL    HW220515   2.822   9.169   1.481
 3471SOL     OW20516   8.306   8.998   0.252
 3471SOL    HW120517   8.235   8.997   0.182
 3471SOL    HW220518   8.338   8.904   0.267
 3472SOL     OW20519   1.183   2.810   2.085
 3472SOL    HW120520   1.134   2.723   2.096
 3472SOL    HW220521   1.271   2.793   2.041
 3473SOL     OW20522   8.467   3.307   2.071
 3473SOL    HW120523   8.547   3.356   2.105
 3473SOL    HW220524   8.385   3.337   2.122
 3474SOL     OW20525   0.688   7.355   0.957
 3474SOL    HW120526   0.605   7.409   0.947
 3474SOL    HW220527   0.708   7.341   1.054
 3475SOL     OW20528   4.567   9.307   1.148
 3475SOL    HW120529   4.603   9.342   1.235
 3475SOL    HW220530   4.595   9.212   1.137
 3476SOL     OW20531   3.410   3.283   1.996
 3476SOL    HW120532   3.502   3.253   2.022
 3476SOL    HW220533   3.416   3.365   1.939
 3477SOL     OW20534   0.702   9.874   1.492
 3477SOL    HW120535   0.611   9.905   1.517
 3477SOL    HW220536   0.767   9.949   1.503
 3478SOL     OW20537   8.893   6.378   2.224
 3478SOL    HW120538   8.851   6.337   2.144
 3478SOL    HW220539   8.985   6.340   2.237
 3479SOL     OW20540   0.458   9.891   2.183
 3479SOL    HW120541   0.462   9.848   2.093
 3479SOL    HW220542   0.374   9.865   2.230
 3480SOL     OW20543   1.505   1.724   1.186
 3480SOL    HW120544   1.457   1.648   1.142
 3480SOL    HW220545   1.599   1.728   1.151
 3481SOL     OW20546   9.437   8.184   1.920
 3481SOL    HW120547   9.534   8.211   1.917
 3481SOL    HW220548   9.401   8.181   1.827
 3482SOL     OW20549   9.206   6.190   1.199
 3482SOL    HW120550   9.152   6.253   1.143
 3482SOL    HW220551   9.268   6.137   1.140
 3483SOL     OW20552   0.645   1.468   2.061
 3483SOL    HW120553   0.719   1.466   2.129
 3483SOL    HW220554   0.640   1.379   2.015
 3484SOL     OW20555   9.715   1.377   0.721
 3484SOL    HW120556   9.807   1.398   0.688
 3484SOL    HW220557   9.648   1.436   0.676
 3485SOL     OW20558   0.452   8.096   0.839
 3485SOL    HW120559   0.454   8.023   0.908
 3485SOL    HW220560   0.546   8.120   0.814
 3486SOL     OW20561   0.630   4.163   1.120
 3486SOL    HW120562   0.717   4.136   1.080
 3486SOL    HW220563   0.557   4.106   1.081
 3487SOL     OW20564   9.738   6.492   0.403
 3487SOL    HW120565   9.752   6.435   0.483
 3487SOL    HW220566   9.818   6.488   0.344
 3488SOL     OW20567   9.323   1.821   0.736
 3488SOL    HW120568   9.404   1.841   0.792
 3488SOL    HW220569   9.341   1.846   0.641
 3489SOL     OW20570   9.709   8.257   1.903
 3489SOL    HW120571   9.783   8.208   1.857
 3489SOL    HW220572   9.706   8.352   1.872
 3490SOL     OW20573   2.707   9.766   1.040
 3490SOL    HW120574   2.682   9.833   1.110
 3490SOL    HW220575   2.733   9.813   0.956
 3491SOL     OW20576   2.500   3.965   1.651
 3491SOL    HW120577   2.453   4.051   1.630
 3491SOL    HW220578   2.439   3.888   1.628
 3492SOL     OW20579   2.285   4.633   0.545
 3492SOL    HW120580   2.316   4.542   0.573
 3492SOL    HW220581   2.229   4.625   0.463
 3493SOL     OW20582   9.556   5.029   1.869
 3493SOL    HW120583   9.540   4.933   1.890
 3493SOL    HW220584   9.590   5.076   1.950
 3494SOL     OW20585   3.737   3.628   1.336
 3494SOL    HW120586   3.808   3.586   1.279
 3494SOL    HW220587   3.647   3.603   1.300
 3495SOL     OW20588   9.186   0.892   1.596
 3495SOL    HW120589   9.221   0.955   1.665
 3495SOL    HW220590   9.136   0.943   1.526
 3496SOL     OW20591   1.498   2.826   1.642
 3496SOL    HW120592   1.473   2.916   1.606
 3496SOL    HW220593   1.569   2.785   1.584
 3497SOL     OW20594   8.524   6.097   0.544
 3497SOL    HW120595   8.570   6.180   0.512
 3497SOL    HW220596   8.425   6.114   0.548
 3498SOL     OW20597   2.077   9.676   0.664
 3498SOL    HW120598   2.087   9.692   0.565
 3498SOL    HW220599   1.986   9.705   0.693
 3499SOL     OW20600   3.472   0.755   1.727
 3499SOL    HW120601   3.558   0.796   1.759
 3499SOL    HW220602   3.491   0.684   1.660
 3500SOL     OW20603   3.019   1.468   0.283
 3500SOL    HW120604   3.094   1.443   0.221
 3500SOL    HW220605   2.933   1.434   0.245
 3501SOL     OW20606   4.286   9.028   0.504
 3501SOL    HW120607   4.196   9.072   0.513
 3501SOL    HW220608   4.294   8.985   0.414
 3502SOL     OW20609   4.007   5.565   0.121
 3502SOL    HW120610   4.062   5.647   0.133
 3502SOL    HW220611   4.062   5.485   0.147
 3503SOL     OW20612   9.968   2.310   1.401
 3503SOL    HW120613   9.932   2.217   1.394
 3503SOL    HW220614   0.013   2.334   1.315
 3504SOL     OW20615   0.312   3.440   1.712
 3504SOL    HW120616   0.237   3.455   1.776
 3504SOL    HW220617   0.275   3.429   1.619
 3505SOL     OW20618   4.223   3.706   0.512
 3505SOL    HW120619   4.257   3.800   0.513
 3505SOL    HW220620   4.129   3.704   0.546
 3506SOL     OW20621   4.778   0.549   1.537
 3506SOL    HW120622   4.850   0.613   1.565
 3506SOL    HW220623   4.760   0.485   1.612
 3507SOL     OW20624   4.581   1.873   1.371
 3507SOL    HW120625   4.518   1.873   1.293
 3507SOL    HW220626   4.592   1.780   1.404
 3508SOL     OW20627   1.834   7.044   1.158
 3508SOL    HW120628   1.906   7.044   1.088
 3508SOL    HW220629   1.756   6.990   1.125
 3509SOL     OW20630   3.112   3.591   2.018
 3509SOL    HW120631   3.157   3.532   2.085
 3509SOL    HW220632   3.090   3.538   1.936
 3510SOL     OW20633   0.164   9.352   1.688
 3510SOL    HW120634   0.106   9.433   1.684
 3510SOL    HW220635   0.220   9.354   1.770
 3511SOL     OW20636   4.085   1.740   1.937
 3511SOL    HW120637   4.181   1.733   1.967
 3511SOL    HW220638   4.080   1.799   1.856
 3512SOL     OW20639   0.475   6.995   1.618
 3512SOL    HW120640   0.413   7.068   1.647
 3512SOL    HW220641   0.515   7.019   1.529
 3513SOL     OW20642   3.444   3.033   1.302
 3513SOL    HW120643   3.515   2.975   1.343
 3513SOL    HW220644   3.392   3.078   1.375
 3514SOL     OW20645   1.518   0.408   2.151
 3514SOL    HW120646   1.513   0.310   2.135
 3514SOL    HW220647   1.426   0.448   2.148
 3515SOL     OW20648   0.401   9.671   0.274
 3515SOL    HW120649   0.369   9.632   0.360
 3515SOL    HW220650   0.366   9.765   0.266
 3516SOL     OW20651   9.968   8.138   0.672
 3516SOL    HW120652   0.054   8.089   0.675
 3516SOL    HW220653   9.937   8.146   0.577
 3517SOL     OW20654   8.760   6.886   0.392
 3517SOL    HW120655   8.748   6.971   0.443
 3517SOL    HW220656   8.759   6.905   0.294
 3518SOL     OW20657   4.628   9.389   1.407
 3518SOL    HW120658   4.605   9.486   1.399
 3518SOL    HW220659   4.673   9.373   1.495
 3519SOL     OW20660   3.054   1.946   2.303
 3519SOL    HW120661   3.114   1.879   2.347
 3519SOL    HW220662   3.089   2.038   2.322
 3520SOL     OW20663   1.280   7.595   0.089
 3520SOL    HW120664   1.272   7.644   0.176
 3520SOL    HW220665   1.188   7.567   0.058
 3521SOL     OW20666   8.337   2.158   2.156
 3521SOL    HW120667   8.329   2.112   2.068
 3521SOL    HW220668   8.247   2.190   2.186
 3522SOL     OW20669   2.103   0.918   1.009
 3522SOL    HW120670   2.185   0.936   0.954
 3522SOL    HW220671   2.024   0.961   0.968
 3523SOL     OW20672   9.307   6.892   2.097
 3523SOL    HW120673   9.403   6.865   2.104
 3523SOL    HW220674   9.249   6.811   2.105
 3524SOL     OW20675   9.520   2.138   1.846
 3524SOL    HW120676   9.549   2.156   1.940
 3524SOL    HW220677   9.497   2.225   1.801
 3525SOL     OW20678   4.292   0.852   1.706
 3525SOL    HW120679   4.226   0.841   1.632
 3525SOL    HW220680   4.370   0.905   1.674
 3526SOL     OW20681   4.922   3.914   0.002
 3526SOL    HW120682   4.851   3.875   0.060
 3526SOL    HW220683   5.008   3.917   0.053
 3527SOL     OW20684   3.166   9.661   1.339
 3527SOL    HW120685   3.148   9.738   1.400
 3527SOL    HW220686   3.096   9.659   1.267
 3528SOL     OW20687   3.696   3.037   2.222
 3528SOL    HW120688   3.674   3.115   2.281
 3528SOL    HW220689   3.796   3.025   2.218
 3529SOL     OW20690   1.314   3.081   1.870
 3529SOL    HW120691   1.264   3.116   1.791
 3529SOL    HW220692   1.269   2.999   1.904
 3530SOL     OW20693   3.734   5.216   2.162
 3530SOL    HW120694   3.721   5.227   2.064
 3530SOL    HW220695   3.667   5.271   2.211
 3531SOL     OW20696   2.900   0.059   1.510
 3531SOL    HW120697   2.808   0.019   1.500
 3531SOL    HW220698   2.968   9.992   1.482
 3532SOL     OW20699   7.972   1.406   0.452
 3532SOL    HW120700   8.052   1.405   0.392
 3532SOL    HW220701   7.889   1.421   0.398
 3533SOL     OW20702   1.749   7.788   2.312
 3533SOL    HW120703   1.672   7.840   2.348
 3533SOL    HW220704   1.822   7.786   2.380
 3534SOL     OW20705   8.517   7.725   0.391
 3534SOL    HW120706   8.483   7.782   0.466
 3534SOL    HW220707   8.459   7.737   0.311
 3535SOL     OW20708   7.942   0.502   2.102
 3535SOL    HW120709   8.019   0.438   2.102
 3535SOL    HW220710   7.973   0.591   2.069
 3536SOL     OW20711   0.849   3.583   2.231
 3536SOL    HW120712   0.853   3.645   2.152
 3536SOL    HW220713   0.926   3.520   2.227
 3537SOL     OW20714   9.583   9.956   2.039
 3537SOL    HW120715   9.574   9.903   2.123
 3537SOL    HW220716   9.515   9.926   1.973
 3538SOL     OW20717   0.762   7.733   0.733
 3538SOL    HW120718   0.752   7.751   0.831
 3538SOL    HW220719   0.677   7.754   0.686
 3539SOL     OW20720   2.999   7.549   0.641
 3539SOL    HW120721   2.975   7.463   0.688
 3539SOL    HW220722   2.964   7.547   0.548
 3540SOL     OW20723   0.336   9.385   1.897
 3540SOL    HW120724   0.427   9.359   1.863
 3540SOL    HW220725   0.339   9.392   1.997
 3541SOL     OW20726   3.852   4.213   2.004
 3541SOL    HW120727   3.807   4.185   1.919
 3541SOL    HW220728   3.951   4.211   1.991
 3542SOL     OW20729   0.077   2.763   1.892
 3542SOL    HW120730   0.173   2.736   1.880
 3542SOL    HW220731   0.040   2.793   1.804
 3543SOL     OW20732   0.472   4.536   0.665
 3543SOL    HW120733   0.496   4.627   0.696
 3543SOL    HW220734   0.394   4.541   0.602
 3544SOL     OW20735   3.408   0.191   1.117
 3544SOL    HW120736   3.451   0.108   1.081
 3544SOL    HW220737   3.325   0.210   1.065
 3545SOL     OW20738   3.602   3.689   1.577
 3545SOL    HW120739   3.653   3.675   1.492
 3545SOL    HW220740   3.643   3.634   1.650
 3546SOL     OW20741   7.472   9.822   1.752
 3546SOL    HW120742   7.548   9.759   1.741
 3546SOL    HW220743   7.405   9.783   1.815
 3547SOL     OW20744   9.288   2.961   0.744
 3547SOL    HW120745   9.209   2.912   0.779
 3547SOL    HW220746   9.286   2.960   0.644
 3548SOL     OW20747   3.204   2.226   1.400
 3548SOL    HW120748   3.299   2.246   1.423
 3548SOL    HW220749   3.195   2.212   1.302
 3549SOL     OW20750   8.980   6.903   0.041
 3549SOL    HW120751   9.024   6.833   2.927
 3549SOL    HW220752   9.032   6.917   0.125
 3550SOL     OW20753   7.243   9.922   2.100
 3550SOL    HW120754   7.305   0.001   2.104
 3550SOL    HW220755   7.196   9.912   2.188
 3551SOL     OW20756   8.116   0.505   0.528
 3551SOL    HW120757   8.081   0.592   0.492
 3551SOL    HW220758   8.062   0.478   0.607
 3552SOL     OW20759   1.677   7.596   2.121
 3552SOL    HW120760   1.718   7.654   2.191
 3552SOL    HW220761   1.584   7.629   2.102
 3553SOL     OW20762   9.109   6.962   0.285
 3553SOL    HW120763   9.206   6.986   0.274
 3553SOL    HW220764   9.056   7.045   0.302
 3554SOL     OW20765   0.638   9.488   0.745
 3554SOL    HW120766   0.606   9.558   0.681
 3554SOL    HW220767   0.598   9.504   0.835
 3555SOL     OW20768   0.871   6.905   0.411
 3555SOL    HW120769   0.959   6.942   0.380
 3555SOL    HW220770   0.866   6.908   0.510
 3556SOL     OW20771   2.442   2.160   1.320
 3556SOL    HW120772   2.472   2.254   1.332
 3556SOL    HW220773   2.375   2.155   1.245
 3557SOL     OW20774   3.138   5.267   2.140
 3557SOL    HW120775   3.184   5.285   2.227
 3557SOL    HW220776   3.053   5.217   2.157
 3558SOL     OW20777   9.791   7.682   1.265
 3558SOL    HW120778   9.730   7.604   1.282
 3558SOL    HW220779   9.740   7.754   1.218
 3559SOL     OW20780   3.549   0.241   0.601
 3559SOL    HW120781   3.566   0.145   0.620
 3559SOL    HW220782   3.521   0.252   0.505
 3560SOL     OW20783   8.856   1.712   0.447
 3560SOL    HW120784   8.887   1.797   0.404
 3560SOL    HW220785   8.786   1.733   0.516
 3561SOL     OW20786   3.978   3.698   0.634
 3561SOL    HW120787   3.964   3.604   0.664
 3561SOL    HW220788   3.897   3.730   0.584
 3562SOL     OW20789   0.844   3.946   1.411
 3562SOL    HW120790   0.912   4.016   1.434
 3562SOL    HW220791   0.856   3.867   1.471
 3563SOL     OW20792   2.197   0.330   0.577
 3563SOL    HW120793   2.128   0.313   0.648
 3563SOL    HW220794   2.287   0.339   0.620
 3564SOL     OW20795   3.402   6.426   2.232
 3564SOL    HW120796   3.302   6.429   2.229
 3564SOL    HW220797   3.438   6.518   2.218
 3565SOL     OW20798   3.741   2.082   0.285
 3565SOL    HW120799   3.674   2.102   0.214
 3565SOL    HW220800   3.694   2.048   0.366
 3566SOL     OW20801   1.341   5.811   0.186
 3566SOL    HW120802   1.330   5.734   0.123
 3566SOL    HW220803   1.334   5.897   0.135
 3567SOL     OW20804   5.030   3.157   0.322
 3567SOL    HW120805   5.003   3.240   0.371
 3567SOL    HW220806   5.096   3.106   0.376
 3568SOL     OW20807   1.239   7.404   1.597
 3568SOL    HW120808   1.203   7.424   1.505
 3568SOL    HW220809   1.271   7.489   1.638
 3569SOL     OW20810   0.567   0.757   1.199
 3569SOL    HW120811   0.512   0.775   1.281
 3569SOL    HW220812   0.663   0.776   1.218
 3570SOL     OW20813   8.462   8.574   1.717
 3570SOL    HW120814   8.460   8.659   1.665
 3570SOL    HW220815   8.461   8.595   1.815
 3571SOL     OW20816   8.039   7.926   2.065
 3571SOL    HW120817   8.135   7.955   2.072
 3571SOL    HW220818   8.017   7.908   1.969
 3572SOL     OW20819   0.409   1.215   0.817
 3572SOL    HW120820   0.356   1.157   0.755
 3572SOL    HW220821   0.451   1.158   0.888
 3573SOL     OW20822   0.367   2.326   1.590
 3573SOL    HW120823   0.272   2.353   1.607
 3573SOL    HW220824   0.378   2.228   1.608
 3574SOL     OW20825   0.599   1.629   1.179
 3574SOL    HW120826   0.588   1.644   1.081
 3574SOL    HW220827   0.527   1.677   1.228
 3575SOL     OW20828   0.152   7.082   1.899
 3575SOL    HW120829   0.216   7.133   1.957
 3575SOL    HW220830   0.066   7.068   1.949
 3576SOL     OW20831   0.400   6.857   0.816
 3576SOL    HW120832   0.338   6.779   0.815
 3576SOL    HW220833   0.473   6.843   0.749
 3577SOL     OW20834   1.737   9.814   0.501
 3577SOL    HW120835   1.773   9.795   0.592
 3577SOL    HW220836   1.788   9.762   0.433
 3578SOL     OW20837   8.161   9.879   0.482
 3578SOL    HW120838   8.187   9.830   0.399
 3578SOL    HW220839   8.116   9.815   0.545
 3579SOL     OW20840   3.185   8.800   0.811
 3579SOL    HW120841   3.183   8.780   0.909
 3579SOL    HW220842   3.101   8.848   0.785
 3580SOL     OW20843   7.962   1.268   1.439
 3580SOL    HW120844   8.034   1.232   1.379
 3580SOL    HW220845   7.968   1.225   1.529
 3581SOL     OW20846   8.587   8.428   1.494
 3581SOL    HW120847   8.522   8.367   1.447
 3581SOL    HW220848   8.539   8.479   1.565
 3582SOL     OW20849   4.733   3.141   1.126
 3582SOL    HW120850   4.754   3.090   1.042
 3582SOL    HW220851   4.634   3.140   1.142
 3583SOL     OW20852   3.931   4.976   1.355
 3583SOL    HW120853   3.877   4.906   1.402
 3583SOL    HW220854   4.021   4.984   1.399
 3584SOL     OW20855   0.445   3.314   2.048
 3584SOL    HW120856   0.409   3.267   1.967
 3584SOL    HW220857   0.425   3.260   2.130
 3585SOL     OW20858   5.183   9.783   1.683
 3585SOL    HW120859   5.231   9.698   1.661
 3585SOL    HW220860   5.169   9.788   1.782
 3586SOL     OW20861   1.632   1.957   0.534
 3586SOL    HW120862   1.634   1.994   0.441
 3586SOL    HW220863   1.706   1.998   0.587
 3587SOL     OW20864   8.680   8.129   1.344
 3587SOL    HW120865   8.723   8.102   1.430
 3587SOL    HW220866   8.750   8.141   1.274
 3588SOL     OW20867   1.557   0.123   2.168
 3588SOL    HW120868   1.564   0.155   2.262
 3588SOL    HW220869   1.535   0.026   2.166
 3589SOL     OW20870   9.451   8.924   1.219
 3589SOL    HW120871   9.376   8.919   1.153
 3589SOL    HW220872   9.497   9.013   1.211
 3590SOL     OW20873   0.262   3.960   1.226
 3590SOL    HW120874   0.282   4.014   1.307
 3590SOL    HW220875   0.163   3.945   1.219
 3591SOL     OW20876   0.982   0.423   0.366
 3591SOL    HW120877   1.066   0.369   0.364
 3591SOL    HW220878   0.908   0.372   0.323
 3592SOL     OW20879   9.576   4.808   1.399
 3592SOL    HW120880   9.650   4.865   1.434
 3592SOL    HW220881   9.587   4.715   1.432
 3593SOL     OW20882   0.944   1.692   0.221
 3593SOL    HW120883   0.857   1.651   0.246
 3593SOL    HW220884   0.990   1.726   0.303
 3594SOL     OW20885   8.909   1.267   0.481
 3594SOL    HW120886   8.895   1.340   0.414
 3594SOL    HW220887   8.921   1.180   0.433
 3595SOL     OW20888   7.916   9.697   1.615
 3595SOL    HW120889   7.919   9.775   1.552
 3595SOL    HW220890   7.984   9.711   1.687
 3596SOL     OW20891   4.413   2.108   2.033
 3596SOL    HW120892   4.368   2.181   2.085
 3596SOL    HW220893   4.425   2.028   2.091
 3597SOL     OW20894   2.688   4.960   1.340
 3597SOL    HW120895   2.782   4.935   1.363
 3597SOL    HW220896   2.668   4.932   1.246
 3598SOL     OW20897   9.183   7.300   0.432
 3598SOL    HW120898   9.207   7.367   0.361
 3598SOL    HW220899   9.096   7.256   0.408
 3599SOL     OW20900   9.121   6.354   1.932
 3599SOL    HW120901   9.132   6.325   2.026
 3599SOL    HW220902   9.173   6.438   1.916
 3600SOL     OW20903   2.551   3.809   0.657
 3600SOL    HW120904   2.525   3.906   0.663
 3600SOL    HW220905   2.469   3.752   0.667
 3601SOL     OW20906   3.402   4.075   1.182
 3601SOL    HW120907   3.372   4.164   1.216
 3601SOL    HW220908   3.328   4.034   1.129
 3602SOL     OW20909   5.141   4.031   1.813
 3602SOL    HW120910   5.055   4.080   1.801
 3602SOL    HW220911   5.131   3.965   1.887
 3603SOL     OW20912   2.353   3.071   0.976
 3603SOL    HW120913   2.269   3.070   1.030
 3603SOL    HW220914   2.386   3.165   0.967
 3604SOL     OW20915   9.438   5.146   0.836
 3604SOL    HW120916   9.464   5.133   0.741
 3604SOL    HW220917   9.441   5.059   0.884
 3605SOL     OW20918   3.637   2.419   2.056
 3605SOL    HW120919   3.622   2.498   1.997
 3605SOL    HW220920   3.721   2.372   2.029
 3606SOL     OW20921   1.143   7.507   1.361
 3606SOL    HW120922   1.116   7.477   1.270
 3606SOL    HW220923   1.177   7.601   1.357
 3607SOL     OW20924   9.099   6.996   0.577
 3607SOL    HW120925   9.109   6.958   0.485
 3607SOL    HW220926   9.185   7.040   0.604
 3608SOL     OW20927   8.715   2.968   1.515
 3608SOL    HW120928   8.616   2.964   1.508
 3608SOL    HW220929   8.751   3.034   1.448
 3609SOL     OW20930   2.009   4.782   1.249
 3609SOL    HW120931   1.982   4.697   1.293
 3609SOL    HW220932   2.099   4.809   1.281
 3610SOL     OW20933   3.496   1.310   1.284
 3610SOL    HW120934   3.576   1.347   1.331
 3610SOL    HW220935   3.520   1.223   1.240
 3611SOL     OW20936   1.284   8.690   2.102
 3611SOL    HW120937   1.243   8.667   2.013
 3611SOL    HW220938   1.332   8.777   2.095
 3612SOL     OW20939   8.832   1.254   1.211
 3612SOL    HW120940   8.797   1.260   1.305
 3612SOL    HW220941   8.883   1.169   1.200
 3613SOL     OW20942   2.070   2.292   2.184
 3613SOL    HW120943   2.110   2.229   2.117
 3613SOL    HW220944   1.978   2.261   2.209
 3614SOL     OW20945   1.349   9.710   0.433
 3614SOL    HW120946   1.268   9.763   0.458
 3614SOL    HW220947   1.397   9.683   0.516
 3615SOL     OW20948   0.024   9.703   2.090
 3615SOL    HW120949   9.983   9.616   2.115
 3615SOL    HW220950   0.090   9.689   2.016
 3616SOL     OW20951   2.366   9.109   1.328
 3616SOL    HW120952   2.340   9.163   1.408
 3616SOL    HW220953   2.351   9.012   1.347
 3617SOL     OW20954   0.560   7.934   2.163
 3617SOL    HW120955   0.607   8.020   2.182
 3617SOL    HW220956   0.473   7.932   2.214
 3618SOL     OW20957   0.329   7.686   2.144
 3618SOL    HW120958   0.315   7.771   2.195
 3618SOL    HW220959   0.258   7.677   2.074
 3619SOL     OW20960   2.329   5.284   0.122
 3619SOL    HW120961   2.414   5.290   0.174
 3619SOL    HW220962   2.324   5.196   0.075
 3620SOL     OW20963   9.136   1.597   1.985
 3620SOL    HW120964   9.115   1.559   1.895
 3620SOL    HW220965   9.056   1.644   2.022
 3621SOL     OW20966   4.040   5.625   0.434
 3621SOL    HW120967   3.945   5.622   0.403
 3621SOL    HW220968   4.069   5.535   0.464
 3622SOL     OW20969   2.201   3.380   1.427
 3622SOL    HW120970   2.161   3.458   1.379
 3622SOL    HW220971   2.165   3.295   1.390
 3623SOL     OW20972   0.173   9.138   1.326
 3623SOL    HW120973   0.221   9.152   1.412
 3623SOL    HW220974   0.206   9.205   1.259
 3624SOL     OW20975   1.997   7.318   1.442
 3624SOL    HW120976   1.996   7.219   1.429
 3624SOL    HW220977   2.042   7.361   1.363
 3625SOL     OW20978   9.654   7.698   0.243
 3625SOL    HW120979   9.704   7.614   0.264
 3625SOL    HW220980   9.560   7.690   0.275
 3626SOL     OW20981   3.217   3.386   2.168
 3626SOL    HW120982   3.168   3.315   2.218
 3626SOL    HW220983   3.290   3.343   2.113
 3627SOL     OW20984   1.373   2.238   1.980
 3627SOL    HW120985   1.279   2.244   2.012
 3627SOL    HW220986   1.414   2.330   1.980
 3628SOL     OW20987   1.310   8.405   1.647
 3628SOL    HW120988   1.319   8.376   1.552
 3628SOL    HW220989   1.213   8.405   1.673
 3629SOL     OW20990   8.543   0.014   0.927
 3629SOL    HW120991   8.601   0.075   0.981
 3629SOL    HW220992   8.449   0.047   0.929
 3630SOL     OW20993   4.851   0.374   0.447
 3630SOL    HW120994   4.765   0.400   0.403
 3630SOL    HW220995   4.919   0.351   0.377
 3631SOL     OW20996   0.460   3.499   0.606
 3631SOL    HW120997   0.378   3.547   0.576
 3631SOL    HW220998   0.492   3.438   0.534
 3632SOL     OW20999   2.283   0.658   0.384
 3632SOL    HW121000   2.197   0.607   0.390
 3632SOL    HW221001   2.330   0.634   0.299
 3633SOL     OW21002   0.764   1.290   1.110
 3633SOL    HW121003   0.758   1.345   1.027
 3633SOL    HW221004   0.674   1.283   1.153
 3634SOL     OW21005   1.990   0.722   0.603
 3634SOL    HW121006   1.993   0.657   0.679
 3634SOL    HW221007   2.073   0.778   0.603
 3635SOL     OW21008   7.941   0.918   0.941
 3635SOL    HW121009   7.973   0.825   0.918
 3635SOL    HW221010   7.927   0.969   0.857
 3636SOL     OW21011   9.027   4.723   0.638
 3636SOL    HW121012   9.120   4.744   0.669
 3636SOL    HW221013   8.964   4.794   0.671
 3637SOL     OW21014   2.665   7.846   2.227
 3637SOL    HW121015   2.620   7.867   2.313
 3637SOL    HW221016   2.753   7.802   2.245
 3638SOL     OW21017   1.659   9.468   1.600
 3638SOL    HW121018   1.683   9.546   1.543
 3638SOL    HW221019   1.741   9.416   1.622
 3639SOL     OW21020   3.094   6.873   0.117
 3639SOL    HW121021   3.100   6.844   0.213
 3639SOL    HW221022   3.061   6.967   0.113
 3640SOL     OW21023   9.850   8.116   1.240
 3640SOL    HW121024   9.949   8.121   1.229
 3640SOL    HW221025   9.815   8.033   1.196
 3641SOL     OW21026   3.869   9.820   0.856
 3641SOL    HW121027   3.889   9.903   0.804
 3641SOL    HW221028   3.837   9.845   0.948
 3642SOL     OW21029   9.518   2.418   1.780
 3642SOL    HW121030   9.609   2.399   1.816
 3642SOL    HW221031   9.460   2.452   1.854
 3643SOL     OW21032   2.512   2.608   1.523
 3643SOL    HW121033   2.449   2.660   1.580
 3643SOL    HW221034   2.545   2.528   1.574
 3644SOL     OW21035   1.645   1.324   1.228
 3644SOL    HW121036   1.713   1.388   1.191
 3644SOL    HW221037   1.587   1.290   1.154
 3645SOL     OW21038   2.944   7.969   0.567
 3645SOL    HW121039   3.032   7.949   0.609
 3645SOL    HW221040   2.874   7.908   0.605
 3646SOL     OW21041   1.457   3.675   1.904
 3646SOL    HW121042   1.519   3.605   1.868
 3646SOL    HW221043   1.504   3.763   1.904
 3647SOL     OW21044   3.057   3.448   1.793
 3647SOL    HW121045   3.014   3.358   1.808
 3647SOL    HW221046   3.135   3.438   1.732
 3648SOL     OW21047   9.790   0.616   1.597
 3648SOL    HW121048   9.760   0.577   1.685
 3648SOL    HW221049   9.890   0.621   1.596
 3649SOL     OW21050   4.294   9.701   1.593
 3649SOL    HW121051   4.279   9.640   1.671
 3649SOL    HW221052   4.340   9.784   1.625
 3650SOL     OW21053   9.223   8.713   1.339
 3650SOL    HW121054   9.163   8.668   1.273
 3650SOL    HW221055   9.307   8.742   1.293
 3651SOL     OW21056   2.339   5.549   2.135
 3651SOL    HW121057   2.370   5.454   2.130
 3651SOL    HW221058   2.418   5.610   2.138
 3652SOL     OW21059   3.414   0.463   2.154
 3652SOL    HW121060   3.424   0.547   2.207
 3652SOL    HW221061   3.427   0.483   2.057
 3653SOL     OW21062   3.452   4.154   1.778
 3653SOL    HW121063   3.441   4.062   1.740
 3653SOL    HW221064   3.416   4.156   1.871
 3654SOL     OW21065   3.683   2.947   0.917
 3654SOL    HW121066   3.754   2.885   0.951
 3654SOL    HW221067   3.598   2.930   0.968
 3655SOL     OW21068   3.241   6.025   0.382
 3655SOL    HW121069   3.183   5.981   0.314
 3655SOL    HW221070   3.245   6.124   0.365
 3656SOL     OW21071   1.025   7.670   0.955
 3656SOL    HW121072   0.996   7.765   0.945
 3656SOL    HW221073   1.094   7.648   0.886
 3657SOL     OW21074   9.007   2.687   0.068
 3657SOL    HW121075   9.062   2.681   2.926
 3657SOL    HW221076   8.931   2.622   0.063
 3658SOL     OW21077   0.556   6.190   0.979
 3658SOL    HW121078   0.523   6.284   0.989
 3658SOL    HW221079   0.639   6.189   0.924
 3659SOL     OW21080   9.420   9.493   0.383
 3659SOL    HW121081   9.457   9.417   0.330
 3659SOL    HW221082   9.420   9.575   0.326
 3660SOL     OW21083   1.748   9.196   1.831
 3660SOL    HW121084   1.757   9.295   1.844
 3660SOL    HW221085   1.803   9.148   1.899
 3661SOL     OW21086   9.219   5.938   0.802
 3661SOL    HW121087   9.247   5.966   0.893
 3661SOL    HW221088   9.251   5.846   0.784
 3662SOL     OW21089   3.482   1.648   0.444
 3662SOL    HW121090   3.456   1.664   0.540
 3662SOL    HW221091   3.580   1.632   0.438
 3663SOL     OW21092   0.348   9.435   0.131
 3663SOL    HW121093   0.370   9.528   0.162
 3663SOL    HW221094   0.433   9.384   0.115
 3664SOL     OW21095   3.064   9.962   1.176
 3664SOL    HW121096   3.028   0.051   1.148
 3664SOL    HW221097   3.126   9.928   1.105
 3665SOL     OW21098   2.886   6.207   1.963
 3665SOL    HW121099   2.976   6.215   2.004
 3665SOL    HW221100   2.847   6.117   1.983
 3666SOL     OW21101   3.544   9.965   1.050
 3666SOL    HW121102   3.497   9.886   1.009
 3666SOL    HW221103   3.637   9.939   1.076
 3667SOL     OW21104   1.818   3.953   0.277
 3667SOL    HW121105   1.884   3.974   0.204
 3667SOL    HW221106   1.733   4.002   0.260
 3668SOL     OW21107   8.970   0.048   1.419
 3668SOL    HW121108   8.919   0.000   1.491
 3668SOL    HW221109   8.978   0.145   1.443
 3669SOL     OW21110   4.133   5.267   0.744
 3669SOL    HW121111   4.140   5.176   0.784
 3669SOL    HW221112   4.055   5.315   0.784
 3670SOL     OW21113   7.716   1.453   0.348
 3670SOL    HW121114   7.714   1.553   0.350
 3670SOL    HW221115   7.674   1.417   0.431
 3671SOL     OW21116   3.500   4.436   0.515
 3671SOL    HW121117   3.558   4.515   0.492
 3671SOL    HW221118   3.515   4.412   0.610
 3672SOL     OW21119   0.026   0.763   0.509
 3672SOL    HW121120   0.051   0.824   0.584
 3672SOL    HW221121   0.050   0.668   0.533
 3673SOL     OW21122   9.747   8.092   2.130
 3673SOL    HW121123   9.734   8.162   2.061
 3673SOL    HW221124   9.666   8.086   2.188
 3674SOL     OW21125   2.197   5.458   0.288
 3674SOL    HW121126   2.102   5.481   0.265
 3674SOL    HW221127   2.231   5.390   0.223
 3675SOL     OW21128   4.437   1.988   1.598
 3675SOL    HW121129   4.497   1.958   1.524
 3675SOL    HW221130   4.489   2.044   1.663
 3676SOL     OW21131   3.750   3.199   0.813
 3676SOL    HW121132   3.723   3.112   0.854
 3676SOL    HW221133   3.830   3.184   0.755
 3677SOL     OW21134   3.906   2.069   1.201
 3677SOL    HW121135   3.923   2.084   1.299
 3677SOL    HW221136   3.852   2.144   1.165
 3678SOL     OW21137   0.570   8.822   1.617
 3678SOL    HW121138   0.591   8.828   1.520
 3678SOL    HW221139   0.505   8.894   1.642
 3679SOL     OW21140   9.750   2.345   1.914
 3679SOL    HW121141   9.798   2.428   1.942
 3679SOL    HW221142   9.711   2.301   1.995
 3680SOL     OW21143   9.969   3.386   0.436
 3680SOL    HW121144   9.907   3.333   0.379
 3680SOL    HW221145   0.061   3.383   0.398
 3681SOL     OW21146   0.949   3.037   1.879
 3681SOL    HW121147   0.851   3.040   1.855
 3681SOL    HW221148   0.959   3.022   1.977
 3682SOL     OW21149   8.282   8.963   0.961
 3682SOL    HW121150   8.217   9.017   1.014
 3682SOL    HW221151   8.301   9.010   0.875
 3683SOL     OW21152   1.879   4.360   0.702
 3683SOL    HW121153   1.781   4.369   0.686
 3683SOL    HW221154   1.917   4.293   0.637
 3684SOL     OW21155   7.587   0.227   1.127
 3684SOL    HW121156   7.680   0.250   1.156
 3684SOL    HW221157   7.575   0.128   1.132
 3685SOL     OW21158   0.640   9.595   1.852
 3685SOL    HW121159   0.613   9.500   1.843
 3685SOL    HW221160   0.693   9.623   1.772
 3686SOL     OW21161   8.858   5.883   1.636
 3686SOL    HW121162   8.937   5.945   1.629
 3686SOL    HW221163   8.870   5.807   1.572
 3687SOL     OW21164   2.352   7.122   1.225
 3687SOL    HW121165   2.262   7.110   1.182
 3687SOL    HW221166   2.384   7.034   1.261
 3688SOL     OW21167   0.900   9.191   0.489
 3688SOL    HW121168   0.974   9.250   0.519
 3688SOL    HW221169   0.813   9.239   0.499
 3689SOL     OW21170   8.725   9.810   0.984
 3689SOL    HW121171   8.815   9.854   0.991
 3689SOL    HW221172   8.655   9.879   0.967
 3690SOL     OW21173   4.009   1.557   2.254
 3690SOL    HW121174   3.948   1.599   2.186
 3690SOL    HW221175   4.013   1.614   2.336
 3691SOL     OW21176   2.645   4.892   1.077
 3691SOL    HW121177   2.545   4.892   1.067
 3691SOL    HW221178   2.683   4.970   1.028
 3692SOL     OW21179   3.836   5.909   0.565
 3692SOL    HW121180   3.845   5.919   0.466
 3692SOL    HW221181   3.740   5.893   0.588
 3693SOL     OW21182   8.624   6.375   0.726
 3693SOL    HW121183   8.704   6.365   0.786
 3693SOL    HW221184   8.542   6.388   0.781
 3694SOL     OW21185   0.225   5.689   0.872
 3694SOL    HW121186   0.266   5.760   0.815
 3694SOL    HW221187   0.297   5.625   0.901
 3695SOL     OW21188   3.487   7.712   0.044
 3695SOL    HW121189   3.437   7.745   0.125
 3695SOL    HW221190   3.423   7.700   2.909
 3696SOL     OW21191   2.897   0.154   0.846
 3696SOL    HW121192   2.981   0.174   0.796
 3696SOL    HW221193   2.912   0.169   0.944
 3697SOL     OW21194   9.126   5.212   0.127
 3697SOL    HW121195   9.128   5.125   0.078
 3697SOL    HW221196   9.104   5.195   0.223
 3698SOL     OW21197   3.100   4.809   0.557
 3698SOL    HW121198   3.119   4.750   0.635
 3698SOL    HW221199   3.154   4.893   0.565
 3699SOL     OW21200   2.914   3.435   1.451
 3699SOL    HW121201   2.849   3.498   1.495
 3699SOL    HW221202   2.909   3.346   1.497
 3700SOL     OW21203   8.920   9.216   0.031
 3700SOL    HW121204   8.854   9.283   2.935
 3700SOL    HW221205   8.883   9.124   0.019
 3701SOL     OW21206   2.307   8.145   0.153
 3701SOL    HW121207   2.263   8.102   0.233
 3701SOL    HW221208   2.381   8.087   0.121
 3702SOL     OW21209   3.408   1.611   0.962
 3702SOL    HW121210   3.317   1.609   1.006
 3702SOL    HW221211   3.471   1.663   1.019
 3703SOL     OW21212   1.579   2.421   0.961
 3703SOL    HW121213   1.561   2.384   1.052
 3703SOL    HW221214   1.492   2.439   0.915
 3704SOL     OW21215   9.273   5.454   1.397
 3704SOL    HW121216   9.260   5.395   1.477
 3704SOL    HW221217   9.185   5.491   1.368
 3705SOL     OW21218   9.653   9.842   2.291
 3705SOL    HW121219   9.735   9.876   2.245
 3705SOL    HW221220   9.638   9.893   2.376
 3706SOL     OW21221   8.242   9.711   0.283
 3706SOL    HW121222   8.291   9.634   0.322
 3706SOL    HW221223   8.298   9.753   0.212
 3707SOL     OW21224   2.568   0.834   1.919
 3707SOL    HW121225   2.652   0.889   1.921
 3707SOL    HW221226   2.538   0.816   2.013
 3708SOL     OW21227   8.452   6.461   1.142
 3708SOL    HW121228   8.419   6.453   1.048
 3708SOL    HW221229   8.425   6.550   1.179
 3709SOL     OW21230   1.137   1.358   0.533
 3709SOL    HW121231   1.229   1.368   0.494
 3709SOL    HW221232   1.145   1.323   0.626
 3710SOL     OW21233   8.116   8.982   0.058
 3710SOL    HW121234   8.104   8.884   0.044
 3710SOL    HW221235   8.060   9.033   2.933
 3711SOL     OW21236   1.589   3.113   1.314
 3711SOL    HW121237   1.529   3.112   1.394
 3711SOL    HW221238   1.565   3.189   1.254
 3712SOL     OW21239   2.879   6.558   1.392
 3712SOL    HW121240   2.941   6.563   1.314
 3712SOL    HW221241   2.850   6.464   1.406
 3713SOL     OW21242   8.330   8.054   0.226
 3713SOL    HW121243   8.414   8.087   0.181
 3713SOL    HW221244   8.328   8.086   0.321
 3714SOL     OW21245   8.366   0.014   1.667
 3714SOL    HW121246   8.357   9.972   1.577
 3714SOL    HW221247   8.286   9.990   1.723
 3715SOL     OW21248   1.319   4.390   0.851
 3715SOL    HW121249   1.395   4.371   0.913
 3715SOL    HW221250   1.352   4.441   0.772
 3716SOL     OW21251   2.682   4.409   0.383
 3716SOL    HW121252   2.739   4.372   0.457
 3716SOL    HW221253   2.592   4.366   0.386
 3717SOL     OW21254   1.123   4.986   1.000
 3717SOL    HW121255   1.165   5.072   1.029
 3717SOL    HW221256   1.100   4.991   0.902
 3718SOL     OW21257   2.947   8.950   0.817
 3718SOL    HW121258   2.860   8.914   0.784
 3718SOL    HW221259   2.944   8.959   0.917
 3719SOL     OW21260   7.612   0.870   1.309
 3719SOL    HW121261   7.643   0.843   1.217
 3719SOL    HW221262   7.630   0.967   1.323
 3720SOL     OW21263   8.520   0.532   0.552
 3720SOL    HW121264   8.477   0.616   0.519
 3720SOL    HW221265   8.487   0.512   0.644
 3721SOL     OW21266   0.150   6.557   2.146
 3721SOL    HW121267   0.231   6.602   2.184
 3721SOL    HW221268   0.177   6.497   2.071
 3722SOL     OW21269   0.464   1.626   1.527
 3722SOL    HW121270   0.522   1.698   1.565
 3722SOL    HW221271   0.431   1.653   1.436
 3723SOL     OW21272   1.617   3.497   0.431
 3723SOL    HW121273   1.559   3.557   0.376
 3723SOL    HW221274   1.646   3.546   0.514
 3724SOL     OW21275   0.770   1.782   0.490
 3724SOL    HW121276   0.709   1.784   0.570
 3724SOL    HW221277   0.736   1.715   0.424
 3725SOL     OW21278   0.603   6.831   0.633
 3725SOL    HW121279   0.698   6.855   0.654
 3725SOL    HW221280   0.576   6.875   0.547
 3726SOL     OW21281   0.260   5.802   1.238
 3726SOL    HW121282   0.253   5.848   1.326
 3726SOL    HW221283   0.273   5.870   1.165
 3727SOL     OW21284   8.921   2.261   0.176
 3727SOL    HW121285   8.975   2.304   0.249
 3727SOL    HW221286   8.975   2.188   0.134
 3728SOL     OW21287   2.212   3.951   0.253
 3728SOL    HW121288   2.293   3.947   0.195
 3728SOL    HW221289   2.130   3.954   0.196
 3729SOL     OW21290   1.535   5.561   0.944
 3729SOL    HW121291   1.540   5.647   0.893
 3729SOL    HW221292   1.551   5.579   1.041
 3730SOL     OW21293   9.572   0.135   1.168
 3730SOL    HW121294   9.473   0.132   1.165
 3730SOL    HW221295   9.610   0.063   1.110
 3731SOL     OW21296   9.475   9.231   1.627
 3731SOL    HW121297   9.431   9.214   1.715
 3731SOL    HW221298   9.448   9.161   1.562
 3732SOL     OW21299   0.844   0.751   1.237
 3732SOL    HW121300   0.924   0.801   1.203
 3732SOL    HW221301   0.835   0.665   1.188
 3733SOL     OW21302   3.123   4.242   1.107
 3733SOL    HW121303   3.144   4.148   1.080
 3733SOL    HW221304   3.200   4.280   1.157
 3734SOL     OW21305   8.663   1.610   2.072
 3734SOL    HW121306   8.734   1.611   2.143
 3734SOL    HW221307   8.705   1.628   1.983
 3735SOL     OW21308   3.559   4.596   0.233
 3735SOL    HW121309   3.594   4.636   0.318
 3735SOL    HW221310   3.464   4.626   0.219
 3736SOL     OW21311   0.457   6.441   1.002
 3736SOL    HW121312   0.420   6.490   1.081
 3736SOL    HW221313   0.385   6.427   0.934
 3737SOL     OW21314   2.666   7.066   1.373
 3737SOL    HW121315   2.595   7.000   1.349
 3737SOL    HW221316   2.627   7.135   1.435
 3738SOL     OW21317   1.700   8.198   2.107
 3738SOL    HW121318   1.722   8.101   2.097
 3738SOL    HW221319   1.781   8.253   2.088
 3739SOL     OW21320   2.223   3.472   0.060
 3739SOL    HW121321   2.236   3.559   0.012
 3739SOL    HW221322   2.252   3.482   0.155
 3740SOL     OW21323   0.268   2.906   0.223
 3740SOL    HW121324   0.218   2.977   0.274
 3740SOL    HW221325   0.282   2.827   0.282
 3741SOL     OW21326   2.306   3.746   0.426
 3741SOL    HW121327   2.249   3.815   0.381
 3741SOL    HW221328   2.292   3.751   0.525
 3742SOL     OW21329   1.785   2.681   0.204
 3742SOL    HW121330   1.731   2.625   0.141
 3742SOL    HW221331   1.724   2.732   0.264
 3743SOL     OW21332   0.711   3.397   1.918
 3743SOL    HW121333   0.667   3.418   2.006
 3743SOL    HW221334   0.645   3.352   1.858
 3744SOL     OW21335   1.023   7.506   0.367
 3744SOL    HW121336   0.971   7.575   0.418
 3744SOL    HW221337   0.999   7.415   0.399
 3745SOL     OW21338   1.892   5.733   1.383
 3745SOL    HW121339   1.926   5.741   1.477
 3745SOL    HW221340   1.868   5.638   1.364
 3746SOL     OW21341   8.602   7.251   1.454
 3746SOL    HW121342   8.554   7.258   1.541
 3746SOL    HW221343   8.630   7.156   1.439
 3747SOL     OW21344   9.367   9.200   0.559
 3747SOL    HW121345   9.350   9.178   0.463
 3747SOL    HW221346   9.322   9.286   0.583
 3748SOL     OW21347   1.076   7.210   1.710
 3748SOL    HW121348   1.131   7.288   1.680
 3748SOL    HW221349   1.084   7.200   1.810
 3749SOL     OW21350   8.789   5.228   1.732
 3749SOL    HW121351   8.817   5.313   1.688
 3749SOL    HW221352   8.703   5.242   1.781
 3750SOL     OW21353   1.416   3.111   0.883
 3750SOL    HW121354   1.505   3.152   0.902
 3750SOL    HW221355   1.399   3.111   0.785
 3751SOL     OW21356   1.460   8.560   0.666
 3751SOL    HW121357   1.557   8.570   0.645
 3751SOL    HW221358   1.448   8.488   0.734
 3752SOL     OW21359   0.372   6.600   1.226
 3752SOL    HW121360   0.404   6.680   1.174
 3752SOL    HW221361   0.282   6.621   1.266
 3753SOL     OW21362   1.980   6.286   1.977
 3753SOL    HW121363   1.973   6.280   1.877
 3753SOL    HW221364   1.973   6.195   2.017
 3754SOL     OW21365   3.080   5.020   0.940
 3754SOL    HW121366   3.049   4.946   1.000
 3754SOL    HW221367   3.010   5.039   0.871
 3755SOL     OW21368   4.074   2.496   0.831
 3755SOL    HW121369   4.065   2.450   0.742
 3755SOL    HW221370   4.162   2.543   0.835
 3756SOL     OW21371   4.309   4.845   2.127
 3756SOL    HW121372   4.321   4.860   2.029
 3756SOL    HW221373   4.334   4.751   2.149
 3757SOL     OW21374   3.417   0.325   1.503
 3757SOL    HW121375   3.375   0.250   1.554
 3757SOL    HW221376   3.480   0.288   1.435
 3758SOL     OW21377   2.917   1.795   1.092
 3758SOL    HW121378   2.910   1.699   1.064
 3758SOL    HW221379   2.930   1.799   1.191
 3759SOL     OW21380   8.415   9.753   0.904
 3759SOL    HW121381   8.412   9.737   1.003
 3759SOL    HW221382   8.468   9.835   0.885
 3760SOL     OW21383   8.351   2.100   0.826
 3760SOL    HW121384   8.432   2.062   0.871
 3760SOL    HW221385   8.370   2.111   0.728
 3761SOL     OW21386   1.133   2.511   0.179
 3761SOL    HW121387   1.067   2.527   0.251
 3761SOL    HW221388   1.170   2.419   0.187
 3762SOL     OW21389   7.845   0.194   1.233
 3762SOL    HW121390   7.870   0.110   1.184
 3762SOL    HW221391   7.836   0.175   1.331
 3763SOL     OW21392   0.040   9.908   1.106
 3763SOL    HW121393   0.075   9.834   1.048
 3763SOL    HW221394   0.068   9.996   1.068
 3764SOL     OW21395   8.985   6.047   0.299
 3764SOL    HW121396   8.984   5.987   0.218
 3764SOL    HW221397   8.924   6.124   0.284
 3765SOL     OW21398   2.064   9.324   2.103
 3765SOL    HW121399   2.022   9.414   2.114
 3765SOL    HW221400   2.161   9.329   2.128
 3766SOL     OW21401   8.504   8.415   0.749
 3766SOL    HW121402   8.589   8.362   0.743
 3766SOL    HW221403   8.440   8.368   0.810
 3767SOL     OW21404   2.356   3.226   2.914
 3767SOL    HW121405   2.455   3.217   2.928
 3767SOL    HW221406   2.329   3.321   2.931
 3768SOL     OW21407   4.016   5.247   1.748
 3768SOL    HW121408   4.093   5.199   1.790
 3768SOL    HW221409   3.938   5.184   1.740
 3769SOL     OW21410   8.670   1.900   0.181
 3769SOL    HW121411   8.736   1.871   0.112
 3769SOL    HW221412   8.702   1.872   0.272
 3770SOL     OW21413   0.057   6.357   1.759
 3770SOL    HW121414   0.129   6.367   1.828
 3770SOL    HW221415   0.062   6.433   1.694
 3771SOL     OW21416   0.204   9.824   2.265
 3771SOL    HW121417   0.138   9.778   2.205
 3771SOL    HW221418   0.162   9.906   2.303
 3772SOL     OW21419   8.157   7.648   0.171
 3772SOL    HW121420   8.244   7.697   0.164
 3772SOL    HW221421   8.116   7.639   0.080
 3773SOL     OW21422   3.771   4.424   0.198
 3773SOL    HW121423   3.743   4.334   0.167
 3773SOL    HW221424   3.691   4.484   0.205
 3774SOL     OW21425   9.644   6.984   0.317
 3774SOL    HW121426   9.640   6.884   0.316
 3774SOL    HW221427   9.726   7.015   0.268
 3775SOL     OW21428   9.621   1.465   1.285
 3775SOL    HW121429   9.652   1.483   1.191
 3775SOL    HW221430   9.563   1.383   1.285
 3776SOL     OW21431   1.119   2.270   1.052
 3776SOL    HW121432   1.196   2.315   1.098
 3776SOL    HW221433   1.043   2.260   1.115
 3777SOL     OW21434   8.471   1.750   0.793
 3777SOL    HW121435   8.411   1.747   0.873
 3777SOL    HW221436   8.485   1.657   0.759
 3778SOL     OW21437   7.984   0.739   0.472
 3778SOL    HW121438   7.975   0.790   0.387
 3778SOL    HW221439   7.897   0.697   0.496
 3779SOL     OW21440   2.207   9.726   1.516
 3779SOL    HW121441   2.181   9.781   1.437
 3779SOL    HW221442   2.226   9.632   1.487
 3780SOL     OW21443   4.366   8.792   2.249
 3780SOL    HW121444   4.313   8.755   2.325
 3780SOL    HW221445   4.345   8.741   2.166
 3781SOL     OW21446   9.076   5.425   0.689
 3781SOL    HW121447   9.126   5.409   0.604
 3781SOL    HW221448   9.115   5.368   0.762
 3782SOL     OW21449   3.341   4.843   1.908
 3782SOL    HW121450   3.412   4.841   1.838
 3782SOL    HW221451   3.324   4.937   1.936
 3783SOL     OW21452   0.897   4.142   1.016
 3783SOL    HW121453   0.879   4.240   1.008
 3783SOL    HW221454   0.932   4.107   0.929
 3784SOL     OW21455   8.299   7.996   2.093
 3784SOL    HW121456   8.316   8.043   2.006
 3784SOL    HW221457   8.385   7.958   2.127
 3785SOL     OW21458   0.082   3.097   2.253
 3785SOL    HW121459   0.067   3.006   2.215
 3785SOL    HW221460   0.036   3.105   2.341
 3786SOL     OW21461   9.688   6.361   1.399
 3786SOL    HW121462   9.754   6.301   1.355
 3786SOL    HW221463   9.596   6.322   1.391
 3787SOL     OW21464   4.029   4.422   0.337
 3787SOL    HW121465   4.039   4.356   0.412
 3787SOL    HW221466   3.934   4.422   0.306
 3788SOL     OW21467   3.637   9.339   1.730
 3788SOL    HW121468   3.677   9.327   1.821
 3788SOL    HW221469   3.691   9.289   1.663
 3789SOL     OW21470   1.133   8.682   1.345
 3789SOL    HW121471   1.128   8.618   1.268
 3789SOL    HW221472   1.064   8.657   1.413
 3790SOL     OW21473   0.055   1.192   0.969
 3790SOL    HW121474   0.067   1.240   0.882
 3790SOL    HW221475   0.035   1.259   1.041
 3791SOL     OW21476   1.653   1.785   0.821
 3791SOL    HW121477   1.740   1.802   0.775
 3791SOL    HW221478   1.622   1.692   0.801
 3792SOL     OW21479   0.639   6.099   1.220
 3792SOL    HW121480   0.610   6.134   1.131
 3792SOL    HW221481   0.561   6.095   1.282
 3793SOL     OW21482   2.535   1.461   0.176
 3793SOL    HW121483   2.464   1.391   0.169
 3793SOL    HW221484   2.492   1.552   0.175
 3794SOL     OW21485   1.390   4.552   0.634
 3794SOL    HW121486   1.307   4.603   0.657
 3794SOL    HW221487   1.462   4.616   0.606
 3795SOL     OW21488   9.605   8.520   0.794
 3795SOL    HW121489   9.593   8.537   0.892
 3795SOL    HW221490   9.698   8.486   0.777
 3796SOL     OW21491   8.959   1.344   1.575
 3796SOL    HW121492   8.870   1.335   1.529
 3796SOL    HW221493   9.032   1.317   1.513
 3797SOL     OW21494   8.930   9.815   0.542
 3797SOL    HW121495   8.979   9.727   0.546
 3797SOL    HW221496   8.867   9.814   0.464
 3798SOL     OW21497   8.803   0.958   1.700
 3798SOL    HW121498   8.727   1.005   1.655
 3798SOL    HW221499   8.798   0.860   1.682
 3799SOL     OW21500   1.096   6.576   1.850
 3799SOL    HW121501   1.074   6.671   1.825
 3799SOL    HW221502   1.032   6.545   1.920
 3800SOL     OW21503   9.363   4.984   0.175
 3800SOL    HW121504   9.447   4.959   0.126
 3800SOL    HW221505   9.285   4.978   0.113
 3801SOL     OW21506   1.900   4.036   1.756
 3801SOL    HW121507   1.804   4.064   1.756
 3801SOL    HW221508   1.958   4.116   1.764
 3802SOL     OW21509   1.535   6.579   2.013
 3802SOL    HW121510   1.548   6.482   2.035
 3802SOL    HW221511   1.476   6.587   1.933
 3803SOL     OW21512   1.022   9.605   2.238
 3803SOL    HW121513   0.950   9.584   2.171
 3803SOL    HW221514   1.090   9.532   2.236
 3804SOL     OW21515   2.287   9.105   1.805
 3804SOL    HW121516   2.300   9.097   1.904
 3804SOL    HW221517   2.311   9.019   1.761
 3805SOL     OW21518   2.811   3.843   1.906
 3805SOL    HW121519   2.836   3.809   1.996
 3805SOL    HW221520   2.726   3.896   1.912
 3806SOL     OW21521   0.591   3.353   0.805
 3806SOL    HW121522   0.550   3.404   0.730
 3806SOL    HW221523   0.519   3.316   0.863
 3807SOL     OW21524   2.251   9.222   1.553
 3807SOL    HW121525   2.263   9.188   1.647
 3807SOL    HW221526   2.157   9.202   1.523
 3808SOL     OW21527   8.977   0.137   1.154
 3808SOL    HW121528   8.967   0.105   1.248
 3808SOL    HW221529   9.016   0.230   1.154
 3809SOL     OW21530   2.816   7.287   0.493
 3809SOL    HW121531   2.726   7.259   0.459
 3809SOL    HW221532   2.846   7.369   0.443
 3810SOL     OW21533   8.532   6.551   1.832
 3810SOL    HW121534   8.464   6.494   1.786
 3810SOL    HW221535   8.608   6.494   1.862
 3811SOL     OW21536   1.030   7.866   2.018
 3811SOL    HW121537   1.114   7.893   2.065
 3811SOL    HW221538   1.050   7.795   1.951
 3812SOL     OW21539   8.537   1.285   1.740
 3812SOL    HW121540   8.537   1.365   1.680
 3812SOL    HW221541   8.562   1.204   1.686
 3813SOL     OW21542   1.219   5.904   1.720
 3813SOL    HW121543   1.262   5.961   1.791
 3813SOL    HW221544   1.122   5.891   1.743
 3814SOL     OW21545   9.808   8.748   1.507
 3814SOL    HW121546   9.801   8.845   1.528
 3814SOL    HW221547   9.769   8.730   1.417
 3815SOL     OW21548   1.336   2.296   0.479
 3815SOL    HW121549   1.251   2.293   0.427
 3815SOL    HW221550   1.414   2.298   0.416
 3816SOL     OW21551   9.028   3.512   0.136
 3816SOL    HW121552   9.125   3.537   0.144
 3816SOL    HW221553   8.979   3.546   0.216
 3817SOL     OW21554   0.200   4.768   1.897
 3817SOL    HW121555   0.168   4.689   1.949
 3817SOL    HW221556   0.215   4.742   1.802
 3818SOL     OW21557   8.164   1.881   0.113
 3818SOL    HW121558   8.127   1.969   0.142
 3818SOL    HW221559   8.109   1.807   0.152
 3819SOL     OW21560   9.264   8.416   1.662
 3819SOL    HW121561   9.200   8.418   1.586
 3819SOL    HW221562   9.312   8.328   1.663
 3820SOL     OW21563   8.335   0.880   2.156
 3820SOL    HW121564   8.323   0.979   2.151
 3820SOL    HW221565   8.282   0.843   2.232
 3821SOL     OW21566   9.053   5.293   1.178
 3821SOL    HW121567   9.149   5.266   1.189
 3821SOL    HW221568   9.013   5.243   1.101
 3822SOL     OW21569   4.278   4.402   1.989
 3822SOL    HW121570   4.203   4.340   2.007
 3822SOL    HW221571   4.288   4.466   2.065
 3823SOL     OW21572   9.217   6.571   0.825
 3823SOL    HW121573   9.276   6.639   0.782
 3823SOL    HW221574   9.227   6.576   0.924
 3824SOL     OW21575   3.017   0.135   0.415
 3824SOL    HW121576   2.979   0.068   0.479
 3824SOL    HW221577   2.980   0.225   0.436
 3825SOL     OW21578   3.367   9.913   0.600
 3825SOL    HW121579   3.458   9.948   0.624
 3825SOL    HW221580   3.377   9.842   0.530
 3826SOL     OW21581   0.166   2.009   0.234
 3826SOL    HW121582   0.248   1.956   0.259
 3826SOL    HW221583   0.191   2.080   0.169
 3827SOL     OW21584   2.383   3.572   2.202
 3827SOL    HW121585   2.482   3.566   2.197
 3827SOL    HW221586   2.355   3.668   2.198
 3828SOL     OW21587   1.784   0.762   0.969
 3828SOL    HW121588   1.839   0.845   0.956
 3828SOL    HW221589   1.687   0.785   0.971
 3829SOL     OW21590   9.071   2.360   1.760
 3829SOL    HW121591   9.108   2.434   1.703
 3829SOL    HW221592   9.092   2.378   1.856
 3830SOL     OW21593   2.444   6.639   0.991
 3830SOL    HW121594   2.504   6.717   1.011
 3830SOL    HW221595   2.399   6.609   1.075
 3831SOL     OW21596   0.791   2.595   0.898
 3831SOL    HW121597   0.808   2.678   0.951
 3831SOL    HW221598   0.774   2.519   0.960
 3832SOL     OW21599   9.666   9.719   1.385
 3832SOL    HW121600   9.724   9.787   1.340
 3832SOL    HW221601   9.682   9.629   1.343
 3833SOL     OW21602   3.200   5.176   0.250
 3833SOL    HW121603   3.113   5.131   0.233
 3833SOL    HW221604   3.200   5.216   0.341
 3834SOL     OW21605   3.171   0.775   0.613
 3834SOL    HW121606   3.185   0.780   0.712
 3834SOL    HW221607   3.235   0.837   0.567
 3835SOL     OW21608   0.467   2.926   1.526
 3835SOL    HW121609   0.562   2.952   1.539
 3835SOL    HW221610   0.407   2.996   1.565
 3836SOL     OW21611   0.659   4.901   1.293
 3836SOL    HW121612   0.715   4.925   1.214
 3836SOL    HW221613   0.705   4.931   1.377
 3837SOL     OW21614   9.248   6.029   0.384
 3837SOL    HW121615   9.299   6.044   0.299
 3837SOL    HW221616   9.150   6.036   0.365
 3838SOL     OW21617   4.824   3.002   0.435
 3838SOL    HW121618   4.789   2.937   0.368
 3838SOL    HW221619   4.886   3.067   0.390
 3839SOL     OW21620   0.279   3.123   1.907
 3839SOL    HW121621   0.191   3.158   1.939
 3839SOL    HW221622   0.306   3.045   1.964
 3840SOL     OW21623   9.060   3.663   1.928
 3840SOL    HW121624   9.149   3.654   1.885
 3840SOL    HW221625   9.041   3.760   1.945
 3841SOL     OW21626   8.369   2.996   0.352
 3841SOL    HW121627   8.397   3.042   0.268
 3841SOL    HW221628   8.282   3.034   0.383
 3842SOL     OW21629   0.643   3.090   1.277
 3842SOL    HW121630   0.680   3.039   1.354
 3842SOL    HW221631   0.619   3.027   1.203
 3843SOL     OW21632   1.572   2.323   1.227
 3843SOL    HW121633   1.647   2.361   1.282
 3843SOL    HW221634   1.584   2.224   1.220
 3844SOL     OW21635   7.649   9.976   2.277
 3844SOL    HW121636   7.659   0.010   2.370
 3844SOL    HW221637   7.593   0.039   2.224
 3845SOL     OW21638   1.659   5.523   1.547
 3845SOL    HW121639   1.606   5.601   1.513
 3845SOL    HW221640   1.713   5.484   1.472
 3846SOL     OW21641   9.088   0.393   1.159
 3846SOL    HW121642   9.133   0.420   1.244
 3846SOL    HW221643   9.156   0.384   1.086
 3847SOL     OW21644   2.876   8.489   1.954
 3847SOL    HW121645   2.878   8.492   1.854
 3847SOL    HW221646   2.837   8.575   1.988
 3848SOL     OW21647   2.878   1.079   0.449
 3848SOL    HW121648   2.812   1.048   0.518
 3848SOL    HW221649   2.924   1.161   0.483
 3849SOL     OW21650   1.256   3.749   1.332
 3849SOL    HW121651   1.184   3.681   1.345
 3849SOL    HW221652   1.236   3.803   1.250
 3850SOL     OW21653   7.945   0.859   0.231
 3850SOL    HW121654   7.876   0.927   0.206
 3850SOL    HW221655   7.937   0.780   0.170
 3851SOL     OW21656   2.946   9.379   0.791
 3851SOL    HW121657   2.982   9.349   0.879
 3851SOL    HW221658   2.927   9.477   0.795
 3852SOL     OW21659   9.022   7.164   1.657
 3852SOL    HW121660   9.016   7.135   1.561
 3852SOL    HW221661   9.040   7.084   1.715
 3853SOL     OW21662   0.167   9.986   0.523
 3853SOL    HW121663   0.225   9.970   0.602
 3853SOL    HW221664   0.135   0.081   0.523
 3854SOL     OW21665   2.156   6.055   1.857
 3854SOL    HW121666   2.115   6.127   1.800
 3854SOL    HW221667   2.184   5.979   1.798
 3855SOL     OW21668   9.703   3.391   1.808
 3855SOL    HW121669   9.615   3.426   1.841
 3855SOL    HW221670   9.730   3.313   1.865
 3856SOL     OW21671   3.074   0.767   0.163
 3856SOL    HW121672   3.040   0.793   0.254
 3856SOL    HW221673   3.174   0.759   0.167
 3857SOL     OW21674   2.945   0.413   1.730
 3857SOL    HW121675   2.973   0.360   1.810
 3857SOL    HW221676   2.966   0.509   1.745
 3858SOL     OW21677   2.512   9.262   0.299
 3858SOL    HW121678   2.514   9.167   0.328
 3858SOL    HW221679   2.421   9.300   0.316
 3859SOL     OW21680   0.472   0.580   0.186
 3859SOL    HW121681   0.402   0.535   0.130
 3859SOL    HW221682   0.516   0.652   0.132
 3860SOL     OW21683   1.993   9.844   1.066
 3860SOL    HW121684   1.901   9.852   1.029
 3860SOL    HW221685   2.045   9.777   1.013
 3861SOL     OW21686   4.130   9.258   0.068
 3861SOL    HW121687   4.140   9.269   0.166
 3861SOL    HW221688   4.111   9.347   0.026
 3862SOL     OW21689   1.143   8.103   1.692
 3862SOL    HW121690   1.169   8.013   1.659
 3862SOL    HW221691   1.136   8.166   1.614
 3863SOL     OW21692   0.101   4.797   0.780
 3863SOL    HW121693   0.150   4.731   0.837
 3863SOL    HW221694   0.061   4.868   0.838
 3864SOL     OW21695   8.096   7.597   0.433
 3864SOL    HW121696   8.118   7.608   0.336
 3864SOL    HW221697   8.059   7.682   0.469
 3865SOL     OW21698   2.439   4.994   1.469
 3865SOL    HW121699   2.526   4.974   1.423
 3865SOL    HW221700   2.451   4.986   1.567
 3866SOL     OW21701   0.947   0.036   1.751
 3866SOL    HW121702   0.965   9.937   1.747
 3866SOL    HW221703   0.927   0.069   1.659
 3867SOL     OW21704   3.322   0.093   2.065
 3867SOL    HW121705   3.383   0.054   2.134
 3867SOL    HW221706   3.273   0.170   2.103
 3868SOL     OW21707   9.862   9.929   2.123
 3868SOL    HW121708   9.921   9.851   2.102
 3868SOL    HW221709   9.790   9.936   2.054
 3869SOL     OW21710   7.913   8.960   1.149
 3869SOL    HW121711   7.984   9.022   1.119
 3869SOL    HW221712   7.932   8.868   1.116
 3870SOL     OW21713   3.830   2.030   0.772
 3870SOL    HW121714   3.805   2.105   0.711
 3870SOL    HW221715   3.930   2.021   0.774
 3871SOL     OW21716   2.637   2.522   0.131
 3871SOL    HW121717   2.695   2.458   0.181
 3871SOL    HW221718   2.686   2.553   0.049
 3872SOL     OW21719   1.870   1.038   0.922
 3872SOL    HW121720   1.778   1.048   0.885
 3872SOL    HW221721   1.899   1.125   0.963
 3873SOL     OW21722   3.419   5.429   1.832
 3873SOL    HW121723   3.396   5.516   1.787
 3873SOL    HW221724   3.399   5.436   1.929
 3874SOL     OW21725   3.944   5.457   1.916
 3874SOL    HW121726   4.001   5.442   1.996
 3874SOL    HW221727   3.963   5.387   1.847
 3875SOL     OW21728   0.945   0.109   0.346
 3875SOL    HW121729   0.894   0.034   0.389
 3875SOL    HW221730   0.880   0.170   0.300
 3876SOL     OW21731   1.862   4.571   2.232
 3876SOL    HW121732   1.795   4.614   2.172
 3876SOL    HW221733   1.943   4.630   2.240
 3877SOL     OW21734   4.339   8.913   0.269
 3877SOL    HW121735   4.392   8.829   0.255
 3877SOL    HW221736   4.304   8.945   0.181
 3878SOL     OW21737   0.353   2.473   2.345
 3878SOL    HW121738   0.437   2.512   2.307
 3878SOL    HW221739   0.366   2.375   2.360
 3879SOL     OW21740   3.777   5.576   0.270
 3879SOL    HW121741   3.850   5.572   0.202
 3879SOL    HW221742   3.730   5.664   0.263
 3880SOL     OW21743   2.308   5.959   1.309
 3880SOL    HW121744   2.279   6.015   1.386
 3880SOL    HW221745   2.249   5.977   1.230
 3881SOL     OW21746   0.053   0.834   0.245
 3881SOL    HW121747   0.046   0.815   0.343
 3881SOL    HW221748   0.149   0.844   0.220
 3882SOL     OW21749   1.969   8.630   0.501
 3882SOL    HW121750   1.939   8.688   0.425
 3882SOL    HW221751   1.999   8.542   0.465
 3883SOL     OW21752   9.938   7.577   1.673
 3883SOL    HW121753   9.892   7.654   1.629
 3883SOL    HW221754   9.887   7.493   1.655
 3884SOL     OW21755   1.449   6.209   0.567
 3884SOL    HW121756   1.402   6.147   0.504
 3884SOL    HW221757   1.405   6.299   0.564
 3885SOL     OW21758   9.821   7.471   0.800
 3885SOL    HW121759   9.810   7.463   0.899
 3885SOL    HW221760   9.741   7.516   0.762
 3886SOL     OW21761   8.313   9.120   2.168
 3886SOL    HW121762   8.290   9.160   2.256
 3886SOL    HW221763   8.406   9.148   2.142
 3887SOL     OW21764   2.120   9.143   1.201
 3887SOL    HW121765   2.108   9.237   1.168
 3887SOL    HW221766   2.215   9.129   1.228
 3888SOL     OW21767   7.950   1.054   1.175
 3888SOL    HW121768   7.953   1.011   1.085
 3888SOL    HW221769   8.038   1.096   1.195
 3889SOL     OW21770   1.040   9.557   0.948
 3889SOL    HW121771   0.990   9.496   0.887
 3889SOL    HW221772   0.982   9.634   0.973
 3890SOL     OW21773   3.694   4.998   0.987
 3890SOL    HW121774   3.767   4.941   1.025
 3890SOL    HW221775   3.732   5.054   0.913
 3891SOL     OW21776   3.847   4.067   2.237
 3891SOL    HW121777   3.846   4.122   2.153
 3891SOL    HW221778   3.815   4.123   2.313
 3892SOL     OW21779   0.218   8.771   0.155
 3892SOL    HW121780   0.160   8.698   0.192
 3892SOL    HW221781   0.176   8.860   0.173
 3893SOL     OW21782   9.160   7.416   0.688
 3893SOL    HW121783   9.170   7.383   0.594
 3893SOL    HW221784   9.229   7.372   0.746
 3894SOL     OW21785   4.278   9.257   2.068
 3894SOL    HW121786   4.182   9.232   2.059
 3894SOL    HW221787   4.328   9.182   2.112
 3895SOL     OW21788   4.568   1.255   0.996
 3895SOL    HW121789   4.481   1.244   1.045
 3895SOL    HW221790   4.585   1.352   0.980
 3896SOL     OW21791   1.475   8.653   2.934
 3896SOL    HW121792   1.532   8.571   2.925
 3896SOL    HW221793   1.489   8.712   2.854
 3897SOL     OW21794   2.885   9.324   2.175
 3897SOL    HW121795   2.870   9.353   2.081
 3897SOL    HW221796   2.800   9.336   2.227
 3898SOL     OW21797   1.746   5.392   0.895
 3898SOL    HW121798   1.667   5.451   0.910
 3898SOL    HW221799   1.761   5.380   0.797
 3899SOL     OW21800   2.486   6.443   0.467
 3899SOL    HW121801   2.421   6.518   0.463
 3899SOL    HW221802   2.475   6.394   0.554
 3900SOL     OW21803   2.421   4.319   0.083
 3900SOL    HW121804   2.397   4.276   2.937
 3900SOL    HW221805   2.516   4.348   0.081
 3901SOL     OW21806   9.627   1.155   1.088
 3901SOL    HW121807   9.558   1.191   1.151
 3901SOL    HW221808   9.659   1.067   1.121
 3902SOL     OW21809   0.027   6.892   0.275
 3902SOL    HW121810   9.958   6.952   0.236
 3902SOL    HW221811   9.984   6.833   0.344
 3903SOL     OW21812   0.076   0.907   0.741
 3903SOL    HW121813   0.107   0.912   0.836
 3903SOL    HW221814   9.986   0.949   0.733
 3904SOL     OW21815   2.282   3.682   1.118
 3904SOL    HW121816   2.224   3.611   1.077
 3904SOL    HW221817   2.316   3.743   1.046
 3905SOL     OW21818   9.898   8.109   1.753
 3905SOL    HW121819   9.958   8.057   1.813
 3905SOL    HW221820   9.910   8.078   1.658
 3906SOL     OW21821   0.109   3.474   1.905
 3906SOL    HW121822   0.087   3.382   1.939
 3906SOL    HW221823   0.134   3.532   1.982
 3907SOL     OW21824   1.523   0.959   1.573
 3907SOL    HW121825   1.510   0.865   1.541
 3907SOL    HW221826   1.577   1.009   1.505
 3908SOL     OW21827   0.207   9.381   0.354
 3908SOL    HW121828   0.251   9.394   0.265
 3908SOL    HW221829   0.120   9.332   0.342
 3909SOL     OW21830   4.347   1.762   1.739
 3909SOL    HW121831   4.365   1.746   1.836
 3909SOL    HW221832   4.396   1.844   1.709
 3910SOL     OW21833   0.849   3.426   0.673
 3910SOL    HW121834   0.806   3.504   0.628
 3910SOL    HW221835   0.784   3.385   0.738
 3911SOL     OW21836   2.561   1.769   0.327
 3911SOL    HW121837   2.627   1.829   0.282
 3911SOL    HW221838   2.609   1.688   0.363
 3912SOL     OW21839   0.848   4.661   1.788
 3912SOL    HW121840   0.757   4.697   1.810
 3912SOL    HW221841   0.856   4.567   1.821
 3913SOL     OW21842   2.300   7.567   1.096
 3913SOL    HW121843   2.274   7.588   1.001
 3913SOL    HW221844   2.337   7.648   1.140
 3914SOL     OW21845   0.645   3.849   0.942
 3914SOL    HW121846   0.558   3.893   0.966
 3914SOL    HW221847   0.707   3.853   1.019
 3915SOL     OW21848   3.217   5.887   0.829
 3915SOL    HW121849   3.177   5.903   0.738
 3915SOL    HW221850   3.169   5.943   0.896
 3916SOL     OW21851   0.635   3.276   1.488
 3916SOL    HW121852   0.721   3.327   1.490
 3916SOL    HW221853   0.634   3.214   1.410
 3917SOL     OW21854   1.376   3.543   1.013
 3917SOL    HW121855   1.354   3.592   0.929
 3917SOL    HW221856   1.291   3.515   1.058
 3918SOL     OW21857   3.160   2.313   0.954
 3918SOL    HW121858   3.143   2.404   0.991
 3918SOL    HW221859   3.136   2.244   1.022
 3919SOL     OW21860   9.399   4.825   0.387
 3919SOL    HW121861   9.397   4.730   0.357
 3919SOL    HW221862   9.387   4.885   0.308
 3920SOL     OW21863   8.399   2.150   0.562
 3920SOL    HW121864   8.377   2.243   0.531
 3920SOL    HW221865   8.494   2.129   0.538
 3921SOL     OW21866   9.687   9.461   0.076
 3921SOL    HW121867   9.757   9.458   0.005
 3921SOL    HW221868   9.701   9.541   0.134
 3922SOL     OW21869   9.048   1.904   2.286
 3922SOL    HW121870   9.119   1.974   2.294
 3922SOL    HW221871   8.962   1.946   2.259
 3923SOL     OW21872   0.367   1.027   0.374
 3923SOL    HW121873   0.343   0.957   0.307
 3923SOL    HW221874   0.367   1.117   0.330
 3924SOL     OW21875   1.740   8.542   0.626
 3924SOL    HW121876   1.822   8.594   0.602
 3924SOL    HW221877   1.759   8.444   0.617
 3925SOL     OW21878   0.250   7.945   2.226
 3925SOL    HW121879   0.154   7.943   2.255
 3925SOL    HW221880   0.261   8.009   2.150
 3926SOL     OW21881   4.843   3.999   0.390
 3926SOL    HW121882   4.795   3.914   0.367
 3926SOL    HW221883   4.833   4.064   0.315
 3927SOL     OW21884   8.896   0.054   0.670
 3927SOL    HW121885   8.797   0.062   0.673
 3927SOL    HW221886   8.921   9.968   0.626
 3928SOL     OW21887   9.917   6.662   1.808
 3928SOL    HW121888   9.988   6.645   1.739
 3928SOL    HW221889   9.959   6.697   1.892
 3929SOL     OW21890   9.702   0.820   2.234
 3929SOL    HW121891   9.699   0.831   2.333
 3929SOL    HW221892   9.608   0.812   2.198
 3930SOL     OW21893   9.795   8.826   0.930
 3930SOL    HW121894   9.703   8.821   0.892
 3930SOL    HW221895   9.823   8.735   0.962
 3931SOL     OW21896   0.255   6.402   1.942
 3931SOL    HW121897   0.308   6.334   1.992
 3931SOL    HW221898   0.315   6.450   1.878
 3932SOL     OW21899   8.612   0.227   0.266
 3932SOL    HW121900   8.638   0.252   0.360
 3932SOL    HW221901   8.529   0.171   0.269
 3933SOL     OW21902   4.144   2.958   0.144
 3933SOL    HW121903   4.172   2.903   0.066
 3933SOL    HW221904   4.106   2.898   0.215
 3934SOL     OW21905   3.955   5.391   1.522
 3934SOL    HW121906   3.977   5.334   1.601
 3934SOL    HW221907   3.988   5.484   1.537
 3935SOL     OW21908   2.230   0.368   2.049
 3935SOL    HW121909   2.289   0.384   1.969
 3935SOL    HW221910   2.152   0.431   2.045
 3936SOL     OW21911   9.217   8.647   0.624
 3936SOL    HW121912   9.245   8.729   0.675
 3936SOL    HW221913   9.266   8.642   0.538
 3937SOL     OW21914   8.581   7.329   0.388
 3937SOL    HW121915   8.637   7.406   0.357
 3937SOL    HW221916   8.495   7.364   0.426
 3938SOL     OW21917   2.738   4.396   1.003
 3938SOL    HW121918   2.643   4.383   0.975
 3938SOL    HW221919   2.760   4.494   1.003
 3939SOL     OW21920   7.452   9.539   2.016
 3939SOL    HW121921   7.389   9.608   1.981
 3939SOL    HW221922   7.443   9.532   2.115
 3940SOL     OW21923   2.244   0.993   1.231
 3940SOL    HW121924   2.288   0.908   1.261
 3940SOL    HW221925   2.186   0.973   1.151
 3941SOL     OW21926   8.749   7.985   0.280
 3941SOL    HW121927   8.766   7.915   0.349
 3941SOL    HW221928   8.762   8.076   0.320
 3942SOL     OW21929   0.985   7.849   1.399
 3942SOL    HW121930   0.959   7.942   1.373
 3942SOL    HW221931   0.944   7.826   1.487
 3943SOL     OW21932   3.457   3.942   0.131
 3943SOL    HW121933   3.389   3.988   0.187
 3943SOL    HW221934   3.445   3.843   0.139
 3944SOL     OW21935   8.619   3.279   1.688
 3944SOL    HW121936   8.594   3.226   1.769
 3944SOL    HW221937   8.568   3.244   1.609
 3945SOL     OW21938   0.477   3.743   0.294
 3945SOL    HW121939   0.410   3.767   0.224
 3945SOL    HW221940   0.467   3.805   0.372
 3946SOL     OW21941   0.319   6.671   0.344
 3946SOL    HW121942   0.383   6.703   0.274
 3946SOL    HW221943   0.286   6.749   0.397
 3947SOL     OW21944   1.029   6.838   1.810
 3947SOL    HW121945   1.072   6.885   1.733
 3947SOL    HW221946   0.941   6.880   1.829
 3948SOL     OW21947   0.297   7.408   1.847
 3948SOL    HW121948   0.302   7.339   1.775
 3948SOL    HW221949   0.314   7.366   1.936
 3949SOL     OW21950   0.654   1.718   1.932
 3949SOL    HW121951   0.651   1.635   1.987
 3949SOL    HW221952   0.726   1.710   1.863
 3950SOL     OW21953   9.916   3.659   0.155
 3950SOL    HW121954   9.979   3.682   0.229
 3950SOL    HW221955   9.945   3.573   0.113
 3951SOL     OW21956   3.675   5.837   0.261
 3951SOL    HW121957   3.764   5.883   0.255
 3951SOL    HW221958   3.610   5.896   0.309
 3952SOL     OW21959   4.037   3.208   0.146
 3952SOL    HW121960   4.083   3.121   0.129
 3952SOL    HW221961   3.939   3.193   0.154
 3953SOL     OW21962   0.936   5.139   1.310
 3953SOL    HW121963   0.998   5.073   1.353
 3953SOL    HW221964   0.955   5.231   1.344
 3954SOL     OW21965   3.698   5.477   1.449
 3954SOL    HW121966   3.631   5.427   1.504
 3954SOL    HW221967   3.789   5.439   1.463
 3955SOL     OW21968   9.546   3.254   0.222
 3955SOL    HW121969   9.572   3.340   0.179
 3955SOL    HW221970   9.454   3.262   0.261
 3956SOL     OW21971   8.659   7.799   0.098
 3956SOL    HW121972   8.718   7.718   0.098
 3956SOL    HW221973   8.697   7.868   0.159
 3957SOL     OW21974   2.604   5.380   1.057
 3957SOL    HW121975   2.607   5.358   0.960
 3957SOL    HW221976   2.518   5.346   1.096
 3958SOL     OW21977   0.333   7.236   2.072
 3958SOL    HW121978   0.390   7.312   2.103
 3958SOL    HW221979   0.258   7.222   2.136
 3959SOL     OW21980   3.185   1.880   1.199
 3959SOL    HW121981   3.176   1.786   1.166
 3959SOL    HW221982   3.279   1.895   1.230
 3960SOL     OW21983   2.126   8.721   1.275
 3960SOL    HW121984   2.072   8.671   1.343
 3960SOL    HW221985   2.194   8.778   1.321
 3961SOL     OW21986   2.534   1.472   1.261
 3961SOL    HW121987   2.485   1.385   1.258
 3961SOL    HW221988   2.580   1.488   1.174
 3962SOL     OW21989   9.360   8.412   0.695
 3962SOL    HW121990   9.311   8.497   0.678
 3962SOL    HW221991   9.447   8.432   0.740
 3963SOL     OW21992   4.170   9.407   1.460
 3963SOL    HW121993   4.140   9.336   1.523
 3963SOL    HW221994   4.147   9.497   1.499
 3964SOL     OW21995   9.962   9.141   1.738
 3964SOL    HW121996   9.931   9.212   1.800
 3964SOL    HW221997   0.044   9.172   1.690
 3965SOL     OW21998   1.975   4.545   1.388
 3965SOL    HW121999   1.915   4.466   1.400
 3965SOL    HW222000   2.005   4.579   1.477
 3966SOL     OW22001   9.875   4.492   1.368
 3966SOL    HW122002   9.921   4.581   1.376
 3966SOL    HW222003   9.888   4.456   1.276
 3967SOL     OW22004   1.827   6.532   1.815
 3967SOL    HW122005   1.815   6.562   1.910
 3967SOL    HW222006   1.754   6.469   1.790
 3968SOL     OW22007   0.886   2.726   1.566
 3968SOL    HW122008   0.894   2.628   1.549
 3968SOL    HW222009   0.971   2.771   1.541
 3969SOL     OW22010   0.048   1.757   0.216
 3969SOL    HW122011   0.078   1.852   0.217
 3969SOL    HW222012   0.125   1.698   0.193
 3970SOL     OW22013   2.533   0.666   0.527
 3970SOL    HW122014   2.447   0.622   0.505
 3970SOL    HW222015   2.547   0.745   0.467
 3971SOL     OW22016   9.108   5.043   1.464
 3971SOL    HW122017   9.034   5.017   1.525
 3971SOL    HW222018   9.088   5.014   1.371
 3972SOL     OW22019   0.317   4.412   0.141
 3972SOL    HW122020   0.392   4.471   0.169
 3972SOL    HW222021   0.353   4.329   0.098
 3973SOL     OW22022   8.540   2.982   0.744
 3973SOL    HW122023   8.582   3.073   0.752
 3973SOL    HW222024   8.521   2.946   0.836
 3974SOL     OW22025   9.778   9.940   0.237
 3974SOL    HW122026   9.761   9.842   0.225
 3974SOL    HW222027   9.839   9.973   0.165
 3975SOL     OW22028   4.724   2.334   1.566
 3975SOL    HW122029   4.762   2.245   1.591
 3975SOL    HW222030   4.651   2.358   1.630
 3976SOL     OW22031   1.816   3.113   1.668
 3976SOL    HW122032   1.734   3.101   1.725
 3976SOL    HW222033   1.830   3.210   1.650
 3977SOL     OW22034   1.263   1.882   0.077
 3977SOL    HW122035   1.336   1.815   0.092
 3977SOL    HW222036   1.201   1.849   0.006
 3978SOL     OW22037   1.080   7.220   0.113
 3978SOL    HW122038   1.030   7.156   0.053
 3978SOL    HW222039   1.050   7.313   0.094
 3979SOL     OW22040   2.606   1.880   0.823
 3979SOL    HW122041   2.577   1.923   0.738
 3979SOL    HW222042   2.544   1.805   0.846
 3980SOL     OW22043   1.635   3.488   1.816
 3980SOL    HW122044   1.676   3.424   1.880
 3980SOL    HW222045   1.707   3.537   1.767
 3981SOL     OW22046   1.921   3.113   0.911
 3981SOL    HW122047   1.983   3.160   0.849
 3981SOL    HW222048   1.898   3.023   0.874
 3982SOL     OW22049   0.035   7.744   1.143
 3982SOL    HW122050   9.947   7.718   1.180
 3982SOL    HW222051   0.022   7.792   1.056
 3983SOL     OW22052   7.590   0.296   0.324
 3983SOL    HW122053   7.650   0.216   0.327
 3983SOL    HW222054   7.559   0.318   0.417
 3984SOL     OW22055   7.985   8.218   2.306
 3984SOL    HW122056   8.058   8.157   2.336
 3984SOL    HW222057   7.897   8.177   2.328
 3985SOL     OW22058   3.879   4.420   1.219
 3985SOL    HW122059   3.800   4.372   1.257
 3985SOL    HW222060   3.954   4.417   1.285
 3986SOL     OW22061   1.502   6.997   0.073
 3986SOL    HW122062   1.506   6.975   2.916
 3986SOL    HW222063   1.595   6.993   0.111
 3987SOL     OW22064   0.940   8.614   1.533
 3987SOL    HW122065   0.866   8.563   1.489
 3987SOL    HW222066   0.982   8.558   1.604
 3988SOL     OW22067   9.262   3.192   2.243
 3988SOL    HW122068   9.189   3.253   2.273
 3988SOL    HW222069   9.255   3.177   2.144
 3989SOL     OW22070   1.548   3.071   0.265
 3989SOL    HW122071   1.633   3.105   0.224
 3989SOL    HW222072   1.488   3.148   0.285
 3990SOL     OW22073   4.268   1.420   1.761
 3990SOL    HW122074   4.262   1.322   1.743
 3990SOL    HW222075   4.356   1.441   1.802
 3991SOL     OW22076   2.148   7.653   1.571
 3991SOL    HW122077   2.202   7.572   1.552
 3991SOL    HW222078   2.208   7.728   1.599
 3992SOL     OW22079   9.846   6.788   0.744
 3992SOL    HW122080   9.755   6.829   0.739
 3992SOL    HW222081   9.914   6.860   0.754
 3993SOL     OW22082   3.419   3.481   0.492
 3993SOL    HW122083   3.347   3.520   0.549
 3993SOL    HW222084   3.482   3.428   0.549
 3994SOL     OW22085   8.227   1.100   1.552
 3994SOL    HW122086   8.160   1.130   1.620
 3994SOL    HW222087   8.293   1.039   1.596
 3995SOL     OW22088   8.042   0.064   2.083
 3995SOL    HW122089   7.947   0.069   2.052
 3995SOL    HW222090   8.057   9.977   2.130
 3996SOL     OW22091   0.342   4.382   2.151
 3996SOL    HW122092   0.271   4.440   2.110
 3996SOL    HW222093   0.304   4.292   2.170
 3997SOL     OW22094   0.842   4.815   0.439
 3997SOL    HW122095   0.903   4.859   0.374
 3997SOL    HW222096   0.837   4.870   0.522
 3998SOL     OW22097   9.755   3.635   1.407
 3998SOL    HW122098   9.682   3.693   1.372
 3998SOL    HW222099   9.769   3.653   1.504
 3999SOL     OW22100   0.344   2.053   1.639
 3999SOL    HW122101   0.383   1.985   1.701
 3999SOL    HW222102   0.245   2.044   1.637
 4000SOL     OW22103   0.442   6.313   1.544
 4000SOL    HW122104   0.461   6.404   1.506
 4000SOL    HW222105   0.415   6.322   1.640
 4001SOL     OW22106   3.444   1.932   1.283
 4001SOL    HW122107   3.457   1.945   1.381
 4001SOL    HW222108   3.441   2.021   1.237
 4002SOL     OW22109   1.797   0.108   2.026
 4002SOL    HW122110   1.772   0.079   1.933
 4002SOL    HW222111   1.714   0.125   2.079
 4003SOL     OW22112   4.287   0.583   0.819
 4003SOL    HW122113   4.373   0.633   0.811
 4003SOL    HW222114   4.295   0.515   0.892
 4004SOL     OW22115   0.828   0.512   2.146
 4004SOL    HW122116   0.906   0.451   2.160
 4004SOL    HW222117   0.831   0.548   2.052
 4005SOL     OW22118   9.559   9.177   1.224
 4005SOL    HW122119   9.569   9.232   1.140
 4005SOL    HW222120   9.648   9.165   1.267
 4006SOL     OW22121   9.052   2.080   1.692
 4006SOL    HW122122   9.080   2.172   1.719
 4006SOL    HW222123   8.952   2.078   1.681
 4007SOL     OW22124   1.894   7.199   0.288
 4007SOL    HW122125   1.951   7.203   0.369
 4007SOL    HW222126   1.909   7.280   0.232
 4008SOL     OW22127   4.371   3.488   0.588
 4008SOL    HW122128   4.457   3.527   0.622
 4008SOL    HW222129   4.311   3.562   0.558
 4009SOL     OW22130   9.529   8.877   1.636
 4009SOL    HW122131   9.464   8.927   1.579
 4009SOL    HW222132   9.621   8.917   1.625
 4010SOL     OW22133   8.643   7.476   0.745
 4010SOL    HW122134   8.671   7.391   0.791
 4010SOL    HW222135   8.715   7.504   0.681
 4011SOL     OW22136   1.177   3.285   0.870
 4011SOL    HW122137   1.117   3.221   0.822
 4011SOL    HW222138   1.262   3.238   0.895
 4012SOL     OW22139   1.422   6.021   0.769
 4012SOL    HW122140   1.334   5.982   0.743
 4012SOL    HW222141   1.440   6.103   0.716
 4013SOL     OW22142   9.369   9.986   1.615
 4013SOL    HW122143   9.333   9.988   1.522
 4013SOL    HW222144   9.365   0.078   1.654
 4014SOL     OW22145   4.079   0.262   2.055
 4014SOL    HW122146   4.059   0.288   2.149
 4014SOL    HW222147   4.161   0.204   2.053
 4015SOL     OW22148   0.192   5.568   0.071
 4015SOL    HW122149   0.245   5.484   0.087
 4015SOL    HW222150   0.097   5.544   0.051
 4016SOL     OW22151   1.287   0.262   1.523
 4016SOL    HW122152   1.229   0.292   1.447
 4016SOL    HW222153   1.263   0.314   1.605
 4017SOL     OW22154   0.069   1.755   1.747
 4017SOL    HW122155   0.106   1.678   1.694
 4017SOL    HW222156   9.970   1.758   1.737
 4018SOL     OW22157   2.039   2.985   1.786
 4018SOL    HW122158   1.959   3.032   1.748
 4018SOL    HW222159   2.024   2.967   1.883
 4019SOL     OW22160   2.667   3.618   2.128
 4019SOL    HW122161   2.676   3.526   2.090
 4019SOL    HW222162   2.757   3.654   2.151
 4020SOL     OW22163   0.580   8.608   1.131
 4020SOL    HW122164   0.644   8.532   1.141
 4020SOL    HW222165   0.522   8.592   1.051
 4021SOL     OW22166   0.922   9.453   1.257
 4021SOL    HW122167   0.922   9.368   1.206
 4021SOL    HW222168   0.994   9.450   1.327
 4022SOL     OW22169   4.183   2.146   1.873
 4022SOL    HW122170   4.277   2.140   1.906
 4022SOL    HW222171   4.120   2.127   1.948
 4023SOL     OW22172   0.627   7.490   0.487
 4023SOL    HW122173   0.696   7.449   0.546
 4023SOL    HW222174   0.568   7.418   0.449
 4024SOL     OW22175   2.310   8.919   0.133
 4024SOL    HW122176   2.267   9.008   0.144
 4024SOL    HW222177   2.317   8.873   0.221
 4025SOL     OW22178   3.068   3.119   0.162
 4025SOL    HW122179   3.122   3.173   0.228
 4025SOL    HW222180   2.994   3.176   0.125
 4026SOL     OW22181   2.653   2.313   0.854
 4026SOL    HW122182   2.730   2.259   0.819
 4026SOL    HW222183   2.627   2.382   0.786
 4027SOL     OW22184   2.475   0.326   2.191
 4027SOL    HW122185   2.457   0.244   2.246
 4027SOL    HW222186   2.392   0.354   2.144
 4028SOL     OW22187   2.590   5.662   2.101
 4028SOL    HW122188   2.609   5.648   2.004
 4028SOL    HW222189   2.664   5.624   2.156
 4029SOL     OW22190   8.564   4.313   2.093
 4029SOL    HW122191   8.525   4.301   2.002
 4029SOL    HW222192   8.642   4.251   2.104
 4030SOL     OW22193   1.979   0.701   1.798
 4030SOL    HW122194   2.068   0.740   1.773
 4030SOL    HW222195   1.925   0.685   1.716
 4031SOL     OW22196   2.845   1.667   2.133
 4031SOL    HW122197   2.759   1.622   2.108
 4031SOL    HW222198   2.825   1.755   2.175
 4032SOL     OW22199   2.182   9.145   0.212
 4032SOL    HW122200   2.215   9.233   0.245
 4032SOL    HW222201   2.098   9.121   0.261
 4033SOL     OW22202   1.591   3.923   2.225
 4033SOL    HW122203   1.573   3.825   2.226
 4033SOL    HW222204   1.531   3.968   2.159
 4034SOL     OW22205   1.612   9.476   1.032
 4034SOL    HW122206   1.659   9.496   0.946
 4034SOL    HW222207   1.535   9.414   1.013
 4035SOL     OW22208   0.250   8.395   2.164
 4035SOL    HW122209   0.195   8.456   2.221
 4035SOL    HW222210   0.215   8.301   2.172
 4036SOL     OW22211   1.820   5.456   1.334
 4036SOL    HW122212   1.797   5.388   1.264
 4036SOL    HW222213   1.896   5.421   1.390
 4037SOL     OW22214   9.168   4.313   2.203
 4037SOL    HW122215   9.084   4.289   2.251
 4037SOL    HW222216   9.180   4.412   2.203
 4038SOL     OW22217   7.751   0.593   0.514
 4038SOL    HW122218   7.729   0.588   0.417
 4038SOL    HW222219   7.666   0.599   0.567
 4039SOL     OW22220   0.287   6.349   0.786
 4039SOL    HW122221   0.188   6.347   0.772
 4039SOL    HW222222   0.329   6.269   0.743
 4040SOL     OW22223   0.808   1.377   1.686
 4040SOL    HW122224   0.708   1.379   1.689
 4040SOL    HW222225   0.843   1.466   1.717
 4041SOL     OW22226   8.380   6.666   0.775
 4041SOL    HW122227   8.444   6.730   0.817
 4041SOL    HW222228   8.350   6.701   0.687
 4042SOL     OW22229   9.916   9.879   0.474
 4042SOL    HW122230   0.008   9.913   0.490
 4042SOL    HW222231   9.877   9.924   0.393
 4043SOL     OW22232   9.110   8.037   1.227
 4043SOL    HW122233   9.145   7.955   1.181
 4043SOL    HW222234   9.015   8.053   1.198
 4044SOL     OW22235   9.234   4.032   1.557
 4044SOL    HW122236   9.202   4.024   1.463
 4044SOL    HW222237   9.321   3.985   1.568
 4045SOL     OW22238   0.950   2.111   1.612
 4045SOL    HW122239   0.916   2.021   1.585
 4045SOL    HW222240   1.021   2.141   1.547
 4046SOL     OW22241   8.316   2.602   0.714
 4046SOL    HW122242   8.328   2.690   0.668
 4046SOL    HW222243   8.319   2.528   0.647
 4047SOL     OW22244   1.681   4.623   0.143
 4047SOL    HW122245   1.673   4.722   0.151
 4047SOL    HW222246   1.692   4.598   0.046
 4048SOL     OW22247   8.442   7.837   1.790
 4048SOL    HW122248   8.526   7.827   1.843
 4048SOL    HW222249   8.409   7.931   1.798
 4049SOL     OW22250   0.220   1.950   2.304
 4049SOL    HW122251   0.253   1.954   2.210
 4049SOL    HW222252   0.136   1.896   2.307
 4050SOL     OW22253   1.423   4.762   0.307
 4050SOL    HW122254   1.380   4.704   0.238
 4050SOL    HW222255   1.434   4.854   0.271
 4051SOL     OW22256   0.802   6.357   1.696
 4051SOL    HW122257   0.882   6.322   1.744
 4051SOL    HW222258   0.738   6.282   1.679
 4052SOL     OW22259   0.557   4.549   0.256
 4052SOL    HW122260   0.548   4.618   0.328
 4052SOL    HW222261   0.654   4.534   0.236
 4053SOL     OW22262   1.309   6.970   0.697
 4053SOL    HW122263   1.348   6.918   0.622
 4053SOL    HW222264   1.311   7.068   0.674
 4054SOL     OW22265   1.488   7.664   1.196
 4054SOL    HW122266   1.569   7.687   1.143
 4054SOL    HW222267   1.515   7.640   1.290
 4055SOL     OW22268   9.369   6.793   0.723
 4055SOL    HW122269   9.314   6.859   0.775
 4055SOL    HW222270   9.333   6.786   0.630
 4056SOL     OW22271   1.132   6.934   1.147
 4056SOL    HW122272   1.046   6.986   1.154
 4056SOL    HW222273   1.197   6.986   1.092
 4057SOL     OW22274   8.810   8.354   1.858
 4057SOL    HW122275   8.801   8.440   1.908
 4057SOL    HW222276   8.903   8.317   1.871
 4058SOL     OW22277   3.479   3.262   1.154
 4058SOL    HW122278   3.449   3.243   1.060
 4058SOL    HW222279   3.465   3.181   1.210
 4059SOL     OW22280   2.362   4.996   0.352
 4059SOL    HW122281   2.401   4.936   0.422
 4059SOL    HW222282   2.346   5.086   0.391
 4060SOL     OW22283   4.639   0.789   1.489
 4060SOL    HW122284   4.541   0.770   1.475
 4060SOL    HW222285   4.688   0.703   1.504
 4061SOL     OW22286   1.705   7.378   0.708
 4061SOL    HW122287   1.667   7.462   0.747
 4061SOL    HW222288   1.706   7.385   0.608
 4062SOL     OW22289   0.993   5.765   1.368
 4062SOL    HW122290   0.932   5.820   1.311
 4062SOL    HW222291   0.942   5.726   1.444
 4063SOL     OW22292   8.752   2.195   0.926
 4063SOL    HW122293   8.687   2.120   0.933
 4063SOL    HW222294   8.782   2.223   1.017
 4064SOL     OW22295   0.828   9.543   2.051
 4064SOL    HW122296   0.755   9.579   1.992
 4064SOL    HW222297   0.798   9.458   2.094
 4065SOL     OW22298   2.849   1.984   1.358
 4065SOL    HW122299   2.846   2.064   1.298
 4065SOL    HW222300   2.843   2.013   1.454
 4066SOL     OW22301   1.072   8.905   0.945
 4066SOL    HW122302   1.056   8.941   1.037
 4066SOL    HW222303   1.110   8.977   0.887
 4067SOL     OW22304   2.744   7.883   1.627
 4067SOL    HW122305   2.835   7.865   1.590
 4067SOL    HW222306   2.679   7.816   1.591
 4068SOL     OW22307   2.584   4.034   0.401
 4068SOL    HW122308   2.581   3.941   0.366
 4068SOL    HW222309   2.549   4.036   0.495
 4069SOL     OW22310   8.696   3.206   0.759
 4069SOL    HW122311   8.725   3.289   0.806
 4069SOL    HW222312   8.756   3.189   0.681
 4070SOL     OW22313   3.462   5.058   1.110
 4070SOL    HW122314   3.553   5.041   1.073
 4070SOL    HW222315   3.449   5.156   1.123
 4071SOL     OW22316   1.497   4.086   0.623
 4071SOL    HW122317   1.545   4.171   0.645
 4071SOL    HW222318   1.490   4.029   0.706
 4072SOL     OW22319   3.082   1.008   1.940
 4072SOL    HW122320   3.107   1.098   1.975
 4072SOL    HW222321   3.162   0.964   1.900
 4073SOL     OW22322   8.393   7.398   1.347
 4073SOL    HW122323   8.408   7.497   1.346
 4073SOL    HW222324   8.474   7.352   1.383
 4074SOL     OW22325   0.605   2.631   0.698
 4074SOL    HW122326   0.673   2.614   0.769
 4074SOL    HW222327   0.633   2.709   0.642
 4075SOL     OW22328   1.508   9.917   1.216
 4075SOL    HW122329   1.526   9.821   1.238
 4075SOL    HW222330   1.461   9.923   1.128
 4076SOL     OW22331   9.953   0.038   0.047
 4076SOL    HW122332   0.047   0.008   0.034
 4076SOL    HW222333   9.912   0.058   2.899
 4077SOL     OW22334   3.243   4.652   1.030
 4077SOL    HW122335   3.172   4.709   1.071
 4077SOL    HW222336   3.315   4.635   1.098
 4078SOL     OW22337   8.313   2.404   1.744
 4078SOL    HW122338   8.229   2.432   1.698
 4078SOL    HW222339   8.319   2.450   1.833
 4079SOL     OW22340   0.092   4.030   0.124
 4079SOL    HW122341   0.001   3.990   0.110
 4079SOL    HW222342   0.086   4.129   0.114
 4080SOL     OW22343   2.912   7.738   2.260
 4080SOL    HW122344   2.952   7.807   2.200
 4080SOL    HW222345   2.983   7.676   2.292
 4081SOL     OW22346   0.594   3.793   2.047
 4081SOL    HW122347   0.538   3.712   2.065
 4081SOL    HW222348   0.689   3.766   2.031
 4082SOL     OW22349   8.810   7.265   0.106
 4082SOL    HW122350   8.874   7.271   0.029
 4082SOL    HW222351   8.733   7.327   0.090
 4083SOL     OW22352   3.582   8.509   0.370
 4083SOL    HW122353   3.546   8.460   0.449
 4083SOL    HW222354   3.651   8.574   0.400
 4084SOL     OW22355   1.068   2.246   0.395
 4084SOL    HW122356   1.107   2.165   0.351
 4084SOL    HW222357   0.969   2.234   0.404
 4085SOL     OW22358   4.082   1.734   0.667
 4085SOL    HW122359   4.031   1.750   0.582
 4085SOL    HW222360   4.076   1.637   0.691
 4086SOL     OW22361   1.268   0.549   1.203
 4086SOL    HW122362   1.201   0.552   1.129
 4086SOL    HW222363   1.299   0.642   1.223
 4087SOL     OW22364   1.736   5.602   2.169
 4087SOL    HW122365   1.680   5.556   2.100
 4087SOL    HW222366   1.772   5.534   2.233
 4088SOL     OW22367   0.542   4.899   0.064
 4088SOL    HW122368   0.529   4.896   2.906
 4088SOL    HW222369   0.637   4.874   0.085
 4089SOL     OW22370   3.160   8.379   0.833
 4089SOL    HW122371   3.156   8.421   0.924
 4089SOL    HW222372   3.145   8.280   0.841
 4090SOL     OW22373   3.335   5.394   1.410
 4090SOL    HW122374   3.404   5.365   1.476
 4090SOL    HW222375   3.270   5.455   1.456
 4091SOL     OW22376   4.912   4.538   0.088
 4091SOL    HW122377   4.849   4.614   0.101
 4091SOL    HW222378   4.930   4.526   2.932
 4092SOL     OW22379   0.174   4.369   1.226
 4092SOL    HW122380   0.169   4.275   1.191
 4092SOL    HW222381   0.096   4.422   1.191
 4093SOL     OW22382   3.217   9.859   0.982
 4093SOL    HW122383   3.300   9.804   0.975
 4093SOL    HW222384   3.181   9.876   0.890
 4094SOL     OW22385   4.097   4.725   0.853
 4094SOL    HW122386   4.101   4.722   0.953
 4094SOL    HW222387   4.016   4.777   0.825
 4095SOL     OW22388   3.736   0.917   0.268
 4095SOL    HW122389   3.636   0.924   0.279
 4095SOL    HW222390   3.775   1.009   0.262
 4096SOL     OW22391   1.962   6.187   1.066
 4096SOL    HW122392   1.943   6.281   1.094
 4096SOL    HW222393   1.904   6.164   0.988
 4097SOL     OW22394   3.437   2.543   0.892
 4097SOL    HW122395   3.370   2.616   0.904
 4097SOL    HW222396   3.442   2.518   0.795
 4098SOL     OW22397   0.376   9.751   0.915
 4098SOL    HW122398   0.432   9.671   0.937
 4098SOL    HW222399   0.279   9.728   0.923
 4099SOL     OW22400   9.172   5.595   1.934
 4099SOL    HW122401   9.140   5.686   1.958
 4099SOL    HW222402   9.219   5.555   2.013
 4100SOL     OW22403   0.534   7.739   0.567
 4100SOL    HW122404   0.569   7.650   0.536
 4100SOL    HW222405   0.446   7.727   0.612
 4101SOL     OW22406   1.822   0.648   1.577
 4101SOL    HW122407   1.831   0.571   1.514
 4101SOL    HW222408   1.735   0.640   1.626
 4102SOL     OW22409   9.910   7.371   2.152
 4102SOL    HW122410   9.860   7.342   2.070
 4102SOL    HW222411   9.989   7.312   2.166
 4103SOL     OW22412   9.337   8.182   2.172
 4103SOL    HW122413   9.405   8.133   2.227
 4103SOL    HW222414   9.375   8.199   2.081
 4104SOL     OW22415   0.642   9.080   0.891
 4104SOL    HW122416   0.728   9.096   0.843
 4104SOL    HW222417   0.608   8.988   0.868
 4105SOL     OW22418   0.910   8.292   0.395
 4105SOL    HW122419   0.935   8.238   0.314
 4105SOL    HW222420   0.842   8.361   0.369
 4106SOL     OW22421   2.705   0.969   2.214
 4106SOL    HW122422   2.805   0.963   2.210
 4106SOL    HW222423   2.676   1.061   2.189
 4107SOL     OW22424   9.437   0.586   1.835
 4107SOL    HW122425   9.428   0.525   1.914
 4107SOL    HW222426   9.374   0.557   1.763
 4108SOL     OW22427   3.495   0.215   0.321
 4108SOL    HW122428   3.568   0.148   0.331
 4108SOL    HW222429   3.409   0.168   0.300
 4109SOL     OW22430   3.561   0.553   1.564
 4109SOL    HW122431   3.653   0.523   1.587
 4109SOL    HW222432   3.503   0.473   1.544
 4110SOL     OW22433   9.254   5.550   0.980
 4110SOL    HW122434   9.170   5.600   1.002
 4110SOL    HW222435   9.318   5.558   1.056
 4111SOL     OW22436   1.979   0.064   0.553
 4111SOL    HW122437   2.056   0.022   0.602
 4111SOL    HW222438   1.981   0.037   0.457
 4112SOL     OW22439   2.906   6.467   0.344
 4112SOL    HW122440   2.873   6.373   0.355
 4112SOL    HW222441   2.995   6.467   0.298
 4113SOL     OW22442   2.746   1.559   1.411
 4113SOL    HW122443   2.794   1.485   1.457
 4113SOL    HW222444   2.667   1.523   1.362
 4114SOL     OW22445   8.787   1.646   1.830
 4114SOL    HW122446   8.857   1.703   1.787
 4114SOL    HW222447   8.826   1.557   1.854
 4115SOL     OW22448   0.650   4.363   0.545
 4115SOL    HW122449   0.594   4.436   0.583
 4115SOL    HW222450   0.591   4.298   0.496
 4116SOL     OW22451   9.807   8.000   0.842
 4116SOL    HW122452   9.855   8.064   0.783
 4116SOL    HW222453   9.719   8.040   0.870
 4117SOL     OW22454   9.289   6.845   1.108
 4117SOL    HW122455   9.246   6.755   1.114
 4117SOL    HW222456   9.269   6.886   1.019
 4118SOL     OW22457   0.905   7.103   1.125
 4118SOL    HW122458   0.959   7.146   1.053
 4118SOL    HW222459   0.848   7.171   1.171
 4119SOL     OW22460   1.367   6.590   1.807
 4119SOL    HW122461   1.374   6.627   1.714
 4119SOL    HW222462   1.271   6.583   1.833
 4120SOL     OW22463   9.432   0.578   1.089
 4120SOL    HW122464   9.495   0.518   1.139
 4120SOL    HW222465   9.419   0.663   1.141
 4121SOL     OW22466   1.703   8.773   1.944
 4121SOL    HW122467   1.648   8.850   1.977
 4121SOL    HW222468   1.666   8.741   1.857
 4122SOL     OW22469   8.536   2.579   0.886
 4122SOL    HW122470   8.596   2.535   0.818
 4122SOL    HW222471   8.444   2.587   0.848
 4123SOL     OW22472   1.368   5.763   2.254
 4123SOL    HW122473   1.445   5.801   2.204
 4123SOL    HW222474   1.401   5.709   2.331
 4124SOL     OW22475   2.222   6.397   0.790
 4124SOL    HW122476   2.170   6.312   0.797
 4124SOL    HW222477   2.233   6.437   0.881
 4125SOL     OW22478   1.667   4.185   1.673
 4125SOL    HW122479   1.571   4.163   1.656
 4125SOL    HW222480   1.713   4.202   1.586
 4126SOL     OW22481   8.943   1.013   0.382
 4126SOL    HW122482   8.971   0.944   0.449
 4126SOL    HW222483   8.870   0.976   0.325
 4127SOL     OW22484   2.798   3.745   0.570
 4127SOL    HW122485   2.781   3.704   0.480
 4127SOL    HW222486   2.712   3.778   0.609
 4128SOL     OW22487   2.767   3.114   1.158
 4128SOL    HW122488   2.714   3.177   1.215
 4128SOL    HW222489   2.824   3.167   1.095
 4129SOL     OW22490   8.434   8.237   1.348
 4129SOL    HW122491   8.364   8.172   1.377
 4129SOL    HW222492   8.522   8.191   1.343
 4130SOL     OW22493   1.342   0.961   0.592
 4130SOL    HW122494   1.430   0.921   0.569
 4130SOL    HW222495   1.313   1.023   0.518
 4131SOL     OW22496   8.087   8.704   0.835
 4131SOL    HW122497   8.056   8.706   0.930
 4131SOL    HW222498   8.167   8.764   0.824
 4132SOL     OW22499   9.568   8.085   0.940
 4132SOL    HW122500   9.480   8.044   0.915
 4132SOL    HW222501   9.552   8.168   0.993
 4133SOL     OW22502   2.322   7.450   1.528
 4133SOL    HW122503   2.412   7.459   1.486
 4133SOL    HW222504   2.319   7.365   1.581
 4134SOL     OW22505   0.212   4.092   0.856
 4134SOL    HW122506   0.178   4.154   0.785
 4134SOL    HW222507   0.162   4.107   0.941
 4135SOL     OW22508   1.407   4.150   1.588
 4135SOL    HW122509   1.369   4.058   1.577
 4135SOL    HW222510   1.332   4.215   1.604
 4136SOL     OW22511   8.679   2.788   1.723
 4136SOL    HW122512   8.589   2.817   1.756
 4136SOL    HW222513   8.708   2.848   1.648
 4137SOL     OW22514   1.840   4.747   0.529
 4137SOL    HW122515   1.929   4.762   0.573
 4137SOL    HW222516   1.847   4.669   0.466
 4138SOL     OW22517   3.228   0.835   1.609
 4138SOL    HW122518   3.310   0.803   1.656
 4138SOL    HW222519   3.242   0.929   1.578
 4139SOL     OW22520   1.431   4.956   0.632
 4139SOL    HW122521   1.392   4.934   0.721
 4139SOL    HW222522   1.485   4.879   0.599
 4140SOL     OW22523   1.941   3.721   0.367
 4140SOL    HW122524   1.904   3.643   0.317
 4140SOL    HW222525   1.892   3.804   0.341
 4141SOL     OW22526   2.156   2.117   1.988
 4141SOL    HW122527   2.083   2.088   1.926
 4141SOL    HW222528   2.173   2.046   2.056
 4142SOL     OW22529   9.113   7.755   1.961
 4142SOL    HW122530   9.195   7.811   1.970
 4142SOL    HW222531   9.113   7.684   2.031
 4143SOL     OW22532   3.027   1.312   0.515
 4143SOL    HW122533   3.024   1.369   0.432
 4143SOL    HW222534   3.121   1.281   0.530
 4144SOL     OW22535   3.355   2.760   0.084
 4144SOL    HW122536   3.271   2.783   0.133
 4144SOL    HW222537   3.362   2.816   0.002
 4145SOL     OW22538   2.081   8.684   2.172
 4145SOL    HW122539   2.049   8.674   2.266
 4145SOL    HW222540   2.011   8.650   2.109
 4146SOL     OW22541   0.263   4.438   1.497
 4146SOL    HW122542   0.336   4.380   1.533
 4146SOL    HW222543   0.231   4.400   1.410
 4147SOL     OW22544   8.980   1.789   1.692
 4147SOL    HW122545   9.028   1.875   1.712
 4147SOL    HW222546   8.923   1.800   1.611
 4148SOL     OW22547   9.988   3.910   1.188
 4148SOL    HW122548   9.994   3.811   1.194
 4148SOL    HW222549   9.892   3.938   1.188
 4149SOL     OW22550   8.917   9.760   1.325
 4149SOL    HW122551   8.972   9.702   1.385
 4149SOL    HW222552   8.943   9.856   1.338
 4150SOL     OW22553   0.038   2.007   1.961
 4150SOL    HW122554   9.971   1.938   1.989
 4150SOL    HW222555   0.129   1.981   1.994
 4151SOL     OW22556   8.707   0.175   1.077
 4151SOL    HW122557   8.807   0.167   1.084
 4151SOL    HW222558   8.665   0.153   1.165
 4152SOL     OW22559   3.756   3.111   0.476
 4152SOL    HW122560   3.841   3.140   0.521
 4152SOL    HW222561   3.719   3.031   0.524
 4153SOL     OW22562   9.546   5.121   0.570
 4153SOL    HW122563   9.628   5.167   0.605
 4153SOL    HW222564   9.571   5.031   0.535
 4154SOL     OW22565   1.990   3.453   0.685
 4154SOL    HW122566   1.994   3.552   0.671
 4154SOL    HW222567   1.895   3.425   0.701
 4155SOL     OW22568   9.659   9.412   1.742
 4155SOL    HW122569   9.640   9.368   1.830
 4155SOL    HW222570   9.605   9.368   1.670
 4156SOL     OW22571   2.596   8.426   0.637
 4156SOL    HW122572   2.657   8.413   0.715
 4156SOL    HW222573   2.633   8.497   0.578
 4157SOL     OW22574   2.399   2.445   1.882
 4157SOL    HW122575   2.412   2.533   1.927
 4157SOL    HW222576   2.302   2.429   1.866
 4158SOL     OW22577   2.880   3.546   0.744
 4158SOL    HW122578   2.805   3.483   0.762
 4158SOL    HW222579   2.845   3.625   0.694
 4159SOL     OW22580   9.834   3.668   2.135
 4159SOL    HW122581   9.914   3.628   2.181
 4159SOL    HW222582   9.841   3.651   2.036
 4160SOL     OW22583   3.243   8.823   0.258
 4160SOL    HW122584   3.299   8.843   0.178
 4160SOL    HW222585   3.296   8.837   0.341
 4161SOL     OW22586   3.176   1.682   0.612
 4161SOL    HW122587   3.263   1.701   0.657
 4161SOL    HW222588   3.183   1.704   0.514
 4162SOL     OW22589   4.027   9.043   1.445
 4162SOL    HW122590   4.071   9.098   1.515
 4162SOL    HW222591   4.068   8.952   1.443
 4163SOL     OW22592   9.340   3.789   1.155
 4163SOL    HW122593   9.357   3.881   1.119
 4163SOL    HW222594   9.244   3.781   1.181
 4164SOL     OW22595   3.233   2.732   0.893
 4164SOL    HW122596   3.207   2.702   0.801
 4164SOL    HW222597   3.194   2.822   0.911
 4165SOL     OW22598   3.394   8.946   0.713
 4165SOL    HW122599   3.362   9.038   0.690
 4165SOL    HW222600   3.317   8.891   0.745
 4166SOL     OW22601   2.768   1.926   0.211
 4166SOL    HW122602   2.860   1.946   0.246
 4166SOL    HW222603   2.774   1.899   0.115
 4167SOL     OW22604   4.051   8.599   2.113
 4167SOL    HW122605   4.143   8.584   2.077
 4167SOL    HW222606   4.007   8.510   2.129
 4168SOL     OW22607   8.322   9.155   0.762
 4168SOL    HW122608   8.411   9.198   0.777
 4168SOL    HW222609   8.318   9.118   0.669
 4169SOL     OW22610   1.199   3.988   1.937
 4169SOL    HW122611   1.146   3.979   2.021
 4169SOL    HW222612   1.295   4.004   1.960
 4170SOL     OW22613   9.489   5.949   1.879
 4170SOL    HW122614   9.556   6.015   1.843
 4170SOL    HW222615   9.525   5.856   1.867
 4171SOL     OW22616   9.398   8.921   0.608
 4171SOL    HW122617   9.421   8.899   0.513
 4171SOL    HW222618   9.380   9.019   0.616
 4172SOL     OW22619   9.174   0.676   0.399
 4172SOL    HW122620   9.095   0.713   0.447
 4172SOL    HW222621   9.244   0.650   0.467
 4173SOL     OW22622   8.941   5.421   2.094
 4173SOL    HW122623   8.895   5.483   2.030
 4173SOL    HW222624   8.984   5.475   2.167
 4174SOL     OW22625   8.980   2.945   1.587
 4174SOL    HW122626   9.032   2.889   1.521
 4174SOL    HW222627   8.884   2.946   1.560
 4175SOL     OW22628   2.002   0.356   1.609
 4175SOL    HW122629   1.949   0.332   1.690
 4175SOL    HW222630   2.072   0.423   1.633
 4176SOL     OW22631   9.462   0.680   0.086
 4176SOL    HW122632   9.544   0.732   0.062
 4176SOL    HW222633   9.477   0.583   0.068
 4177SOL     OW22634   2.161   3.330   0.862
 4177SOL    HW122635   2.109   3.371   0.787
 4177SOL    HW222636   2.254   3.311   0.831
 4178SOL     OW22637   9.321   1.683   0.313
 4178SOL    HW122638   9.284   1.678   0.221
 4178SOL    HW222639   9.254   1.646   0.378
 4179SOL     OW22640   3.014   4.021   1.864
 4179SOL    HW122641   2.933   3.963   1.873
 4179SOL    HW222642   3.094   3.971   1.899
 4180SOL     OW22643   0.060   8.941   2.122
 4180SOL    HW122644   0.011   8.889   2.192
 4180SOL    HW222645   0.007   8.941   2.037
 4181SOL     OW22646   1.119   0.353   1.325
 4181SOL    HW122647   1.062   0.398   1.394
 4181SOL    HW222648   1.175   0.422   1.278
 4182SOL     OW22649   3.146   3.256   0.865
 4182SOL    HW122650   3.138   3.240   0.766
 4182SOL    HW222651   3.236   3.226   0.896
 4183SOL     OW22652   1.034   9.031   0.309
 4183SOL    HW122653   0.985   9.089   0.374
 4183SOL    HW222654   1.049   8.941   0.350
 4184SOL     OW22655   1.226   0.853   1.499
 4184SOL    HW122656   1.302   0.790   1.510
 4184SOL    HW222657   1.141   0.802   1.488
 4185SOL     OW22658   4.370   9.460   1.032
 4185SOL    HW122659   4.289   9.434   1.084
 4185SOL    HW222660   4.449   9.407   1.064
 4186SOL     OW22661   0.849   6.469   1.447
 4186SOL    HW122662   0.848   6.387   1.389
 4186SOL    HW222663   0.829   6.442   1.541
 4187SOL     OW22664   2.015   0.844   0.153
 4187SOL    HW122665   2.113   0.853   0.139
 4187SOL    HW222666   1.990   0.748   0.156
 4188SOL     OW22667   8.101   8.329   2.086
 4188SOL    HW122668   8.064   8.284   2.166
 4188SOL    HW222669   8.051   8.414   2.069
 4189SOL     OW22670   3.528   9.957   1.477
 4189SOL    HW122671   3.453   9.995   1.531
 4189SOL    HW222672   3.497   9.874   1.430
 4190SOL     OW22673   3.443   2.912   1.055
 4190SOL    HW122674   3.436   2.945   1.149
 4190SOL    HW222675   3.384   2.832   1.043
 4191SOL     OW22676   1.648   7.066   1.972
 4191SOL    HW122677   1.727   7.069   1.910
 4191SOL    HW222678   1.674   7.107   2.059
 4192SOL     OW22679   3.634   4.269   0.849
 4192SOL    HW122680   3.610   4.366   0.857
 4192SOL    HW222681   3.649   4.231   0.940
 4193SOL     OW22682   8.147   8.384   1.351
 4193SOL    HW122683   8.165   8.438   1.433
 4193SOL    HW222684   8.215   8.407   1.281
 4194SOL     OW22685   1.784   5.002   0.624
 4194SOL    HW122686   1.801   4.913   0.582
 4194SOL    HW222687   1.773   5.071   0.552
 4195SOL     OW22688   8.796   4.156   2.109
 4195SOL    HW122689   8.847   4.194   2.185
 4195SOL    HW222690   8.798   4.056   2.112
 4196SOL     OW22691   9.578   9.314   2.291
 4196SOL    HW122692   9.614   9.408   2.286
 4196SOL    HW222693   9.653   9.250   2.304
 4197SOL     OW22694   3.097   5.506   1.996
 4197SOL    HW122695   3.080   5.420   2.043
 4197SOL    HW222696   3.189   5.539   2.019
 4198SOL     OW22697   4.550   9.776   1.854
 4198SOL    HW122698   4.513   9.810   1.940
 4198SOL    HW222699   4.511   9.827   1.778
 4199SOL     OW22700   4.774   3.912   0.852
 4199SOL    HW122701   4.769   3.975   0.775
 4199SOL    HW222702   4.869   3.904   0.883
 4200SOL     OW22703   1.654   9.760   0.069
 4200SOL    HW122704   1.608   9.673   0.048
 4200SOL    HW222705   1.607   9.804   0.146
 4201SOL     OW22706   2.021   2.836   1.274
 4201SOL    HW122707   1.961   2.902   1.318
 4201SOL    HW222708   2.020   2.750   1.326
 4202SOL     OW22709   1.651   4.135   1.074
 4202SOL    HW122710   1.668   4.058   1.135
 4202SOL    HW222711   1.734   4.156   1.023
 4203SOL     OW22712   3.680   5.254   1.902
 4203SOL    HW122713   3.601   5.305   1.868
 4203SOL    HW222714   3.718   5.199   1.828
 4204SOL     OW22715   2.897   8.931   1.099
 4204SOL    HW122716   2.930   9.006   1.157
 4204SOL    HW222717   2.797   8.935   1.092
 4205SOL     OW22718   9.198   7.805   1.090
 4205SOL    HW122719   9.105   7.776   1.113
 4205SOL    HW222720   9.262   7.730   1.107
 4206SOL     OW22721   3.183   0.318   0.988
 4206SOL    HW122722   3.169   0.285   0.895
 4206SOL    HW222723   3.228   0.407   0.985
 4207SOL     OW22724   8.723   4.911   1.843
 4207SOL    HW122725   8.734   4.812   1.842
 4207SOL    HW222726   8.775   4.951   1.767
 4208SOL     OW22727   9.075   3.382   1.962
 4208SOL    HW122728   9.056   3.476   1.933
 4208SOL    HW222729   8.997   3.324   1.939
 4209SOL     OW22730   8.137   9.276   1.308
 4209SOL    HW122731   8.195   9.339   1.358
 4209SOL    HW222732   8.042   9.283   1.340
 4210SOL     OW22733   9.533   5.630   0.461
 4210SOL    HW122734   9.439   5.664   0.457
 4210SOL    HW222735   9.594   5.706   0.484
 4211SOL     OW22736   1.940   2.029   1.847
 4211SOL    HW122737   1.903   2.061   1.760
 4211SOL    HW222738   1.938   1.929   1.849
 4212SOL     OW22739   1.049   2.634   0.779
 4212SOL    HW122740   0.957   2.632   0.817
 4212SOL    HW222741   1.058   2.561   0.711
 4213SOL     OW22742   9.708   0.796   0.058
 4213SOL    HW122743   9.784   0.731   0.064
 4213SOL    HW222744   9.742   0.888   0.075
 4214SOL     OW22745   3.452   3.914   1.650
 4214SOL    HW122746   3.358   3.879   1.647
 4214SOL    HW222747   3.515   3.840   1.626
 4215SOL     OW22748   3.533   2.650   1.920
 4215SOL    HW122749   3.447   2.598   1.915
 4215SOL    HW222750   3.525   2.718   1.993
 4216SOL     OW22751   9.721   3.963   1.171
 4216SOL    HW122752   9.665   3.906   1.231
 4216SOL    HW222753   9.682   4.054   1.165
 4217SOL     OW22754   3.568   5.435   2.242
 4217SOL    HW122755   3.596   5.475   2.328
 4217SOL    HW222756   3.627   5.467   2.168
 4218SOL     OW22757   2.416   1.215   1.213
 4218SOL    HW122758   2.471   1.210   1.130
 4218SOL    HW222759   2.354   1.136   1.217
 4219SOL     OW22760   2.923   7.907   1.273
 4219SOL    HW122761   2.847   7.842   1.278
 4219SOL    HW222762   2.953   7.917   1.178
 4220SOL     OW22763   8.362   6.941   2.092
 4220SOL    HW122764   8.417   6.860   2.077
 4220SOL    HW222765   8.278   6.916   2.140
 4221SOL     OW22766   2.862   6.540   2.266
 4221SOL    HW122767   2.839   6.636   2.285
 4221SOL    HW222768   2.818   6.482   2.334
 4222SOL     OW22769   2.070   5.932   0.629
 4222SOL    HW122770   2.084   5.865   0.702
 4222SOL    HW222771   1.979   5.921   0.589
 4223SOL     OW22772   8.932   3.624   0.750
 4223SOL    HW122773   9.010   3.666   0.795
 4223SOL    HW222774   8.962   3.576   0.668
 4224SOL     OW22775   8.521   1.474   1.522
 4224SOL    HW122776   8.552   1.563   1.489
 4224SOL    HW222777   8.421   1.472   1.520
 4225SOL     OW22778   1.473   9.539   1.797
 4225SOL    HW122779   1.541   9.501   1.734
 4225SOL    HW222780   1.427   9.616   1.753
 4226SOL     OW22781   0.574   0.796   0.049
 4226SOL    HW122782   0.611   0.784   2.898
 4226SOL    HW222783   0.646   0.826   0.111
 4227SOL     OW22784   1.766   8.004   1.317
 4227SOL    HW122785   1.797   8.090   1.357
 4227SOL    HW222786   1.737   7.942   1.390
 4228SOL     OW22787   2.427   2.185   1.969
 4228SOL    HW122788   2.427   2.282   1.941
 4228SOL    HW222789   2.333   2.151   1.967
 4229SOL     OW22790   1.104   6.813   0.788
 4229SOL    HW122791   1.125   6.765   0.873
 4229SOL    HW222792   1.177   6.878   0.767
 4230SOL     OW22793   1.671   0.516   0.133
 4230SOL    HW122794   1.681   0.585   0.062
 4230SOL    HW222795   1.625   0.435   0.096
 4231SOL     OW22796   1.076   0.543   1.015
 4231SOL    HW122797   1.089   0.469   0.949
 4231SOL    HW222798   0.984   0.537   1.055
 4232SOL     OW22799   3.409   2.520   0.611
 4232SOL    HW122800   3.475   2.586   0.573
 4232SOL    HW222801   3.413   2.435   0.558
 4233SOL     OW22802   3.406   0.920   2.137
 4233SOL    HW122803   3.376   0.942   2.044
 4233SOL    HW222804   3.500   0.951   2.150
 4234SOL     OW22805   9.693   5.447   1.553
 4234SOL    HW122806   9.616   5.508   1.570
 4234SOL    HW222807   9.692   5.373   1.620
 4235SOL     OW22808   1.676   1.103   1.387
 4235SOL    HW122809   1.728   1.119   1.471
 4235SOL    HW222810   1.667   1.189   1.337
 4236SOL     OW22811   1.235   4.896   1.419
 4236SOL    HW122812   1.226   4.844   1.504
 4236SOL    HW222813   1.326   4.937   1.414
 4237SOL     OW22814   2.515   8.728   2.123
 4237SOL    HW122815   2.456   8.660   2.167
 4237SOL    HW222816   2.494   8.733   2.025
 4238SOL     OW22817   1.368   7.079   0.293
 4238SOL    HW122818   1.362   7.178   0.285
 4238SOL    HW222819   1.412   7.041   0.212
 4239SOL     OW22820   8.217   0.869   1.257
 4239SOL    HW122821   8.216   0.969   1.256
 4239SOL    HW222822   8.123   0.835   1.266
 4240SOL     OW22823   0.231   4.135   2.163
 4240SOL    HW122824   0.150   4.093   2.205
 4240SOL    HW222825   0.282   4.064   2.114
 4241SOL     OW22826   9.107   5.905   1.387
 4241SOL    HW122827   9.080   5.970   1.458
 4241SOL    HW222828   9.046   5.915   1.308
 4242SOL     OW22829   1.937   1.271   1.056
 4242SOL    HW122830   1.939   1.213   1.138
 4242SOL    HW222831   2.007   1.342   1.064
 4243SOL     OW22832   0.003   4.951   2.163
 4243SOL    HW122833   0.072   4.907   2.221
 4243SOL    HW222834   0.046   4.990   2.082
 4244SOL     OW22835   4.641   0.711   1.846
 4244SOL    HW122836   4.730   0.673   1.871
 4244SOL    HW222837   4.569   0.662   1.896
 4245SOL     OW22838   2.247   1.586   2.152
 4245SOL    HW122839   2.153   1.620   2.142
 4245SOL    HW222840   2.311   1.661   2.137
 4246SOL     OW22841   8.673   8.835   1.905
 4246SOL    HW122842   8.585   8.789   1.922
 4246SOL    HW222843   8.688   8.904   1.976
 4247SOL     OW22844   3.760   3.858   1.884
 4247SOL    HW122845   3.858   3.871   1.902
 4247SOL    HW222846   3.745   3.770   1.841
 4248SOL     OW22847   4.311   2.990   0.770
 4248SOL    HW122848   4.399   2.944   0.769
 4248SOL    HW222849   4.324   3.086   0.743
 4249SOL     OW22850   9.831   4.458   0.292
 4249SOL    HW122851   9.765   4.520   0.249
 4249SOL    HW222852   9.786   4.405   0.363
 4250SOL     OW22853   9.126   5.503   1.684
 4250SOL    HW122854   9.147   5.528   1.779
 4250SOL    HW222855   9.165   5.413   1.664
 4251SOL     OW22856   1.293   4.590   0.142
 4251SOL    HW122857   1.362   4.519   0.157
 4251SOL    HW222858   1.202   4.554   0.161
 4252SOL     OW22859   0.242   2.436   1.857
 4252SOL    HW122860   0.273   2.531   1.849
 4252SOL    HW222861   0.183   2.414   1.780
 4253SOL     OW22862   9.166   6.801   1.561
 4253SOL    HW122863   9.240   6.855   1.522
 4253SOL    HW222864   9.159   6.713   1.514
 4254SOL     OW22865   3.545   5.046   1.595
 4254SOL    HW122866   3.538   4.961   1.648
 4254SOL    HW222867   3.496   5.035   1.509
 4255SOL     OW22868   9.982   5.390   2.167
 4255SOL    HW122869   0.007   5.466   2.108
 4255SOL    HW222870   0.058   5.369   2.229
 4256SOL     OW22871   3.747   1.212   0.530
 4256SOL    HW122872   3.759   1.137   0.595
 4256SOL    HW222873   3.777   1.183   0.439
 4257SOL     OW22874   8.262   0.747   1.498
 4257SOL    HW122875   8.225   0.655   1.487
 4257SOL    HW222876   8.247   0.799   1.414
 4258SOL     OW22877   8.818   3.515   1.146
 4258SOL    HW122878   8.816   3.614   1.149
 4258SOL    HW222879   8.811   3.478   1.238
 4259SOL     OW22880   0.335   1.440   0.983
 4259SOL    HW122881   0.247   1.486   0.989
 4259SOL    HW222882   0.328   1.361   0.922
 4260SOL     OW22883   0.371   8.569   0.546
 4260SOL    HW122884   0.349   8.522   0.460
 4260SOL    HW222885   0.299   8.552   0.613
 4261SOL     OW22886   3.424   2.108   1.912
 4261SOL    HW122887   3.361   2.052   1.858
 4261SOL    HW222888   3.443   2.193   1.862
 4262SOL     OW22889   2.941   6.639   0.551
 4262SOL    HW122890   2.940   6.574   0.476
 4262SOL    HW222891   2.848   6.648   0.589
 4263SOL     OW22892   3.150   5.810   1.276
 4263SOL    HW122893   3.072   5.781   1.220
 4263SOL    HW222894   3.231   5.757   1.250
 4264SOL     OW22895   9.220   1.647   0.066
 4264SOL    HW122896   9.288   1.584   0.031
 4264SOL    HW222897   9.129   1.606   0.059
 4265SOL     OW22898   1.459   4.045   2.010
 4265SOL    HW122899   1.469   4.145   2.004
 4265SOL    HW222900   1.527   4.001   1.952
 4266SOL     OW22901   9.612   0.227   2.056
 4266SOL    HW122902   9.594   0.129   2.052
 4266SOL    HW222903   9.685   0.250   1.990
 4267SOL     OW22904   4.222   8.632   0.181
 4267SOL    HW122905   4.313   8.650   0.145
 4267SOL    HW222906   4.156   8.693   0.136
 4268SOL     OW22907   4.167   9.477   2.218
 4268SOL    HW122908   4.105   9.451   2.291
 4268SOL    HW222909   4.206   9.395   2.176
 4269SOL     OW22910   4.468   2.827   0.057
 4269SOL    HW122911   4.493   2.746   0.111
 4269SOL    HW222912   4.478   2.909   0.113
 4270SOL     OW22913   3.796   0.280   0.727
 4270SOL    HW122914   3.853   0.344   0.676
 4270SOL    HW222915   3.707   0.271   0.683
 4271SOL     OW22916   3.279   0.793   0.874
 4271SOL    HW122917   3.231   0.841   0.947
 4271SOL    HW222918   3.294   0.698   0.901
 4272SOL     OW22919   9.851   2.602   1.943
 4272SOL    HW122920   9.812   2.614   1.852
 4272SOL    HW222921   9.943   2.641   1.946
 4273SOL     OW22922   0.960   5.813   1.772
 4273SOL    HW122923   0.978   5.755   1.851
 4273SOL    HW222924   0.922   5.758   1.698
 4274SOL     OW22925   3.220   3.599   0.639
 4274SOL    HW122926   3.173   3.685   0.614
 4274SOL    HW222927   3.195   3.574   0.732
 4275SOL     OW22928   8.958   9.336   0.419
 4275SOL    HW122929   9.019   9.324   0.340
 4275SOL    HW222930   8.864   9.318   0.390
 4276SOL     OW22931   1.114   2.104   1.383
 4276SOL    HW122932   1.122   2.022   1.327
 4276SOL    HW222933   1.066   2.175   1.332
 4277SOL     OW22934   0.764   8.401   1.145
 4277SOL    HW122935   0.732   8.308   1.162
 4277SOL    HW222936   0.821   8.403   1.062
 4278SOL     OW22937   8.386   6.710   1.256
 4278SOL    HW122938   8.457   6.747   1.317
 4278SOL    HW222939   8.310   6.675   1.311
 4279SOL     OW22940   1.513   7.038   2.280
 4279SOL    HW122941   1.567   7.118   2.253
 4279SOL    HW222942   1.575   6.964   2.309
 4280SOL     OW22943   4.157   4.784   1.674
 4280SOL    HW122944   4.061   4.785   1.702
 4280SOL    HW222945   4.178   4.697   1.628
 4281SOL     OW22946   9.507   3.301   1.513
 4281SOL    HW122947   9.584   3.300   1.449
 4281SOL    HW222948   9.541   3.298   1.607
 4282SOL     OW22949   9.936   0.637   0.096
 4282SOL    HW122950   0.001   0.605   0.027
 4282SOL    HW222951   9.979   0.709   0.151
 4283SOL     OW22952   0.270   2.147   1.204
 4283SOL    HW122953   0.213   2.229   1.206
 4283SOL    HW222954   0.259   2.101   1.116
 4284SOL     OW22955   2.006   9.640   1.690
 4284SOL    HW122956   1.985   9.546   1.663
 4284SOL    HW222957   2.078   9.677   1.630
 4285SOL     OW22958   2.856   1.069   0.876
 4285SOL    HW122959   2.920   1.132   0.921
 4285SOL    HW222960   2.803   1.118   0.808
 4286SOL     OW22961   9.111   4.673   1.095
 4286SOL    HW122962   9.123   4.581   1.132
 4286SOL    HW222963   9.029   4.676   1.038
 4287SOL     OW22964   3.011   5.025   1.782
 4287SOL    HW122965   2.927   5.071   1.752
 4287SOL    HW222966   3.090   5.083   1.762
 4288SOL     OW22967   2.157   2.889   0.323
 4288SOL    HW122968   2.101   2.921   0.400
 4288SOL    HW222969   2.197   2.967   0.276
 4289SOL     OW22970   8.858   5.634   0.386
 4289SOL    HW122971   8.807   5.585   0.316
 4289SOL    HW222972   8.859   5.580   0.471
 4290SOL     OW22973   0.297   2.171   0.049
 4290SOL    HW122974   0.390   2.140   0.067
 4290SOL    HW222975   0.281   2.175   2.892
 4291SOL     OW22976   3.579   0.182   1.332
 4291SOL    HW122977   3.569   0.093   1.377
 4291SOL    HW222978   3.526   0.182   1.247
 4292SOL     OW22979   2.082   5.766   0.856
 4292SOL    HW122980   2.045   5.676   0.879
 4292SOL    HW222981   2.172   5.777   0.897
 4293SOL     OW22982   1.402   8.575   0.242
 4293SOL    HW122983   1.416   8.617   0.152
 4293SOL    HW222984   1.488   8.575   0.293
 4294SOL     OW22985   1.070   7.228   0.946
 4294SOL    HW122986   1.061   7.258   0.851
 4294SOL    HW222987   1.152   7.171   0.955
 4295SOL     OW22988   9.709   6.228   0.298
 4295SOL    HW122989   9.799   6.201   0.333
 4295SOL    HW222990   9.695   6.326   0.318
 4296SOL     OW22991   0.701   3.477   1.028
 4296SOL    HW122992   0.618   3.518   1.066
 4296SOL    HW222993   0.679   3.432   0.941
 4297SOL     OW22994   1.819   2.703   1.712
 4297SOL    HW122995   1.919   2.706   1.700
 4297SOL    HW222996   1.775   2.713   1.623
 4298SOL     OW22997   0.125   3.431   1.260
 4298SOL    HW122998   0.172   3.376   1.329
 4298SOL    HW222999   0.117   3.379   1.175
 4299SOL     OW23000   8.382   3.349   0.126
 4299SOL    HW123001   8.395   3.251   0.109
 4299SOL    HW223002   8.334   3.361   0.213
 4300SOL     OW23003   1.787   0.876   0.506
 4300SOL    HW123004   1.862   0.821   0.542
 4300SOL    HW223005   1.707   0.818   0.490
 4301SOL     OW23006   8.259   7.855   1.345
 4301SOL    HW123007   8.180   7.796   1.362
 4301SOL    HW223008   8.238   7.948   1.376
 4302SOL     OW23009   0.916   5.599   0.208
 4302SOL    HW123010   0.824   5.607   0.170
 4302SOL    HW223011   0.919   5.646   0.297
 4303SOL     OW23012   8.159   8.012   2.350
 4303SOL    HW123013   8.218   8.008   2.269
 4303SOL    HW223014   8.081   7.951   2.338
 4304SOL     OW23015   0.356   1.715   1.290
 4304SOL    HW123016   0.292   1.662   1.233
 4304SOL    HW223017   0.311   1.799   1.321
 4305SOL     OW23018   8.559   6.698   0.416
 4305SOL    HW123019   8.636   6.762   0.409
 4305SOL    HW223020   8.587   6.609   0.379
 4306SOL     OW23021   9.823   0.720   1.057
 4306SOL    HW123022   9.880   0.674   0.989
 4306SOL    HW223023   9.839   0.679   1.147
 4307SOL     OW23024   1.400   7.485   0.994
 4307SOL    HW123025   1.427   7.391   1.015
 4307SOL    HW223026   1.413   7.543   1.075
 4308SOL     OW23027   0.292   4.935   1.049
 4308SOL    HW123028   0.331   5.027   1.041
 4308SOL    HW223029   0.277   4.913   1.145
 4309SOL     OW23030   8.773   7.790   0.469
 4309SOL    HW123031   8.676   7.775   0.450
 4309SOL    HW223032   8.806   7.717   0.529
 4310SOL     OW23033   1.455   1.823   1.430
 4310SOL    HW123034   1.479   1.782   1.342
 4310SOL    HW223035   1.539   1.844   1.481
 4311SOL     OW23036   1.523   0.780   1.931
 4311SOL    HW123037   1.506   0.872   1.897
 4311SOL    HW223038   1.569   0.784   2.019
 4312SOL     OW23039   2.474   7.294   1.942
 4312SOL    HW123040   2.568   7.324   1.928
 4312SOL    HW223041   2.430   7.277   1.854
 4313SOL     OW23042   8.696   9.254   0.362
 4313SOL    HW123043   8.603   9.256   0.325
 4313SOL    HW223044   8.741   9.168   0.338
 4314SOL     OW23045   7.569   0.049   1.864
 4314SOL    HW123046   7.641   0.006   1.918
 4314SOL    HW223047   7.518   9.978   1.814
 4315SOL     OW23048   2.456   6.881   1.357
 4315SOL    HW123049   2.366   6.877   1.399
 4315SOL    HW223050   2.505   6.796   1.373
 4316SOL     OW23051   8.906   3.613   2.155
 4316SOL    HW123052   8.966   3.558   2.212
 4316SOL    HW223053   8.949   3.626   2.065
 4317SOL     OW23054   2.305   1.286   1.469
 4317SOL    HW123055   2.217   1.318   1.434
 4317SOL    HW223056   2.355   1.239   1.396
 4318SOL     OW23057   0.495   3.644   1.661
 4318SOL    HW123058   0.454   3.687   1.581
 4318SOL    HW223059   0.435   3.572   1.695
 4319SOL     OW23060   3.352   0.966   0.522
 4319SOL    HW123061   3.326   1.061   0.543
 4319SOL    HW223062   3.397   0.963   0.433
 4320SOL     OW23063   0.949   6.992   0.005
 4320SOL    HW123064   1.006   6.920   0.044
 4320SOL    HW223065   0.937   6.975   2.849
 4321SOL     OW23066   3.442   1.889   0.320
 4321SOL    HW123067   3.437   1.795   0.354
 4321SOL    HW223068   3.492   1.946   0.386
 4322SOL     OW23069   9.994   3.873   0.586
 4322SOL    HW123070   0.071   3.851   0.646
 4322SOL    HW223071   0.022   3.944   0.521
 4323SOL     OW23072   8.502   7.090   0.697
 4323SOL    HW123073   8.458   7.064   0.612
 4323SOL    HW223074   8.437   7.143   0.753
 4324SOL     OW23075   2.202   5.297   1.775
 4324SOL    HW123076   2.297   5.274   1.800
 4324SOL    HW223077   2.187   5.277   1.679
 4325SOL     OW23078   2.459   6.131   2.227
 4325SOL    HW123079   2.504   6.041   2.227
 4325SOL    HW223080   2.428   6.153   2.135
 4326SOL     OW23081   9.697   9.675   0.250
 4326SOL    HW123082   9.598   9.689   0.241
 4326SOL    HW223083   9.719   9.657   0.346
 4327SOL     OW23084   2.846   2.162   0.732
 4327SOL    HW123085   2.931   2.210   0.711
 4327SOL    HW223086   2.867   2.078   0.783
 4328SOL     OW23087   7.581   9.589   1.166
 4328SOL    HW123088   7.585   9.613   1.069
 4328SOL    HW223089   7.658   9.632   1.214
 4329SOL     OW23090   0.333   2.702   0.390
 4329SOL    HW123091   0.425   2.672   0.364
 4329SOL    HW223092   0.320   2.690   0.488
 4330SOL     OW23093   9.384   5.250   2.071
 4330SOL    HW123094   9.481   5.227   2.079
 4330SOL    HW223095   9.353   5.233   1.977
 4331SOL     OW23096   4.065   2.366   0.582
 4331SOL    HW123097   4.130   2.292   0.600
 4331SOL    HW223098   3.999   2.337   0.513
 4332SOL     OW23099   8.588   8.481   2.160
 4332SOL    HW123100   8.645   8.431   2.225
 4332SOL    HW223101   8.508   8.426   2.136
 4333SOL     OW23102   0.849   8.763   0.872
 4333SOL    HW123103   0.935   8.809   0.895
 4333SOL    HW223104   0.869   8.678   0.824
 4334SOL     OW23105   0.935   5.369   0.722
 4334SOL    HW123106   1.018   5.314   0.722
 4334SOL    HW223107   0.862   5.319   0.675
 4335SOL     OW23108   8.360   9.499   0.409
 4335SOL    HW123109   8.382   9.407   0.376
 4335SOL    HW223110   8.440   9.539   0.452
 4336SOL     OW23111   0.108   7.179   2.219
 4336SOL    HW123112   0.091   7.175   2.318
 4336SOL    HW223113   0.049   7.113   2.173
 4337SOL     OW23114   4.195   8.884   1.957
 4337SOL    HW123115   4.224   8.894   1.862
 4337SOL    HW223116   4.229   8.798   1.995
 4338SOL     OW23117   0.058   2.866   0.057
 4338SOL    HW123118   0.145   2.888   0.100
 4338SOL    HW223119   0.035   2.770   0.075
 4339SOL     OW23120   9.096   6.931   1.785
 4339SOL    HW123121   9.105   6.873   1.704
 4339SOL    HW223122   9.186   6.961   1.815
 4340SOL     OW23123   2.327   8.413   0.621
 4340SOL    HW123124   2.278   8.441   0.703
 4340SOL    HW223125   2.425   8.422   0.635
 4341SOL     OW23126   8.789   0.023   0.201
 4341SOL    HW123127   8.874   0.069   0.174
 4341SOL    HW223128   8.718   0.091   0.218
 4342SOL     OW23129   2.647   1.222   2.118
 4342SOL    HW123130   2.568   1.277   2.143
 4342SOL    HW223131   2.647   1.206   2.020
 4343SOL     OW23132   8.282   8.355   0.033
 4343SOL    HW123133   8.244   8.448   0.034
 4343SOL    HW223134   8.208   8.289   0.035
 4344SOL     OW23135   1.848   0.438   1.395
 4344SOL    HW123136   1.903   0.398   1.468
 4344SOL    HW223137   1.858   0.383   1.312
 4345SOL     OW23138   0.596   1.145   1.511
 4345SOL    HW123139   0.559   1.118   1.422
 4345SOL    HW223140   0.696   1.150   1.505
 4346SOL     OW23141   1.024   5.656   1.986
 4346SOL    HW123142   1.096   5.589   1.967
 4346SOL    HW223143   1.057   5.722   2.054
 4347SOL     OW23144   8.391   0.910   1.670
 4347SOL    HW123145   8.378   0.881   1.764
 4347SOL    HW223146   8.351   0.842   1.608
 4348SOL     OW23147   2.444   5.624   0.614
 4348SOL    HW123148   2.501   5.559   0.563
 4348SOL    HW223149   2.499   5.666   0.686
 4349SOL     OW23150   2.065   1.358   1.350
 4349SOL    HW123151   2.021   1.269   1.335
 4349SOL    HW223152   2.006   1.414   1.408
 4350SOL     OW23153   4.673   3.791   0.330
 4350SOL    HW123154   4.629   3.800   0.419
 4350SOL    HW223155   4.662   3.698   0.296
 4351SOL     OW23156   3.238   0.733   1.305
 4351SOL    HW123157   3.330   0.753   1.339
 4351SOL    HW223158   3.213   0.639   1.330
 4352SOL     OW23159   8.558   9.921   1.844
 4352SOL    HW123160   8.643   9.973   1.846
 4352SOL    HW223161   8.495   9.963   1.779
 4353SOL     OW23162   0.518   7.872   1.899
 4353SOL    HW123163   0.455   7.795   1.886
 4353SOL    HW223164   0.529   7.891   1.996
 4354SOL     OW23165   3.092   8.225   1.831
 4354SOL    HW123166   3.008   8.211   1.883
 4354SOL    HW223167   3.085   8.179   1.743
 4355SOL     OW23168   4.457   1.519   0.528
 4355SOL    HW123169   4.448   1.608   0.483
 4355SOL    HW223170   4.437   1.446   0.462
 4356SOL     OW23171   8.777   5.537   1.894
 4356SOL    HW123172   8.701   5.475   1.913
 4356SOL    HW223173   8.811   5.520   1.801
 4357SOL     OW23174   8.805   9.029   1.027
 4357SOL    HW123175   8.814   9.057   0.931
 4357SOL    HW223176   8.709   9.029   1.052
 4358SOL     OW23177   0.328   2.690   1.814
 4358SOL    HW123178   0.412   2.737   1.844
 4358SOL    HW223179   0.321   2.696   1.714
 4359SOL     OW23180   9.174   9.337   1.508
 4359SOL    HW123181   9.264   9.351   1.466
 4359SOL    HW223182   9.136   9.250   1.477
 4360SOL     OW23183   9.020   3.211   1.651
 4360SOL    HW123184   9.099   3.248   1.603
 4360SOL    HW223185   9.008   3.114   1.627
 4361SOL     OW23186   4.377   2.525   1.511
 4361SOL    HW123187   4.344   2.468   1.436
 4361SOL    HW223188   4.304   2.587   1.540
 4362SOL     OW23189   3.002   7.859   1.535
 4362SOL    HW123190   3.053   7.939   1.565
 4362SOL    HW223191   2.988   7.863   1.436
 4363SOL     OW23192   9.521   9.540   2.017
 4363SOL    HW123193   9.486   9.571   1.928
 4363SOL    HW223194   9.543   9.442   2.012
 4364SOL     OW23195   1.908   9.879   1.465
 4364SOL    HW123196   1.986   9.880   1.401
 4364SOL    HW223197   1.936   9.922   1.551
 4365SOL     OW23198   9.947   3.638   1.212
 4365SOL    HW123199   9.881   3.635   1.287
 4365SOL    HW223200   0.014   3.565   1.224
 4366SOL     OW23201   1.039   9.565   1.879
 4366SOL    HW123202   1.021   9.639   1.813
 4366SOL    HW223203   0.962   9.558   1.943
 4367SOL     OW23204   4.614   8.669   2.294
 4367SOL    HW123205   4.578   8.617   2.371
 4367SOL    HW223206   4.545   8.733   2.262
 4368SOL     OW23207   0.172   1.550   0.546
 4368SOL    HW123208   0.259   1.517   0.583
 4368SOL    HW223209   0.170   1.650   0.550
 4369SOL     OW23210   0.026   7.364   0.347
 4369SOL    HW123211   0.029   7.310   0.431
 4369SOL    HW223212   0.057   7.308   0.270
 4370SOL     OW23213   4.752   3.640   0.896
 4370SOL    HW123214   4.839   3.599   0.923
 4370SOL    HW223215   4.764   3.738   0.884
 4371SOL     OW23216   8.846   3.061   0.279
 4371SOL    HW123217   8.771   3.006   0.315
 4371SOL    HW223218   8.924   3.003   0.256
 4372SOL     OW23219   1.599   1.077   0.857
 4372SOL    HW123220   1.555   1.148   0.911
 4372SOL    HW223221   1.563   0.987   0.884
 4373SOL     OW23222   3.129   3.882   2.267
 4373SOL    HW123223   3.220   3.898   2.228
 4373SOL    HW223224   3.135   3.883   2.367
 4374SOL     OW23225   8.202   1.394   0.302
 4374SOL    HW123226   8.253   1.409   0.218
 4374SOL    HW223227   8.259   1.418   0.381
 4375SOL     OW23228   9.123   9.116   2.254
 4375SOL    HW123229   9.200   9.176   2.232
 4375SOL    HW223230   9.052   9.170   2.301
 4376SOL     OW23231   0.994   2.999   2.153
 4376SOL    HW123232   1.061   2.928   2.133
 4376SOL    HW223233   1.035   3.069   2.212
 4377SOL     OW23234   1.764   9.463   1.917
 4377SOL    HW123235   1.774   9.547   1.864
 4377SOL    HW223236   1.682   9.469   1.974
 4378SOL     OW23237   9.575   8.580   1.057
 4378SOL    HW123238   9.628   8.634   1.121
 4378SOL    HW223239   9.482   8.616   1.050
 4379SOL     OW23240   2.023   6.675   1.417
 4379SOL    HW123241   1.930   6.711   1.426
 4379SOL    HW223242   2.041   6.653   1.321
 4380SOL     OW23243   1.559   9.052   1.460
 4380SOL    HW123244   1.485   9.109   1.424
 4380SOL    HW223245   1.572   8.973   1.401
 4381SOL     OW23246   9.340   0.235   1.719
 4381SOL    HW123247   9.298   0.221   1.809
 4381SOL    HW223248   9.318   0.327   1.686
 4382SOL     OW23249   9.149   2.177   2.154
 4382SOL    HW123250   9.164   2.106   2.085
 4382SOL    HW223251   9.051   2.187   2.170
 4383SOL     OW23252   2.698   8.146   1.549
 4383SOL    HW123253   2.664   8.202   1.624
 4383SOL    HW223254   2.705   8.051   1.579
 4384SOL     OW23255   4.230   1.156   1.715
 4384SOL    HW123256   4.220   1.110   1.803
 4384SOL    HW223257   4.152   1.133   1.656
 4385SOL     OW23258   4.918   8.818   1.967
 4385SOL    HW123259   4.909   8.764   2.051
 4385SOL    HW223260   4.827   8.838   1.930
 4386SOL     OW23261   2.799   2.359   0.282
 4386SOL    HW123262   2.755   2.274   0.312
 4386SOL    HW223263   2.897   2.354   0.299
 4387SOL     OW23264   1.498   4.427   0.233
 4387SOL    HW123265   1.565   4.499   0.213
 4387SOL    HW223266   1.541   4.338   0.219
 4388SOL     OW23267   0.054   2.925   0.573
 4388SOL    HW123268   0.008   3.013   0.589
 4388SOL    HW223269   0.153   2.939   0.571
 4389SOL     OW23270   3.320   5.097   2.010
 4389SOL    HW123271   3.253   5.162   2.047
 4389SOL    HW223272   3.378   5.064   2.085
 4390SOL     OW23273   4.506   0.728   1.061
 4390SOL    HW123274   4.516   0.725   0.962
 4390SOL    HW223275   4.462   0.813   1.088
 4391SOL     OW23276   3.456   9.715   0.958
 4391SOL    HW123277   3.491   9.669   1.039
 4391SOL    HW223278   3.496   9.674   0.876
 4392SOL     OW23279   0.938   6.210   0.161
 4392SOL    HW123280   0.864   6.154   0.124
 4392SOL    HW223281   0.912   6.306   0.157
 4393SOL     OW23282   3.637   2.176   0.919
 4393SOL    HW123283   3.541   2.150   0.910
 4393SOL    HW223284   3.695   2.104   0.882
 4394SOL     OW23285   4.154   4.496   0.110
 4394SOL    HW123286   4.117   4.461   0.196
 4394SOL    HW223287   4.091   4.565   0.073
 4395SOL     OW23288   1.428   5.162   2.196
 4395SOL    HW123289   1.472   5.074   2.214
 4395SOL    HW223290   1.332   5.158   2.224
 4396SOL     OW23291   0.052   4.150   1.072
 4396SOL    HW123292   9.967   4.197   1.047
 4396SOL    HW223293   0.031   4.062   1.114
 4397SOL     OW23294   2.212   2.408   1.393
 4397SOL    HW123295   2.302   2.418   1.352
 4397SOL    HW223296   2.220   2.355   1.478
 4398SOL     OW23297   3.883   1.569   1.566
 4398SOL    HW123298   3.953   1.604   1.505
 4398SOL    HW223299   3.924   1.542   1.653
 4399SOL     OW23300   0.938   8.082   1.875
 4399SOL    HW123301   1.010   8.098   1.808
 4399SOL    HW223302   0.960   8.001   1.930
 4400SOL     OW23303   9.072   3.764   1.221
 4400SOL    HW123304   9.074   3.695   1.293
 4400SOL    HW223305   8.979   3.776   1.188
 4401SOL     OW23306   1.529   5.733   1.438
 4401SOL    HW123307   1.580   5.818   1.447
 4401SOL    HW223308   1.432   5.754   1.423
 4402SOL     OW23309   9.210   2.370   0.964
 4402SOL    HW123310   9.129   2.386   0.907
 4402SOL    HW223311   9.181   2.337   1.054
 4403SOL     OW23312   7.908   0.605   1.166
 4403SOL    HW123313   7.956   0.521   1.192
 4403SOL    HW223314   7.924   0.675   1.236
 4404SOL     OW23315   3.416   9.722   0.412
 4404SOL    HW123316   3.341   9.659   0.433
 4404SOL    HW223317   3.398   9.766   0.324
 4405SOL     OW23318   9.332   9.121   0.293
 4405SOL    HW123319   9.399   9.184   0.255
 4405SOL    HW223320   9.372   9.029   0.299
 4406SOL     OW23321   1.544   9.863   0.309
 4406SOL    HW123322   1.618   9.851   0.375
 4406SOL    HW223323   1.461   9.820   0.344
 4407SOL     OW23324   3.276   1.954   1.737
 4407SOL    HW123325   3.211   1.967   1.663
 4407SOL    HW223326   3.283   1.857   1.759
 4408SOL     OW23327   1.363   9.967   0.704
 4408SOL    HW123328   1.341   0.064   0.708
 4408SOL    HW223329   1.287   9.917   0.661
 4409SOL     OW23330   1.952   7.862   1.171
 4409SOL    HW123331   1.882   7.911   1.222
 4409SOL    HW223332   1.985   7.785   1.226
 4410SOL     OW23333   2.727   3.571   0.351
 4410SOL    HW123334   2.798   3.524   0.403
 4410SOL    HW223335   2.658   3.505   0.321
 4411SOL     OW23336   4.362   4.088   0.774
 4411SOL    HW123337   4.303   4.145   0.830
 4411SOL    HW223338   4.409   4.022   0.832
 4412SOL     OW23339   3.358   3.603   1.443
 4412SOL    HW123340   3.405   3.577   1.358
 4412SOL    HW223341   3.419   3.657   1.500
 4413SOL     OW23342   2.888   4.925   2.006
 4413SOL    HW123343   2.941   4.960   1.929
 4413SOL    HW223344   2.911   4.829   2.021
 4414SOL     OW23345   1.047   4.206   1.239
 4414SOL    HW123346   1.140   4.237   1.220
 4414SOL    HW223347   1.003   4.177   1.154
 4415SOL     OW23348   3.443   5.801   0.939
 4415SOL    HW123349   3.467   5.710   0.906
 4415SOL    HW223350   3.361   5.832   0.891
 4416SOL     OW23351   2.673   0.395   1.792
 4416SOL    HW123352   2.683   0.354   1.883
 4416SOL    HW223353   2.764   0.413   1.753
 4417SOL     OW23354   2.991   2.577   1.516
 4417SOL    HW123355   2.973   2.481   1.496
 4417SOL    HW223356   3.050   2.616   1.446
 4418SOL     OW23357   3.677   8.528   1.779
 4418SOL    HW123358   3.754   8.566   1.831
 4418SOL    HW223359   3.608   8.598   1.765
 4419SOL     OW23360   1.157   3.049   0.386
 4419SOL    HW123361   1.072   3.001   0.409
 4419SOL    HW223362   1.216   3.054   0.466
 4420SOL     OW23363   9.659   2.296   1.454
 4420SOL    HW123364   9.743   2.338   1.488
 4420SOL    HW223365   9.673   2.263   1.361
 4421SOL     OW23366   9.690   0.565   0.712
 4421SOL    HW123367   9.632   0.487   0.689
 4421SOL    HW223368   9.642   0.624   0.777
 4422SOL     OW23369   1.917   9.040   1.049
 4422SOL    HW123370   1.859   9.121   1.051
 4422SOL    HW223371   2.004   9.059   1.096
 4423SOL     OW23372   9.678   9.570   2.236
 4423SOL    HW123373   9.676   9.664   2.269
 4423SOL    HW223374   9.625   9.563   2.152
 4424SOL     OW23375   9.576   5.249   1.155
 4424SOL    HW123376   9.479   5.243   1.176
 4424SOL    HW223377   9.604   5.345   1.152
 4425SOL     OW23378   0.431   5.297   2.217
 4425SOL    HW123379   0.436   5.338   2.307
 4425SOL    HW223380   0.483   5.211   2.217
 4426SOL     OW23381   1.003   9.195   2.176
 4426SOL    HW123382   1.079   9.259   2.189
 4426SOL    HW223383   0.916   9.244   2.182
 4427SOL     OW23384   4.472   0.568   2.005
 4427SOL    HW123385   4.511   0.535   2.091
 4427SOL    HW223386   4.424   0.493   1.959
 4428SOL     OW23387   3.454   4.299   0.276
 4428SOL    HW123388   3.483   4.353   0.355
 4428SOL    HW223389   3.534   4.260   0.231
 4429SOL     OW23390   9.974   9.303   0.736
 4429SOL    HW123391   9.898   9.273   0.794
 4429SOL    HW223392   9.939   9.363   0.664
 4430SOL     OW23393   2.687   4.375   0.108
 4430SOL    HW123394   2.697   4.387   0.207
 4430SOL    HW223395   2.753   4.433   0.061
 4431SOL     OW23396   1.262   0.591   0.700
 4431SOL    HW123397   1.289   0.517   0.639
 4431SOL    HW223398   1.186   0.642   0.659
 4432SOL     OW23399   2.969   4.662   2.031
 4432SOL    HW123400   2.906   4.585   2.014
 4432SOL    HW223401   3.038   4.634   2.098
 4433SOL     OW23402   2.240   1.400   1.713
 4433SOL    HW123403   2.269   1.364   1.625
 4433SOL    HW223404   2.294   1.357   1.786
 4434SOL     OW23405   8.722   1.401   0.860
 4434SOL    HW123406   8.812   1.443   0.853
 4434SOL    HW223407   8.730   1.303   0.844
 4435SOL     OW23408   7.280   9.722   1.915
 4435SOL    HW123409   7.250   9.795   1.977
 4435SOL    HW223410   7.208   9.702   1.849
 4436SOL     OW23411   8.169   8.249   0.664
 4436SOL    HW123412   8.105   8.174   0.680
 4436SOL    HW223413   8.120   8.336   0.668
 4437SOL     OW23414   0.961   1.659   1.452
 4437SOL    HW123415   0.921   1.603   1.380
 4437SOL    HW223416   1.061   1.660   1.442
 4438SOL     OW23417   2.170   4.455   1.214
 4438SOL    HW123418   2.111   4.409   1.148
 4438SOL    HW223419   2.115   4.494   1.287
 4439SOL     OW23420   1.175   5.234   0.678
 4439SOL    HW123421   1.193   5.245   0.580
 4439SOL    HW223422   1.250   5.274   0.730
 4440SOL     OW23423   3.355   5.668   1.159
 4440SOL    HW123424   3.390   5.731   1.090
 4440SOL    HW223425   3.429   5.609   1.191
 4441SOL     OW23426   8.819   3.414   1.400
 4441SOL    HW123427   8.801   3.317   1.384
 4441SOL    HW223428   8.814   3.434   1.497
 4442SOL     OW23429   1.618   0.336   1.769
 4442SOL    HW123430   1.567   0.258   1.804
 4442SOL    HW223431   1.714   0.327   1.794
 4443SOL     OW23432   1.728   4.701   2.014
 4443SOL    HW123433   1.807   4.760   2.004
 4443SOL    HW223434   1.736   4.623   1.952
 4444SOL     OW23435   7.646   0.894   0.392
 4444SOL    HW123436   7.660   0.802   0.355
 4444SOL    HW223437   7.684   0.961   0.328
 4445SOL     OW23438   2.363   2.745   1.711
 4445SOL    HW123439   2.350   2.844   1.707
 4445SOL    HW223440   2.397   2.719   1.802
 4446SOL     OW23441   4.034   9.688   1.326
 4446SOL    HW123442   4.133   9.687   1.312
 4446SOL    HW223443   4.002   9.783   1.329
 4447SOL     OW23444   1.588   2.041   2.072
 4447SOL    HW123445   1.565   1.956   2.119
 4447SOL    HW223446   1.505   2.095   2.058
 4448SOL     OW23447   9.370   9.141   1.889
 4448SOL    HW123448   9.270   9.148   1.884
 4448SOL    HW223449   9.396   9.045   1.894
 4449SOL     OW23450   9.932   0.821   1.871
 4449SOL    HW123451   9.901   0.749   1.933
 4449SOL    HW223452   9.853   0.867   1.831
 4450SOL     OW23453   3.275   6.473   0.789
 4450SOL    HW123454   3.313   6.548   0.736
 4450SOL    HW223455   3.175   6.484   0.795
 4451SOL     OW23456   8.717   8.828   0.674
 4451SOL    HW123457   8.809   8.809   0.640
 4451SOL    HW223458   8.692   8.761   0.743
 4452SOL     OW23459   8.767   4.429   0.063
 4452SOL    HW123460   8.687   4.441   0.122
 4452SOL    HW223461   8.760   4.342   0.014
 4453SOL     OW23462   3.106   2.560   1.068
 4453SOL    HW123463   3.156   2.623   1.009
 4453SOL    HW223464   3.124   2.583   1.163
 4454SOL     OW23465   0.682   2.626   1.735
 4454SOL    HW123466   0.757   2.667   1.685
 4454SOL    HW223467   0.671   2.530   1.707
 4455SOL     OW23468   0.438   8.202   1.240
 4455SOL    HW123469   0.371   8.269   1.209
 4455SOL    HW223470   0.396   8.111   1.241
 4456SOL     OW23471   3.295   1.234   0.579
 4456SOL    HW123472   3.257   1.253   0.670
 4456SOL    HW223473   3.382   1.281   0.569
 4457SOL     OW23474   0.520   7.300   1.390
 4457SOL    HW123475   0.544   7.395   1.410
 4457SOL    HW223476   0.423   7.287   1.409
 4458SOL     OW23477   2.884   4.016   1.321
 4458SOL    HW123478   2.966   4.007   1.377
 4458SOL    HW223479   2.878   4.110   1.286
 4459SOL     OW23480   1.553   3.820   1.611
 4459SOL    HW123481   1.461   3.852   1.631
 4459SOL    HW223482   1.558   3.792   1.515
 4460SOL     OW23483   9.206   5.285   0.892
 4460SOL    HW123484   9.226   5.375   0.931
 4460SOL    HW223485   9.291   5.238   0.871
 4461SOL     OW23486   9.966   4.033   1.917
 4461SOL    HW123487   9.991   4.129   1.924
 4461SOL    HW223488   9.906   4.009   1.994
 4462SOL     OW23489   3.826   8.790   0.199
 4462SOL    HW123490   3.797   8.886   0.196
 4462SOL    HW223491   3.817   8.755   0.292
 4463SOL     OW23492   8.043   9.569   0.164
 4463SOL    HW123493   8.086   9.484   0.136
 4463SOL    HW223494   8.112   9.629   0.205
 4464SOL     OW23495   0.859   1.424   2.225
 4464SOL    HW123496   0.931   1.476   2.179
 4464SOL    HW223497   0.895   1.334   2.250
 4465SOL     OW23498   3.162   8.293   0.329
 4465SOL    HW123499   3.140   8.318   0.423
 4465SOL    HW223500   3.262   8.288   0.318
 4466SOL     OW23501   2.924   1.353   1.926
 4466SOL    HW123502   2.919   1.315   2.019
 4466SOL    HW223503   3.020   1.366   1.901
 4467SOL     OW23504   3.946   1.774   0.434
 4467SOL    HW123505   3.866   1.715   0.443
 4467SOL    HW223506   3.941   1.821   0.345
 4468SOL     OW23507   0.881   8.853   0.605
 4468SOL    HW123508   0.806   8.911   0.575
 4468SOL    HW223509   0.875   8.838   0.704
 4469SOL     OW23510   9.210   7.731   1.486
 4469SOL    HW123511   9.199   7.702   1.581
 4469SOL    HW223512   9.159   7.670   1.426
 4470SOL     OW23513   0.252   8.111   2.008
 4470SOL    HW123514   0.330   8.153   1.963
 4470SOL    HW223515   0.203   8.053   1.943
 4471SOL     OW23516   2.473   2.841   1.216
 4471SOL    HW123517   2.545   2.829   1.284
 4471SOL    HW223518   2.515   2.859   1.127
 4472SOL     OW23519   3.964   0.596   0.104
 4472SOL    HW123520   4.032   0.595   0.031
 4472SOL    HW223521   3.982   0.673   0.166
 4473SOL     OW23522   3.391   6.124   2.035
 4473SOL    HW123523   3.419   6.126   2.131
 4473SOL    HW223524   3.470   6.140   1.976
 4474SOL     OW23525   2.238   8.317   1.920
 4474SOL    HW123526   2.312   8.252   1.898
 4474SOL    HW223527   2.159   8.298   1.862
 4475SOL     OW23528   1.585   9.552   0.303
 4475SOL    HW123529   1.579   9.518   0.209
 4475SOL    HW223530   1.504   9.606   0.325
 4476SOL     OW23531   1.535   4.282   1.382
 4476SOL    HW123532   1.470   4.290   1.306
 4476SOL    HW223533   1.493   4.233   1.457
 4477SOL     OW23534   1.917   5.657   0.483
 4477SOL    HW123535   2.012   5.656   0.515
 4477SOL    HW223536   1.912   5.615   0.393
 4478SOL     OW23537   9.628   8.082   1.639
 4478SOL    HW123538   9.640   8.127   1.551
 4478SOL    HW223539   9.711   8.092   1.693
 4479SOL     OW23540   2.187   1.911   2.156
 4479SOL    HW123541   2.276   1.865   2.154
 4479SOL    HW223542   2.114   1.843   2.159
 4480SOL     OW23543   4.476   2.541   1.956
 4480SOL    HW123544   4.537   2.607   2.001
 4480SOL    HW223545   4.381   2.566   1.975
 4481SOL     OW23546   3.446   1.656   1.371
 4481SOL    HW123547   3.492   1.586   1.316
 4481SOL    HW223548   3.456   1.745   1.326
 4482SOL     OW23549   8.687   2.920   2.068
 4482SOL    HW123550   8.622   2.857   2.109
 4482SOL    HW223551   8.761   2.869   2.024
 4483SOL     OW23552   2.088   4.419   2.146
 4483SOL    HW123553   1.998   4.436   2.185
 4483SOL    HW223554   2.107   4.321   2.148
 4484SOL     OW23555   2.084   8.300   0.094
 4484SOL    HW123556   2.024   8.250   0.031
 4484SOL    HW223557   2.170   8.251   0.105
 4485SOL     OW23558   0.220   6.855   1.759
 4485SOL    HW123559   0.186   6.931   1.814
 4485SOL    HW223560   0.317   6.840   1.779
 4486SOL     OW23561   4.671   0.812   0.225
 4486SOL    HW123562   4.630   0.729   0.185
 4486SOL    HW223563   4.717   0.788   0.310
 4487SOL     OW23564   1.139   4.792   1.187
 4487SOL    HW123565   1.167   4.831   1.275
 4487SOL    HW223566   1.132   4.866   1.119
 4488SOL     OW23567   5.582   2.261   0.813
 4488SOL    HW123568   5.597   2.269   0.715
 4488SOL    HW223569   5.564   2.352   0.852
 4489SOL     OW23570   3.858   1.680   2.059
 4489SOL    HW123571   3.787   1.701   1.992
 4489SOL    HW223572   3.947   1.702   2.020
 4490SOL     OW23573   9.518   6.367   1.905
 4490SOL    HW123574   9.453   6.443   1.896
 4490SOL    HW223575   9.610   6.404   1.917
 4491SOL     OW23576   9.039   5.545   1.280
 4491SOL    HW123577   9.031   5.451   1.247
 4491SOL    HW223578   9.039   5.607   1.201
 4492SOL     OW23579   2.959   0.208   1.108
 4492SOL    HW123580   2.902   0.265   1.167
 4492SOL    HW223581   3.041   0.259   1.081
 4493SOL     OW23582   1.109   6.323   0.353
 4493SOL    HW123583   1.107   6.257   0.428
 4493SOL    HW223584   1.059   6.285   0.275
 4494SOL     OW23585   2.008   2.935   2.067
 4494SOL    HW123586   1.942   2.860   2.077
 4494SOL    HW223587   2.083   2.922   2.132
 4495SOL     OW23588   2.989   0.509   0.120
 4495SOL    HW123589   3.017   0.605   0.114
 4495SOL    HW223590   3.070   0.451   0.126
 4496SOL     OW23591   2.582   7.130   0.980
 4496SOL    HW123592   2.526   7.097   0.904
 4496SOL    HW223593   2.536   7.208   1.024
 4497SOL     OW23594   2.300   7.254   0.840
 4497SOL    HW123595   2.350   7.335   0.810
 4497SOL    HW223596   2.345   7.172   0.805
 4498SOL     OW23597   1.497   7.230   1.037
 4498SOL    HW123598   1.550   7.226   1.122
 4498SOL    HW223599   1.550   7.190   0.962
 4499SOL     OW23600   1.219   9.865   1.868
 4499SOL    HW123601   1.124   9.839   1.846
 4499SOL    HW223602   1.281   9.823   1.801
 4500SOL     OW23603   2.992   9.135   1.262
 4500SOL    HW123604   3.074   9.127   1.320
 4500SOL    HW223605   2.930   9.202   1.302
 4501SOL     OW23606   9.882   1.561   1.979
 4501SOL    HW123607   9.980   1.580   1.989
 4501SOL    HW223608   9.851   1.505   2.056
 4502SOL     OW23609   9.017   8.091   1.700
 4502SOL    HW123610   9.087   8.070   1.631
 4502SOL    HW223611   9.047   8.169   1.754
 4503SOL     OW23612   1.324   6.377   2.143
 4503SOL    HW123613   1.230   6.347   2.158
 4503SOL    HW223614   1.329   6.476   2.154
 4504SOL     OW23615   1.187   1.982   0.330
 4504SOL    HW123616   1.128   1.913   0.372
 4504SOL    HW223617   1.213   1.953   0.238
 4505SOL     OW23618   4.958   3.304   1.126
 4505SOL    HW123619   4.970   3.350   1.214
 4505SOL    HW223620   4.872   3.252   1.128
 4506SOL     OW23621   9.397   9.608   1.780
 4506SOL    HW123622   9.333   9.532   1.793
 4506SOL    HW223623   9.442   9.599   1.691
 4507SOL     OW23624   1.472   9.290   2.189
 4507SOL    HW123625   1.501   9.371   2.138
 4507SOL    HW223626   1.527   9.211   2.162
 4508SOL     OW23627   2.809   5.566   2.231
 4508SOL    HW123628   2.851   5.524   2.311
 4508SOL    HW223629   2.845   5.659   2.220
 4509SOL     OW23630   9.121   4.936   1.193
 4509SOL    HW123631   9.108   4.840   1.168
 4509SOL    HW223632   9.215   4.951   1.222
 4510SOL     OW23633   9.556   6.825   1.140
 4510SOL    HW123634   9.585   6.732   1.119
 4510SOL    HW223635   9.456   6.832   1.129
 4511SOL     OW23636   2.479   2.114   0.926
 4511SOL    HW123637   2.536   2.192   0.901
 4511SOL    HW223638   2.534   2.030   0.923
 4512SOL     OW23639   8.382   9.525   2.005
 4512SOL    HW123640   8.367   9.455   1.936
 4512SOL    HW223641   8.470   9.509   2.050
 4513SOL     OW23642   2.295   6.186   0.212
 4513SOL    HW123643   2.246   6.144   0.288
 4513SOL    HW223644   2.256   6.275   0.192
 4514SOL     OW23645   3.615   3.348   2.271
 4514SOL    HW123646   3.654   3.435   2.240
 4514SOL    HW223647   3.522   3.363   2.304
 4515SOL     OW23648   8.616   0.066   0.666
 4515SOL    HW123649   8.556   0.013   0.606
 4515SOL    HW223650   8.591   0.051   0.761
 4516SOL     OW23651   2.908   7.521   0.380
 4516SOL    HW123652   2.867   7.606   0.346
 4516SOL    HW223653   2.977   7.489   0.315
 4517SOL     OW23654   2.223   4.111   0.473
 4517SOL    HW123655   2.212   4.046   0.398
 4517SOL    HW223656   2.278   4.188   0.442
 4518SOL     OW23657   1.428   7.711   2.077
 4518SOL    HW123658   1.373   7.641   2.121
 4518SOL    HW223659   1.383   7.800   2.087
 4519SOL     OW23660   4.546   2.143   1.792
 4519SOL    HW123661   4.535   2.240   1.770
 4519SOL    HW223662   4.511   2.125   1.884
 4520SOL     OW23663   3.104   3.578   1.316
 4520SOL    HW123664   3.188   3.599   1.367
 4520SOL    HW223665   3.042   3.525   1.374
 4521SOL     OW23666   0.017   1.394   1.157
 4521SOL    HW123667   0.027   1.427   1.251
 4521SOL    HW223668   0.040   1.468   1.093
 4522SOL     OW23669   0.015   7.768   0.530
 4522SOL    HW123670   0.043   7.705   0.603
 4522SOL    HW223671   0.085   7.770   0.459
 4523SOL     OW23672   0.916   1.193   1.972
 4523SOL    HW123673   0.819   1.214   1.962
 4523SOL    HW223674   0.939   1.114   1.917
 4524SOL     OW23675   1.670   1.378   0.535
 4524SOL    HW123676   1.679   1.280   0.548
 4524SOL    HW223677   1.757   1.417   0.506
 4525SOL     OW23678   9.595   1.879   1.905
 4525SOL    HW123679   9.518   1.815   1.900
 4525SOL    HW223680   9.566   1.969   1.873
 4526SOL     OW23681   2.583   8.295   1.741
 4526SOL    HW123682   2.524   8.236   1.796
 4526SOL    HW223683   2.537   8.382   1.724
 4527SOL     OW23684   2.598   3.311   0.564
 4527SOL    HW123685   2.628   3.316   0.659
 4527SOL    HW223686   2.503   3.280   0.560
 4528SOL     OW23687   4.392   9.050   0.929
 4528SOL    HW123688   4.354   8.958   0.927
 4528SOL    HW223689   4.355   9.103   0.853
 4529SOL     OW23690   3.131   6.211   2.095
 4529SOL    HW123691   3.224   6.187   2.065
 4529SOL    HW223692   3.132   6.303   2.134
 4530SOL     OW23693   9.524   0.645   0.356
 4530SOL    HW123694   9.612   0.688   0.371
 4530SOL    HW223695   9.497   0.657   0.260
 4531SOL     OW23696   8.555   8.106   0.940
 4531SOL    HW123697   8.593   8.190   0.980
 4531SOL    HW223698   8.464   8.090   0.977
 4532SOL     OW23699   2.494   3.827   2.072
 4532SOL    HW123700   2.536   3.908   2.032
 4532SOL    HW223701   2.566   3.762   2.098
 4533SOL     OW23702   3.263   8.665   1.425
 4533SOL    HW123703   3.345   8.609   1.414
 4533SOL    HW223704   3.274   8.750   1.373
 4534SOL     OW23705   3.246   6.283   1.003
 4534SOL    HW123706   3.321   6.218   1.011
 4534SOL    HW223707   3.268   6.351   0.933
 4535SOL     OW23708   0.119   2.822   1.145
 4535SOL    HW123709   0.116   2.912   1.189
 4535SOL    HW223710   0.152   2.832   1.051
 4536SOL     OW23711   1.910   1.519   1.508
 4536SOL    HW123712   1.868   1.590   1.451
 4536SOL    HW223713   1.976   1.560   1.570
 4537SOL     OW23714   8.729   9.548   1.616
 4537SOL    HW123715   8.646   9.582   1.663
 4537SOL    HW223716   8.807   9.603   1.645
 4538SOL     OW23717   8.730   4.823   0.577
 4538SOL    HW123718   8.772   4.870   0.655
 4538SOL    HW223719   8.700   4.732   0.606
 4539SOL     OW23720   2.003   9.173   1.456
 4539SOL    HW123721   2.023   9.150   1.360
 4539SOL    HW223722   1.932   9.112   1.491
 4540SOL     OW23723   0.575   8.806   0.828
 4540SOL    HW123724   0.672   8.788   0.847
 4540SOL    HW223725   0.520   8.730   0.864
 4541SOL     OW23726   8.662   1.164   0.558
 4541SOL    HW123727   8.624   1.130   0.472
 4541SOL    HW223728   8.749   1.210   0.540
 4542SOL     OW23729   2.520   7.984   0.072
 4542SOL    HW123730   2.600   8.043   0.085
 4542SOL    HW223731   2.520   7.948   2.920
 4543SOL     OW23732   0.209   1.021   1.286
 4543SOL    HW123733   0.196   0.958   1.363
 4543SOL    HW223734   0.150   1.101   1.299
 4544SOL     OW23735   2.701   5.985   0.795
 4544SOL    HW123736   2.620   6.022   0.751
 4544SOL    HW223737   2.688   5.887   0.811
 4545SOL     OW23738   4.260   9.741   0.027
 4545SOL    HW123739   4.188   9.811   0.033
 4545SOL    HW223740   4.233   9.662   0.082
 4546SOL     OW23741   9.502   2.658   1.603
 4546SOL    HW123742   9.500   2.583   1.669
 4546SOL    HW223743   9.505   2.621   1.510
 4547SOL     OW23744   8.416   2.140   1.342
 4547SOL    HW123745   8.420   2.225   1.395
 4547SOL    HW223746   8.401   2.162   1.246
 4548SOL     OW23747   9.532   2.517   2.934
 4548SOL    HW123748   9.517   2.583   2.860
 4548SOL    HW223749   9.625   2.525   0.027
 4549SOL     OW23750   0.670   3.064   1.862
 4549SOL    HW123751   0.679   3.083   1.960
 4549SOL    HW223752   0.618   3.137   1.818
 4550SOL     OW23753   9.514   3.920   2.087
 4550SOL    HW123754   9.452   3.924   2.009
 4550SOL    HW223755   9.523   3.825   2.118
 4551SOL     OW23756   2.794   1.365   0.177
 4551SOL    HW123757   2.703   1.408   0.175
 4551SOL    HW223758   2.783   1.266   0.176
 4552SOL     OW23759   0.698   0.761   2.190
 4552SOL    HW123760   0.724   0.805   2.104
 4552SOL    HW223761   0.746   0.674   2.199
 4553SOL     OW23762   2.457   0.102   1.099
 4553SOL    HW123763   2.538   0.055   1.134
 4553SOL    HW223764   2.407   0.041   1.037
 4554SOL     OW23765   8.399   0.438   2.128
 4554SOL    HW123766   8.444   0.379   2.195
 4554SOL    HW223767   8.307   0.404   2.109
 4555SOL     OW23768   9.325   7.238   0.851
 4555SOL    HW123769   9.413   7.257   0.893
 4555SOL    HW223770   9.339   7.204   0.758
 4556SOL     OW23771   9.365   8.162   1.652
 4556SOL    HW123772   9.305   8.106   1.595
 4556SOL    HW223773   9.459   8.131   1.642
 4557SOL     OW23774   2.008   3.726   0.630
 4557SOL    HW123775   1.998   3.712   0.531
 4557SOL    HW223776   1.956   3.807   0.658
 4558SOL     OW23777   2.633   0.916   0.957
 4558SOL    HW123778   2.714   0.974   0.946
 4558SOL    HW223779   2.641   0.837   0.896
 4559SOL     OW23780   0.292   9.580   0.515
 4559SOL    HW123781   0.224   9.611   0.581
 4559SOL    HW223782   0.255   9.504   0.462
 4560SOL     OW23783   4.107   0.901   1.235
 4560SOL    HW123784   4.064   0.991   1.229
 4560SOL    HW223785   4.060   0.837   1.173
 4561SOL     OW23786   1.740   1.074   1.889
 4561SOL    HW123787   1.782   1.154   1.932
 4561SOL    HW223788   1.641   1.087   1.883
 4562SOL     OW23789   2.356   2.339   2.219
 4562SOL    HW123790   2.256   2.332   2.223
 4562SOL    HW223791   2.391   2.275   2.151
 4563SOL     OW23792   0.686   2.139   1.071
 4563SOL    HW123793   0.705   2.237   1.074
 4563SOL    HW223794   0.700   2.100   1.162
 4564SOL     OW23795   3.537   4.798   1.723
 4564SOL    HW123796   3.615   4.756   1.771
 4564SOL    HW223797   3.491   4.729   1.667
 4565SOL     OW23798   1.283   3.903   1.555
 4565SOL    HW123799   1.281   3.843   1.475
 4565SOL    HW223800   1.227   3.863   1.628
 4566SOL     OW23801   4.390   3.242   0.702
 4566SOL    HW123802   4.370   3.332   0.663
 4566SOL    HW223803   4.476   3.207   0.663
 4567SOL     OW23804   3.222   3.110   1.888
 4567SOL    HW123805   3.132   3.148   1.872
 4567SOL    HW223806   3.282   3.180   1.927
 4568SOL     OW23807   1.403   3.283   2.041
 4568SOL    HW123808   1.364   3.210   1.986
 4568SOL    HW223809   1.501   3.265   2.055
 4569SOL     OW23810   9.234   1.764   1.095
 4569SOL    HW123811   9.227   1.761   1.194
 4569SOL    HW223812   9.296   1.692   1.063
 4570SOL     OW23813   0.915   8.364   0.921
 4570SOL    HW123814   1.004   8.325   0.896
 4570SOL    HW223815   0.887   8.431   0.852
 4571SOL     OW23816   1.070   0.864   1.148
 4571SOL    HW123817   1.044   0.956   1.118
 4571SOL    HW223818   1.167   0.862   1.170
 4572SOL     OW23819   1.049   0.336   2.138
 4572SOL    HW123820   1.035   0.264   2.206
 4572SOL    HW223821   1.064   0.295   2.048
 4573SOL     OW23822   8.163   9.986   1.278
 4573SOL    HW123823   8.194   0.074   1.241
 4573SOL    HW223824   8.240   9.938   1.320
 4574SOL     OW23825   7.631   9.953   1.146
 4574SOL    HW123826   7.730   9.944   1.147
 4574SOL    HW223827   7.592   9.914   1.230
 4575SOL     OW23828   3.702   0.644   0.190
 4575SOL    HW123829   3.705   0.741   0.211
 4575SOL    HW223830   3.788   0.615   0.148
 4576SOL     OW23831   4.198   2.528   0.194
 4576SOL    HW123832   4.278   2.577   0.158
 4576SOL    HW223833   4.188   2.549   0.292
 4577SOL     OW23834   8.772   8.489   1.294
 4577SOL    HW123835   8.699   8.469   1.359
 4577SOL    HW223836   8.788   8.588   1.292
 4578SOL     OW23837   2.482   4.634   1.729
 4578SOL    HW123838   2.469   4.537   1.747
 4578SOL    HW223839   2.419   4.687   1.786
 4579SOL     OW23840   2.844   2.231   1.237
 4579SOL    HW123841   2.780   2.290   1.190
 4579SOL    HW223842   2.875   2.274   1.321
 4580SOL     OW23843   7.388   9.383   1.482
 4580SOL    HW123844   7.359   9.455   1.419
 4580SOL    HW223845   7.316   9.365   1.548
 4581SOL     OW23846   0.204   9.952   1.447
 4581SOL    HW123847   0.149   0.010   1.507
 4581SOL    HW223848   0.166   9.860   1.445
 4582SOL     OW23849   9.131   4.992   1.936
 4582SOL    HW123850   9.058   5.057   1.959
 4582SOL    HW223851   9.175   4.961   2.021
 4583SOL     OW23852   2.358   8.771   0.826
 4583SOL    HW123853   2.376   8.864   0.859
 4583SOL    HW223854   2.408   8.756   0.741
 4584SOL     OW23855   4.223   0.503   0.566
 4584SOL    HW123856   4.230   0.578   0.500
 4584SOL    HW223857   4.252   0.535   0.656
 4585SOL     OW23858   0.213   1.544   1.623
 4585SOL    HW123859   0.298   1.581   1.587
 4585SOL    HW223860   0.232   1.487   1.703
 4586SOL     OW23861   4.506   9.627   0.013
 4586SOL    HW123862   4.417   9.671   0.025
 4586SOL    HW223863   4.547   9.659   2.868
 4587SOL     OW23864   9.798   7.414   1.066
 4587SOL    HW123865   9.892   7.386   1.089
 4587SOL    HW223866   9.747   7.430   1.151
 4588SOL     OW23867   2.159   8.184   2.144
 4588SOL    HW123868   2.197   8.235   2.067
 4588SOL    HW223869   2.066   8.215   2.163
 4589SOL     OW23870   0.403   0.755   1.418
 4589SOL    HW123871   0.321   0.801   1.452
 4589SOL    HW223872   0.472   0.753   1.490
 4590SOL     OW23873   9.078   5.852   1.981
 4590SOL    HW123874   9.129   5.886   1.902
 4590SOL    HW223875   8.982   5.842   1.956
 4591SOL     OW23876   0.725   0.093   1.905
 4591SOL    HW123877   0.807   0.063   1.856
 4591SOL    HW223878   0.722   0.193   1.904
 4592SOL     OW23879   4.766   4.014   2.248
 4592SOL    HW123880   4.741   4.104   2.284
 4592SOL    HW223881   4.695   3.982   2.185
 4593SOL     OW23882   2.874   4.270   1.204
 4593SOL    HW123883   2.967   4.257   1.170
 4593SOL    HW223884   2.824   4.329   1.142
 4594SOL     OW23885   9.748   5.080   0.267
 4594SOL    HW123886   9.710   5.011   0.328
 4594SOL    HW223887   9.821   5.130   0.314
 4595SOL     OW23888   3.377   1.884   2.076
 4595SOL    HW123889   3.278   1.882   2.064
 4595SOL    HW223890   3.415   1.966   2.033
 4596SOL     OW23891   4.351   3.920   1.396
 4596SOL    HW123892   4.270   3.928   1.339
 4596SOL    HW223893   4.378   4.011   1.428
 4597SOL     OW23894   3.007   8.583   1.457
 4597SOL    HW123895   3.101   8.614   1.452
 4597SOL    HW223896   2.951   8.636   1.394
 4598SOL     OW23897   8.622   6.342   0.454
 4598SOL    HW123898   8.537   6.380   0.418
 4598SOL    HW223899   8.629   6.364   0.551
 4599SOL     OW23900   3.315   9.474   0.712
 4599SOL    HW123901   3.266   9.529   0.780
 4599SOL    HW223902   3.406   9.452   0.746
 4600SOL     OW23903   5.026   9.594   2.094
 4600SOL    HW123904   4.927   9.611   2.102
 4600SOL    HW223905   5.052   9.521   2.157
 4601SOL     OW23906   8.627   7.238   1.851
 4601SOL    HW123907   8.633   7.272   1.945
 4601SOL    HW223908   8.644   7.140   1.849
 4602SOL     OW23909   8.790   4.053   0.434
 4602SOL    HW123910   8.758   4.145   0.411
 4602SOL    HW223911   8.879   4.037   0.391
 4603SOL     OW23912   9.539   0.418   0.080
 4603SOL    HW123913   9.487   0.339   0.110
 4603SOL    HW223914   9.630   0.416   0.122
 4604SOL     OW23915   8.754   6.679   1.229
 4604SOL    HW123916   8.691   6.726   1.290
 4604SOL    HW223917   8.751   6.722   1.138
 4605SOL     OW23918   9.410   3.697   0.736
 4605SOL    HW123919   9.401   3.707   0.636
 4605SOL    HW223920   9.493   3.646   0.757
 4606SOL     OW23921   9.078   4.682   0.372
 4606SOL    HW123922   9.047   4.701   0.466
 4606SOL    HW223923   9.178   4.683   0.370
 4607SOL     OW23924   3.793   5.089   1.708
 4607SOL    HW123925   3.825   4.997   1.729
 4607SOL    HW223926   3.711   5.084   1.651
 4608SOL     OW23927   9.406   5.605   1.209
 4608SOL    HW123928   9.368   5.549   1.283
 4608SOL    HW223929   9.386   5.701   1.226
 4609SOL     OW23930   9.552   3.972   0.095
 4609SOL    HW123931   9.550   4.071   0.111
 4609SOL    HW223932   9.543   3.955   2.937
 4610SOL     OW23933   7.794   0.219   1.919
 4610SOL    HW123934   7.773   0.276   1.999
 4610SOL    HW223935   7.709   0.194   1.872
 4611SOL     OW23936   0.884   2.255   2.213
 4611SOL    HW123937   0.850   2.215   2.299
 4611SOL    HW223938   0.821   2.232   2.139
 4612SOL     OW23939   0.279   3.244   0.643
 4612SOL    HW123940   0.338   3.324   0.630
 4612SOL    HW223941   0.219   3.260   0.721
 4613SOL     OW23942   1.871   8.832   1.222
 4613SOL    HW123943   1.877   8.906   1.155
 4613SOL    HW223944   1.962   8.792   1.236
 4614SOL     OW23945   3.285   2.058   0.174
 4614SOL    HW123946   3.189   2.033   0.182
 4614SOL    HW223947   3.341   1.996   0.229
 4615SOL     OW23948   1.855   3.378   1.624
 4615SOL    HW123949   1.951   3.383   1.651
 4615SOL    HW223950   1.820   3.470   1.608
 4616SOL     OW23951   1.323   9.194   1.396
 4616SOL    HW123952   1.293   9.114   1.345
 4616SOL    HW223953   1.250   9.223   1.458
 4617SOL     OW23954   1.262   0.523   2.128
 4617SOL    HW123955   1.257   0.565   2.037
 4617SOL    HW223956   1.184   0.461   2.140
 4618SOL     OW23957   4.241   3.302   0.933
 4618SOL    HW123958   4.300   3.282   0.855
 4618SOL    HW223959   4.229   3.220   0.988
 4619SOL     OW23960   2.006   1.263   1.755
 4619SOL    HW123961   1.969   1.278   1.847
 4619SOL    HW223962   2.080   1.328   1.738
 4620SOL     OW23963   8.568   8.794   1.226
 4620SOL    HW123964   8.656   8.785   1.273
 4620SOL    HW223965   8.564   8.882   1.180
 4621SOL     OW23966   2.035   1.664   0.308
 4621SOL    HW123967   2.003   1.607   0.384
 4621SOL    HW223968   2.128   1.696   0.328
 4622SOL     OW23969   1.215   8.392   0.139
 4622SOL    HW123970   1.209   8.327   0.214
 4622SOL    HW223971   1.272   8.469   0.166
 4623SOL     OW23972   4.666   1.244   1.890
 4623SOL    HW123973   4.646   1.150   1.863
 4623SOL    HW223974   4.753   1.246   1.939
 4624SOL     OW23975   1.527   7.296   1.883
 4624SOL    HW123976   1.598   7.366   1.890
 4624SOL    HW223977   1.561   7.210   1.921
 4625SOL     OW23978   0.700   2.103   1.723
 4625SOL    HW123979   0.704   2.118   1.822
 4625SOL    HW223980   0.792   2.106   1.685
 4626SOL     OW23981   3.261   5.032   0.599
 4626SOL    HW123982   3.288   5.040   0.695
 4626SOL    HW223983   3.243   5.123   0.561
 4627SOL     OW23984   0.921   2.253   1.240
 4627SOL    HW123985   0.860   2.186   1.284
 4627SOL    HW223986   0.866   2.324   1.196
 4628SOL     OW23987   1.825   9.296   1.066
 4628SOL    HW123988   1.747   9.357   1.072
 4628SOL    HW223989   1.907   9.343   1.100
 4629SOL     OW23990   1.035   9.720   1.252
 4629SOL    HW123991   1.018   9.623   1.238
 4629SOL    HW223992   1.083   9.758   1.173
 4630SOL     OW23993   2.363   0.929   0.903
 4630SOL    HW123994   2.458   0.935   0.933
 4630SOL    HW223995   2.346   0.838   0.866
 4631SOL     OW23996   1.166   1.738   1.730
 4631SOL    HW123997   1.195   1.809   1.665
 4631SOL    HW223998   1.159   1.778   1.822
 4632SOL     OW23999   8.582   3.122   1.911
 4632SOL    HW124000   8.535   3.190   1.969
 4632SOL    HW224001   8.622   3.051   1.970
 4633SOL     OW24002   0.484   5.369   0.596
 4633SOL    HW124003   0.393   5.332   0.577
 4633SOL    HW224004   0.477   5.468   0.611
 4634SOL     OW24005   2.457   7.882   0.513
 4634SOL    HW124006   2.367   7.837   0.518
 4634SOL    HW224007   2.447   7.979   0.532
 4635SOL     OW24008   2.444   9.475   1.260
 4635SOL    HW124009   2.499   9.393   1.248
 4635SOL    HW224010   2.493   9.540   1.319
 4636SOL     OW24011   8.949   1.686   1.268
 4636SOL    HW124012   8.960   1.599   1.220
 4636SOL    HW224013   8.925   1.757   1.202
 4637SOL     OW24014   3.816   1.562   0.736
 4637SOL    HW124015   3.782   1.551   0.829
 4637SOL    HW224016   3.907   1.519   0.728
 4638SOL     OW24017   3.217   4.397   0.507
 4638SOL    HW124018   3.312   4.419   0.486
 4638SOL    HW224019   3.176   4.349   0.430
 4639SOL     OW24020   8.188   1.148   1.290
 4639SOL    HW124021   8.209   1.133   1.387
 4639SOL    HW224022   8.272   1.171   1.241
 4640SOL     OW24023   1.467   8.304   2.026
 4640SOL    HW124024   1.428   8.361   2.098
 4640SOL    HW224025   1.552   8.263   2.058
 4641SOL     OW24026   3.479   1.979   1.553
 4641SOL    HW124027   3.540   1.904   1.576
 4641SOL    HW224028   3.402   1.980   1.616
 4642SOL     OW24029   2.956   2.262   1.848
 4642SOL    HW124030   3.043   2.269   1.897
 4642SOL    HW224031   2.933   2.166   1.833
 4643SOL     OW24032   1.064   7.339   0.691
 4643SOL    HW124033   1.042   7.299   0.602
 4643SOL    HW224034   0.986   7.393   0.723
 4644SOL     OW24035   8.954   6.021   0.874
 4644SOL    HW124036   9.032   5.987   0.822
 4644SOL    HW224037   8.873   6.022   0.816
 4645SOL     OW24038   7.798   9.749   0.560
 4645SOL    HW124039   7.807   9.731   0.462
 4645SOL    HW224040   7.752   9.837   0.573
 4646SOL     OW24041   2.237   0.131   1.263
 4646SOL    HW124042   2.167   0.144   1.193
 4646SOL    HW224043   2.327   0.136   1.220
 4647SOL     OW24044   8.075   2.105   0.245
 4647SOL    HW124045   8.103   2.071   0.335
 4647SOL    HW224046   8.108   2.199   0.233
 4648SOL     OW24047   1.483   4.318   1.997
 4648SOL    HW124048   1.571   4.342   1.957
 4648SOL    HW224049   1.423   4.398   2.000
 4649SOL     OW24050   0.358   5.898   0.743
 4649SOL    HW124051   0.380   5.922   0.838
 4649SOL    HW224052   0.354   5.980   0.687
 4650SOL     OW24053   3.634   9.979   0.617
 4650SOL    HW124054   3.671   0.001   0.528
 4650SOL    HW224055   3.673   9.893   0.650
 4651SOL     OW24056   0.685   8.912   2.069
 4651SOL    HW124057   0.637   8.902   2.157
 4651SOL    HW224058   0.784   8.910   2.085
 4652SOL     OW24059   0.228   4.873   1.312
 4652SOL    HW124060   0.253   4.968   1.332
 4652SOL    HW224061   0.301   4.812   1.344
 4653SOL     OW24062   0.850   5.378   1.676
 4653SOL    HW124063   0.884   5.284   1.679
 4653SOL    HW224064   0.841   5.414   1.769
 4654SOL     OW24065   1.039   2.574   1.827
 4654SOL    HW124066   1.041   2.670   1.799
 4654SOL    HW224067   1.040   2.568   1.927
 4655SOL     OW24068   2.597   0.441   0.275
 4655SOL    HW124069   2.663   0.503   0.319
 4655SOL    HW224070   2.524   0.495   0.233
 4656SOL     OW24071   9.849   3.125   1.359
 4656SOL    HW124072   9.802   3.213   1.349
 4656SOL    HW224073   9.795   3.053   1.314
 4657SOL     OW24074   9.734   7.170   1.251
 4657SOL    HW124075   9.706   7.096   1.312
 4657SOL    HW224076   9.744   7.135   1.158
 4658SOL     OW24077   7.800   1.303   0.138
 4658SOL    HW124078   7.806   1.363   0.058
 4658SOL    HW224079   7.763   1.355   0.215
 4659SOL     OW24080   9.747   9.684   0.535
 4659SOL    HW124081   9.659   9.725   0.560
 4659SOL    HW224082   9.812   9.756   0.510
 4660SOL     OW24083   8.171   0.493   1.448
 4660SOL    HW124084   8.263   0.457   1.467
 4660SOL    HW224085   8.139   0.455   1.361
 4661SOL     OW24086   9.917   8.685   1.745
 4661SOL    HW124087   9.879   8.700   1.653
 4661SOL    HW224088   0.016   8.673   1.739
 4662SOL     OW24089   2.587   1.374   0.524
 4662SOL    HW124090   2.652   1.440   0.486
 4662SOL    HW224091   2.504   1.422   0.553
 4663SOL     OW24092   8.434   8.840   0.643
 4663SOL    HW124093   8.404   8.923   0.596
 4663SOL    HW224094   8.531   8.848   0.666
 4664SOL     OW24095   0.859   2.812   1.048
 4664SOL    HW124096   0.891   2.900   1.015
 4664SOL    HW224097   0.929   2.771   1.106
 4665SOL     OW24098   8.465   3.157   1.276
 4665SOL    HW124099   8.541   3.159   1.211
 4665SOL    HW224100   8.436   3.251   1.296
 4666SOL     OW24101   2.335   7.450   2.126
 4666SOL    HW124102   2.377   7.388   2.060
 4666SOL    HW224103   2.381   7.538   2.122
 4667SOL     OW24104   8.561   9.904   2.119
 4667SOL    HW124105   8.481   9.855   2.155
 4667SOL    HW224106   8.554   9.910   2.019
 4668SOL     OW24107   8.927   9.692   1.737
 4668SOL    HW124108   9.025   9.706   1.726
 4668SOL    HW224109   8.908   9.659   1.830
 4669SOL     OW24110   2.060   1.267   0.244
 4669SOL    HW124111   2.099   1.299   0.330
 4669SOL    HW224112   2.006   1.184   0.261
 4670SOL     OW24113   9.353   8.619   0.386
 4670SOL    HW124114   9.273   8.646   0.330
 4670SOL    HW224115   9.394   8.537   0.348
 4671SOL     OW24116   0.674   9.563   1.222
 4671SOL    HW124117   0.688   9.662   1.226
 4671SOL    HW224118   0.762   9.516   1.234
 4672SOL     OW24119   7.978   2.390   0.034
 4672SOL    HW124120   7.949   2.305   2.930
 4672SOL    HW224121   8.057   2.372   0.092
 4673SOL     OW24122   0.865   2.457   1.502
 4673SOL    HW124123   0.829   2.496   1.418
 4673SOL    HW224124   0.791   2.410   1.551
 4674SOL     OW24125   4.354   0.945   1.134
 4674SOL    HW124126   4.332   0.977   1.041
 4674SOL    HW224127   4.270   0.917   1.179
 4675SOL     OW24128   1.623   0.035   0.618
 4675SOL    HW124129   1.530   0.008   0.642
 4675SOL    HW224130   1.668   9.960   0.570
 4676SOL     OW24131   0.279   3.823   0.095
 4676SOL    HW124132   0.218   3.901   0.095
 4676SOL    HW224133   0.345   3.832   0.020
 4677SOL     OW24134   9.226   6.973   0.877
 4677SOL    HW124135   9.131   6.969   0.910
 4677SOL    HW224136   9.256   7.068   0.874
 4678SOL     OW24137   2.369   4.840   1.099
 4678SOL    HW124138   2.322   4.857   1.185
 4678SOL    HW224139   2.394   4.743   1.094
 4679SOL     OW24140   3.104   8.487   2.111
 4679SOL    HW124141   3.023   8.476   2.053
 4679SOL    HW224142   3.138   8.581   2.103
 4680SOL     OW24143   0.813   7.105   2.062
 4680SOL    HW124144   0.817   7.188   2.118
 4680SOL    HW224145   0.725   7.101   2.016
 4681SOL     OW24146   0.971   5.123   1.675
 4681SOL    HW124147   1.061   5.162   1.659
 4681SOL    HW224148   0.980   5.038   1.727
 4682SOL     OW24149   3.987   3.604   0.208
 4682SOL    HW124150   3.974   3.701   0.187
 4682SOL    HW224151   4.085   3.585   0.214
 4683SOL     OW24152   2.671   4.098   0.051
 4683SOL    HW124153   2.686   4.195   0.068
 4683SOL    HW224154   2.584   4.070   0.092
 4684SOL     OW24155   2.322   1.956   0.756
 4684SOL    HW124156   2.372   2.021   0.813
 4684SOL    HW224157   2.226   1.956   0.782
 4685SOL     OW24158   1.804   3.146   0.185
 4685SOL    HW124159   1.874   3.214   0.162
 4685SOL    HW224160   1.840   3.054   0.168
 4686SOL     OW24161   8.830   9.918   1.622
 4686SOL    HW124162   8.867   9.830   1.653
 4686SOL    HW224163   8.812   9.976   1.701
 4687SOL     OW24164   1.161   1.756   2.194
 4687SOL    HW124165   1.168   1.832   2.129
 4687SOL    HW224166   1.159   1.791   2.287
 4688SOL     OW24167   3.726   0.071   0.380
 4688SOL    HW124168   3.772   0.158   0.397
 4688SOL    HW224169   3.761   0.031   0.295
 4689SOL     OW24170   2.560   5.989   1.863
 4689SOL    HW124171   2.509   5.907   1.839
 4689SOL    HW224172   2.497   6.056   1.905
 4690SOL     OW24173   0.094   8.996   0.265
 4690SOL    HW124174   0.053   9.087   0.269
 4690SOL    HW224175   0.181   8.996   0.315
 4691SOL     OW24176   1.695   4.799   0.988
 4691SOL    HW124177   1.609   4.761   0.952
 4691SOL    HW224178   1.712   4.888   0.948
 4692SOL     OW24179   0.202   1.176   1.931
 4692SOL    HW124180   0.119   1.202   1.980
 4692SOL    HW224181   0.245   1.258   1.892
  10.00000  10.00000   2.94101
