Written by MDAnalysis
54082
    1CHTO  H203    1   5.875   6.494   5.073  0.3476  0.6804  2.3422
    1CHTO   O82    2   5.933   6.421   5.070  0.1404  0.5753 -0.0981
    1CHTO  C123    3   6.046   6.440   4.987 -0.1071  0.2196  0.6302
    1CHTO  H227    4   6.127   6.476   5.052 -1.0873  2.2445  0.7520
    1CHTO   O77    5   6.068   6.307   4.936 -0.3786 -1.1207 -0.2910
    1CHTO  C118    6   6.190   6.302   4.864  0.0435  0.0659 -0.3114
    1CHTO  H222    7   6.280   6.330   4.921 -0.6426  0.8493  0.3906
    1CHTO  C125    8   6.201   6.152   4.814 -0.1368 -0.3334 -0.5891
    1CHTO   O84    9   6.329   6.124   4.765 -0.2022 -0.3421  0.3169
    1CHTO  H205   10   6.363   6.188   4.706 -0.2283  0.0187  0.6922
    1CHTO  C114   11   6.189   6.386   4.735 -0.3974 -0.2045  0.1773
    1CHTO  H218   12   6.117   6.341   4.666  0.1226  1.4706 -1.5010
    1CHTO  C116   13   6.156   6.537   4.771 -0.6738  0.2431 -0.4809
    1CHTO  H220   14   6.237   6.592   4.822 -1.0578  2.6270 -2.3712
    1CHTO   O79   15   6.127   6.597   4.644  0.1092  0.0805 -0.3931
    1CHTO  H201   16   6.068   6.669   4.658 -2.3553 -2.0176  0.4306
    1CHTO  C120   17   6.028   6.540   4.868 -0.2628  0.7703  0.4319
    1CHTO  H224   18   5.944   6.494   4.813  0.7893 -3.6919  2.3227
    1CHTO   N21   19   5.998   6.676   4.912  0.0418  0.6795  0.7516
    1CHTO  H211   20   6.040   6.749   4.844 -0.6524  1.2350  0.9090
    1CHTO  H212   21   5.892   6.698   4.911  0.1177  1.0561 -0.7829
    1CHTO   O75   22   6.318   6.382   4.669  0.2112 -0.2193 -0.6014
    1CHTO  C112   23   6.306   6.382   4.503  0.5052 -0.2510  0.6363
    1CHTO  H216   24   6.236   6.457   4.462 -0.1347  0.5776  3.1397
    1CHTO   O73   25   6.263   6.249   4.464 -0.0529 -0.1292  0.4879
    1CHTO  C113   26   6.242   6.238   4.323 -0.2095 -0.3638  0.7412
    1CHTO  H217   27   6.165   6.315   4.302  0.8577  0.7950  1.0218
    1CHTO  C124   28   6.183   6.103   4.318 -0.1343  0.2440  0.4747
    1CHTO   O83   29   6.050   6.103   4.380  0.2425  0.1504 -0.0751
    1CHTO  H204   30   5.996   6.043   4.331  0.5511  1.2049 -1.7432
    1CHTO  C109   31   6.368   6.252   4.239 -0.5793  0.6214  0.2613
    1CHTO  H213   32   6.436   6.171   4.269 -2.3448 -1.0850 -0.3017
    1CHTO  C110   33   6.439   6.389   4.279 -0.3240  0.4784 -0.0918
    1CHTO  H214   34   6.385   6.469   4.229 -2.5495 -1.1996 -0.4393
    1CHTO   O78   35   6.569   6.372   4.223 -0.1857 -0.1539  0.0559
    1CHTO  H200   36   6.622   6.331   4.289 -0.4925 -1.0631 -0.2600
    1CHTO  C111   37   6.453   6.406   4.433 -0.8803 -0.8408  0.9867
    1CHTO  H215   38   6.516   6.327   4.474  2.5001  1.2809  0.0741
    1CHTO   N19   39   6.518   6.531   4.476 -0.1299  0.0863  0.2163
    1CHTO  H207   40   6.478   6.614   4.419 -0.9860 -0.6044 -0.1984
    1CHTO  H208   41   6.623   6.540   4.500 -0.7845  1.3885  2.8121
    1CHTO   O74   42   6.344   6.256   4.093 -0.0580  0.3783  0.1312
    1CHTO  C115   43   6.377   6.118   4.026  0.3234  0.4112 -0.1347
    1CHTO  H219   44   6.391   6.037   4.098  1.9017  0.9025  0.1167
    1CHTO   O76   45   6.261   6.064   3.940 -0.1662 -0.8297 -0.3281
    1CHTO  C122   46   6.247   6.115   3.807 -0.8197  0.0831  0.6162
    1CHTO  H226   47   6.245   6.221   3.832 -1.0911  0.4478 -0.9335
    1CHTO  C126   48   6.109   6.082   3.737  0.3967  0.3943 -0.5809
    1CHTO   O85   49   6.093   5.939   3.719  0.4459  0.5549  0.2025
    1CHTO  H206   50   6.003   5.929   3.694  0.6341 -0.9218  0.0507
    1CHTO  C121   51   6.381   6.087   3.723 -0.2679  0.0299  0.4011
    1CHTO  H225   52   6.370   6.016   3.639  0.0352  0.1829  0.2289
    1CHTO   O81   53   6.417   6.204   3.646  0.1491 -0.1951 -0.3874
    1CHTO  H202   54   6.415   6.285   3.693 -0.4464 -1.1139  1.2207
    1CHTO  C119   55   6.502   6.042   3.809  0.1912 -0.3969  0.6493
    1CHTO  H223   56   6.482   5.940   3.839 -1.9056  0.5270  2.5254
    1CHTO  C117   57   6.511   6.132   3.941 -0.6447 -0.5710 -0.2690
    1CHTO  H221   58   6.514   6.239   3.922  1.8247 -0.6986 -0.7907
    1CHTO   N20   59   6.633   6.105   4.027  0.1739  0.0304  0.1702
    1CHTO  H209   60   6.627   6.172   4.112 -1.8938 -1.1012  0.9432
    1CHTO  H210   61   6.640   5.999   4.045  0.7830 -0.5692 -3.2537
    1CHTO   O80   62   6.634   6.026   3.730  0.1112 -0.5990  0.2342
    1CHTO  C103   63   6.700   5.883   3.708 -0.3617 -0.4806  0.2130
    1CHTO  H190   64   6.723   5.843   3.807  1.8740 -0.3403 -0.2197
    1CHTO  C101   65   6.611   5.785   3.624  0.1210 -1.4012 -0.3686
    1CHTO  H188   66   6.572   5.843   3.540  3.0245  1.0216 -0.0948
    1CHTO   O68   67   6.486   5.740   3.717  0.1620 -0.4459  0.6145
    1CHTO  H168   68   6.510   5.670   3.776 -2.1466 -1.1617  0.7376
    1CHTO   C99   69   6.689   5.657   3.572 -0.1578  0.2501  0.0150
    1CHTO  H186   70   6.714   5.597   3.662 -1.8149 -1.5096 -0.6557
    1CHTO   N17   71   6.601   5.572   3.486  0.3244  0.1774 -0.1858
    1CHTO  H174   72   6.512   5.566   3.546 -1.4725 -0.4207 -2.8283
    1CHTO  H175   73   6.574   5.635   3.403  0.2811  0.9483  0.4156
    1CHTO   C97   74   6.821   5.703   3.508 -0.5105  0.1018  0.3777
    1CHTO  H184   75   6.792   5.770   3.425 -0.5464 -1.3000 -0.7576
    1CHTO   O64   76   6.900   5.771   3.617  0.0128 -0.3996  0.1919
    1CHTO  C104   77   6.841   5.903   3.635  1.2667 -0.6213 -0.4270
    1CHTO  H191   78   6.826   5.957   3.542  0.6563 -1.1148 -0.6169
    1CHTO  C108   79   6.937   5.983   3.721 -0.2475  0.1900 -0.6499
    1CHTO   O71   80   7.062   6.021   3.662  0.2081  0.3369  0.3780
    1CHTO  H171   81   7.117   6.037   3.736  0.8503  0.5628 -0.1495
    1CHTO   O62   82   6.903   5.591   3.472 -0.1080 -0.5063 -0.1577
    1CHTO   C91   83   7.014   5.630   3.388 -0.0900 -0.0313  0.2227
    1CHTO  H178   84   7.024   5.739   3.391 -3.2380  0.3508 -1.4097
    1CHTO   C92   85   6.961   5.610   3.244 -1.1125 -0.2296 -0.8042
    1CHTO  H179   86   6.863   5.658   3.242 -0.7516  0.6339  1.1839
    1CHTO   O66   87   7.048   5.696   3.166  0.6182 -0.2231  0.1674
    1CHTO  H166   88   7.024   5.688   3.076  0.5332  1.4860  0.0112
    1CHTO   C93   89   6.967   5.467   3.186  0.1533  0.3077 -0.2252
    1CHTO  H180   90   6.972   5.473   3.077 -0.9322  1.9868 -0.2120
    1CHTO   N16   91   6.837   5.402   3.203 -0.7786  0.2508 -0.1809
    1CHTO  H172   92   6.824   5.324   3.278 -2.0924 -0.3318 -0.9879
    1CHTO  H173   93   6.745   5.459   3.203  0.3058  2.0592  1.0659
    1CHTO   C94   94   7.091   5.389   3.241  0.0181 -0.5711 -0.0899
    1CHTO  H181   95   7.067   5.328   3.328  0.1244 -1.0414 -0.3884
    1CHTO   O61   96   7.191   5.479   3.303 -0.5801 -0.0270 -0.3763
    1CHTO   C95   97   7.156   5.564   3.414 -0.2069 -0.2888 -0.4263
    1CHTO  H182   98   7.155   5.505   3.506  0.3614 -0.1168 -0.3033
    1CHTO  C106   99   7.263   5.678   3.428  0.4450  0.9168  0.1178
    1CHTO   O69  100   7.397   5.619   3.425 -0.0204 -0.1647  0.3735
    1CHTO  H169  101   7.415   5.605   3.516 -1.5263 -0.7394  0.6038
    1CHTO   O63  102   7.157   5.316   3.121  0.3222 -0.5621  0.0728
    1CHTO   C96  103   7.180   5.174   3.147 -0.5208 -0.1775 -0.7657
    1CHTO  H183  104   7.085   5.131   3.179 -0.6348  0.3775 -0.3344
    1CHTO   C98  105   7.277   5.141   3.270 -0.0090 -0.1203  0.1504
    1CHTO  H185  106   7.234   5.184   3.361  0.1027 -2.5623  1.3998
    1CHTO   O67  107   7.269   4.997   3.292 -0.1748 -0.2651 -0.4652
    1CHTO  H167  108   7.280   4.978   3.383 -0.6764  1.8828  0.0697
    1CHTO  C102  109   7.435   5.184   3.246  0.3544 -0.4109 -0.1410
    1CHTO  H189  110   7.493   5.126   3.319  0.3444  0.5961  0.6806
    1CHTO   N18  111   7.472   5.323   3.271  0.1994 -0.6738  0.0563
    1CHTO  H176  112   7.451   5.340   3.375 -1.5120 -0.9846 -0.2215
    1CHTO  H177  113   7.410   5.381   3.205 -1.9956 -2.3300  0.5726
    1CHTO  C105  114   7.470   5.143   3.095 -0.2292 -0.2379  0.1921
    1CHTO  H192  115   7.479   5.233   3.035 -0.2116  0.4939  1.2790
    1CHTO   O65  116   7.374   5.051   3.031 -0.0447  0.6031 -0.4734
    1CHTO  C100  117   7.244   5.103   3.018 -0.2468 -0.0475 -0.4912
    1CHTO  H187  118   7.244   5.158   2.923  1.2291  0.4783 -0.2079
    1CHTO  C107  119   7.158   4.984   2.983  0.2966 -0.0162  0.0109
    1CHTO   O70  120   7.022   5.021   2.965  0.0384 -0.1753  0.1184
    1CHTO  H170  121   6.983   4.970   2.897  1.7846  0.5039 -1.3988
    1CHTO   O57  122   7.613   5.085   3.111  0.0548  0.5581  0.2485
    1CHTO   C85  123   7.650   4.952   3.064 -0.3783 -0.2515 -0.0053
    1CHTO  H157  124   7.566   4.909   3.006 -0.4125 -0.8645  0.4999
    1CHTO   C83  125   7.665   4.859   3.190  0.0983 -0.4738  0.2357
    1CHTO  H155  126   7.562   4.827   3.209 -0.2865 -0.2748 -1.4744
    1CHTO   O56  127   7.714   4.947   3.302 -0.2910  0.2449  0.2009
    1CHTO  H135  128   7.684   4.912   3.384  0.6178  1.2711  0.9785
    1CHTO   C81  129   7.755   4.738   3.158  0.0126  1.1189 -0.0691
    1CHTO  H153  130   7.705   4.684   3.078 -0.0904 -3.0032  2.6502
    1CHTO   N14  131   7.761   4.640   3.276 -0.5938  0.4317 -0.6208
    1CHTO  H141  132   7.695   4.666   3.356  0.2184  1.0482 -0.1470
    1CHTO  H142  133   7.760   4.535   3.256  1.7168  0.6529 -2.1173
    1CHTO   C79  134   7.894   4.786   3.104 -0.4397 -0.1432  0.5709
    1CHTO  H151  135   7.952   4.695   3.092 -0.4606 -0.1968  0.8649
    1CHTO   O52  136   7.877   4.848   2.976 -0.6094  0.0700  0.3077
    1CHTO   C86  137   7.780   4.960   2.979  0.0992  0.1381  0.6227
    1CHTO  H158  138   7.847   5.041   3.015  0.7231 -0.3226  0.4851
    1CHTO   C90  139   7.727   5.007   2.842 -0.0272  0.2202  0.3713
    1CHTO   O60  140   7.829   5.008   2.738  0.0220 -0.0547  0.0012
    1CHTO  H138  141   7.810   4.992   2.647  0.7459  1.2216 -0.3860
    1CHTO   O50  142   7.957   4.877   3.195 -0.3475  0.2515  0.2586
    1CHTO   C73  143   8.071   4.944   3.234  0.0035  0.7256 -0.1177
    1CHTO  H145  144   8.130   4.958   3.142  2.5345  0.3371  1.3979
    1CHTO   C74  145   8.159   4.848   3.331 -0.3831 -0.0314  0.1502
    1CHTO  H146  146   8.174   4.756   3.272 -0.6015  0.3808 -0.5516
    1CHTO   O54  147   8.279   4.924   3.343 -0.2627  0.1461  0.2013
    1CHTO  H133  148   8.256   5.011   3.368  1.3523  0.2168  1.4769
    1CHTO   C75  149   8.070   4.825   3.463  0.2242 -0.0993  0.6471
    1CHTO  H147  150   7.984   4.761   3.436 -0.7551  1.3776  0.2170
    1CHTO   N13  151   8.126   4.742   3.562  0.1939  0.3561  0.0464
    1CHTO  H139  152   8.224   4.782   3.584  0.9389 -0.3066 -1.9678
    1CHTO  H140  153   8.073   4.746   3.656  2.1169  1.8648  1.1083
    1CHTO   C76  154   8.014   4.964   3.532 -0.2414 -0.1415  0.6871
    1CHTO  H148  155   8.102   5.011   3.576 -0.3375 -0.4195  1.1798
    1CHTO   O49  156   7.957   5.046   3.427  0.6502  0.1252 -0.1714
    1CHTO   C77  157   8.046   5.075   3.312 -0.6967 -0.2011 -0.5129
    1CHTO  H149  158   8.142   5.121   3.338 -0.0980 -2.4096  1.4007
    1CHTO   C88  159   7.985   5.193   3.229 -0.3069 -0.1762  0.3483
    1CHTO   O58  160   7.984   5.298   3.283  0.3339  0.6524 -0.7462
    1CHTO  H136  161   7.894   5.320   3.297 -0.6119 -3.3223  0.0975
    1CHTO   O51  162   7.895   4.940   3.641  0.3787 -0.1611  0.1309
    1CHTO   C78  163   7.865   5.066   3.723 -0.6834 -0.4786 -0.0949
    1CHTO  H150  164   7.884   5.155   3.658 -3.1378  0.8405  0.9172
    1CHTO   C80  165   7.952   5.068   3.851 -0.2623  0.0912  0.8406
    1CHTO  H152  166   7.958   4.968   3.898  2.9683 -0.2985 -0.2175
    1CHTO   O55  167   8.086   5.081   3.817  0.4194  0.0876  0.1509
    1CHTO  H134  168   8.131   5.000   3.804 -0.5429 -0.8108  2.1619
    1CHTO   C84  169   7.897   5.183   3.950  0.4002 -0.5110  0.3741
    1CHTO  H156  170   7.934   5.277   3.909 -0.2757 -1.0913 -1.6047
    1CHTO   N15  171   7.959   5.160   4.086 -0.0320 -0.6131 -0.3180
    1CHTO  H143  172   7.934   5.063   4.125  1.6815 -0.1827  1.9396
    1CHTO  H144  173   7.933   5.239   4.152  1.9000  1.8516 -2.4032
    1CHTO   C87  174   7.740   5.199   3.954  0.0395 -0.2492 -0.0712
    1CHTO  H159  175   7.709   5.117   4.020  1.0335  0.2123  0.9927
    1CHTO   O53  176   7.681   5.179   3.812  0.6858  0.3059  0.3005
    1CHTO   C82  177   7.713   5.055   3.751  0.2101  0.5751  0.5858
    1CHTO  H154  178   7.681   4.974   3.817 -0.3156 -0.2509 -0.6774
    1CHTO   C89  179   7.631   5.038   3.618 -0.1362  0.1683 -0.1282
    1CHTO   O59  180   7.494   5.026   3.649  0.1199 -0.3627 -0.4469
    1CHTO  H137  181   7.467   5.087   3.715  1.1545 -0.5631  0.1712
    1CHTO   O45  182   7.706   5.340   4.009  0.3526 -0.4218  0.4132
    1CHTO   C67  183   7.564   5.379   3.989 -0.1159  0.7404 -0.0838
    1CHTO  H124  184   7.498   5.297   3.960  1.2044 -0.1945 -0.5042
    1CHTO   C65  185   7.503   5.445   4.119  0.2365  0.3443  0.9697
    1CHTO  H122  186   7.515   5.373   4.200 -3.3345 -0.1977  1.1084
    1CHTO   O44  187   7.362   5.465   4.105  0.0745  0.0672  0.2907
    1CHTO  H102  188   7.325   5.385   4.075  2.0917  0.1435 -2.6929
    1CHTO   C63  189   7.591   5.561   4.161 -0.2020 -0.8789 -0.3003
    1CHTO  H120  190   7.693   5.523   4.158  0.3995  0.5004  1.8203
    1CHTO   N11  191   7.591   5.608   4.304  0.7419 -0.0995  0.4180
    1CHTO  H108  192   7.495   5.590   4.348  0.6460  0.0322  0.2617
    1CHTO  H109  193   7.662   5.555   4.365  0.0875  0.3552  1.5950
    1CHTO   C61  194   7.574   5.678   4.051  0.1462 -0.6103  0.2438
    1CHTO  H118  195   7.657   5.749   4.068  1.2866 -1.8527  0.0109
    1CHTO   O40  196   7.598   5.615   3.915  0.5917  0.2007 -0.4447
    1CHTO   C68  197   7.560   5.486   3.868 -0.2744  0.8018  0.2577
    1CHTO  H125  198   7.643   5.455   3.802  1.1104 -1.5188  2.9815
    1CHTO   C72  199   7.427   5.494   3.783  0.6006  0.6274  0.7025
    1CHTO   O48  200   7.407   5.365   3.718  0.4738 -0.2830 -0.4488
    1CHTO  H105  201   7.315   5.349   3.704  0.2325 -1.6700  2.2749
    1CHTO   O38  202   7.447   5.758   4.057 -0.2765  0.6040 -0.1930
    1CHTO   C55  203   7.465   5.899   4.035 -0.4518  0.5325 -0.0902
    1CHTO  H112  204   7.560   5.911   3.981  0.3929  0.9468  1.4627
    1CHTO   C56  205   7.467   5.984   4.180 -0.3854  0.9003 -0.1152
    1CHTO  H113  206   7.370   5.957   4.223 -0.2093  3.0309  1.7054
    1CHTO   O42  207   7.560   5.926   4.270  0.1671 -0.6471 -0.6241
    1CHTO  H100  208   7.527   5.936   4.357 -0.9063  0.1138 -1.1169
    1CHTO   C57  209   7.486   6.141   4.156  0.1808 -0.4614 -0.2162
    1CHTO  H114  210   7.588   6.162   4.123  0.3954 -0.6734  0.3153
    1CHTO   N10  211   7.459   6.224   4.278 -0.0667  0.2992  0.2062
    1CHTO  H106  212   7.376   6.187   4.335 -0.9423  2.5558  0.4562
    1CHTO  H107  213   7.541   6.227   4.349 -0.1772 -1.3532  0.4146
    1CHTO   C58  214   7.385   6.193   4.043  0.8552 -0.3042 -0.4469
    1CHTO  H115  215   7.288   6.217   4.092  0.9376  0.7847 -0.7953
    1CHTO   O37  216   7.378   6.107   3.927  0.2266  0.1606 -0.0256
    1CHTO   C59  217   7.351   5.967   3.951  0.5162 -0.0084 -0.6120
    1CHTO  H116  218   7.255   5.965   4.003  0.7004 -0.5854 -0.2816
    1CHTO   C70  219   7.333   5.908   3.811  0.3109  0.2740 -0.5115
    1CHTO   O46  220   7.465   5.886   3.752  0.4170 -0.2002  0.0625
    1CHTO  H103  221   7.503   5.970   3.735  1.7738 -0.3526  2.1537
    1CHTO   O39  222   7.453   6.333   3.969  0.9054  0.1674 -0.4652
    1CHTO   C60  223   7.352   6.423   3.921 -0.1844  0.7280  0.4538
    1CHTO  H117  224   7.263   6.374   3.880 -0.4756  2.2848 -0.8265
    1CHTO   C62  225   7.293   6.509   4.044  0.5049 -0.0183  0.1354
    1CHTO  H119  226   7.251   6.431   4.111 -0.2669 -0.8426 -1.3057
    1CHTO   O43  227   7.392   6.583   4.114  1.0371 -0.0739 -0.5463
    1CHTO  H101  228   7.413   6.657   4.061  0.8474  0.5124  0.1909
    1CHTO   C66  229   7.168   6.603   3.996 -0.0829 -0.1422 -0.6196
    1CHTO  H123  230   7.094   6.532   3.960 -0.2504 -0.8224  1.0406
    1CHTO   N12  231   7.104   6.682   4.106  0.3286 -0.2553  0.1385
    1CHTO  H110  232   7.055   6.616   4.176 -3.3707  0.3375 -1.7827
    1CHTO  H111  233   7.168   6.753   4.156 -0.9826  1.9101 -1.1736
    1CHTO   C69  234   7.223   6.682   3.875 -0.6337 -0.2703  0.0411
    1CHTO  H126  235   7.303   6.753   3.905 -0.5606 -0.5002  0.3954
    1CHTO   O41  236   7.280   6.594   3.769  0.4581 -0.0799 -0.2204
    1CHTO   C64  237   7.399   6.523   3.818  1.3052  0.3069 -0.5945
    1CHTO  H121  238   7.473   6.597   3.856  1.6695 -0.2719 -0.1625
    1CHTO   C71  239   7.466   6.438   3.712  0.0051  0.2958 -0.0123
    1CHTO   O47  240   7.552   6.521   3.632 -0.4770 -0.0555  0.0545
    1CHTO  H104  241   7.593   6.464   3.569 -1.5955  0.0704 -0.8134
    1CHTO   O34  242   7.112   6.759   3.800 -0.0857  0.3902 -0.4190
    1CHTO   C49  243   7.131   6.836   3.667  0.2941 -0.1567 -0.3173
    1CHTO   H91  244   7.223   6.891   3.683 -0.3992  0.9010  0.0950
    1CHTO   C47  245   7.015   6.934   3.647 -0.4455 -0.2538  0.7014
    1CHTO   H89  246   7.043   7.003   3.564 -0.5379  1.3167  1.9599
    1CHTO   O33  247   7.000   7.016   3.766 -0.3032  0.3283  0.5326
    1CHTO   H70  248   7.084   7.051   3.791  0.4573 -1.0357 -0.0914
    1CHTO   C45  249   6.881   6.843   3.610  0.0575 -0.5507 -0.0124
    1CHTO   H87  250   6.871   6.775   3.697 -0.8361  0.2172  0.4945
    1CHTO    N8  251   6.759   6.926   3.595 -0.4784  0.2112  0.0345
    1CHTO   H75  252   6.786   7.018   3.545 -2.3225  0.1623 -1.1049
    1CHTO   H76  253   6.682   6.871   3.543  0.2977 -0.6793 -0.1769
    1CHTO   C43  254   6.895   6.741   3.484 -0.0859  0.4231 -0.1805
    1CHTO   H85  255   6.808   6.676   3.483  0.7417 -0.7122 -0.2521
    1CHTO   O29  256   7.018   6.665   3.501  0.2546  0.2881 -0.0870
    1CHTO   C50  257   7.138   6.744   3.533 -0.6347  0.1519 -0.6766
    1CHTO   H92  258   7.214   6.665   3.546  1.7825  2.6856  1.0320
    1CHTO   C54  259   7.200   6.829   3.421  0.5590 -0.3150  0.1808
    1CHTO   O36  260   7.258   6.746   3.320  0.0599 -0.0446 -0.7771
    1CHTO   H72  261   7.256   6.795   3.240  0.8537  2.1509  0.4888
    1CHTO   O27  262   6.898   6.822   3.364 -0.4771  0.0689  0.2106
    1CHTO   C37  263   6.919   6.846   3.223  0.0547  0.0516 -0.2050
    1CHTO   H79  264   7.028   6.857   3.207 -0.1199  0.7973 -0.8743
    1CHTO   C38  265   6.861   6.721   3.148  0.1077  0.8525  0.5348
    1CHTO   H80  266   6.755   6.712   3.177  0.6665  0.7155  2.6167
    1CHTO   O31  267   6.941   6.607   3.185 -0.7225  0.5141 -0.1649
    1CHTO   H68  268   6.906   6.576   3.267 -1.6450  0.0273 -0.7372
    1CHTO   C39  269   6.877   6.728   2.989 -0.3143 -1.0095 -0.9080
    1CHTO   H81  270   6.985   6.735   2.973 -0.2984  1.5804  0.1578
    1CHTO    N7  271   6.823   6.614   2.914 -0.0698  0.1392 -0.1802
    1CHTO   H73  272   6.898   6.558   2.861  1.1125  0.0950  1.4860
    1CHTO   H74  273   6.734   6.651   2.866 -0.3281  1.6494  1.4015
    1CHTO   C40  274   6.816   6.865   2.938  0.1483 -0.0922  0.0058
    1CHTO   H82  275   6.707   6.860   2.944  0.2556 -0.3620  1.9681
    1CHTO   O26  276   6.867   6.975   3.020  0.1413  0.7498 -0.0248
    1CHTO   C41  277   6.842   6.966   3.161  0.3922  0.2550 -0.3072
    1CHTO   H83  278   6.734   6.944   3.161  0.6726 -1.1443 -0.2524
    1CHTO   C52  279   6.859   7.114   3.218  0.1504 -0.3458  0.1743
    1CHTO   O35  280   6.765   7.193   3.165 -0.0843  0.4538 -0.0486
    1CHTO   H71  281   6.689   7.202   3.219 -0.1246  1.5908 -0.2827
    1CHTO   O28  282   6.840   6.901   2.798 -0.2362 -0.1533 -0.3127
    1CHTO   C42  283   6.961   6.953   2.742  0.3023  0.2901 -0.0333
    1CHTO   H84  284   7.047   6.935   2.807  1.3490  0.1891 -1.4295
    1CHTO   C44  285   6.959   7.114   2.726 -0.4118  0.9757 -0.3963
    1CHTO   H86  286   6.883   7.139   2.651 -0.9632 -0.5092 -0.3564
    1CHTO   O32  287   6.913   7.189   2.847  0.2334 -0.4507 -0.3306
    1CHTO   H69  288   6.922   7.141   2.927 -1.0910 -0.0417  0.0752
    1CHTO   C48  289   7.102   7.149   2.671  0.1549 -0.1302 -0.2714
    1CHTO   H90  290   7.174   7.135   2.752  0.0398  2.2166  0.2485
    1CHTO    N9  291   7.111   7.300   2.647 -0.8435  0.1623 -0.3388
    1CHTO   H77  292   7.201   7.350   2.681  0.0379 -1.6000 -0.0556
    1CHTO   H78  293   7.103   7.320   2.541  0.3380  2.8189  0.0202
    1CHTO   C51  294   7.152   7.074   2.541 -0.4453  0.6127 -0.3505
    1CHTO   H93  295   7.092   7.117   2.461 -0.7808 -0.3638 -0.6365
    1CHTO   O30  296   7.123   6.932   2.554 -0.4456  0.4673 -0.5283
    1CHTO   C46  297   7.000   6.896   2.601 -0.2233  1.1389 -0.2720
    1CHTO   H88  298   6.927   6.921   2.524 -0.6343 -0.0372 -0.2744
    1CHTO   C53  299   6.999   6.738   2.602 -0.6923 -0.1395 -0.1545
    1CHTO   O72  300   7.015   6.680   2.473 -0.9249  0.2076  0.0427
    1CHTO  H199  301   6.986   6.591   2.463  0.4376 -0.0511 -1.9328
    1CHTO   O22  302   7.295   7.082   2.522 -0.2265 -0.0723  0.2943
    1CHTO   C31  303   7.341   7.150   2.404  0.3684  0.3016 -0.1823
    1CHTO   H59  304   7.263   7.221   2.371 -0.5131 -0.6842 -0.2710
    1CHTO   C29  305   7.468   7.234   2.444  0.2936 -0.0773 -0.0217
    1CHTO   H57  306   7.534   7.165   2.499  0.7517  1.0299  0.8432
    1CHTO   O21  307   7.437   7.330   2.544  0.6161 -0.3197  0.4566
    1CHTO   H37  308   7.513   7.359   2.590 -0.0493  1.4298  0.4963
    1CHTO   C27  309   7.554   7.294   2.328 -0.1591  0.2909 -0.0858
    1CHTO   H55  310   7.505   7.385   2.289  1.3903  1.4677  0.6717
    1CHTO    N5  311   7.691   7.335   2.382  0.3262 -0.2601  1.0357
    1CHTO   H43  312   7.747   7.251   2.420 -0.7387 -2.2463 -1.6410
    1CHTO   H44  313   7.752   7.374   2.302 -0.8221  1.7014  1.0863
    1CHTO   C25  314   7.554   7.193   2.205 -0.6119 -0.2719 -0.1484
    1CHTO   H53  315   7.629   7.115   2.224 -0.2922 -0.1172 -0.7530
    1CHTO   O17  316   7.425   7.132   2.175 -0.3853 -0.6469  0.5427
    1CHTO   C32  317   7.367   7.054   2.282 -0.1000  0.0988  0.2540
    1CHTO   H60  318   7.438   6.976   2.307  2.1798  0.9892 -3.1422
    1CHTO   C36  319   7.237   6.988   2.225 -0.4801 -0.1673  0.2708
    1CHTO   O25  320   7.215   6.860   2.293  0.7554  0.2120 -0.1416
    1CHTO   H40  321   7.132   6.820   2.276  0.8451  0.0054 -0.0977
    1CHTO   O15  322   7.614   7.277   2.076  0.2960 -0.5283 -1.4344
    1CHTO   C19  323   7.607   7.270   1.931 -0.1981  0.1480  0.3786
    1CHTO   H47  324   7.653   7.368   1.909  0.9073 -0.5235 -0.3485
    1CHTO   C20  325   7.681   7.145   1.868  0.5589  0.4622  0.4242
    1CHTO   H48  326   7.638   7.052   1.907  0.6717  1.2112  2.4211
    1CHTO   O19  327   7.817   7.145   1.918 -0.0853  0.5396 -0.1750
    1CHTO   H35  328   7.827   7.089   1.993  1.2414 -0.0969 -0.8156
    1CHTO   C21  329   7.689   7.147   1.712  0.0030  0.0535  0.2983
    1CHTO   H49  330   7.762   7.225   1.690  0.3228 -0.3593 -0.1154
    1CHTO    N4  331   7.752   7.018   1.652  0.3155 -0.2821 -0.4257
    1CHTO   H41  332   7.851   7.011   1.694 -0.8123 -1.0113  2.1801
    1CHTO   H42  333   7.698   6.929   1.680  1.8281 -0.3527  2.4790
    1CHTO   C22  334   7.545   7.172   1.660 -0.1194 -0.4077  0.3446
    1CHTO   H50  335   7.479   7.092   1.691  0.5380 -0.4569  1.6394
    1CHTO   O14  336   7.497   7.296   1.719  0.3297  0.4121 -0.1692
    1CHTO   C23  337   7.470   7.269   1.857  0.7670 -0.5446 -0.2501
    1CHTO   H51  338   7.422   7.170   1.863 -2.2630  0.9254  0.4637
    1CHTO   C34  339   7.373   7.382   1.904  0.3860 -0.4525 -0.3044
    1CHTO   O23  340   7.240   7.372   1.844  0.0475  0.1232  0.4033
    1CHTO   H38  341   7.234   7.412   1.759 -0.0573  0.5377  0.6037
    1CHTO   O16  342   7.539   7.192   1.520  0.2140 -0.5263  0.7106
    1CHTO   C24  343   7.470   7.071   1.435 -0.6748 -0.3965 -0.4648
    1CHTO   H52  344   7.475   6.976   1.488 -3.9941  0.2027  1.0119
    1CHTO   C26  345   7.555   7.065   1.306 -0.3121 -0.2216 -0.1604
    1CHTO   H54  346   7.570   7.170   1.273 -1.6738  0.5788  1.6479
    1CHTO   O20  347   7.692   7.017   1.330  0.5159  0.2742 -0.7595
    1CHTO   H36  348   7.736   7.012   1.248 -0.6465 -1.0890 -1.3224
    1CHTO   C30  349   7.478   6.979   1.202 -0.8707 -0.4040  0.2780
    1CHTO   H58  350   7.487   6.872   1.227  1.4594 -0.5975 -1.2358
    1CHTO    N6  351   7.531   7.001   1.069  0.3431  0.1790  0.2245
    1CHTO   H45  352   7.476   7.080   1.021 -3.9340 -2.6973  0.1593
    1CHTO   H46  353   7.637   7.022   1.067  0.5214 -0.7740 -1.2143
    1CHTO   C33  354   7.323   6.999   1.207  0.3006  0.2093  0.1587
    1CHTO   H61  355   7.290   7.096   1.165 -1.1096  0.0286  0.8320
    1CHTO   O18  356   7.278   6.998   1.340  0.6362  0.3796 -0.2474
    1CHTO   C28  357   7.318   7.110   1.412 -0.9015 -0.2045  0.1985
    1CHTO   H56  358   7.305   7.202   1.356 -0.3987 -1.5680 -2.2373
    1CHTO   C35  359   7.238   7.111   1.546  0.1416  0.0431 -0.6818
    1CHTO   O24  360   7.110   7.166   1.525 -0.0828  0.1062 -0.5977
    1CHTO   H39  361   7.089   7.182   1.435  1.6627  0.4402 -0.9554
    1CHTO    O9  362   7.261   6.893   1.135  0.0038 -0.4725 -0.5559
    1CHTO   C13  363   7.135   6.934   1.049 -0.1075 -0.5860 -1.3523
    1CHTO   H26  364   7.164   7.030   1.001 -0.7777  0.1055 -0.4044
    1CHTO   C11  365   7.018   6.957   1.145  0.5987 -0.3651 -0.0133
    1CHTO   H24  366   7.036   7.058   1.187  0.6414 -0.5324  0.3754
    1CHTO    O8  367   7.009   6.856   1.247  0.0162  0.1123  0.5624
    1CHTO    H3  368   7.054   6.881   1.325  2.3604 -1.4168 -0.2161
    1CHTO    C9  369   6.896   6.974   1.049  0.2835  0.2401  0.0606
    1CHTO   H22  370   6.926   7.049   0.974 -1.4081  1.4378  0.5718
    1CHTO    N2  371   6.783   7.040   1.122  0.0266  0.0195  0.1448
    1CHTO   H10  372   6.754   6.980   1.207  0.9474 -1.6144 -0.6574
    1CHTO   H11  373   6.810   7.140   1.150  0.2523  0.3059 -1.0851
    1CHTO    C7  374   6.867   6.839   0.972  0.1692 -0.6902 -1.0543
    1CHTO   H20  375   6.832   6.864   0.869 -1.0496  0.1733 -0.4483
    1CHTO    O4  376   6.983   6.760   0.951  0.2689 -0.1807 -0.2385
    1CHTO   C14  377   7.109   6.825   0.934 -0.9017 -0.0075  0.1712
    1CHTO   H27  378   7.112   6.866   0.831 -0.7056  1.0309  0.5829
    1CHTO   C18  379   7.213   6.705   0.943 -0.3378 -0.7152  0.1761
    1CHTO   O13  380   7.219   6.646   0.815  0.3876 -0.5012  0.4957
    1CHTO    H7  381   7.288   6.583   0.818 -0.4976 -1.5159 -0.0316
    1CHTO    O2  382   6.760   6.756   1.049  0.3743 -0.1786 -0.2059
    1CHTO    C1  383   6.679   6.676   0.968  0.0840 -0.3040 -0.3520
    1CHTO   H14  384   6.742   6.654   0.879  1.3777  0.1111  0.4456
    1CHTO    C2  385   6.552   6.746   0.916 -0.1683  0.0389  0.0337
    1CHTO   H15  386   6.493   6.774   1.005 -0.2882  1.1614 -0.3941
    1CHTO    O6  387   6.570   6.873   0.847  0.2763  0.2362  0.0393
    1CHTO    H1  388   6.483   6.900   0.824 -1.0178 -1.8197  2.3284
    1CHTO    C3  389   6.465   6.642   0.828  0.2780 -0.1006  0.5778
    1CHTO   H16  390   6.523   6.624   0.736 -1.1729  0.3260 -0.4416
    1CHTO    N1  391   6.329   6.689   0.787  0.2459  0.2019  0.2367
    1CHTO    H8  392   6.252   6.617   0.812 -1.3879  1.0957 -2.0338
    1CHTO    H9  393   6.313   6.708   0.682 -1.7228 -0.8683  0.3098
    1CHTO    C4  394   6.465   6.497   0.896  0.6505  0.0874  0.1836
    1CHTO   H17  395   6.387   6.490   0.972  2.6161 -0.8675  2.1413
    1CHTO    O1  396   6.589   6.455   0.958 -0.4853 -0.1344 -0.0410
    1CHTO    C5  397   6.648   6.550   1.042  0.3734 -0.3142  0.4625
    1CHTO   H18  398   6.573   6.572   1.118 -1.0481 -0.9836 -0.7258
    1CHTO   C16  399   6.768   6.483   1.116  0.2467 -0.0159  0.5146
    1CHTO   O11  400   6.879   6.465   1.029  0.0519  0.1884 -0.0439
    1CHTO    H5  401   6.938   6.410   1.077  0.9673  0.8150 -0.4285
    1CHTO    O3  402   6.444   6.391   0.794  0.1354  0.2641 -0.2375
    1CHTO    C6  403   6.392   6.261   0.841 -0.3175  0.2570 -0.1596
    1CHTO   H19  404   6.401   6.251   0.949 -1.2891  2.1017  0.1143
    1CHTO    C8  405   6.233   6.262   0.808 -0.0907  0.2224 -0.3192
    1CHTO   H21  406   6.213   6.289   0.704 -0.3774 -0.3359 -0.4118
    1CHTO    O7  407   6.166   6.355   0.891 -1.0505 -0.0000 -0.1557
    1CHTO    H2  408   6.176   6.338   0.982 -2.4411 -0.5281 -0.0887
    1CHTO   C12  409   6.168   6.117   0.822 -0.0171 -0.3131 -0.2389
    1CHTO   H25  410   6.145   6.101   0.930 -0.4625  0.6094 -0.1907
    1CHTO    N3  411   6.035   6.115   0.752 -0.2842 -0.1715 -0.2231
    1CHTO   H12  412   5.963   6.179   0.800 -0.5615 -1.3725  1.0056
    1CHTO   H13  413   6.026   6.126   0.645  1.6408  3.2588 -0.0880
    1CHTO   C15  414   6.259   6.002   0.767 -0.1148  0.1330 -0.1364
    1CHTO   H28  415   6.263   5.990   0.659 -0.8437  2.8799 -0.5188
    1CHTO   O10  416   6.217   5.857   0.841 -0.1759 -0.3955  0.1592
    1CHTO    H4  417   6.124   5.866   0.847 -0.1891  0.3178 -0.8854
    1CHTO    O5  418   6.397   6.018   0.816  0.2619 -0.3437 -0.2743
    1CHTO   C10  419   6.459   6.138   0.775 -0.3402 -0.8216  0.1578
    1CHTO   H23  420   6.461   6.144   0.666  2.8527 -1.0761  0.1606
    1CHTO   C17  421   6.605   6.127   0.819  0.2801  0.2807  0.0176
    1CHTO   O12  422   6.688   6.088   0.710 -0.0081 -0.2074  0.1097
    1CHTO    H6  423   6.774   6.100   0.746  0.1565 -1.1854  0.0676
    2CHTO  H203  424   6.216   4.705   6.224 -0.5095 -0.4534 -0.7130
    2CHTO   O82  425   6.147   4.768   6.231 -0.2857 -0.2693 -0.1695
    2CHTO  C123  426   6.077   4.788   6.109  0.0718 -0.8766  0.1675
    2CHTO  H227  427   5.997   4.861   6.128  0.2144 -0.7894  0.4464
    2CHTO   O77  428   6.181   4.851   6.027  0.0259 -0.2318  0.3815
    2CHTO  C118  429   6.134   4.895   5.898 -0.0057 -0.5533 -1.0333
    2CHTO  H222  430   6.043   4.951   5.922  0.3671 -1.2156  2.1646
    2CHTO  C125  431   6.240   4.997   5.827 -0.4063  0.1196 -0.5353
    2CHTO   O84  432   6.370   4.932   5.826 -0.4889  0.2825 -0.0197
    2CHTO  H205  433   6.406   4.926   5.739 -1.3877  2.5361 -0.6015
    2CHTO  C114  434   6.096   4.769   5.818 -0.2478  0.2157  0.2681
    2CHTO  H218  435   6.188   4.710   5.818  0.3034  1.0507  2.3290
    2CHTO  C116  436   5.978   4.686   5.889 -0.6858  0.0937  0.3932
    2CHTO  H220  437   5.886   4.748   5.894 -1.5822 -1.0949 -1.1710
    2CHTO   O79  438   5.964   4.565   5.810 -0.0753 -0.3752 -0.4360
    2CHTO  H201  439   6.024   4.499   5.839 -1.5494 -0.6429  2.1602
    2CHTO  C120  440   6.021   4.661   6.041  0.1346  0.4765  0.6877
    2CHTO  H224  441   6.102   4.586   6.028 -0.7736 -0.3201 -0.4094
    2CHTO   N21  442   5.916   4.604   6.120 -0.3870  0.3165  0.0506
    2CHTO  H211  443   5.967   4.557   6.203 -1.7844 -1.8611 -0.2572
    2CHTO  H212  444   5.841   4.673   6.155 -0.1987  0.7882 -0.4684
    2CHTO   O75  445   6.065   4.810   5.685  0.0785 -0.0812  0.0389
    2CHTO  C112  446   5.943   4.921   5.659 -0.8485 -0.3346 -0.2984
    2CHTO  H216  447   5.976   5.009   5.716 -0.0726 -0.0783 -1.1390
    2CHTO   O73  448   5.824   4.865   5.710  0.1685  0.0397 -0.1413
    2CHTO  C113  449   5.714   4.962   5.702  0.5576  0.2777  0.2520
    2CHTO  H217  450   5.759   5.045   5.761 -1.4694  1.3970  0.2447
    2CHTO  C124  451   5.594   4.911   5.771 -0.2959  0.3853  0.3918
    2CHTO   O83  452   5.601   4.872   5.913  0.5014  0.0448  0.4607
    2CHTO  H204  453   5.643   4.941   5.960 -0.5445  2.1852 -1.5981
    2CHTO  C109  454   5.674   4.996   5.558  0.6791  0.0789  0.4294
    2CHTO  H213  455   5.630   4.905   5.515  0.5874  0.0696  0.5444
    2CHTO  C110  456   5.798   5.034   5.474  0.5527 -0.2500  0.1287
    2CHTO  H214  457   5.821   5.140   5.481 -3.0309  0.6890 -1.0525
    2CHTO   O78  458   5.763   5.019   5.336 -0.3912 -0.0082  0.3528
    2CHTO  H200  459   5.702   5.085   5.309  0.3723  0.8871  0.8337
    2CHTO  C111  460   5.921   4.948   5.508  0.6066 -0.3117  0.7210
    2CHTO  H215  461   5.904   4.848   5.464  0.4202  0.1222 -0.2114
    2CHTO   N19  462   6.045   4.996   5.447  0.5181 -0.2970  0.2507
    2CHTO  H207  463   6.124   4.925   5.465 -1.6691 -2.4550  1.6507
    2CHTO  H208  464   6.083   5.088   5.488 -1.4056 -0.1884  1.8852
    2CHTO   O74  465   5.582   5.105   5.559  0.1128 -0.5619 -0.0265
    2CHTO  C115  466   5.473   5.102   5.473  0.6801 -0.2030  0.2157
    2CHTO  H219  467   5.500   5.054   5.379  0.5975  1.1266 -0.5094
    2CHTO   O76  468   5.343   5.022   5.543 -0.4294 -0.0939  0.3592
    2CHTO  C122  469   5.304   5.103   5.661  0.2386 -0.4099  0.2963
    2CHTO  H226  470   5.392   5.118   5.724 -0.0680  0.1673  0.5879
    2CHTO  C126  471   5.196   5.030   5.755  0.4287 -0.1663  0.2398
    2CHTO   O85  472   5.073   4.999   5.691 -0.3619  0.2851 -0.3492
    2CHTO  H206  473   5.061   5.056   5.618 -2.0599  1.1627  0.5515
    2CHTO  C121  474   5.255   5.248   5.610  0.4673  1.1237 -0.0455
    2CHTO  H225  475   5.145   5.245   5.624  0.3188  1.5778 -1.0601
    2CHTO   O81  476   5.306   5.345   5.698  0.1422 -0.4577  0.4093
    2CHTO  H202  477   5.399   5.349   5.707 -0.2602  1.4490  5.2099
    2CHTO  C119  478   5.286   5.277   5.469 -0.3921  0.5660 -0.0153
    2CHTO  H223  479   5.224   5.211   5.408 -1.7767  1.4129  0.4400
    2CHTO  C117  480   5.438   5.255   5.440 -0.1016 -0.1281  0.7433
    2CHTO  H221  481   5.507   5.318   5.497  0.7299 -0.1397 -0.2342
    2CHTO   N20  482   5.465   5.289   5.293  0.6640  0.2439  0.5159
    2CHTO  H209  483   5.522   5.206   5.255  1.9361  1.0900  0.5425
    2CHTO  H210  484   5.507   5.389   5.288 -1.5333  1.2567  1.4472
    2CHTO   O80  485   5.234   5.424   5.433 -0.0161 -0.5134  0.0600
    2CHTO  C103  486   5.111   5.453   5.325 -0.0823  0.1151  0.4238
    2CHTO  H190  487   5.131   5.394   5.236 -1.1780 -0.9382  0.8581
    2CHTO  C101  488   4.966   5.424   5.386 -0.3958 -0.0667  0.0356
    2CHTO  H188  489   4.955   5.488   5.474 -0.3305 -0.1577  0.1088
    2CHTO   O68  490   4.954   5.259   5.434  0.0098  0.3673  0.0870
    2CHTO  H168  491   5.030   5.228   5.480 -1.0137 -1.3965  0.6472
    2CHTO   C99  492   4.845   5.464   5.297  0.5200  0.1289 -0.0859
    2CHTO  H186  493   4.849   5.395   5.210  0.5467 -2.0410  1.5923
    2CHTO   N17  494   4.709   5.451   5.353 -0.1578 -0.1525  0.1257
    2CHTO  H174  495   4.647   5.536   5.328 -0.5753 -1.0469 -1.9372
    2CHTO  H175  496   4.711   5.424   5.458  1.7124 -0.0549  0.1417
    2CHTO   C97  497   4.872   5.609   5.240  0.1357 -0.6036 -0.0863
    2CHTO  H184  498   4.857   5.673   5.328 -0.5412  0.2681 -0.8192
    2CHTO   O64  499   5.007   5.624   5.185 -0.1383  0.1749 -0.3734
    2CHTO  C104  500   5.119   5.603   5.276  0.0224  0.2636 -0.4971
    2CHTO  H191  501   5.113   5.671   5.361 -0.2780  0.7441 -0.9040
    2CHTO  C108  502   5.249   5.636   5.200  0.4996  0.1319 -0.2811
    2CHTO   O71  503   5.263   5.777   5.194  0.2728 -0.4394  0.4765
    2CHTO  H171  504   5.345   5.791   5.151  0.6933 -0.2842  1.3141
    2CHTO   O62  505   4.774   5.643   5.134  0.3772 -0.0658  0.3663
    2CHTO   C91  506   4.746   5.788   5.111  0.1329 -0.0179  0.1814
    2CHTO  H178  507   4.732   5.836   5.208 -3.1768 -0.8881  0.1912
    2CHTO   C92  508   4.613   5.799   5.034 -0.4993  0.0699 -0.0641
    2CHTO  H179  509   4.547   5.721   5.073 -0.2585  0.1281  0.4573
    2CHTO   O66  510   4.557   5.932   5.057 -0.0908  0.0832  0.8590
    2CHTO  H166  511   4.534   5.947   5.147 -2.8497 -0.1434  0.2291
    2CHTO   C93  512   4.620   5.784   4.871  0.1722 -0.9730  0.4908
    2CHTO  H180  513   4.533   5.827   4.820  0.2338 -0.7304  0.5876
    2CHTO   N16  514   4.615   5.640   4.836 -0.4854  0.1306 -0.6620
    2CHTO  H172  515   4.700   5.606   4.779  0.1349  2.5754 -1.2685
    2CHTO  H173  516   4.521   5.607   4.795 -1.4042  1.9831 -0.1365
    2CHTO   C94  517   4.752   5.853   4.826  0.1395  1.0515  0.4235
    2CHTO  H181  518   4.826   5.782   4.791 -3.3476 -1.3775 -2.4017
    2CHTO   O61  519   4.821   5.942   4.918  0.3311  0.3359 -0.7052
    2CHTO   C95  520   4.867   5.864   5.033  0.8889  0.0394 -0.1730
    2CHTO  H182  521   4.935   5.789   4.995 -0.9281 -0.9643 -1.5317
    2CHTO  C106  522   4.955   5.953   5.122 -0.5724 -0.2547 -0.1870
    2CHTO   O69  523   4.962   5.925   5.260  0.6734 -0.3312  0.0854
    2CHTO  H169  524   5.030   5.977   5.297  2.0808  0.0474 -2.8455
    2CHTO   O63  525   4.692   5.945   4.685  0.8799 -0.1412 -0.1747
    2CHTO   C96  526   4.621   6.087   4.733 -0.0630 -0.4450  0.5581
    2CHTO  H183  527   4.637   6.090   4.841  1.2173  2.1225  0.3434
    2CHTO   C98  528   4.465   6.098   4.701 -0.3361  0.6428 -0.1805
    2CHTO  H185  529   4.441   6.063   4.600  0.9187 -0.0659 -0.2348
    2CHTO   O67  530   4.387   6.024   4.794 -0.2145 -0.4924 -0.3664
    2CHTO  H167  531   4.295   6.026   4.775 -0.4617  2.2267  0.7879
    2CHTO  C102  532   4.414   6.252   4.699  0.4832 -0.0787  0.2476
    2CHTO  H189  533   4.437   6.295   4.797  0.0676 -0.0318  0.3275
    2CHTO   N18  534   4.271   6.277   4.677  0.0495 -0.2597  0.2172
    2CHTO  H176  535   4.230   6.240   4.584  1.5621  0.0413 -0.5838
    2CHTO  H177  536   4.219   6.221   4.753 -0.2066  1.8787  1.6387
    2CHTO  C105  537   4.507   6.327   4.597 -0.4139  0.4763  0.4437
    2CHTO  H192  538   4.466   6.331   4.496  1.0117 -0.4436 -0.1880
    2CHTO   O65  539   4.642   6.272   4.568  0.1402 -0.5119 -0.3420
    2CHTO  C100  540   4.703   6.205   4.677 -0.2630 -0.4097  0.6386
    2CHTO  H187  541   4.796   6.172   4.628  0.6215  2.2670  0.4596
    2CHTO  C107  542   4.741   6.303   4.784 -1.0326  0.4561  0.1226
    2CHTO   O70  543   4.840   6.245   4.870  0.5100  0.0373 -0.4190
    2CHTO  H170  544   4.819   6.159   4.900  1.7028  0.4257  1.6011
    2CHTO   O57  545   4.518   6.479   4.654  0.0488  0.3216  0.0510
    2CHTO   C85  546   4.525   6.588   4.563 -0.3795  0.1080  0.3591
    2CHTO  H157  547   4.433   6.570   4.503 -0.3769  1.3268 -0.0144
    2CHTO   C83  548   4.638   6.573   4.454  0.0646 -0.1056 -0.0125
    2CHTO  H155  549   4.609   6.485   4.397 -3.9281  0.3660  1.1203
    2CHTO   O56  550   4.758   6.566   4.525  0.9647  0.3947  0.2069
    2CHTO  H135  551   4.753   6.483   4.568 -1.0956  0.2699 -0.1783
    2CHTO   C81  552   4.630   6.698   4.365 -0.5570 -0.4231 -0.0626
    2CHTO  H153  553   4.529   6.699   4.323 -0.3900 -0.1492 -0.4689
    2CHTO   N14  554   4.711   6.688   4.244 -0.1665 -0.8781 -0.3682
    2CHTO  H141  555   4.695   6.769   4.176 -1.1499 -0.4670  0.3342
    2CHTO  H142  556   4.679   6.598   4.195  1.4648 -2.0753  0.7077
    2CHTO   C79  557   4.655   6.832   4.439  0.4277  0.1204 -0.8776
    2CHTO  H151  558   4.642   6.912   4.366  2.0441  0.2577 -1.0335
    2CHTO   O52  559   4.560   6.850   4.547 -0.1430  0.2280  0.1316
    2CHTO   C86  560   4.532   6.734   4.633 -0.0218  0.0414  0.1171
    2CHTO  H158  561   4.613   6.740   4.708 -1.2853 -1.0485  1.6209
    2CHTO   C90  562   4.396   6.754   4.705  0.1169 -0.3918 -0.2010
    2CHTO   O60  563   4.366   6.661   4.810  0.0443 -0.8209 -0.2619
    2CHTO  H138  564   4.379   6.698   4.895 -0.4227  0.6438 -0.8139
    2CHTO   O50  565   4.781   6.845   4.496  0.2442 -0.1237  0.1781
    2CHTO   C73  566   4.885   6.946   4.519  0.2132 -0.4140 -0.4491
    2CHTO  H145  567   4.847   7.045   4.491  0.1307 -0.3468 -0.1052
    2CHTO   C74  568   4.999   6.922   4.425 -0.5398 -0.3601  0.3949
    2CHTO  H146  569   4.957   6.914   4.323  1.4352  0.4311 -0.4976
    2CHTO   O54  570   5.080   7.043   4.428 -0.1631  0.4140  0.7371
    2CHTO  H133  571   5.125   7.040   4.510 -1.3837  1.8994  1.4954
    2CHTO   C75  572   5.079   6.793   4.460  0.0602  0.1127  0.4458
    2CHTO  H147  573   5.012   6.706   4.448 -0.8425  0.9326 -0.5846
    2CHTO   N13  574   5.190   6.764   4.372  0.4384  0.4467  0.1151
    2CHTO  H139  575   5.183   6.664   4.334  0.0197 -0.6595  3.0143
    2CHTO  H140  576   5.193   6.838   4.293 -0.5627  2.2453  1.7211
    2CHTO   C76  577   5.116   6.795   4.616 -0.0979  0.5418 -0.3718
    2CHTO  H148  578   5.197   6.865   4.636  1.5304 -0.9081 -1.7488
    2CHTO   O49  579   4.997   6.821   4.699  0.3102  0.5521 -0.2388
    2CHTO   C77  580   4.933   6.944   4.669  0.1626  0.1137  0.3095
    2CHTO  H149  581   4.990   7.034   4.691 -1.1967  0.8154  1.0146
    2CHTO   C88  582   4.813   6.953   4.769 -0.5375  0.8301  0.5100
    2CHTO   O58  583   4.882   6.984   4.915  0.4167  0.5206  0.0261
    2CHTO  H136  584   4.903   6.906   4.963  0.3144 -0.4875 -1.5084
    2CHTO   O51  585   5.169   6.644   4.673  0.1386  0.6274  0.2544
    2CHTO   C78  586   5.253   6.657   4.801  0.1557 -0.4376  0.0687
    2CHTO  H150  587   5.237   6.756   4.849  2.7896  1.1732 -2.2324
    2CHTO   C80  588   5.404   6.638   4.771  0.3105  0.1777 -0.4210
    2CHTO  H152  589   5.416   6.548   4.707 -0.7194 -0.1256 -0.1998
    2CHTO   O55  590   5.458   6.737   4.685 -0.1062  0.1434 -0.1659
    2CHTO  H134  591   5.410   6.816   4.670  0.2570  0.2831 -0.6007
    2CHTO   C84  592   5.492   6.632   4.901 -0.3719 -0.4046 -0.7158
    2CHTO  H156  593   5.494   6.730   4.948 -0.1453 -0.2607 -1.0206
    2CHTO   N15  594   5.640   6.601   4.881  0.7057 -0.1881 -0.3551
    2CHTO  H143  595   5.679   6.508   4.916 -0.5705 -0.2944  0.8508
    2CHTO  H144  596   5.679   6.623   4.784  1.5371 -1.0467 -0.2244
    2CHTO   C87  597   5.430   6.521   4.997 -0.2454  0.1989 -0.0905
    2CHTO  H159  598   5.450   6.427   4.947 -1.0545  0.3517 -0.7101
    2CHTO   O53  599   5.279   6.535   5.015  0.3538 -0.2241 -0.2780
    2CHTO   C82  600   5.203   6.546   4.888  0.1153  0.1295 -0.0675
    2CHTO  H154  601   5.220   6.453   4.834  0.0654 -0.0334  0.2001
    2CHTO   C89  602   5.052   6.555   4.910 -0.3340  0.1559 -0.6953
    2CHTO   O59  603   5.018   6.686   4.975  0.2311 -0.1809 -0.1298
    2CHTO  H137  604   4.932   6.715   4.952  1.1060  2.3086 -0.3390
    2CHTO   O45  605   5.494   6.539   5.150  0.2095  0.1940  0.2240
    2CHTO   C67  606   5.482   6.425   5.238  0.1484 -0.1555  0.0067
    2CHTO  H124  607   5.411   6.352   5.200  0.2756 -1.0011  1.3443
    2CHTO   C65  608   5.619   6.353   5.252 -0.8415 -0.0768 -0.2656
    2CHTO  H122  609   5.690   6.423   5.208 -0.2793  1.5652  3.0805
    2CHTO   O44  610   5.619   6.239   5.166 -0.2104 -0.2674 -0.0853
    2CHTO  H102  611   5.564   6.172   5.201  1.0777 -1.0786  0.4007
    2CHTO   C63  612   5.661   6.331   5.403  0.5012 -0.4102  0.9780
    2CHTO  H120  613   5.675   6.425   5.456  0.1428  0.5493 -0.6068
    2CHTO   N11  614   5.802   6.269   5.430  0.5121  0.2096 -0.2521
    2CHTO  H108  615   5.874   6.320   5.370 -0.9268 -0.5627 -2.7250
    2CHTO  H109  616   5.789   6.166   5.406 -0.8516  0.2927  0.0766
    2CHTO   C61  617   5.536   6.268   5.473  1.1184  0.4816 -0.4792
    2CHTO  H118  618   5.565   6.251   5.578  0.6196  0.4088 -0.3492
    2CHTO   O40  619   5.420   6.358   5.470 -0.3510 -0.3157  0.0173
    2CHTO   C68  620   5.422   6.472   5.379  0.2628  0.4677  0.6850
    2CHTO  H125  621   5.492   6.546   5.422  1.2722  0.6700 -1.2673
    2CHTO   C72  622   5.284   6.543   5.372 -0.5133 -0.0273 -0.4216
    2CHTO   O48  623   5.278   6.667   5.301  0.1170  0.3781  0.3038
    2CHTO  H105  624   5.188   6.696   5.302 -0.3430 -0.8637 -1.4673
    2CHTO   O38  625   5.501   6.142   5.419  0.5564 -0.0485  0.1707
    2CHTO   C55  626   5.442   6.043   5.504 -0.2510  0.0406  0.2480
    2CHTO  H112  627   5.418   6.092   5.599 -1.4699  0.3973 -0.2360
    2CHTO   C56  628   5.546   5.924   5.522  0.3542 -0.0321  0.1909
    2CHTO  H113  629   5.577   5.889   5.422 -0.5406 -0.8338  0.1756
    2CHTO   O42  630   5.662   5.978   5.592  0.1279 -0.0241 -0.6227
    2CHTO  H100  631   5.744   5.937   5.569  0.7795  0.9053  0.0089
    2CHTO   C57  632   5.477   5.811   5.602 -0.4753 -0.0617 -0.2632
    2CHTO  H114  633   5.487   5.840   5.706 -2.2724 -0.9579  0.1754
    2CHTO   N10  634   5.539   5.681   5.581  0.1575  0.0981 -0.5402
    2CHTO  H106  635   5.615   5.668   5.656  0.4449  0.8867 -0.6888
    2CHTO  H107  636   5.580   5.664   5.482 -0.3879 -0.0394 -0.7463
    2CHTO   C58  637   5.326   5.787   5.574  0.0849 -0.0400 -0.6336
    2CHTO  H115  638   5.318   5.725   5.482 -0.0803 -0.3152 -0.4323
    2CHTO   O37  639   5.249   5.906   5.547 -0.3465 -0.5290 -0.0143
    2CHTO   C59  640   5.302   5.990   5.447 -0.7695  0.7306  0.1822
    2CHTO  H116  641   5.314   5.933   5.355  2.3525 -0.4805  1.2624
    2CHTO   C70  642   5.196   6.099   5.430 -0.0035  0.0129 -0.3586
    2CHTO   O46  643   5.230   6.181   5.320  0.0467  0.4347  0.1100
    2CHTO  H103  644   5.201   6.147   5.237 -2.9977  0.6705  1.0231
    2CHTO   O39  645   5.255   5.696   5.702 -0.6481 -0.9117 -0.5391
    2CHTO   C60  646   5.114   5.714   5.736  0.6329  0.4120 -0.2395
    2CHTO  H117  647   5.064   5.766   5.655  0.2743 -1.4185 -1.2238
    2CHTO   C62  648   5.033   5.593   5.758 -0.9517  0.4804 -0.1981
    2CHTO  H119  649   5.041   5.524   5.670  1.6868  0.2328  0.1793
    2CHTO   O43  650   5.086   5.520   5.868 -0.3458 -0.3533 -0.0987
    2CHTO  H101  651   5.112   5.432   5.850 -4.5554 -1.5742 -0.8427
    2CHTO   C66  652   4.885   5.624   5.773 -0.3893 -0.2015 -0.9419
    2CHTO  H123  653   4.857   5.679   5.683 -1.0779 -1.0169 -1.2224
    2CHTO   N12  654   4.795   5.508   5.775 -0.0455  0.1479 -0.5898
    2CHTO  H110  655   4.730   5.512   5.689 -0.6199 -2.1445 -0.2933
    2CHTO  H111  656   4.860   5.423   5.764  0.1449  0.5295 -2.7615
    2CHTO   C69  657   4.869   5.717   5.900  0.5278  0.0307 -0.1088
    2CHTO  H126  658   4.880   5.651   5.989 -0.5666 -1.5925 -1.1709
    2CHTO   O41  659   4.964   5.834   5.916  0.6506  0.0142  0.3744
    2CHTO   C64  660   5.107   5.807   5.862 -0.5743  0.2546 -0.7142
    2CHTO  H121  661   5.149   5.752   5.948  0.6994  0.4738 -1.1773
    2CHTO   C71  662   5.194   5.940   5.849  0.4656 -0.6715  0.7841
    2CHTO   O47  663   5.128   6.033   5.770 -0.2233 -0.1941  0.0775
    2CHTO  H104  664   5.060   6.079   5.816  1.1580  1.5074  0.4216
    2CHTO   O34  665   4.704   5.779   5.913  0.3034 -0.6852 -0.2944
    2CHTO   C49  666   4.631   5.910   5.883 -0.2315  0.4443 -0.0110
    2CHTO   H91  667   4.580   5.942   5.974  2.9102  1.1551  1.5604
    2CHTO   C47  668   4.532   5.891   5.765 -0.2821  0.6402 -0.4142
    2CHTO   H89  669   4.483   5.990   5.772  0.8807  1.2828 -1.0525
    2CHTO   O33  670   4.445   5.781   5.803  0.0073  0.1013 -0.4277
    2CHTO   H70  671   4.500   5.707   5.818 -1.5762 -0.8176  1.0549
    2CHTO   C45  672   4.616   5.869   5.632  0.3679 -0.1325  0.5456
    2CHTO   H87  673   4.689   5.788   5.645  2.8835  2.3306  2.3781
    2CHTO    N8  674   4.526   5.836   5.514  0.0391 -0.2893 -0.2900
    2CHTO   H75  675   4.586   5.790   5.436  0.1153  2.2307 -1.7466
    2CHTO   H76  676   4.472   5.920   5.475 -2.9267 -0.8277  2.4310
    2CHTO   C43  677   4.714   5.990   5.604 -0.1224 -0.7863  0.0136
    2CHTO   H85  678   4.776   5.958   5.521 -0.0428  0.5452 -0.4397
    2CHTO   O29  679   4.789   6.032   5.719 -1.7588 -0.2371  0.4146
    2CHTO   C50  680   4.720   6.029   5.846 -1.2543 -0.5108  0.2556
    2CHTO   H92  681   4.787   6.028   5.933  0.4289  1.7448 -0.9556
    2CHTO   C54  682   4.656   6.172   5.862 -0.2981  0.5740  0.3805
    2CHTO   O36  683   4.744   6.281   5.882  0.0296  0.3349  0.1869
    2CHTO   H72  684   4.834   6.255   5.875 -0.2462 -0.0633 -1.9616
    2CHTO   O27  685   4.652   6.112   5.556  0.0361 -0.2889 -0.5256
    2CHTO   C37  686   4.705   6.188   5.447  0.3959 -0.4143 -0.1280
    2CHTO   H79  687   4.763   6.126   5.378  0.3615 -0.2162 -0.3370
    2CHTO   C38  688   4.594   6.239   5.352 -0.5829 -0.2601 -0.0565
    2CHTO   H80  689   4.520   6.299   5.407 -1.9861 -0.6198 -1.5204
    2CHTO   O31  690   4.530   6.119   5.303 -0.1128  0.2706 -0.2444
    2CHTO   H68  691   4.439   6.138   5.289  0.4103  1.9776 -1.6387
    2CHTO   C39  692   4.651   6.331   5.243  0.7335  0.0088 -0.8414
    2CHTO   H81  693   4.726   6.279   5.182 -0.1925  0.0921 -2.0697
    2CHTO    N7  694   4.533   6.360   5.147  0.1655 -0.6504 -0.1021
    2CHTO   H73  695   4.489   6.456   5.167  2.2334  0.1213  0.8757
    2CHTO   H74  696   4.561   6.341   5.044  1.3240  1.0287 -0.1214
    2CHTO   C40  697   4.720   6.450   5.313 -0.4798 -0.7503 -0.4918
    2CHTO   H82  698   4.648   6.498   5.379 -0.7664 -0.1391 -1.2428
    2CHTO   O26  699   4.834   6.406   5.392  0.0951 -0.0198  0.7742
    2CHTO   C41  700   4.795   6.307   5.489  0.3808 -0.1163 -0.6080
    2CHTO   H83  701   4.742   6.362   5.568  2.8436  1.3102  0.0934
    2CHTO   C52  702   4.914   6.262   5.566  0.4775 -0.5160  0.3287
    2CHTO   O35  703   4.988   6.382   5.620  0.1394  0.0553 -0.1800
    2CHTO   H71  704   4.926   6.451   5.635  2.0823  2.0959 -1.3633
    2CHTO   O28  705   4.763   6.556   5.225  0.4450 -0.2578  0.4885
    2CHTO   C42  706   4.759   6.693   5.268  0.1632  0.4865  0.2532
    2CHTO   H84  707   4.823   6.737   5.192  0.6908 -2.4750 -1.0959
    2CHTO   C44  708   4.819   6.725   5.412 -0.1071 -0.0555  0.0935
    2CHTO   H86  709   4.759   6.671   5.485  0.3464 -0.5163  0.1275
    2CHTO   O32  710   4.955   6.684   5.411 -1.0076  0.4852  0.1438
    2CHTO   H69  711   4.991   6.688   5.497 -0.5069 -2.7297  0.1427
    2CHTO   C48  712   4.811   6.877   5.455 -0.3376  0.3620 -0.0014
    2CHTO   H90  713   4.883   6.923   5.387 -0.3879 -0.2879 -0.4976
    2CHTO    N9  714   4.860   6.899   5.601 -0.2478  0.4961  0.0187
    2CHTO   H77  715   4.839   7.004   5.617  2.7396  1.0192  0.7770
    2CHTO   H78  716   4.813   6.826   5.665  0.6222  1.3315  1.6269
    2CHTO   C51  717   4.658   6.915   5.433  0.2161 -0.6387 -0.0160
    2CHTO   H93  718   4.610   6.844   5.501  1.3087 -2.6716 -1.3045
    2CHTO   O30  719   4.618   6.892   5.299 -0.4888 -0.7092  0.1679
    2CHTO   C46  720   4.615   6.760   5.260 -1.1524 -0.5708  0.4724
    2CHTO   H88  721   4.550   6.709   5.332  0.2409 -0.8799  1.5377
    2CHTO   C53  722   4.550   6.761   5.118  0.4115  0.0702 -0.6123
    2CHTO   O72  723   4.622   6.833   5.015 -0.5014  0.9867 -0.2824
    2CHTO  H199  724   4.669   6.906   5.052 -0.6538  0.0776  1.7861
    2CHTO   O22  725   4.633   7.048   5.470 -0.0708  0.5780 -0.6803
    2CHTO   C31  726   4.500   7.093   5.517  0.1719 -0.2482 -0.2245
    2CHTO   H59  727   4.504   7.201   5.540 -1.7152 -0.1649 -0.1704
    2CHTO   C29  728   4.392   7.077   5.409 -0.0048 -0.4035 -0.0474
    2CHTO   H57  729   4.402   6.976   5.367  4.2343  0.6737 -1.8397
    2CHTO   O21  730   4.419   7.163   5.298 -0.2576 -0.4066  0.1074
    2CHTO   H37  731   4.464   7.239   5.329 -1.4864 -0.0547  1.0445
    2CHTO   C27  732   4.246   7.098   5.469 -0.8300  0.0601 -0.3524
    2CHTO   H55  733   4.232   7.205   5.488  0.6650  0.3404 -0.7794
    2CHTO    N5  734   4.148   7.053   5.364 -0.0304 -0.6845  0.0057
    2CHTO   H43  735   4.059   7.114   5.366  0.5162  0.2030 -1.5341
    2CHTO   H44  736   4.196   7.040   5.268  0.1709 -0.4143  0.0703
    2CHTO   C25  737   4.232   7.016   5.606  0.6041 -0.0819 -0.4099
    2CHTO   H53  738   4.267   6.915   5.580 -0.8860 -0.7640  0.1624
    2CHTO   O17  739   4.332   7.061   5.696 -0.2757  0.0418  0.6681
    2CHTO   C32  740   4.463   7.023   5.652 -0.0661 -0.1528 -0.2617
    2CHTO   H60  741   4.471   6.915   5.636 -0.0493 -0.0078 -1.3029
    2CHTO   C36  742   4.565   7.049   5.760 -0.4221  0.9057 -0.4292
    2CHTO   O25  743   4.516   6.986   5.881 -0.1615  0.0562  0.8724
    2CHTO   H40  744   4.570   6.909   5.887  0.2428  0.3857  1.5082
    2CHTO   O15  745   4.116   7.023   5.660  0.0759 -0.5597  1.0538
    2CHTO   C19  746   4.045   6.975   5.776 -0.1002 -0.6576 -0.0913
    2CHTO   H47  747   3.941   7.004   5.755 -0.2045 -1.4165 -0.6283
    2CHTO   C20  748   4.048   6.822   5.793  0.3571 -0.4245  0.2841
    2CHTO   H48  749   4.152   6.788   5.811  0.7282 -1.4842 -3.3907
    2CHTO   O19  750   3.999   6.766   5.675  0.1387 -0.3006 -0.1961
    2CHTO   H35  751   4.053   6.694   5.649 -0.2108 -1.2087  1.5082
    2CHTO   C21  752   3.952   6.781   5.918 -0.4548 -0.6067  0.3102
    2CHTO   H49  753   3.851   6.817   5.900 -0.4833  1.6615  4.5258
    2CHTO    N4  754   3.950   6.637   5.944 -0.3367 -0.0446  0.4706
    2CHTO   H41  755   3.879   6.614   6.022  0.8967 -0.7107  1.4027
    2CHTO   H42  756   3.924   6.579   5.857  0.7168  0.8149 -0.4256
    2CHTO   C22  757   3.997   6.863   6.040 -0.4764 -0.2062  0.0265
    2CHTO   H50  758   4.096   6.826   6.066  0.2197  0.3082 -1.8163
    2CHTO   O14  759   4.007   7.010   6.017  0.0804 -0.5937  0.2100
    2CHTO   C23  760   4.087   7.054   5.907  0.2331  0.4147  0.1514
    2CHTO   H51  761   4.189   7.027   5.940 -0.6231 -1.9349  0.9441
    2CHTO   C34  762   4.055   7.202   5.877 -0.2931 -0.1702 -0.1413
    2CHTO   O23  763   4.073   7.305   5.981 -0.2860 -0.1914  0.6764
    2CHTO   H38  764   4.117   7.380   5.946 -0.1391 -1.0378 -0.9858
    2CHTO   O16  765   3.905   6.848   6.152 -0.3399 -0.1632 -0.0527
    2CHTO   C24  766   3.977   6.901   6.290 -0.0069 -0.5174  0.2594
    2CHTO   H52  767   4.068   6.959   6.270 -1.3984  1.6554  0.0432
    2CHTO   C26  768   4.028   6.782   6.377  0.5971 -0.5004  0.2217
    2CHTO   H54  769   3.946   6.708   6.387 -0.8424  1.3576  2.2587
    2CHTO   O20  770   4.131   6.717   6.304 -0.9458  0.6218  0.1899
    2CHTO   H36  771   4.211   6.765   6.310 -0.5202 -0.1300  0.5582
    2CHTO   C30  772   4.079   6.821   6.517 -0.6796 -0.3358  0.1957
    2CHTO   H58  773   4.180   6.865   6.504  0.2014 -1.2667  3.3181
    2CHTO    N6  774   4.098   6.701   6.607 -0.1669  0.2151  0.8208
    2CHTO   H45  775   4.168   6.629   6.568 -0.9624 -0.1185 -0.0113
    2CHTO   H46  776   4.124   6.732   6.707  0.6080  0.9477  0.4023
    2CHTO   C33  777   3.996   6.941   6.583 -0.2871  0.4663 -0.3085
    2CHTO   H61  778   3.906   6.895   6.627  0.4775  1.1572  2.0552
    2CHTO   O18  779   3.952   7.042   6.485 -0.1959 -0.0573 -0.8148
    2CHTO   C28  780   3.880   6.989   6.374 -0.7216 -0.3659 -1.0086
    2CHTO   H56  781   3.797   6.928   6.408  0.8800 -1.3325  1.2619
    2CHTO   C35  782   3.817   7.100   6.287 -0.8965 -0.3774 -0.0450
    2CHTO   O24  783   3.915   7.199   6.245 -1.0177 -0.0314  0.4897
    2CHTO   H39  784   3.869   7.277   6.269  0.5877  1.0218  0.2464
    2CHTO    O9  785   4.066   6.999   6.695  0.1642 -0.8052 -0.5350
    2CHTO   C13  786   3.955   7.100   6.797  0.1013 -0.7007  0.1922
    2CHTO   H26  787   3.852   7.078   6.760  0.0566 -0.6502  0.2866
    2CHTO   C11  788   3.987   7.258   6.777 -0.3494 -0.0113 -0.5831
    2CHTO   H24  789   3.924   7.302   6.698 -3.1334 -1.5237  0.7110
    2CHTO    O8  790   4.121   7.273   6.741  0.0322 -0.2226 -0.2324
    2CHTO    H3  791   4.181   7.237   6.804  0.0481 -1.6885 -1.0510
    2CHTO    C9  792   3.946   7.330   6.914  0.6282  0.0516  0.4054
    2CHTO   H22  793   3.839   7.307   6.932  0.9439  2.0510  5.6053
    2CHTO    N2  794   3.952   7.476   6.903 -0.3447 -0.0493 -0.0588
    2CHTO   H10  795   3.862   7.526   6.938 -0.3024  1.2898 -1.8459
    2CHTO   H11  796   4.050   7.503   6.940 -0.0730  0.5183 -1.1680
    2CHTO    C7  797   4.017   7.270   7.042 -0.4626 -1.2159 -0.2240
    2CHTO   H20  798   3.940   7.290   7.119  0.9082 -1.2782  1.1980
    2CHTO    O4  799   4.041   7.129   7.041  0.2169 -0.4602 -0.2636
    2CHTO   C14  800   3.953   7.059   6.949  0.1541  0.4364 -0.7931
    2CHTO   H27  801   3.849   7.081   6.982 -0.0666 -1.9714  0.2294
    2CHTO   C18  802   3.975   6.907   6.984 -0.7677 -0.9180  0.5882
    2CHTO   O13  803   3.924   6.810   6.889  0.5145  0.0712  0.6989
    2CHTO    H7  804   3.832   6.809   6.908  0.1805 -0.9148 -0.8274
    2CHTO    O2  805   4.170   7.345   7.077 -0.1950 -0.0780 -0.2039
    2CHTO    C1  806   4.182   7.377   7.216  0.5681  0.3989  0.7181
    2CHTO   H14  807   4.117   7.308   7.274 -0.6010  1.2060  0.3987
    2CHTO    C2  808   4.153   7.525   7.267  0.1801  0.3139 -0.2090
    2CHTO   H15  809   4.208   7.590   7.198 -1.0905 -0.9980 -2.5050
    2CHTO    O6  810   4.010   7.552   7.246 -0.2878 -0.6645  0.1838
    2CHTO    H1  811   3.998   7.612   7.175  1.3517 -0.7114 -0.1600
    2CHTO    C3  812   4.206   7.539   7.427  0.1579 -0.3194  0.5437
    2CHTO   H16  813   4.144   7.467   7.484  1.3776 -2.0642 -0.2669
    2CHTO    N1  814   4.191   7.672   7.477 -0.2645  0.4904  0.8308
    2CHTO    H8  815   4.086   7.693   7.491 -0.4210  0.4466 -0.2300
    2CHTO    H9  816   4.235   7.678   7.575 -1.1928  1.5023  1.2002
    2CHTO    C4  817   4.348   7.487   7.438  0.1437  0.9878 -0.0928
    2CHTO   H17  818   4.412   7.555   7.381  0.6342  0.4155 -0.2268
    2CHTO    O1  819   4.369   7.352   7.385  0.2521 -0.1185 -0.7276
    2CHTO    C5  820   4.330   7.329   7.250 -0.3857 -0.2865 -0.0689
    2CHTO   H18  821   4.397   7.383   7.183 -1.9026 -0.4930 -1.8058
    2CHTO   C16  822   4.350   7.176   7.222 -0.5291  0.2730  0.2041
    2CHTO   O11  823   4.260   7.098   7.289  0.1907 -0.4642 -0.4492
    2CHTO    H5  824   4.296   7.068   7.370 -0.5433 -0.5841 -0.1638
    2CHTO    O3  825   4.373   7.477   7.583 -0.2661  0.1914  0.0070
    2CHTO    C6  826   4.508   7.495   7.635  0.7609  0.1995 -0.0848
    2CHTO   H19  827   4.586   7.475   7.562 -0.4751  0.5992 -1.5307
    2CHTO    C8  828   4.505   7.644   7.692  0.3561  0.9235 -0.0426
    2CHTO   H21  829   4.417   7.656   7.755  0.0634 -2.3867  0.2504
    2CHTO    O7  830   4.490   7.731   7.573  0.9660 -0.4289 -0.3808
    2CHTO    H2  831   4.413   7.712   7.523  1.1450  1.0620 -1.2356
    2CHTO   C12  832   4.640   7.673   7.780 -0.3589 -0.5142 -0.3205
    2CHTO   H25  833   4.731   7.668   7.717 -0.1750  1.2778 -0.2368
    2CHTO    N3  834   4.633   7.812   7.832 -0.2925 -0.6379  0.1293
    2CHTO   H12  835   4.534   7.821   7.874  0.6939  2.2664  2.0042
    2CHTO   H13  836   4.702   7.847   7.907  0.4389 -0.3517 -0.6754
    2CHTO   C15  837   4.656   7.568   7.895  0.5073  1.3520 -0.0129
    2CHTO   H28  838   4.577   7.576   7.970  0.3659  0.3607 -0.0537
    2CHTO   O10  839   4.792   7.565   7.968 -0.0945 -0.2189 -0.5811
    2CHTO    H4  840   4.784   7.523   8.052  2.1969  1.2273  0.3933
    2CHTO    O5  841   4.650   7.432   7.841 -0.5261  0.0900  0.0705
    2CHTO   C10  842   4.533   7.400   7.756 -0.3846  0.2049 -1.2504
    2CHTO   H23  843   4.444   7.415   7.817 -1.4484  0.7777 -2.9091
    2CHTO   C17  844   4.538   7.252   7.716  0.2023  0.1672 -0.9805
    2CHTO   O12  845   4.429   7.189   7.640 -0.2151  0.5886  0.5574
    2CHTO    H6  846   4.368   7.142   7.694  1.2393  0.5288  2.1840
    3CHTO  H203  847   6.171   3.538   3.467  1.2022  1.3152  0.6777
    3CHTO   O82  848   6.171   3.570   3.379 -0.5112  0.4952  0.3560
    3CHTO  C123  849   6.106   3.490   3.279 -0.4925 -0.0937  0.5048
    3CHTO  H227  850   6.004   3.463   3.309 -0.6883  0.2740  0.1650
    3CHTO   O77  851   6.115   3.589   3.176 -0.1411 -0.2295  0.1791
    3CHTO  C118  852   6.037   3.554   3.058  0.3944 -0.4223 -0.2511
    3CHTO  H222  853   5.941   3.511   3.089 -0.5512  1.9121  0.1291
    3CHTO  C125  854   6.006   3.692   2.979 -0.0279  0.0894  0.0390
    3CHTO   O84  855   6.120   3.744   2.910  0.4072  0.3716 -0.7096
    3CHTO  H205  856   6.121   3.716   2.820  0.0825 -1.7789 -0.0751
    3CHTO  C114  857   6.126   3.455   2.981 -0.2126 -0.5114  0.1501
    3CHTO  H218  858   6.215   3.510   2.951 -0.8240 -0.2656 -1.2866
    3CHTO  C116  859   6.156   3.338   3.073  1.2032 -0.0578 -0.4010
    3CHTO  H220  860   6.066   3.272   3.076  1.4080 -0.4413 -2.1290
    3CHTO   O79  861   6.251   3.252   3.010  0.3301 -0.6550  0.5555
    3CHTO  H201  862   6.339   3.284   3.009  1.0225 -2.3796 -3.6454
    3CHTO  C120  863   6.207   3.375   3.218  0.5078 -0.1354  0.3461
    3CHTO  H224  864   6.302   3.429   3.199 -1.1510  3.5340  1.9387
    3CHTO   N21  865   6.221   3.261   3.307  0.0370 -0.4735 -0.4041
    3CHTO  H211  866   6.201   3.293   3.409 -0.7781 -0.4939 -0.5535
    3CHTO  H212  867   6.150   3.183   3.283  0.2012 -0.7438 -0.0120
    3CHTO   O75  868   6.054   3.429   2.858 -0.1558  0.2204 -0.0993
    3CHTO  C112  869   6.119   3.339   2.749 -0.4739 -0.0083 -0.1139
    3CHTO  H216  870   6.120   3.232   2.775 -0.6755 -0.5515 -2.2740
    3CHTO   O73  871   6.252   3.389   2.730 -0.7523  0.0204 -0.3566
    3CHTO  C113  872   6.340   3.316   2.645 -0.2691 -0.1648 -0.1549
    3CHTO  H217  873   6.337   3.215   2.691 -2.6843 -0.1055 -0.1356
    3CHTO  C124  874   6.478   3.380   2.648 -0.3186  0.5268  0.2266
    3CHTO   O83  875   6.528   3.397   2.786 -0.1623 -0.2770  0.3358
    3CHTO  H204  876   6.465   3.437   2.843 -0.5966  0.0545 -0.3692
    3CHTO  C109  877   6.285   3.319   2.504  0.6152 -0.5988  0.5104
    3CHTO  H213  878   6.307   3.422   2.470  0.8994 -0.8068  0.0526
    3CHTO  C110  879   6.129   3.288   2.495  0.1699  0.0231  0.1179
    3CHTO  H214  880   6.110   3.181   2.499  1.4636 -0.1656  1.6069
    3CHTO   O78  881   6.084   3.329   2.367 -0.0087  0.0592  0.0307
    3CHTO  H200  882   6.145   3.299   2.302 -0.7935 -1.8985  0.1535
    3CHTO  C111  883   6.048   3.357   2.607  0.3581  0.2567  0.2820
    3CHTO  H215  884   6.048   3.466   2.589  0.5019  0.3377  0.7636
    3CHTO   N19  885   5.905   3.312   2.610  0.1562  0.1022  0.4605
    3CHTO  H207  886   5.858   3.366   2.690 -3.3149 -0.9215 -0.7712
    3CHTO  H208  887   5.870   3.342   2.512  3.0623  0.5342 -0.4884
    3CHTO   O74  888   6.366   3.223   2.423  0.1073  0.3591 -0.2453
    3CHTO  C115  889   6.462   3.287   2.311 -1.0088  0.6201  0.8225
    3CHTO  H219  890   6.475   3.395   2.326 -0.5874  0.3121  2.7265
    3CHTO   O76  891   6.612   3.220   2.315 -0.2446  1.0109 -0.4224
    3CHTO  C122  892   6.605   3.080   2.308 -0.3385  0.6371 -0.4313
    3CHTO  H226  893   6.584   3.040   2.408 -0.9225 -0.0423 -0.8202
    3CHTO  C126  894   6.748   3.018   2.275 -0.3398  0.0020 -0.2944
    3CHTO   O85  895   6.752   2.876   2.325  0.3005  0.1832 -0.2488
    3CHTO  H206  896   6.751   2.811   2.257  1.6497  0.8158 -0.9144
    3CHTO  C121  897   6.503   3.030   2.203  0.0286 -0.3594 -0.3837
    3CHTO  H225  898   6.553   2.949   2.146  1.2502 -0.0369  0.2221
    3CHTO   O81  899   6.386   2.971   2.265  0.0784 -0.2183 -0.3258
    3CHTO  H202  900   6.338   3.041   2.306  1.2390  0.0753  0.5313
    3CHTO  C119  901   6.458   3.137   2.103  0.0541  0.2683 -0.0318
    3CHTO  H223  902   6.553   3.180   2.070 -0.4902  0.3453 -1.5240
    3CHTO  C117  903   6.381   3.255   2.178 -0.4062 -1.0168  0.3716
    3CHTO  H221  904   6.277   3.233   2.202 -0.2889  0.1032  2.0628
    3CHTO   N20  905   6.370   3.371   2.076 -0.0449  0.2321 -0.3578
    3CHTO  H209  906   6.442   3.450   2.088 -1.2352  1.2352  0.3166
    3CHTO  H210  907   6.376   3.331   1.976 -1.1610  2.2436 -1.2484
    3CHTO   O80  908   6.395   3.081   1.968  0.0230 -0.2445 -0.1890
    3CHTO  C103  909   6.295   2.948   1.972  0.2075  0.9645 -0.3797
    3CHTO  H190  910   6.306   2.882   2.058 -0.4172  0.5186 -0.6398
    3CHTO  C101  911   6.138   2.977   1.960  0.1892  0.3059 -0.1238
    3CHTO  H188  912   6.136   3.033   1.866 -3.0037  2.3475  1.0851
    3CHTO   O68  913   6.083   3.062   2.075 -0.5604 -0.4085  0.6145
    3CHTO  H168  914   5.996   3.089   2.055  0.7069  0.8759 -3.8044
    3CHTO   C99  915   6.062   2.833   1.924  0.6477 -0.0901  0.4320
    3CHTO  H186  916   6.079   2.771   2.014 -0.1840  1.0975  1.4218
    3CHTO   N17  917   5.920   2.839   1.901 -0.7686  0.2220 -0.2323
    3CHTO  H174  918   5.903   2.914   1.824  1.6585  0.0533 -0.9691
    3CHTO  H175  919   5.867   2.846   1.995  0.2437  0.6729  0.3116
    3CHTO   C97  920   6.140   2.767   1.804  0.0807  0.3867  0.5529
    3CHTO  H184  921   6.133   2.824   1.710 -1.1277  0.0985  0.4617
    3CHTO   O64  922   6.279   2.742   1.845 -0.3322 -0.1170 -0.3893
    3CHTO  C104  923   6.350   2.866   1.855  0.2600  0.6154 -0.7959
    3CHTO  H191  924   6.338   2.922   1.763  0.5509  2.0189 -0.0003
    3CHTO  C108  925   6.500   2.827   1.864  0.1947 -0.3755 -0.5062
    3CHTO   O71  926   6.555   2.723   1.786 -0.1824 -0.1071 -0.4324
    3CHTO  H171  927   6.509   2.643   1.801 -0.3481 -0.2295 -1.5088
    3CHTO   O62  928   6.100   2.628   1.799 -0.1288 -0.0241  0.6903
    3CHTO   C91  929   6.083   2.561   1.668  0.3828  0.1909 -0.5419
    3CHTO  H178  930   6.010   2.622   1.614 -1.5161 -1.0395  0.5867
    3CHTO   C92  931   6.021   2.429   1.701  0.7633 -0.2975  0.1909
    3CHTO  H179  932   6.088   2.359   1.752 -0.0926 -0.5753  0.9537
    3CHTO   O66  933   5.914   2.446   1.797 -0.0439 -0.0243  0.0215
    3CHTO  H166  934   5.842   2.474   1.745  0.4645  0.1942 -0.5696
    3CHTO   C93  935   5.971   2.359   1.562  1.0309  0.4941 -0.3932
    3CHTO  H180  936   5.873   2.399   1.534 -0.0844 -2.0420 -0.3227
    3CHTO   N16  937   5.946   2.212   1.580 -0.2361 -0.1903  0.7365
    3CHTO  H172  938   5.854   2.203   1.637 -0.6403  2.5810  0.6193
    3CHTO  H173  939   5.927   2.169   1.482  1.2143 -1.0250  0.8175
    3CHTO   C94  940   6.076   2.384   1.448 -0.2252 -0.1169 -0.1898
    3CHTO  H181  941   6.093   2.295   1.389 -0.0931  1.7863 -3.1239
    3CHTO   O61  942   6.204   2.413   1.507  0.3501  0.4307  0.3429
    3CHTO   C95  943   6.219   2.529   1.583 -0.1203  0.3052 -0.1677
    3CHTO  H182  944   6.293   2.513   1.662  0.0307  2.3037  0.1325
    3CHTO  C106  945   6.274   2.661   1.509 -0.2442 -0.8795 -0.1781
    3CHTO   O69  946   6.192   2.718   1.407  0.5789 -0.2841  0.2124
    3CHTO  H169  947   6.200   2.810   1.416 -0.6207 -0.1970  0.5221
    3CHTO   O63  948   6.028   2.486   1.344  0.3693 -0.4364  0.3004
    3CHTO   C96  949   5.877   2.458   1.270  0.1451 -0.8396  0.5675
    3CHTO  H183  950   5.792   2.453   1.339  0.5278  2.7393  1.3630
    3CHTO   C98  951   5.875   2.337   1.181 -0.5335 -0.6596 -0.2682
    3CHTO  H185  952   5.965   2.336   1.117  0.2905 -0.0810  0.8517
    3CHTO   O67  953   5.882   2.222   1.258 -0.2776 -0.2317  0.1345
    3CHTO  H167  954   5.953   2.228   1.319 -0.1627 -3.5522  0.4155
    3CHTO  C102  955   5.745   2.322   1.077  0.2094  0.0911 -0.1975
    3CHTO  H189  956   5.658   2.308   1.143  1.0404  0.7516  1.0643
    3CHTO   N18  957   5.747   2.207   0.988  0.6761 -0.4262  0.0894
    3CHTO  H176  958   5.715   2.120   1.042 -1.0325  0.4006  0.4370
    3CHTO  H177  959   5.850   2.194   0.957  1.4412 -0.8528  2.7048
    3CHTO  C105  960   5.716   2.461   1.020  0.4551 -0.0667 -0.7487
    3CHTO  H192  961   5.788   2.486   0.942  2.3783  0.1879  1.0538
    3CHTO   O65  962   5.716   2.571   1.110 -0.8308 -0.1269 -0.1325
    3CHTO  C100  963   5.838   2.586   1.187 -0.1167  0.7215  0.0939
    3CHTO  H187  964   5.926   2.600   1.123  0.4269  0.1234  0.6911
    3CHTO  C107  965   5.815   2.711   1.271 -0.0820 -0.5176  0.3220
    3CHTO   O70  966   5.927   2.762   1.343  0.2931 -0.2561 -0.2121
    3CHTO  H170  967   5.994   2.807   1.295  0.7215  1.7922  2.2081
    3CHTO   O57  968   5.575   2.448   0.952  0.1666  0.4755 -0.5415
    3CHTO   C85  969   5.537   2.519   0.832  0.0602  0.2778 -0.4078
    3CHTO  H157  970   5.594   2.466   0.752  3.1485 -0.5463  2.2501
    3CHTO   C83  971   5.589   2.664   0.834 -0.3034 -0.4532  0.6543
    3CHTO  H155  972   5.697   2.653   0.822 -0.6137 -0.9405 -1.9722
    3CHTO   O56  973   5.552   2.723   0.958  0.3355 -0.0589  1.1444
    3CHTO  H135  974   5.572   2.815   0.961  1.1735 -0.1831 -0.1027
    3CHTO   C81  975   5.536   2.737   0.712  0.8583  0.3618 -0.2224
    3CHTO  H153  976   5.570   2.686   0.622  2.1300  0.7523  0.0262
    3CHTO   N14  977   5.596   2.870   0.689  0.2326 -0.1118 -0.2754
    3CHTO  H141  978   5.689   2.856   0.740 -1.2437 -3.6415  1.6983
    3CHTO  H142  979   5.617   2.890   0.586 -1.2143  2.1226 -0.1770
    3CHTO   C79  980   5.375   2.738   0.713  0.1274  0.2182  0.0854
    3CHTO  H151  981   5.344   2.779   0.617 -1.6669  0.4133  0.7128
    3CHTO   O52  982   5.325   2.600   0.706  0.1327  0.5140 -0.3890
    3CHTO   C86  983   5.377   2.513   0.811 -0.1313 -0.8642 -0.4136
    3CHTO  H158  984   5.328   2.554   0.902 -1.7751 -1.6946 -0.8971
    3CHTO   C90  985   5.315   2.374   0.784 -1.2540 -0.7650 -0.3580
    3CHTO   O60  986   5.390   2.271   0.857 -0.0596 -0.0098  0.4624
    3CHTO  H138  987   5.483   2.275   0.851 -0.0358 -1.3170 -0.2993
    3CHTO   O50  988   5.313   2.803   0.822  0.0138 -0.6351  0.1315
    3CHTO   C73  989   5.189   2.877   0.814 -0.4393 -0.2869  0.2256
    3CHTO  H145  990   5.122   2.843   0.734  1.4292  0.9847 -1.9454
    3CHTO   C74  991   5.218   3.027   0.777 -0.5916 -0.4045 -0.9609
    3CHTO  H146  992   5.275   3.009   0.685 -0.9884 -1.3236 -1.0251
    3CHTO   O54  993   5.093   3.096   0.752 -0.5347  0.7685  0.0995
    3CHTO  H133  994   5.112   3.172   0.700 -1.1847 -0.0236 -1.3526
    3CHTO   C75  995   5.314   3.080   0.896  0.5451 -0.5922 -0.2396
    3CHTO  H147  996   5.409   3.025   0.885  1.4305  0.9449 -0.4438
    3CHTO   N13  997   5.356   3.224   0.884 -0.2335 -0.3114 -0.1703
    3CHTO  H139  998   5.269   3.284   0.905  0.7221  0.9161  0.3647
    3CHTO  H140  999   5.388   3.232   0.781 -0.8156  0.8073 -0.2770
    3CHTO   C76 1000   5.246   3.051   1.039  0.4075 -0.4018 -0.6271
    3CHTO  H148 1001   5.161   3.118   1.033  1.9051  1.6050  0.2457
    3CHTO   O49 1002   5.206   2.914   1.053 -0.6416 -0.2481  0.7605
    3CHTO   C77 1003   5.123   2.871   0.952  0.1610 -0.9861  0.0507
    3CHTO  H149 1004   5.034   2.935   0.955  0.9906  0.0889  3.7236
    3CHTO   C88 1005   5.076   2.728   0.989  0.2926 -0.0550 -0.1278
    3CHTO   O58 1006   4.981   2.665   0.896  0.3042  0.3708 -0.6459
    3CHTO  H136 1007   4.891   2.680   0.915 -0.3143 -1.3764 -2.0912
    3CHTO   O51 1008   5.357   3.067   1.168  0.0367  0.4354  0.0550
    3CHTO   C78 1009   5.300   3.077   1.318  0.7538  0.1915  0.4194
    3CHTO  H150 1010   5.214   3.008   1.328  0.7656  0.3244  1.5158
    3CHTO   C80 1011   5.263   3.222   1.350  0.3227  0.3769  0.2122
    3CHTO  H152 1012   5.351   3.287   1.332 -0.7972  1.2822 -2.1157
    3CHTO   O55 1013   5.162   3.256   1.256 -0.2928  0.0940 -0.4192
    3CHTO  H134 1014   5.139   3.346   1.268 -0.3540  0.0063  0.1143
    3CHTO   C84 1015   5.204   3.237   1.499  0.1806  0.3397 -0.1266
    3CHTO  H156 1016   5.110   3.182   1.499 -0.6443  1.7250 -1.4468
    3CHTO   N15 1017   5.170   3.379   1.542  0.4116 -0.4832 -0.2237
    3CHTO  H143 1018   5.097   3.371   1.619  0.9186 -0.7629  0.2294
    3CHTO  H144 1019   5.249   3.446   1.569 -0.4432 -0.1721  1.5826
    3CHTO   C87 1020   5.292   3.163   1.599 -0.2902  0.8142 -0.3462
    3CHTO  H159 1021   5.383   3.216   1.627  0.7186 -1.8240  1.5672
    3CHTO   O53 1022   5.356   3.016   1.546 -0.7584 -0.9183  0.1047
    3CHTO   C82 1023   5.412   3.021   1.412  0.3089 -0.0980  0.1291
    3CHTO  H154 1024   5.504   3.078   1.398 -0.7004  1.1773 -1.4406
    3CHTO   C89 1025   5.437   2.869   1.370 -0.0175  0.1489 -0.0351
    3CHTO   O59 1026   5.559   2.825   1.433 -0.5192  0.2150  0.4659
    3CHTO  H137 1027   5.640   2.868   1.413  0.4594 -1.3841  0.9668
    3CHTO   O45 1028   5.214   3.129   1.726  0.2153  0.2101 -0.0161
    3CHTO   C67 1029   5.296   3.134   1.840  0.1303 -0.4338 -0.0107
    3CHTO  H124 1030   5.388   3.081   1.815  0.0315 -1.0622  0.9279
    3CHTO   C65 1031   5.344   3.276   1.886  0.1997 -0.0779  0.2127
    3CHTO  H122 1032   5.324   3.342   1.802  0.8086 -1.0931 -0.7406
    3CHTO   O44 1033   5.482   3.270   1.914 -0.2648 -0.3141  0.3590
    3CHTO  H102 1034   5.522   3.353   1.894  0.8662 -1.0879 -0.7324
    3CHTO   C63 1035   5.253   3.322   2.010  0.5609 -0.9902  0.2636
    3CHTO  H120 1036   5.153   3.326   1.968  0.1663 -1.8141  1.1104
    3CHTO   N11 1037   5.286   3.464   2.062 -0.1387  0.4698  0.1192
    3CHTO  H108 1038   5.334   3.516   1.982 -0.9933 -1.7805 -1.9127
    3CHTO  H109 1039   5.346   3.461   2.151 -1.2729 -1.2293  0.8333
    3CHTO   C61 1040   5.271   3.219   2.120 -0.5035 -0.8666 -1.1794
    3CHTO  H118 1041   5.188   3.227   2.192  1.0256 -1.0850  0.6364
    3CHTO   O40 1042   5.273   3.082   2.080  0.1658 -0.0183 -0.2896
    3CHTO   C68 1043   5.220   3.046   1.950 -0.2488 -0.6284  0.0364
    3CHTO  H125 1044   5.111   3.067   1.952 -0.6251 -2.4962 -0.0049
    3CHTO   C72 1045   5.236   2.894   1.929  0.4899 -0.1824  0.1898
    3CHTO   O48 1046   5.365   2.836   1.935 -0.0801 -0.1055 -0.0357
    3CHTO  H105 1047   5.392   2.828   2.025  1.7081  1.1777 -0.4397
    3CHTO   O38 1048   5.391   3.236   2.188 -0.1596 -0.0256 -0.0010
    3CHTO   C55 1049   5.409   3.168   2.318  0.5497 -0.4254 -1.2329
    3CHTO  H112 1050   5.342   3.081   2.320  0.9304 -0.6871  0.3540
    3CHTO   C56 1051   5.383   3.255   2.454 -0.1264 -0.2576  0.1096
    3CHTO  H113 1052   5.451   3.342   2.456 -0.6545  0.2201 -1.3616
    3CHTO   O42 1053   5.252   3.307   2.458 -0.3760  0.2581 -0.1192
    3CHTO  H100 1054   5.249   3.383   2.513 -0.7364  0.8470 -0.9319
    3CHTO   C57 1055   5.406   3.164   2.584  0.0060  0.3077 -0.2678
    3CHTO  H114 1056   5.327   3.090   2.588 -0.3619  0.6738 -0.6410
    3CHTO   N10 1057   5.402   3.242   2.709 -0.6896 -0.4660  0.1616
    3CHTO  H106 1058   5.491   3.302   2.717 -0.8346 -0.5857  3.3961
    3CHTO  H107 1059   5.316   3.306   2.701 -0.5509 -0.7056 -4.1871
    3CHTO   C58 1060   5.539   3.089   2.568  0.1727  0.2140  0.6729
    3CHTO  H115 1061   5.618   3.167   2.577 -1.0315  1.5630 -0.2230
    3CHTO   O37 1062   5.546   3.014   2.442  0.0480 -0.2254 -0.1659
    3CHTO   C59 1063   5.553   3.109   2.332 -0.2511 -0.1940 -0.0822
    3CHTO  H116 1064   5.624   3.188   2.358 -0.9732  0.9124 -1.3824
    3CHTO   C70 1065   5.605   3.038   2.203 -0.2585  0.3598  0.2904
    3CHTO   O46 1066   5.670   3.122   2.102  0.0019  0.2463 -0.3827
    3CHTO  H103 1067   5.696   3.071   2.028 -2.5375  1.2046 -1.9952
    3CHTO   O39 1068   5.556   2.968   2.695 -0.2150 -0.3918  0.1683
    3CHTO   C60 1069   5.694   2.929   2.697  0.9082 -0.0317  0.0434
    3CHTO  H117 1070   5.752   2.952   2.608  1.1394 -1.8279 -0.2882
    3CHTO   C62 1071   5.759   2.992   2.821 -0.2293  0.0666  0.3362
    3CHTO  H119 1072   5.741   3.099   2.801  0.4878  0.0210 -0.5665
    3CHTO   O43 1073   5.685   2.962   2.943  0.3732 -0.3816 -0.3009
    3CHTO  H101 1074   5.610   3.018   2.946  1.2533  0.8294 -0.6179
    3CHTO   C66 1075   5.920   2.955   2.829  0.2467 -0.1042  0.1014
    3CHTO  H123 1076   5.968   2.997   2.741 -4.0872  3.2157 -0.8829
    3CHTO   N12 1077   5.995   3.023   2.946  0.2839  0.3920 -0.0011
    3CHTO  H110 1078   5.973   3.129   2.939  1.7659  0.6890 -0.2208
    3CHTO  H111 1079   5.967   2.986   3.043  1.6343  0.9994  0.6226
    3CHTO   C69 1080   5.928   2.806   2.847  0.8282 -0.9167 -0.1561
    3CHTO  H126 1081   5.905   2.775   2.951  0.0239  1.3854  0.3779
    3CHTO   O41 1082   5.836   2.721   2.745  0.0769 -0.1267 -0.0446
    3CHTO   C64 1083   5.708   2.777   2.710  0.3788  0.1357 -0.4326
    3CHTO  H121 1084   5.639   2.746   2.791 -0.0921 -1.2972 -1.3649
    3CHTO   C71 1085   5.662   2.715   2.580 -0.0971  0.0192 -0.1219
    3CHTO   O47 1086   5.749   2.744   2.468 -0.2867 -0.2441  0.1318
    3CHTO  H104 1087   5.816   2.679   2.468 -0.0085  0.0337  0.8106
    3CHTO   O34 1088   6.088   2.761   2.821  0.1741  0.2919  0.0538
    3CHTO   C49 1089   6.193   2.723   2.742 -0.1385 -0.1838 -0.6640
    3CHTO   H91 1090   6.283   2.713   2.803 -0.2317 -0.6204 -0.5939
    3CHTO   C47 1091   6.210   2.827   2.628  0.2082 -0.1467 -0.1247
    3CHTO   H89 1092   6.299   2.801   2.568  1.3355 -1.0964  1.9302
    3CHTO   O33 1093   6.224   2.959   2.686  0.2761 -0.0752 -0.3744
    3CHTO   H70 1094   6.309   2.998   2.673 -1.0101  2.5320 -1.2569
    3CHTO   C45 1095   6.077   2.817   2.527  0.1937  0.4714 -0.0237
    3CHTO   H87 1096   5.986   2.826   2.588 -1.2741 -0.9590 -1.9034
    3CHTO    N8 1097   6.075   2.920   2.421  0.0070  0.0859 -0.4176
    3CHTO   H75 1098   6.103   3.009   2.474  0.7962  1.7193 -3.4669
    3CHTO   H76 1099   5.967   2.925   2.409  0.0376  1.4427 -0.2328
    3CHTO   C43 1100   6.061   2.671   2.469  0.0447 -0.4350 -0.3733
    3CHTO   H85 1101   5.968   2.657   2.413  1.3071  2.3562 -3.2957
    3CHTO   O29 1102   6.071   2.571   2.577  0.4067  0.1018 -0.0348
    3CHTO   C50 1103   6.164   2.584   2.679 -0.7023  0.3138  0.4822
    3CHTO   H92 1104   6.119   2.523   2.758  0.5985  2.4373  2.9361
    3CHTO   C54 1105   6.303   2.517   2.645 -0.2184  0.5446  0.1837
    3CHTO   O36 1106   6.287   2.374   2.616  0.4190 -0.2419  0.2190
    3CHTO   H72 1107   6.341   2.358   2.541 -0.8800  1.2025 -1.0551
    3CHTO   O27 1108   6.155   2.637   2.369 -0.0360 -0.2224 -0.0162
    3CHTO   C37 1109   6.211   2.523   2.301  0.8981  0.0005 -0.3835
    3CHTO   H79 1110   6.260   2.461   2.378  0.0634 -0.5513 -0.2936
    3CHTO   C38 1111   6.106   2.429   2.231 -0.3380 -0.5198 -0.8596
    3CHTO   H80 1112   6.039   2.495   2.173 -0.2618  0.7636  0.4760
    3CHTO   O31 1113   6.043   2.365   2.346 -0.0140  0.7447  0.1240
    3CHTO   H68 1114   5.989   2.427   2.392  1.2078  0.6948  1.6577
    3CHTO   C39 1115   6.176   2.323   2.141 -0.0144 -0.6109  0.3412
    3CHTO   H81 1116   6.222   2.252   2.210  0.4510  1.0553  1.7901
    3CHTO    N7 1117   6.070   2.241   2.065 -0.2897  0.1081 -0.6610
    3CHTO   H73 1118   6.034   2.286   1.973  0.2443  0.1784 -0.8419
    3CHTO   H74 1119   6.127   2.152   2.045  1.5143  1.2898 -0.9384
    3CHTO   C40 1120   6.290   2.385   2.051 -0.4787  0.3891  0.5049
    3CHTO   H82 1121   6.244   2.430   1.963  3.2892  1.7427 -0.8743
    3CHTO   O26 1122   6.380   2.477   2.116 -0.3059 -0.2656 -0.0484
    3CHTO   C41 1123   6.326   2.576   2.212  0.3649 -0.7935  0.7174
    3CHTO   H83 1124   6.290   2.660   2.150  1.8672  0.0589  0.9789
    3CHTO   C52 1125   6.446   2.615   2.300 -0.0855 -0.1174  0.3733
    3CHTO   O35 1126   6.566   2.634   2.235 -0.5657 -0.0027  0.4305
    3CHTO   H71 1127   6.605   2.552   2.210  3.7932  2.1670 -0.2542
    3CHTO   O28 1128   6.373   2.277   2.005 -0.8146  0.3167  0.7986
    3CHTO   C42 1129   6.465   2.260   1.889 -0.9607 -0.2656 -0.4793
    3CHTO   H84 1130   6.526   2.174   1.914 -1.2995  0.1796  1.9222
    3CHTO   C44 1131   6.567   2.375   1.853 -0.5565  0.4574 -0.1847
    3CHTO   H86 1132   6.509   2.467   1.840 -0.6890  0.4165  0.1148
    3CHTO   O32 1133   6.651   2.375   1.968 -0.0851  0.0044 -0.0753
    3CHTO   H69 1134   6.696   2.457   1.977 -0.0174  0.0082 -0.4546
    3CHTO   C48 1135   6.646   2.361   1.720  1.0329 -0.5745 -0.2952
    3CHTO   H90 1136   6.723   2.284   1.724  0.2662 -1.3372  0.0923
    3CHTO    N9 1137   6.733   2.484   1.684 -0.2219 -0.1078 -0.0410
    3CHTO   H77 1138   6.789   2.464   1.594 -1.9489 -0.1473 -1.1256
    3CHTO   H78 1139   6.779   2.548   1.758  0.0967 -0.9716  0.5110
    3CHTO   C51 1140   6.541   2.319   1.612 -0.2580 -0.2091  0.4510
    3CHTO   H93 1141   6.471   2.401   1.595  1.5896  1.1325 -0.8934
    3CHTO   O30 1142   6.474   2.200   1.651 -0.1334  0.1005 -0.0578
    3CHTO   C46 1143   6.384   2.220   1.762  0.7757 -0.1250 -0.2166
    3CHTO   H88 1144   6.318   2.305   1.741 -0.5011 -0.6445  1.5808
    3CHTO   C53 1145   6.302   2.094   1.799 -0.3892 -0.0112 -0.0388
    3CHTO   O72 1146   6.199   2.072   1.706 -0.3475 -0.3608 -0.1933
    3CHTO  H199 1147   6.156   2.149   1.674 -0.4251 -0.6266 -0.7349
    3CHTO   O22 1148   6.609   2.299   1.484 -0.5251  0.0877  0.0371
    3CHTO   C31 1149   6.542   2.285   1.349  0.4222  0.2232 -0.6417
    3CHTO   H59 1150   6.622   2.253   1.279  1.4931  1.7136 -0.1122
    3CHTO   C29 1151   6.429   2.177   1.351 -0.0522 -0.0064  0.5359
    3CHTO   H57 1152   6.359   2.210   1.429  0.7650  2.1770  0.3871
    3CHTO   O21 1153   6.489   2.054   1.394 -0.4740  0.2152  0.5040
    3CHTO   H37 1154   6.451   2.018   1.472 -0.2056 -1.0422  0.0690
    3CHTO   C27 1155   6.350   2.164   1.213  0.0323  0.0867 -0.6487
    3CHTO   H55 1156   6.419   2.126   1.136  1.8006  0.8514  0.5235
    3CHTO    N5 1157   6.237   2.074   1.217 -0.8383  0.1547 -0.0958
    3CHTO   H43 1158   6.264   1.987   1.274 -0.7507  0.3908  0.2251
    3CHTO   H44 1159   6.149   2.118   1.262 -0.5238  0.2292  0.4455
    3CHTO   C25 1160   6.312   2.306   1.158  0.3387 -0.7735  0.5001
    3CHTO   H53 1161   6.233   2.353   1.220 -0.5796  0.3721 -1.4718
    3CHTO   O17 1162   6.429   2.401   1.169  0.3217  0.8882 -0.4655
    3CHTO   C32 1163   6.485   2.415   1.300  0.0343 -0.6362 -0.0513
    3CHTO   H60 1164   6.406   2.447   1.368  2.2425  1.4038  1.6346
    3CHTO   C36 1165   6.599   2.516   1.299 -0.2213 -0.4013  0.5602
    3CHTO   O25 1166   6.558   2.654   1.293  0.5733 -0.0989  0.5070
    3CHTO   H40 1167   6.529   2.683   1.209 -1.4555 -0.4196  1.0680
    3CHTO   O15 1168   6.248   2.314   1.003 -0.4668 -0.1421 -0.0807
    3CHTO   C19 1169   6.231   2.397   0.886 -0.0124 -0.1542  0.1058
    3CHTO   H47 1170   6.336   2.426   0.871  0.6506 -0.1815  4.3290
    3CHTO   C20 1171   6.178   2.309   0.772 -0.7169 -0.1458 -0.5818
    3CHTO   H48 1172   6.094   2.247   0.806  0.7129 -1.2939  0.9199
    3CHTO   O19 1173   6.274   2.207   0.736  0.3184 -0.6321  0.2675
    3CHTO   H35 1174   6.269   2.171   0.649  2.5882  1.0524 -0.6173
    3CHTO   C21 1175   6.144   2.402   0.651  0.1146  0.1385 -0.2876
    3CHTO   H49 1176   6.238   2.432   0.605 -0.2372 -0.2956 -1.3005
    3CHTO    N4 1177   6.060   2.321   0.553 -0.1509 -0.7256 -0.0438
    3CHTO   H41 1178   5.985   2.269   0.612 -3.0700  2.7513 -0.4909
    3CHTO   H42 1179   6.123   2.257   0.494  1.4581  1.1933 -0.4738
    3CHTO   C22 1180   6.068   2.527   0.696 -0.7312  0.1125 -0.1269
    3CHTO   H50 1181   5.966   2.497   0.722 -1.7234  2.2884 -1.3784
    3CHTO   O14 1182   6.128   2.600   0.805 -0.0020  0.2205  0.6289
    3CHTO   C23 1183   6.147   2.527   0.927  0.6162 -0.1237  0.2807
    3CHTO   H51 1184   6.048   2.504   0.970 -0.7084  3.7368 -0.5155
    3CHTO   C34 1185   6.217   2.624   1.025 -0.4617  0.5037  0.6223
    3CHTO   O23 1186   6.122   2.726   1.061  0.2271  0.2395 -0.5552
    3CHTO   H38 1187   6.086   2.707   1.146 -0.4714  1.6422 -0.5258
    3CHTO   O16 1188   6.070   2.622   0.590 -0.1643  0.0871  0.1200
    3CHTO   C24 1189   5.953   2.715   0.571 -0.2722 -1.1162  0.3616
    3CHTO   H52 1190   5.878   2.698   0.648 -0.4550  0.3035  0.5056
    3CHTO   C26 1191   5.900   2.682   0.430 -0.4059  0.1249  0.5943
    3CHTO   H54 1192   5.983   2.690   0.356 -1.8558 -1.9469 -1.3067
    3CHTO   O20 1193   5.858   2.549   0.423  0.0870  0.2670 -0.7756
    3CHTO   H36 1194   5.930   2.489   0.420 -0.2894 -0.2606  0.4195
    3CHTO   C30 1195   5.793   2.781   0.379 -0.4028 -0.3438 -0.5825
    3CHTO   H58 1196   5.701   2.771   0.438 -1.6910  3.9986 -1.6236
    3CHTO    N6 1197   5.753   2.768   0.242  0.4960 -0.0490 -0.2088
    3CHTO   H45 1198   5.821   2.707   0.185 -1.5292 -1.9126 -0.6940
    3CHTO   H46 1199   5.654   2.725   0.240 -0.3488  1.8873 -2.3794
    3CHTO   C33 1200   5.842   2.928   0.410 -0.1176  0.4027  0.1811
    3CHTO   H61 1201   5.926   2.953   0.343  1.6765 -2.0232  1.4615
    3CHTO   O18 1202   5.886   2.941   0.546  0.3307 -0.3620 -0.0026
    3CHTO   C28 1203   5.998   2.854   0.585 -0.1572 -0.0961 -0.0620
    3CHTO   H56 1204   6.073   2.873   0.508 -0.1209  0.8398  0.2034
    3CHTO   C35 1205   6.046   2.893   0.728  0.2261  0.0537 -0.4611
    3CHTO   O24 1206   5.946   2.862   0.821  0.0509  1.0178 -0.1543
    3CHTO   H39 1207   5.977   2.875   0.908  1.6342  0.9899 -0.6968
    3CHTO    O9 1208   5.737   3.026   0.378  0.0653 -0.1794  0.1036
    3CHTO   C13 1209   5.762   3.195   0.356  0.0806 -0.8117  0.0587
    3CHTO   H26 1210   5.687   3.232   0.283  0.1435 -1.3382 -0.2774
    3CHTO   C11 1211   5.909   3.222   0.302  0.1399  0.5594 -0.1909
    3CHTO   H24 1212   5.928   3.179   0.203 -0.0854  1.7085 -0.7430
    3CHTO    O8 1213   6.000   3.158   0.391  0.2045 -0.1486  0.5387
    3CHTO    H3 1214   5.993   3.066   0.403 -1.6604  0.0646  1.1441
    3CHTO    C9 1215   5.922   3.380   0.294  0.0571 -0.2241 -0.3468
    3CHTO   H22 1216   5.841   3.404   0.224 -0.6029 -1.5097 -0.0202
    3CHTO    N2 1217   6.048   3.427   0.228  0.1314  0.0919 -0.6165
    3CHTO   H10 1218   6.068   3.386   0.130 -0.9296 -1.2966 -0.2691
    3CHTO   H11 1219   6.131   3.407   0.295  0.2681 -0.9458 -1.0817
    3CHTO    C7 1220   5.893   3.449   0.431  0.0811 -0.1276 -0.3946
    3CHTO   H20 1221   5.897   3.556   0.403  0.8631  0.1901  0.8802
    3CHTO    O4 1222   5.760   3.415   0.481  0.1238  1.0704  0.7184
    3CHTO   C14 1223   5.721   3.277   0.488  0.1868 -0.3410 -0.3782
    3CHTO   H27 1224   5.610   3.273   0.500  0.2433 -1.0734 -0.0276
    3CHTO   C18 1225   5.765   3.218   0.616 -0.2805  0.4960 -0.3128
    3CHTO   O13 1226   5.723   3.287   0.730 -0.2952 -0.2280 -0.2539
    3CHTO    H7 1227   5.800   3.287   0.783 -0.0349 -1.7928 -0.6268
    3CHTO    O2 1228   6.016   3.424   0.542 -0.3525  0.0930 -0.0264
    3CHTO    C1 1229   6.014   3.492   0.666 -0.7916  0.8628  0.2478
    3CHTO   H14 1230   5.918   3.468   0.717  0.1649  0.1391  1.7503
    3CHTO    C2 1231   6.028   3.653   0.660  0.3843  0.4351  0.6115
    3CHTO   H15 1232   6.105   3.672   0.583 -0.5073 -0.0925 -0.4320
    3CHTO    O6 1233   5.897   3.707   0.636 -0.3068 -0.0912 -0.1628
    3CHTO    H1 1234   5.870   3.706   0.546  0.3744  0.6555 -0.3852
    3CHTO    C3 1235   6.076   3.710   0.802 -0.5175 -0.4467 -0.3924
    3CHTO   H16 1236   5.992   3.691   0.872  0.8466  1.5826  1.8719
    3CHTO    N1 1237   6.091   3.857   0.791  0.4977 -0.2962 -0.4154
    3CHTO    H8 1238   6.004   3.908   0.830  0.6177  0.3501 -0.9824
    3CHTO    H9 1239   6.181   3.889   0.841 -0.5987  2.1068  0.1090
    3CHTO    C4 1240   6.199   3.638   0.865 -0.4753  0.2326  0.4603
    3CHTO   H17 1241   6.284   3.656   0.800 -2.0696 -1.2056 -2.1262
    3CHTO    O1 1242   6.156   3.501   0.877 -0.3863 -0.2475  0.3287
    3CHTO    C5 1243   6.137   3.440   0.749  0.4182  0.3605  0.1922
    3CHTO   H18 1244   6.218   3.447   0.676  0.1578 -0.9357 -0.2254
    3CHTO   C16 1245   6.112   3.290   0.782  0.4821 -0.4318  0.1437
    3CHTO   O11 1246   6.217   3.226   0.840 -0.0452  0.1588  0.0641
    3CHTO    H5 1247   6.249   3.270   0.917  0.3238  0.6048 -0.3379
    3CHTO    O3 1248   6.225   3.689   0.996 -0.3628 -0.3695 -0.0180
    3CHTO    C6 1249   6.366   3.681   1.033  0.3896 -0.4025 -0.8564
    3CHTO   H19 1250   6.431   3.611   0.982  1.9745  2.3449 -2.7521
    3CHTO    C8 1251   6.431   3.820   0.993  0.1745  0.2458 -0.9674
    3CHTO   H21 1252   6.375   3.903   1.036 -0.1448 -0.1545 -0.5982
    3CHTO    O7 1253   6.431   3.826   0.852 -0.5779  0.0223 -0.4199
    3CHTO    H2 1254   6.447   3.913   0.821  0.0621 -0.2024 -0.7254
    3CHTO   C12 1255   6.579   3.828   1.053 -0.4051  0.0095  1.0126
    3CHTO   H25 1256   6.642   3.759   0.993 -1.0181 -0.1151  0.5126
    3CHTO    N3 1257   6.637   3.968   1.038 -0.2979 -0.6471 -0.1354
    3CHTO   H12 1258   6.724   3.986   1.100  2.1989  0.2240 -3.7126
    3CHTO   H13 1259   6.558   4.040   1.054 -1.5120 -1.7511 -1.1981
    3CHTO   C15 1260   6.596   3.784   1.198 -0.2245  0.8399 -0.2956
    3CHTO   H28 1261   6.561   3.861   1.268  2.0128  0.4018  1.3571
    3CHTO   O10 1262   6.729   3.743   1.227  0.0940 -0.4097 -0.7921
    3CHTO    H4 1263   6.745   3.744   1.320  2.7784  0.6531 -1.2213
    3CHTO    O5 1264   6.520   3.664   1.221 -0.4119  0.1153 -0.8712
    3CHTO   C10 1265   6.379   3.657   1.194 -0.8304  0.7868  0.4595
    3CHTO   H23 1266   6.331   3.731   1.258 -2.0047  1.3224 -0.9914
    3CHTO   C17 1267   6.322   3.514   1.240 -0.5160 -0.1295  0.0079
    3CHTO   O12 1268   6.396   3.412   1.180  0.2338 -0.1021  0.8273
    3CHTO    H6 1269   6.369   3.326   1.205 -2.7792  0.4178 -0.4593
    4CHTO  H203 1270   6.936   7.204   2.216 -0.6458  0.6579 -0.0366
    4CHTO   O82 1271   7.022   7.234   2.240 -0.5043 -0.0579  0.3483
    4CHTO  C123 1272   7.027   7.376   2.230 -0.0299  0.2235  0.6800
    4CHTO  H227 1273   6.964   7.423   2.308 -0.5545  1.2265 -0.3263
    4CHTO   O77 1274   7.168   7.415   2.243 -0.6058 -0.1233 -0.8113
    4CHTO  C118 1275   7.182   7.561   2.231  0.4955 -0.2015  0.0327
    4CHTO  H222 1276   7.112   7.617   2.294  0.1832  0.9264 -1.2936
    4CHTO  C125 1277   7.326   7.592   2.285 -0.0937  0.0661  0.2230
    4CHTO   O84 1278   7.335   7.566   2.423  0.2920 -0.0172 -0.2945
    4CHTO  H205 1279   7.324   7.647   2.470 -1.2633 -0.6306  0.4338
    4CHTO  C114 1280   7.149   7.617   2.093 -0.0927 -0.0731  0.3178
    4CHTO  H218 1281   7.203   7.566   2.013  0.9912  1.1877  0.2209
    4CHTO  C116 1282   7.006   7.576   2.054  0.5460  0.0277  0.0087
    4CHTO  H220 1283   6.929   7.634   2.110 -0.3864 -1.2028  0.0297
    4CHTO   O79 1284   6.978   7.617   1.918 -1.1092 -0.4228 -0.4198
    4CHTO  H201 1285   6.891   7.592   1.892 -2.4591  2.3071  1.3248
    4CHTO  C120 1286   6.981   7.422   2.084 -0.6788 -0.2287 -0.2253
    4CHTO  H224 1287   7.034   7.360   2.008  0.4695 -0.5914  0.8434
    4CHTO   N21 1288   6.842   7.390   2.060  0.1554  0.8112 -0.4159
    4CHTO  H211 1289   6.838   7.288   2.025 -0.5006  0.7874 -0.2909
    4CHTO  H212 1290   6.805   7.448   1.976 -0.4385 -0.6243 -1.1643
    4CHTO   O75 1291   7.175   7.759   2.101  0.0645 -0.6234 -0.3418
    4CHTO  C112 1292   7.270   7.795   1.968  0.3495 -0.3778  0.0326
    4CHTO  H216 1293   7.242   7.725   1.888  0.2258 -0.3813  0.0785
    4CHTO   O73 1294   7.404   7.769   2.018  0.0943 -0.2588 -0.2779
    4CHTO  C113 1295   7.509   7.791   1.914  0.2819  0.6125 -0.4536
    4CHTO  H217 1296   7.484   7.739   1.820  2.5398 -1.3815 -0.0140
    4CHTO  C124 1297   7.650   7.746   1.965  0.6600  0.3751  0.3727
    4CHTO   O83 1298   7.658   7.604   1.964  0.0393  0.4596 -0.0133
    4CHTO  H204 1299   7.696   7.577   1.883 -0.7465 -2.7049  0.6258
    4CHTO  C109 1300   7.517   7.939   1.878  0.5213  0.2613  0.1618
    4CHTO  H213 1301   7.561   7.990   1.965 -0.4940  1.6847 -0.1350
    4CHTO  C110 1302   7.377   8.005   1.849 -0.6389  0.1261 -0.1796
    4CHTO  H214 1303   7.358   7.993   1.742 -0.5535 -2.6919  0.0772
    4CHTO   O78 1304   7.391   8.147   1.868  0.6299  0.3111  0.0727
    4CHTO  H200 1305   7.394   8.174   1.958 -1.4837  0.1362  0.2318
    4CHTO  C111 1306   7.250   7.949   1.925 -0.1043 -0.0580 -0.4228
    4CHTO  H215 1307   7.247   8.003   2.021  0.2207 -0.4612 -0.1840
    4CHTO   N19 1308   7.120   7.979   1.860  0.5208 -0.1703  1.3207
    4CHTO  H207 1309   7.134   8.074   1.811 -0.5585 -0.9594 -0.5514
    4CHTO  H208 1310   7.079   7.899   1.802 -0.1243 -0.5235  2.2458
    4CHTO   O74 1311   7.602   7.969   1.757 -0.1820  0.3944 -0.4626
    4CHTO  C115 1312   7.694   8.118   1.769  0.3872 -0.7816 -0.1767
    4CHTO  H219 1313   7.644   8.192   1.832 -0.3964 -1.4183 -0.0440
    4CHTO   O76 1314   7.849   8.089   1.836  0.4961  0.0134 -0.2090
    4CHTO  C122 1315   7.917   7.984   1.762  0.2261 -0.6628 -0.1898
    4CHTO  H226 1316   7.863   7.894   1.791 -1.8465  0.5069 -0.2469
    4CHTO  C126 1317   8.063   7.966   1.821 -1.2915  0.3641  0.0643
    4CHTO   O85 1318   8.148   8.080   1.785  0.0052 -0.3091  0.1178
    4CHTO  H206 1319   8.221   8.083   1.843  0.0555  0.6167  0.0126
    4CHTO  C121 1320   7.915   8.015   1.610  0.2812  0.5783 -0.7471
    4CHTO  H225 1321   8.019   8.010   1.573  1.1632  0.8452  1.5928
    4CHTO   O81 1322   7.837   7.915   1.540  0.4459  0.3584  0.3564
    4CHTO  H202 1323   7.848   7.828   1.575 -2.2451  0.6248  1.9486
    4CHTO  C119 1324   7.861   8.158   1.575  0.4412 -0.4698  0.3132
    4CHTO  H223 1325   7.931   8.222   1.629  0.5622  0.9754 -1.5053
    4CHTO  C117 1326   7.713   8.182   1.631  0.8512 -0.1812  0.2183
    4CHTO  H221 1327   7.644   8.146   1.555 -0.0949  0.7304  0.6186
    4CHTO   N20 1328   7.682   8.327   1.634  0.1359 -0.7042  0.0001
    4CHTO  H209 1329   7.723   8.378   1.720 -1.0732 -1.0679  0.8002
    4CHTO  H210 1330   7.576   8.343   1.617  0.2076  1.0307  1.0763
    4CHTO   O80 1331   7.889   8.187   1.434 -0.1808 -0.8200  0.6494
    4CHTO  C103 1332   8.001   8.296   1.400  1.1915 -0.0602 -0.1195
    4CHTO  H190 1333   7.963   8.395   1.423  0.8931 -0.1783 -0.0958
    4CHTO  C101 1334   8.150   8.277   1.468 -0.0925  0.1073  0.3129
    4CHTO  H188 1335   8.169   8.171   1.485  0.1642  0.1899  0.5355
    4CHTO   O68 1336   8.141   8.352   1.620  0.4080 -0.2554 -0.1062
    4CHTO  H168 1337   8.105   8.438   1.605 -0.0536 -0.7955 -2.2396
    4CHTO   C99 1338   8.259   8.355   1.386  1.1622 -0.1631 -0.6528
    4CHTO  H186 1339   8.248   8.462   1.412  1.5306 -0.7806  2.2423
    4CHTO   N17 1340   8.403   8.311   1.421  0.3468  0.4153  0.0153
    4CHTO  H174 1341   8.443   8.376   1.497 -0.9588  2.5591 -1.0590
    4CHTO  H175 1342   8.462   8.318   1.330  0.8506  0.0870  0.3158
    4CHTO   C97 1343   8.237   8.340   1.233 -0.1906 -0.2580  0.1054
    4CHTO  H184 1344   8.257   8.238   1.195  2.0668 -0.2841  1.2973
    4CHTO   O64 1345   8.105   8.383   1.200 -0.4614  0.0287  0.1738
    4CHTO  C104 1346   8.011   8.288   1.239  0.7220  0.2117  0.2609
    4CHTO  H191 1347   8.034   8.186   1.208  1.8236  1.1480 -2.1131
    4CHTO  C108 1348   7.874   8.322   1.176  0.1957 -0.2423 -0.2471
    4CHTO   O71 1349   7.810   8.446   1.231  0.0289 -0.4538 -0.3237
    4CHTO  H171 1350   7.727   8.463   1.191 -0.5671  0.1246  1.1177
    4CHTO   O62 1351   8.329   8.438   1.170 -0.0096 -0.7107  0.0960
    4CHTO   C91 1352   8.382   8.403   1.041 -0.0084  0.1064 -0.2407
    4CHTO  H178 1353   8.416   8.299   1.040  3.0834  1.0582  0.4564
    4CHTO   C92 1354   8.504   8.493   1.018 -0.7194 -0.6016  0.2118
    4CHTO  H179 1355   8.572   8.485   1.104 -2.3860 -0.2876  1.5947
    4CHTO   O66 1356   8.579   8.444   0.907  0.3647 -0.1053 -0.2690
    4CHTO  H166 1357   8.536   8.455   0.824 -0.6305  1.7283  0.4608
    4CHTO   C93 1358   8.475   8.646   0.990  0.0531 -0.0057  0.0374
    4CHTO  H180 1359   8.562   8.685   0.936 -0.8988  2.4688  0.2391
    4CHTO   N16 1360   8.455   8.728   1.113 -0.5467  0.1453  1.1034
    4CHTO  H172 1361   8.366   8.712   1.172 -0.7707  0.8910  0.9761
    4CHTO  H173 1362   8.540   8.732   1.179  0.1225 -0.8200  0.3148
    4CHTO   C94 1363   8.343   8.655   0.897 -0.2174  0.0056  0.1704
    4CHTO  H181 1364   8.253   8.682   0.953  0.4512 -0.5251  1.5156
    4CHTO   O61 1365   8.307   8.534   0.835  0.6103  0.0631  0.3968
    4CHTO   C95 1366   8.269   8.432   0.932 -0.3265  0.2148 -0.1055
    4CHTO  H182 1367   8.177   8.469   0.976 -0.4316 -1.2801  0.9789
    4CHTO  C106 1368   8.239   8.301   0.843 -0.1855 -0.0103  0.1428
    4CHTO   O69 1369   8.180   8.201   0.924  0.4756 -0.2561  0.2032
    4CHTO  H169 1370   8.179   8.129   0.865  0.5041  1.1461 -1.5315
    4CHTO   O63 1371   8.380   8.770   0.788 -0.3113  0.0463 -0.1824
    4CHTO   C96 1372   8.271   8.816   0.702  0.1503  0.3205  0.6172
    4CHTO  H183 1373   8.198   8.735   0.709  0.6241 -0.1588  0.0531
    4CHTO   C98 1374   8.310   8.821   0.558  0.0716 -0.6204 -0.7810
    4CHTO  H185 1375   8.403   8.879   0.553 -1.0539  1.0790 -2.2758
    4CHTO   O67 1376   8.347   8.686   0.528 -0.1437 -0.5031  0.2378
    4CHTO  H167 1377   8.347   8.681   0.434  1.7119  1.2619  0.1074
    4CHTO  C102 1378   8.194   8.868   0.464  0.7797  0.4692  0.0480
    4CHTO  H189 1379   8.130   8.779   0.454  1.8925  0.0263 -3.6277
    4CHTO   N18 1380   8.234   8.904   0.323  0.5160  0.5706  0.1387
    4CHTO  H176 1381   8.155   8.872   0.257  0.7775  0.2151 -0.0052
    4CHTO  H177 1382   8.318   8.837   0.311 -0.9457 -1.5932  1.5718
    4CHTO  C105 1383   8.103   8.969   0.529 -0.0836 -0.5173 -0.6415
    4CHTO  H192 1384   8.083   9.047   0.456  1.9703  0.3289 -0.3454
    4CHTO   O65 1385   8.163   9.039   0.641  0.0437 -0.0298 -0.1247
    4CHTO  C100 1386   8.211   8.956   0.749  1.1502  0.0768 -0.8553
    4CHTO  H187 1387   8.293   9.018   0.787  2.6089 -0.9742 -2.2434
    4CHTO  C107 1388   8.091   8.950   0.848 -0.0816  0.3665  0.0355
    4CHTO   O70 1389   8.069   9.068   0.932  0.3064 -0.4947 -0.2993
    4CHTO  H170 1390   7.980   9.098   0.929 -0.3992 -2.3752  0.7403
    4CHTO   O57 1391   7.971   8.892   0.572 -0.2657  0.7250  0.6335
    4CHTO   C85 1392   7.839   8.931   0.530 -0.2437  0.0512  0.2043
    4CHTO  H157 1393   7.852   8.963   0.425  0.4703  2.4614  0.9934
    4CHTO   C83 1394   7.785   9.055   0.613  0.7833 -0.0737  0.2087
    4CHTO  H155 1395   7.849   9.142   0.612  0.1187  0.4674  2.3394
    4CHTO   O56 1396   7.780   9.025   0.752  0.4909  0.4406  0.3712
    4CHTO  H135 1397   7.746   9.097   0.802  0.4533 -0.0833  1.1131
    4CHTO   C81 1398   7.641   9.091   0.558  0.3598  0.4419 -0.6204
    4CHTO  H153 1399   7.652   9.115   0.453  0.2750  2.7369 -0.1324
    4CHTO   N14 1400   7.589   9.221   0.607 -0.9276 -0.3630 -0.3140
    4CHTO  H141 1401   7.586   9.225   0.714  0.1341 -2.5305 -0.1841
    4CHTO  H142 1402   7.657   9.297   0.574 -1.2144  0.0059 -0.0597
    4CHTO   C79 1403   7.541   8.968   0.564  0.1811  0.2089 -0.0005
    4CHTO  H151 1404   7.448   9.000   0.517 -2.1273 -0.7609  3.7090
    4CHTO   O52 1405   7.592   8.858   0.488  0.2310  0.5887 -0.0098
    4CHTO   C86 1406   7.729   8.814   0.541 -0.5142 -0.2838 -0.4072
    4CHTO  H158 1407   7.720   8.779   0.646 -0.5983  1.3550  0.1526
    4CHTO   C90 1408   7.776   8.694   0.455 -0.5697 -0.0150 -0.6801
    4CHTO   O60 1409   7.683   8.581   0.457 -0.1466  0.5392 -0.5454
    4CHTO  H138 1410   7.727   8.514   0.407 -1.7331 -0.4599 -0.6206
    4CHTO   O50 1411   7.516   8.924   0.698  0.1510  0.0113 -0.4057
    4CHTO   C73 1412   7.443   8.860   0.808  0.3649  0.6514  0.5520
    4CHTO  H145 1413   7.344   8.907   0.807  0.0461  0.0163 -1.7762
    4CHTO   C74 1414   7.516   8.882   0.945  0.1165  0.0562  0.2694
    4CHTO  H146 1415   7.538   8.989   0.955 -0.4482  0.4219 -2.1044
    4CHTO   O54 1416   7.422   8.849   1.050  0.0522 -0.0715  0.5513
    4CHTO  H133 1417   7.465   8.855   1.133  0.8985 -0.6711  0.1689
    4CHTO   C75 1418   7.650   8.790   0.950  0.4460 -0.0788 -0.0463
    4CHTO  H147 1419   7.714   8.819   0.866 -0.0930  0.1979 -0.3631
    4CHTO   N13 1420   7.724   8.802   1.080  0.1014  0.3344  0.4282
    4CHTO  H139 1421   7.783   8.892   1.073  0.1473  0.1435 -1.9387
    4CHTO  H140 1422   7.791   8.717   1.090 -0.2689 -0.0958 -0.6610
    4CHTO   C76 1423   7.610   8.642   0.910  0.5120  0.0953  0.2569
    4CHTO  H148 1424   7.535   8.598   0.976  0.1147 -0.6763 -0.7108
    4CHTO   O49 1425   7.553   8.645   0.778 -0.2247  0.0830 -0.1806
    4CHTO   C77 1426   7.425   8.714   0.776  0.0831  0.0879 -0.3043
    4CHTO  H149 1427   7.377   8.666   0.860  1.2562 -1.8483 -0.7076
    4CHTO   C88 1428   7.341   8.693   0.647 -0.1625  0.5605  0.3142
    4CHTO   O58 1429   7.289   8.562   0.651 -0.7930 -0.4770 -0.1796
    4CHTO  H136 1430   7.228   8.543   0.583 -1.6231  1.4304  0.0044
    4CHTO   O51 1431   7.740   8.547   0.899 -0.0883  0.3350 -0.3518
    4CHTO   C78 1432   7.735   8.405   0.796 -0.0497 -0.1791 -0.3955
    4CHTO  H150 1433   7.685   8.430   0.700  0.6890  1.1844 -0.4388
    4CHTO   C80 1434   7.650   8.298   0.869  0.5979  0.0123 -0.2811
    4CHTO  H152 1435   7.688   8.281   0.972  0.5936 -2.8327 -0.6864
    4CHTO   O55 1436   7.515   8.341   0.879  0.5699 -0.2089  0.3122
    4CHTO  H134 1437   7.499   8.411   0.940 -1.7478  0.2942 -0.8158
    4CHTO   C84 1438   7.653   8.160   0.794 -0.0250  0.2815 -0.4831
    4CHTO  H156 1439   7.624   8.164   0.689 -1.7763 -0.4127 -0.0404
    4CHTO   N15 1440   7.575   8.052   0.865 -0.3928 -0.1869  0.3981
    4CHTO  H143 1441   7.596   8.062   0.969  2.2038 -4.4840  0.3895
    4CHTO  H144 1442   7.469   8.065   0.855 -0.3663 -0.7738 -0.8071
    4CHTO   C87 1443   7.806   8.124   0.786 -0.0088 -0.2683 -0.0074
    4CHTO  H159 1444   7.832   8.109   0.890  1.1654 -1.3492 -0.4406
    4CHTO   O53 1445   7.887   8.240   0.708  0.2881 -0.8890 -0.0431
    4CHTO   C82 1446   7.883   8.362   0.783 -0.3101  0.8687 -0.4991
    4CHTO  H154 1447   7.926   8.355   0.883 -0.3169 -1.0888 -0.6095
    4CHTO   C89 1448   7.949   8.482   0.714  0.1280 -0.4120 -0.4771
    4CHTO   O59 1449   7.998   8.575   0.806 -0.1292  0.3013  0.0839
    4CHTO  H137 1450   8.085   8.554   0.833 -0.4581 -0.2113  0.7766
    4CHTO   O45 1451   7.832   7.984   0.686 -0.1272  0.5222  1.0019
    4CHTO   C67 1452   7.972   7.960   0.676 -0.1912 -0.0011 -0.2935
    4CHTO  H124 1453   8.028   8.052   0.662 -0.3587 -0.2237 -2.6085
    4CHTO   C65 1454   8.024   7.886   0.808  0.0270 -0.6583 -0.1061
    4CHTO  H122 1455   7.991   7.952   0.889  0.3467  2.0657 -2.1220
    4CHTO   O44 1456   8.164   7.867   0.800 -0.5784 -0.0635 -0.2162
    4CHTO  H102 1457   8.205   7.901   0.878  0.2999 -0.0027 -0.6957
    4CHTO   C63 1458   7.943   7.751   0.816  0.8264  0.5588 -0.5335
    4CHTO  H120 1459   7.836   7.773   0.811  0.7967  0.5093 -0.0756
    4CHTO   N11 1460   7.951   7.682   0.950  0.3259 -0.8194 -0.2809
    4CHTO  H108 1461   8.045   7.697   0.998 -1.2200  1.1653  2.2988
    4CHTO  H109 1462   7.914   7.582   0.945 -1.1745 -0.4445  2.2876
    4CHTO   C61 1463   7.985   7.665   0.689 -0.4650  0.4906  0.1978
    4CHTO  H118 1464   7.899   7.596   0.684 -0.5223  0.5082  0.8639
    4CHTO   O40 1465   7.992   7.729   0.561 -0.2603  0.1969  0.0951
    4CHTO   C68 1466   8.004   7.878   0.548  0.0958  0.7012  0.3843
    4CHTO  H125 1467   7.922   7.898   0.475 -0.1732 -0.8756  0.2237
    4CHTO   C72 1468   8.137   7.906   0.472 -0.1761  0.1281  0.0713
    4CHTO   O48 1469   8.124   7.873   0.333  0.0996 -0.6078 -0.3009
    4CHTO  H105 1470   8.034   7.867   0.306 -0.0961  2.4427 -0.5733
    4CHTO   O38 1471   8.109   7.589   0.696  0.7413  0.2612  0.6069
    4CHTO   C55 1472   8.096   7.467   0.621 -0.1477  0.1245 -0.4955
    4CHTO  H112 1473   8.023   7.482   0.539  0.7722 -0.3151 -1.4024
    4CHTO   C56 1474   8.063   7.334   0.716 -0.4940 -0.2166  0.4185
    4CHTO  H113 1475   8.149   7.327   0.784 -0.3018  1.0691  0.3173
    4CHTO   O42 1476   7.949   7.364   0.798 -0.2911  0.5595 -0.3403
    4CHTO  H100 1477   7.905   7.285   0.824  2.1712 -0.8455 -0.2674
    4CHTO   C57 1478   8.053   7.216   0.618 -0.3912 -0.4142 -0.4738
    4CHTO  H114 1479   7.966   7.236   0.556 -0.4082  1.7256  0.1972
    4CHTO   N10 1480   8.025   7.094   0.683  0.9548  0.1330 -0.6118
    4CHTO  H106 1481   7.947   7.118   0.753 -0.9936 -0.4820 -2.5226
    4CHTO  H107 1482   8.111   7.055   0.735 -0.0019  0.2405  1.0796
    4CHTO   C58 1483   8.177   7.199   0.533 -0.7447  1.0809  0.2781
    4CHTO  H115 1484   8.262   7.168   0.599  0.1842  0.3467 -1.2373
    4CHTO   O37 1485   8.216   7.319   0.471  0.7934  0.1032 -0.2579
    4CHTO   C59 1486   8.235   7.436   0.556 -0.3555  0.3201  0.8043
    4CHTO  H116 1487   8.315   7.397   0.620  3.3277 -0.1808 -3.8278
    4CHTO   C70 1488   8.285   7.557   0.474  0.0179 -0.3227  0.9506
    4CHTO   O46 1489   8.418   7.533   0.417  0.2316  0.2669 -0.1526
    4CHTO  H103 1490   8.436   7.612   0.369 -0.3527  0.0294 -0.7642
    4CHTO   O39 1491   8.158   7.095   0.421  0.0921 -0.2407 -0.1838
    4CHTO   C60 1492   8.056   7.096   0.319  0.8637  1.0883 -0.1872
    4CHTO  H117 1493   7.962   7.143   0.349 -0.4021 -0.9662 -0.8507
    4CHTO   C62 1494   8.087   7.189   0.203  0.0925  0.2009  0.1058
    4CHTO  H119 1495   8.071   7.292   0.243  0.2950  0.7951 -1.3078
    4CHTO   O43 1496   8.222   7.159   0.173  0.0158  0.3471  0.3454
    4CHTO  H101 1497   8.293   7.194   0.223 -0.5417  2.5847 -0.4007
    4CHTO   C66 1498   7.994   7.166   0.072  0.0173  0.9242 -0.5392
    4CHTO  H123 1499   7.895   7.206   0.094 -0.1937  0.2838 -0.3322
    4CHTO   N12 1500   8.028   7.250  -0.042 -0.0536 -0.1321 -0.0950
    4CHTO  H110 1501   8.038   7.351  -0.004  0.2674 -0.3852  0.5008
    4CHTO  H111 1502   7.941   7.252  -0.105 -1.2784  0.1143  1.5630
    4CHTO   C69 1503   7.967   7.013   0.040  0.1375  0.2553 -0.1196
    4CHTO  H126 1504   8.058   6.983  -0.017 -0.1397  1.4342 -1.2065
    4CHTO   O41 1505   7.935   6.932   0.167  0.0778  0.5775  0.1564
    4CHTO   C64 1506   8.023   6.950   0.274 -0.3390  0.0629  0.3726
    4CHTO  H121 1507   8.121   6.908   0.243  0.6478  1.5862  1.3784
    4CHTO   C71 1508   7.969   6.864   0.393 -0.1709  0.2301 -0.0481
    4CHTO   O47 1509   7.980   6.720   0.356  0.5591  0.1114 -0.2015
    4CHTO  H104 1510   7.966   6.670   0.435 -0.3826  0.5478 -0.0814
    4CHTO   O34 1511   7.838   7.004  -0.048  0.1592  0.2025  0.2665
    4CHTO   C49 1512   7.833   6.856  -0.160  0.4025 -0.1738  0.7418
    4CHTO   H91 1513   7.936   6.837  -0.190  0.8764 -1.2614  2.9348
    4CHTO   C47 1514   7.749   6.891  -0.282  0.4147 -0.5902 -0.5832
    4CHTO   H89 1515   7.761   6.804  -0.350  1.9736 -0.1924 -0.8283
    4CHTO   O33 1516   7.807   7.005  -0.343 -0.1168 -0.2457 -0.4954
    4CHTO   H70 1517   7.764   7.013  -0.427  0.5086  2.1799 -0.5942
    4CHTO   C45 1518   7.594   6.904  -0.242 -0.5434  0.1240 -0.2242
    4CHTO   H87 1519   7.592   6.984  -0.166 -0.3872  0.4408 -0.5553
    4CHTO    N8 1520   7.503   6.934  -0.361 -0.7978 -0.7415 -0.2860
    4CHTO   H75 1521   7.539   7.021  -0.414 -2.1525  0.8685  1.3774
    4CHTO   H76 1522   7.504   6.848  -0.426  0.1964 -0.4663 -0.6586
    4CHTO   C43 1523   7.547   6.771  -0.164 -0.1214  0.3801 -0.0408
    4CHTO   H85 1524   7.446   6.795  -0.132 -0.9992 -0.4592 -2.1487
    4CHTO   O29 1525   7.639   6.749  -0.059  0.4861 -0.1484  0.5054
    4CHTO   C50 1526   7.774   6.740  -0.073  0.1902  0.3747 -0.3344
    4CHTO   H92 1527   7.819   6.743   0.027  1.9617 -0.0244 -1.0972
    4CHTO   C54 1528   7.832   6.605  -0.122 -0.2531 -0.4622  0.4473
    4CHTO   O36 1529   7.813   6.500  -0.033  0.7990  0.5108  0.2083
    4CHTO   H72 1530   7.737   6.511   0.022 -0.2449  0.8612 -1.2714
    4CHTO   O27 1531   7.541   6.647  -0.238 -0.0246 -0.3719 -0.1764
    4CHTO   C37 1532   7.482   6.534  -0.297  0.3398 -0.4272  0.1725
    4CHTO   H79 1533   7.446   6.566  -0.396 -2.7775  3.9280  2.5277
    4CHTO   C38 1534   7.598   6.432  -0.322 -0.0374  0.1920  0.4560
    4CHTO   H80 1535   7.659   6.426  -0.231  0.4863  0.2000  0.1054
    4CHTO   O31 1536   7.685   6.480  -0.425  0.3927  0.2810 -0.0099
    4CHTO   H68 1537   7.732   6.418  -0.478 -0.4487  0.6966 -1.2689
    4CHTO   C39 1538   7.535   6.287  -0.363 -0.2041  0.4430 -0.1608
    4CHTO   H81 1539   7.490   6.295  -0.462 -1.1513  0.3673  0.2602
    4CHTO    N7 1540   7.640   6.181  -0.369  0.0093 -0.7522 -0.8925
    4CHTO   H73 1541   7.730   6.199  -0.426 -0.4448  1.2795 -0.9737
    4CHTO   H74 1542   7.599   6.089  -0.409  0.2994 -0.3857 -2.0430
    4CHTO   C40 1543   7.414   6.255  -0.263 -0.3693 -0.8485  0.7203
    4CHTO   H82 1544   7.457   6.247  -0.164  1.2977 -1.9486 -0.0693
    4CHTO   O26 1545   7.312   6.353  -0.270  0.3942 -0.3674 -0.0647
    4CHTO   C41 1546   7.359   6.483  -0.217  0.0931  0.4841 -0.7014
    4CHTO   H83 1547   7.377   6.484  -0.109 -0.2539 -0.2824 -0.6311
    4CHTO   C52 1548   7.240   6.580  -0.238 -1.0943  0.4939  0.6793
    4CHTO   O35 1549   7.124   6.538  -0.160 -0.7908 -0.0634  0.8451
    4CHTO   H71 1550   7.061   6.607  -0.169 -1.5379 -0.6948  1.2239
    4CHTO   O28 1551   7.352   6.121  -0.296  0.3320 -0.4834  0.6514
    4CHTO   C42 1552   7.272   6.035  -0.205 -0.6308  0.4206  0.2927
    4CHTO   H84 1553   7.284   5.936  -0.249 -2.3750  1.1501 -1.9022
    4CHTO   C44 1554   7.112   6.061  -0.206 -0.3075 -0.2157 -0.0942
    4CHTO   H86 1555   7.099   6.168  -0.191 -0.2956 -0.1093 -0.8169
    4CHTO   O32 1556   7.067   6.027  -0.336  0.0519 -0.3332  0.5235
    4CHTO   H69 1557   7.119   6.060  -0.407 -0.6380  2.9335  1.4819
    4CHTO   C48 1558   7.031   5.985  -0.094  0.0853 -0.1782  0.1737
    4CHTO   H90 1559   7.015   5.882  -0.127  0.7665 -0.1725 -0.1877
    4CHTO    N9 1560   6.890   6.024  -0.089 -0.2121 -0.6322  0.5532
    4CHTO   H77 1561   6.876   6.130  -0.104  0.5273 -0.9034 -2.3252
    4CHTO   H78 1562   6.831   5.983  -0.008 -0.0535 -0.2797  0.8492
    4CHTO   C51 1563   7.104   5.991   0.049 -0.0945 -0.5174  0.1602
    4CHTO   H93 1564   7.112   6.096   0.076  1.2271 -0.5387 -0.1057
    4CHTO   O30 1565   7.237   5.931   0.027  0.2290  0.3882 -0.0080
    4CHTO   C46 1566   7.328   6.030  -0.065  0.3551  0.6160 -0.1076
    4CHTO   H88 1567   7.332   6.135  -0.035  2.0282  0.3005  0.8597
    4CHTO   C53 1568   7.476   5.980  -0.059  0.6188 -0.0626 -0.3183
    4CHTO   O72 1569   7.549   6.008   0.059 -0.2486  0.0821 -0.1878
    4CHTO  H199 1570   7.528   5.970   0.142  0.7225  0.0060  0.0216
    4CHTO   O22 1571   7.056   5.906   0.158  0.6151  0.3118  0.2288
    4CHTO   C31 1572   7.110   5.886   0.296  0.0439 -0.0767  0.3172
    4CHTO   H59 1573   7.218   5.860   0.293 -0.2655 -1.4609  0.5430
    4CHTO   C29 1574   7.101   6.023   0.371  0.4510  0.0079  0.0649
    4CHTO   H57 1575   7.007   6.074   0.349 -0.4673 -1.5046  0.4361
    4CHTO   O21 1576   7.192   6.120   0.312 -0.2029  0.7420  0.2567
    4CHTO   H37 1577   7.169   6.131   0.221 -2.7796  1.5972  0.9715
    4CHTO   C27 1578   7.125   6.005   0.525  0.7400 -0.0435  0.5675
    4CHTO   H55 1579   7.232   5.981   0.537  0.4197 -1.0579  1.4643
    4CHTO    N5 1580   7.092   6.132   0.596  0.0204  0.2226  0.2564
    4CHTO   H43 1581   7.074   6.122   0.702  2.8789 -2.0864  0.6089
    4CHTO   H44 1582   7.170   6.206   0.585  0.4604 -0.0816  1.2430
    4CHTO   C25 1583   7.033   5.897   0.579  0.2993  0.1042 -0.0245
    4CHTO   H53 1584   6.931   5.925   0.549  0.5917  2.2456  0.8984
    4CHTO   O17 1585   7.074   5.773   0.509 -0.7836 -0.8753  0.2962
    4CHTO   C32 1586   7.040   5.762   0.371  0.0252  0.3142  0.1389
    4CHTO   H60 1587   6.935   5.766   0.342 -0.1954  2.8469  1.1249
    4CHTO   C36 1588   7.105   5.625   0.321 -0.4880  0.6868  0.2062
    4CHTO   O25 1589   7.028   5.519   0.372  0.7856 -0.5080 -0.1308
    4CHTO   H40 1590   7.048   5.445   0.318  0.8480 -0.0725 -0.7167
    4CHTO   O15 1591   7.031   5.873   0.733  0.2219  0.0271  0.8315
    4CHTO   C19 1592   7.132   5.861   0.838  0.2159  0.0128 -0.1516
    4CHTO   H47 1593   7.079   5.798   0.910  0.6095  0.4581  0.5297
    4CHTO   C20 1594   7.254   5.774   0.801  0.4506  0.4601 -0.2325
    4CHTO   H48 1595   7.302   5.809   0.708  1.6861 -0.6815 -0.0423
    4CHTO   O19 1596   7.205   5.640   0.767 -0.1145 -0.8968 -0.0583
    4CHTO   H35 1597   7.145   5.653   0.696 -0.9535  0.3990  0.8582
    4CHTO   C21 1598   7.366   5.772   0.914 -0.0499 -0.0984  0.2480
    4CHTO   H49 1599   7.334   5.707   0.995 -0.9188  0.8669  0.6870
    4CHTO    N4 1600   7.490   5.712   0.855 -0.1471  0.1888  0.2178
    4CHTO   H41 1601   7.499   5.734   0.750 -0.3463  2.2052  0.6126
    4CHTO   H42 1602   7.482   5.605   0.867 -0.3836  0.1788 -0.0222
    4CHTO   C22 1603   7.386   5.915   0.974 -0.1913  0.9260 -0.3237
    4CHTO   H50 1604   7.437   5.971   0.896 -0.6731  2.1048  0.2029
    4CHTO   O14 1605   7.259   5.972   1.023 -0.2997  0.4647  0.1292
    4CHTO   C23 1606   7.171   5.994   0.916  0.5454  0.6181  0.8100
    4CHTO   H51 1607   7.218   6.070   0.852  0.1907  0.0511 -0.1338
    4CHTO   C34 1608   7.033   6.059   0.969 -0.8316 -0.1675  0.6594
    4CHTO   O23 1609   7.049   6.197   1.019 -0.2330 -0.3132  0.1057
    4CHTO   H38 1610   7.063   6.199   1.112  1.6305 -0.2109 -0.1513
    4CHTO   O16 1611   7.472   5.899   1.093  0.0395 -0.3745 -0.1506
    4CHTO   C24 1612   7.522   6.040   1.141 -0.0862 -0.1907  0.1668
    4CHTO   H52 1613   7.465   6.120   1.093  1.4274 -0.2151 -1.7230
    4CHTO   C26 1614   7.670   6.052   1.095  0.4051 -0.4118  0.3795
    4CHTO   H54 1615   7.719   5.954   1.115  0.9602 -0.1215  0.4722
    4CHTO   O20 1616   7.669   6.091   0.957 -0.1600  0.5884 -0.2135
    4CHTO   H36 1617   7.729   6.033   0.914 -2.2987 -0.0408 -2.4086
    4CHTO   C30 1618   7.751   6.161   1.172  0.4014  0.4035 -0.0355
    4CHTO   H58 1619   7.725   6.259   1.130 -1.3739 -0.7189 -1.6211
    4CHTO    N6 1620   7.897   6.156   1.147  0.4551  0.5441 -1.1731
    4CHTO   H45 1621   7.937   6.056   1.148  1.1622  0.8375  0.8037
    4CHTO   H46 1622   7.954   6.216   1.216  1.8769 -0.4683 -1.4520
    4CHTO   C33 1623   7.715   6.163   1.323  0.0742  0.4621 -0.1119
    4CHTO   H61 1624   7.747   6.070   1.372 -0.7363 -0.4585 -1.2982
    4CHTO   O18 1625   7.570   6.181   1.331 -0.6306 -0.2276 -0.3627
    4CHTO   C28 1626   7.505   6.056   1.296  0.4952 -0.6298  0.1464
    4CHTO   H56 1627   7.550   5.970   1.346 -0.5272  0.9347  3.8781
    4CHTO   C35 1628   7.351   6.096   1.331 -0.0577 -0.0948 -0.2282
    4CHTO   O24 1629   7.340   6.044   1.467  0.0179 -0.3799  0.1329
    4CHTO   H39 1630   7.270   6.084   1.514  0.9821 -0.0414  1.3058
    4CHTO    O9 1631   7.785   6.271   1.389 -0.6131  0.0244  0.2249
    4CHTO   C13 1632   7.811   6.235   1.553 -0.4457 -0.1771 -0.0304
    4CHTO   H26 1633   7.881   6.149   1.556  1.6032  1.3867 -1.8650
    4CHTO   C11 1634   7.669   6.203   1.628 -0.5184 -0.0335  0.5112
    4CHTO   H24 1635   7.635   6.100   1.611 -1.6629  0.4930 -0.4520
    4CHTO    O8 1636   7.567   6.297   1.590  0.3689  0.7293  0.1079
    4CHTO    H3 1637   7.502   6.250   1.542 -0.0656 -0.9768  2.2858
    4CHTO    C9 1638   7.694   6.204   1.782 -0.1050 -0.3849 -0.4615
    4CHTO   H22 1639   7.769   6.127   1.802  1.4516  1.8177  2.6325
    4CHTO    N2 1640   7.575   6.170   1.862 -0.3875 -0.1157 -0.1007
    4CHTO   H10 1641   7.522   6.089   1.813 -0.5115  0.5230 -1.0303
    4CHTO   H11 1642   7.508   6.253   1.877 -1.1617 -0.5049 -1.2843
    4CHTO    C7 1643   7.766   6.338   1.830  0.3063  0.7085  0.3634
    4CHTO   H20 1644   7.854   6.297   1.884  0.7839 -2.8110 -2.8961
    4CHTO    O4 1645   7.811   6.418   1.718 -0.1983 -0.6272 -0.3843
    4CHTO   C14 1646   7.894   6.354   1.624 -0.2980  0.2837 -0.5095
    4CHTO   H27 1647   7.976   6.311   1.686 -0.7200 -1.2088 -0.9657
    4CHTO   C18 1648   7.961   6.463   1.539 -0.6839  0.3128 -0.2918
    4CHTO   O13 1649   8.053   6.421   1.433 -0.1908  0.1597 -0.1240
    4CHTO    H7 1650   8.011   6.439   1.351  0.3586 -2.3210 -0.9989
    4CHTO    O2 1651   7.653   6.448   1.944 -0.1841  0.6575  0.5429
    4CHTO    C1 1652   7.702   6.467   2.078  0.4503  0.0108  0.4258
    4CHTO   H14 1653   7.807   6.500   2.079  0.3143  0.4583  2.1832
    4CHTO    C2 1654   7.699   6.333   2.178 -0.1016  0.2056 -0.0006
    4CHTO   H15 1655   7.598   6.288   2.176 -0.6713  1.4963 -1.1607
    4CHTO    O6 1656   7.799   6.245   2.123  0.4292 -0.2566  0.3544
    4CHTO    H1 1657   7.841   6.182   2.179 -1.2950 -1.2037  0.6254
    4CHTO    C3 1658   7.729   6.381   2.329  0.5208  0.6012 -0.3069
    4CHTO   H16 1659   7.829   6.427   2.341 -0.6195  2.9027  0.5831
    4CHTO    N1 1660   7.724   6.267   2.431 -0.2555  0.0299 -0.0003
    4CHTO    H8 1661   7.820   6.217   2.427  0.3568  1.1640  0.1598
    4CHTO    H9 1662   7.641   6.202   2.410  1.0642 -0.9435 -2.3669
    4CHTO    C4 1663   7.633   6.501   2.358  0.2092  0.2310  0.2011
    4CHTO   H17 1664   7.530   6.468   2.367  0.4329 -1.0489 -1.6930
    4CHTO    O1 1665   7.653   6.607   2.263 -0.3600 -0.0085 -0.6738
    4CHTO    C5 1666   7.611   6.584   2.134  0.2094 -0.4330 -0.7107
    4CHTO   H18 1667   7.506   6.558   2.124 -0.0356  0.5569 -0.7934
    4CHTO   C16 1668   7.633   6.714   2.046  0.1470  0.4880 -0.6258
    4CHTO   O11 1669   7.561   6.821   2.105  0.3249 -0.5463  0.0245
    4CHTO    H5 1670   7.592   6.906   2.081 -1.0938  0.1381  0.5212
    4CHTO    O3 1671   7.676   6.564   2.481  0.5071 -0.4341  0.3546
    4CHTO    C6 1672   7.584   6.666   2.530  0.6069 -0.3465 -0.4380
    4CHTO   H19 1673   7.507   6.702   2.461  0.0711 -1.6617 -0.5272
    4CHTO    C8 1674   7.501   6.604   2.652  0.1265 -0.6537  0.3182
    4CHTO   H21 1675   7.572   6.552   2.716  1.3368  0.1170 -0.3757
    4CHTO    O7 1676   7.404   6.503   2.614  0.2451  0.1809 -0.7160
    4CHTO    H2 1677   7.433   6.414   2.620 -0.4115  0.0031 -0.0904
    4CHTO   C12 1678   7.426   6.724   2.730  0.4451  0.4909  0.2860
    4CHTO   H25 1679   7.345   6.757   2.663  2.9748  1.9984 -2.1244
    4CHTO    N3 1680   7.367   6.667   2.854 -0.9040  0.2017  0.0034
    4CHTO   H12 1681   7.294   6.594   2.824 -0.5575 -0.6502  1.2314
    4CHTO   H13 1682   7.318   6.738   2.919 -0.5359  1.5766 -1.1776
    4CHTO   C15 1683   7.513   6.855   2.748 -0.3346  0.2277 -0.0410
    4CHTO   H28 1684   7.596   6.841   2.818  1.7068  4.5084 -1.4111
    4CHTO   O10 1685   7.413   6.988   2.793  0.2632  0.4513 -0.2113
    4CHTO    H4 1686   7.451   7.072   2.777 -1.9098  1.3122 -1.0631
    4CHTO    O5 1687   7.568   6.890   2.621  0.4273  0.3695 -0.1077
    4CHTO   C10 1688   7.665   6.799   2.573  0.1609 -0.2327  0.0598
    4CHTO   H23 1689   7.740   6.784   2.651 -0.1596 -0.4787  0.3183
    4CHTO   C17 1690   7.735   6.864   2.457 -0.5173 -0.7715  0.2378
    4CHTO   O12 1691   7.820   6.970   2.487 -0.1468  0.3088 -0.1263
    4CHTO    H6 1692   7.901   6.935   2.518 -0.8174 -2.0129 -0.8774
    5CHTO  H203 1693   7.556   4.037   3.311 -0.2471 -0.3508 -0.7730
    5CHTO   O82 1694   7.543   3.971   3.376 -0.0742  0.0282 -0.3550
    5CHTO  C123 1695   7.521   4.008   3.518 -0.4696  0.1042 -0.0777
    5CHTO  H227 1696   7.609   4.067   3.548  1.6147 -2.2407 -1.3765
    5CHTO   O77 1697   7.397   4.083   3.514 -0.2503  0.0134 -0.3453
    5CHTO  C118 1698   7.369   4.168   3.637 -0.5794  0.5022 -0.4515
    5CHTO  H222 1699   7.452   4.239   3.650 -1.1188  0.8305  1.2058
    5CHTO  C125 1700   7.229   4.242   3.608 -0.2857  0.3236 -0.1305
    5CHTO   O84 1701   7.233   4.310   3.488  0.1944 -0.1151  0.5000
    5CHTO  H205 1702   7.147   4.341   3.467  0.7874  1.5451  0.4377
    5CHTO  C114 1703   7.351   4.073   3.756  0.3761 -0.0563  0.4794
    5CHTO  H218 1704   7.253   4.026   3.747  0.4121  0.1681 -1.1676
    5CHTO  C116 1705   7.459   3.963   3.762  0.3213  0.2517 -0.1488
    5CHTO  H220 1706   7.550   3.994   3.817  1.9605  0.4282 -2.8828
    5CHTO   O79 1707   7.409   3.865   3.856  0.0571  0.2503  0.2433
    5CHTO  H201 1708   7.341   3.820   3.810  1.8167 -2.5399  0.2144
    5CHTO  C120 1709   7.493   3.894   3.624  0.3420 -0.3777  0.6178
    5CHTO  H224 1710   7.400   3.844   3.591  0.8821 -0.9686 -0.0557
    5CHTO   N21 1711   7.606   3.797   3.630 -0.4932  0.2689  0.4063
    5CHTO  H211 1712   7.686   3.830   3.566  0.8213 -2.0461  0.7642
    5CHTO  H212 1713   7.583   3.694   3.606 -0.5681 -0.0445  1.7974
    5CHTO   O75 1714   7.354   4.162   3.870  0.0582  0.4233 -0.6653
    5CHTO  C112 1715   7.220   4.151   3.966 -0.4040  0.5637 -0.2729
    5CHTO  H216 1716   7.198   4.045   3.982 -0.6878  0.6589 -0.0297
    5CHTO   O73 1717   7.112   4.218   3.913  0.4046 -0.0064  0.4841
    5CHTO  C113 1718   6.990   4.225   3.987 -0.2618  0.2935  0.4398
    5CHTO  H217 1719   6.945   4.125   3.996 -0.7698  0.3557 -1.3161
    5CHTO  C124 1720   6.887   4.304   3.904 -0.2002 -0.0207 -0.2006
    5CHTO   O83 1721   6.939   4.428   3.877  0.2292 -0.6969  0.3018
    5CHTO  H204 1722   6.873   4.492   3.859  0.4094 -0.7268 -0.4758
    5CHTO  C109 1723   7.010   4.287   4.125  0.0857  0.4478  0.2792
    5CHTO  H213 1724   7.046   4.390   4.110 -4.3114  2.1109  0.6740
    5CHTO  C110 1725   7.126   4.209   4.197 -0.0380 -0.1114 -0.0533
    5CHTO  H214 1726   7.099   4.105   4.218 -0.4877 -0.2077 -1.0994
    5CHTO   O78 1727   7.152   4.273   4.325  0.0471 -0.4819 -0.6310
    5CHTO  H200 1728   7.243   4.293   4.334 -0.1666  0.4820 -0.5230
    5CHTO  C111 1729   7.255   4.208   4.108  0.8679 -0.3581 -0.5278
    5CHTO  H215 1730   7.296   4.310   4.101 -1.4517  0.7301  1.1104
    5CHTO   N19 1731   7.367   4.124   4.171 -0.2151  0.1471 -0.0506
    5CHTO  H207 1732   7.439   4.183   4.226 -1.4919  0.5493  1.1995
    5CHTO  H208 1733   7.338   4.063   4.255 -1.9742  1.5127  0.3573
    5CHTO   O74 1734   6.885   4.281   4.197  0.3932 -0.5091  0.3368
    5CHTO  C115 1735   6.862   4.414   4.308  0.3115  0.3647 -0.0534
    5CHTO  H219 1736   6.939   4.412   4.386  1.9170 -1.4447 -1.6236
    5CHTO   O76 1737   6.880   4.556   4.236 -0.1054 -0.1013  0.0639
    5CHTO  C122 1738   6.775   4.579   4.148 -0.4844 -0.3468  0.9682
    5CHTO  H226 1739   6.771   4.502   4.070  2.1144  2.6549 -2.3263
    5CHTO  C126 1740   6.806   4.711   4.067  0.1544  0.1439  0.0656
    5CHTO   O85 1741   6.928   4.706   4.001 -0.6801  0.0492  0.4687
    5CHTO  H206 1742   7.004   4.721   4.054 -0.5676 -1.7223  0.8361
    5CHTO  C121 1743   6.639   4.603   4.227  0.1681 -0.9215  0.1707
    5CHTO  H225 1744   6.611   4.711   4.233  3.6208 -0.0037  0.3530
    5CHTO   O81 1745   6.531   4.546   4.152  0.0866  0.1188  0.1802
    5CHTO  H202 1746   6.548   4.510   4.067 -0.2828 -0.3076  0.2884
    5CHTO  C119 1747   6.648   4.543   4.370  0.2170  0.0126  0.1708
    5CHTO  H223 1748   6.721   4.602   4.425  0.1717 -0.3313  0.6028
    5CHTO  C117 1749   6.715   4.400   4.366  0.7286 -0.2094 -0.2342
    5CHTO  H221 1750   6.661   4.328   4.305 -2.5151  0.5521  1.5929
    5CHTO   N20 1751   6.705   4.336   4.504 -0.5651  0.4732  0.2303
    5CHTO  H209 1752   6.603   4.303   4.510 -0.6892  0.8911  0.3774
    5CHTO  H210 1753   6.768   4.249   4.514 -0.4657  0.1100 -2.9965
    5CHTO   O80 1754   6.519   4.556   4.462 -0.5867 -0.4410 -0.1216
    5CHTO  C103 1755   6.370   4.512   4.394 -0.0274 -0.2041  0.0945
    5CHTO  H190 1756   6.370   4.527   4.286  0.9494  1.5112  0.3193
    5CHTO  C101 1757   6.312   4.370   4.425 -0.0933  0.0401  0.1011
    5CHTO  H188 1758   6.331   4.347   4.529 -1.0280  0.3077  0.3321
    5CHTO   O68 1759   6.388   4.274   4.332  0.2115  0.0310 -0.3570
    5CHTO  H168 1760   6.335   4.197   4.343 -1.6569  1.2648 -0.4620
    5CHTO   C99 1761   6.151   4.362   4.411  0.3769  0.9923  0.6109
    5CHTO  H186 1762   6.128   4.372   4.303  2.0828 -1.9207 -0.0769
    5CHTO   N17 1763   6.093   4.235   4.455  0.5242  0.0212  0.5761
    5CHTO  H174 1764   6.123   4.150   4.395  1.4156  0.1320  0.8641
    5CHTO  H175 1765   6.120   4.225   4.559 -1.7209 -1.1930  1.0673
    5CHTO   C97 1766   6.089   4.484   4.482  0.1444  0.5368  0.0681
    5CHTO  H184 1767   6.119   4.476   4.587 -2.4185 -0.1691  0.7818
    5CHTO   O64 1768   6.137   4.608   4.425  0.3113 -0.5307 -0.1925
    5CHTO  C104 1769   6.280   4.628   4.455  0.1122  0.4002 -0.2717
    5CHTO  H191 1770   6.286   4.624   4.564  0.3372 -1.2310 -0.3286
    5CHTO  C108 1771   6.336   4.758   4.404 -0.1389 -0.5680  0.0677
    5CHTO   O71 1772   6.430   4.800   4.501 -0.1268 -1.3446  0.1725
    5CHTO  H171 1773   6.392   4.866   4.556 -0.2729 -0.6505 -0.7465
    5CHTO   O62 1774   5.939   4.489   4.473 -0.0504  0.8453 -0.4438
    5CHTO   C91 1775   5.865   4.561   4.372 -0.3169 -0.9201 -0.1511
    5CHTO  H178 1776   5.906   4.662   4.368 -2.0648  0.1025  4.7072
    5CHTO   C92 1777   5.719   4.576   4.435  0.6075 -0.6875  0.0779
    5CHTO  H179 1778   5.735   4.618   4.536 -0.4119 -0.5387  0.1840
    5CHTO   O66 1779   5.640   4.672   4.362  0.0768  0.0466 -0.3477
    5CHTO  H166 1780   5.635   4.751   4.412  0.2951  1.1118 -1.9959
    5CHTO   C93 1781   5.643   4.435   4.423 -0.5742 -0.0767 -0.4753
    5CHTO  H180 1782   5.538   4.458   4.399  0.1250  2.1355 -1.5556
    5CHTO   N16 1783   5.641   4.353   4.551 -0.4506  0.9500 -0.1041
    5CHTO  H172 1784   5.594   4.409   4.631 -2.2638  0.8356 -1.0735
    5CHTO  H173 1785   5.589   4.262   4.527  2.1163 -1.0350  1.5324
    5CHTO   C94 1786   5.698   4.342   4.305  0.0471  0.2631  0.5559
    5CHTO  H181 1787   5.783   4.282   4.339  0.7633  1.8458  1.6241
    5CHTO   O61 1788   5.740   4.429   4.197 -0.0210 -0.7272 -0.1827
    5CHTO   C95 1789   5.862   4.497   4.228 -0.1310  0.1273  0.1405
    5CHTO  H182 1790   5.944   4.426   4.220 -1.3864 -1.4045  0.4935
    5CHTO  C106 1791   5.890   4.602   4.107 -0.1085 -0.0221 -0.6407
    5CHTO   O69 1792   6.013   4.676   4.129  0.1169 -0.2119  0.5699
    5CHTO  H169 1793   5.994   4.750   4.184  0.4366 -0.3190  0.8291
    5CHTO   O63 1794   5.580   4.237   4.250  0.3871 -0.5125  0.4755
    5CHTO   C96 1795   5.615   4.169   4.112 -0.2953  0.2425 -0.6727
    5CHTO  H183 1796   5.670   4.245   4.055 -0.0196  0.4622 -0.1085
    5CHTO   C98 1797   5.491   4.122   4.018  0.6377  0.7978  0.0229
    5CHTO  H185 1798   5.412   4.198   4.007 -0.3187 -0.2914 -0.6506
    5CHTO   O67 1799   5.539   4.102   3.883  0.0276  0.0219 -0.7698
    5CHTO  H167 1800   5.576   4.181   3.850  2.0445 -0.5798 -0.0473
    5CHTO  C102 1801   5.429   3.987   4.072  1.0355 -0.5415  0.3290
    5CHTO  H189 1802   5.372   3.948   3.987  0.1455 -0.3482  0.8271
    5CHTO   N18 1803   5.334   3.988   4.190 -0.2971  0.1757 -0.5585
    5CHTO  H176 1804   5.366   3.933   4.277  0.0097  0.6361 -0.3820
    5CHTO  H177 1805   5.241   3.938   4.166 -0.2570  0.1157 -0.5924
    5CHTO  C105 1806   5.542   3.881   4.083 -0.3937 -0.3987 -0.2373
    5CHTO  H192 1807   5.524   3.822   4.173  0.3564 -2.8629 -1.6502
    5CHTO   O65 1808   5.680   3.926   4.081  0.3540 -0.2711  0.3437
    5CHTO  C100 1809   5.717   4.050   4.144  0.6982  0.3238  0.3421
    5CHTO  H187 1810   5.727   4.038   4.253  0.6167  4.8611  0.9659
    5CHTO  C107 1811   5.854   4.067   4.087  0.5420  0.0668  0.0342
    5CHTO   O70 1812   5.924   4.159   4.167  0.1909  0.1001  0.2694
    5CHTO  H170 1813   6.007   4.174   4.126  0.5741 -0.7219  0.7316
    5CHTO   O57 1814   5.527   3.796   3.962  0.3811  0.3725  0.2936
    5CHTO   C85 1815   5.521   3.656   3.960  0.2403  0.4542  0.1553
    5CHTO  H157 1816   5.444   3.631   4.037  0.5785 -1.4262 -0.0952
    5CHTO   C83 1817   5.653   3.597   4.005  0.1464  0.1646 -0.3057
    5CHTO  H155 1818   5.655   3.629   4.109 -0.8733 -1.6193  0.2851
    5CHTO   O56 1819   5.766   3.659   3.934  0.0178 -0.7713  0.5392
    5CHTO  H135 1820   5.757   3.753   3.936  3.7079 -0.3032 -0.7951
    5CHTO   C81 1821   5.658   3.436   3.996 -0.1347  0.1538 -0.3425
    5CHTO  H153 1822   5.580   3.394   4.059 -0.5983 -0.1187 -1.0954
    5CHTO   N14 1823   5.776   3.371   4.062 -0.1277 -0.0131 -0.4666
    5CHTO  H141 1824   5.865   3.375   4.002  0.0097 -1.5824 -0.3844
    5CHTO  H142 1825   5.758   3.274   4.104 -0.1632 -0.1863 -0.8851
    5CHTO   C79 1826   5.638   3.394   3.841  0.1419 -0.3820  0.2572
    5CHTO  H151 1827   5.625   3.286   3.839  2.5279 -0.6678 -1.7377
    5CHTO   O52 1828   5.511   3.457   3.806 -0.5498  0.5651 -0.0342
    5CHTO   C86 1829   5.482   3.599   3.819  0.9346  0.2176  0.1328
    5CHTO  H158 1830   5.539   3.645   3.736  1.1601 -0.3636 -0.0376
    5CHTO   C90 1831   5.330   3.624   3.789 -1.0395  0.2082  0.0401
    5CHTO   O60 1832   5.303   3.763   3.780  0.1565 -0.0906 -0.4887
    5CHTO  H138 1833   5.214   3.786   3.800 -0.2215 -2.2210  0.4635
    5CHTO   O50 1834   5.746   3.430   3.756 -0.0111  0.2645 -0.5201
    5CHTO   C73 1835   5.808   3.418   3.629 -0.1139  0.6057  0.0436
    5CHTO  H145 1836   5.734   3.416   3.547 -1.9968  2.6110  1.6197
    5CHTO   C74 1837   5.897   3.293   3.624 -0.5247  0.1707  0.4419
    5CHTO  H146 1838   5.838   3.202   3.644  1.2222 -1.1131 -0.1000
    5CHTO   O54 1839   5.945   3.276   3.492  0.2025  0.1533  0.0231
    5CHTO  H133 1840   6.010   3.208   3.494  0.9115  0.7875 -0.9004
    5CHTO   C75 1841   6.006   3.314   3.731 -0.7737  0.1088  0.8629
    5CHTO  H147 1842   5.966   3.312   3.833 -1.1551 -0.2235  0.7107
    5CHTO   N13 1843   6.101   3.198   3.738  0.2749  0.1494 -0.3844
    5CHTO  H139 1844   6.183   3.219   3.671 -0.9344 -0.8639 -2.2339
    5CHTO  H140 1845   6.144   3.182   3.835  0.2703 -0.9650 -0.5563
    5CHTO   C76 1846   6.079   3.458   3.716 -0.5747  0.2136  0.1361
    5CHTO  H148 1847   6.148   3.445   3.633 -0.4460  2.5519 -0.1491
    5CHTO   O49 1848   5.975   3.558   3.711 -0.2421 -0.0156  0.1676
    5CHTO   C77 1849   5.883   3.542   3.602  0.5436 -0.0804 -0.0135
    5CHTO  H149 1850   5.941   3.532   3.510  0.0472  0.1837 -0.3553
    5CHTO   C88 1851   5.796   3.674   3.590  0.0272 -0.2763  0.2284
    5CHTO   O58 1852   5.731   3.695   3.479  0.6016 -0.1286  0.0667
    5CHTO  H136 1853   5.724   3.786   3.458  0.9348 -0.2932 -0.8028
    5CHTO   O51 1854   6.145   3.473   3.827  0.1523 -0.1490  0.6269
    5CHTO   C78 1855   6.250   3.598   3.831 -0.8734  0.8607  0.6735
    5CHTO  H150 1856   6.227   3.687   3.770 -0.7014  0.7888  0.5031
    5CHTO   C80 1857   6.389   3.556   3.790  0.5109 -0.1662 -0.9468
    5CHTO  H152 1858   6.420   3.468   3.850  0.4561 -0.8521 -1.9227
    5CHTO   O55 1859   6.369   3.536   3.650 -0.1939 -0.1650  0.2459
    5CHTO  H134 1860   6.391   3.451   3.618  1.0994 -0.4494  1.8740
    5CHTO   C84 1861   6.503   3.667   3.814  0.4141 -0.2909 -0.8594
    5CHTO  H156 1862   6.473   3.758   3.763 -4.1178 -0.7204  0.8631
    5CHTO   N15 1863   6.638   3.626   3.757  0.0532 -0.4644 -0.2099
    5CHTO  H143 1864   6.696   3.581   3.835 -1.7186 -1.9458  0.3048
    5CHTO  H144 1865   6.686   3.711   3.716  0.9625 -0.2469  1.2658
    5CHTO   C87 1866   6.504   3.705   3.956  0.3542 -0.9325  0.5069
    5CHTO  H159 1867   6.530   3.621   4.020 -1.0424 -2.2604 -0.6183
    5CHTO   O53 1868   6.355   3.750   3.983 -0.3317 -0.4907  0.2386
    5CHTO   C82 1869   6.256   3.650   3.978 -0.4627  0.4210  0.4478
    5CHTO  H154 1870   6.291   3.576   4.050 -1.4776 -0.0401  0.4679
    5CHTO   C89 1871   6.116   3.700   4.033  0.2235  0.9233 -0.5010
    5CHTO   O59 1872   6.037   3.593   4.085 -0.3179 -0.0403  0.2897
    5CHTO  H137 1873   6.080   3.550   4.157  0.4891  0.2399 -0.0219
    5CHTO   O45 1874   6.612   3.829   3.983 -0.0545  0.1781 -0.6592
    5CHTO   C67 1875   6.609   3.869   4.123  0.1206 -0.1278 -0.0002
    5CHTO  H124 1876   6.511   3.852   4.168 -0.5305  0.0982 -1.3165
    5CHTO   C65 1877   6.721   3.777   4.195  0.3317 -0.2632 -0.0941
    5CHTO  H122 1878   6.772   3.729   4.112  0.7777  0.1783 -0.0756
    5CHTO   O44 1879   6.648   3.672   4.264  0.4417 -0.0195 -0.0116
    5CHTO  H102 1880   6.711   3.604   4.278  0.2106 -0.1663  0.3088
    5CHTO   C63 1881   6.819   3.870   4.274  0.0784  0.4878  0.5743
    5CHTO  H120 1882   6.874   3.937   4.208  0.3794  0.3644  0.7007
    5CHTO   N11 1883   6.926   3.799   4.352 -0.5968  0.1900 -0.5678
    5CHTO  H108 1884   7.022   3.826   4.313  0.0819  0.7724  1.4522
    5CHTO  H109 1885   6.908   3.694   4.362 -2.1028  0.5330  0.5073
    5CHTO   C61 1886   6.739   3.977   4.362  0.2753  0.4862 -0.1620
    5CHTO  H118 1887   6.809   4.043   4.415 -0.8075  2.1622 -0.7976
    5CHTO   O40 1888   6.656   4.061   4.272  0.3816  0.0682  0.3702
    5CHTO   C68 1889   6.634   4.028   4.134 -0.1350 -0.2624  0.5307
    5CHTO  H125 1890   6.728   4.043   4.077  1.5210 -2.5655  2.5303
    5CHTO   C72 1891   6.528   4.121   4.077 -0.3359 -0.2716 -0.5231
    5CHTO   O48 1892   6.519   4.106   3.936 -0.1292 -0.2567  0.0456
    5CHTO  H105 1893   6.450   4.044   3.922 -0.4583  0.4150 -1.4713
    5CHTO   O38 1894   6.654   3.912   4.461  0.3776 -0.3285  0.0835
    5CHTO   C55 1895   6.573   3.997   4.542 -0.4636  0.4647 -0.0009
    5CHTO  H112 1896   6.575   4.100   4.505  0.0577  0.9847  1.4348
    5CHTO   C56 1897   6.633   3.991   4.694 -0.1268  0.3317  0.1969
    5CHTO  H113 1898   6.637   3.885   4.724  2.1534  0.6843  1.2928
    5CHTO   O42 1899   6.768   4.046   4.696  0.3023  0.7412  0.6960
    5CHTO  H100 1900   6.769   4.112   4.629  0.3168  0.6441  0.5989
    5CHTO   C57 1901   6.535   4.073   4.793  0.0665 -0.7333 -0.2847
    5CHTO  H114 1902   6.556   4.179   4.775 -0.3682 -0.6267 -0.1648
    5CHTO   N10 1903   6.564   4.048   4.933  0.0405 -0.0813 -0.0519
    5CHTO  H106 1904   6.523   4.132   4.987  0.6976  0.2117 -0.0056
    5CHTO  H107 1905   6.513   3.959   4.965 -2.3597  0.4308 -2.3224
    5CHTO   C58 1906   6.386   4.042   4.761  0.0353  0.8507  0.4060
    5CHTO  H115 1907   6.356   3.939   4.788  1.9106  0.1320 -0.2060
    5CHTO   O37 1908   6.359   4.054   4.623  0.2581  0.0736  0.0067
    5CHTO   C59 1909   6.424   3.956   4.540 -0.0914  0.1039  0.4491
    5CHTO  H116 1910   6.411   3.858   4.586  0.6520 -0.9747 -1.5871
    5CHTO   C70 1911   6.374   3.938   4.400  0.2704  0.7081  0.6089
    5CHTO   O46 1912   6.234   3.944   4.384  0.6630  0.3650 -0.4148
    5CHTO  H103 1913   6.212   3.936   4.293 -2.7776 -0.1983  0.4116
    5CHTO   O39 1914   6.278   4.138   4.839 -0.1018  0.0464 -0.4466
    5CHTO   C60 1915   6.136   4.132   4.819 -0.2955  0.4303  0.2445
    5CHTO  H117 1916   6.109   4.165   4.719 -1.4807  1.6843  0.9543
    5CHTO   C62 1917   6.077   3.986   4.822 -0.1548 -0.1615 -0.0681
    5CHTO  H119 1918   6.119   3.939   4.731 -2.4249 -1.2102 -0.5902
    5CHTO   O43 1919   6.118   3.925   4.949 -0.2077  0.3627 -0.1461
    5CHTO  H101 1920   6.206   3.954   4.962  0.6633 -1.9751 -0.5203
    5CHTO   C66 1921   5.918   3.988   4.796  0.2491 -0.4549 -0.3448
    5CHTO  H123 1922   5.897   4.026   4.696 -2.3391 -0.3918  0.1984
    5CHTO   N12 1923   5.866   3.850   4.799  0.2931  0.2679 -0.4511
    5CHTO  H110 1924   5.924   3.805   4.878 -0.3567  1.4727  0.7410
    5CHTO  H111 1925   5.889   3.802   4.705  0.4081 -1.2581  0.3244
    5CHTO   C69 1926   5.846   4.080   4.897 -0.0551  0.0299  0.3449
    5CHTO  H126 1927   5.869   4.037   4.997  2.6772  1.0941  0.2242
    5CHTO   O41 1928   5.904   4.222   4.883 -0.3864  0.0510  0.2513
    5CHTO   C64 1929   6.055   4.229   4.917 -0.2512  0.1856  0.7884
    5CHTO  H121 1930   6.066   4.200   5.024 -0.4351 -0.5083  0.6215
    5CHTO   C71 1931   6.110   4.368   4.905 -0.1225  0.4700  0.2774
    5CHTO   O47 1932   6.037   4.461   4.986  0.2427  0.0196  0.7000
    5CHTO  H104 1933   6.052   4.441   5.076 -1.7056 -0.3977  0.9463
    5CHTO   O34 1934   5.693   4.087   4.875 -0.7878 -0.5638 -0.1553
    5CHTO   C49 1935   5.600   4.077   4.998  0.5630  0.6171  1.0277
    5CHTO   H91 1936   5.623   3.985   5.052 -1.4477 -1.0612 -0.8879
    5CHTO   C47 1937   5.456   4.066   4.953  0.7280  0.5941 -0.1968
    5CHTO   H89 1938   5.403   4.041   5.047 -0.0408 -0.2220 -0.8406
    5CHTO   O33 1939   5.456   3.951   4.873  0.0388 -0.1225 -0.1696
    5CHTO   H70 1940   5.419   3.874   4.912 -0.8571  0.0463 -0.6662
    5CHTO   C45 1941   5.395   4.202   4.887  0.5792 -0.0908 -0.2723
    5CHTO   H87 1942   5.458   4.234   4.803 -0.4736  0.4625 -0.8557
    5CHTO    N8 1943   5.257   4.178   4.836 -0.0568  0.3559  0.0884
    5CHTO   H75 1944   5.259   4.110   4.751 -0.0278 -1.3177  1.3981
    5CHTO   H76 1945   5.215   4.117   4.915  0.4115  1.2009  0.9863
    5CHTO   C43 1946   5.408   4.315   5.006  0.7218  0.0868 -0.1290
    5CHTO   H85 1947   5.379   4.413   4.967 -0.4955  0.1483  0.8910
    5CHTO   O29 1948   5.542   4.312   5.051 -0.2360 -0.1531  0.5194
    5CHTO   C50 1949   5.618   4.198   5.083  0.1632  0.5495 -0.8496
    5CHTO   H92 1950   5.724   4.228   5.074  0.5110 -0.6318 -0.8051
    5CHTO   C54 1951   5.617   4.151   5.225 -0.2007 -0.0795 -0.0281
    5CHTO   O36 1952   5.640   4.257   5.318  0.0214  0.2124 -0.4021
    5CHTO   H72 1953   5.684   4.333   5.285 -0.9159  0.8047 -0.3062
    5CHTO   O27 1954   5.323   4.278   5.111  0.4239  0.2088  0.4493
    5CHTO   C37 1955   5.231   4.361   5.187  1.0640  0.1526 -0.0422
    5CHTO   H79 1956   5.271   4.461   5.209  1.1580  0.3207 -0.9843
    5CHTO   C38 1957   5.098   4.389   5.104 -0.1679 -1.0919  0.4082
    5CHTO   H80 1958   5.059   4.298   5.055 -2.0668  1.2059 -2.5566
    5CHTO   O31 1959   5.136   4.486   5.004 -0.2474  0.2752 -0.6199
    5CHTO   H68 1960   5.136   4.447   4.919  2.9113 -1.4835  0.1153
    5CHTO   C39 1961   4.976   4.440   5.197 -0.8142  0.3627  0.4895
    5CHTO   H81 1962   4.991   4.547   5.214 -0.3040  0.1547  1.3291
    5CHTO    N7 1963   4.844   4.436   5.128  0.4532 -0.5977 -0.7801
    5CHTO   H73 1964   4.840   4.511   5.051 -2.4086 -0.5569 -0.6282
    5CHTO   H74 1965   4.829   4.345   5.071 -1.6591 -0.9577  0.3239
    5CHTO   C40 1966   4.978   4.361   5.332  1.0577  0.4080 -0.0299
    5CHTO   H82 1967   4.951   4.257   5.310 -1.2774  1.1454 -0.7421
    5CHTO   O26 1968   5.102   4.373   5.398 -0.1524  0.0480 -0.6308
    5CHTO   C41 1969   5.209   4.294   5.338 -0.3184 -0.8203 -0.6840
    5CHTO   H83 1970   5.180   4.188   5.336  2.3402 -1.6656  2.0430
    5CHTO   C52 1971   5.340   4.300   5.421  0.0100 -0.5473 -0.2310
    5CHTO   O35 1972   5.330   4.205   5.540  0.1814  0.2830 -0.2128
    5CHTO   H71 1973   5.406   4.200   5.595  0.1407  1.6355 -0.0059
    5CHTO   O28 1974   4.866   4.415   5.413 -0.3213  0.0471 -0.2899
    5CHTO   C42 1975   4.834   4.373   5.548  0.0078 -0.1105 -0.5678
    5CHTO   H84 1976   4.726   4.391   5.557  0.4102  2.2203  0.0099
    5CHTO   C44 1977   4.897   4.463   5.667 -0.4015  0.3775  0.3901
    5CHTO   H86 1978   5.000   4.487   5.645 -0.6947  1.5364  0.2309
    5CHTO   O32 1979   4.817   4.586   5.664 -0.0735  0.5581  0.6680
    5CHTO   H69 1980   4.858   4.649   5.721  0.5994 -1.0343  1.9680
    5CHTO   C48 1981   4.896   4.403   5.812  0.7672 -0.5650 -0.9219
    5CHTO   H90 1982   4.792   4.404   5.846  1.1451 -1.9490  0.3483
    5CHTO    N9 1983   4.970   4.472   5.926  0.2900 -0.2503  0.1921
    5CHTO   H77 1984   4.904   4.521   5.996 -0.6587  0.6215 -1.2786
    5CHTO   H78 1985   5.056   4.521   5.882  1.3809 -0.9997  1.4632
    5CHTO   C51 1986   4.938   4.251   5.793  0.6557 -0.6694  0.2483
    5CHTO   H93 1987   5.038   4.258   5.750  0.5219  1.4625  0.2351
    5CHTO   O30 1988   4.846   4.180   5.712  0.7659  0.5485 -0.6486
    5CHTO   C46 1989   4.857   4.223   5.574 -0.5658 -1.0383  0.0632
    5CHTO   H88 1990   4.961   4.203   5.547  0.1056  2.3140 -0.0470
    5CHTO   C53 1991   4.756   4.145   5.491 -0.0993  0.1120  0.5994
    5CHTO   O72 1992   4.767   4.006   5.498  0.4343 -0.4743  0.1914
    5CHTO  H199 1993   4.693   3.976   5.450  1.2428 -1.4661 -0.4727
    5CHTO   O22 1994   4.943   4.174   5.916  0.0426 -0.4184  0.1645
    5CHTO   C31 1995   5.052   4.077   5.945 -0.2396 -1.3962 -0.0683
    5CHTO   H59 1996   5.012   4.024   6.034 -1.4706  1.6138  1.2395
    5CHTO   C29 1997   5.071   3.976   5.831  0.4434  0.1498  0.5215
    5CHTO   H57 1998   5.057   4.031   5.737  0.0293 -2.3874 -0.9677
    5CHTO   O21 1999   4.958   3.883   5.836 -0.0928 -0.1118 -0.1130
    5CHTO   H37 2000   4.978   3.811   5.892  2.1092 -0.1752 -0.9033
    5CHTO   C27 2001   5.207   3.901   5.826  0.3789  0.4023 -0.9104
    5CHTO   H55 2002   5.210   3.828   5.908  2.9983 -0.0395 -1.3301
    5CHTO    N5 2003   5.221   3.827   5.699  0.0930 -0.4778  0.5567
    5CHTO   H43 2004   5.294   3.747   5.705  1.0025 -0.0186 -3.1057
    5CHTO   H44 2005   5.225   3.905   5.624 -1.0505 -0.1982  0.7814
    5CHTO   C25 2006   5.321   4.001   5.863 -0.5092 -0.1891 -0.6603
    5CHTO   H53 2007   5.301   4.084   5.793  2.7393  0.5273 -0.8072
    5CHTO   O17 2008   5.292   4.051   5.999 -0.0948 -0.2594 -0.2566
    5CHTO   C32 2009   5.181   4.141   6.002 -0.0159 -0.0972 -0.0853
    5CHTO   H60 2010   5.195   4.238   5.954 -0.1064  0.4542  0.9956
    5CHTO   C36 2011   5.166   4.171   6.154 -0.3836  0.0514 -0.2972
    5CHTO   O25 2012   5.264   4.259   6.201  0.5884 -0.4247  0.3465
    5CHTO   H40 2013   5.343   4.210   6.212 -0.0557 -1.5715 -0.0551
    5CHTO   O15 2014   5.488   3.940   5.861  0.9829 -0.2311  0.4525
    5CHTO   C19 2015   5.581   4.039   5.841 -0.3080  0.7518 -0.2123
    5CHTO   H47 2016   5.532   4.125   5.793  0.6891  1.8262  0.6468
    5CHTO   C20 2017   5.645   4.094   5.976  0.3165  0.1737 -0.0175
    5CHTO   H48 2018   5.674   4.012   6.044 -1.0318  0.9931  1.5850
    5CHTO   O19 2019   5.540   4.163   6.045 -0.2518 -0.2463  0.1006
    5CHTO   H35 2020   5.486   4.210   5.984  1.4620  0.9649 -0.5105
    5CHTO   C21 2021   5.766   4.190   5.960  0.3333  0.4375 -0.2808
    5CHTO   H49 2022   5.728   4.292   5.962  1.1059  0.7461 -1.2765
    5CHTO    N4 2023   5.847   4.199   6.085 -0.2724 -0.0113 -0.1586
    5CHTO   H41 2024   5.937   4.259   6.080 -0.4763  0.6856  3.1339
    5CHTO   H42 2025   5.786   4.240   6.164  1.7396  0.2017  1.3194
    5CHTO   C22 2026   5.862   4.145   5.842  0.0818  0.2155 -0.6714
    5CHTO   H50 2027   5.932   4.070   5.880 -1.5842 -0.1034  1.8916
    5CHTO   O14 2028   5.799   4.094   5.725 -0.0493  0.0268  0.5363
    5CHTO   C23 2029   5.697   3.994   5.739  0.0007  0.4499 -0.1901
    5CHTO   H51 2030   5.753   3.906   5.774  2.3422 -0.0092 -4.6538
    5CHTO   C34 2031   5.641   3.965   5.601  0.2050  0.0317 -0.3085
    5CHTO   O23 2032   5.575   3.837   5.583  0.0556 -0.0584 -0.0153
    5CHTO   H38 2033   5.501   3.843   5.526  0.2378 -0.5590 -0.3027
    5CHTO   O16 2034   5.939   4.258   5.796  0.5363 -0.1747  0.2104
    5CHTO   C24 2035   6.091   4.215   5.726 -0.3963  0.3869  0.4528
    5CHTO   H52 2036   6.111   4.108   5.724 -0.0067  0.4285  1.7942
    5CHTO   C26 2037   6.201   4.287   5.810  0.1937  0.5097 -0.0523
    5CHTO   H54 2038   6.182   4.396   5.803 -2.2065  0.0058 -1.7028
    5CHTO   O20 2039   6.185   4.243   5.945  0.4196 -0.2785  0.5037
    5CHTO   H36 2040   6.264   4.266   5.991 -0.1493  3.0920 -0.0730
    5CHTO   C30 2041   6.336   4.250   5.737  0.8353 -0.2298  0.9709
    5CHTO   H58 2042   6.343   4.141   5.731 -3.2854 -0.4961 -0.3738
    5CHTO    N6 2043   6.455   4.283   5.812 -0.9857 -0.8439 -0.1919
    5CHTO   H45 2044   6.455   4.226   5.904 -0.7068  0.3231  0.5335
    5CHTO   H46 2045   6.547   4.264   5.759 -0.0388 -1.1383  1.5290
    5CHTO   C33 2046   6.332   4.305   5.584  0.3050 -0.1185 -0.0094
    5CHTO   H61 2047   6.304   4.411   5.588 -1.5048 -0.5796 -0.0644
    5CHTO   O18 2048   6.223   4.230   5.522 -0.0997  0.5558 -0.1674
    5CHTO   C28 2049   6.094   4.259   5.574 -0.4353  0.6618 -0.3700
    5CHTO   H56 2050   6.064   4.364   5.564 -0.0499  0.8605  0.5050
    5CHTO   C35 2051   5.983   4.179   5.503  0.1875 -0.4253  0.1923
    5CHTO   O24 2052   5.952   4.233   5.373  0.3378 -0.0837 -0.3949
    5CHTO   H39 2053   5.885   4.178   5.337  0.9980 -1.8108  0.9872
    5CHTO    O9 2054   6.454   4.293   5.508  0.0129 -0.6257  0.0414
    5CHTO   C13 2055   6.500   4.145   5.457  0.3183  0.4357  0.1702
    5CHTO   H26 2056   6.418   4.075   5.481 -1.1400  1.4201 -1.8406
    5CHTO   C11 2057   6.632   4.109   5.529 -0.4861 -0.6987  0.3438
    5CHTO   H24 2058   6.609   4.103   5.637 -1.1515  0.0194  0.2506
    5CHTO    O8 2059   6.726   4.209   5.522  0.5787 -0.5509  0.4031
    5CHTO    H3 2060   6.687   4.292   5.539  1.3902 -0.3335  1.2647
    5CHTO    C9 2061   6.690   3.980   5.464 -0.3991 -0.0292 -0.0884
    5CHTO   H22 2062   6.610   3.905   5.455 -0.2276 -0.4211  1.5597
    5CHTO    N2 2063   6.783   3.901   5.552 -0.1549 -0.4816  0.6891
    5CHTO   H10 2064   6.820   3.960   5.634  1.9125 -0.0600 -0.5034
    5CHTO   H11 2065   6.870   3.864   5.498 -0.1595  1.9727 -1.0928
    5CHTO    C7 2066   6.723   4.009   5.317 -0.0742  0.4373  0.6633
    5CHTO   H20 2067   6.693   3.917   5.262 -2.0833  2.8602 -2.4529
    5CHTO    O4 2068   6.642   4.110   5.255  0.0302 -0.2766 -0.0663
    5CHTO   C14 2069   6.506   4.138   5.299 -0.4246 -0.9793  0.2658
    5CHTO   H27 2070   6.450   4.052   5.256  0.7486 -0.6174 -2.0788
    5CHTO   C18 2071   6.453   4.270   5.231  0.0014  0.7122 -0.0394
    5CHTO   O13 2072   6.314   4.255   5.237  0.3599  0.2044 -0.4168
    5CHTO    H7 2073   6.279   4.301   5.311  0.1902  0.2499 -0.5260
    5CHTO    O2 2074   6.882   4.052   5.289 -0.0798  0.3906  0.7802
    5CHTO    C1 2075   6.927   4.010   5.162 -0.2875  0.4877  0.5957
    5CHTO   H14 2076   6.843   3.995   5.091  1.1978  0.9327 -1.2947
    5CHTO    C2 2077   7.009   3.870   5.171 -0.4099 -0.2856 -0.0471
    5CHTO   H15 2078   7.093   3.881   5.241 -0.2065  0.8758 -0.4615
    5CHTO    O6 2079   6.918   3.775   5.228  0.4564  0.5643 -0.0152
    5CHTO    H1 2080   6.961   3.692   5.222  1.4733  0.9613  1.5671
    5CHTO    C3 2081   7.072   3.831   5.029  0.5980  0.3423 -0.4862
    5CHTO   H16 2082   6.990   3.800   4.963  1.2380 -1.8248 -0.2942
    5CHTO    N1 2083   7.160   3.710   5.044  0.0886 -0.3378  0.6626
    5CHTO    H8 2084   7.261   3.748   5.051 -0.4162  0.7952  2.2359
    5CHTO    H9 2085   7.159   3.655   4.951  0.0521  0.9422 -0.1160
    5CHTO    C4 2086   7.141   3.956   4.967 -0.5948 -0.1122 -0.0171
    5CHTO   H17 2087   7.234   3.968   5.023  0.3530 -3.7471 -0.6831
    5CHTO    O1 2088   7.071   4.079   4.977  0.1449  0.1111  0.5108
    5CHTO    C5 2089   7.022   4.113   5.104 -0.2188 -0.0373  0.1076
    5CHTO   H18 2090   7.106   4.126   5.173 -0.3502 -2.1035  0.6930
    5CHTO   C16 2091   6.951   4.249   5.087  0.2024 -0.4155 -0.3000
    5CHTO   O11 2092   6.851   4.251   4.983 -0.1026 -0.0151 -0.6030
    5CHTO    H5 2093   6.786   4.189   5.009  0.7128 -0.4061  0.5717
    5CHTO    O3 2094   7.168   3.935   4.828  0.7443 -0.8316  0.4995
    5CHTO    C6 2095   7.290   4.003   4.777  0.1917 -0.7277 -0.2102
    5CHTO   H19 2096   7.325   4.086   4.839 -3.4472  1.2458 -0.6755
    5CHTO    C8 2097   7.397   3.886   4.770 -0.6415  0.2602  0.5517
    5CHTO   H21 2098   7.355   3.801   4.717 -1.7604  0.6859  0.7270
    5CHTO    O7 2099   7.429   3.847   4.904 -0.6130 -0.2551  0.1243
    5CHTO    H2 2100   7.471   3.913   4.955 -0.7701 -0.5442  0.6327
    5CHTO   C12 2101   7.514   3.945   4.691 -0.0034 -0.6946 -0.5435
    5CHTO   H25 2102   7.564   4.022   4.755 -1.0032 -0.0006 -0.5773
    5CHTO    N3 2103   7.617   3.843   4.667 -0.7749  1.0570  0.2033
    5CHTO   H12 2104   7.583   3.758   4.610  0.0744  0.1447  1.0291
    5CHTO   H13 2105   7.696   3.891   4.610 -0.1839 -0.3906 -0.2209
    5CHTO   C15 2106   7.472   4.008   4.555 -0.2325  0.5649  0.1174
    5CHTO   H28 2107   7.434   3.936   4.482 -0.2793 -0.1245  0.8276
    5CHTO   O10 2108   7.592   4.114   4.495  0.0916 -0.1382  0.6636
    5CHTO    H4 2109   7.666   4.072   4.454 -1.1758 -0.9861 -0.7881
    5CHTO    O5 2110   7.375   4.110   4.584 -0.3649  0.8156  0.6261
    5CHTO   C10 2111   7.255   4.067   4.643 -0.6443  0.1344  0.5845
    5CHTO   H23 2112   7.199   4.000   4.578 -0.3262  0.2375  0.2120
    5CHTO   C17 2113   7.170   4.196   4.655  0.0354 -0.3480 -0.1616
    5CHTO   O12 2114   7.030   4.161   4.659  0.6141 -0.1254  0.0819
    5CHTO    H6 2115   6.989   4.163   4.744  0.1091  0.0740 -0.1639
    6CHTO  H203 2116   7.660   5.501   1.734 -1.1067 -0.2935 -1.4686
    6CHTO   O82 2117   7.573   5.482   1.764 -0.6826 -0.3459 -0.2171
    6CHTO  C123 2118   7.476   5.560   1.697  0.3355  0.0499  0.0311
    6CHTO  H227 2119   7.512   5.575   1.594  0.1814 -1.5917 -0.2696
    6CHTO   O77 2120   7.353   5.478   1.683  0.6460 -0.8337  0.0737
    6CHTO  C118 2121   7.249   5.541   1.604  0.3291  0.6390  0.0611
    6CHTO  H222 2122   7.287   5.575   1.507  0.0134  0.2801 -0.1910
    6CHTO  C125 2123   7.133   5.439   1.580  0.3262  0.3553  0.1192
    6CHTO   O84 2124   7.183   5.309   1.546  0.4821  0.5620 -0.3781
    6CHTO  H205 2125   7.122   5.252   1.502 -0.9254  0.7213  1.2897
    6CHTO  C114 2126   7.197   5.659   1.687  0.1339 -0.0228 -0.3241
    6CHTO  H218 2127   7.158   5.616   1.779 -0.8278  0.1414 -0.6573
    6CHTO  C116 2128   7.307   5.761   1.716 -0.0196  0.0462  0.2228
    6CHTO  H220 2129   7.319   5.799   1.612 -0.5676  0.8619  0.4480
    6CHTO   O79 2130   7.253   5.872   1.790  0.1396  0.3439  0.4068
    6CHTO  H201 2131   7.312   5.945   1.787  0.2813  0.2772  1.4102
    6CHTO  C120 2132   7.436   5.691   1.780  1.2781  0.1288  0.3575
    6CHTO  H224 2133   7.408   5.667   1.884  1.1604  0.2330  0.3505
    6CHTO   N21 2134   7.548   5.788   1.792 -0.0876  0.3185 -0.1039
    6CHTO  H211 2135   7.612   5.773   1.878  1.0428 -1.1984 -1.1711
    6CHTO  H212 2136   7.510   5.889   1.797 -0.7419  0.1201 -1.0003
    6CHTO   O75 2137   7.092   5.710   1.605  0.2492 -0.0971 -0.6060
    6CHTO  C112 2138   6.956   5.750   1.662  0.1387  0.4844  0.4414
    6CHTO  H216 2139   6.981   5.780   1.765 -0.3993 -0.2707  0.7965
    6CHTO   O73 2140   6.877   5.628   1.659 -0.1569  0.5284 -0.1559
    6CHTO  C113 2141   6.737   5.632   1.684 -0.4502 -0.0602  0.5780
    6CHTO  H217 2142   6.715   5.651   1.791  0.7042  3.2579  0.2973
    6CHTO  C124 2143   6.674   5.493   1.643 -0.4744  0.0916  0.6726
    6CHTO   O83 2144   6.701   5.468   1.509  0.2351  0.3896  0.9506
    6CHTO  H204 2145   6.638   5.406   1.479  0.6544  1.8127 -3.1464
    6CHTO  C109 2146   6.668   5.739   1.601  0.2188  0.8002  0.4741
    6CHTO  H213 2147   6.667   5.707   1.496 -0.2809 -2.7654  1.4877
    6CHTO  C110 2148   6.734   5.880   1.602 -0.0817  0.3148 -0.0546
    6CHTO  H214 2149   6.715   5.930   1.697  1.4879  0.6463  0.0930
    6CHTO   O78 2150   6.672   5.967   1.502  0.3938 -0.6724 -0.2519
    6CHTO  H200 2151   6.581   5.976   1.523 -0.0843 -0.7135 -2.1988
    6CHTO  C111 2152   6.889   5.866   1.578 -0.0489 -0.0732  0.2327
    6CHTO  H215 2153   6.909   5.841   1.473 -1.1559 -2.1942  0.5043
    6CHTO   N19 2154   6.965   5.991   1.605 -0.4744  0.5445 -0.3814
    6CHTO  H207 2155   7.070   5.982   1.582 -0.3457 -0.4366  0.5459
    6CHTO  H208 2156   6.913   6.082   1.579 -2.4230  0.1692  2.0150
    6CHTO   O74 2157   6.527   5.751   1.638  0.4101  1.2364  0.2176
    6CHTO  C115 2158   6.494   5.824   1.774 -0.3610  0.4205 -0.7503
    6CHTO  H219 2159   6.583   5.835   1.836 -0.4177 -0.9522 -0.4042
    6CHTO   O76 2160   6.439   5.972   1.747  0.1376  0.6669 -0.1927
    6CHTO  C122 2161   6.322   5.977   1.667  0.0141 -0.0453  0.2540
    6CHTO  H226 2162   6.350   5.975   1.561  1.2358 -0.4347  0.5786
    6CHTO  C126 2163   6.254   6.112   1.686  0.3883  0.0774  0.1513
    6CHTO   O85 2164   6.335   6.224   1.639 -0.5532 -0.5939  0.0677
    6CHTO  H206 2165   6.294   6.309   1.645 -1.0677 -0.7538 -1.2171
    6CHTO  C121 2166   6.224   5.852   1.688 -0.1311 -0.2965 -0.1771
    6CHTO  H225 2167   6.122   5.894   1.679  1.1932  2.5949 -2.6285
    6CHTO   O81 2168   6.231   5.760   1.583  0.2768 -0.5493 -0.2584
    6CHTO  H202 2169   6.195   5.799   1.505 -0.5117 -2.8776 -1.0812
    6CHTO  C119 2170   6.243   5.780   1.821 -0.3339  0.0668 -0.6785
    6CHTO  H223 2171   6.214   5.857   1.892 -1.2308 -0.2225 -0.7199
    6CHTO  C117 2172   6.391   5.734   1.854 -0.5597  0.6185  0.1720
    6CHTO  H221 2173   6.421   5.637   1.813 -0.3485  0.5179  0.5569
    6CHTO   N20 2174   6.423   5.735   2.004 -0.5573  0.0340  0.5396
    6CHTO  H209 2175   6.528   5.744   2.024 -0.5058  0.1194  0.2241
    6CHTO  H210 2176   6.359   5.796   2.065 -1.1730 -1.1399  1.1012
    6CHTO   O80 2177   6.129   5.666   1.847 -0.0621  0.3292  0.4046
    6CHTO  C103 2178   6.067   5.644   1.991  0.9919 -0.7969 -0.0896
    6CHTO  H190 2179   6.145   5.647   2.067  0.9142 -2.0211  0.0352
    6CHTO  C101 2180   5.947   5.742   2.017 -0.2702 -0.1745  0.2129
    6CHTO  H188 2181   5.876   5.759   1.937 -1.7858 -3.7258  0.7235
    6CHTO   O68 2182   6.032   5.876   2.035 -0.2912  0.2338  0.0069
    6CHTO  H168 2183   5.967   5.944   2.040 -0.8961 -0.2915 -0.5038
    6CHTO   C99 2184   5.864   5.696   2.151  0.2936  0.6604  0.2332
    6CHTO  H186 2185   5.931   5.697   2.239  1.9199  0.0743 -0.9874
    6CHTO   N17 2186   5.749   5.787   2.188  0.4845  0.5260 -0.6821
    6CHTO  H174 2187   5.777   5.886   2.223 -2.4411  0.8564  0.8715
    6CHTO  H175 2188   5.677   5.802   2.109  1.4358  1.9286 -1.3065
    6CHTO   C97 2189   5.825   5.544   2.127 -0.2505 -0.4311  0.1862
    6CHTO  H184 2190   5.764   5.545   2.036  1.3174  0.2197 -0.8727
    6CHTO   O64 2191   5.949   5.473   2.114 -0.1469  0.2568  0.4499
    6CHTO  C104 2192   6.016   5.500   1.991  0.0486  0.4995  0.2719
    6CHTO  H191 2193   5.948   5.479   1.909  1.1242  2.9442 -1.2908
    6CHTO  C108 2194   6.136   5.398   1.979 -0.2335 -0.3581  0.2263
    6CHTO   O71 2195   6.082   5.263   1.968  0.3163 -0.0732 -0.1293
    6CHTO  H171 2196   6.135   5.191   1.996  1.6811 -0.0558 -2.5312
    6CHTO   O62 2197   5.745   5.484   2.231 -0.4834 -0.1342  0.2828
    6CHTO   C91 2198   5.678   5.361   2.184 -0.4614  0.1718 -0.1567
    6CHTO  H178 2199   5.704   5.346   2.079 -1.8347  1.1025 -0.6474
    6CHTO   C92 2200   5.525   5.396   2.174  0.3354 -0.8312 -0.1122
    6CHTO  H179 2201   5.515   5.499   2.137 -2.4165 -1.1220 -0.2936
    6CHTO   O66 2202   5.484   5.316   2.061  0.0520  0.5495 -0.3735
    6CHTO  H166 2203   5.461   5.364   1.984 -1.5128  0.2789 -0.0907
    6CHTO   C93 2204   5.441   5.361   2.295 -0.9115 -0.1842 -1.7317
    6CHTO  H180 2205   5.336   5.379   2.265 -1.1581  0.2657 -0.6234
    6CHTO   N16 2206   5.454   5.461   2.403  0.0563  0.4640  0.5098
    6CHTO  H172 2207   5.386   5.439   2.484 -1.4703  1.1287 -0.5641
    6CHTO  H173 2208   5.555   5.461   2.442  0.3841 -1.0424 -0.2639
    6CHTO   C94 2209   5.454   5.206   2.344  0.8883  0.1262 -0.5481
    6CHTO  H181 2210   5.474   5.192   2.450  0.2110 -1.0952 -0.5775
    6CHTO   O61 2211   5.574   5.145   2.274 -0.4651 -0.3373 -0.1213
    6CHTO   C95 2212   5.696   5.223   2.273  0.2866  0.0239  0.5575
    6CHTO  H182 2213   5.719   5.251   2.376 -0.8795  2.4782  0.1955
    6CHTO  C106 2214   5.807   5.130   2.216 -0.0262 -1.1019 -0.2865
    6CHTO   O69 2215   5.935   5.193   2.231  0.0517  0.5016  0.8372
    6CHTO  H169 2216   5.934   5.215   2.322 -2.5499  0.3249  0.8777
    6CHTO   O63 2217   5.335   5.133   2.290 -0.8985 -0.2272 -0.1791
    6CHTO   C96 2218   5.348   4.961   2.285 -0.0640  0.0111  0.5996
    6CHTO  H183 2219   5.442   4.932   2.331  0.1066  0.7970  0.7554
    6CHTO   C98 2220   5.355   4.909   2.139 -0.2529  0.0133 -0.0121
    6CHTO  H185 2221   5.260   4.932   2.087  0.1017  2.6963  0.4341
    6CHTO   O67 2222   5.456   4.983   2.072 -0.2342 -0.0407 -0.1954
    6CHTO  H167 2223   5.505   4.929   2.013 -0.2123 -1.2755  0.9404
    6CHTO  C102 2224   5.386   4.750   2.142  0.2171 -0.4073  0.1054
    6CHTO  H189 2225   5.494   4.746   2.160  0.1144  0.1207  0.8823
    6CHTO   N18 2226   5.365   4.688   2.003 -0.0540 -0.0121 -0.1470
    6CHTO  H176 2227   5.271   4.719   1.959  0.2850  1.6519  0.2930
    6CHTO  H177 2228   5.450   4.691   1.937  1.5072 -0.3716  1.8079
    6CHTO  C105 2229   5.307   4.681   2.264  0.0066 -0.7960  0.2025
    6CHTO  H192 2230   5.250   4.593   2.234 -2.6723  0.8942  0.1767
    6CHTO   O65 2231   5.205   4.758   2.327  0.0242 -0.5987 -0.1622
    6CHTO  C100 2232   5.224   4.899   2.356  0.4306  0.3584  0.0205
    6CHTO  H187 2233   5.138   4.961   2.329 -0.6240 -0.0526  2.3632
    6CHTO  C107 2234   5.240   4.906   2.509  0.4182 -0.2471  0.4268
    6CHTO   O70 2235   5.120   4.891   2.585  0.1627 -0.0612  0.4019
    6CHTO  H170 2236   5.100   4.801   2.599  0.8908 -0.1742  0.7495
    6CHTO   O57 2237   5.416   4.645   2.346  0.1825  0.2530 -0.1098
    6CHTO   C85 2238   5.425   4.516   2.412 -0.5659 -0.1648  0.6890
    6CHTO  H157 2239   5.410   4.442   2.331 -0.4818  0.6921 -0.1268
    6CHTO   C83 2240   5.297   4.504   2.509  0.2692  0.6116  0.3859
    6CHTO  H155 2241   5.210   4.487   2.446  0.4847  1.3284 -0.0987
    6CHTO   O56 2242   5.286   4.619   2.595 -0.2286 -0.8997  0.0909
    6CHTO  H135 2243   5.195   4.633   2.614 -0.2952  1.0122 -1.5164
    6CHTO   C81 2244   5.318   4.375   2.598 -0.1112 -0.6602 -0.2899
    6CHTO  H153 2245   5.322   4.286   2.536  0.1482 -0.0502 -1.1578
    6CHTO   N14 2246   5.198   4.348   2.685  0.0119  0.4542 -0.1010
    6CHTO  H141 2247   5.124   4.287   2.637  0.5894 -0.1754 -0.2001
    6CHTO  H142 2248   5.227   4.298   2.774 -0.0020  0.5718 -0.0300
    6CHTO   C79 2249   5.459   4.392   2.680 -0.2696 -0.4996  0.0341
    6CHTO  H151 2250   5.478   4.298   2.731  0.2591 -1.4058 -1.7554
    6CHTO   O52 2251   5.566   4.403   2.587  0.2948  0.3797 -0.4315
    6CHTO   C86 2252   5.560   4.498   2.484 -0.1428 -0.1694  0.0647
    6CHTO  H158 2253   5.580   4.593   2.537 -2.0549 -0.4423  1.2884
    6CHTO   C90 2254   5.681   4.485   2.389  0.0221 -0.0060 -0.1566
    6CHTO   O60 2255   5.807   4.485   2.444  0.3386  0.0608  0.4981
    6CHTO  H138 2256   5.810   4.557   2.505 -0.7397  0.9138 -0.4353
    6CHTO   O50 2257   5.460   4.496   2.782  0.1021 -0.3199  0.1050
    6CHTO   C73 2258   5.533   4.555   2.896 -0.4451  1.0432  0.4262
    6CHTO  H145 2259   5.539   4.489   2.984  3.1813  2.0462  1.0111
    6CHTO   C74 2260   5.451   4.677   2.936 -0.1810 -0.3415 -0.1996
    6CHTO  H146 2261   5.348   4.641   2.933 -0.3444 -0.3798  3.5444
    6CHTO   O54 2262   5.484   4.700   3.076 -0.3291  0.5432 -0.4011
    6CHTO  H133 2263   5.475   4.619   3.123  0.6143  0.4263 -0.4147
    6CHTO   C75 2264   5.471   4.807   2.846  0.0585 -0.5646  0.1610
    6CHTO  H147 2265   5.403   4.801   2.760 -2.0394  0.5583  1.6886
    6CHTO   N13 2266   5.426   4.933   2.898  0.0242  0.3673  0.0834
    6CHTO  H139 2267   5.461   4.956   2.997 -0.9522 -2.1208  1.0473
    6CHTO  H140 2268   5.443   5.009   2.824  0.1848 -0.0477 -0.3114
    6CHTO   C76 2269   5.629   4.827   2.794  0.1279 -0.2589  0.8605
    6CHTO  H148 2270   5.689   4.865   2.876  2.1460 -1.3703 -0.0654
    6CHTO   O49 2271   5.676   4.696   2.749 -1.3861  0.5234  0.1389
    6CHTO   C77 2272   5.683   4.601   2.857 -0.8890  0.7334  0.6789
    6CHTO  H149 2273   5.730   4.640   2.947 -0.4881  0.0547  0.7723
    6CHTO   C88 2274   5.760   4.479   2.817 -0.4812 -0.2172 -0.1866
    6CHTO   O58 2275   5.898   4.517   2.796  0.1340  0.1928  0.6923
    6CHTO  H136 2276   5.929   4.533   2.883  0.8061 -1.5782  0.7954
    6CHTO   O51 2277   5.639   4.917   2.686 -0.5678 -0.1669 -0.1770
    6CHTO   C78 2278   5.773   5.035   2.700 -0.6663 -1.0143  0.2220
    6CHTO  H150 2279   5.815   5.024   2.802 -1.6622 -1.1631  0.6236
    6CHTO   C80 2280   5.720   5.181   2.687 -0.2191 -0.1661  0.7891
    6CHTO  H152 2281   5.669   5.195   2.590  0.2262  0.0125  0.5781
    6CHTO   O55 2282   5.626   5.205   2.792 -0.1938 -0.0982  0.7441
    6CHTO  H134 2283   5.585   5.288   2.779  2.0379  1.2370  1.8661
    6CHTO   C84 2284   5.835   5.297   2.681 -1.1179  0.0843  0.2427
    6CHTO  H156 2285   5.878   5.293   2.781  0.4471  0.9614 -0.3679
    6CHTO   N15 2286   5.787   5.431   2.651 -0.2249  0.0336 -0.2499
    6CHTO  H143 2287   5.754   5.490   2.734 -1.3152 -0.3676 -0.4030
    6CHTO  H144 2288   5.710   5.426   2.577  0.2933 -0.9435 -0.7363
    6CHTO   C87 2289   5.954   5.258   2.588  0.4687  0.1250 -0.1631
    6CHTO  H159 2290   5.939   5.286   2.483  0.2187 -0.8575 -0.3952
    6CHTO   O53 2291   5.985   5.090   2.605 -0.2460  0.6701  0.0698
    6CHTO   C82 2292   5.878   5.007   2.590 -0.8335 -0.0005  0.1905
    6CHTO  H154 2293   5.844   5.019   2.487  0.0811 -1.8955 -0.3599
    6CHTO   C89 2294   5.920   4.858   2.600 -0.1106  0.5463 -0.0201
    6CHTO   O59 2295   5.984   4.817   2.476  0.1929 -0.0233 -0.1208
    6CHTO  H137 2296   5.910   4.799   2.422 -1.1132 -0.0940  1.6285
    6CHTO   O45 2297   6.096   5.335   2.651 -0.1511  0.2973 -0.8408
    6CHTO   C67 2298   6.197   5.353   2.551  0.3802  0.5557 -0.1016
    6CHTO  H124 2299   6.193   5.272   2.478 -1.4145  0.0459  0.5417
    6CHTO   C65 2300   6.178   5.491   2.477  0.0471 -0.2284 -0.7914
    6CHTO  H122 2301   6.081   5.528   2.509  1.0682  0.4299  1.6312
    6CHTO   O44 2302   6.168   5.465   2.338 -0.2755  0.0024  0.8463
    6CHTO  H102 2303   6.078   5.467   2.313  0.0867 -2.6413 -0.8805
    6CHTO   C63 2304   6.296   5.589   2.516  0.4743  0.3549 -0.4067
    6CHTO  H120 2305   6.300   5.593   2.625 -0.2708 -1.2190 -0.3108
    6CHTO   N11 2306   6.297   5.728   2.468 -0.4835 -0.1397 -0.2670
    6CHTO  H108 2307   6.208   5.782   2.495 -1.2838 -1.6902  0.2210
    6CHTO  H109 2308   6.378   5.781   2.514  0.3084 -0.9469 -0.7298
    6CHTO   C61 2309   6.435   5.525   2.485 -0.2918  0.1507  0.1571
    6CHTO  H118 2310   6.507   5.582   2.546 -0.2422  0.9960 -0.6892
    6CHTO   O40 2311   6.444   5.393   2.531 -0.2575 -0.2728  0.3017
    6CHTO   C68 2312   6.342   5.335   2.615  0.3235  0.4754 -0.2086
    6CHTO  H125 2313   6.337   5.383   2.715 -1.7174 -1.6554  0.7708
    6CHTO   C72 2314   6.392   5.186   2.639  0.3879  0.2867  0.5385
    6CHTO   O48 2315   6.502   5.177   2.726 -0.4107  0.4472  0.0613
    6CHTO  H105 2316   6.498   5.095   2.771  0.2490  1.1086  1.3811
    6CHTO   O38 2317   6.470   5.524   2.345  0.3314  0.3295  0.3128
    6CHTO   C55 2318   6.602   5.483   2.291  0.0975  0.8788  0.5712
    6CHTO  H112 2319   6.662   5.416   2.354  0.9399  0.2384 -0.8919
    6CHTO   C56 2320   6.683   5.615   2.254  0.6185  0.1098  0.0086
    6CHTO  H113 2321   6.606   5.689   2.225  1.6582  0.8447 -0.9302
    6CHTO   O42 2322   6.739   5.672   2.376  0.0578 -0.3485 -0.1529
    6CHTO  H100 2323   6.819   5.629   2.403  1.1104 -0.2642 -2.9493
    6CHTO   C57 2324   6.791   5.591   2.145 -0.3600 -0.5022  0.2093
    6CHTO  H114 2325   6.872   5.540   2.197 -0.9999 -0.5196  1.2054
    6CHTO   N10 2326   6.829   5.720   2.089  0.5325  0.2548  0.2484
    6CHTO  H106 2327   6.822   5.810   2.149  1.3076  1.0702 -0.8746
    6CHTO  H107 2328   6.925   5.711   2.040 -0.2975 -1.3085 -1.1454
    6CHTO   C58 2329   6.748   5.497   2.033  0.7910 -0.4590  0.5304
    6CHTO  H115 2330   6.667   5.540   1.970 -1.0910 -3.4614  0.8215
    6CHTO   O37 2331   6.697   5.376   2.094 -0.1251  0.3436 -0.0822
    6CHTO   C59 2332   6.574   5.404   2.165 -0.2328 -0.7766 -0.4544
    6CHTO  H116 2333   6.501   5.457   2.103  0.8652  1.0252 -0.2315
    6CHTO   C70 2334   6.517   5.262   2.184  0.2540  0.4172 -0.7193
    6CHTO   O46 2335   6.381   5.273   2.229  0.0320  0.0729  0.4499
    6CHTO  H103 2336   6.323   5.219   2.178  1.9698 -1.1965 -0.4738
    6CHTO   O39 2337   6.873   5.452   1.935  0.2409  0.0723 -0.4723
    6CHTO   C60 2338   6.920   5.320   1.948 -0.3271  0.3677 -0.1774
    6CHTO  H117 2339   6.894   5.267   2.040  1.1300  0.2080  0.1604
    6CHTO   C62 2340   6.858   5.230   1.833  0.8188 -0.1172  0.5579
    6CHTO  H119 2341   6.749   5.233   1.855  0.8641  0.5894  0.6924
    6CHTO   O43 2342   6.889   5.285   1.705  0.2857  0.0657  0.3032
    6CHTO  H101 2343   6.960   5.346   1.699  0.0505  0.0614 -3.0001
    6CHTO   C66 2344   6.926   5.082   1.842  0.0853 -0.5101 -0.8163
    6CHTO  H123 2345   6.914   5.052   1.946 -0.7532  1.9573 -0.1635
    6CHTO   N12 2346   6.860   4.983   1.746  0.3749  0.0250 -0.0897
    6CHTO  H110 2347   6.908   4.987   1.649 -0.5467 -3.5450 -0.7754
    6CHTO  H111 2348   6.871   4.883   1.785 -1.1363 -0.6111 -1.2329
    6CHTO   C69 2349   7.083   5.094   1.826 -0.8498  0.5115  0.6817
    6CHTO  H126 2350   7.105   5.134   1.725 -2.7071  0.8768  0.3888
    6CHTO   O41 2351   7.132   5.186   1.936  0.0185  0.4539 -0.9033
    6CHTO   C64 2352   7.074   5.326   1.941 -0.3021  0.6193 -0.1867
    6CHTO  H121 2353   7.102   5.372   1.843  1.8018 -0.0725  0.0650
    6CHTO   C71 2354   7.123   5.401   2.065  0.0721 -0.6929  0.3101
    6CHTO   O47 2355   7.129   5.543   2.050  0.2143 -0.2240 -0.1395
    6CHTO  H104 2356   7.128   5.572   1.961  0.7822  0.4059  0.0535
    6CHTO   O34 2357   7.145   4.945   1.850  0.1294  0.3109  0.2347
    6CHTO   C49 2358   7.278   4.880   1.784 -0.8135 -0.0139  0.0490
    6CHTO   H91 2359   7.245   4.825   1.696 -1.3207  1.0553 -0.4408
    6CHTO   C47 2360   7.342   4.779   1.882  0.1760 -0.3417 -0.6272
    6CHTO   H89 2361   7.413   4.723   1.818  1.4811  1.4132 -0.7603
    6CHTO   O33 2362   7.238   4.689   1.922 -0.0005 -0.1545  0.1349
    6CHTO   H70 2363   7.263   4.599   1.932  0.5156 -0.1775 -1.2589
    6CHTO   C45 2364   7.403   4.850   2.011 -0.2924 -0.3984  0.3766
    6CHTO   H87 2365   7.324   4.847   2.089 -0.1513  0.2755  0.5487
    6CHTO    N8 2366   7.518   4.765   2.051 -0.0479 -0.7849 -0.2942
    6CHTO   H75 2367   7.588   4.750   1.970 -0.4674  0.1648 -0.8368
    6CHTO   H76 2368   7.477   4.670   2.081 -1.0184 -1.2337 -2.8676
    6CHTO   C43 2369   7.428   5.006   1.982 -0.5133 -0.6304 -0.6530
    6CHTO   H85 2370   7.330   5.051   1.998  0.4176  0.0294  3.8982
    6CHTO   O29 2371   7.477   5.025   1.845  0.5241 -0.1551  0.2295
    6CHTO   C50 2372   7.384   4.994   1.742  0.5448 -0.1371  0.5705
    6CHTO   H92 2373   7.336   5.084   1.700  3.8247  0.8517 -1.2930
    6CHTO   C54 2374   7.472   4.950   1.619 -0.3347 -0.3756  0.5488
    6CHTO   O36 2375   7.389   4.919   1.511  0.1027  0.1565 -0.3735
    6CHTO   H72 2376   7.302   4.953   1.513  0.1901  0.3611 -0.0332
    6CHTO   O27 2377   7.522   5.067   2.070  0.6156 -0.3152  0.2179
    6CHTO   C37 2378   7.590   5.183   2.116  0.5438 -0.6481  0.1354
    6CHTO   H79 2379   7.680   5.195   2.053 -1.1909 -2.5177 -2.8032
    6CHTO   C38 2380   7.506   5.311   2.112  0.0700  0.0205  0.1893
    6CHTO   H80 2381   7.423   5.295   2.182  2.4382 -1.3042  2.8572
    6CHTO   O31 2382   7.448   5.332   1.981 -0.0621 -0.3157  0.8419
    6CHTO   H68 2383   7.498   5.396   1.934 -1.8778 -0.2029 -0.9473
    6CHTO   C39 2384   7.594   5.433   2.161 -0.1624  0.1376 -0.1758
    6CHTO   H81 2385   7.687   5.442   2.104 -0.0628  0.3799  0.0219
    6CHTO    N7 2386   7.523   5.568   2.160  0.2345 -0.3697  0.2779
    6CHTO   H73 2387   7.584   5.646   2.202 -0.4855  2.3085 -3.3737
    6CHTO   H74 2388   7.426   5.555   2.205  1.1013 -2.2452  1.6377
    6CHTO   C40 2389   7.631   5.398   2.307 -0.0525 -0.0310 -0.3028
    6CHTO   H82 2390   7.538   5.392   2.362  1.0852  1.9008  1.9290
    6CHTO   O26 2391   7.697   5.270   2.309  0.1022  0.0536  0.0354
    6CHTO   C41 2392   7.630   5.157   2.258  0.6312 -0.3465 -0.0083
    6CHTO   H83 2393   7.544   5.144   2.324  1.8543  1.4825  2.0185
    6CHTO   C52 2394   7.730   5.044   2.271  0.0431  0.0951  0.1940
    6CHTO   O35 2395   7.779   5.028   2.416 -0.4511 -0.0288 -0.2817
    6CHTO   H71 2396   7.859   4.979   2.416 -1.4718 -1.7430  0.1134
    6CHTO   O28 2397   7.728   5.498   2.357 -0.8792  0.5876 -0.5340
    6CHTO   C42 2398   7.763   5.537   2.496 -0.0796  0.2854 -0.0486
    6CHTO   H84 2399   7.872   5.533   2.498  0.0136 -1.0526 -3.3405
    6CHTO   C44 2400   7.707   5.437   2.608  0.2598  0.1682 -0.7735
    6CHTO   H86 2401   7.603   5.410   2.590 -0.0833  0.0669  1.2110
    6CHTO   O32 2402   7.776   5.316   2.591  0.0717 -0.1767 -0.1154
    6CHTO   H69 2403   7.721   5.244   2.620  1.0055  0.2084  2.7802
    6CHTO   C48 2404   7.722   5.499   2.760  0.2547  0.0445 -0.7220
    6CHTO   H90 2405   7.828   5.486   2.782 -0.4523 -1.7019  1.8060
    6CHTO    N9 2406   7.643   5.417   2.852  0.2851  0.7095 -0.4253
    6CHTO   H77 2407   7.683   5.330   2.902 -1.7142 -0.6608 -1.1632
    6CHTO   H78 2408   7.578   5.480   2.912 -0.8637  1.2995 -2.2465
    6CHTO   C51 2409   7.682   5.654   2.765  0.0417 -0.6427 -0.5902
    6CHTO   H93 2410   7.574   5.664   2.749  0.2590  2.2700 -0.5202
    6CHTO   O30 2411   7.760   5.722   2.668 -0.4555 -0.6657  0.3191
    6CHTO   C46 2412   7.722   5.682   2.525  0.2471 -0.5148 -0.4025
    6CHTO   H88 2413   7.615   5.703   2.516  0.2529  1.2017  2.5509
    6CHTO   C53 2414   7.784   5.783   2.426 -0.3442 -0.5053 -0.5801
    6CHTO   O72 2415   7.744   5.917   2.460  0.1680  0.9022 -0.3056
    6CHTO  H199 2416   7.768   5.983   2.397  1.1387  1.5065  0.6648
    6CHTO   O22 2417   7.709   5.714   2.893 -0.2137  0.2907 -0.2836
    6CHTO   C31 2418   7.622   5.831   2.948 -0.3122 -0.2153 -0.4801
    6CHTO   H59 2419   7.659   5.855   3.050 -2.3484 -0.1122  0.2639
    6CHTO   C29 2420   7.630   5.965   2.867 -0.2756 -0.3063 -0.1766
    6CHTO   H57 2421   7.600   5.920   2.772 -0.7740 -1.1936  0.3898
    6CHTO   O21 2422   7.766   6.005   2.859 -0.3376  0.3775  0.2196
    6CHTO   H37 2423   7.792   6.069   2.922  1.7302 -1.7989  1.6508
    6CHTO   C27 2424   7.525   6.076   2.925 -1.2211 -0.1905  0.2966
    6CHTO   H55 2425   7.558   6.102   3.027  2.7094 -0.8572 -0.7342
    6CHTO    N5 2426   7.524   6.198   2.840 -0.5998  0.6906 -0.4031
    6CHTO   H43 2427   7.554   6.285   2.895  1.2896 -1.0030  1.3122
    6CHTO   H44 2428   7.430   6.209   2.788 -1.3826 -2.5475  0.2310
    6CHTO   C25 2429   7.388   6.022   2.954  0.1832 -0.1480  0.0633
    6CHTO   H53 2430   7.328   5.996   2.866  0.2542  1.2889 -0.4258
    6CHTO   O17 2431   7.398   5.902   3.031  0.2248 -0.0110  0.3054
    6CHTO   C32 2432   7.473   5.794   2.975  0.2215  0.5003  0.4784
    6CHTO   H60 2433   7.427   5.748   2.887 -1.4621 -1.1302  2.1513
    6CHTO   C36 2434   7.450   5.677   3.075  0.2491  0.0131  0.4316
    6CHTO   O25 2435   7.320   5.624   3.066  1.0832 -0.0725 -0.2081
    6CHTO   H40 2436   7.321   5.530   3.072  0.1696  0.0147  1.4826
    6CHTO   O15 2437   7.309   6.114   3.035  0.3588  0.6250 -0.2821
    6CHTO   C19 2438   7.179   6.154   3.089  0.2856  0.2123  0.2538
    6CHTO   H47 2439   7.134   6.205   3.002  0.4278 -4.3370 -2.6387
    6CHTO   C20 2440   7.087   6.033   3.121 -1.2616 -0.3074 -0.3552
    6CHTO   H48 2441   7.127   5.975   3.206 -0.0125  1.4397  0.2830
    6CHTO   O19 2442   7.081   5.956   3.004 -0.4813 -0.3768 -0.0688
    6CHTO   H35 2443   7.074   5.864   3.022 -0.6744 -0.1738  0.8951
    6CHTO   C21 2444   6.939   6.071   3.165 -0.2464  0.0120 -0.0037
    6CHTO   H49 2445   6.888   6.113   3.078  0.7752 -0.8227 -1.0232
    6CHTO    N4 2446   6.852   5.958   3.209 -1.1853  0.4951 -0.1775
    6CHTO   H41 2447   6.905   5.922   3.297  1.3423  0.6917 -1.5712
    6CHTO   H42 2448   6.754   5.997   3.235 -1.4985 -0.5940  0.3027
    6CHTO   C22 2449   6.947   6.182   3.271 -0.4769  0.3985  0.0533
    6CHTO   H50 2450   6.971   6.135   3.367 -2.3495 -1.8227 -0.5250
    6CHTO   O14 2451   7.043   6.284   3.233  0.1179  0.2945 -0.1017
    6CHTO   C23 2452   7.176   6.247   3.210 -0.3683  0.5383  0.2540
    6CHTO   H51 2453   7.206   6.197   3.303 -0.6280  1.1791  0.6819
    6CHTO   C34 2454   7.257   6.373   3.190  0.1901  0.4091 -0.1967
    6CHTO   O23 2455   7.277   6.444   3.313  1.2097 -0.2201 -0.0733
    6CHTO   H38 2456   7.251   6.534   3.305 -0.6508 -0.6932  0.4455
    6CHTO   O16 2457   6.825   6.254   3.284 -0.7326 -0.2786  0.6487
    6CHTO   C24 2458   6.818   6.366   3.401  1.0536 -0.1802 -0.5057
    6CHTO   H52 2459   6.875   6.456   3.380 -0.2742  1.1037  1.2110
    6CHTO   C26 2460   6.871   6.314   3.542 -0.1732  0.2583 -0.5851
    6CHTO   H54 2461   6.832   6.211   3.555 -0.5686  0.5457  0.5312
    6CHTO   O20 2462   7.010   6.305   3.531  0.0800 -0.1861 -0.6135
    6CHTO   H36 2463   7.036   6.224   3.492  0.8315  1.0982 -2.8548
    6CHTO   C30 2464   6.830   6.401   3.664 -1.0788  0.2397 -0.0540
    6CHTO   H58 2465   6.884   6.496   3.653  0.0019 -0.4025 -0.3705
    6CHTO    N6 2466   6.864   6.349   3.800 -0.0843  0.8732 -0.7567
    6CHTO   H45 2467   6.971   6.344   3.810 -0.1529  0.6773 -0.1105
    6CHTO   H46 2468   6.827   6.413   3.879  0.0370 -1.7848  1.5274
    6CHTO   C33 2469   6.681   6.443   3.655  0.0787 -0.0437 -0.5847
    6CHTO   H61 2470   6.620   6.352   3.671  0.2936 -0.4154 -1.8287
    6CHTO   O18 2471   6.652   6.498   3.527  0.0987 -0.2222  0.3511
    6CHTO   C28 2472   6.672   6.406   3.418  0.0488  0.2420 -0.6751
    6CHTO   H56 2473   6.609   6.318   3.428  0.3396 -0.1833 -2.4364
    6CHTO   C35 2474   6.624   6.473   3.288 -0.2762  0.2475 -0.5139
    6CHTO   O24 2475   6.502   6.552   3.298 -0.4180  0.1217 -0.5253
    6CHTO   H39 2476   6.448   6.514   3.365  1.3046  1.8150  1.9135
    6CHTO    O9 2477   6.638   6.525   3.763  0.2331  0.4589 -0.5583
    6CHTO   C13 2478   6.475   6.505   3.780  0.0432 -0.7637  0.0596
    6CHTO   H26 2479   6.454   6.398   3.801  0.9600 -0.5705  2.0911
    6CHTO   C11 2480   6.388   6.565   3.659  0.0819  0.0280  0.1442
    6CHTO   H24 2481   6.411   6.516   3.563  2.0438  0.2062  0.4949
    6CHTO    O8 2482   6.424   6.705   3.642 -0.2378 -0.3838 -0.8111
    6CHTO    H3 2483   6.357   6.751   3.596 -0.2165 -0.0630 -0.5203
    6CHTO    C9 2484   6.245   6.534   3.694  0.6091 -0.0788 -0.4082
    6CHTO   H22 2485   6.231   6.425   3.686 -1.6002  0.3244 -2.3307
    6CHTO    N2 2486   6.154   6.586   3.588 -0.4181  0.5768  0.6955
    6CHTO   H10 2487   6.144   6.693   3.581  1.7066  0.7849  0.4314
    6CHTO   H11 2488   6.057   6.540   3.579  0.6453 -1.2716 -1.8948
    6CHTO    C7 2489   6.208   6.585   3.838 -0.7918  0.3504  0.0150
    6CHTO   H20 2490   6.191   6.490   3.892  0.7533  1.4689  2.5666
    6CHTO    O4 2491   6.316   6.662   3.898  0.0268 -0.2646  0.5660
    6CHTO   C14 2492   6.426   6.573   3.920  0.0049 -0.4988  0.1949
    6CHTO   H27 2493   6.392   6.497   3.993 -1.6928 -0.5297 -0.6158
    6CHTO   C18 2494   6.539   6.662   3.989  0.7766 -0.1537  0.1260
    6CHTO   O13 2495   6.636   6.576   4.035 -0.1231 -0.3370 -0.4061
    6CHTO    H7 2496   6.688   6.607   4.107 -1.0395  2.3416 -0.8725
    6CHTO    O2 2497   6.071   6.670   3.841  0.4528 -0.1857  0.5803
    6CHTO    C1 2498   5.992   6.681   3.958 -1.3159 -0.0987  0.2417
    6CHTO   H14 2499   5.905   6.748   3.941 -0.8396  0.4601 -0.0243
    6CHTO    C2 2500   6.078   6.727   4.087  0.3282 -0.2893  0.1761
    6CHTO   H15 2501   6.171   6.669   4.093  1.5188  1.6242  0.1894
    6CHTO    O6 2502   6.120   6.863   4.060 -0.3244 -0.0305 -0.3371
    6CHTO    H1 2503   6.048   6.918   4.034  0.2462  0.7010 -0.4021
    6CHTO    C3 2504   5.993   6.720   4.221  0.1593  0.2613 -0.1734
    6CHTO   H16 2505   5.921   6.801   4.199  0.8730  1.1747  0.8039
    6CHTO    N1 2506   6.079   6.746   4.338 -0.3221 -0.4261 -0.0335
    6CHTO    H8 2507   6.038   6.826   4.397  0.6779 -0.5876  0.8822
    6CHTO    H9 2508   6.094   6.654   4.393  4.2646  0.0525 -0.3492
    6CHTO    C4 2509   5.917   6.581   4.229  0.3033 -0.3051  0.8947
    6CHTO   H17 2510   5.990   6.505   4.254  0.7443  0.0578  0.7138
    6CHTO    O1 2511   5.843   6.553   4.105 -0.3676  0.3043  0.0619
    6CHTO    C5 2512   5.929   6.545   3.991 -0.6588  0.0531 -0.4987
    6CHTO   H18 2513   6.012   6.479   4.016 -1.4297 -1.0839 -0.9187
    6CHTO   C16 2514   5.858   6.489   3.868 -1.3249  0.5998  0.1632
    6CHTO   O11 2515   5.828   6.349   3.871  0.0747 -1.0809  0.2723
    6CHTO    H5 2516   5.782   6.343   3.790 -0.1317 -0.7102  0.3576
    6CHTO    O3 2517   5.817   6.586   4.336 -1.1061 -0.2146 -0.0667
    6CHTO    C6 2518   5.766   6.458   4.384  0.5454  0.4548 -0.1823
    6CHTO   H19 2519   5.787   6.370   4.323 -0.7397 -1.2546  1.7742
    6CHTO    C8 2520   5.810   6.409   4.528 -0.0355 -0.1464 -0.3182
    6CHTO   H21 2521   5.781   6.479   4.606 -0.8688  0.2765 -1.0032
    6CHTO    O7 2522   5.951   6.400   4.525  0.2230  0.0354 -0.1265
    6CHTO    H2 2523   5.985   6.487   4.530  0.0285  0.0389  1.4823
    6CHTO   C12 2524   5.745   6.269   4.562  0.5593 -0.1674 -0.2954
    6CHTO   H25 2525   5.784   6.199   4.485  1.5789  0.6643 -0.5475
    6CHTO    N3 2526   5.784   6.224   4.700  0.0388 -0.2056  0.5154
    6CHTO   H12 2527   5.720   6.143   4.732 -0.9231  0.7225  1.0003
    6CHTO   H13 2528   5.889   6.199   4.706  0.1790  0.5568  1.5433
    6CHTO   C15 2529   5.587   6.272   4.543 -0.1016 -0.3170 -0.3730
    6CHTO   H28 2530   5.543   6.336   4.620  1.8789  2.5850 -1.5202
    6CHTO   O10 2531   5.511   6.131   4.536  0.4807 -0.7141 -1.1420
    6CHTO    H4 2532   5.470   6.104   4.616  0.7699 -0.0067 -0.7475
    6CHTO    O5 2533   5.565   6.329   4.413  0.2784  0.4885 -0.2132
    6CHTO   C10 2534   5.611   6.466   4.386 -0.0319  0.1968  0.3195
    6CHTO   H23 2535   5.576   6.539   4.459 -0.7333 -1.2335  1.4473
    6CHTO   C17 2536   5.543   6.510   4.255 -0.6527 -0.0492  0.1325
    6CHTO   O12 2537   5.402   6.517   4.245 -0.1882 -0.1677 -0.2979
    6CHTO    H6 2538   5.372   6.544   4.330 -0.1680 -1.8928  0.2768
    7CHTO  H203 2539   5.447   3.435   4.367  2.4231 -1.2157 -0.2639
    7CHTO   O82 2540   5.498   3.497   4.415  0.3052  0.1943  0.2417
    7CHTO  C123 2541   5.639   3.496   4.395  0.6816  0.2237  0.7055
    7CHTO  H227 2542   5.656   3.487   4.286 -1.8205 -3.0174  0.4688
    7CHTO   O77 2543   5.689   3.620   4.445  0.5222 -0.4357 -0.5273
    7CHTO  C118 2544   5.831   3.636   4.409  0.6211  0.5127  0.0183
    7CHTO  H222 2545   5.848   3.612   4.303  0.0677  1.1893 -0.2273
    7CHTO  C125 2546   5.870   3.789   4.431 -0.5531 -0.0170  0.6296
    7CHTO   O84 2547   5.997   3.813   4.373  0.1628  0.3488  0.2290
    7CHTO  H205 2548   6.011   3.884   4.313  3.9499  0.4295  1.0882
    7CHTO  C114 2549   5.911   3.545   4.504 -0.1838 -0.6678 -0.5345
    7CHTO  H218 2550   5.902   3.582   4.606  1.7190 -2.1295  0.2085
    7CHTO  C116 2551   5.860   3.400   4.501  0.5984  0.0158 -0.0422
    7CHTO  H220 2552   5.913   3.349   4.418  0.3002  0.3186 -0.4283
    7CHTO   O79 2553   5.892   3.335   4.623 -0.3045 -0.1060  0.1144
    7CHTO  H201 2554   5.853   3.254   4.650 -0.3222 -0.4229 -0.8660
    7CHTO  C120 2555   5.702   3.379   4.482  0.4024 -0.3195 -0.2874
    7CHTO  H224 2556   5.650   3.378   4.580  0.3873 -0.1709 -0.2941
    7CHTO   N21 2557   5.671   3.244   4.429  0.3125 -0.3013  0.1456
    7CHTO  H211 2558   5.668   3.232   4.322  0.4952  0.2657  0.0790
    7CHTO  H212 2559   5.733   3.170   4.478  1.5081 -0.4974 -1.6288
    7CHTO   O75 2560   6.047   3.553   4.465  0.5570 -0.7501 -0.0528
    7CHTO  C112 2561   6.151   3.514   4.582  0.6133 -0.3843  0.2927
    7CHTO  H216 2562   6.164   3.405   4.582 -2.9624 -0.8811  0.8119
    7CHTO   O73 2563   6.100   3.560   4.710  0.0146  0.0428 -0.1031
    7CHTO  C113 2564   6.187   3.517   4.820  0.4301 -0.2015  0.2494
    7CHTO  H217 2565   6.186   3.408   4.838  0.3292  0.0163  1.6642
    7CHTO  C124 2566   6.124   3.575   4.945 -0.2294  0.0195 -0.3467
    7CHTO   O83 2567   6.180   3.534   5.071  0.2588  0.3860  0.2985
    7CHTO  H204 2568   6.150   3.446   5.084 -0.0826  0.6022  0.9852
    7CHTO  C109 2569   6.334   3.570   4.802 -0.1360 -0.3892  0.3258
    7CHTO  H213 2570   6.337   3.680   4.809 -0.0455 -0.4390  1.1496
    7CHTO  C110 2571   6.395   3.526   4.665 -0.9003  0.1643  0.0853
    7CHTO  H214 2572   6.402   3.417   4.661  1.0133  0.1938  2.0351
    7CHTO   O78 2573   6.524   3.588   4.647 -0.1753  0.0770 -0.3179
    7CHTO  H200 2574   6.596   3.531   4.664  1.0767  2.1893  1.5379
    7CHTO  C111 2575   6.296   3.575   4.553 -0.5564  0.5625  0.7566
    7CHTO  H215 2576   6.297   3.685   4.558  0.7936  0.5204  1.6346
    7CHTO   N19 2577   6.339   3.541   4.414 -0.3563 -0.0135 -0.5196
    7CHTO  H207 2578   6.347   3.626   4.348  1.9126 -1.1324 -1.7450
    7CHTO  H208 2579   6.421   3.473   4.400 -0.4017 -0.0192 -0.7665
    7CHTO   O74 2580   6.421   3.517   4.908  0.1255  0.0240  0.0305
    7CHTO  C115 2581   6.556   3.607   4.929  1.3059 -1.2377  0.3609
    7CHTO  H219 2582   6.568   3.677   4.846 -0.0099 -2.5442 -0.9617
    7CHTO   O76 2583   6.544   3.689   5.063 -0.8886  0.1554  0.1126
    7CHTO  C122 2584   6.545   3.605   5.180  0.5651 -0.1577 -0.8320
    7CHTO  H226 2585   6.459   3.541   5.160  0.1873  0.4361 -1.1230
    7CHTO  C126 2586   6.510   3.696   5.309  0.3311  0.3056 -0.1787
    7CHTO   O85 2587   6.367   3.717   5.310  0.2505 -0.3161 -0.3100
    7CHTO  H206 2588   6.352   3.755   5.225 -1.8130 -0.3690  0.0084
    7CHTO  C121 2589   6.666   3.506   5.188  0.6239  0.1408  0.2217
    7CHTO  H225 2590   6.760   3.559   5.211  1.8543 -0.9542 -2.1247
    7CHTO   O81 2591   6.634   3.421   5.295  0.3209  0.2051 -0.4757
    7CHTO  H202 2592   6.692   3.448   5.362  0.7596  2.0166 -1.5460
    7CHTO  C119 2593   6.675   3.418   5.058  0.0580 -0.1935 -0.7333
    7CHTO  H223 2594   6.769   3.364   5.065  0.4737  0.3804 -1.8040
    7CHTO  C117 2595   6.677   3.506   4.924  0.2729 -0.5024  0.6156
    7CHTO  H221 2596   6.663   3.444   4.836 -0.3803 -1.4952  1.4070
    7CHTO   N20 2597   6.807   3.584   4.903 -0.3111  0.0729  0.3317
    7CHTO  H209 2598   6.806   3.666   4.972 -0.7673 -0.0715  0.4982
    7CHTO  H210 2599   6.896   3.529   4.930  1.1051  2.4093  0.4882
    7CHTO   O80 2600   6.573   3.299   5.050  0.0794 -0.5852  0.2683
    7CHTO  C103 2601   6.622   3.154   5.034 -0.3388 -0.5373  0.0323
    7CHTO  H190 2602   6.547   3.095   4.981  0.4307 -0.3606 -1.2672
    7CHTO  C101 2603   6.760   3.124   4.961 -0.3291  0.0952 -0.8681
    7CHTO  H188 2604   6.842   3.182   5.003 -0.5419  1.0202 -1.7358
    7CHTO   O68 2605   6.746   3.158   4.824  0.0805  0.7290  0.2596
    7CHTO  H168 2606   6.776   3.244   4.804 -2.7006  1.5884 -0.4172
    7CHTO   C99 2607   6.805   2.970   4.982  0.2186  0.0326 -0.0132
    7CHTO  H186 2608   6.732   2.904   4.931  1.7454 -0.9346 -0.9484
    7CHTO   N17 2609   6.936   2.936   4.918  0.0910 -0.6430  0.6050
    7CHTO  H174 2610   6.962   3.029   4.870  1.7994 -0.6224  1.5341
    7CHTO  H175 2611   6.921   2.860   4.843  1.0170  0.6209 -0.8861
    7CHTO   C97 2612   6.800   2.927   5.136  0.4543 -0.0520  0.6208
    7CHTO  H184 2613   6.878   2.992   5.178  1.3135  0.1072 -1.1700
    7CHTO   O64 2614   6.671   2.953   5.193 -0.0157  0.1072  0.2715
    7CHTO  C104 2615   6.628   3.093   5.181 -0.2801  0.0637  0.6697
    7CHTO  H191 2616   6.695   3.157   5.238  1.1523 -0.2288 -0.6356
    7CHTO  C108 2617   6.487   3.104   5.241 -0.4085 -0.2599 -0.0872
    7CHTO   O71 2618   6.486   3.071   5.381  1.0481 -1.0032  0.1479
    7CHTO  H171 2619   6.398   3.073   5.413  0.5563 -2.9744 -0.9789
    7CHTO   O62 2620   6.814   2.783   5.155  0.1128  0.0602 -0.2802
    7CHTO   C91 2621   6.847   2.730   5.286  1.0606 -0.3678 -0.4191
    7CHTO  H178 2622   6.918   2.801   5.328 -0.5975  0.1882  1.5793
    7CHTO   C92 2623   6.928   2.600   5.269 -0.2595 -0.2333  0.2580
    7CHTO  H179 2624   7.002   2.611   5.188  0.3376 -0.7936  0.7312
    7CHTO   O66 2625   7.011   2.580   5.383  0.2853 -0.5196  0.6339
    7CHTO  H166 2626   6.959   2.563   5.459  0.0201  0.9335  0.7982
    7CHTO   C93 2627   6.841   2.471   5.255  0.1288  0.0501  0.0713
    7CHTO  H180 2628   6.906   2.390   5.292  0.7904  0.7536  0.4690
    7CHTO   N16 2629   6.812   2.427   5.122 -0.0407 -0.2077  0.5795
    7CHTO  H172 2630   6.706   2.442   5.110  0.2183  1.8370  0.6452
    7CHTO  H173 2631   6.838   2.326   5.094 -1.4510 -0.2020 -0.8232
    7CHTO   C94 2632   6.713   2.480   5.348 -0.0160 -0.0464  0.9732
    7CHTO  H181 2633   6.625   2.494   5.287  0.2705  1.1283  0.8142
    7CHTO   O61 2634   6.707   2.590   5.441 -0.1071 -0.0835 -1.0766
    7CHTO   C95 2635   6.731   2.725   5.399  0.2506  0.6118  0.9414
    7CHTO  H182 2636   6.640   2.772   5.363 -0.5163 -0.8402  0.9710
    7CHTO  C106 2637   6.772   2.799   5.524 -0.0491 -0.4310 -0.3673
    7CHTO   O69 2638   6.653   2.810   5.606  0.0452 -0.5020  0.7107
    7CHTO  H169 2639   6.641   2.902   5.620  0.0515 -0.3071 -0.5043
    7CHTO   O63 2640   6.701   2.332   5.420 -0.4202 -0.5864 -0.0654
    7CHTO   C96 2641   6.548   2.304   5.486  0.4095  0.3940 -0.3321
    7CHTO  H183 2642   6.476   2.325   5.407  1.0743  1.2091 -0.7224
    7CHTO   C98 2643   6.521   2.395   5.612  0.3511  0.9922 -0.1339
    7CHTO  H185 2644   6.513   2.500   5.581  1.2859  1.0951 -0.0434
    7CHTO   O67 2645   6.385   2.368   5.655  0.5971  0.2154 -0.1669
    7CHTO  H167 2646   6.331   2.353   5.580 -2.0994  0.3286  1.6855
    7CHTO  C102 2647   6.628   2.355   5.730  0.2865  0.3670 -0.2172
    7CHTO  H189 2648   6.575   2.364   5.826  0.9516 -0.0029  0.1888
    7CHTO   N18 2649   6.751   2.443   5.740  0.1445  1.0144 -0.5485
    7CHTO  H176 2650   6.800   2.452   5.836 -0.5236  1.1214 -0.2168
    7CHTO  H177 2651   6.722   2.540   5.703  2.5510  1.9997  0.1001
    7CHTO  C105 2652   6.657   2.200   5.728 -0.0047  0.3471 -0.4781
    7CHTO  H192 2653   6.753   2.189   5.678  0.7913  2.3687  0.5675
    7CHTO   O65 2654   6.553   2.122   5.669  0.0945 -0.2244 -0.1714
    7CHTO  C100 2655   6.542   2.147   5.531  1.3742 -0.3743  0.1824
    7CHTO  H187 2656   6.625   2.094   5.481  3.7627  3.9017 -0.6816
    7CHTO  C107 2657   6.410   2.077   5.487 -0.2162 -0.7613 -0.6272
    7CHTO   O70 2658   6.411   1.940   5.518 -0.0180  0.5679  0.2368
    7CHTO  H170 2659   6.372   1.898   5.443  0.8356  1.1302 -0.5273
    7CHTO   O57 2660   6.659   2.148   5.889 -0.2396  0.0057 -0.0500
    7CHTO   C85 2661   6.690   2.010   5.906 -0.1842 -0.0827 -0.1256
    7CHTO  H157 2662   6.732   1.985   5.806  1.5554 -0.0585  0.5925
    7CHTO   C83 2663   6.557   1.917   5.918  0.3044 -0.5446  0.2579
    7CHTO  H155 2664   6.505   1.916   5.822 -1.5060  1.1482  1.1853
    7CHTO   O56 2665   6.467   1.978   6.009 -0.5746 -0.8079 -0.0439
    7CHTO  H135 2666   6.381   1.944   5.994 -1.8597  2.8429 -1.4959
    7CHTO   C81 2667   6.602   1.774   5.952 -0.2302  0.2961  0.1276
    7CHTO  H153 2668   6.657   1.730   5.869 -0.3564  0.4924 -0.0608
    7CHTO   N14 2669   6.486   1.681   5.970  0.5726  0.2692  0.8080
    7CHTO  H141 2670   6.391   1.728   5.950  0.4327 -0.7299 -0.9703
    7CHTO  H142 2671   6.490   1.596   5.906  0.8106  0.7974  0.1037
    7CHTO   C79 2672   6.685   1.773   6.082 -0.9584  0.1977  0.7739
    7CHTO  H151 2673   6.719   1.670   6.095 -2.2888 -0.2850  0.5245
    7CHTO   O52 2674   6.814   1.843   6.064  0.3271 -0.4206  0.2509
    7CHTO   C86 2675   6.800   1.985   6.020  0.4782  0.3027 -0.6163
    7CHTO  H158 2676   6.770   2.043   6.109 -0.1116 -0.1770 -0.4968
    7CHTO   C90 2677   6.934   2.044   5.975 -0.1747  0.5938 -0.7365
    7CHTO   O60 2678   6.933   2.185   5.932 -0.3223 -0.0306 -0.4878
    7CHTO  H138 2679   6.930   2.238   6.009 -0.6681  0.7210 -1.0160
    7CHTO   O50 2680   6.615   1.821   6.194  0.0829 -0.3912  0.0915
    7CHTO   C73 2681   6.622   1.773   6.331 -0.1784  0.1124 -0.3146
    7CHTO  H145 2682   6.723   1.738   6.355  0.1651 -0.4410 -2.4919
    7CHTO   C74 2683   6.515   1.659   6.352 -0.5389  0.1876  0.2984
    7CHTO  H146 2684   6.534   1.576   6.282 -1.5160 -1.2953  1.7570
    7CHTO   O54 2685   6.537   1.601   6.478  0.3405  0.2999 -0.2455
    7CHTO  H133 2686   6.492   1.519   6.480 -2.1956  1.6017 -1.7325
    7CHTO   C75 2687   6.371   1.720   6.341 -0.3863  0.2944 -0.8572
    7CHTO  H147 2688   6.352   1.755   6.238 -1.7489  0.3647 -0.6007
    7CHTO   N13 2689   6.262   1.620   6.357 -0.1150  0.6631 -0.0304
    7CHTO  H139 2690   6.168   1.673   6.353 -0.4628  0.0517  0.0495
    7CHTO  H140 2691   6.274   1.570   6.452  0.8579  2.6257  0.9180
    7CHTO   C76 2692   6.347   1.846   6.440 -0.5532 -0.9730  0.4325
    7CHTO  H148 2693   6.344   1.820   6.546 -0.2957 -0.7042  0.5053
    7CHTO   O49 2694   6.455   1.945   6.423 -0.5873  0.2538 -0.1649
    7CHTO   C77 2695   6.587   1.895   6.430 -0.1673 -0.2416 -0.3814
    7CHTO  H149 2696   6.589   1.849   6.529 -0.1476  2.7530  1.0599
    7CHTO   C88 2697   6.696   2.001   6.429  0.3958  0.2011 -0.7716
    7CHTO   O58 2698   6.715   2.060   6.565  0.5595 -0.2413 -0.3007
    7CHTO  H136 2699   6.801   2.030   6.589  0.5111  0.5729  0.9015
    7CHTO   O51 2700   6.203   1.920   6.389  0.3597  0.2068  0.3658
    7CHTO   C78 2701   6.100   1.971   6.507  0.1587  0.1897 -0.8976
    7CHTO  H150 2702   6.149   1.962   6.607 -3.4551 -2.6551  0.7229
    7CHTO   C80 2703   5.975   1.880   6.520 -0.2576  0.8678  0.7560
    7CHTO  H152 2704   5.928   1.877   6.420 -1.3551 -3.0020  1.2863
    7CHTO   O55 2705   6.032   1.752   6.546 -0.1764  0.2314  0.4785
    7CHTO  H134 2706   6.058   1.754   6.636 -1.2919  0.4387  0.8081
    7CHTO   C84 2707   5.873   1.934   6.630 -0.3627  0.1212 -0.0202
    7CHTO  H156 2708   5.927   1.925   6.724  1.4028 -1.6157 -1.1520
    7CHTO   N15 2709   5.755   1.843   6.647  0.5937 -0.6336 -0.4168
    7CHTO  H143 2710   5.743   1.813   6.749 -3.2915 -0.5554 -0.7656
    7CHTO  H144 2711   5.764   1.755   6.587 -0.9299 -1.6417  0.7877
    7CHTO   C87 2712   5.840   2.080   6.595  0.3782 -0.8240 -0.4715
    7CHTO  H159 2713   5.792   2.080   6.497 -1.3673  0.1610  0.3523
    7CHTO   O53 2714   5.985   2.169   6.596  0.1585  0.0696 -0.1000
    7CHTO   C82 2715   6.070   2.122   6.496  0.4976  0.0131  0.0813
    7CHTO  H154 2716   6.030   2.155   6.400  0.9719  4.1329  1.1846
    7CHTO   C89 2717   6.207   2.193   6.507 -0.3210 -0.5836  0.3079
    7CHTO   O59 2718   6.185   2.333   6.489 -0.3957 -0.2404  0.2775
    7CHTO  H137 2719   6.180   2.369   6.403  0.9035  0.2254  0.3823
    7CHTO   O45 2720   5.745   2.136   6.694 -0.1089  0.1236  0.5333
    7CHTO   C67 2721   5.714   2.274   6.664  0.0297  0.1027  0.1220
    7CHTO  H124 2722   5.784   2.341   6.617 -1.1938  1.8025  0.6726
    7CHTO   C65 2723   5.587   2.265   6.569  0.4295  0.4759  0.8834
    7CHTO  H122 2724   5.553   2.162   6.578  1.7793  0.0942  1.7156
    7CHTO   O44 2725   5.639   2.287   6.437  0.0565 -0.5961  0.6117
    7CHTO  H102 2726   5.570   2.261   6.378 -1.6208  0.1802  2.2048
    7CHTO   C63 2727   5.474   2.358   6.618  0.2531 -0.4625  0.6177
    7CHTO  H120 2728   5.423   2.311   6.703 -0.7043 -0.0550  0.2696
    7CHTO   N11 2729   5.362   2.384   6.518 -0.0738 -0.0245 -0.2513
    7CHTO  H108 2730   5.390   2.348   6.421 -0.2695 -0.9974  0.0408
    7CHTO  H109 2731   5.335   2.487   6.507 -2.2107 -0.5877 -0.5682
    7CHTO   C61 2732   5.536   2.493   6.669 -0.3271  0.1218  0.3597
    7CHTO  H118 2733   5.460   2.568   6.696  0.7713  1.8671 -1.2618
    7CHTO   O40 2734   5.629   2.475   6.782 -0.4337 -0.7358  0.1071
    7CHTO   C68 2735   5.684   2.342   6.805 -0.9720 -0.0833 -0.5287
    7CHTO  H125 2736   5.610   2.282   6.862  2.2461 -1.6132  2.1440
    7CHTO   C72 2737   5.795   2.376   6.904  0.4959 -0.2784 -0.1856
    7CHTO   O48 2738   5.848   2.254   6.962 -0.1282 -0.5306 -0.4564
    7CHTO  H105 2739   5.935   2.269   6.991  0.5189 -3.0603 -0.9659
    7CHTO   O38 2740   5.608   2.555   6.562  0.0054 -0.1429  0.6343
    7CHTO   C55 2741   5.632   2.699   6.572  1.2017  0.6864 -0.6002
    7CHTO  H112 2742   5.624   2.731   6.677 -2.1660 -0.5026 -0.4656
    7CHTO   C56 2743   5.530   2.770   6.481  0.9764  0.3023  0.2577
    7CHTO  H113 2744   5.536   2.723   6.381  4.4689 -1.6290  1.2752
    7CHTO   O42 2745   5.403   2.745   6.529 -0.0304  0.6506  0.2893
    7CHTO  H100 2746   5.372   2.666   6.491  1.3946  1.1985 -2.0924
    7CHTO   C57 2747   5.567   2.921   6.467  0.0853  0.9851  0.3494
    7CHTO  H114 2748   5.522   2.970   6.553 -0.2114  2.4629 -0.6312
    7CHTO   N10 2749   5.494   2.983   6.354 -0.2940 -0.0061 -0.0899
    7CHTO  H106 2750   5.559   3.060   6.314 -0.4427  0.2174  0.1000
    7CHTO  H107 2751   5.469   2.918   6.271  1.1234  0.8584 -1.2312
    7CHTO   C58 2752   5.720   2.943   6.457 -0.2376  0.3808 -0.9763
    7CHTO  H115 2753   5.753   2.905   6.358 -1.8216  0.2228 -1.4570
    7CHTO   O37 2754   5.790   2.873   6.548  0.0682 -0.8273  0.6827
    7CHTO   C59 2755   5.774   2.729   6.525 -0.4514  0.1987 -0.1414
    7CHTO  H116 2756   5.790   2.704   6.420 -1.3925  1.4435 -0.5927
    7CHTO   C70 2757   5.880   2.654   6.614  0.1899  0.0222 -0.9101
    7CHTO   O46 2758   5.940   2.545   6.546  0.6852  0.4433 -0.2477
    7CHTO  H103 2759   6.003   2.579   6.485  0.5639  0.4163 -0.3865
    7CHTO   O39 2760   5.750   3.087   6.485  0.0758  0.1361  0.4455
    7CHTO   C60 2761   5.866   3.123   6.409  0.2067 -0.9756 -0.1139
    7CHTO  H117 2762   5.944   3.049   6.425  2.8409  1.6208 -0.4600
    7CHTO   C62 2763   5.841   3.146   6.258 -0.4153 -0.2421  0.3579
    7CHTO  H119 2764   5.810   3.045   6.224  1.7529  0.1998 -3.2205
    7CHTO   O43 2765   5.737   3.246   6.236 -0.8009  0.1726  0.0556
    7CHTO  H101 2766   5.776   3.330   6.248 -0.2894 -0.3879  2.6661
    7CHTO   C66 2767   5.978   3.191   6.188 -0.3540  0.1611 -0.5354
    7CHTO  H123 2768   6.062   3.131   6.224 -1.5084 -1.1683 -0.0144
    7CHTO   N12 2769   5.973   3.192   6.037  0.0577  0.4379  0.0511
    7CHTO  H110 2770   5.974   3.089   6.004  0.7279  0.9433 -1.5681
    7CHTO  H111 2771   5.884   3.241   5.999 -0.3088  0.7011  1.2139
    7CHTO   C69 2772   6.003   3.336   6.249  1.0774  0.2080 -0.1878
    7CHTO  H126 2773   5.908   3.393   6.246  0.3224 -1.0872 -1.6275
    7CHTO   O41 2774   6.042   3.303   6.395  0.2975 -0.5017 -0.1937
    7CHTO   C64 2775   5.920   3.254   6.470 -1.0105 -0.2440 -0.5070
    7CHTO  H121 2776   5.843   3.334   6.473  0.0614  0.7638  2.6465
    7CHTO   C71 2777   5.972   3.234   6.620 -0.3594  0.4997 -0.1692
    7CHTO   O47 2778   6.056   3.126   6.644  0.5082 -0.0281  0.1111
    7CHTO  H104 2779   6.129   3.168   6.686 -0.7317  1.2403  1.0153
    7CHTO   O34 2780   6.123   3.426   6.196  0.0447 -0.4180 -0.7653
    7CHTO   C49 2781   6.280   3.480   6.183  0.7171  0.5387  0.1662
    7CHTO   H91 2782   6.263   3.568   6.120  0.9346  0.8643  0.5563
    7CHTO   C47 2783   6.369   3.377   6.119 -0.2303  0.4994 -0.5167
    7CHTO   H89 2784   6.470   3.421   6.104  0.3589 -0.5983  0.1026
    7CHTO   O33 2785   6.320   3.349   5.992 -0.3420 -0.2728 -0.3237
    7CHTO   H70 2786   6.381   3.294   5.946  1.1445  1.4755 -0.4929
    7CHTO   C45 2787   6.377   3.243   6.214 -0.3223 -0.6174 -0.4087
    7CHTO   H87 2788   6.285   3.185   6.200  0.0086 -1.6255  1.4609
    7CHTO    N8 2789   6.489   3.167   6.164 -0.6640 -0.4424  0.3579
    7CHTO   H75 2790   6.576   3.232   6.167 -2.5183  2.1793 -0.2876
    7CHTO   H76 2791   6.503   3.071   6.210 -1.3447 -0.7394 -0.0490
    7CHTO   C43 2792   6.378   3.293   6.368  0.1219  0.5290 -0.1518
    7CHTO   H85 2793   6.276   3.284   6.406  0.0425 -0.4449 -0.5901
    7CHTO   O29 2794   6.432   3.433   6.386 -0.1548  0.1653  0.4187
    7CHTO   C50 2795   6.349   3.526   6.315  0.4728  0.8984  0.2983
    7CHTO   H92 2796   6.263   3.558   6.376  0.3604  3.2457 -1.0099
    7CHTO   C54 2797   6.428   3.662   6.288 -0.4072  0.3264 -0.6874
    7CHTO   O36 2798   6.484   3.726   6.407 -0.1131  0.0729 -0.5376
    7CHTO   H72 2799   6.416   3.761   6.461 -1.2283  0.4250 -2.1110
    7CHTO   O27 2800   6.460   3.205   6.450  0.7680 -0.2146 -0.2642
    7CHTO   C37 2801   6.412   3.107   6.539  0.4089  0.2091 -0.6173
    7CHTO   H79 2802   6.328   3.150   6.596  1.6773  0.2065  1.2876
    7CHTO   C38 2803   6.354   2.978   6.465  0.2310 -0.3429  0.3196
    7CHTO   H80 2804   6.407   2.961   6.370 -0.2278 -0.8643  0.1557
    7CHTO   O31 2805   6.218   3.003   6.424  0.3955 -0.1248 -0.0492
    7CHTO   H68 2806   6.174   2.943   6.367 -0.6450  1.1530 -0.6182
    7CHTO   C39 2807   6.359   2.842   6.547 -0.8416  0.3267  0.3726
    7CHTO   H81 2808   6.281   2.853   6.623 -0.3884 -0.9398  1.0381
    7CHTO    N7 2809   6.329   2.724   6.471  0.1683  0.0819  0.1780
    7CHTO   H73 2810   6.331   2.634   6.531 -1.3602 -0.4802 -0.5660
    7CHTO   H74 2811   6.239   2.741   6.413 -0.7258 -0.4994  1.3832
    7CHTO   C40 2812   6.490   2.833   6.627  0.0463 -0.2667 -0.4054
    7CHTO   H82 2813   6.571   2.833   6.555  0.8532  1.0749  0.4717
    7CHTO   O26 2814   6.498   2.946   6.716  0.5791 -0.1641  0.0264
    7CHTO   C41 2815   6.522   3.072   6.646  0.3882 -0.5777 -0.5407
    7CHTO   H83 2816   6.623   3.070   6.603  1.5425  2.0774  1.8660
    7CHTO   C52 2817   6.533   3.186   6.753  0.4284 -0.5753  0.3808
    7CHTO   O35 2818   6.414   3.209   6.850 -0.1666  0.8618 -0.7741
    7CHTO   H71 2819   6.377   3.295   6.851 -2.0571  0.0557  1.2566
    7CHTO   O28 2820   6.498   2.712   6.710 -0.2029 -0.2134  0.1823
    7CHTO   C42 2821   6.631   2.656   6.747 -0.0196  0.1296 -0.1250
    7CHTO   H84 2822   6.600   2.585   6.822 -1.2111  1.0092  0.2227
    7CHTO   C44 2823   6.735   2.755   6.817 -0.1116 -0.0114  0.2098
    7CHTO   H86 2824   6.749   2.842   6.753  1.1393 -1.8830 -2.1117
    7CHTO   O32 2825   6.673   2.821   6.933  0.3270  0.3894  0.3210
    7CHTO   H69 2826   6.621   2.752   6.970 -3.4861  0.9042 -3.5898
    7CHTO   C48 2827   6.869   2.683   6.842 -0.1633  0.3863 -0.0551
    7CHTO   H90 2828   6.851   2.622   6.931 -2.5377  0.7893 -0.2400
    7CHTO    N9 2829   6.974   2.787   6.885 -0.7169  0.3739  0.3902
    7CHTO   H77 2830   7.062   2.728   6.905 -0.1410  1.4120  0.9497
    7CHTO   H78 2831   6.941   2.847   6.968  0.5968  4.4154 -1.8587
    7CHTO   C51 2832   6.912   2.602   6.721 -0.0974  0.0045 -0.0319
    7CHTO   H93 2833   6.933   2.666   6.635 -1.4092 -0.8394 -0.9827
    7CHTO   O30 2834   6.804   2.512   6.696 -0.1511 -0.5431 -0.1607
    7CHTO   C46 2835   6.690   2.570   6.638 -1.0173  0.3155 -0.4800
    7CHTO   H88 2836   6.718   2.640   6.559  0.3904  0.1051 -0.1945
    7CHTO   C53 2837   6.582   2.466   6.600  1.0009 -0.4784 -0.2631
    7CHTO   O72 2838   6.634   2.366   6.517  0.3470 -0.1021  0.6303
    7CHTO  H199 2839   6.586   2.289   6.493  0.6529 -0.4216  1.0516
    7CHTO   O22 2840   7.021   2.511   6.742 -0.4143 -0.1214 -0.5399
    7CHTO   C31 2841   7.112   2.478   6.635 -0.6598  0.3536 -0.3954
    7CHTO   H59 2842   7.192   2.413   6.677 -1.0143 -0.4733 -0.9858
    7CHTO   C29 2843   7.044   2.394   6.523  0.5022  0.1787 -0.7124
    7CHTO   H57 2844   6.960   2.455   6.485 -0.3884  0.5426  1.7348
    7CHTO   O21 2845   6.992   2.271   6.589 -0.5027 -0.3846  0.1245
    7CHTO   H37 2846   6.914   2.291   6.638  0.4444  1.5735  0.8746
    7CHTO   C27 2847   7.134   2.348   6.401  0.7066 -0.6588  0.0930
    7CHTO   H55 2848   7.214   2.284   6.439  1.9630  1.9371  1.9714
    7CHTO    N5 2849   7.062   2.275   6.295 -0.8343  0.6743  0.6076
    7CHTO   H43 2850   6.962   2.318   6.293 -1.8136 -1.5458  0.6788
    7CHTO   H44 2851   7.078   2.169   6.299 -0.0392  0.8559  4.9305
    7CHTO   C25 2852   7.198   2.475   6.343  0.1534 -0.0060 -0.3349
    7CHTO   H53 2853   7.113   2.533   6.303 -0.1568 -0.2414 -0.0212
    7CHTO   O17 2854   7.268   2.550   6.454 -0.1190 -0.5286  0.4813
    7CHTO   C32 2855   7.187   2.598   6.566 -0.0904  0.1146 -0.0125
    7CHTO   H60 2856   7.115   2.659   6.511 -0.2960  1.0487  1.2729
    7CHTO   C36 2857   7.263   2.691   6.662 -0.0911 -0.8353 -0.3119
    7CHTO   O25 2858   7.379   2.613   6.711  0.1034 -0.2493 -0.3333
    7CHTO   H40 2859   7.455   2.627   6.657  0.2079  0.3055 -0.0395
    7CHTO   O15 2860   7.301   2.448   6.238 -0.0470 -0.5261  0.8102
    7CHTO   C19 2861   7.332   2.502   6.107  0.8015 -0.1591 -0.0015
    7CHTO   H47 2862   7.435   2.477   6.075  0.1633  0.8335 -2.9942
    7CHTO   C20 2863   7.250   2.456   5.987  0.4835 -0.1990 -0.1605
    7CHTO   H48 2864   7.146   2.491   5.999  0.3538 -0.6733  0.1236
    7CHTO   O19 2865   7.247   2.316   5.979  0.2026  0.1329 -0.2633
    7CHTO   H35 2866   7.162   2.278   5.984 -0.0056  0.6989  0.5166
    7CHTO   C21 2867   7.292   2.516   5.843 -0.0619 -0.4536  0.0204
    7CHTO   H49 2868   7.396   2.490   5.824  0.3814  0.8085  0.6918
    7CHTO    N4 2869   7.218   2.473   5.722  0.0911  0.0238  0.2962
    7CHTO   H41 2870   7.181   2.563   5.677 -0.0058 -0.6067 -0.8940
    7CHTO   H42 2871   7.134   2.412   5.752 -1.2049  0.3498 -2.5593
    7CHTO   C22 2872   7.298   2.667   5.858  0.2221 -0.1644  0.3820
    7CHTO   H50 2873   7.198   2.706   5.876  0.7718  1.1869  0.6443
    7CHTO   O14 2874   7.375   2.707   5.970 -0.3463  0.0808 -0.2165
    7CHTO   C23 2875   7.324   2.662   6.093  0.3062  0.0478  1.0855
    7CHTO   H51 2876   7.223   2.702   6.111  0.2204  1.1884 -1.6813
    7CHTO   C34 2877   7.411   2.747   6.188 -0.0369  0.4669 -0.5210
    7CHTO   O23 2878   7.543   2.695   6.214  0.9530  0.3623  0.1178
    7CHTO   H38 2879   7.552   2.675   6.305  1.1661  1.1640  0.2756
    7CHTO   O16 2880   7.363   2.740   5.754  0.7372 -0.0050  0.0820
    7CHTO   C24 2881   7.289   2.878   5.721 -0.1285 -0.5927 -0.3998
    7CHTO   H52 2882   7.217   2.906   5.798  0.6572  0.7483 -0.1446
    7CHTO   C26 2883   7.213   2.864   5.588 -0.1133  0.7188 -0.6356
    7CHTO   H54 2884   7.286   2.835   5.510  1.8929  1.1151  1.0648
    7CHTO   O20 2885   7.110   2.763   5.610  0.1580  0.0398 -0.4975
    7CHTO   H36 2886   7.091   2.706   5.538 -0.7756  1.0356 -1.0513
    7CHTO   C30 2887   7.151   3.002   5.553 -0.2370 -0.7487 -0.0547
    7CHTO   H58 2888   7.057   3.015   5.608 -0.8631 -0.8243 -1.0836
    7CHTO    N6 2889   7.098   2.998   5.413  0.5296 -0.0199  0.0011
    7CHTO   H45 2890   7.173   3.001   5.336  2.4484 -0.9927  1.7889
    7CHTO   H46 2891   7.021   3.069   5.389 -1.3565 -1.7053  0.9115
    7CHTO   C33 2892   7.249   3.118   5.571 -0.2709 -0.1443 -0.3687
    7CHTO   H61 2893   7.316   3.123   5.484 -0.4891  1.6788 -0.4601
    7CHTO   O18 2894   7.336   3.111   5.690  0.3446 -0.8030  0.1833
    7CHTO   C28 2895   7.399   2.987   5.716  0.2314 -0.1404 -0.3239
    7CHTO   H56 2896   7.472   2.965   5.638 -0.3855 -0.2780 -0.8598
    7CHTO   C35 2897   7.473   3.000   5.850 -0.9730 -0.0854 -0.9771
    7CHTO   O24 2898   7.415   3.070   5.962 -0.1197 -0.0793  0.2155
    7CHTO   H39 2899   7.472   3.070   6.036  0.2150  1.5694 -0.0193
    7CHTO    O9 2900   7.175   3.242   5.569  0.0609  0.6357 -0.5742
    7CHTO   C13 2901   7.249   3.356   5.484  0.8932 -0.0095 -0.4603
    7CHTO   H26 2902   7.291   3.308   5.393  0.0413 -1.3947 -0.1371
    7CHTO   C11 2903   7.359   3.432   5.570  0.0536  0.3768  0.2764
    7CHTO   H24 2904   7.440   3.360   5.591  0.4136  0.0915 -1.9716
    7CHTO    O8 2905   7.311   3.474   5.699  0.4908 -0.0050 -0.7458
    7CHTO    H3 2906   7.379   3.511   5.752 -1.9743  0.6602  2.1310
    7CHTO    C9 2907   7.414   3.551   5.484 -1.0030  0.1655  0.1218
    7CHTO   H22 2908   7.442   3.510   5.386  2.6174  0.7292  0.8643
    7CHTO    N2 2909   7.548   3.610   5.526 -0.0322  0.6001  0.1696
    7CHTO   H10 2910   7.611   3.631   5.441 -0.3584  0.5536 -0.0859
    7CHTO   H11 2911   7.523   3.706   5.570 -1.1173  0.7385 -0.7144
    7CHTO    C7 2912   7.296   3.656   5.468  0.5919  0.3080 -0.1938
    7CHTO   H20 2913   7.301   3.695   5.365 -1.9414 -0.1052 -0.5117
    7CHTO    O4 2914   7.159   3.591   5.478  0.0870 -0.1388 -0.2494
    7CHTO   C14 2915   7.146   3.463   5.422 -0.4359  0.8714  0.0540
    7CHTO   H27 2916   7.170   3.483   5.315  2.2216 -0.3604  0.3861
    7CHTO   C18 2917   6.998   3.422   5.426 -0.1080  0.4075 -0.2658
    7CHTO   O13 2918   6.978   3.303   5.341 -0.3092  0.2735 -0.2748
    7CHTO    H7 2919   7.032   3.230   5.362 -0.2384  0.2216 -0.6371
    7CHTO    O2 2920   7.304   3.767   5.590 -0.2170  0.3225  0.6770
    7CHTO    C1 2921   7.198   3.866   5.593  0.0137 -0.0341  0.8320
    7CHTO   H14 2922   7.110   3.824   5.539  0.6271  1.2334 -1.2082
    7CHTO    C2 2923   7.226   4.003   5.534 -0.0981 -0.4823  0.2313
    7CHTO   H15 2924   7.321   4.036   5.579  0.5620 -1.4411 -0.4370
    7CHTO    O6 2925   7.246   3.987   5.392  0.1947  0.3266 -0.0773
    7CHTO    H1 2926   7.319   3.932   5.371  0.3829 -0.7814  3.1806
    7CHTO    C3 2927   7.108   4.116   5.556 -0.7561 -0.4045 -0.3719
    7CHTO   H16 2928   7.019   4.073   5.508  0.7062 -0.1505 -3.4288
    7CHTO    N1 2929   7.143   4.251   5.488  0.0342  0.0598 -0.1615
    7CHTO    H8 2930   7.193   4.233   5.395 -1.7464 -0.8045 -0.9714
    7CHTO    H9 2931   7.055   4.313   5.476 -1.3485 -1.7256  0.5209
    7CHTO    C4 2932   7.074   4.115   5.707 -0.5791 -0.3269 -0.3106
    7CHTO   H17 2933   7.153   4.170   5.758 -0.6343  0.3280 -0.9200
    7CHTO    O1 2934   7.059   3.981   5.763 -0.6553 -0.1992  0.3047
    7CHTO    C5 2935   7.168   3.890   5.746  0.3639  0.1896 -0.3789
    7CHTO   H18 2936   7.244   3.946   5.802  0.0986  1.2577 -1.0885
    7CHTO   C16 2937   7.126   3.756   5.815  0.1113  0.2473 -0.1053
    7CHTO   O11 2938   7.018   3.693   5.739  0.0250 -0.0383 -0.3384
    7CHTO    H5 2939   7.050   3.636   5.672 -2.0290 -0.0370 -1.3711
    7CHTO    O3 2940   6.947   4.190   5.721  0.0657 -0.2027 -0.2916
    7CHTO    C6 2941   6.941   4.260   5.859 -1.1104  0.0863  0.1057
    7CHTO   H19 2942   7.013   4.215   5.927  0.0355 -2.8954 -2.9360
    7CHTO    C8 2943   6.952   4.415   5.837 -0.4920 -0.5033  0.0371
    7CHTO   H21 2944   6.877   4.452   5.767 -0.0941  1.2960  0.5310
    7CHTO    O7 2945   7.081   4.451   5.784 -0.0006  0.4352  0.2371
    7CHTO    H2 2946   7.098   4.397   5.709  1.3842  0.6728  0.3695
    7CHTO   C12 2947   6.933   4.491   5.976  0.3749  0.9980 -0.1917
    7CHTO   H25 2948   7.021   4.464   6.039 -0.1358  0.6993  0.3905
    7CHTO    N3 2949   6.933   4.638   5.958 -0.4979 -0.5445  0.6795
    7CHTO   H12 2950   7.021   4.672   5.905  0.1297  0.9037  2.5852
    7CHTO   H13 2951   6.845   4.673   5.905 -0.0062  1.0989  0.9164
    7CHTO   C15 2952   6.804   4.442   6.048 -0.2456 -0.0805  0.4377
    7CHTO   H28 2953   6.713   4.484   6.004 -0.5748 -2.2584 -1.0286
    7CHTO   O10 2954   6.815   4.467   6.204  0.1129 -0.0530 -0.4982
    7CHTO    H4 2955   6.896   4.428   6.230 -0.8706 -1.2038  0.9654
    7CHTO    O5 2956   6.810   4.298   6.053  0.6223 -0.2865 -0.5674
    7CHTO   C10 2957   6.799   4.241   5.926 -0.0380  0.0145 -0.5209
    7CHTO   H23 2958   6.718   4.284   5.866 -0.9867 -0.4192  0.4332
    7CHTO   C17 2959   6.763   4.090   5.924 -0.3288 -0.2866 -0.5593
    7CHTO   O12 2960   6.637   4.075   5.995 -0.0856  0.4917 -0.1046
    7CHTO    H6 2961   6.605   3.987   6.004  1.2913 -0.2369 -1.8566
    8CHTO  H203 2962   8.047   7.330   1.238  0.8474  0.5415  0.1876
    8CHTO   O82 2963   8.024   7.325   1.329  0.7059  0.2848  0.1341
    8CHTO  C123 2964   7.892   7.362   1.364 -0.1248  0.1789  0.4299
    8CHTO  H227 2965   7.837   7.271   1.389  1.7184 -1.6821 -2.0780
    8CHTO   O77 2966   7.905   7.446   1.479  0.4226 -0.2666 -0.7265
    8CHTO  C118 2967   7.778   7.490   1.537 -0.5318 -0.1257 -0.3083
    8CHTO  H222 2968   7.711   7.407   1.563  0.8412 -1.9088 -2.2799
    8CHTO  C125 2969   7.817   7.565   1.672 -1.3436  0.2695 -0.3270
    8CHTO   O84 2970   7.901   7.485   1.757  0.2071  0.6710  0.4830
    8CHTO  H205 2971   7.869   7.398   1.769 -0.7137  0.6863 -1.6356
    8CHTO  C114 2972   7.707   7.584   1.436  0.2693  0.0185  0.2409
    8CHTO  H218 2973   7.770   7.670   1.414  0.5664 -0.0233  0.9127
    8CHTO  C116 2974   7.672   7.500   1.303  0.0508  0.2135 -0.0410
    8CHTO  H220 2975   7.593   7.427   1.328  0.2645 -0.1230 -0.3409
    8CHTO   O79 2976   7.615   7.595   1.205  0.0317 -1.0748  0.1801
    8CHTO  H201 2977   7.522   7.609   1.204  0.0132 -1.1502 -1.1019
    8CHTO  C120 2978   7.809   7.434   1.252 -0.6265  0.0489  0.7608
    8CHTO  H224 2979   7.863   7.522   1.212  1.5146 -1.1698  0.9000
    8CHTO   N21 2980   7.789   7.344   1.135  0.1545 -0.3424 -0.5949
    8CHTO  H211 2981   7.703   7.360   1.071 -0.6790  0.1712  0.6283
    8CHTO  H212 2982   7.806   7.238   1.143 -2.4963 -0.8664 -1.2799
    8CHTO   O75 2983   7.586   7.619   1.506 -0.1325 -0.0981  0.4465
    8CHTO  C112 2984   7.489   7.730   1.425 -0.1886 -1.1370  0.7714
    8CHTO  H216 2985   7.438   7.676   1.344 -1.6594  2.7677 -0.9810
    8CHTO   O73 2986   7.582   7.839   1.379  0.2122 -0.0864  0.1303
    8CHTO  C113 2987   7.520   7.934   1.294  0.6645 -0.0576 -0.7143
    8CHTO  H217 2988   7.487   7.886   1.200  1.5496  0.2852 -1.2052
    8CHTO  C124 2989   7.627   8.030   1.254  0.2974  0.3441  0.0937
    8CHTO   O83 2990   7.732   7.961   1.177  0.5924 -0.3017  0.3951
    8CHTO  H204 2991   7.771   7.896   1.233 -0.7653 -1.3701  0.1096
    8CHTO  C109 2992   7.398   8.003   1.367  0.1974  0.3352  0.0008
    8CHTO  H213 2993   7.441   8.054   1.455  0.6410 -0.8866  0.5048
    8CHTO  C110 2994   7.299   7.893   1.416 -1.0556 -0.5173 -0.9691
    8CHTO  H214 2995   7.277   7.835   1.327 -0.0865  1.0730 -2.2548
    8CHTO   O78 2996   7.195   7.961   1.480  0.6108 -0.2684  0.3898
    8CHTO  H200 2997   7.113   7.955   1.435 -0.2697 -1.2790  2.0779
    8CHTO  C111 2998   7.379   7.795   1.512 -0.6780  0.6098  0.2952
    8CHTO  H215 2999   7.427   7.849   1.595 -0.4480 -0.7928  1.0896
    8CHTO   N19 3000   7.294   7.686   1.574  0.0691  0.1343 -0.8231
    8CHTO  H207 3001   7.363   7.614   1.617 -0.3913  0.4375  0.4363
    8CHTO  H208 3002   7.229   7.743   1.638 -0.1210 -1.9910  0.9654
    8CHTO   O74 3003   7.333   8.102   1.285 -0.5385 -1.1478 -0.7648
    8CHTO  C115 3004   7.340   8.266   1.336 -0.3906 -0.3295 -0.0322
    8CHTO  H219 3005   7.365   8.272   1.442 -0.9268 -1.6243  0.1666
    8CHTO   O76 3006   7.458   8.337   1.268 -0.0216  1.0769  0.4659
    8CHTO  C122 3007   7.460   8.478   1.257  0.1011  0.5008  0.7566
    8CHTO  H226 3008   7.536   8.512   1.187 -0.2750  3.8476  1.8742
    8CHTO  C126 3009   7.515   8.540   1.390 -0.0225 -0.2281  0.4425
    8CHTO   O85 3010   7.540   8.678   1.387  0.2739 -0.3056  0.1837
    8CHTO  H206 3011   7.489   8.719   1.454  0.5686  0.5175 -0.0821
    8CHTO  C121 3012   7.326   8.548   1.215 -0.4417  0.1376 -0.4694
    8CHTO  H225 3013   7.328   8.658   1.230  0.0261  0.0044  0.5287
    8CHTO   O81 3014   7.308   8.535   1.074 -0.8020  0.0790  0.4442
    8CHTO  H202 3015   7.390   8.555   1.033 -1.1402  1.0336  0.2241
    8CHTO  C119 3016   7.205   8.491   1.292 -0.2476 -0.0336  0.6526
    8CHTO  H223 3017   7.211   8.530   1.394  1.3648  0.5911  0.3366
    8CHTO  C117 3018   7.205   8.332   1.292  0.2363 -0.6366  0.4263
    8CHTO  H221 3019   7.186   8.280   1.198  0.9819 -3.9972  2.0643
    8CHTO   N20 3020   7.092   8.280   1.377  0.3953  0.5014  0.0076
    8CHTO  H209 3021   7.053   8.356   1.444  0.5088  0.0580  0.5851
    8CHTO  H210 3022   7.006   8.262   1.315  0.0504  1.7056  0.1135
    8CHTO   O80 3023   7.070   8.558   1.240 -0.2178 -0.4868 -0.1413
    8CHTO  C103 3024   7.037   8.723   1.272 -0.0393 -0.3255 -0.3783
    8CHTO  H190 3025   6.930   8.729   1.290 -0.2025 -0.6908 -1.1770
    8CHTO  C101 3026   7.112   8.802   1.387  0.3410  0.1848 -0.3447
    8CHTO  H188 3027   7.220   8.807   1.371  0.3987  1.2784  0.3836
    8CHTO   O68 3028   7.071   8.743   1.516  0.1535  0.1755 -0.0803
    8CHTO  H168 3029   7.103   8.795   1.587  0.9104  0.7155 -0.8180
    8CHTO   C99 3030   7.065   8.953   1.391 -0.9081  0.9614  0.0881
    8CHTO  H186 3031   6.954   8.954   1.394 -0.9955  0.6053 -2.1976
    8CHTO   N17 3032   7.125   9.036   1.507 -0.6557 -0.6857 -0.3003
    8CHTO  H174 3033   7.048   9.070   1.573 -1.3493 -2.4297 -0.1781
    8CHTO  H175 3034   7.202   8.984   1.561 -0.9406  0.1835  0.9598
    8CHTO   C97 3035   7.101   9.008   1.248  0.7220 -0.2211  0.0721
    8CHTO  H184 3036   7.210   9.001   1.237  0.5892 -2.4948  0.0249
    8CHTO   O64 3037   7.033   8.936   1.144  0.2051 -0.1156  0.2566
    8CHTO  C104 3038   7.069   8.793   1.136 -0.2303 -0.6839 -0.3204
    8CHTO  H191 3039   7.169   8.767   1.103 -0.2382 -1.2074  0.0696
    8CHTO  C108 3040   6.979   8.736   1.025 -0.5773 -0.4439  0.2212
    8CHTO   O71 3041   7.014   8.794   0.898 -0.1528 -0.4884  0.1990
    8CHTO  H171 3042   6.980   8.747   0.824  0.6599 -0.4557 -0.2064
    8CHTO   O62 3043   7.060   9.148   1.223  0.1716  0.0856 -0.4458
    8CHTO   C91 3044   7.147   9.236   1.144  0.3620 -0.2489 -0.5057
    8CHTO  H178 3045   7.251   9.203   1.145  0.7593  1.0080 -0.6724
    8CHTO   C92 3046   7.145   9.361   1.232  0.7592 -0.2409 -0.3428
    8CHTO  H179 3047   7.044   9.384   1.268  2.1377  2.1812  2.1275
    8CHTO   O66 3048   7.212   9.329   1.353 -0.1546 -0.1674 -0.9999
    8CHTO  H166 3049   7.177   9.368   1.430  0.4215 -0.1969 -0.7177
    8CHTO   C93 3050   7.212   9.489   1.163  0.5958  0.0515  0.3235
    8CHTO  H180 3051   7.320   9.472   1.168  0.8624  0.7539 -2.2788
    8CHTO   N16 3052   7.191   9.614   1.237 -0.0263  0.1070  0.1664
    8CHTO  H172 3053   7.086   9.637   1.231 -0.3537 -1.6883 -1.4260
    8CHTO  H173 3054   7.243   9.695   1.188  2.2565 -1.4815 -0.1179
    8CHTO   C94 3055   7.180   9.501   1.011  0.5751 -0.3634 -0.5894
    8CHTO  H181 3056   7.076   9.526   0.992  0.3793  0.3329  1.2602
    8CHTO   O61 3057   7.194   9.372   0.955 -0.5213 -0.1970  0.3295
    8CHTO   C95 3058   7.102   9.274   1.002 -0.1281  0.3368  0.5888
    8CHTO  H182 3059   7.000   9.311   0.995  0.1485  0.5852 -3.3052
    8CHTO  C106 3060   7.102   9.150   0.905  0.4262  0.0943  0.1710
    8CHTO   O69 3061   7.234   9.109   0.864  0.1030  0.4220  0.6325
    8CHTO  H169 3062   7.262   9.176   0.804 -0.4524  0.6368  0.6104
    8CHTO   O63 3063   7.282   9.600   0.941  0.8199  0.0864  0.6001
    8CHTO   C96 3064   7.241   9.635   0.778 -0.6111  0.3690 -0.7495
    8CHTO  H183 3065   7.150   9.579   0.755 -0.2921  0.1516 -1.5069
    8CHTO   C98 3066   7.340   9.568   0.678  0.1095  0.6281 -0.1026
    8CHTO  H185 3067   7.441   9.597   0.709 -0.1832  2.1966 -0.5625
    8CHTO   O67 3068   7.326   9.429   0.694  0.1243 -0.0408 -0.1548
    8CHTO  H167 3069   7.338   9.403   0.783  2.6454 -0.6890 -0.6432
    8CHTO  C102 3070   7.303   9.610   0.535 -0.0287  0.1635  0.1606
    8CHTO  H189 3071   7.198   9.578   0.523  0.0505  0.2032 -0.6523
    8CHTO   N18 3072   7.374   9.544   0.426 -0.2690 -0.2915  0.2462
    8CHTO  H176 3073   7.365   9.436   0.434  2.3193 -0.4491  1.5425
    8CHTO  H177 3074   7.476   9.576   0.441 -1.4253  2.6702  2.1836
    8CHTO  C105 3075   7.293   9.767   0.516  0.1707  0.1637 -0.4731
    8CHTO  H192 3076   7.386   9.810   0.479 -0.0894  1.3139  0.2051
    8CHTO   O65 3077   7.258   9.843   0.633  0.3838  0.0687 -0.2890
    8CHTO  C100 3078   7.215   9.789   0.761  0.6320  0.0657  0.3428
    8CHTO  H187 3079   7.281   9.839   0.834  2.7283  0.7828 -1.9749
    8CHTO  C107 3080   7.068   9.829   0.795 -0.5797 -0.4121  0.4063
    8CHTO   O70 3081   6.978   9.746   0.720  0.7198  0.3338  0.2248
    8CHTO  H170 3082   6.904   9.789   0.682 -0.4764 -2.5240 -0.8195
    8CHTO   O57 3083   7.179   9.784   0.408 -0.0006  0.0120  0.1397
    8CHTO   C85 3084   7.173   9.903   0.327 -0.5369 -0.5230  0.3706
    8CHTO  H157 3085   7.281   9.908   0.302 -0.4301 -1.6682  0.6042
    8CHTO   C83 3086   7.140  10.032   0.405  0.4505  0.4505 -0.3835
    8CHTO  H155 3087   7.214  10.038   0.484 -0.8686 -1.7418  1.0733
    8CHTO   O56 3088   7.015  10.002   0.469 -0.3741  0.5172  0.2898
    8CHTO  H135 3089   6.952   9.969   0.408  1.0589 -2.5269  0.3478
    8CHTO   C81 3090   7.140  10.159   0.318 -0.5940 -0.4728  0.4366
    8CHTO  H153 3091   7.238  10.172   0.273 -0.2078 -2.3216  0.6954
    8CHTO   N14 3092   7.120  10.285   0.389 -0.0053  0.4201  0.1964
    8CHTO  H141 3093   7.018  10.286   0.420  0.2860  1.6891  1.1305
    8CHTO  H142 3094   7.133  10.363   0.317 -1.3425 -0.0074 -0.5260
    8CHTO   C79 3095   7.032  10.137   0.200  0.0044 -0.6600 -0.5286
    8CHTO  H151 3096   7.035  10.226   0.138 -1.5497  0.3432  0.7781
    8CHTO   O52 3097   7.067  10.016   0.121  0.6974 -0.8491  0.3083
    8CHTO   C86 3098   7.085   9.897   0.199  0.3431  0.2014 -0.4663
    8CHTO  H158 3099   6.982   9.863   0.225  1.4057 -2.8554 -0.0480
    8CHTO   C90 3100   7.142   9.790   0.109 -0.6343 -0.0949  0.9672
    8CHTO   O60 3101   7.097   9.657   0.146  0.4251 -0.2028 -0.3551
    8CHTO  H138 3102   7.174   9.603   0.142  0.0204 -0.7120 -1.7091
    8CHTO   O50 3103   6.897  10.135   0.240  0.5614 -0.3148  0.0899
    8CHTO   C73 3104   6.783  10.172   0.161  0.3957  0.2544  0.6431
    8CHTO  H145 3105   6.815  10.163   0.056  2.1361 -0.6522  1.2350
    8CHTO   C74 3106   6.750  10.320   0.186 -0.4249  0.3172  0.2875
    8CHTO  H146 3107   6.847  10.368   0.166  0.0776 -0.6670  0.2819
    8CHTO   O54 3108   6.658  10.369   0.087 -0.4243  0.4111  0.0674
    8CHTO  H133 3109   6.662  10.462   0.076  1.2807  0.8016  3.1934
    8CHTO   C75 3110   6.703  10.338   0.335  0.5263  0.4646  0.2587
    8CHTO  H147 3111   6.782  10.318   0.408  0.6923  1.1488  0.2615
    8CHTO   N13 3112   6.671  10.475   0.388  0.4123  0.0315  0.3457
    8CHTO  H139 3113   6.574  10.478   0.435 -0.0058 -0.8023 -0.4306
    8CHTO  H140 3114   6.748  10.512   0.454  0.0439  1.1682  0.1509
    8CHTO   C76 3115   6.588  10.231   0.370  0.4081 -0.1513 -0.3370
    8CHTO  H148 3116   6.494  10.272   0.334  0.1409 -0.5266 -0.0724
    8CHTO   O49 3117   6.609  10.100   0.314 -0.2084 -0.2050  0.1354
    8CHTO   C77 3118   6.659  10.083   0.176  0.0434  0.2319 -0.4944
    8CHTO  H149 3119   6.583  10.113   0.105 -0.3031  0.7653  0.0981
    8CHTO   C88 3120   6.689   9.936   0.165 -0.1019 -0.5030 -0.1339
    8CHTO   O58 3121   6.717   9.902   0.010  0.0651  0.0336 -0.4903
    8CHTO  H136 3122   6.754   9.977  -0.033 -1.0085  0.8472 -0.0366
    8CHTO   O51 3123   6.571  10.212   0.540  0.5644  0.4034 -0.2677
    8CHTO   C78 3124   6.453  10.093   0.574 -0.5206 -0.2477  0.2300
    8CHTO  H150 3125   6.425  10.026   0.490  0.4296  0.3429 -0.5628
    8CHTO   C80 3126   6.327  10.151   0.634  0.0265  0.6750 -0.0130
    8CHTO  H152 3127   6.357  10.233   0.702 -0.0456 -0.9425  1.9945
    8CHTO   O55 3128   6.255  10.219   0.537 -0.4750  0.1061 -0.2396
    8CHTO  H134 3129   6.232  10.162   0.467  1.4915  0.5586 -1.3045
    8CHTO   C84 3130   6.226  10.049   0.707 -0.1509  0.4937  0.0965
    8CHTO  H156 3131   6.189   9.972   0.639 -1.7259  0.4276  0.9923
    8CHTO   N15 3132   6.107  10.107   0.770 -0.2224 -0.0018 -0.2245
    8CHTO  H143 3133   6.125  10.213   0.775  0.9351 -0.1908 -0.2765
    8CHTO  H144 3134   6.015  10.093   0.716 -0.9143  0.6961  0.7501
    8CHTO   C87 3135   6.308   9.959   0.804  0.2691  0.4299 -0.3368
    8CHTO  H159 3136   6.354  10.017   0.884 -0.7349 -0.5015  0.9476
    8CHTO   O53 3137   6.416   9.889   0.726 -0.3578 -0.7793  0.3870
    8CHTO   C82 3138   6.513   9.994   0.683  0.7968  0.9540 -0.2854
    8CHTO  H154 3139   6.558  10.039   0.771  3.1214  0.1865 -1.0328
    8CHTO   C89 3140   6.628   9.917   0.613  0.0521 -0.3494 -0.5941
    8CHTO   O59 3141   6.747   9.999   0.606  0.2883  0.4721  0.0551
    8CHTO  H137 3142   6.722  10.086   0.580 -1.2480  0.4902  1.5070
    8CHTO   O45 3143   6.206   9.835   0.871 -0.0751  0.2630 -0.2556
    8CHTO   C67 3144   6.274   9.747   0.959 -0.2237  0.2621 -0.5850
    8CHTO  H124 3145   6.373   9.741   0.915  0.3367  1.1272  0.5340
    8CHTO   C65 3146   6.283   9.807   1.105  0.3428 -0.5181 -0.0833
    8CHTO  H122 3147   6.205   9.882   1.120 -0.1598 -1.0291 -0.1297
    8CHTO   O44 3148   6.409   9.875   1.110  0.7878 -0.5054 -0.2025
    8CHTO  H102 3149   6.422   9.903   1.198 -0.3267 -2.0394  0.4874
    8CHTO   C63 3150   6.244   9.699   1.215  0.0040  0.9334 -0.1242
    8CHTO  H120 3151   6.139   9.671   1.205  0.6797 -1.8361  0.0420
    8CHTO   N11 3152   6.251   9.738   1.352 -0.0574 -0.1718  0.1029
    8CHTO  H108 3153   6.154   9.740   1.396 -0.8801 -0.7731 -1.6421
    8CHTO  H109 3154   6.300   9.833   1.359 -0.2459 -0.1670  1.6536
    8CHTO   C61 3155   6.319   9.563   1.181 -0.8469  0.1860  0.1508
    8CHTO  H118 3156   6.281   9.489   1.253 -0.5187  0.3047  0.4548
    8CHTO   O40 3157   6.278   9.506   1.043  0.5749 -0.6368  0.6311
    8CHTO   C68 3158   6.208   9.601   0.952  0.7417 -0.1867  0.0989
    8CHTO  H125 3159   6.100   9.611   0.974  0.5588  1.3923 -1.3843
    8CHTO   C72 3160   6.219   9.551   0.808 -0.2917  0.3205 -0.2311
    8CHTO   O48 3161   6.203   9.408   0.786 -0.4492  0.4378 -0.0437
    8CHTO  H105 3162   6.129   9.396   0.730  0.2402 -1.0202 -0.6992
    8CHTO   O38 3163   6.466   9.580   1.193 -0.0479 -0.9973  0.4788
    8CHTO   C55 3164   6.553   9.470   1.163 -0.0868 -0.1656 -0.1734
    8CHTO  H112 3165   6.495   9.395   1.108 -0.6342 -0.3734  0.6727
    8CHTO   C56 3166   6.629   9.411   1.293 -0.3078  0.7322 -0.0333
    8CHTO  H113 3167   6.712   9.478   1.318 -0.0234 -0.6229  2.8459
    8CHTO   O42 3168   6.540   9.407   1.397  0.4117 -0.5787 -0.0155
    8CHTO  H100 3169   6.526   9.492   1.436 -1.8615 -0.3267 -1.2839
    8CHTO   C57 3170   6.672   9.264   1.251 -0.0381 -0.5428  0.3037
    8CHTO  H114 3171   6.584   9.209   1.217 -0.7664  1.1068 -0.5029
    8CHTO   N10 3172   6.739   9.187   1.361  1.8035 -0.1755 -0.0304
    8CHTO  H106 3173   6.666   9.137   1.423  1.4529 -0.7002 -0.8519
    8CHTO  H107 3174   6.794   9.260   1.418 -1.9711  3.0556 -0.3114
    8CHTO   C58 3175   6.775   9.278   1.130 -0.5092  0.4789 -0.3588
    8CHTO  H115 3176   6.875   9.303   1.171 -0.5874 -0.0250  0.1458
    8CHTO   O37 3177   6.745   9.382   1.027 -0.1646  0.3707 -0.3304
    8CHTO   C59 3178   6.669   9.497   1.069  0.2386 -0.1366 -0.4095
    8CHTO  H116 3179   6.737   9.575   1.104  0.7078 -0.7183 -0.0126
    8CHTO   C70 3180   6.614   9.548   0.931 -0.6352  0.3790 -0.4904
    8CHTO   O46 3181   6.711   9.618   0.855 -0.1906 -0.2253  0.0495
    8CHTO  H103 3182   6.737   9.694   0.903 -1.2440  1.2557 -1.6453
    8CHTO   O39 3183   6.767   9.117   1.057 -0.1239 -0.0382  0.1319
    8CHTO   C60 3184   6.658   9.112   0.962 -0.0024 -0.1009  0.5178
    8CHTO  H117 3185   6.584   9.189   0.983  0.6334  0.3431  1.1450
    8CHTO   C62 3186   6.712   9.119   0.808 -0.3175 -0.4679 -0.6637
    8CHTO  H119 3187   6.752   9.219   0.782 -1.8006  0.0049 -1.2337
    8CHTO   O43 3188   6.816   9.019   0.795  0.0150  0.5195 -0.6482
    8CHTO  H101 3189   6.823   8.962   0.870 -1.6217  3.3327  1.7667
    8CHTO   C66 3190   6.571   9.094   0.717  0.7157  0.1549  0.0114
    8CHTO  H123 3191   6.502   9.177   0.738 -0.1923 -0.2713 -1.1999
    8CHTO   N12 3192   6.594   9.099   0.569  0.1251  0.2893  0.8337
    8CHTO  H110 3193   6.642   9.194   0.551  1.1497 -0.1383  1.2928
    8CHTO  H111 3194   6.495   9.094   0.525  0.9506 -4.4105 -0.8209
    8CHTO   C69 3195   6.512   8.955   0.758 -0.4035 -0.2631 -0.1951
    8CHTO  H126 3196   6.588   8.876   0.744  0.1323  0.7597 -3.6308
    8CHTO   O41 3197   6.473   8.960   0.911 -0.0934  0.0832  0.2365
    8CHTO   C64 3198   6.587   8.967   0.985 -0.2015 -0.7338 -0.3684
    8CHTO  H121 3199   6.659   8.888   0.957  0.2219 -0.7645  0.7728
    8CHTO   C71 3200   6.542   8.941   1.133 -0.5366 -0.0160  0.4378
    8CHTO   O47 3201   6.492   8.807   1.147  0.3575 -0.4922 -0.6194
    8CHTO  H104 3202   6.527   8.772   1.227  1.8730  1.6330 -0.2897
    8CHTO   O34 3203   6.370   8.927   0.680 -0.6486 -0.2139  0.3770
    8CHTO   C49 3204   6.298   8.811   0.719  0.7316 -0.1384  0.9521
    8CHTO   H91 3205   6.363   8.739   0.769  1.7476 -0.3720 -0.6587
    8CHTO   C47 3206   6.250   8.754   0.587 -0.2902  0.0336  0.0686
    8CHTO   H89 3207   6.197   8.660   0.612 -0.4680 -0.5403 -2.3486
    8CHTO   O33 3208   6.368   8.719   0.510 -0.1153  0.0600 -0.5328
    8CHTO   H70 3209   6.338   8.709   0.421  0.5952 -1.0222 -0.6587
    8CHTO   C45 3210   6.147   8.852   0.510 -0.1224 -0.0159  0.4203
    8CHTO   H87 3211   6.200   8.931   0.455  0.1171  0.3385  1.1591
    8CHTO    N8 3212   6.065   8.770   0.413 -0.3793 -0.4962 -0.3452
    8CHTO   H75 3213   5.962   8.762   0.444 -0.2674 -1.9128 -0.3144
    8CHTO   H76 3214   6.071   8.804   0.311 -1.1735  2.9619  0.6876
    8CHTO   C43 3215   6.054   8.937   0.616 -0.3970  0.3357 -0.2439
    8CHTO   H85 3216   6.118   9.024   0.632  1.2007 -0.9170  0.3627
    8CHTO   O29 3217   6.039   8.855   0.740  0.1965  0.4843 -0.0117
    8CHTO   C50 3218   6.167   8.839   0.806 -0.4867  0.0180  0.7327
    8CHTO   H92 3219   6.190   8.922   0.874 -1.3503  0.5952  0.3253
    8CHTO   C54 3220   6.151   8.733   0.901  0.1492 -0.3019 -0.0818
    8CHTO   O36 3221   6.098   8.615   0.847 -0.0022  0.0478  0.4470
    8CHTO   H72 3222   6.096   8.546   0.911  0.3018  0.1433  0.5568
    8CHTO   O27 3223   5.940   8.993   0.557  0.0184 -0.4451 -0.4145
    8CHTO   C37 3224   5.858   9.105   0.582 -0.3129 -0.1028  0.4842
    8CHTO   H79 3225   5.753   9.077   0.597 -1.8818  4.7049 -0.8236
    8CHTO   C38 3226   5.882   9.172   0.715  0.7325  0.4404 -0.4178
    8CHTO   H80 3227   5.991   9.182   0.724  0.7303  2.4832 -2.1942
    8CHTO   O31 3228   5.846   9.066   0.812  0.5396 -0.7818 -0.0877
    8CHTO   H68 3229   5.878   9.093   0.896 -0.1468  2.1074 -0.6938
    8CHTO   C39 3230   5.808   9.310   0.731 -0.7719 -0.1950  0.5884
    8CHTO   H81 3231   5.704   9.284   0.750 -1.4838  0.9147 -1.6001
    8CHTO    N7 3232   5.856   9.373   0.861 -0.2070 -0.9008  0.3687
    8CHTO   H73 3233   5.827   9.323   0.952 -0.3966  0.3902  1.0248
    8CHTO   H74 3234   5.844   9.480   0.862  1.2874 -0.6501 -2.5972
    8CHTO   C40 3235   5.819   9.402   0.603  0.2985 -0.0534 -0.1032
    8CHTO   H82 3236   5.919   9.445   0.602  0.4671 -0.4368 -2.7123
    8CHTO   O26 3237   5.790   9.328   0.483 -0.2410  0.4763  0.2886
    8CHTO   C41 3238   5.869   9.209   0.466  0.3343  0.0700 -0.6980
    8CHTO   H83 3239   5.975   9.230   0.446  0.8627 -1.9862 -0.2063
    8CHTO   C52 3240   5.821   9.131   0.338 -0.6306 -0.2332 -0.0196
    8CHTO   O35 3241   5.703   9.069   0.352  0.1111 -0.1032 -0.0259
    8CHTO   H71 3242   5.675   9.042   0.267  3.2836  0.0414 -1.1659
    8CHTO   O28 3243   5.723   9.509   0.598 -0.0796  0.1425  0.2383
    8CHTO   C42 3244   5.708   9.622   0.502 -0.0757 -0.5374  0.2208
    8CHTO   H84 3245   5.631   9.684   0.548 -1.2260 -1.0026 -1.0344
    8CHTO   C44 3246   5.662   9.591   0.356 -0.0748 -0.7976 -0.6903
    8CHTO   H86 3247   5.736   9.531   0.303 -0.2219  0.2739 -2.1329
    8CHTO   O32 3248   5.549   9.505   0.361 -0.1314 -0.0209  0.2902
    8CHTO   H69 3249   5.573   9.428   0.409  0.0126 -0.5179 -0.5645
    8CHTO   C48 3250   5.641   9.728   0.270  0.6328  0.0380 -1.1048
    8CHTO   H90 3251   5.559   9.788   0.311  1.5438  0.1006  0.6647
    8CHTO    N9 3252   5.595   9.701   0.130  0.0784 -0.2262  0.1867
    8CHTO   H77 3253   5.675   9.724   0.060  1.6685  0.9359  2.3367
    8CHTO   H78 3254   5.572   9.596   0.133  0.7587 -0.3449  1.3904
    8CHTO   C51 3255   5.768   9.818   0.267 -0.0049  0.3872  0.1031
    8CHTO   H93 3256   5.845   9.771   0.207 -0.4371 -2.2416  1.5057
    8CHTO   O30 3257   5.806   9.834   0.402  0.2862 -0.4663  0.8668
    8CHTO   C46 3258   5.835   9.709   0.481 -0.2639 -0.2431 -0.1655
    8CHTO   H88 3259   5.910   9.648   0.432  1.4565  1.8618 -0.2007
    8CHTO   C53 3260   5.887   9.755   0.619  0.1902  0.3918 -0.4670
    8CHTO   O72 3261   5.799   9.844   0.692 -0.1608  0.1288  0.3888
    8CHTO  H199 3262   5.712   9.820   0.668 -0.4691  1.4339  0.1750
    8CHTO   O22 3263   5.737   9.957   0.238  0.0975  0.1739  0.3528
    8CHTO   C31 3264   5.830  10.047   0.165  0.7935 -0.8928  0.2642
    8CHTO   H59 3265   5.785  10.148   0.157  1.3831 -0.6837 -0.5030
    8CHTO   C29 3266   5.964  10.064   0.240  0.1139  0.5163  0.2274
    8CHTO   H57 3267   5.994   9.964   0.275  1.5523  0.3848 -1.3393
    8CHTO   O21 3268   5.940  10.135   0.359 -0.0919  0.2438 -0.1693
    8CHTO   H37 3269   5.868  10.091   0.400  0.2811 -1.9947 -1.8287
    8CHTO   C27 3270   6.084  10.128   0.159  0.0214 -0.2152  0.6427
    8CHTO   H55 3271   6.057  10.234   0.141 -0.6345 -0.5497 -0.4074
    8CHTO    N5 3272   6.219  10.127   0.234 -0.0263  0.4189 -0.2969
    8CHTO   H43 3273   6.234  10.225   0.277 -1.2997 -0.1230  1.4321
    8CHTO   H44 3274   6.303  10.122   0.167 -0.5684  0.2461 -0.9693
    8CHTO   C25 3275   6.095  10.058   0.022 -0.4447 -1.1037  0.9756
    8CHTO   H53 3276   6.131   9.956   0.043  1.1536 -1.3435 -2.5844
    8CHTO   O17 3277   5.966  10.079  -0.034  0.5739 -0.0880  0.3266
    8CHTO   C32 3278   5.856  10.001   0.013 -0.5428  0.5671  0.4611
    8CHTO   H60 3279   5.890   9.898   0.012 -1.5718  0.2210  0.4838
    8CHTO   C36 3280   5.737  10.007  -0.083 -0.0019 -0.0500 -0.0278
    8CHTO   O25 3281   5.677  10.135  -0.087 -0.0670  0.5708  0.3537
    8CHTO   H40 3282   5.588  10.129  -0.115 -0.1993  0.5819  0.7772
    8CHTO   O15 3283   6.218  10.115  -0.084 -0.2641  0.5811  0.2128
    8CHTO   C19 3284   6.322  10.080  -0.179  0.6142  0.3279 -0.3369
    8CHTO   H47 3285   6.268  10.026  -0.258 -0.3809 -0.1026  0.6172
    8CHTO   C20 3286   6.400  10.203  -0.231  0.1830  0.4600 -0.4655
    8CHTO   H48 3287   6.449  10.254  -0.146  0.2882  1.5002 -1.1361
    8CHTO   O19 3288   6.304  10.279  -0.301  0.1238  0.1224 -0.0210
    8CHTO   H35 3289   6.331  10.368  -0.295 -2.3777  0.9620 -0.3316
    8CHTO   C21 3290   6.515  10.161  -0.329  0.3153  0.4664 -0.4784
    8CHTO   H49 3291   6.469  10.119  -0.418  2.0726  0.0094 -1.1975
    8CHTO    N4 3292   6.607  10.268  -0.366 -0.8095 -0.1900 -0.2920
    8CHTO   H41 3293   6.647  10.314  -0.277 -0.1718 -0.5557 -0.3811
    8CHTO   H42 3294   6.541  10.339  -0.413 -1.9182  0.4403  2.1292
    8CHTO   C22 3295   6.594  10.038  -0.274  0.2185  0.1090  0.6536
    8CHTO   H50 3296   6.657  10.072  -0.193 -0.7522  3.3260  0.1095
    8CHTO   O14 3297   6.514   9.930  -0.227  0.2434 -0.2752  0.4500
    8CHTO   C23 3298   6.420   9.968  -0.129  0.0664 -0.4372 -0.0523
    8CHTO   H51 3299   6.473   9.999  -0.038 -5.6423  0.5660  3.1596
    8CHTO   C34 3300   6.350   9.841  -0.073 -0.0730  0.4444 -0.0722
    8CHTO   O23 3301   6.450   9.733  -0.055  1.0174  0.1025  0.3186
    8CHTO   H38 3302   6.520   9.749   0.004  0.8283 -0.1660  0.6231
    8CHTO   O16 3303   6.677   9.977  -0.378  0.6014  0.1646 -0.1878
    8CHTO   C24 3304   6.807   9.885  -0.317  0.4730  0.8829 -0.1131
    8CHTO   H52 3305   6.788   9.851  -0.215  2.0221 -1.3683 -0.5200
    8CHTO   C26 3306   6.939   9.962  -0.331 -0.0987 -0.2283 -0.0640
    8CHTO   H54 3307   6.951   9.993  -0.436  0.1325  1.6432  0.5017
    8CHTO   O20 3308   6.937  10.062  -0.229  0.3671  0.0731 -0.1150
    8CHTO   H36 3309   6.876  10.128  -0.254 -0.0253 -0.1599  0.2398
    8CHTO   C30 3310   7.056   9.863  -0.300  0.0864 -0.2328  0.0008
    8CHTO   H58 3311   7.050   9.845  -0.192 -1.7116  0.3827  0.0336
    8CHTO    N6 3312   7.185   9.933  -0.336 -0.3310  0.0351  0.4577
    8CHTO   H45 3313   7.275   9.891  -0.295 -1.4047  0.1537  3.0825
    8CHTO   H46 3314   7.180  10.035  -0.301  3.5800  0.7512 -0.9129
    8CHTO   C33 3315   7.040   9.725  -0.368  0.3478  0.3605 -0.1042
    8CHTO   H61 3316   7.057   9.741  -0.475 -0.3238 -0.0677 -0.2752
    8CHTO   O18 3317   6.908   9.673  -0.352  0.0625  0.9383 -0.2354
    8CHTO   C28 3318   6.806   9.753  -0.407  0.3199 -0.7259  0.1888
    8CHTO   H56 3319   6.835   9.785  -0.507  0.7779 -0.9946  0.2358
    8CHTO   C35 3320   6.668   9.679  -0.409 -0.5630 -0.1363 -0.6836
    8CHTO   O24 3321   6.663   9.569  -0.494  0.6835  0.5199 -0.8615
    8CHTO   H39 3322   6.576   9.536  -0.505  0.8499  0.0366 -0.7761
    8CHTO    O9 3323   7.139   9.633  -0.326  0.0338 -0.7192  0.1685
    8CHTO   C13 3324   7.116   9.466  -0.373  0.6069 -0.1268 -0.1827
    8CHTO   H26 3325   7.065   9.473  -0.471 -0.0950 -0.3298  0.1634
    8CHTO   C11 3326   7.020   9.392  -0.266  0.1610  0.4961 -0.4757
    8CHTO   H24 3327   6.916   9.424  -0.284 -0.1337 -1.8213 -3.1021
    8CHTO    O8 3328   7.065   9.428  -0.132  0.3467 -0.2956  0.1785
    8CHTO    H3 3329   7.054   9.520  -0.115  0.9601 -0.2930  0.5754
    8CHTO    C9 3330   7.027   9.241  -0.306 -0.3771  0.1768  0.0270
    8CHTO   H22 3331   6.994   9.240  -0.411 -1.6024 -0.1860  0.4046
    8CHTO    N2 3332   6.927   9.160  -0.234 -0.2567 -0.4824 -0.0207
    8CHTO   H10 3333   6.946   9.164  -0.127  1.1050  1.4109 -0.3075
    8CHTO   H11 3334   6.829   9.193  -0.266  0.1707 -0.6293 -1.5093
    8CHTO    C7 3335   7.174   9.179  -0.300 -0.3882  0.0599  0.4694
    8CHTO   H20 3336   7.180   9.121  -0.394 -0.4341 -2.5620  2.0431
    8CHTO    O4 3337   7.275   9.278  -0.296  0.1882 -0.6569 -0.2767
    8CHTO   C14 3338   7.263   9.395  -0.378 -0.5315 -0.4676  0.7057
    8CHTO   H27 3339   7.267   9.366  -0.485 -1.7155  1.2399  0.1688
    8CHTO   C18 3340   7.385   9.475  -0.345  0.3109  0.2558 -0.3790
    8CHTO   O13 3341   7.503   9.408  -0.375 -0.4388 -0.4065 -0.2655
    8CHTO    H7 3342   7.567   9.429  -0.311 -0.3553 -0.3869 -0.3541
    8CHTO    O2 3343   7.205   9.078  -0.190  0.3599 -0.7138  0.0617
    8CHTO    C1 3344   7.314   8.982  -0.208 -0.3929 -0.4450 -0.5960
    8CHTO   H14 3345   7.365   8.975  -0.109 -1.5340  0.6195  0.0745
    8CHTO    C2 3346   7.422   9.001  -0.317 -0.4849  1.1116 -0.4101
    8CHTO   H15 3347   7.364   9.025  -0.407 -1.1275 -0.5044 -0.4524
    8CHTO    O6 3348   7.493   9.119  -0.278  0.1585 -0.1453 -0.0098
    8CHTO    H1 3349   7.516   9.152  -0.363  0.5940 -1.6843 -0.5099
    8CHTO    C3 3350   7.515   8.880  -0.333 -0.3971  0.4171  0.3830
    8CHTO   H16 3351   7.566   8.873  -0.236 -1.8009 -1.9594  1.0070
    8CHTO    N1 3352   7.619   8.896  -0.442  0.2604 -0.2541 -0.3275
    8CHTO    H8 3353   7.685   8.981  -0.430 -0.9830  0.6295  0.3769
    8CHTO    H9 3354   7.678   8.809  -0.468 -1.2514 -0.6461 -2.5290
    8CHTO    C4 3355   7.437   8.752  -0.343  0.1516 -0.6217 -0.3615
    8CHTO   H17 3356   7.388   8.753  -0.441  1.7565  1.0194 -1.1893
    8CHTO    O1 3357   7.340   8.738  -0.238 -0.0193 -0.5175  0.0610
    8CHTO    C5 3358   7.247   8.850  -0.238  0.5209 -0.1544 -0.9915
    8CHTO   H18 3359   7.209   8.861  -0.339  0.0111  1.1121 -0.6759
    8CHTO   C16 3360   7.132   8.801  -0.145  0.2212 -0.0519  0.1877
    8CHTO   O11 3361   7.060   8.691  -0.201 -0.1051  0.2979 -0.5241
    8CHTO    H5 3362   7.101   8.608  -0.189  1.2693  0.9263 -0.7793
    8CHTO    O3 3363   7.511   8.624  -0.340  0.2302  0.0953 -0.0950
    8CHTO    C6 3364   7.446   8.511  -0.410  0.6299  0.3938  0.2824
    8CHTO   H19 3365   7.339   8.524  -0.419  0.7210  0.6389 -0.4265
    8CHTO    C8 3366   7.514   8.497  -0.549 -0.2458 -0.1762  0.0665
    8CHTO   H21 3367   7.622   8.500  -0.534 -0.3422 -1.9415  1.3664
    8CHTO    O7 3368   7.455   8.606  -0.624  0.3178  0.2369  0.3862
    8CHTO    H2 3369   7.364   8.602  -0.646  0.0731 -0.0783  1.4313
    8CHTO   C12 3370   7.469   8.361  -0.621  0.5551  0.5371  0.5812
    8CHTO   H25 3371   7.364   8.372  -0.655 -0.1982  0.1751  2.7219
    8CHTO    N3 3372   7.539   8.331  -0.749  0.6130 -0.1877 -0.7753
    8CHTO   H12 3373   7.593   8.421  -0.774  0.5552  0.1909  0.4495
    8CHTO   H13 3374   7.603   8.243  -0.754 -1.2437 -1.6733  0.7703
    8CHTO   C15 3375   7.473   8.237  -0.519 -0.4205 -0.6356 -0.0612
    8CHTO   H28 3376   7.573   8.203  -0.494 -0.0955  0.1567 -0.2643
    8CHTO   O10 3377   7.397   8.122  -0.563  0.5333 -0.1038 -0.1570
    8CHTO    H4 3378   7.426   8.036  -0.541  0.7203 -0.7364 -2.7726
    8CHTO    O5 3379   7.409   8.266  -0.390  0.8957  0.4636  0.1397
    8CHTO   C10 3380   7.469   8.380  -0.325  0.0418  0.2023  0.1841
    8CHTO   H23 3381   7.575   8.357  -0.315  0.1482  0.5002 -0.2423
    8CHTO   C17 3382   7.418   8.387  -0.179 -0.1798 -0.0571 -0.0431
    8CHTO   O12 3383   7.274   8.387  -0.189  0.2170 -0.1897 -0.2918
    8CHTO    H6 3384   7.244   8.461  -0.239 -0.8455 -0.1767  0.3491
    9CHTO  H203 3385   7.030   5.150   4.905 -0.0647  0.6899  1.7501
    9CHTO   O82 3386   7.083   5.082   4.943  0.0031 -0.5555 -0.4441
    9CHTO  C123 3387   7.216   5.085   4.884 -0.0425 -0.0029 -0.4483
    9CHTO  H227 3388   7.292   5.123   4.955 -1.2344 -0.6607  1.2165
    9CHTO   O77 3389   7.236   4.948   4.868 -0.1932  0.6290 -0.1974
    9CHTO  C118 3390   7.374   4.900   4.838  0.0605 -0.2731  0.0036
    9CHTO  H222 3391   7.456   4.935   4.903 -0.4772  1.6764 -0.3306
    9CHTO  C125 3392   7.371   4.743   4.833  0.2315 -0.4944 -0.5308
    9CHTO   O84 3393   7.332   4.663   4.947 -0.3264  0.5561 -0.5266
    9CHTO  H205 3394   7.277   4.591   4.920 -0.8870  0.5877  0.5115
    9CHTO  C114 3395   7.392   4.959   4.697 -0.1800 -0.4837 -0.9806
    9CHTO  H218 3396   7.315   4.919   4.631 -1.3954 -0.3282  0.3237
    9CHTO  C116 3397   7.376   5.112   4.691  0.2016  0.0762  0.5781
    9CHTO  H220 3398   7.452   5.167   4.751  0.0834  1.1435 -0.2300
    9CHTO   O79 3399   7.404   5.156   4.555 -0.3369 -0.4961 -0.1213
    9CHTO  H201 3400   7.497   5.150   4.545 -0.6554 -2.9573 -2.0521
    9CHTO  C120 3401   7.233   5.153   4.749 -0.3414  0.0763  0.9794
    9CHTO  H224 3402   7.142   5.135   4.688 -0.9830 -0.9367  2.2046
    9CHTO   N21 3403   7.221   5.302   4.768 -0.2591  0.5395  0.5795
    9CHTO  H211 3404   7.173   5.335   4.677 -0.9395 -3.1129 -0.4545
    9CHTO  H212 3405   7.315   5.351   4.790  0.7823 -1.1022 -0.1493
    9CHTO   O75 3406   7.525   4.919   4.652 -0.3905 -0.1640  0.3382
    9CHTO  C112 3407   7.537   4.869   4.486 -0.7444 -0.6833  0.4936
    9CHTO  H216 3408   7.451   4.915   4.434  0.5378  1.5529  0.2660
    9CHTO   O73 3409   7.524   4.731   4.486  0.1319 -0.1729 -0.7596
    9CHTO  C113 3410   7.522   4.663   4.358 -0.1422  0.4540 -0.2290
    9CHTO  H217 3411   7.430   4.693   4.303 -0.4307 -0.3642 -0.2006
    9CHTO  C124 3412   7.508   4.512   4.394  0.6355 -0.0865 -0.3368
    9CHTO   O83 3413   7.387   4.489   4.469 -0.3256 -0.2549  0.8990
    9CHTO  H204 3414   7.382   4.398   4.490 -2.2247 -0.2151  0.7106
    9CHTO  C109 3415   7.659   4.698   4.277  0.6632  0.2661 -0.3041
    9CHTO  H213 3416   7.736   4.635   4.326 -0.7697  0.1246  1.8414
    9CHTO  C110 3417   7.696   4.853   4.286  0.5295 -0.7323  0.4901
    9CHTO  H214 3418   7.627   4.900   4.215  0.3658 -0.4840  0.8139
    9CHTO   O78 3419   7.831   4.871   4.244  0.0691  0.1676 -0.1301
    9CHTO  H200 3420   7.890   4.826   4.302  0.0710  1.0806  0.5857
    9CHTO  C111 3421   7.674   4.916   4.424  0.1204  0.1109  0.0634
    9CHTO  H215 3422   7.754   4.880   4.491 -0.2934 -0.1216  0.4414
    9CHTO   N19 3423   7.685   5.069   4.417 -0.0938 -0.0716  0.6709
    9CHTO  H207 3424   7.688   5.116   4.515 -2.8366  0.9878  0.2888
    9CHTO  H208 3425   7.765   5.107   4.355  0.4758  0.4519  1.7052
    9CHTO   O74 3426   7.650   4.648   4.146 -0.3305  0.0916  0.8326
    9CHTO  C115 3427   7.782   4.575   4.100 -0.1593 -0.2131 -0.3412
    9CHTO  H219 3428   7.870   4.623   4.142 -2.3111  2.2658  1.4955
    9CHTO   O76 3429   7.794   4.417   4.161 -0.2478 -0.0635 -0.2831
    9CHTO  C122 3430   7.723   4.315   4.093  0.5600  0.2583  0.3167
    9CHTO  H226 3431   7.617   4.324   4.116  0.4695  1.4385 -0.5193
    9CHTO  C126 3432   7.770   4.184   4.149 -0.6010  0.5591  0.2080
    9CHTO   O85 3433   7.702   4.065   4.102  0.2611  0.1261  0.1896
    9CHTO  H206 3434   7.766   4.011   4.060  0.8882  1.9671 -1.3329
    9CHTO  C121 3435   7.749   4.323   3.934 -0.6843 -0.3097 -0.7846
    9CHTO  H225 3436   7.859   4.320   3.919 -0.7141  3.8144 -2.4979
    9CHTO   O81 3437   7.690   4.223   3.851  0.4325  0.4430 -0.7645
    9CHTO  H202 3438   7.712   4.140   3.888 -1.3131  0.6045  0.7433
    9CHTO  C119 3439   7.697   4.471   3.884 -0.0081 -0.0993  1.8094
    9CHTO  H223 3440   7.709   4.473   3.776  0.4601 -2.7589  1.7684
    9CHTO  C117 3441   7.787   4.588   3.943 -0.0588  0.7083 -0.1543
    9CHTO  H221 3442   7.750   4.687   3.916 -0.9430  0.1016 -1.2507
    9CHTO   N20 3443   7.927   4.579   3.890 -0.3476  0.0970  0.3327
    9CHTO  H209 3444   7.976   4.670   3.922 -0.9805  0.4533  0.2865
    9CHTO  H210 3445   7.915   4.578   3.782  2.5780 -1.1787 -0.0341
    9CHTO   O80 3446   7.552   4.494   3.900  0.6367 -0.1413  0.2646
    9CHTO  C103 3447   7.472   4.615   3.804 -0.2396 -1.0659  0.3744
    9CHTO  H190 3448   7.515   4.713   3.822  0.2009 -1.2005  0.0554
    9CHTO  C101 3449   7.464   4.600   3.648  0.7603  0.5021  0.2312
    9CHTO  H188 3450   7.428   4.498   3.635  1.6048  0.1419  0.7059
    9CHTO   O68 3451   7.606   4.612   3.593 -0.1462  0.2437  0.2603
    9CHTO  H168 3452   7.599   4.620   3.500 -1.4702 -0.5781  0.2830
    9CHTO   C99 3453   7.359   4.705   3.577 -0.3132  0.1112  0.7502
    9CHTO  H186 3454   7.395   4.810   3.583  0.6744 -0.1752  0.0171
    9CHTO   N17 3455   7.334   4.679   3.432 -0.7360 -0.4360 -0.5934
    9CHTO  H174 3456   7.377   4.584   3.405 -1.2755 -0.5255 -1.1372
    9CHTO  H175 3457   7.380   4.763   3.381  2.6185 -0.6420  1.8876
    9CHTO   C97 3458   7.221   4.708   3.659 -0.4739  0.0965 -0.0319
    9CHTO  H184 3459   7.168   4.614   3.639 -1.9574  0.8256  0.4043
    9CHTO   O64 3460   7.247   4.725   3.799  0.2362 -0.2809  0.2625
    9CHTO  C104 3461   7.318   4.619   3.853 -0.2867  0.3172  0.6100
    9CHTO  H191 3462   7.269   4.524   3.833  0.2969 -0.2524  1.8902
    9CHTO  C108 3463   7.317   4.635   4.009  0.4074  0.6231 -0.1440
    9CHTO   O71 3464   7.185   4.616   4.060  0.1012  0.1817  0.1595
    9CHTO  H171 3465   7.155   4.531   4.032 -0.1887 -0.0293  1.0823
    9CHTO   O62 3466   7.146   4.820   3.616  0.3259  0.3904 -0.5859
    9CHTO   C91 3467   7.016   4.812   3.555 -0.6318 -0.0155  0.0298
    9CHTO  H178 3468   7.038   4.765   3.459  0.3183  1.1929 -0.3597
    9CHTO   C92 3469   6.979   4.957   3.524 -0.3430  0.1737 -0.0332
    9CHTO  H179 3470   7.066   5.005   3.477  0.2198  0.7108  1.5036
    9CHTO   O66 3471   6.879   4.966   3.419  0.3467 -0.2567  0.8047
    9CHTO  H166 3472   6.888   5.044   3.368 -3.0134  0.2624  0.8717
    9CHTO   C93 3473   6.921   5.040   3.649 -0.1428 -0.6371 -0.4013
    9CHTO  H180 3474   6.873   5.124   3.597  2.2321  0.7762 -0.3676
    9CHTO   N16 3475   7.022   5.092   3.746 -0.1936  0.2119  0.2245
    9CHTO  H172 3476   7.120   5.103   3.701 -0.5140  3.7802  0.2574
    9CHTO  H173 3477   6.993   5.189   3.785  2.4085  0.3286  1.9857
    9CHTO   C94 3478   6.803   4.953   3.720 -0.3061 -0.2349 -0.5915
    9CHTO  H181 3479   6.818   4.946   3.828  3.9892  1.6792 -0.9768
    9CHTO   O61 3480   6.790   4.823   3.671  0.2626 -0.5076  0.3795
    9CHTO   C95 3481   6.908   4.744   3.647 -0.1994  0.4038  0.6544
    9CHTO  H182 3482   6.954   4.710   3.740 -0.1297 -0.5747  0.2676
    9CHTO  C106 3483   6.863   4.613   3.574  0.2471 -0.1595  0.1953
    9CHTO   O69 3484   6.969   4.522   3.555 -0.3799 -0.0387 -0.5059
    9CHTO  H169 3485   7.016   4.542   3.476 -1.1802  0.0254 -0.9737
    9CHTO   O63 3486   6.659   5.033   3.686 -0.4844 -0.5002 -0.8131
    9CHTO   C96 3487   6.540   5.020   3.805 -0.3622 -0.1681 -0.6208
    9CHTO  H183 3488   6.586   5.049   3.899  1.0475 -3.4074 -0.2498
    9CHTO   C98 3489   6.475   4.888   3.822 -0.0136  0.0671  0.5827
    9CHTO  H185 3490   6.434   4.862   3.723  0.2171  0.2550  0.4384
    9CHTO   O67 3491   6.576   4.790   3.849  0.2023  0.1838  0.3188
    9CHTO  H167 3492   6.607   4.763   3.764  1.4910 -1.0716  1.1741
    9CHTO  C102 3493   6.356   4.890   3.935  0.3753  0.4372  0.9315
    9CHTO  H189 3494   6.403   4.906   4.033 -1.1555 -1.8164  2.0539
    9CHTO   N18 3495   6.273   4.765   3.947  0.5849  0.2520 -0.1539
    9CHTO  H176 3496   6.286   4.713   4.041 -0.9634  1.0779  0.5325
    9CHTO  H177 3497   6.172   4.800   3.927  1.5934  2.3146 -1.8469
    9CHTO  C105 3498   6.267   5.016   3.917 -0.5236  0.4850 -0.6965
    9CHTO  H192 3499   6.195   5.000   3.837 -1.8858  0.9887  0.4207
    9CHTO   O65 3500   6.339   5.139   3.891  0.2034 -0.6542  0.3741
    9CHTO  C100 3501   6.435   5.133   3.781  0.2417  0.4174  0.4559
    9CHTO  H187 3502   6.382   5.111   3.687 -1.1110  0.7480  1.1364
    9CHTO  C107 3503   6.484   5.280   3.773  0.2517  0.6942 -0.8491
    9CHTO   O70 3504   6.385   5.370   3.732  0.9081  0.3181 -0.7229
    9CHTO  H170 3505   6.331   5.384   3.807 -0.4358 -0.6501 -1.4919
    9CHTO   O57 3506   6.180   5.038   4.069  0.0855 -0.0399 -0.0640
    9CHTO   C85 3507   6.057   5.112   4.076 -0.1248 -0.7131 -0.3458
    9CHTO  H157 3508   5.982   5.046   4.029 -1.0524  0.7524 -0.9517
    9CHTO   C83 3509   6.058   5.246   3.994 -0.8533  0.3965  0.4161
    9CHTO  H155 3510   6.075   5.227   3.888 -0.1760 -0.0283  0.6000
    9CHTO   O56 3511   6.175   5.324   4.029  0.1549  0.0532 -0.2909
    9CHTO  H135 3512   6.209   5.366   3.952  2.1092  1.5393  1.3560
    9CHTO   C81 3513   5.923   5.321   4.016  0.0709 -0.0077  0.7654
    9CHTO  H153 3514   5.842   5.255   3.986  0.1423  0.0578  0.4224
    9CHTO   N14 3515   5.904   5.439   3.923  0.4253  0.4080 -0.0004
    9CHTO  H141 3516   5.856   5.410   3.832  0.1723  1.3952 -0.1848
    9CHTO  H142 3517   5.994   5.489   3.895 -0.4296  3.3879  2.2817
    9CHTO   C79 3518   5.903   5.352   4.170 -0.0449  0.2154  0.5222
    9CHTO  H151 3519   5.812   5.413   4.177 -0.1738  0.3322 -1.9041
    9CHTO   O52 3520   5.898   5.227   4.243  0.0584  0.4642  0.3195
    9CHTO   C86 3521   6.020   5.144   4.229  0.0188 -0.3904  1.3565
    9CHTO  H158 3522   6.094   5.205   4.284 -2.0900  2.3580  1.2389
    9CHTO   C90 3523   6.004   5.010   4.312  0.3862 -0.3290  0.0556
    9CHTO   O60 3524   5.973   5.032   4.447  0.6154 -0.0253  0.1553
    9CHTO  H138 3525   6.026   5.099   4.486 -1.0741  1.9200 -0.8025
    9CHTO   O50 3526   6.006   5.430   4.232 -0.5402 -0.1774  0.9649
    9CHTO   C73 3527   6.042   5.545   4.316  0.0005  0.2474 -0.6445
    9CHTO  H145 3528   5.959   5.563   4.385  0.5122  1.2954 -0.3005
    9CHTO   C74 3529   6.061   5.674   4.224  0.1662 -0.0234 -0.3872
    9CHTO  H146 3530   5.966   5.686   4.171 -1.4002  0.4576  2.4025
    9CHTO   O54 3531   6.080   5.790   4.309 -0.0688  0.5648 -0.3205
    9CHTO  H133 3532   6.100   5.862   4.251 -0.0357  0.5905 -0.2760
    9CHTO   C75 3533   6.182   5.644   4.133 -0.7543  0.4790  0.3967
    9CHTO  H147 3534   6.150   5.574   4.055 -0.3321  2.4359 -1.5739
    9CHTO   N13 3535   6.210   5.765   4.046 -0.1311 -0.3639  0.2923
    9CHTO  H139 3536   6.210   5.856   4.103 -0.6226  1.4410 -2.5025
    9CHTO  H140 3537   6.309   5.760   4.005  0.0197 -0.1461  0.6321
    9CHTO   C76 3538   6.316   5.582   4.206  0.3873 -0.3895 -0.0998
    9CHTO  H148 3539   6.365   5.667   4.255  1.5414 -0.3783 -1.2498
    9CHTO   O49 3540   6.288   5.486   4.310 -0.0696 -0.6286 -0.8310
    9CHTO   C77 3541   6.174   5.506   4.390  0.5443  0.3633  1.2835
    9CHTO  H149 3542   6.197   5.590   4.454  1.3936  0.9196  0.2700
    9CHTO   C88 3543   6.173   5.393   4.490  0.1211  0.6250 -0.7311
    9CHTO   O58 3544   6.066   5.412   4.619 -0.4465  0.8117 -0.2148
    9CHTO  H136 3545   5.981   5.410   4.579 -0.7247  1.5449  0.3108
    9CHTO   O51 3546   6.404   5.515   4.107 -0.2940 -0.0273 -0.3619
    9CHTO   C78 3547   6.567   5.516   4.155  0.4321 -0.1637 -0.3112
    9CHTO  H150 3548   6.580   5.543   4.262 -0.7174 -2.7452  0.5336
    9CHTO   C80 3549   6.642   5.612   4.070 -0.2886 -0.3524 -0.2767
    9CHTO  H152 3550   6.617   5.590   3.964 -0.0248  2.6943 -1.0021
    9CHTO   O55 3551   6.593   5.744   4.092  0.1979 -0.5156  0.0899
    9CHTO  H134 3552   6.501   5.759   4.082  0.1995  0.8420  1.8137
    9CHTO   C84 3553   6.793   5.596   4.101  0.4456 -0.3108 -0.0355
    9CHTO  H156 3554   6.800   5.629   4.204 -1.7145 -1.1985  0.4268
    9CHTO   N15 3555   6.881   5.679   4.008  0.0348 -0.7256 -0.1050
    9CHTO  H143 3556   6.962   5.620   3.971  0.6824 -0.3788  0.7445
    9CHTO  H144 3557   6.919   5.767   4.056 -0.5142  0.3321 -1.5479
    9CHTO   C87 3558   6.844   5.448   4.109 -0.1967  0.5066  0.4253
    9CHTO  H159 3559   6.846   5.398   4.012 -0.2816  1.8422 -0.2787
    9CHTO   O53 3560   6.752   5.373   4.202  0.0450  0.0766  0.1850
    9CHTO   C82 3561   6.620   5.373   4.149 -0.2322  0.9842  0.0420
    9CHTO  H154 3562   6.623   5.321   4.053  0.8591  0.5769  0.2890
    9CHTO   C89 3563   6.521   5.280   4.243 -0.2960 -0.0446  0.6498
    9CHTO   O59 3564   6.545   5.141   4.208 -0.3607  0.4582  0.1407
    9CHTO  H137 3565   6.497   5.076   4.256 -0.9453  0.0069 -1.0487
    9CHTO   O45 3566   6.997   5.445   4.171  0.2675  0.4772 -0.0130
    9CHTO   C67 3567   7.044   5.324   4.224 -0.5161 -1.0334  0.1760
    9CHTO  H124 3568   6.956   5.270   4.261 -1.8721  0.8235 -0.2608
    9CHTO   C65 3569   7.114   5.221   4.125 -0.0384 -0.0780  0.6527
    9CHTO  H122 3570   7.160   5.289   4.054  0.2805  0.3247  1.2453
    9CHTO   O44 3571   7.012   5.135   4.074  0.1294  0.0847 -0.1905
    9CHTO  H102 3572   7.051   5.051   4.055  0.2708  0.1479 -0.1793
    9CHTO   C63 3573   7.239   5.147   4.187  0.0381 -0.0785 -0.0379
    9CHTO  H120 3574   7.323   5.216   4.192  0.6557 -0.9093  1.2695
    9CHTO   N11 3575   7.307   5.035   4.110 -0.5157  0.6399  0.5982
    9CHTO  H108 3576   7.230   4.971   4.072  0.6313  0.2264 -1.0783
    9CHTO  H109 3577   7.367   5.072   4.030  1.2520  0.7931  1.9715
    9CHTO   C61 3578   7.198   5.109   4.333 -0.4071 -0.6254  0.3960
    9CHTO  H118 3579   7.286   5.055   4.370 -0.2459 -1.7877 -1.6370
    9CHTO   O40 3580   7.178   5.223   4.418  0.2894  0.3287  0.4947
    9CHTO   C68 3581   7.140   5.347   4.348 -0.9940 -0.0176 -0.1442
    9CHTO  H125 3582   7.233   5.392   4.307  1.6667 -3.7475  1.5323
    9CHTO   C72 3583   7.077   5.448   4.443 -0.2167 -0.2682 -0.3789
    9CHTO   O48 3584   7.177   5.493   4.541 -0.7116 -0.0625  0.0282
    9CHTO  H105 3585   7.131   5.538   4.609 -1.6022 -2.2987  0.9869
    9CHTO   O38 3586   7.080   5.022   4.339  0.0424 -0.1731 -0.7215
    9CHTO   C55 3587   7.052   4.953   4.464  0.2778  0.3323  0.3222
    9CHTO  H112 3588   7.112   5.002   4.542 -0.4293 -0.2215  1.2300
    9CHTO   C56 3589   7.076   4.791   4.465 -0.7859 -0.2229 -0.4911
    9CHTO  H113 3590   7.003   4.752   4.392 -1.8736  0.8970 -0.0190
    9CHTO   O42 3591   7.206   4.763   4.419 -0.0755  0.1170  0.1850
    9CHTO  H100 3592   7.270   4.817   4.460 -0.7386  0.3120  0.9848
    9CHTO   C57 3593   7.041   4.738   4.606 -0.4449 -0.7026 -0.4197
    9CHTO  H114 3594   7.110   4.780   4.679 -0.2819  0.9246 -1.4924
    9CHTO   N10 3595   7.051   4.590   4.608 -0.5021 -0.0942 -0.3827
    9CHTO  H106 3596   7.104   4.548   4.524 -0.0168  1.1973 -0.7415
    9CHTO  H107 3597   7.085   4.550   4.703  0.1653 -0.1539 -0.6461
    9CHTO   C58 3598   6.893   4.778   4.645 -0.2103 -0.3595 -0.7119
    9CHTO  H115 3599   6.831   4.731   4.566  0.5637  0.7757 -2.0232
    9CHTO   O37 3600   6.877   4.924   4.635 -0.6673  0.0766 -0.1511
    9CHTO   C59 3601   6.902   4.979   4.508 -0.3202  0.2305 -0.6004
    9CHTO  H116 3602   6.830   4.928   4.445 -0.9148 -0.3657  0.5570
    9CHTO   C70 3603   6.869   5.125   4.534 -0.1455 -0.5498  0.0858
    9CHTO   O46 3604   6.796   5.182   4.427 -0.3810 -0.3156  0.3245
    9CHTO  H103 3605   6.831   5.153   4.345  0.7716 -1.3564  1.1710
    9CHTO   O39 3606   6.858   4.734   4.801  0.2785  0.4902 -0.0726
    9CHTO   C60 3607   6.717   4.758   4.830 -0.0204 -0.3292 -0.3334
    9CHTO  H117 3608   6.666   4.837   4.776 -0.8047  0.4286  1.4759
    9CHTO   C62 3609   6.638   4.624   4.799  0.5222 -0.5833 -0.0339
    9CHTO  H119 3610   6.646   4.617   4.689  2.6831  0.1074  0.0570
    9CHTO   O43 3611   6.699   4.514   4.862 -0.9858  0.8910 -0.5992
    9CHTO  H101 3612   6.767   4.478   4.808 -0.5356 -0.8675  1.0758
    9CHTO   C66 3613   6.486   4.633   4.837  0.4975 -0.5603  0.2978
    9CHTO  H123 3614   6.443   4.722   4.791 -0.5985  0.4137  3.0802
    9CHTO   N12 3615   6.410   4.513   4.789  0.3975  0.5343  0.1572
    9CHTO  H110 3616   6.328   4.514   4.859 -0.3009  2.0146 -0.6747
    9CHTO  H111 3617   6.374   4.527   4.688 -1.4219 -2.5724  0.2975
    9CHTO   C69 3618   6.478   4.651   4.993  0.1020  0.1671  0.3577
    9CHTO  H126 3619   6.521   4.570   5.056 -0.0201 -1.4099 -1.5509
    9CHTO   O41 3620   6.552   4.787   5.033  0.1378  0.0592 -0.3069
    9CHTO   C64 3621   6.710   4.802   4.975  0.8350 -0.2577 -0.3357
    9CHTO  H121 3622   6.775   4.742   5.042  0.5053 -1.8385 -1.3891
    9CHTO   C71 3623   6.750   4.946   4.998 -0.2575 -0.6706  0.2185
    9CHTO   O47 3624   6.749   4.991   5.132 -0.0896  0.3332 -0.1604
    9CHTO  H104 3625   6.758   5.084   5.131 -0.5634  0.4247 -4.0544
    9CHTO   O34 3626   6.324   4.650   5.033 -0.0297 -0.3184 -0.2925
    9CHTO   C49 3627   6.233   4.708   5.154 -0.2518  0.0819  0.0478
    9CHTO   H91 3628   6.134   4.736   5.119  0.2456 -0.3863 -1.7932
    9CHTO   C47 3629   6.293   4.835   5.215  0.5285  0.4969 -0.2065
    9CHTO   H89 3630   6.205   4.873   5.271  0.0027 -1.0558  0.0620
    9CHTO   O33 3631   6.328   4.930   5.111 -0.3476  0.5167 -0.6129
    9CHTO   H70 3632   6.409   4.909   5.068 -0.1923  2.9055 -1.5793
    9CHTO   C45 3633   6.420   4.799   5.308  0.1049 -0.4236  0.6833
    9CHTO   H87 3634   6.513   4.816   5.251 -0.1904 -1.3318 -0.0915
    9CHTO    N8 3635   6.428   4.898   5.424  0.3578 -0.3771  0.6471
    9CHTO   H75 3636   6.401   4.848   5.516 -1.1123 -0.9650 -0.0967
    9CHTO   H76 3637   6.532   4.925   5.439 -0.1976  1.8074  0.7876
    9CHTO   C43 3638   6.428   4.642   5.334  0.4228 -0.1970  0.7670
    9CHTO   H85 3639   6.459   4.597   5.240  1.1566 -3.1302  2.3320
    9CHTO   O29 3640   6.299   4.591   5.374  0.0841  0.3147 -0.1216
    9CHTO   C50 3641   6.209   4.593   5.264  0.2713 -0.0184  0.2753
    9CHTO   H92 3642   6.211   4.494   5.218 -1.9954 -0.1602  0.4548
    9CHTO   C54 3643   6.071   4.601   5.326 -0.2287  0.0745 -0.2893
    9CHTO   O36 3644   5.964   4.591   5.231 -0.7748 -0.4757  0.0212
    9CHTO   H72 3645   5.976   4.518   5.172  0.5497 -1.5298  1.5714
    9CHTO   O27 3646   6.536   4.606   5.424  0.1205 -0.0414  0.6690
    9CHTO   C37 3647   6.677   4.604   5.445  0.3013 -0.3473 -0.0625
    9CHTO   H79 3648   6.702   4.514   5.503  1.7260 -0.0851 -0.2588
    9CHTO   C38 3649   6.751   4.602   5.313  0.2126  0.0036 -0.3715
    9CHTO   H80 3650   6.718   4.684   5.248  0.2003  1.1698  1.0719
    9CHTO   O31 3651   6.719   4.479   5.250 -0.0584 -0.3371 -0.6512
    9CHTO   H68 3652   6.750   4.482   5.161 -0.3816  0.9405 -0.7229
    9CHTO   C39 3653   6.908   4.612   5.344  0.1796 -1.1921 -0.5828
    9CHTO   H81 3654   6.934   4.518   5.394  1.3603 -1.4900 -1.7340
    9CHTO    N7 3655   6.994   4.612   5.211  0.3985  0.8304  0.4178
    9CHTO   H73 3656   6.942   4.602   5.117 -0.2372  1.9736  0.6406
    9CHTO   H74 3657   7.093   4.569   5.216  0.6545  1.4247  0.4503
    9CHTO   C40 3658   6.943   4.728   5.447 -0.2718  0.2148 -0.1042
    9CHTO   H82 3659   6.924   4.818   5.389  0.2392  0.4237  0.0485
    9CHTO   O26 3660   6.859   4.726   5.562 -0.6053  0.7660  0.0783
    9CHTO   C41 3661   6.718   4.726   5.538 -0.7337 -0.0797 -0.1733
    9CHTO   H83 3662   6.703   4.820   5.484 -2.6538  0.2597  0.8928
    9CHTO   C52 3663   6.643   4.731   5.676 -0.6260  0.1321 -0.0227
    9CHTO   O35 3664   6.650   4.606   5.755  0.5374 -0.1781  0.1970
    9CHTO   H71 3665   6.703   4.611   5.832  0.9604 -0.5801 -0.0658
    9CHTO   O28 3666   7.079   4.730   5.496  0.1883  0.1375  0.3113
    9CHTO   C42 3667   7.129   4.848   5.562  1.0077  0.3942  0.1662
    9CHTO   H84 3668   7.236   4.824   5.557  0.8818 -0.1228 -0.1165
    9CHTO   C44 3669   7.092   4.856   5.719 -0.3095  0.9512 -0.4171
    9CHTO   H86 3670   7.003   4.797   5.742  0.4509  0.4765  1.4721
    9CHTO   O32 3671   7.196   4.785   5.791 -0.1430 -0.3750 -0.5034
    9CHTO   H69 3672   7.174   4.702   5.830 -1.1501  0.0683 -0.1185
    9CHTO   C48 3673   7.080   5.009   5.770 -0.2588 -0.6377  0.5983
    9CHTO   H90 3674   7.179   5.045   5.797 -0.9787  1.3388  0.7422
    9CHTO    N9 3675   6.990   5.020   5.891 -0.3074  0.0661 -0.2201
    9CHTO   H77 3676   6.896   4.968   5.884  1.8881 -4.2928  0.7318
    9CHTO   H78 3677   6.989   5.115   5.943 -0.4401 -0.6776  1.1734
    9CHTO   C51 3678   7.025   5.100   5.657  0.4612 -0.5406 -0.1151
    9CHTO   H93 3679   6.935   5.052   5.619 -2.2863  2.3656  2.3857
    9CHTO   O30 3680   7.133   5.096   5.554  0.3681 -0.4510 -0.7180
    9CHTO   C46 3681   7.108   4.985   5.479 -0.4930  0.4404 -0.3571
    9CHTO   H88 3682   7.006   4.978   5.440 -0.7024 -1.6533  0.4890
    9CHTO   C53 3683   7.200   4.996   5.358  0.9535  0.2540 -0.2630
    9CHTO   O72 3684   7.161   4.908   5.249  0.0982  0.0500 -0.0673
    9CHTO  H199 3685   7.220   4.836   5.239 -0.3145 -0.3014 -0.0065
    9CHTO   O22 3686   6.999   5.245   5.683  0.4567  0.0768  0.1460
    9CHTO   C31 3687   6.913   5.324   5.588 -0.8058  1.0056 -0.4074
    9CHTO   H59 3688   6.902   5.426   5.632  1.6793  1.6288 -1.1546
    9CHTO   C29 3689   6.985   5.351   5.453 -0.2203  0.3754 -0.3336
    9CHTO   H57 3690   7.022   5.258   5.408  1.7663  0.9960 -0.0635
    9CHTO   O21 3691   7.108   5.428   5.485 -0.4387  0.0990  0.3015
    9CHTO   H37 3692   7.169   5.446   5.416  0.9597  3.0558  2.1863
    9CHTO   C27 3693   6.900   5.428   5.348  0.3998 -0.2508  0.8621
    9CHTO   H55 3694   6.890   5.532   5.382  1.1359  0.0529  0.1617
    9CHTO    N5 3695   6.960   5.431   5.209 -0.3358 -0.2121 -0.5687
    9CHTO   H43 3696   6.881   5.400   5.142 -0.8545 -2.3847  1.0059
    9CHTO   H44 3697   7.048   5.368   5.207 -0.4411 -0.3879  0.1854
    9CHTO   C25 3698   6.758   5.362   5.333 -0.7229 -0.3455 -0.4772
    9CHTO   H53 3699   6.767   5.263   5.288 -0.8099 -0.5556 -0.0335
    9CHTO   O17 3700   6.700   5.360   5.469 -0.5745 -0.2199  0.1180
    9CHTO   C32 3701   6.773   5.271   5.560  0.0969  0.0542  0.4083
    9CHTO   H60 3702   6.778   5.176   5.505  1.3162 -0.8666  2.0833
    9CHTO   C36 3703   6.684   5.243   5.689  0.0941 -0.1115 -0.0335
    9CHTO   O25 3704   6.559   5.179   5.658 -0.1032  0.1384  0.1945
    9CHTO   H40 3705   6.570   5.086   5.649 -0.3529  0.3502 -2.3881
    9CHTO   O15 3706   6.664   5.429   5.249 -0.1265  0.1062 -0.3968
    9CHTO   C19 3707   6.563   5.397   5.142 -0.1049  0.1547 -0.9215
    9CHTO   H47 3708   6.512   5.490   5.114  0.2740  0.5032 -0.4607
    9CHTO   C20 3709   6.617   5.326   5.022  0.2748  0.2247  0.1419
    9CHTO   H48 3710   6.657   5.225   5.041  1.7512  0.9090  0.7159
    9CHTO   O19 3711   6.720   5.411   4.981  1.1051  0.1494  0.3900
    9CHTO   H35 3712   6.740   5.384   4.893 -2.9005 -0.6544 -0.3939
    9CHTO   C21 3713   6.498   5.313   4.912  0.2765 -0.0592  0.4513
    9CHTO   H49 3714   6.459   5.414   4.895 -1.6582 -0.9751 -0.6686
    9CHTO    N4 3715   6.532   5.256   4.780  0.2612 -0.1583 -0.3668
    9CHTO   H41 3716   6.491   5.319   4.702 -0.2124  1.2471  1.0084
    9CHTO   H42 3717   6.493   5.156   4.768 -0.1688 -0.1054  0.5771
    9CHTO   C22 3718   6.377   5.241   4.976  0.6338  0.9394 -0.0037
    9CHTO   H50 3719   6.398   5.135   4.971  1.0814  1.1088 -1.8375
    9CHTO   O14 3720   6.338   5.288   5.102  0.2689  0.7307 -0.4329
    9CHTO   C23 3721   6.446   5.296   5.197  0.1110  0.0699  0.0765
    9CHTO   H51 3722   6.480   5.193   5.214 -2.3626 -0.6562  0.8242
    9CHTO   C34 3723   6.381   5.346   5.330 -0.1506 -0.0626 -0.2412
    9CHTO   O23 3724   6.256   5.280   5.357 -0.7732  0.8633  0.1294
    9CHTO   H38 3725   6.260   5.218   5.426  2.5479 -0.8078 -1.4435
    9CHTO   O16 3726   6.258   5.257   4.901 -0.5097  0.2585 -0.2675
    9CHTO   C24 3727   6.154   5.128   4.940  0.1868 -0.2846 -0.6494
    9CHTO   H52 3728   6.176   5.087   5.039  0.7603  1.1758 -0.1575
    9CHTO   C26 3729   6.157   5.023   4.828 -0.0293 -0.1883 -0.5525
    9CHTO   H54 3730   6.131   5.072   4.731 -0.4706  0.4688 -0.1051
    9CHTO   O20 3731   6.288   4.968   4.819  0.0391  0.0151  0.1549
    9CHTO   H36 3732   6.287   4.899   4.755  1.1032  0.8607 -0.7967
    9CHTO   C30 3733   6.054   4.910   4.851  0.2058 -0.2887  0.5952
    9CHTO   H58 3734   6.073   4.850   4.941 -0.2597  0.1456  0.9967
    9CHTO    N6 3735   6.052   4.801   4.752 -0.0863 -0.4767 -0.5354
    9CHTO   H45 3736   6.122   4.810   4.670 -0.1327  2.5942 -0.2829
    9CHTO   H46 3737   6.054   4.703   4.796  1.7678  1.7238  4.6308
    9CHTO   C33 3738   5.913   4.975   4.878 -0.0980 -0.2373 -0.1553
    9CHTO   H61 3739   5.880   5.019   4.783  0.3719 -1.5156 -0.9242
    9CHTO   O18 3740   5.923   5.078   4.980  0.0387 -0.4943 -0.3548
    9CHTO   C28 3741   6.011   5.179   4.947 -0.5882 -0.5638  0.3570
    9CHTO   H56 3742   5.999   5.226   4.849  1.1790 -1.6793 -0.4256
    9CHTO   C35 3743   5.985   5.294   5.052 -0.2897  0.5110  0.2075
    9CHTO   O24 3744   6.005   5.270   5.195 -0.1780 -0.2382  0.0224
    9CHTO   H39 3745   5.975   5.342   5.247 -1.5742  1.2155 -2.6832
    9CHTO    O9 3746   5.816   4.876   4.908  0.1758  0.6120 -0.2866
    9CHTO   C13 3747   5.675   4.902   4.846 -0.4267 -0.0191  0.9838
    9CHTO   H26 3748   5.681   4.935   4.740  0.7707  0.0466  1.0598
    9CHTO   C11 3749   5.595   5.005   4.933  0.3199 -0.9605 -0.2273
    9CHTO   H24 3750   5.601   5.103   4.883  0.9456 -0.1076  1.4455
    9CHTO    O8 3751   5.644   5.016   5.067 -0.1828 -0.2130 -0.5119
    9CHTO    H3 3752   5.711   5.080   5.081 -2.3381  1.9051  0.4104
    9CHTO    C9 3753   5.439   4.978   4.934 -0.7166 -0.1890 -0.6969
    9CHTO   H22 3754   5.412   4.971   4.827 -3.1800  1.4480 -0.2077
    9CHTO    N2 3755   5.355   5.089   4.987 -0.1107 -0.0282  0.5935
    9CHTO   H10 3756   5.341   5.076   5.094 -0.8426  1.7648  0.7521
    9CHTO   H11 3757   5.394   5.185   4.956  0.2667 -0.8168 -1.4379
    9CHTO    C7 3758   5.428   4.845   5.010  0.3264 -0.7453 -0.1466
    9CHTO   H20 3759   5.321   4.824   4.991 -0.0160  0.5466  0.3138
    9CHTO    O4 3760   5.514   4.735   4.968  0.5298  0.5488  0.0185
    9CHTO   C14 3761   5.598   4.754   4.847 -0.1714  0.4888  0.0365
    9CHTO   H27 3762   5.536   4.738   4.756  0.0386 -0.5095  0.0642
    9CHTO   C18 3763   5.703   4.639   4.843  0.0395  0.3689  0.2304
    9CHTO   O13 3764   5.657   4.503   4.842  0.9452  0.0346  0.3918
    9CHTO    H7 3765   5.575   4.503   4.795  2.1896  0.5248 -1.8421
    9CHTO    O2 3766   5.440   4.862   5.168 -0.0805  0.5756 -0.0739
    9CHTO    C1 3767   5.379   4.750   5.235 -0.4510  0.4231 -0.0574
    9CHTO   H14 3768   5.362   4.662   5.169 -2.2437  1.5453 -1.1266
    9CHTO    C2 3769   5.241   4.781   5.301 -0.1633  0.0875  0.5174
    9CHTO   H15 3770   5.257   4.882   5.342 -0.1741  0.9571 -1.5266
    9CHTO    O6 3771   5.136   4.771   5.204 -0.6888  0.2308  0.0723
    9CHTO    H1 3772   5.120   4.683   5.177  0.3258  0.1717 -0.3646
    9CHTO    C3 3773   5.201   4.681   5.421  0.0040  0.8421  0.8479
    9CHTO   H16 3774   5.178   4.577   5.393 -0.4497  0.4855  2.4760
    9CHTO    N1 3775   5.080   4.727   5.496  0.0515 -0.2880 -0.1756
    9CHTO    H8 3776   5.006   4.649   5.509 -0.3333  0.2422  0.9012
    9CHTO    H9 3777   5.032   4.814   5.453  0.8619  0.3251  0.1420
    9CHTO    C4 3778   5.325   4.666   5.518  0.5010 -0.6829 -0.1949
    9CHTO   H17 3779   5.345   4.760   5.569  2.1065 -0.9864 -0.2209
    9CHTO    O1 3780   5.440   4.622   5.446  0.3409  0.3072  0.7901
    9CHTO    C5 3781   5.484   4.720   5.349  0.6582 -0.4142 -0.7667
    9CHTO   H18 3782   5.496   4.815   5.400 -2.1876 -1.4810  2.0825
    9CHTO   C16 3783   5.618   4.676   5.287 -0.3242  0.0790  0.1303
    9CHTO   O11 3784   5.620   4.552   5.212  0.0916 -0.2387  0.0845
    9CHTO    H5 3785   5.603   4.583   5.125  0.1997  1.3162  0.5884
    9CHTO    O3 3786   5.319   4.558   5.613  0.1336 -0.4301  0.2428
    9CHTO    C6 3787   5.397   4.575   5.739 -0.2505 -0.5340  0.2979
    9CHTO   H19 3788   5.464   4.660   5.734  1.0199 -1.6457 -2.2409
    9CHTO    C8 3789   5.311   4.587   5.866  0.2228 -0.2369 -0.2124
    9CHTO   H21 3790   5.240   4.504   5.865  1.1518 -1.0357 -0.2832
    9CHTO    O7 3791   5.227   4.702   5.839  0.3419 -0.0939 -0.3494
    9CHTO    H2 3792   5.225   4.762   5.910 -0.1871  0.2675 -0.6646
    9CHTO   C12 3793   5.396   4.587   6.000 -0.3148  0.6904 -0.4565
    9CHTO   H25 3794   5.456   4.680   6.006  1.6526 -0.6585  1.6786
    9CHTO    N3 3795   5.312   4.591   6.121 -0.0851 -1.1089  0.7226
    9CHTO   H12 3796   5.381   4.604   6.203  1.3897  0.7182 -0.7519
    9CHTO   H13 3797   5.248   4.505   6.130 -0.3829 -0.8037  1.5019
    9CHTO   C15 3798   5.491   4.465   5.995  0.2237 -0.6005  1.1105
    9CHTO   H28 3799   5.425   4.378   6.004 -0.4700 -0.1631  0.2647
    9CHTO   O10 3800   5.597   4.462   6.108 -0.1178 -0.1486  0.1830
    9CHTO    H4 3801   5.572   4.516   6.181  0.8184 -1.6256  1.6441
    9CHTO    O5 3802   5.570   4.457   5.874 -0.4349  0.0612 -0.3981
    9CHTO   C10 3803   5.497   4.448   5.753  0.2021 -0.3449 -0.1590
    9CHTO   H23 3804   5.450   4.350   5.755 -0.3267 -0.0989 -0.4655
    9CHTO   C17 3805   5.596   4.446   5.637  0.3084  0.1094  0.0836
    9CHTO   O12 3806   5.704   4.349   5.654 -0.0172  0.2266  0.1504
    9CHTO    H6 3807   5.668   4.262   5.649  0.1675  0.1543  0.0837
   10CHTO  H203 3808   6.134   7.037  -1.531  1.7627 -3.3538  0.6532
   10CHTO   O82 3809   6.120   7.081  -1.449  0.2141 -0.4604 -1.1127
   10CHTO  C123 3810   5.982   7.063  -1.413  0.4250 -0.5104 -0.1180
   10CHTO  H227 3811   5.920   7.122  -1.483  1.6666 -1.2226 -1.8541
   10CHTO   O77 3812   5.960   6.918  -1.442  0.2266 -0.0842 -0.1989
   10CHTO  C118 3813   5.826   6.882  -1.407  0.1697 -0.6641  0.4231
   10CHTO  H222 3814   5.760   6.947  -1.466  2.9069  0.0880 -1.9036
   10CHTO  C125 3815   5.794   6.738  -1.440  0.0487 -0.0034 -0.3228
   10CHTO   O84 3816   5.841   6.715  -1.573 -0.6374 -0.5090 -0.4708
   10CHTO  H205 3817   5.931   6.743  -1.574 -0.5909 -0.3263  3.3054
   10CHTO  C114 3818   5.800   6.905  -1.254 -0.2697  0.4697 -0.3496
   10CHTO  H218 3819   5.861   6.838  -1.194 -0.0025  1.4735  0.5101
   10CHTO  C116 3820   5.828   7.052  -1.203  0.0867  0.5268 -0.7235
   10CHTO  H220 3821   5.745   7.112  -1.246 -0.3533  0.5784  0.1904
   10CHTO   O79 3822   5.828   7.049  -1.060  0.1046  0.7032  0.0352
   10CHTO  H201 3823   5.752   7.006  -1.026  0.1630  0.4334 -0.1754
   10CHTO  C120 3824   5.962   7.094  -1.259 -0.2370 -0.6698  0.0183
   10CHTO  H224 3825   6.035   7.041  -1.196  0.8206  0.1119 -0.5280
   10CHTO   N21 3826   5.990   7.231  -1.231  0.1284 -0.1975 -0.2086
   10CHTO  H211 3827   6.094   7.257  -1.243  0.2167 -0.6744 -0.4787
   10CHTO  H212 3828   5.931   7.285  -1.304  0.9756 -1.2672 -1.7160
   10CHTO   O75 3829   5.660   6.873  -1.236 -0.1613 -0.6355  0.3353
   10CHTO  C112 3830   5.619   6.814  -1.104 -0.3829 -0.1120  0.1252
   10CHTO  H216 3831   5.661   6.869  -1.019 -2.8037 -1.7768  2.5249
   10CHTO   O73 3832   5.665   6.680  -1.103  0.1687  0.4435 -0.1170
   10CHTO  C113 3833   5.648   6.612  -0.977  0.0357  0.3117 -0.3810
   10CHTO  H217 3834   5.699   6.657  -0.889 -1.6006  1.2855  0.0847
   10CHTO  C124 3835   5.724   6.478  -0.994  0.3306 -0.1787 -0.0222
   10CHTO   O83 3836   5.859   6.511  -1.032  0.6961  0.3416  0.2561
   10CHTO  H204 3837   5.907   6.431  -1.042  2.2948  1.3357 -0.2275
   10CHTO  C109 3838   5.496   6.586  -0.956  0.6817  0.1806 -0.0737
   10CHTO  H213 3839   5.468   6.516  -1.037  0.6525 -2.8047  2.4360
   10CHTO  C110 3840   5.426   6.723  -0.973 -0.3407  0.2762  0.2212
   10CHTO  H214 3841   5.453   6.780  -0.884  0.4685 -0.6310  0.5690
   10CHTO   O78 3842   5.285   6.694  -0.977  0.0189 -0.4169  0.7602
   10CHTO  H200 3843   5.245   6.779  -0.975 -0.6349 -0.6966 -0.0899
   10CHTO  C111 3844   5.467   6.803  -1.099  0.1867 -0.1231  0.0322
   10CHTO  H215 3845   5.426   6.751  -1.187 -0.6911 -0.4073  0.6060
   10CHTO   N19 3846   5.405   6.944  -1.101 -0.2431  0.9693  0.6075
   10CHTO  H207 3847   5.429   6.996  -1.009  1.8141  1.1175  0.0013
   10CHTO  H208 3848   5.444   7.007  -1.179 -1.7060  1.4756  0.2568
   10CHTO   O74 3849   5.476   6.519  -0.832  0.9289  0.6400 -0.7728
   10CHTO  C115 3850   5.365   6.396  -0.845 -0.1254 -0.5499 -0.8671
   10CHTO  H219 3851   5.296   6.416  -0.927  0.2646  2.7947 -0.4538
   10CHTO   O76 3852   5.437   6.263  -0.884  0.4507 -0.1064 -0.5864
   10CHTO  C122 3853   5.504   6.213  -0.763 -0.7800 -0.1360  0.4691
   10CHTO  H226 3854   5.560   6.288  -0.707 -0.8939  1.6529 -1.7282
   10CHTO  C126 3855   5.610   6.096  -0.805  0.0373 -0.2980 -0.2038
   10CHTO   O85 3856   5.716   6.130  -0.893 -0.0419 -0.4002  0.2164
   10CHTO  H206 3857   5.779   6.060  -0.885  0.6264  0.1408 -0.2421
   10CHTO  C121 3858   5.396   6.162  -0.661 -0.0446  0.2202  0.0848
   10CHTO  H225 3859   5.377   6.053  -0.670  1.1966  0.1102 -1.4025
   10CHTO   O81 3860   5.455   6.163  -0.535 -0.6459  0.4589  0.1957
   10CHTO  H202 3861   5.502   6.082  -0.523 -0.3112  0.7856  1.1223
   10CHTO  C119 3862   5.257   6.237  -0.671 -0.3984 -0.7129 -0.2662
   10CHTO  H223 3863   5.198   6.203  -0.756  1.6219 -2.2991 -1.0655
   10CHTO  C117 3864   5.278   6.386  -0.713  0.8303  0.1197  0.5758
   10CHTO  H221 3865   5.332   6.447  -0.640 -0.8281  0.9939  1.0926
   10CHTO   N20 3866   5.146   6.457  -0.734 -0.0763  0.3842 -0.0612
   10CHTO  H209 3867   5.157   6.564  -0.741  1.3695  0.1593 -1.5302
   10CHTO  H210 3868   5.078   6.411  -0.804 -0.1191  1.1001 -0.4860
   10CHTO   O80 3869   5.146   6.214  -0.548 -0.2540 -0.2866 -0.0219
   10CHTO  C103 3870   5.036   6.112  -0.556 -0.1377  0.1987  0.0305
   10CHTO  H190 3871   5.012   6.101  -0.662  1.6684  1.9302 -0.5841
   10CHTO  C101 3872   5.055   5.968  -0.505  0.5118 -0.6429  0.2444
   10CHTO  H188 3873   5.082   5.974  -0.400  0.6381  0.7478  0.1327
   10CHTO   O68 3874   5.180   5.898  -0.569  0.4419 -0.3963  0.2396
   10CHTO  H168 3875   5.249   5.960  -0.580 -0.4193  0.2130 -1.9558
   10CHTO   C99 3876   4.918   5.887  -0.512 -0.3181  0.4712  0.1277
   10CHTO  H186 3877   4.882   5.873  -0.616 -0.3200 -2.6952  0.4973
   10CHTO   N17 3878   4.922   5.753  -0.449  0.3654 -0.2649  0.1494
   10CHTO  H174 3879   5.010   5.739  -0.388 -0.4335  0.3478  1.4516
   10CHTO  H175 3880   4.909   5.678  -0.526 -1.9638 -0.4373  0.6983
   10CHTO   C97 3881   4.801   5.962  -0.429 -0.5428 -0.0025  0.3583
   10CHTO  H184 3882   4.819   5.974  -0.321 -0.3617 -0.3012  0.3626
   10CHTO   O64 3883   4.792   6.087  -0.496  0.2237  0.0070  0.1911
   10CHTO  C104 3884   4.906   6.170  -0.487  0.2450 -0.1074 -0.7754
   10CHTO  H191 3885   4.932   6.187  -0.382 -1.2261 -2.4105  0.0066
   10CHTO  C108 3886   4.863   6.306  -0.535  0.2429  0.8327  0.5431
   10CHTO   O71 3887   4.749   6.358  -0.466  0.0818 -0.2320  0.0860
   10CHTO  H171 3888   4.753   6.450  -0.480  0.7578 -0.5976 -2.2705
   10CHTO   O62 3889   4.668   5.898  -0.441 -0.1205  0.2857  0.4487
   10CHTO   C91 3890   4.572   5.917  -0.343 -1.0107 -0.1632 -0.0053
   10CHTO  H178 3891   4.606   5.999  -0.280 -0.5843  0.2709 -0.7951
   10CHTO   C92 3892   4.555   5.793  -0.253  0.2793 -0.1489  0.3583
   10CHTO  H179 3893   4.517   5.712  -0.317 -1.8556 -0.6947  2.2412
   10CHTO   O66 3894   4.679   5.770  -0.189  0.3929 -0.4651  0.2996
   10CHTO  H166 3895   4.715   5.689  -0.220  1.9947  0.8885 -1.4759
   10CHTO   C93 3896   4.450   5.817  -0.140  0.1535  0.2103  1.0199
   10CHTO  H180 3897   4.494   5.889  -0.069 -0.8765  2.9250 -0.9773
   10CHTO   N16 3898   4.429   5.697  -0.061  0.2007 -0.1154  0.6255
   10CHTO  H172 3899   4.334   5.647  -0.069  1.1616 -1.8378 -0.2172
   10CHTO  H173 3900   4.468   5.708   0.039 -2.2813 -1.1323  1.7526
   10CHTO   C94 3901   4.321   5.876  -0.208  0.5640  0.3521 -0.6772
   10CHTO  H181 3902   4.265   5.799  -0.261 -0.8596 -0.4835  1.9411
   10CHTO   O61 3903   4.340   5.982  -0.300  0.1059 -0.2973  0.4343
   10CHTO   C95 3904   4.435   5.962  -0.408 -0.0110 -0.5360 -0.0574
   10CHTO  H182 3905   4.403   5.883  -0.476  2.2921 -1.6748  0.1513
   10CHTO  C106 3906   4.433   6.093  -0.496  0.5710 -0.1071  0.1183
   10CHTO   O69 3907   4.482   6.209  -0.434 -0.1058 -0.1327 -0.6607
   10CHTO  H169 3908   4.571   6.199  -0.408  0.9157  2.7115 -2.7643
   10CHTO   O63 3909   4.223   5.939  -0.084  0.5147  0.9679 -0.5370
   10CHTO   C96 3910   4.307   6.063   0.007 -0.3716 -0.5636 -0.2874
   10CHTO  H183 3911   4.391   6.087  -0.058 -0.2187 -0.5152 -0.0705
   10CHTO   C98 3912   4.334   6.037   0.154 -0.3994  0.2427 -0.2367
   10CHTO  H185 3913   4.241   5.992   0.191 -0.2081 -0.2869 -0.3899
   10CHTO   O67 3914   4.424   5.928   0.169 -0.0463  0.1490  0.2168
   10CHTO  H167 3915   4.399   5.855   0.115  0.5231  2.1354 -2.8520
   10CHTO  C102 3916   4.378   6.167   0.246  0.3604  0.2975  1.1232
   10CHTO  H189 3917   4.488   6.170   0.234  0.2746 -0.0512  0.1664
   10CHTO   N18 3918   4.351   6.139   0.391 -0.2206  0.3311  0.0886
   10CHTO  H176 3919   4.289   6.053   0.413 -1.4069  1.3758  0.9085
   10CHTO  H177 3920   4.301   6.221   0.440 -0.8328  0.5735 -0.9496
   10CHTO  C105 3921   4.321   6.300   0.190  0.0281  0.3455  0.7551
   10CHTO  H192 3922   4.222   6.317   0.232 -1.0381  0.4382 -1.7049
   10CHTO   O65 3923   4.288   6.297   0.049 -0.4633  0.5641  0.3658
   10CHTO  C100 3924   4.213   6.184   0.002 -0.3041 -0.7167 -0.6020
   10CHTO  H187 3925   4.126   6.168   0.068  1.2998 -2.0446  1.2469
   10CHTO  C107 3926   4.163   6.218  -0.140  0.7436  0.1313  0.4814
   10CHTO   O70 3927   4.078   6.334  -0.137 -0.1507 -0.4653  0.3032
   10CHTO  H170 3928   4.067   6.372  -0.222 -1.6645 -2.7707 -0.5830
   10CHTO   O57 3929   4.437   6.415   0.232 -0.4490 -0.1082 -0.0425
   10CHTO   C85 3930   4.381   6.544   0.236  0.8084 -1.2939 -0.3629
   10CHTO  H157 3931   4.270   6.541   0.231  0.7466  0.2631 -0.0621
   10CHTO   C83 3932   4.425   6.638   0.115  0.2833 -0.2692 -0.1113
   10CHTO  H155 3933   4.371   6.604   0.027 -0.2675 -1.4408  0.6576
   10CHTO   O56 3934   4.564   6.641   0.092 -0.1175  0.7855  0.1007
   10CHTO  H135 3935   4.605   6.581   0.033  1.7009  1.1728  0.9426
   10CHTO   C81 3936   4.368   6.782   0.150 -0.1521  0.6982 -0.5400
   10CHTO  H153 3937   4.261   6.778   0.171  0.2451  0.9174  1.7502
   10CHTO   N14 3938   4.367   6.885   0.038  0.3680  0.2256 -0.4629
   10CHTO  H141 3939   4.289   6.953   0.066 -0.1227 -0.2199 -0.7130
   10CHTO  H142 3940   4.345   6.840  -0.057 -0.9924 -0.9279  0.3745
   10CHTO   C79 3941   4.431   6.845   0.281 -0.6449 -0.2426  0.4034
   10CHTO  H151 3942   4.385   6.942   0.298 -0.5618 -0.3297  1.1098
   10CHTO   O52 3943   4.404   6.756   0.402 -0.0895  0.1880 -0.0619
   10CHTO   C86 3944   4.427   6.610   0.377  0.0653 -0.1196 -0.2790
   10CHTO  H158 3945   4.537   6.603   0.385  0.4351  2.9700 -1.7779
   10CHTO   C90 3946   4.373   6.530   0.504 -0.1277  0.0432 -0.2542
   10CHTO   O60 3947   4.229   6.550   0.523 -0.7586  0.3891 -0.1987
   10CHTO  H138 3948   4.186   6.560   0.440 -0.2875  2.7099 -0.1939
   10CHTO   O50 3949   4.567   6.865   0.271 -0.4292 -0.7695 -0.5682
   10CHTO   C73 3950   4.703   6.845   0.303  0.0318  0.8853  0.4564
   10CHTO  H145 3951   4.746   6.757   0.254 -1.9134  0.8922 -1.3448
   10CHTO   C74 3952   4.719   6.818   0.452  0.9200  0.0054 -0.3122
   10CHTO  H146 3953   4.670   6.725   0.483 -1.3686  1.1263 -0.4517
   10CHTO   O54 3954   4.853   6.778   0.469  0.0824 -0.1488  0.5191
   10CHTO  H133 3955   4.887   6.815   0.548  0.3590  1.4936 -0.3447
   10CHTO   C75 3956   4.667   6.941   0.535  0.1889 -0.2977 -0.9399
   10CHTO  H147 3957   4.561   6.958   0.515  0.5102  1.4211 -1.2651
   10CHTO   N13 3958   4.669   6.916   0.679 -0.0110  0.8432  0.1397
   10CHTO  H139 3959   4.745   6.960   0.742  0.5949  0.0053  0.0123
   10CHTO  H140 3960   4.654   6.811   0.701 -0.9597  1.0489  0.4671
   10CHTO   C76 3961   4.741   7.071   0.481  0.2273 -0.0312 -0.0983
   10CHTO  H148 3962   4.844   7.064   0.516  0.4987  0.2112 -0.8265
   10CHTO   O49 3963   4.742   7.096   0.339 -0.1659  0.0228 -0.3360
   10CHTO   C77 3964   4.777   6.981   0.264  0.3277  0.1636  0.1464
   10CHTO  H149 3965   4.884   6.965   0.274  1.2261  2.8754 -3.8830
   10CHTO   C88 3966   4.764   7.002   0.113 -1.0760 -0.0689 -0.3712
   10CHTO   O58 3967   4.827   6.896   0.035  0.6863  0.4605 -0.4505
   10CHTO  H136 3968   4.907   6.926  -0.002  1.5699 -2.4822 -1.0416
   10CHTO   O51 3969   4.675   7.209   0.557  0.1958 -0.3287 -0.2262
   10CHTO   C78 3970   4.784   7.312   0.573  0.6084 -0.5039  0.2844
   10CHTO  H150 3971   4.861   7.319   0.494 -0.8546  2.3108 -0.9463
   10CHTO   C80 3972   4.852   7.295   0.710  0.0207 -0.5594 -0.3387
   10CHTO  H152 3973   4.777   7.270   0.787  1.2425 -0.1923  1.0028
   10CHTO   O55 3974   4.941   7.180   0.711  0.4661 -0.4345  0.5972
   10CHTO  H134 3975   5.012   7.188   0.772 -1.4804  1.6123  2.6937
   10CHTO   C84 3976   4.934   7.428   0.759  0.2577  0.1505 -0.8685
   10CHTO  H156 3977   5.030   7.415   0.709 -0.4637 -2.6915 -1.6705
   10CHTO   N15 3978   4.961   7.426   0.905  0.4861  0.7298  0.1673
   10CHTO  H143 3979   5.065   7.428   0.933  0.5692 -0.0620 -0.0669
   10CHTO  H144 3980   4.903   7.504   0.950  1.5972 -1.1653  5.3033
   10CHTO   C87 3981   4.871   7.558   0.712  0.1059 -0.1598  0.0738
   10CHTO  H159 3982   4.794   7.600   0.777  1.2797  0.7580  0.8876
   10CHTO   O53 3983   4.823   7.553   0.576  0.6110  0.9959 -0.3672
   10CHTO   C82 3984   4.725   7.451   0.551 -0.6897  0.5182  1.0486
   10CHTO  H154 3985   4.644   7.463   0.623 -0.0715 -1.8697  2.1906
   10CHTO   C89 3986   4.664   7.466   0.412  0.3774  0.1643 -0.5184
   10CHTO   O59 3987   4.756   7.448   0.306  0.3043  0.0446  0.6653
   10CHTO  H137 3988   4.783   7.529   0.268 -0.3560  0.7122  1.5890
   10CHTO   O45 3989   4.987   7.662   0.704  0.4506  0.4849  0.2971
   10CHTO   C67 3990   4.947   7.797   0.725 -0.7838 -0.2434  0.2165
   10CHTO  H124 3991   4.845   7.816   0.690 -0.7101 -1.2717 -0.5925
   10CHTO   C65 3992   4.965   7.828   0.875 -0.0286  0.8146  0.4855
   10CHTO  H122 3993   4.895   7.758   0.921 -0.9584  0.3935 -1.5051
   10CHTO   O44 3994   4.919   7.956   0.919  0.0482 -0.0506 -0.1841
   10CHTO  H102 3995   4.882   7.950   1.005 -1.3745 -0.8025 -0.8369
   10CHTO   C63 3996   5.110   7.798   0.921  0.3166 -0.0726 -0.0174
   10CHTO  H120 3997   5.144   7.701   0.885  0.0997  1.0307 -3.3249
   10CHTO   N11 3998   5.129   7.777   1.073  0.3443 -0.6118 -0.2365
   10CHTO  H108 3999   5.034   7.754   1.117 -0.1492 -0.6183 -1.2903
   10CHTO  H109 4000   5.181   7.858   1.121  1.0342 -1.8950  1.2087
   10CHTO   C61 4001   5.199   7.897   0.847  0.1129 -0.0001 -0.6774
   10CHTO  H118 4002   5.298   7.852   0.867 -0.5649 -1.5223 -0.7024
   10CHTO   O40 4003   5.188   7.897   0.704  0.3170  0.1044  0.3125
   10CHTO   C68 4004   5.047   7.893   0.647 -0.5891  0.1469 -1.5080
   10CHTO  H125 4005   5.058   7.845   0.548  2.6593 -1.3625 -0.4972
   10CHTO   C72 4006   4.999   8.039   0.632 -0.3317  0.2694  0.3795
   10CHTO   O48 4007   5.028   8.104   0.513 -0.3598 -0.3163 -0.1136
   10CHTO  H105 4008   5.027   8.197   0.528 -0.7510 -0.4808  0.8788
   10CHTO   O38 4009   5.187   8.036   0.903  0.3354  0.4500  0.3827
   10CHTO   C55 4010   5.318   8.106   0.917  0.7015  0.3213 -0.4442
   10CHTO  H112 4011   5.386   8.079   0.834  2.0254  1.7155  0.1599
   10CHTO   C56 4012   5.388   8.087   1.055 -0.0256  0.0089  0.0832
   10CHTO  H113 4013   5.316   8.097   1.137 -0.3335  0.8766 -0.2892
   10CHTO   O42 4014   5.433   7.954   1.062 -0.1851 -0.0695 -0.0288
   10CHTO  H100 4015   5.508   7.951   1.118 -0.4894 -1.8515  0.3126
   10CHTO   C57 4016   5.507   8.189   1.073 -0.2946  0.2173 -0.3390
   10CHTO  H114 4017   5.592   8.156   1.013 -0.5431 -0.1506 -0.4888
   10CHTO   N10 4018   5.567   8.182   1.206  0.0232  0.1027  0.3794
   10CHTO  H106 4019   5.573   8.088   1.257 -1.7281 -0.4671 -0.4126
   10CHTO  H107 4020   5.663   8.231   1.198  0.1148 -0.0452  0.5895
   10CHTO   C58 4021   5.460   8.329   1.036 -0.1470 -0.2874  0.4612
   10CHTO  H115 4022   5.382   8.361   1.108 -0.5171 -1.2204  0.4780
   10CHTO   O37 4023   5.409   8.318   0.905 -0.1996  0.1973  0.1871
   10CHTO   C59 4024   5.286   8.252   0.889 -0.6200 -0.6362 -0.5323
   10CHTO  H116 4025   5.213   8.285   0.963  1.0000 -0.6431  1.0945
   10CHTO   C70 4026   5.242   8.273   0.746 -0.2028 -0.3988 -0.1703
   10CHTO   O46 4027   5.217   8.414   0.732 -0.5963  0.3177 -0.3214
   10CHTO  H103 4028   5.285   8.461   0.688  1.1601 -2.6460 -0.8960
   10CHTO   O39 4029   5.587   8.440   1.029  0.0010 -0.0764  0.3569
   10CHTO   C60 4030   5.544   8.572   0.992 -0.3392 -0.1232  0.8037
   10CHTO  H117 4031   5.458   8.558   0.925  0.2961  1.2777 -0.3080
   10CHTO   C62 4032   5.484   8.641   1.122  0.2096  0.4468 -0.2003
   10CHTO  H119 4033   5.413   8.560   1.149 -1.1067  1.6472  0.0204
   10CHTO   O43 4034   5.585   8.648   1.221  0.1272 -0.3385 -0.1993
   10CHTO  H101 4035   5.623   8.564   1.239  1.3315  0.4845  1.2450
   10CHTO   C66 4036   5.424   8.784   1.093  0.1033 -0.1912 -0.2671
   10CHTO  H123 4037   5.345   8.768   1.020  0.2622 -1.3710 -0.1846
   10CHTO   N12 4038   5.349   8.834   1.209  0.1735  0.3729 -0.0230
   10CHTO  H110 4039   5.335   8.773   1.297  1.1993 -0.9618 -0.7838
   10CHTO  H111 4040   5.314   8.936   1.215 -0.8333 -0.0598  1.7752
   10CHTO   C69 4041   5.534   8.873   1.027 -0.3408 -0.1441 -0.0916
   10CHTO  H126 4042   5.605   8.903   1.107  1.9932 -3.1098 -0.9845
   10CHTO   O41 4043   5.611   8.790   0.899  0.4581  0.2585 -0.5441
   10CHTO   C64 4044   5.651   8.654   0.921  0.7257  0.1694 -0.8935
   10CHTO  H121 4045   5.742   8.658   0.985 -0.9217 -0.7581  1.6011
   10CHTO   C71 4046   5.690   8.589   0.788  0.1931 -0.1015  0.5878
   10CHTO   O47 4047   5.589   8.584   0.692  0.1994 -0.1157  0.3855
   10CHTO  H104 4048   5.608   8.637   0.617  2.6640  0.2345  1.1854
   10CHTO   O34 4049   5.470   8.995   0.963  0.0077  0.0310 -0.0237
   10CHTO   C49 4050   5.487   9.110   0.853  0.1552 -0.5715  0.8574
   10CHTO   H91 4051   5.587   9.100   0.812 -1.2504 -2.0321 -2.4161
   10CHTO   C47 4052   5.481   9.246   0.933  0.6708  0.1952 -0.2024
   10CHTO   H89 4053   5.508   9.322   0.857 -2.0736  2.1381  0.7101
   10CHTO   O33 4054   5.573   9.251   1.039  0.3064 -0.1701  0.1638
   10CHTO   H70 4055   5.525   9.250   1.120 -0.6369  0.0712 -0.3782
   10CHTO   C45 4056   5.330   9.277   0.983  0.0191  0.1106  0.2909
   10CHTO   H87 4057   5.292   9.193   1.044 -3.0567  1.8155  0.8435
   10CHTO    N8 4058   5.316   9.404   1.067 -0.1581 -0.1576 -0.0101
   10CHTO   H75 4059   5.224   9.416   1.122  0.0315 -0.0586  0.2859
   10CHTO   H76 4060   5.346   9.498   1.024  1.0988  0.7880  2.8645
   10CHTO   C43 4061   5.232   9.283   0.846 -0.0853  0.5766  0.2129
   10CHTO   H85 4062   5.130   9.299   0.881 -0.1424  1.0362 -0.1622
   10CHTO   O29 4063   5.244   9.155   0.780 -0.1618 -0.1443  0.1128
   10CHTO   C50 4064   5.375   9.099   0.748 -0.0893  0.0003 -0.3992
   10CHTO   H92 4065   5.349   8.994   0.725  0.8372 -0.2888 -0.1257
   10CHTO   C54 4066   5.419   9.141   0.607 -0.2126  0.1364  0.5024
   10CHTO   O36 4067   5.364   9.068   0.497  0.3559  0.7271 -0.2857
   10CHTO   H72 4068   5.297   9.119   0.454 -0.9109  1.5901  2.5813
   10CHTO   O27 4069   5.265   9.389   0.756  0.5185  0.2595  0.1905
   10CHTO   C37 4070   5.289   9.479   0.654 -0.3661 -0.0205 -0.3951
   10CHTO   H79 4071   5.383   9.453   0.604  1.0929  1.8214  1.3005
   10CHTO   C38 4072   5.169   9.475   0.550  0.7901 -0.1273  0.6297
   10CHTO   H80 4073   5.077   9.496   0.607 -0.0219  0.3597 -0.8265
   10CHTO   O31 4074   5.173   9.342   0.497  0.0900  0.0551  0.3934
   10CHTO   H68 4075   5.152   9.285   0.568  1.6345 -0.6153  0.3309
   10CHTO   C39 4076   5.198   9.587   0.439 -0.3861  0.6255  0.1656
   10CHTO   H81 4077   5.286   9.560   0.381  0.6032  1.1786  1.3708
   10CHTO    N7 4078   5.085   9.586   0.345  0.0365 -0.2708 -0.2642
   10CHTO   H73 4079   5.078   9.491   0.295 -2.0045 -0.6600  0.7028
   10CHTO   H74 4080   4.987   9.605   0.387 -0.0325 -1.8927  0.3578
   10CHTO   C40 4081   5.233   9.733   0.490 -0.0931  0.3463 -0.7496
   10CHTO   H82 4082   5.142   9.789   0.513  0.2814 -0.3438  2.6839
   10CHTO   O26 4083   5.321   9.722   0.607 -0.7744 -0.1036  0.4292
   10CHTO   C41 4084   5.297   9.623   0.714  0.2793 -0.5189  0.7956
   10CHTO   H83 4085   5.215   9.650   0.782 -0.5614 -0.9777 -0.0227
   10CHTO   C52 4086   5.427   9.629   0.797 -0.0500 -0.2265  0.9585
   10CHTO   O35 4087   5.461   9.751   0.859  0.1745 -0.6780 -0.4431
   10CHTO   H71 4088   5.554   9.746   0.872  0.2060 -0.6522 -0.6513
   10CHTO   O28 4089   5.323   9.804   0.404  0.1774  0.0970 -0.2993
   10CHTO   C42 4090   5.313   9.952   0.412  0.7148  0.1994  0.0933
   10CHTO   H84 4091   5.269   9.976   0.509  1.9755 -1.1002  1.0020
   10CHTO   C44 4092   5.225  10.016   0.303  0.2098 -0.2312 -0.4582
   10CHTO   H86 4093   5.259   9.985   0.204 -2.5137 -2.4644 -0.7448
   10CHTO   O32 4094   5.098   9.950   0.310  0.1519  0.7115 -0.0956
   10CHTO   H69 4095   5.038   9.979   0.244 -0.2762 -0.4661 -0.2464
   10CHTO   C48 4096   5.206  10.173   0.312  0.6162  0.8168 -0.4092
   10CHTO   H90 4097   5.155  10.193   0.407 -0.6894  3.3552 -1.5866
   10CHTO    N9 4098   5.112  10.209   0.198  0.1333  0.0094  0.1110
   10CHTO   H77 4099   5.161  10.265   0.120 -0.8360  0.2956 -0.2986
   10CHTO   H78 4100   5.071  10.124   0.146  0.7780  0.3590 -1.0022
   10CHTO   C51 4101   5.353  10.223   0.287  0.1718  0.0602  1.0641
   10CHTO   H93 4102   5.387  10.175   0.195  1.4709 -1.9705  2.5328
   10CHTO   O30 4103   5.430  10.179   0.397  0.4573 -0.3826 -0.5003
   10CHTO   C46 4104   5.448  10.028   0.399  0.1764 -0.0238  0.7665
   10CHTO   H88 4105   5.497   9.998   0.306  0.8795 -1.3269  1.5355
   10CHTO   C53 4106   5.541   9.996   0.518  0.0227 -0.1911  0.1647
   10CHTO   O72 4107   5.503  10.048   0.643  0.3059 -0.2125 -0.4594
   10CHTO  H199 4108   5.411  10.034   0.655 -0.1356 -1.0130 -4.1319
   10CHTO   O22 4109   5.363  10.365   0.282  0.4345  0.4275  0.4648
   10CHTO   C31 4110   5.468  10.445   0.225  0.0213 -0.1351 -0.3708
   10CHTO   H59 4111   5.448  10.550   0.256  0.5949 -0.3661  0.8288
   10CHTO   C29 4112   5.605  10.417   0.280 -0.8951 -0.0730  0.4985
   10CHTO   H57 4113   5.632  10.315   0.248  1.7130  0.8855 -0.4222
   10CHTO   O21 4114   5.599  10.416   0.424 -0.6813  0.9647  0.6396
   10CHTO   H37 4115   5.515  10.391   0.458 -0.3378  0.3549  1.0289
   10CHTO   C27 4116   5.711  10.512   0.220 -0.6085 -0.2477 -0.0563
   10CHTO   H55 4117   5.685  10.614   0.250  1.7081  0.4381 -0.2266
   10CHTO    N5 4118   5.853  10.483   0.264  0.1566  0.4299  0.2459
   10CHTO   H43 4119   5.848  10.465   0.371 -2.2721 -0.6262 -0.0220
   10CHTO   H44 4120   5.907  10.577   0.257  0.0147  0.6558  1.8384
   10CHTO   C25 4121   5.696  10.527   0.063 -0.5693 -0.0666 -0.1121
   10CHTO   H53 4122   5.738  10.434   0.022 -1.1098  0.0155 -0.8585
   10CHTO   O17 4123   5.562  10.537   0.007  0.1279  0.1773 -0.2544
   10CHTO   C32 4124   5.470  10.442   0.067  0.2770  0.5405 -0.1530
   10CHTO   H60 4125   5.490  10.339   0.039 -1.9051  0.0183  0.1751
   10CHTO   C36 4126   5.330  10.483   0.012 -0.2743  0.7281  0.2865
   10CHTO   O25 4127   5.285  10.610   0.049  0.0817  0.0294 -0.2544
   10CHTO   H40 4128   5.203  10.629   0.006  0.6897 -1.2232 -2.0334
   10CHTO   O15 4129   5.791  10.655   0.014  0.0402 -0.4543 -0.0500
   10CHTO   C19 4130   5.784  10.795  -0.010  0.0831 -0.4556 -0.6621
   10CHTO   H47 4131   5.742  10.807  -0.111  0.7791  2.1850 -0.6586
   10CHTO   C20 4132   5.685  10.872   0.092  0.6807 -0.3817  0.7033
   10CHTO   H48 4133   5.711  10.859   0.198 -1.7070 -0.6668  1.2826
   10CHTO   O19 4134   5.556  10.815   0.065 -0.3732  0.3825  0.0541
   10CHTO   H35 4135   5.487  10.876   0.085 -0.9989 -1.0557  2.5513
   10CHTO   C21 4136   5.675  11.032   0.052  0.1426  0.0281 -0.7369
   10CHTO   H49 4137   5.618  11.044  -0.041 -0.1863  0.6561 -0.4563
   10CHTO    N4 4138   5.594  11.105   0.159  0.3201  0.5433  0.3103
   10CHTO   H41 4139   5.498  11.059   0.178 -0.0428  0.4104 -1.7619
   10CHTO   H42 4140   5.653  11.088   0.248 -0.9191  0.8426  1.2096
   10CHTO   C22 4141   5.814  11.092   0.028  0.1740  0.2643  0.1800
   10CHTO   H50 4142   5.871  11.101   0.120  0.0531 -0.7014  0.3549
   10CHTO   O14 4143   5.878  11.006  -0.070 -0.1647 -0.5577  0.2494
   10CHTO   C23 4144   5.914  10.877  -0.016  0.4534  1.2759 -0.6346
   10CHTO   H51 4145   5.959  10.893   0.083 -1.8576 -0.0874  0.6668
   10CHTO   C34 4146   6.019  10.812  -0.107  0.3062 -1.0372 -0.0686
   10CHTO   O23 4147   6.095  10.713  -0.046 -0.2633  0.0996  0.1190
   10CHTO   H38 4148   6.176  10.694  -0.090 -0.3364 -0.0520  0.0508
   10CHTO   O16 4149   5.804  11.222  -0.037  0.3686 -0.2146  0.4610
   10CHTO   C24 4150   5.912  11.344   0.053  0.2228  0.1213 -0.0011
   10CHTO   H52 4151   6.005  11.299   0.086  1.0988  0.9272 -1.3222
   10CHTO   C26 4152   5.834  11.406   0.173 -0.3367  0.3148  1.1320
   10CHTO   H54 4153   5.732  11.436   0.141 -0.0902  1.0733  1.0602
   10CHTO   O20 4154   5.814  11.305   0.273 -0.7056  0.0695  0.0938
   10CHTO   H36 4155   5.896  11.270   0.301 -0.4911 -1.7526 -2.6517
   10CHTO   C30 4156   5.918  11.524   0.230  0.6007 -0.1560  0.1805
   10CHTO   H58 4157   5.999  11.486   0.295  1.0213 -0.5071 -0.5394
   10CHTO    N6 4158   5.826  11.598   0.319  0.0634 -0.1301 -0.2045
   10CHTO   H45 4159   5.776  11.527   0.382 -0.4720  1.2310  0.9356
   10CHTO   H46 4160   5.877  11.667   0.384 -0.0698 -3.0440  3.0917
   10CHTO   C33 4161   5.999  11.618   0.133 -0.6850 -0.3274  0.0551
   10CHTO   H61 4162   5.938  11.702   0.097  1.1068  0.4367 -1.2720
   10CHTO   O18 4163   6.053  11.548   0.019  0.6381 -0.1706 -0.2055
   10CHTO   C28 4164   5.961  11.460  -0.046 -0.3342 -0.0138 -0.0792
   10CHTO   H56 4165   5.873  11.513  -0.082 -0.3172 -1.4545 -2.2947
   10CHTO   C35 4166   6.040  11.409  -0.167 -0.6683  0.6544 -0.3981
   10CHTO   O24 4167   5.960  11.325  -0.246  0.3111 -0.2532 -0.3713
   10CHTO   H39 4168   5.932  11.255  -0.191 -1.0995  0.0397 -0.6995
   10CHTO    O9 4169   6.109  11.679   0.203  0.5924 -0.5897  0.1174
   10CHTO   C13 4170   6.170  11.806   0.146  0.4442  0.4406 -0.3590
   10CHTO   H26 4171   6.145  11.799   0.038  1.0610 -0.8313 -0.4324
   10CHTO   C11 4172   6.324  11.799   0.168  0.1246  0.6585  0.7286
   10CHTO   H24 4173   6.355  11.704   0.123 -2.1656 -0.4261  1.3664
   10CHTO    O8 4174   6.352  11.791   0.312 -0.1231 -0.4632 -0.6570
   10CHTO    H3 4175   6.445  11.779   0.318 -0.2055 -0.2955  1.2624
   10CHTO    C9 4176   6.388  11.913   0.088 -0.0970 -0.0020  0.4018
   10CHTO   H22 4177   6.373  11.889  -0.018 -0.0545 -0.7484  0.5660
   10CHTO    N2 4178   6.537  11.921   0.100 -0.5000  1.1961 -0.4805
   10CHTO   H10 4179   6.565  11.947   0.201  0.0480 -1.5862  0.1147
   10CHTO   H11 4180   6.590  11.979   0.026 -1.9363  1.9258 -0.9727
   10CHTO    C7 4181   6.310  12.053   0.114 -0.2011 -0.5216  0.4160
   10CHTO   H20 4182   6.243  12.074   0.029  1.3937  1.2488 -0.4543
   10CHTO    O4 4183   6.216  12.043   0.224 -0.8246 -0.0794 -0.8550
   10CHTO   C14 4184   6.112  11.950   0.202  0.3577 -0.5620 -0.2627
   10CHTO   H27 4185   6.044  11.999   0.129  0.9253  2.0419  0.9073
   10CHTO   C18 4186   6.033  11.913   0.331  0.6935 -0.5587  0.5370
   10CHTO   O13 4187   5.987  12.033   0.389 -0.3959  0.1650  0.5475
   10CHTO    H7 4188   6.030  12.046   0.472 -0.2818  2.4745  0.1543
   10CHTO    O2 4189   6.412  12.210   0.144  0.3687 -0.3293  0.3277
   10CHTO    C1 4190   6.352  12.309   0.218 -0.0372 -0.0498  0.6165
   10CHTO   H14 4191   6.267  12.272   0.279  0.3042 -1.8128  0.0492
   10CHTO    C2 4192   6.292  12.422   0.129 -0.0794 -0.6518 -0.3465
   10CHTO   H15 4193   6.371  12.451   0.059  0.4991  0.3992  0.7186
   10CHTO    O6 4194   6.173  12.372   0.055 -0.5125 -0.0552  0.4150
   10CHTO    H1 4195   6.099  12.345   0.106 -1.6074  0.8765 -0.6132
   10CHTO    C3 4196   6.253  12.556   0.213 -0.2038  0.0850 -0.1955
   10CHTO   H16 4197   6.169  12.521   0.275  0.5748 -1.9188 -0.2451
   10CHTO    N1 4198   6.205  12.674   0.134  0.2580 -0.0091 -0.0437
   10CHTO    H8 4199   6.284  12.713   0.071  0.5775 -0.0284  0.3478
   10CHTO    H9 4200   6.170  12.748   0.204  2.1919  1.9161 -1.0585
   10CHTO    C4 4201   6.365  12.595   0.315  0.8375  1.2590 -0.2107
   10CHTO   H17 4202   6.453  12.632   0.263  1.5001  1.4030  0.9892
   10CHTO    O1 4203   6.399  12.481   0.390 -0.7478  0.4730  0.0372
   10CHTO    C5 4204   6.454  12.376   0.317  1.1421 -0.0226  0.0286
   10CHTO   H18 4205   6.538  12.426   0.268 -1.0663  2.1827 -1.6473
   10CHTO   C16 4206   6.506  12.268   0.420  0.6859 -1.0501  0.3221
   10CHTO   O11 4207   6.598  12.177   0.361 -0.0082 -0.1966 -0.0511
   10CHTO    H5 4208   6.680  12.219   0.348  0.2354 -0.9882 -1.1531
   10CHTO    O3 4209   6.312  12.688   0.414 -0.0587 -0.2073 -0.9889
   10CHTO    C6 4210   6.411  12.775   0.485 -0.3583 -0.9618 -0.1075
   10CHTO   H19 4211   6.515  12.773   0.454  0.1529  3.0053  0.9809
   10CHTO    C8 4212   6.381  12.921   0.462  0.0210 -0.0103 -0.0521
   10CHTO   H21 4213   6.281  12.941   0.501  1.0565  3.0094  1.2143
   10CHTO    O7 4214   6.395  12.956   0.321 -0.0390 -0.0894  0.0430
   10CHTO    H2 4215   6.444  13.035   0.305 -0.8992  0.4046 -0.1804
   10CHTO   C12 4216   6.485  13.008   0.544  0.4384  0.3037  0.4995
   10CHTO   H25 4217   6.586  12.985   0.505  0.6411 -0.6957  1.5917
   10CHTO    N3 4218   6.459  13.152   0.523 -0.3806 -0.7437  0.0484
   10CHTO   H12 4219   6.359  13.167   0.486 -0.7162 -0.5042  1.0428
   10CHTO   H13 4220   6.524  13.186   0.443  0.6064  0.7436  1.4534
   10CHTO   C15 4221   6.477  12.973   0.692  0.1736 -0.1577  0.2491
   10CHTO   H28 4222   6.386  12.995   0.748  1.1566 -0.3472  1.9543
   10CHTO   O10 4223   6.608  13.039   0.769 -0.0218  0.3221 -0.2437
   10CHTO    H4 4224   6.612  13.016   0.860  0.3838 -3.8886 -1.2179
   10CHTO    O5 4225   6.502  12.836   0.703 -0.8896 -0.1926 -0.0432
   10CHTO   C10 4226   6.415  12.742   0.633 -0.2450  0.1207  0.4238
   10CHTO   H23 4227   6.314  12.733   0.674  0.1562 -1.6039  1.0816
   10CHTO   C17 4228   6.483  12.605   0.659 -0.5982 -0.0547 -0.6119
   10CHTO   O12 4229   6.616  12.597   0.610  0.4552 -0.1166  0.4447
   10CHTO    H6 4230   6.618  12.553   0.527 -1.0986  1.8433 -0.6940
   11CHTO  H203 4231   7.660   5.055   1.111  0.1399  0.9018  0.1192
   11CHTO   O82 4232   7.586   5.066   1.055 -0.1731 -0.0059  0.3426
   11CHTO  C123 4233   7.542   5.203   1.056  0.5686 -0.3090  0.5155
   11CHTO  H227 4234   7.627   5.260   1.016 -0.6167  2.5812  1.9593
   11CHTO   O77 4235   7.421   5.203   0.967  0.2594  0.2325  0.7372
   11CHTO  C118 4236   7.338   5.321   0.963  0.0173 -0.5384 -0.3307
   11CHTO  H222 4237   7.400   5.394   0.909 -0.7432  1.1167  0.9986
   11CHTO  C125 4238   7.198   5.293   0.880  0.2974  0.0312  0.3036
   11CHTO   O84 4239   7.233   5.253   0.750  0.0124  0.0148 -0.0456
   11CHTO  H205 4240   7.275   5.169   0.746 -0.7496 -0.3376 -0.6265
   11CHTO  C114 4241   7.297   5.372   1.102  0.1919  0.1387  0.6406
   11CHTO  H218 4242   7.245   5.293   1.156 -1.0060  0.4938  0.0071
   11CHTO  C116 4243   7.430   5.399   1.183  0.0332  0.2661  0.1337
   11CHTO  H220 4244   7.485   5.482   1.133 -1.8192  1.9835  0.8817
   11CHTO   O79 4245   7.381   5.440   1.309 -0.2779  0.3525 -0.2005
   11CHTO  H201 4246   7.441   5.424   1.380  0.5471  0.4073 -0.8839
   11CHTO  C120 4247   7.513   5.263   1.200 -0.6446 -0.5114 -0.0028
   11CHTO  H224 4248   7.452   5.192   1.261 -1.5281  0.8154  0.6881
   11CHTO   N21 4249   7.637   5.278   1.282 -0.0406 -0.1003  0.1780
   11CHTO  H211 4250   7.731   5.306   1.236 -0.7015  3.3541  0.7886
   11CHTO  H212 4251   7.653   5.187   1.338  2.1027 -0.0729 -0.3341
   11CHTO   O75 4252   7.217   5.487   1.085 -0.5680  0.0482  0.5465
   11CHTO  C112 4253   7.071   5.482   1.180 -0.5585 -0.4025  0.1243
   11CHTO  H216 4254   7.110   5.455   1.279 -0.5956  0.4366  0.3750
   11CHTO   O73 4255   6.983   5.382   1.128  0.1234 -0.3690  0.4322
   11CHTO  C113 4256   6.848   5.378   1.175  0.0669 -0.9077  0.7110
   11CHTO  H217 4257   6.845   5.367   1.285 -1.8135 -0.5534  0.7040
   11CHTO  C124 4258   6.770   5.265   1.116 -0.6890  0.0138 -0.2105
   11CHTO   O83 4259   6.785   5.232   0.973 -0.1680 -0.0890 -0.3753
   11CHTO  H204 4260   6.726   5.292   0.933  1.3665  0.4976 -1.8406
   11CHTO  C109 4261   6.776   5.516   1.148  0.2107  0.4952  0.2603
   11CHTO  H213 4262   6.776   5.531   1.039  1.7503  0.2705  0.2160
   11CHTO  C110 4263   6.861   5.625   1.225 -0.4008 -0.6532  0.0592
   11CHTO  H214 4264   6.846   5.607   1.331 -0.1436  0.5374  0.3002
   11CHTO   O78 4265   6.796   5.758   1.205 -0.1171  0.1202  0.0293
   11CHTO  H200 4266   6.711   5.757   1.247  0.1716 -2.3629  0.5977
   11CHTO  C111 4267   7.008   5.623   1.175  0.2218  0.5673  0.5004
   11CHTO  H215 4268   7.010   5.651   1.068  0.2472  0.9429  0.5982
   11CHTO   N19 4269   7.099   5.711   1.245 -0.1104  0.0954  0.0711
   11CHTO  H207 4270   7.065   5.813   1.236 -0.3636  0.0046  0.0078
   11CHTO  H208 4271   7.103   5.687   1.351  0.7679 -0.9707 -0.1917
   11CHTO   O74 4272   6.640   5.515   1.204 -0.1140 -0.4142 -0.8661
   11CHTO  C115 4273   6.526   5.511   1.092  0.2371  0.1776 -0.3621
   11CHTO  H219 4274   6.569   5.480   0.996 -0.4405  0.4693 -0.7581
   11CHTO   O76 4275   6.420   5.393   1.120 -0.3512 -0.1571  0.0977
   11CHTO  C122 4276   6.361   5.424   1.242 -0.2355 -0.5931 -0.0130
   11CHTO  H226 4277   6.434   5.402   1.319  0.7094  2.2414 -0.0372
   11CHTO  C126 4278   6.242   5.319   1.263  0.2567  0.1421 -0.1131
   11CHTO   O85 4279   6.295   5.190   1.289 -0.0382 -0.4693 -0.0817
   11CHTO  H206 4280   6.334   5.151   1.213 -1.5799  1.2322 -1.7967
   11CHTO  C121 4281   6.316   5.578   1.267 -0.5972 -0.2619 -1.0074
   11CHTO  H225 4282   6.214   5.585   1.310  0.3694  2.0271  1.0123
   11CHTO   O81 4283   6.407   5.628   1.372  0.0729 -0.2862 -0.1466
   11CHTO  H202 4284   6.422   5.719   1.354 -0.3917 -0.0578  0.5904
   11CHTO  C119 4285   6.323   5.654   1.132  0.6604 -0.6496 -0.6049
   11CHTO  H223 4286   6.263   5.593   1.064 -1.3839  1.2007 -0.5017
   11CHTO  C117 4287   6.472   5.655   1.081  0.1777 -0.1580 -0.4125
   11CHTO  H221 4288   6.548   5.714   1.133  1.3136 -0.2729 -1.9158
   11CHTO   N20 4289   6.479   5.707   0.937 -0.0182  0.3485 -0.1652
   11CHTO  H209 4290   6.454   5.626   0.870 -0.8957 -0.2821  0.9103
   11CHTO  H210 4291   6.423   5.799   0.939  0.9540  0.9262  1.1698
   11CHTO   O80 4292   6.245   5.793   1.126  0.0368 -0.4410 -0.0558
   11CHTO  C103 4293   6.266   5.891   1.237 -0.6466 -0.5010  0.2427
   11CHTO  H190 4294   6.269   5.838   1.332  0.3917 -1.4717 -0.3112
   11CHTO  C101 4295   6.398   5.980   1.206 -0.2572 -0.5462  0.4201
   11CHTO  H188 4296   6.404   5.997   1.099 -1.0912  1.7014  0.7004
   11CHTO   O68 4297   6.521   5.911   1.254  0.3493  0.0973 -0.5507
   11CHTO  H168 4298   6.513   5.887   1.344  0.3242  1.2604 -0.2271
   11CHTO   C99 4299   6.394   6.120   1.279  0.3711 -0.1022  0.1362
   11CHTO  H186 4300   6.409   6.114   1.388  0.3458 -0.8075  0.1044
   11CHTO   N17 4301   6.497   6.221   1.234  0.0106 -0.4520  0.4549
   11CHTO  H174 4302   6.581   6.184   1.178  1.2893  2.2331  0.5507
   11CHTO  H175 4303   6.529   6.280   1.319  0.0827  1.8739 -1.1618
   11CHTO   C97 4304   6.252   6.172   1.256  0.0694  0.1688 -0.0658
   11CHTO  H184 4305   6.228   6.191   1.151  0.6327  2.6791  0.2222
   11CHTO   O64 4306   6.155   6.086   1.325 -0.3272  0.5645  0.6076
   11CHTO  C104 4307   6.132   5.969   1.242  0.2811 -0.1084  0.0741
   11CHTO  H191 4308   6.102   6.000   1.142  2.4902  2.4199  0.1474
   11CHTO  C108 4309   6.015   5.884   1.304  0.6180  0.0514 -0.0144
   11CHTO   O71 4310   5.882   5.933   1.281 -0.4967  0.3998 -0.1241
   11CHTO  H171 4311   5.864   5.929   1.189 -0.0148 -0.7526 -0.1715
   11CHTO   O62 4312   6.218   6.285   1.332 -0.1303 -0.3982 -0.2068
   11CHTO   C91 4313   6.135   6.389   1.268  0.0372 -0.0384 -0.2746
   11CHTO  H178 4314   6.092   6.343   1.180  0.3649  1.4477 -1.2309
   11CHTO   C92 4315   6.212   6.522   1.224 -0.0962 -0.1805  0.0544
   11CHTO  H179 4316   6.303   6.505   1.165 -1.0223  1.2219 -1.7973
   11CHTO   O66 4317   6.132   6.593   1.131 -0.2789  0.0452 -0.1918
   11CHTO  H166 4318   6.150   6.560   1.045 -0.9362 -1.6311  0.2833
   11CHTO   C93 4319   6.248   6.615   1.352  0.7956  0.2613  0.2088
   11CHTO  H180 4320   6.262   6.719   1.318 -0.2150  0.2577 -0.2497
   11CHTO   N16 4321   6.372   6.572   1.423  0.6732  0.1280 -0.2777
   11CHTO  H172 4322   6.464   6.585   1.369  2.9666 -2.9207  2.7708
   11CHTO  H173 4323   6.390   6.629   1.513  0.5776  0.9557 -0.7684
   11CHTO   C94 4324   6.129   6.608   1.456  0.5340  0.3217  0.3746
   11CHTO  H181 4325   6.156   6.548   1.544  0.6578  1.3960  1.0829
   11CHTO   O61 4326   6.011   6.559   1.389  0.0982 -0.3777  0.5036
   11CHTO   C95 4327   6.011   6.420   1.358  0.8779 -0.5067  0.1914
   11CHTO  H182 4328   6.017   6.356   1.446  0.2334 -0.2867  0.3985
   11CHTO  C106 4329   5.870   6.387   1.295  0.0259 -0.4786 -0.2705
   11CHTO   O69 4330   5.869   6.250   1.251 -0.5646 -0.0986 -0.1287
   11CHTO  H169 4331   5.908   6.193   1.315  0.3962  0.6619 -0.0177
   11CHTO   O63 4332   6.092   6.755   1.504  0.1797 -0.1886  0.2365
   11CHTO   C96 4333   6.076   6.756   1.654  0.1474 -0.3613 -0.1634
   11CHTO  H183 4334   6.050   6.654   1.678 -0.6920 -0.1423 -0.1399
   11CHTO   C98 4335   5.968   6.865   1.707  0.2108  0.3937  0.1677
   11CHTO  H185 4336   5.877   6.846   1.648  0.0809 -1.2185  0.8550
   11CHTO   O67 4337   5.939   6.843   1.841 -0.2260  0.3772 -0.1454
   11CHTO  H167 4338   5.850   6.859   1.865 -0.5026  1.2313 -1.6992
   11CHTO  C102 4339   6.018   7.017   1.697  0.2212  0.5999 -0.2163
   11CHTO  H189 4340   5.940   7.068   1.756 -0.3288  0.9499 -1.2467
   11CHTO   N18 4341   6.007   7.080   1.566  1.0997 -0.2941 -0.2407
   11CHTO  H176 4342   6.070   7.030   1.494  0.2265 -0.0095 -1.2091
   11CHTO  H177 4343   5.913   7.075   1.513  0.2678 -1.9187  1.3567
   11CHTO  C105 4344   6.160   7.028   1.765 -0.1116 -0.6832 -0.6283
   11CHTO  H192 4345   6.230   7.078   1.698 -0.8819 -0.2148 -1.0785
   11CHTO   O65 4346   6.219   6.901   1.803  0.6770  0.3883  0.1223
   11CHTO  C100 4347   6.224   6.795   1.705  0.1158  1.0844  0.5690
   11CHTO  H187 4348   6.293   6.822   1.624  2.2237 -0.2950  1.8498
   11CHTO  C107 4349   6.280   6.668   1.776  0.2903 -0.3578 -0.2826
   11CHTO   O70 4350   6.204   6.619   1.886  0.1297  0.2394 -0.6929
   11CHTO  H170 4351   6.226   6.531   1.911  1.6406  0.7171 -0.2834
   11CHTO   O57 4352   6.145   7.112   1.885  0.3093  0.0075 -0.0656
   11CHTO   C85 4353   6.247   7.208   1.916 -0.4754 -0.3829 -0.5411
   11CHTO  H157 4354   6.231   7.227   2.024  1.4250  2.1996 -0.6738
   11CHTO   C83 4355   6.205   7.342   1.855  0.6778 -0.5618  0.7916
   11CHTO  H155 4356   6.105   7.365   1.892 -0.2296 -0.3100 -1.7163
   11CHTO   O56 4357   6.187   7.316   1.716 -0.5136 -0.2805  0.1476
   11CHTO  H135 4358   6.263   7.288   1.667 -2.0653 -0.7381 -2.1021
   11CHTO   C81 4359   6.305   7.457   1.891 -0.4612  0.0557 -0.2248
   11CHTO  H153 4360   6.314   7.458   2.000  0.0750 -2.7139 -0.2029
   11CHTO   N14 4361   6.256   7.595   1.849 -0.1031  0.1138  0.2902
   11CHTO  H141 4362   6.342   7.657   1.862 -0.6693  0.7033  1.2940
   11CHTO  H142 4363   6.183   7.626   1.920 -0.9242 -2.2112  0.5249
   11CHTO   C79 4364   6.440   7.408   1.828 -0.3508 -0.4371 -0.1939
   11CHTO  H151 4365   6.514   7.482   1.858 -1.0518 -1.2600  3.7467
   11CHTO   O52 4366   6.479   7.286   1.895  0.1855 -0.2904  0.3887
   11CHTO   C86 4367   6.397   7.168   1.889 -0.3742  0.3678  0.4385
   11CHTO  H158 4368   6.405   7.127   1.787 -0.1932  1.8173 -0.1530
   11CHTO   C90 4369   6.449   7.057   1.989 -0.1283 -0.3744 -0.3018
   11CHTO   O60 4370   6.478   7.115   2.120  0.4660 -0.0786 -0.0300
   11CHTO  H138 4371   6.398   7.102   2.166 -0.0579  1.5236 -0.4409
   11CHTO   O50 4372   6.452   7.400   1.683 -0.6712  0.1782  0.0373
   11CHTO   C73 4373   6.524   7.403   1.564 -0.3888 -0.8361 -1.2726
   11CHTO  H145 4374   6.537   7.508   1.532  1.9930 -1.8968 -3.9984
   11CHTO   C74 4375   6.457   7.325   1.449  0.2105 -0.1172 -0.8156
   11CHTO  H146 4376   6.361   7.377   1.433  0.4571  0.6491  0.1671
   11CHTO   O54 4377   6.537   7.338   1.333 -0.5490 -0.4864 -0.1430
   11CHTO  H133 4378   6.630   7.344   1.347 -0.2299 -2.3901 -1.3681
   11CHTO   C75 4379   6.431   7.173   1.497 -0.3606  0.1214  0.8853
   11CHTO  H147 4380   6.367   7.172   1.587 -0.0327  1.6353  1.1490
   11CHTO   N13 4381   6.363   7.082   1.402 -0.0762 -0.3900  0.1232
   11CHTO  H139 4382   6.343   6.986   1.447 -2.9842  0.1259 -0.0016
   11CHTO  H140 4383   6.262   7.109   1.375  0.5546  0.6477 -1.2753
   11CHTO   C76 4384   6.575   7.120   1.553  0.0590 -0.5528 -0.0308
   11CHTO  H148 4385   6.641   7.115   1.466 -0.0113 -0.7320 -0.0738
   11CHTO   O49 4386   6.643   7.205   1.643 -0.2408  0.4652  0.1941
   11CHTO   C77 4387   6.658   7.341   1.594  0.5091  0.0960 -0.0244
   11CHTO  H149 4388   6.717   7.334   1.503 -0.1572  0.1423 -0.4619
   11CHTO   C88 4389   6.740   7.425   1.691  0.0832 -0.6544  0.3987
   11CHTO   O58 4390   6.752   7.545   1.654  0.0825  0.6292  0.1377
   11CHTO  H136 4391   6.751   7.612   1.720  2.5682  0.2669  0.5924
   11CHTO   O51 4392   6.571   6.979   1.619  0.4769 -0.4492  0.5023
   11CHTO   C78 4393   6.692   6.900   1.616  0.3371  0.5218 -0.6410
   11CHTO  H150 4394   6.777   6.955   1.572  1.2297 -0.6668 -0.4468
   11CHTO   C80 4395   6.668   6.773   1.527 -0.0406  0.1571  0.2851
   11CHTO  H152 4396   6.564   6.736   1.538  0.7038 -1.8444  0.7420
   11CHTO   O55 4397   6.652   6.822   1.396 -0.1274  0.7096  0.3503
   11CHTO  H134 4398   6.624   6.753   1.338 -0.0385  0.3545  0.7337
   11CHTO   C84 4399   6.777   6.660   1.549 -0.8309  0.0813  0.1144
   11CHTO  H156 4400   6.868   6.689   1.496 -0.7635  1.7304  1.0993
   11CHTO   N15 4401   6.732   6.531   1.476 -0.1391  0.4779 -0.3934
   11CHTO  H143 4402   6.645   6.553   1.418  0.0729 -0.1005 -0.9364
   11CHTO  H144 4403   6.702   6.458   1.548  0.6182  0.8547  0.3212
   11CHTO   C87 4404   6.796   6.636   1.699  0.2765 -0.8206 -0.5686
   11CHTO  H159 4405   6.709   6.590   1.745 -0.0397 -0.4578 -0.8031
   11CHTO   O53 4406   6.837   6.763   1.761  0.4059 -0.0951 -0.0178
   11CHTO   C82 4407   6.728   6.852   1.759 -0.0623 -0.0768  0.2503
   11CHTO  H154 4408   6.641   6.806   1.808  1.1320 -0.1017  2.3747
   11CHTO   C89 4409   6.767   6.981   1.843 -0.1308  0.8229  0.1362
   11CHTO   O59 4410   6.875   7.056   1.777 -0.3005 -0.5286 -0.2105
   11CHTO  H137 4411   6.829   7.121   1.727 -0.3161 -0.8372 -0.5960
   11CHTO   O45 4412   6.933   6.533   1.738  0.1778  0.7445 -0.3339
   11CHTO   C67 4413   7.061   6.567   1.681 -0.0178 -0.4399  1.0297
   11CHTO  H124 4414   7.057   6.558   1.572  0.5295  1.3441  0.8583
   11CHTO   C65 4415   7.119   6.704   1.716 -0.1385 -0.7617  0.5254
   11CHTO  H122 4416   7.064   6.749   1.799  1.0127  3.3082 -0.7887
   11CHTO   O44 4417   7.111   6.787   1.597 -0.1350 -0.1879 -0.3819
   11CHTO  H102 4418   7.024   6.823   1.594  0.4113  1.1565  0.0362
   11CHTO   C63 4419   7.263   6.692   1.776 -0.0701 -0.1628  0.5090
   11CHTO  H120 4420   7.252   6.642   1.872 -0.9847 -0.2110  0.3820
   11CHTO   N11 4421   7.327   6.821   1.812  0.3704 -0.2567  0.3994
   11CHTO  H108 4422   7.278   6.877   1.889 -1.6466 -1.0145 -0.3060
   11CHTO  H109 4423   7.357   6.874   1.724  0.9712 -1.0176  0.1336
   11CHTO   C61 4424   7.346   6.607   1.676 -0.0617 -0.0793 -0.5395
   11CHTO  H118 4425   7.447   6.598   1.719 -0.2026 -1.3292 -0.4350
   11CHTO   O40 4426   7.295   6.470   1.668 -0.1902 -0.7945  0.7547
   11CHTO   C68 4427   7.162   6.444   1.724 -0.1632  0.0048 -0.4866
   11CHTO  H125 4428   7.168   6.438   1.835  0.4701 -2.2910 -0.6145
   11CHTO   C72 4429   7.130   6.303   1.679  0.6015  0.2326 -0.2201
   11CHTO   O48 4430   7.212   6.202   1.732 -0.3803 -0.0069 -0.1450
   11CHTO  H105 4431   7.228   6.223   1.822  1.2791 -0.4810 -0.3245
   11CHTO   O38 4432   7.356   6.671   1.548 -0.1873 -0.3928  0.1533
   11CHTO   C55 4433   7.431   6.593   1.452  0.6841 -0.2864  0.1209
   11CHTO  H112 4434   7.430   6.491   1.492  0.6786 -0.9144 -1.4780
   11CHTO   C56 4435   7.576   6.655   1.436 -0.2878 -0.1759  0.5098
   11CHTO  H113 4436   7.556   6.761   1.414  1.9118 -0.1214 -1.2840
   11CHTO   O42 4437   7.652   6.645   1.555 -0.5004 -0.3095 -0.4606
   11CHTO  H100 4438   7.610   6.684   1.629 -0.4715  1.1497 -1.1968
   11CHTO   C57 4439   7.652   6.587   1.307  0.5496 -0.2392  0.2311
   11CHTO  H114 4440   7.683   6.488   1.341 -1.0166 -0.4593  1.0683
   11CHTO   N10 4441   7.772   6.668   1.267  0.4058 -0.6593 -0.0608
   11CHTO  H106 4442   7.739   6.753   1.209 -0.5800  0.2524  1.7924
   11CHTO  H107 4443   7.807   6.704   1.363  0.6852  1.1049 -0.8120
   11CHTO   C58 4444   7.562   6.576   1.183  0.0812 -0.4360 -0.4095
   11CHTO  H115 4445   7.546   6.677   1.142  0.3315 -0.0001  0.5508
   11CHTO   O37 4446   7.437   6.516   1.223 -0.0700  0.7015  0.4436
   11CHTO   C59 4447   7.352   6.586   1.320  0.4176 -0.2378 -0.0424
   11CHTO  H116 4448   7.346   6.691   1.291  1.6244  0.4334  2.0635
   11CHTO   C70 4449   7.214   6.518   1.333  0.0760 -0.3586 -0.2152
   11CHTO   O46 4450   7.128   6.508   1.213  0.0477 -0.2146 -0.2564
   11CHTO  H103 4451   7.078   6.587   1.211 -1.3089 -1.0568 -0.2271
   11CHTO   O39 4452   7.631   6.499   1.068 -0.2871  0.5229  0.1617
   11CHTO   C60 4453   7.589   6.545   0.942  0.6859  0.5782  0.7684
   11CHTO  H117 4454   7.499   6.604   0.956  1.2706  0.9045  3.4893
   11CHTO   C62 4455   7.692   6.637   0.876  0.6434 -0.4862  0.4407
   11CHTO  H119 4456   7.710   6.720   0.948 -2.0352 -0.1244  0.7350
   11CHTO   O43 4457   7.816   6.571   0.860 -0.0922 -0.5510  0.5005
   11CHTO  H101 4458   7.807   6.480   0.880  1.5832 -0.5850  1.2035
   11CHTO   C66 4459   7.630   6.695   0.745  0.0555 -0.9421  0.5078
   11CHTO  H123 4460   7.531   6.738   0.763 -0.5889 -2.1104 -0.1790
   11CHTO   N12 4461   7.716   6.802   0.690  0.5235 -0.1530 -0.1253
   11CHTO  H110 4462   7.734   6.878   0.764  0.8284 -0.9665  0.6466
   11CHTO  H111 4463   7.808   6.752   0.663  1.2555  1.2314 -0.2326
   11CHTO   C69 4464   7.601   6.589   0.636 -0.6518 -0.3455 -0.3658
   11CHTO  H126 4465   7.698   6.558   0.594  0.2095  2.5008 -0.6183
   11CHTO   O41 4466   7.514   6.480   0.691  0.0181 -0.0026 -0.2676
   11CHTO   C64 4467   7.552   6.428   0.837  0.0238 -0.7947 -0.0508
   11CHTO  H121 4468   7.637   6.356   0.834 -1.1797 -2.3815  2.4112
   11CHTO   C71 4469   7.428   6.357   0.889  0.0511 -0.0219  0.0054
   11CHTO   O47 4470   7.408   6.255   0.791  0.1485  0.2327  0.2169
   11CHTO  H104 4471   7.464   6.184   0.816  0.2248  0.8103  1.7172
   11CHTO   O34 4472   7.515   6.649   0.504  0.1747 -0.3076 -0.6379
   11CHTO   C49 4473   7.549   6.600   0.338 -0.6284 -0.5987 -0.5736
   11CHTO   H91 4474   7.657   6.587   0.327 -0.4552  1.7337 -1.8040
   11CHTO   C47 4475   7.497   6.719   0.248 -0.5405 -0.1429 -0.5799
   11CHTO   H89 4476   7.542   6.706   0.147  0.2858  0.0521 -0.2397
   11CHTO   O33 4477   7.550   6.839   0.304 -0.2679  0.2044 -0.4199
   11CHTO   H70 4478   7.517   6.910   0.253 -0.0516  1.0194  0.5556
   11CHTO   C45 4479   7.329   6.725   0.245  0.3524  0.1428 -0.2623
   11CHTO   H87 4480   7.305   6.812   0.308 -0.7491 -1.8457  2.1300
   11CHTO    N8 4481   7.272   6.735   0.112 -0.5642  0.0901 -1.1157
   11CHTO   H75 4482   7.352   6.728   0.040  0.7190 -0.1444  0.3096
   11CHTO   H76 4483   7.223   6.831   0.103 -0.1251  0.3205 -1.0279
   11CHTO   C43 4484   7.262   6.593   0.317  0.5155  0.4787  0.0482
   11CHTO   H85 4485   7.274   6.613   0.424  0.0420 -1.6477  0.5107
   11CHTO   O29 4486   7.330   6.472   0.280 -0.0937 -0.0764 -0.2514
   11CHTO   C50 4487   7.475   6.467   0.300  0.4781  0.3453 -0.0227
   11CHTO   H92 4488   7.493   6.384   0.369 -2.2340 -0.0879  0.2491
   11CHTO   C54 4489   7.541   6.398   0.180  0.3232 -0.7372 -0.5095
   11CHTO   O36 4490   7.532   6.478   0.059 -0.2052  0.5694  0.0632
   11CHTO   H72 4491   7.556   6.421  -0.011 -1.6950 -0.8646  0.6784
   11CHTO   O27 4492   7.118   6.586   0.308 -0.8017  0.4497  0.1029
   11CHTO   C37 4493   7.041   6.475   0.366  0.1043 -0.0761  0.2556
   11CHTO   H79 4494   7.091   6.384   0.403 -3.5291 -1.6914  1.4161
   11CHTO   C38 4495   6.967   6.521   0.486  0.2531 -0.4184  0.0159
   11CHTO   H80 4496   6.934   6.625   0.474 -1.8461 -1.0867 -0.2920
   11CHTO   O31 4497   7.059   6.536   0.590 -0.6243  0.2897  0.6793
   11CHTO   H68 4498   7.055   6.624   0.623 -1.2509  0.3925  0.3324
   11CHTO   C39 4499   6.849   6.425   0.530  0.0157 -0.3406 -0.2128
   11CHTO   H81 4500   6.898   6.340   0.578  2.1320  1.2104  0.4608
   11CHTO    N7 4501   6.764   6.495   0.632 -0.8933 -0.0397  0.8696
   11CHTO   H73 4502   6.691   6.426   0.671 -0.7158 -0.1964  0.9254
   11CHTO   H74 4503   6.824   6.512   0.720 -0.6974  0.1350  0.7028
   11CHTO   C40 4504   6.765   6.379   0.405  1.2203 -0.0468 -0.1450
   11CHTO   H82 4505   6.697   6.456   0.367  3.4569  1.5328 -1.0262
   11CHTO   O26 4506   6.846   6.332   0.304 -0.7751 -0.5060 -0.0349
   11CHTO   C41 4507   6.939   6.430   0.260 -0.3895 -0.1304  0.1948
   11CHTO   H83 4508   6.892   6.518   0.214 -0.4546  0.2421  0.9741
   11CHTO   C52 4509   7.008   6.364   0.139 -0.3687 -0.8598 -0.2623
   11CHTO   O35 4510   6.926   6.376   0.022 -0.4025 -0.3359  0.0475
   11CHTO   H71 4511   6.950   6.309  -0.040  1.5044  0.9259 -0.6290
   11CHTO   O28 4512   6.680   6.276   0.440  0.3999 -0.0782 -0.3163
   11CHTO   C42 4513   6.554   6.237   0.371  0.2732  0.5961 -0.5395
   11CHTO   H84 4514   6.564   6.275   0.269 -0.0765  0.3551 -0.6665
   11CHTO   C44 4515   6.416   6.295   0.429  0.3635 -0.4900 -0.5015
   11CHTO   H86 4516   6.414   6.283   0.537  1.2735  1.2805 -0.2804
   11CHTO   O32 4517   6.420   6.437   0.403  0.1943 -0.1962  0.0239
   11CHTO   H69 4518   6.350   6.477   0.450  1.0801  0.7876  0.5188
   11CHTO   C48 4519   6.292   6.233   0.364  0.6524 -0.0359  0.1542
   11CHTO   H90 4520   6.289   6.283   0.267  0.4538 -0.5350 -0.0952
   11CHTO    N9 4521   6.156   6.264   0.422 -0.1266 -0.9197 -0.1984
   11CHTO   H77 4522   6.150   6.233   0.525  1.0126 -0.8906 -0.1104
   11CHTO   H78 4523   6.083   6.214   0.361  0.2871 -0.6664 -0.9266
   11CHTO   C51 4524   6.306   6.082   0.354  0.5673  0.8222  0.0487
   11CHTO   H93 4525   6.293   6.039   0.453  0.0402  1.7196  0.3810
   11CHTO   O30 4526   6.431   6.046   0.297  0.1414 -0.1882  0.2876
   11CHTO   C46 4527   6.547   6.082   0.364  0.2510  0.3218  0.0423
   11CHTO   H88 4528   6.556   6.034   0.461 -3.8880 -1.5240 -0.3467
   11CHTO   C53 4529   6.664   6.031   0.289  0.3803 -0.0743 -0.3782
   11CHTO   O72 4530   6.649   6.038   0.146  0.2055 -0.2202 -0.3783
   11CHTO  H199 4531   6.575   5.988   0.117  2.3486 -3.1774 -0.9075
   11CHTO   O22 4532   6.218   6.027   0.261 -0.0826 -0.6516 -0.0425
   11CHTO   C31 4533   6.197   5.886   0.258  0.0145  0.3117  0.5874
   11CHTO   H59 4534   6.292   5.843   0.297  2.5003  2.2575 -3.0217
   11CHTO   C29 4535   6.077   5.845   0.343 -0.6584 -0.5761  0.0249
   11CHTO   H57 4536   5.984   5.882   0.298 -0.3485  1.1726  0.7981
   11CHTO   O21 4537   6.086   5.897   0.476 -0.2492  0.3971 -0.2795
   11CHTO   H37 4538   6.005   5.923   0.516  1.7135  2.1288  2.6800
   11CHTO   C27 4539   6.064   5.687   0.341 -0.1960 -0.9283  0.3209
   11CHTO   H55 4540   6.151   5.641   0.389  0.0885 -0.5761  0.1459
   11CHTO    N5 4541   5.941   5.643   0.418 -0.7252 -0.1416  0.1842
   11CHTO   H43 4542   5.895   5.728   0.466  1.0871  0.1390  1.5167
   11CHTO   H44 4543   5.867   5.591   0.359 -0.0659 -2.3754  1.2823
   11CHTO   C25 4544   6.066   5.635   0.196 -0.1956 -0.0835  0.3165
   11CHTO   H53 4545   5.981   5.685   0.147 -1.2961 -1.9108  0.2774
   11CHTO   O17 4546   6.177   5.682   0.112  0.2051  0.0649 -0.0218
   11CHTO   C32 4547   6.191   5.825   0.106 -0.0657  0.1330 -0.3065
   11CHTO   H60 4548   6.113   5.875   0.049 -0.8458 -2.1819 -1.3087
   11CHTO   C36 4549   6.327   5.842   0.035 -0.2403 -0.1692 -0.1045
   11CHTO   O25 4550   6.341   5.976  -0.014 -1.0516  0.8155  0.7437
   11CHTO   H40 4551   6.346   6.040   0.054 -1.4623  1.7049 -0.0554
   11CHTO   O15 4552   6.066   5.463   0.197 -0.1256  0.4393 -0.1038
   11CHTO   C19 4553   6.010   5.369   0.108 -0.4922  0.4731  0.3018
   11CHTO   H47 4554   6.032   5.270   0.151  2.8833 -0.0136 -2.3695
   11CHTO   C20 4555   5.860   5.377   0.084  0.7725  0.7636 -0.7462
   11CHTO   H48 4556   5.829   5.478   0.054 -0.2721  0.7071  0.0865
   11CHTO   O19 4557   5.790   5.352   0.211  0.6056 -0.3129 -0.1494
   11CHTO   H35 4558   5.783   5.434   0.257 -0.5138 -0.5208  0.0707
   11CHTO   C21 4559   5.812   5.269  -0.021 -0.9488  0.0199  0.2217
   11CHTO   H49 4560   5.838   5.171   0.018  0.0981  0.6700  1.1762
   11CHTO    N4 4561   5.666   5.269  -0.043  0.3168 -0.0715  0.3825
   11CHTO   H41 4562   5.625   5.365  -0.013 -2.3815 -1.0091 -0.2309
   11CHTO   H42 4563   5.627   5.189   0.018  0.1477 -0.5411 -0.3340
   11CHTO   C22 4564   5.888   5.286  -0.153 -0.5230  0.3968 -0.4316
   11CHTO   H50 4565   5.855   5.380  -0.199  0.0348  0.8346  0.0620
   11CHTO   O14 4566   6.030   5.285  -0.131  0.2249 -0.3642  0.0628
   11CHTO   C23 4567   6.085   5.370  -0.032  0.3253  1.0764  0.4471
   11CHTO   H51 4568   6.093   5.471  -0.074  2.4372  0.3713 -0.9650
   11CHTO   C34 4569   6.221   5.318  -0.021  0.0046  0.2342 -0.1940
   11CHTO   O23 4570   6.312   5.409   0.037  0.3266 -0.1306 -0.4791
   11CHTO   H38 4571   6.281   5.495   0.016 -1.8123 -0.9234 -0.7929
   11CHTO   O16 4572   5.872   5.168  -0.243 -0.1900  0.1305  0.5151
   11CHTO   C24 4573   5.888   5.189  -0.395 -0.0922  0.1211 -0.4200
   11CHTO   H52 4574   5.939   5.283  -0.417  1.2579 -0.3107  0.8212
   11CHTO   C26 4575   5.748   5.186  -0.456  0.0164 -0.7150  0.4289
   11CHTO   H54 4576   5.701   5.087  -0.443  1.6017 -1.4801  0.3963
   11CHTO   O20 4577   5.660   5.268  -0.378  0.2959  0.1251  0.4080
   11CHTO   H36 4578   5.677   5.359  -0.389 -3.3523  1.1635  2.3693
   11CHTO   C30 4579   5.754   5.225  -0.611  0.0290 -0.2899 -0.6583
   11CHTO   H58 4580   5.793   5.327  -0.620  1.7587 -1.0523 -2.1634
   11CHTO    N6 4581   5.621   5.223  -0.667 -0.3520  0.5170 -0.7120
   11CHTO   H45 4582   5.572   5.127  -0.664  0.7260 -0.0677 -1.7397
   11CHTO   H46 4583   5.623   5.255  -0.770 -0.5830  0.3716 -0.7623
   11CHTO   C33 4584   5.855   5.138  -0.685  0.3898  0.1793 -0.1366
   11CHTO   H61 4585   5.812   5.036  -0.680 -1.0273  0.8576  4.5806
   11CHTO   O18 4586   5.977   5.133  -0.608 -0.2385  0.1995 -0.6162
   11CHTO   C28 4587   5.969   5.083  -0.469  0.5429 -0.2104  0.0894
   11CHTO   H56 4588   5.918   4.987  -0.464  0.9840 -0.4060  0.8034
   11CHTO   C35 4589   6.114   5.066  -0.411 -1.2872  0.1561  0.4923
   11CHTO   O24 4590   6.129   4.985  -0.298 -0.7523  0.0551  0.1452
   11CHTO   H39 4591   6.110   5.037  -0.223 -4.0679 -0.2511 -0.4300
   11CHTO    O9 4592   5.883   5.166  -0.819  0.0411 -0.0851  0.8688
   11CHTO   C13 4593   5.877   5.326  -0.885  0.7178  0.0709  0.3918
   11CHTO   H26 4594   5.770   5.349  -0.871  1.2522  1.2448  2.7710
   11CHTO   C11 4595   5.908   5.310  -1.029  0.3239  0.7402  0.2566
   11CHTO   H24 4596   5.828   5.247  -1.070  0.1911 -0.0942  1.7796
   11CHTO    O8 4597   6.041   5.247  -1.043  0.2275  0.1109 -0.4558
   11CHTO    H3 4598   6.066   5.179  -0.983  2.1572  1.4423  0.2859
   11CHTO    C9 4599   5.890   5.442  -1.102 -0.0419  0.2024  0.3117
   11CHTO   H22 4600   5.789   5.478  -1.079 -0.1431 -0.5049  0.9716
   11CHTO    N2 4601   5.904   5.428  -1.254 -0.5781  0.5077  0.4921
   11CHTO   H10 4602   5.834   5.357  -1.294 -0.9334  2.3243 -2.1813
   11CHTO   H11 4603   5.896   5.523  -1.304  0.5167 -0.6039 -1.8446
   11CHTO    C7 4604   5.995   5.547  -1.040 -0.6108 -0.5725 -0.2494
   11CHTO   H20 4605   5.964   5.640  -1.091  0.7460 -0.4501 -0.8694
   11CHTO    O4 4606   5.970   5.560  -0.899 -0.2716 -0.1149 -0.0092
   11CHTO   C14 4607   5.963   5.447  -0.813  0.0169 -0.0839  0.9604
   11CHTO   H27 4608   5.896   5.471  -0.728  0.5326 -1.3943  1.7491
   11CHTO   C18 4609   6.104   5.419  -0.755  0.5768 -0.1268  0.1214
   11CHTO   O13 4610   6.169   5.530  -0.693 -0.3162 -0.9622 -0.2773
   11CHTO    H7 4611   6.107   5.600  -0.683 -0.0248 -0.4407 -1.9075
   11CHTO    O2 4612   6.161   5.508  -1.077 -0.5963  0.4528  0.5090
   11CHTO    C1 4613   6.250   5.620  -1.107 -0.5715 -0.5502 -0.2364
   11CHTO   H14 4614   6.234   5.699  -1.031  2.4475 -0.7006  0.6099
   11CHTO    C2 4615   6.225   5.680  -1.254  0.0651  0.1209  0.4330
   11CHTO   H15 4616   6.227   5.595  -1.325  0.8306  1.0974 -0.7332
   11CHTO    O6 4617   6.095   5.748  -1.246 -0.2100  0.2559 -0.3345
   11CHTO    H1 4618   6.075   5.796  -1.324 -2.0132  0.4660  0.2286
   11CHTO    C3 4619   6.349   5.776  -1.290  0.0665  0.4503  0.3166
   11CHTO   H16 4620   6.338   5.869  -1.232 -1.1610 -1.0232  2.5252
   11CHTO    N1 4621   6.340   5.830  -1.426 -0.1851 -0.6925 -0.2016
   11CHTO    H8 4622   6.260   5.902  -1.435 -0.2327 -0.8728 -1.3695
   11CHTO    H9 4623   6.313   5.749  -1.492 -0.8792 -0.1600 -0.5810
   11CHTO    C4 4624   6.481   5.707  -1.254  0.0060 -0.0343  0.5450
   11CHTO   H17 4625   6.498   5.626  -1.326 -1.1830  0.4438 -0.2746
   11CHTO    O1 4626   6.492   5.669  -1.118 -0.4835  0.3869 -0.5284
   11CHTO    C5 4627   6.391   5.575  -1.081  0.5939 -0.3881 -0.3500
   11CHTO   H18 4628   6.404   5.477  -1.128  0.0568  0.3031 -1.9607
   11CHTO   C16 4629   6.416   5.555  -0.931 -0.7788 -0.5479  0.2092
   11CHTO   O11 4630   6.439   5.680  -0.858 -0.2866  0.3563  0.1616
   11CHTO    H5 4631   6.378   5.682  -0.788 -2.6178  0.8792 -1.8348
   11CHTO    O3 4632   6.588   5.800  -1.273 -0.7374 -0.1462  0.6836
   11CHTO    C6 4633   6.704   5.750  -1.353  0.5500 -0.3335  0.0373
   11CHTO   H19 4634   6.692   5.642  -1.362  1.5302 -0.4213 -0.2044
   11CHTO    C8 4635   6.717   5.814  -1.496  0.4747  0.4692  1.0423
   11CHTO   H21 4636   6.700   5.922  -1.489  1.4789  0.9145 -2.4078
   11CHTO    O7 4637   6.620   5.750  -1.584  0.2728 -0.0970  0.1968
   11CHTO    H2 4638   6.543   5.724  -1.536 -1.2772  1.7098 -1.1958
   11CHTO   C12 4639   6.861   5.794  -1.556 -0.1802 -0.4066  0.8288
   11CHTO   H25 4640   6.867   5.687  -1.588 -0.5978  0.0196 -0.7512
   11CHTO    N3 4641   6.890   5.875  -1.680  0.5399  0.2017 -0.2713
   11CHTO   H12 4642   6.871   5.981  -1.677  2.0682  0.4468  1.4832
   11CHTO   H13 4643   6.840   5.831  -1.766 -2.9090  1.3442  1.0809
   11CHTO   C15 4644   6.974   5.827  -1.449 -0.2565 -1.3381 -0.3656
   11CHTO   H28 4645   6.968   5.934  -1.432 -2.3591 -0.9383 -3.2870
   11CHTO   O10 4646   7.114   5.768  -1.490  0.2704 -0.5117 -0.3916
   11CHTO    H4 4647   7.118   5.681  -1.456 -3.9833 -0.0586  1.5597
   11CHTO    O5 4648   6.948   5.747  -1.333 -0.4028 -0.3415  0.3597
   11CHTO   C10 4649   6.829   5.776  -1.260  0.4466  0.5798 -0.1772
   11CHTO   H23 4650   6.837   5.877  -1.219 -0.8855  1.1122 -1.1642
   11CHTO   C17 4651   6.822   5.681  -1.144 -0.1251 -0.0701  0.1659
   11CHTO   O12 4652   6.930   5.700  -1.058 -0.1382 -0.0416  0.6368
   11CHTO    H6 4653   6.967   5.617  -1.035  2.0231  0.4626 -0.8209
   12CHTO  H203 4654   5.489  12.689   5.962 -0.1774 -0.2075 -0.7146
   12CHTO   O82 4655   5.548  12.622   5.933  0.0945  0.1082 -0.8916
   12CHTO  C123 4656   5.484  12.506   5.902  0.4172 -0.3853 -0.1163
   12CHTO  H227 4657   5.416  12.540   5.822 -0.5952 -2.0143  0.0416
   12CHTO   O77 4658   5.589  12.411   5.841  0.2502 -0.0252 -0.0071
   12CHTO  C118 4659   5.533  12.288   5.796  0.0332 -0.2925 -0.3241
   12CHTO  H222 4660   5.457  12.321   5.724  0.4587  2.0089  0.2567
   12CHTO  C125 4661   5.646  12.201   5.722  0.2114 -0.4593  0.2838
   12CHTO   O84 4662   5.664  12.247   5.590 -0.2079  0.1122 -0.4958
   12CHTO  H205 4663   5.685  12.338   5.594  2.2484 -0.4644  0.8872
   12CHTO  C114 4664   5.480  12.209   5.915 -0.1562 -0.4183 -0.2685
   12CHTO  H218 4665   5.560  12.189   5.986 -1.6638 -2.8683  0.8189
   12CHTO  C116 4666   5.357  12.293   5.971  0.1735  0.1941 -0.5766
   12CHTO  H220 4667   5.282  12.306   5.889 -1.3584  2.2996  1.0927
   12CHTO   O79 4668   5.293  12.220   6.080 -0.4080 -0.5675  0.4950
   12CHTO  H201 4669   5.215  12.263   6.108  0.2834  1.1141 -0.1159
   12CHTO  C120 4670   5.404  12.440   6.021  0.6754  0.4153 -0.0657
   12CHTO  H224 4671   5.470  12.420   6.108  1.1563  1.6339 -0.1513
   12CHTO   N21 4672   5.294  12.529   6.071  0.1864  0.2087  0.2629
   12CHTO  H211 4673   5.318  12.629   6.040  2.9860 -0.5674 -0.2056
   12CHTO  H212 4674   5.209  12.488   6.019 -0.1510  2.0166 -0.6534
   12CHTO   O75 4675   5.437  12.082   5.867 -0.3641 -0.1737  0.2381
   12CHTO  C112 4676   5.430  11.953   5.967 -0.2944  0.1507  0.4370
   12CHTO  H216 4677   5.333  11.902   5.962  0.3887 -1.4946  2.8163
   12CHTO   O73 4678   5.462  11.988   6.106 -0.6450  0.1230 -0.1122
   12CHTO  C113 4679   5.443  11.878   6.200  0.1445 -0.3629 -0.3321
   12CHTO  H217 4680   5.348  11.827   6.173  1.2654 -2.3000 -0.7390
   12CHTO  C124 4681   5.450  11.918   6.345  0.0883 -0.3177  0.1536
   12CHTO   O83 4682   5.367  12.035   6.362 -0.0830 -0.1831 -0.2116
   12CHTO  H204 4683   5.354  12.044   6.454 -0.5706  0.3060 -0.3212
   12CHTO  C109 4684   5.555  11.775   6.171  0.5400  0.2274 -0.6119
   12CHTO  H213 4685   5.653  11.816   6.200  0.3877 -1.0898  1.9327
   12CHTO  C110 4686   5.556  11.734   6.019 -0.0877  0.0310  0.1509
   12CHTO  H214 4687   5.478  11.659   6.007 -0.2263  0.0886  0.6494
   12CHTO   O78 4688   5.685  11.662   6.009  0.2952 -0.5709 -0.0326
   12CHTO  H200 4689   5.678  11.570   6.020 -0.9215 -0.7424 -1.9913
   12CHTO  C111 4690   5.541  11.851   5.917 -0.4550 -0.7069 -0.6355
   12CHTO  H215 4691   5.629  11.917   5.920  0.0060 -1.3483  0.1612
   12CHTO   N19 4692   5.525  11.814   5.774  0.2289 -0.3330  0.3337
   12CHTO  H207 4693   5.422  11.818   5.740 -0.2546  1.3309  1.8809
   12CHTO  H208 4694   5.577  11.877   5.704 -0.2578 -0.6004 -0.2732
   12CHTO   O74 4695   5.528  11.664   6.267  0.0238  0.3232 -0.3349
   12CHTO  C115 4696   5.657  11.583   6.326  0.6846 -0.2845  0.6098
   12CHTO  H219 4697   5.751  11.634   6.305  0.1212 -0.0250 -1.4122
   12CHTO   O76 4698   5.647  11.580   6.475  0.2313  1.0366 -0.5585
   12CHTO  C122 4699   5.526  11.512   6.526  0.4992  1.1512  0.1229
   12CHTO  H226 4700   5.442  11.582   6.522 -1.8294 -1.5392  0.7226
   12CHTO  C126 4701   5.525  11.474   6.678 -0.0909 -0.9836  0.4980
   12CHTO   O85 4702   5.540  11.585   6.764 -0.0017 -0.2860 -0.4565
   12CHTO  H206 4703   5.515  11.661   6.715  3.1180 -0.1483 -1.9599
   12CHTO  C121 4704   5.506  11.368   6.460 -0.8884 -0.1291  0.2252
   12CHTO  H225 4705   5.486  11.289   6.535  2.4151 -0.1025  1.2106
   12CHTO   O81 4706   5.393  11.384   6.370 -0.2516 -0.2260 -0.1258
   12CHTO  H202 4707   5.322  11.430   6.411  2.0007  2.1471  1.2344
   12CHTO  C119 4708   5.627  11.323   6.376 -0.9374 -0.3482  0.5173
   12CHTO  H223 4709   5.711  11.319   6.445 -1.8767  0.3619  1.7207
   12CHTO  C117 4710   5.665  11.437   6.263 -0.5006  0.2159  0.4724
   12CHTO  H221 4711   5.596  11.450   6.179  0.0364  2.6987  0.3753
   12CHTO   N20 4712   5.797  11.414   6.199 -0.7182 -0.0246  0.6949
   12CHTO  H209 4713   5.864  11.344   6.246 -0.0520  0.1293 -0.0133
   12CHTO  H210 4714   5.783  11.390   6.094 -1.2728  0.4512  0.6589
   12CHTO   O80 4715   5.629  11.183   6.312  0.4179 -0.4716  0.6404
   12CHTO  C103 4716   5.599  11.049   6.391  0.4662  0.0603 -0.0915
   12CHTO  H190 4717   5.626  11.064   6.495 -1.9449  0.0541  0.5501
   12CHTO  C101 4718   5.452  10.990   6.396  0.3206  0.2148  1.0087
   12CHTO  H188 4719   5.406  10.986   6.297  0.7577 -0.5511  0.8353
   12CHTO   O68 4720   5.372  11.094   6.479  0.0307 -0.4526 -1.1406
   12CHTO  H168 4721   5.281  11.095   6.454 -0.2664  1.3762 -0.0765
   12CHTO   C99 4722   5.453  10.844   6.461 -0.1769 -0.4250 -0.1156
   12CHTO  H186 4723   5.494  10.852   6.564 -1.2150 -0.6838  0.3274
   12CHTO   N17 4724   5.320  10.783   6.460  0.7979  0.1760 -0.3224
   12CHTO  H174 4725   5.280  10.758   6.363  0.8752 -0.5615 -0.1643
   12CHTO  H175 4726   5.258  10.856   6.511  1.1310  0.1521  0.1217
   12CHTO   C97 4727   5.553  10.746   6.388  0.0965 -0.7516 -0.2008
   12CHTO  H184 4728   5.510  10.722   6.289 -0.5318  1.3498 -0.4683
   12CHTO   O64 4729   5.685  10.810   6.377 -0.4730 -0.2563  0.1380
   12CHTO  C104 4730   5.698  10.947   6.321  0.4142  0.4012  0.0585
   12CHTO  H191 4731   5.677  10.938   6.214  4.5602 -0.6659 -0.7566
   12CHTO  C108 4732   5.842  10.996   6.330 -0.5094  0.5718  0.1545
   12CHTO   O71 4733   5.930  10.915   6.249  0.3307  0.0224  0.3864
   12CHTO  H171 4734   6.008  10.908   6.301 -1.2275  1.3304  3.0105
   12CHTO   O62 4735   5.568  10.617   6.456  0.0609 -0.7677  0.4368
   12CHTO   C91 4736   5.604  10.507   6.368  0.8913  0.1708  0.6380
   12CHTO  H178 4737   5.640  10.536   6.270  1.4879  0.7672  1.0313
   12CHTO   C92 4738   5.479  10.422   6.343 -0.2993  0.1461 -0.2639
   12CHTO  H179 4739   5.424  10.399   6.436  0.6102 -0.1486  0.2050
   12CHTO   O66 4740   5.386  10.495   6.256 -0.2546 -0.0613  0.4867
   12CHTO  H166 4741   5.360  10.578   6.292  1.2726 -0.6191  3.0129
   12CHTO   C93 4742   5.505  10.285   6.266 -0.3734  0.1493  0.1769
   12CHTO  H180 4743   5.524  10.313   6.161 -1.3882 -2.8013 -0.8437
   12CHTO   N16 4744   5.393  10.184   6.278 -0.5749  0.2318  0.2532
   12CHTO  H172 4745   5.301  10.235   6.251 -0.4059  2.0020  2.8145
   12CHTO  H173 4746   5.422  10.099   6.219  0.6735  1.2133 -0.5629
   12CHTO   C94 4747   5.630  10.215   6.327  0.4054  0.1602  0.7617
   12CHTO  H181 4748   5.610  10.176   6.426  0.0596  0.9543  1.0054
   12CHTO   O61 4749   5.735  10.309   6.335 -0.0358  0.5527  0.0102
   12CHTO   C95 4750   5.715  10.412   6.430 -0.0318 -0.4975 -0.1795
   12CHTO  H182 4751   5.684  10.374   6.527 -1.7069  3.1942  0.8458
   12CHTO  C106 4752   5.852  10.495   6.444  0.2718 -0.1211 -0.4907
   12CHTO   O69 4753   5.954  10.412   6.488  0.3750 -0.4598  1.0254
   12CHTO  H169 4754   5.970  10.345   6.425 -0.4029  1.6342 -1.4486
   12CHTO   O63 4755   5.684  10.095   6.242  0.0926 -0.1530  0.2711
   12CHTO   C96 4756   5.793   9.997   6.318  0.2501 -0.4609 -0.5906
   12CHTO  H183 4757   5.815  10.024   6.422 -1.0954 -0.2794 -0.3519
   12CHTO   C98 4758   5.926  10.007   6.249  0.2319  0.6211  0.1069
   12CHTO  H185 4759   5.919   9.982   6.142  1.3422 -1.1414  0.4139
   12CHTO   O67 4760   5.981  10.142   6.250  0.0593  0.0084 -0.6036
   12CHTO  H167 4761   5.915  10.195   6.210 -2.7890 -1.5181  1.8802
   12CHTO  C102 4762   6.032   9.915   6.314  0.4930 -0.1549 -0.9598
   12CHTO  H189 4763   6.054   9.957   6.413 -1.9861 -0.5150 -0.2254
   12CHTO   N18 4764   6.164   9.907   6.243  0.6214  0.4558  0.6474
   12CHTO  H176 4765   6.249   9.877   6.303  0.7829 -2.5466 -0.9708
   12CHTO  H177 4766   6.146   9.823   6.178 -2.8878  1.5344  0.1051
   12CHTO  C105 4767   5.976   9.767   6.348 -0.5505 -0.2690 -0.6393
   12CHTO  H192 4768   5.999   9.703   6.263 -0.7738  0.0860 -0.9706
   12CHTO   O65 4769   5.833   9.761   6.380  0.2566 -0.3952  0.7012
   12CHTO  C100 4770   5.748   9.846   6.303 -0.4798 -0.3711 -0.0819
   12CHTO  H187 4771   5.760   9.825   6.196 -3.7742  0.4396 -0.6782
   12CHTO  C107 4772   5.604   9.829   6.354 -0.1951 -0.2803 -0.0035
   12CHTO   O70 4773   5.540   9.721   6.294  0.6277 -0.1334  0.4862
   12CHTO  H170 4774   5.451   9.708   6.322  0.1759 -4.1465 -2.2887
   12CHTO   O57 4775   6.065   9.726   6.466  0.1686  0.1207  0.3730
   12CHTO   C85 4776   6.058   9.589   6.517 -0.4079 -0.1418  0.2524
   12CHTO  H157 4777   6.003   9.525   6.445  0.2996  0.4046 -0.7732
   12CHTO   C83 4778   5.969   9.583   6.643 -0.3378 -0.0301  0.3694
   12CHTO  H155 4779   5.873   9.630   6.622  1.1286  3.0906  0.3555
   12CHTO   O56 4780   6.022   9.668   6.750  0.4582 -0.0989 -0.0166
   12CHTO  H135 4781   6.108   9.640   6.774 -0.1143 -1.5013  0.4061
   12CHTO   C81 4782   5.942   9.440   6.687  0.2821  0.4081 -0.6873
   12CHTO  H153 4783   5.890   9.386   6.607  1.8058 -0.4155 -1.1524
   12CHTO   N14 4784   5.846   9.425   6.799  0.1469  0.1308 -0.6561
   12CHTO  H141 4785   5.832   9.320   6.811 -0.0114  0.4212  1.8512
   12CHTO  H142 4786   5.754   9.468   6.767 -0.2567 -0.7238 -0.6579
   12CHTO   C79 4787   6.084   9.363   6.724 -0.0996 -0.5352  0.4744
   12CHTO  H151 4788   6.067   9.255   6.726  0.3232 -0.6585 -1.6355
   12CHTO   O52 4789   6.181   9.389   6.612 -0.5242  0.4242  0.2630
   12CHTO   C86 4790   6.196   9.524   6.565 -0.1758  0.2317  0.1496
   12CHTO  H158 4791   6.233   9.589   6.648  1.0599 -2.1197  1.4762
   12CHTO   C90 4792   6.319   9.516   6.463  0.1940  0.5660  0.3418
   12CHTO   O60 4793   6.341   9.643   6.409 -0.0171 -0.3606  0.5334
   12CHTO  H138 4794   6.380   9.641   6.324  2.4785  1.1002  1.5591
   12CHTO   O50 4795   6.147   9.411   6.846  0.2388  0.3930  0.7181
   12CHTO   C73 4796   6.141   9.386   6.984 -0.1767  0.6792 -0.7676
   12CHTO  H145 4797   6.051   9.327   7.006  0.1406 -0.1529 -1.6302
   12CHTO   C74 4798   6.134   9.523   7.056  0.7047 -0.2081  0.2890
   12CHTO  H146 4799   6.044   9.579   7.029  0.2109 -0.8582  0.5589
   12CHTO   O54 4800   6.112   9.500   7.200  0.3460  0.5877  0.5778
   12CHTO  H133 4801   6.183   9.447   7.232 -0.4573  1.1685  3.4689
   12CHTO   C75 4802   6.264   9.607   7.030  0.7579 -0.1687  0.8026
   12CHTO  H147 4803   6.262   9.634   6.923 -2.1469 -2.9908  0.0739
   12CHTO   N13 4804   6.283   9.743   7.099 -0.2302 -0.2881 -0.4926
   12CHTO  H139 4805   6.301   9.719   7.203 -1.1764 -2.6266 -0.8237
   12CHTO  H140 4806   6.377   9.780   7.061  0.2602  0.3629  1.2881
   12CHTO   C76 4807   6.391   9.518   7.068  0.2364  0.2204 -0.2805
   12CHTO  H148 4808   6.389   9.501   7.176  0.2481  0.7744 -0.1909
   12CHTO   O49 4809   6.388   9.386   6.999 -0.7130  0.3717 -0.0825
   12CHTO   C77 4810   6.273   9.308   7.026  1.0068  0.4117 -0.9062
   12CHTO  H149 4811   6.266   9.287   7.133  0.1020 -0.7414 -1.1857
   12CHTO   C88 4812   6.273   9.174   6.959  0.3416  0.4220  0.5452
   12CHTO   O58 4813   6.153   9.087   7.000  0.1138 -0.1341 -0.0032
   12CHTO  H136 4814   6.180   8.997   7.003 -0.5694 -0.3015  1.8502
   12CHTO   O51 4815   6.527   9.582   7.023  0.1662 -0.3955 -0.4226
   12CHTO   C78 4816   6.663   9.503   7.049  0.0400 -0.4089 -0.1165
   12CHTO  H150 4817   6.641   9.398   7.023  0.9460 -0.2712 -1.5087
   12CHTO   C80 4818   6.724   9.509   7.186 -0.0505  0.0367 -0.4793
   12CHTO  H152 4819   6.748   9.615   7.206  0.4187 -0.2055  0.2867
   12CHTO   O55 4820   6.619   9.475   7.283 -0.0938 -0.4429 -0.1233
   12CHTO  H134 4821   6.574   9.550   7.317 -0.3204 -0.3997 -0.5229
   12CHTO   C84 4822   6.857   9.423   7.195 -0.1752 -0.4984  0.2785
   12CHTO  H156 4823   6.838   9.318   7.171  3.3903 -0.9127 -1.0555
   12CHTO   N15 4824   6.915   9.432   7.338  0.2897 -0.1978  0.4823
   12CHTO  H143 4825   6.852   9.386   7.412 -1.1649  0.4816 -0.3114
   12CHTO  H144 4826   7.011   9.387   7.346  1.8414  2.9409 -0.0128
   12CHTO   C87 4827   6.962   9.480   7.094 -0.6915 -0.4207 -0.5101
   12CHTO  H159 4828   7.002   9.576   7.128  2.6444 -1.7553 -0.5197
   12CHTO   O53 4829   6.898   9.491   6.951 -0.1832  0.1641 -0.5552
   12CHTO   C82 4830   6.771   9.552   6.946  0.3479  0.0200 -0.6292
   12CHTO  H154 4831   6.787   9.658   6.963  1.4445  0.1621 -2.4541
   12CHTO   C89 4832   6.722   9.535   6.800  1.1814 -0.0873  0.0465
   12CHTO   O59 4833   6.810   9.617   6.716  0.4905  0.6927 -0.0038
   12CHTO  H137 4834   6.758   9.656   6.648 -0.6885  0.7804  0.9435
   12CHTO   O45 4835   7.112   9.399   7.080 -0.2740 -0.3731 -0.1243
   12CHTO   C67 4836   7.096   9.257   7.040  0.2961 -0.7292 -0.1522
   12CHTO  H124 4837   6.995   9.219   7.051  0.2334 -0.8063 -0.9959
   12CHTO   C65 4838   7.143   9.241   6.894 -0.3021 -0.9774  0.3295
   12CHTO  H122 4839   7.101   9.319   6.831  2.4562 -0.6383 -1.1479
   12CHTO   O44 4840   7.111   9.114   6.846 -0.0775  0.2441  0.3307
   12CHTO  H102 4841   7.025   9.117   6.808 -0.2196  0.4063  0.6635
   12CHTO   C63 4842   7.302   9.280   6.894 -0.1393  0.1955  0.1582
   12CHTO  H120 4843   7.307   9.384   6.925 -1.6799  0.1247  0.6678
   12CHTO   N11 4844   7.365   9.283   6.763  0.5450  0.0650 -0.1038
   12CHTO  H108 4845   7.402   9.381   6.741  0.2910  0.5967  1.7325
   12CHTO  H109 4846   7.437   9.205   6.748 -0.1266 -0.1967 -1.9711
   12CHTO   C61 4847   7.384   9.195   7.000 -0.6673 -0.2183  0.1251
   12CHTO  H118 4848   7.474   9.257   7.018 -1.6402  0.8828  1.3238
   12CHTO   O40 4849   7.325   9.174   7.128 -0.4429  0.0940 -0.0908
   12CHTO   C68 4850   7.183   9.167   7.144 -0.1812  0.3326 -0.1802
   12CHTO  H125 4851   7.158   9.205   7.246  2.1540 -0.0543  0.5623
   12CHTO   C72 4852   7.144   9.013   7.143  0.2547 -0.1098  0.6541
   12CHTO   O48 4853   7.197   8.951   7.259  0.0288 -0.6553  0.4420
   12CHTO  H105 4854   7.181   9.001   7.337 -0.3452  0.6259 -0.4255
   12CHTO   O38 4855   7.411   9.067   6.943  0.1159 -0.2545 -0.9585
   12CHTO   C55 4856   7.524   8.985   6.943 -0.6523  0.0540  0.2557
   12CHTO  H112 4857   7.574   8.989   7.041 -1.1235 -2.0283  0.5956
   12CHTO   C56 4858   7.623   9.039   6.825 -0.5806  0.0854  0.4325
   12CHTO  H113 4859   7.562   9.074   6.740 -0.5205 -2.7436 -0.8404
   12CHTO   O42 4860   7.686   9.160   6.868  0.0758 -0.4783 -0.1613
   12CHTO  H100 4861   7.760   9.187   6.818  0.5225  1.0260  1.2792
   12CHTO   C57 4862   7.734   8.930   6.787  0.3457  0.5470 -0.4304
   12CHTO  H114 4863   7.811   8.932   6.864  0.8145  2.1517 -0.9090
   12CHTO   N10 4864   7.796   8.961   6.653  0.3129 -0.3318 -0.1341
   12CHTO  H106 4865   7.812   9.067   6.637  0.9040 -0.2977  0.6492
   12CHTO  H107 4866   7.891   8.910   6.644  0.7426  0.9376 -3.7520
   12CHTO   C58 4867   7.667   8.790   6.780  0.4398  0.1448  0.1404
   12CHTO  H115 4868   7.612   8.780   6.684  0.2580 -3.6757  0.5531
   12CHTO   O37 4869   7.587   8.750   6.892  0.4753  0.1873  0.4306
   12CHTO   C59 4870   7.477   8.848   6.901 -0.1640  0.0636 -0.5374
   12CHTO  H116 4871   7.435   8.850   6.801  0.7449  0.9111 -0.9137
   12CHTO   C70 4872   7.367   8.778   6.986  0.1769  0.0793 -0.5404
   12CHTO   O46 4873   7.311   8.658   6.926 -0.9889  0.3362 -0.9177
   12CHTO  H103 4874   7.267   8.679   6.846  0.9613  0.2476 -2.0203
   12CHTO   O39 4875   7.799   8.681   6.787 -0.2419 -0.5425 -0.0974
   12CHTO   C60 4876   7.800   8.595   6.673 -0.0793  0.2056 -0.3297
   12CHTO  H117 4877   7.695   8.567   6.662  0.6195 -3.2124  1.1398
   12CHTO   C62 4878   7.875   8.655   6.545  0.3667  0.4489  0.1547
   12CHTO  H119 4879   7.820   8.743   6.505 -2.5795 -1.9256 -1.1437
   12CHTO   O43 4880   8.013   8.672   6.581  0.7425  0.0701  0.1785
   12CHTO  H101 4881   8.036   8.625   6.659 -0.7372  1.1327  1.3013
   12CHTO   C66 4882   7.866   8.550   6.429 -0.1948  0.4875  0.3416
   12CHTO  H123 4883   7.759   8.537   6.414 -0.0224  1.3570 -1.7920
   12CHTO   N12 4884   7.923   8.598   6.300 -0.4514  0.2514  0.3770
   12CHTO  H110 4885   7.964   8.696   6.321  3.3732 -0.9873 -0.8446
   12CHTO  H111 4886   7.848   8.603   6.223 -0.2447 -0.1738  0.1515
   12CHTO   C69 4887   7.930   8.416   6.481  1.0952 -0.2778 -0.1720
   12CHTO  H126 4888   8.039   8.432   6.491  0.9759  1.6077 -1.6687
   12CHTO   O41 4889   7.882   8.372   6.619  0.0163  0.6527  0.3261
   12CHTO   C64 4890   7.867   8.461   6.725  0.3572  0.1269 -0.4070
   12CHTO  H121 4891   7.969   8.482   6.764  1.3034  0.1503 -2.8133
   12CHTO   C71 4892   7.782   8.393   6.844  0.5932 -0.6715 -0.5640
   12CHTO   O47 4893   7.868   8.328   6.932 -0.8288  0.0089  0.0020
   12CHTO  H104 4894   7.882   8.369   7.015  0.4126 -0.7606  0.1903
   12CHTO   O34 4895   7.899   8.305   6.394 -0.3562  0.0122 -0.8154
   12CHTO   C49 4896   8.011   8.203   6.360  0.3940  0.1311 -0.3477
   12CHTO   H91 4897   8.078   8.248   6.286 -0.3496 -1.1525 -1.8181
   12CHTO   C47 4898   7.947   8.085   6.280  0.0997  0.6538 -0.7447
   12CHTO   H89 4899   8.026   8.013   6.249  0.9330  0.8216  0.9808
   12CHTO   O33 4900   7.876   8.127   6.163  0.2029 -0.3168  0.2081
   12CHTO   H70 4901   7.829   8.207   6.177  3.0652  1.6283 -0.9119
   12CHTO   C45 4902   7.846   7.999   6.371  0.6737  0.4372 -0.4431
   12CHTO   H87 4903   7.744   8.038   6.358 -0.7672 -2.6954  0.7549
   12CHTO    N8 4904   7.839   7.855   6.333 -0.1599 -0.2733  0.1021
   12CHTO   H75 4905   7.937   7.810   6.341 -0.6677 -1.3936  0.0883
   12CHTO   H76 4906   7.803   7.842   6.232  0.0051 -0.9478  0.1272
   12CHTO   C43 4907   7.885   8.028   6.526  0.1298  0.7155  0.3499
   12CHTO   H85 4908   7.851   8.130   6.548 -0.7501  0.6976 -0.8482
   12CHTO   O29 4909   8.028   8.021   6.531 -0.9636 -0.0511 -0.3781
   12CHTO   C50 4910   8.092   8.140   6.478  0.3219 -0.0714 -1.3603
   12CHTO   H92 4911   8.096   8.220   6.554 -1.5975 -0.6943 -0.5665
   12CHTO   C54 4912   8.237   8.102   6.445 -0.5176  0.6141 -0.5945
   12CHTO   O36 4913   8.310   8.058   6.565  0.4641  0.1972  0.2407
   12CHTO   H72 4914   8.341   8.135   6.607 -0.6432  0.0116  1.4235
   12CHTO   O27 4915   7.814   7.944   6.615 -0.0731 -0.1343 -0.4119
   12CHTO   C37 4916   7.710   7.962   6.718 -0.8963 -0.3350 -0.5024
   12CHTO   H79 4917   7.669   7.861   6.736 -1.5996  0.2891  1.4063
   12CHTO   C38 4918   7.772   8.011   6.855  0.2575  0.1966  0.2435
   12CHTO   H80 4919   7.808   8.114   6.841 -1.0035  0.4537 -1.3219
   12CHTO   O31 4920   7.878   7.922   6.893 -0.2390 -0.0741  0.0651
   12CHTO   H68 4921   7.946   7.967   6.940 -0.2837  0.2693 -0.1912
   12CHTO   C39 4922   7.652   8.018   6.964 -0.0150 -0.6235 -0.9383
   12CHTO   H81 4923   7.628   7.912   6.976 -1.3027 -0.0039  2.5051
   12CHTO    N7 4924   7.690   8.069   7.105 -0.0520 -0.1622  0.3454
   12CHTO   H73 4925   7.603   8.046   7.165 -0.1995 -1.0839 -0.2289
   12CHTO   H74 4926   7.703   8.176   7.099  0.2895 -0.1865  0.5956
   12CHTO   C40 4927   7.527   8.105   6.913 -1.0575  0.1792  0.2477
   12CHTO   H82 4928   7.550   8.211   6.916 -0.6597  0.0693  1.6079
   12CHTO   O26 4929   7.491   8.057   6.778 -0.0732  0.2344 -0.1974
   12CHTO   C41 4930   7.592   8.045   6.671  0.1140 -0.2816 -0.1822
   12CHTO   H83 4931   7.619   8.146   6.637 -0.5313 -0.1017 -0.1700
   12CHTO   C52 4932   7.528   7.964   6.556  0.6186  0.3263 -0.1224
   12CHTO   O35 4933   7.389   8.008   6.528 -0.0862 -0.0153  0.0804
   12CHTO   H71 4934   7.367   8.008   6.437  3.4110  1.7920 -0.8812
   12CHTO   O28 4935   7.410   8.081   6.999 -0.2490 -0.0581 -0.5014
   12CHTO   C42 4936   7.273   8.128   6.980  0.4085  0.2181 -0.5817
   12CHTO   H84 4937   7.227   8.074   7.063  0.7328  0.1811 -0.4252
   12CHTO   C44 4938   7.200   8.081   6.850 -0.6149  0.2535  0.5976
   12CHTO   H86 4939   7.242   8.131   6.763 -2.1583 -0.7573 -0.7696
   12CHTO   O32 4940   7.219   7.938   6.828  0.4673 -0.5445  0.5229
   12CHTO   H69 4941   7.162   7.889   6.884  0.7660 -1.0970  0.3481
   12CHTO   C48 4942   7.044   8.125   6.854  0.4635 -0.2117  0.3161
   12CHTO   H90 4943   6.980   8.076   6.928  0.4500  0.2006  0.5783
   12CHTO    N9 4944   6.982   8.086   6.719  0.4950  0.1302 -0.2664
   12CHTO   H77 4945   7.024   8.158   6.651  0.6693  0.7952  0.5358
   12CHTO   H78 4946   6.987   7.982   6.692  1.2455 -0.2779  1.3705
   12CHTO   C51 4947   7.034   8.279   6.884  0.2020 -0.7899  0.0950
   12CHTO   H93 4948   7.067   8.338   6.799  0.0037  0.8493  1.1415
   12CHTO   O30 4949   7.112   8.311   7.002 -0.2337  0.1863  0.7511
   12CHTO   C46 4950   7.253   8.277   7.002  0.5650  0.3078 -0.3125
   12CHTO   H88 4951   7.299   8.337   6.923 -1.0365  2.0465  0.0416
   12CHTO   C53 4952   7.292   8.317   7.147  0.4965 -0.4296 -0.4017
   12CHTO   O72 4953   7.428   8.308   7.195 -0.3187  0.4261 -0.2757
   12CHTO  H199 4954   7.491   8.330   7.128  0.3486  1.4051  0.6526
   12CHTO   O22 4955   6.907   8.324   6.923  0.1903 -0.8245  0.0219
   12CHTO   C31 4956   6.854   8.468   6.934 -0.5312 -0.5017 -0.5921
   12CHTO   H59 4957   6.744   8.456   6.945 -0.4042 -1.3425 -0.2453
   12CHTO   C29 4958   6.903   8.547   7.055 -0.0458 -0.5600  0.2332
   12CHTO   H57 4959   7.008   8.576   7.043  0.1067 -1.8302 -1.6874
   12CHTO   O21 4960   6.907   8.449   7.165  0.4478  0.0993  0.0534
   12CHTO   H37 4961   6.942   8.486   7.244  0.5265 -0.3197  0.2131
   12CHTO   C27 4962   6.816   8.676   7.064 -0.1221 -0.5265 -0.0793
   12CHTO   H55 4963   6.709   8.649   7.057 -0.0508 -0.4178 -1.8079
   12CHTO    N5 4964   6.839   8.756   7.188 -0.1653  0.1083 -0.4195
   12CHTO   H43 4965   6.852   8.693   7.274 -0.0764 -0.5682 -0.9246
   12CHTO   H44 4966   6.762   8.830   7.199 -0.3922  0.0448 -1.4815
   12CHTO   C25 4967   6.831   8.765   6.932  0.0512  0.2456  0.2110
   12CHTO   H53 4968   6.935   8.801   6.927 -0.1239  0.5908 -1.0618
   12CHTO   O17 4969   6.804   8.683   6.816 -0.3850 -0.2105 -0.6422
   12CHTO   C32 4970   6.875   8.555   6.806 -0.9195  1.2184 -0.0761
   12CHTO   H60 4971   6.979   8.576   6.780 -1.2577  0.8455 -1.8085
   12CHTO   C36 4972   6.804   8.474   6.687 -0.9386  0.4028  0.5376
   12CHTO   O25 4973   6.809   8.560   6.572  0.1215  0.0885 -0.0527
   12CHTO   H40 4974   6.728   8.560   6.525  0.8277 -1.9127 -1.3145
   12CHTO   O15 4975   6.731   8.890   6.931 -0.1833  0.0051  0.2766
   12CHTO   C19 4976   6.608   8.936   6.861  0.0639  0.5973 -0.1721
   12CHTO   H47 4977   6.552   8.985   6.942  0.2520 -1.2076  1.0809
   12CHTO   C20 4978   6.644   9.037   6.751  0.4999  0.1114 -0.0717
   12CHTO   H48 4979   6.706   8.992   6.672  1.0782 -1.1735  1.1001
   12CHTO   O19 4980   6.725   9.149   6.801 -0.3750 -0.2752  0.3625
   12CHTO   H35 4981   6.773   9.115   6.874 -1.6716 -0.6993  1.0413
   12CHTO   C21 4982   6.511   9.089   6.687 -0.8286  0.4916  0.2409
   12CHTO   H49 4983   6.460   9.145   6.766 -0.4807 -0.9191  1.4701
   12CHTO    N4 4984   6.537   9.183   6.578  0.3743  0.3061 -0.3069
   12CHTO   H41 4985   6.590   9.276   6.595 -0.9208  1.2061 -1.0790
   12CHTO   H42 4986   6.459   9.208   6.507 -0.1424 -0.1405  0.1020
   12CHTO   C22 4987   6.418   8.968   6.650  1.1094 -0.1837  0.5070
   12CHTO   H50 4988   6.467   8.921   6.566 -0.1706 -2.3939  0.9734
   12CHTO   O14 4989   6.392   8.888   6.760  0.1379 -0.4644  0.0725
   12CHTO   C23 4990   6.508   8.832   6.816  0.4023 -0.1269  0.3142
   12CHTO   H51 4991   6.551   8.772   6.734  1.1357  0.7131  0.0763
   12CHTO   C34 4992   6.451   8.744   6.928 -0.0845 -0.2025  0.1260
   12CHTO   O23 4993   6.358   8.639   6.900  0.2692 -0.1614  0.7978
   12CHTO   H38 4994   6.362   8.573   6.966  0.1866 -1.4080 -0.4034
   12CHTO   O16 4995   6.284   9.012   6.621  0.0373 -0.4334 -0.6118
   12CHTO   C24 4996   6.210   8.904   6.519 -0.3702 -0.0761 -0.5234
   12CHTO   H52 4997   6.266   8.810   6.517  0.1581  0.2094  0.3665
   12CHTO   C26 4998   6.201   8.955   6.376  0.0090  0.0264  0.1504
   12CHTO   H54 4999   6.172   9.062   6.384  0.8261  0.3537 -1.0137
   12CHTO   O20 5000   6.335   8.967   6.325 -0.1059  0.3188  0.2967
   12CHTO   H36 5001   6.376   9.040   6.368 -0.2301 -0.6247  2.0882
   12CHTO   C30 5002   6.115   8.874   6.279 -0.3883 -0.0910  0.0055
   12CHTO   H58 5003   6.153   8.774   6.255 -0.7463 -0.2932  0.2654
   12CHTO    N6 5004   6.094   8.934   6.149  0.2560 -0.3633  0.3778
   12CHTO   H45 5005   6.156   9.020   6.126 -1.2404 -0.2103 -3.4327
   12CHTO   H46 5006   6.105   8.863   6.069  0.8103  0.0884  0.0489
   12CHTO   C33 5007   5.978   8.832   6.356 -0.2117  0.4078 -0.0836
   12CHTO   H61 5008   5.920   8.926   6.358  0.0779  0.6968 -2.8194
   12CHTO   O18 5009   5.994   8.786   6.485 -0.5248  0.1719  0.2054
   12CHTO   C28 5010   6.064   8.876   6.571  0.6852 -0.9599  1.0468
   12CHTO   H56 5011   6.010   8.971   6.573  2.1670 -0.1106  1.0924
   12CHTO   C35 5012   6.073   8.813   6.718  0.2406  0.4763  0.0371
   12CHTO   O24 5013   6.140   8.693   6.714 -0.6683 -0.0876  0.1344
   12CHTO   H39 5014   6.100   8.631   6.655  0.8717  0.5059 -1.5822
   12CHTO    O9 5015   5.895   8.742   6.278  0.0986 -0.0942  0.4431
   12CHTO   C13 5016   5.949   8.570   6.286 -0.2017 -0.3417 -0.1632
   12CHTO   H26 5017   6.028   8.558   6.363 -0.4220  1.0180  0.2973
   12CHTO   C11 5018   6.007   8.540   6.137  0.5166 -0.2169  0.2811
   12CHTO   H24 5019   6.106   8.586   6.122  0.8076 -0.7200  0.6724
   12CHTO    O8 5020   5.920   8.601   6.044  0.0274 -0.2118 -0.2359
   12CHTO    H3 5021   5.870   8.675   6.072  0.5754  0.4175 -0.9253
   12CHTO    C9 5022   6.018   8.389   6.121  0.5550  0.7598  0.8622
   12CHTO   H22 5023   6.081   8.351   6.203 -1.4698  1.5744  2.8303
   12CHTO    N2 5024   6.096   8.351   5.998  0.7585  0.4214 -0.6154
   12CHTO   H10 5025   6.076   8.420   5.917 -0.8443  0.0825 -0.5227
   12CHTO   H11 5026   6.093   8.246   5.973  2.1179  0.2159  0.0495
   12CHTO    C7 5027   5.878   8.314   6.142 -0.5392  0.3866  0.7170
   12CHTO   H20 5028   5.914   8.226   6.198 -0.6544 -0.5130 -0.6046
   12CHTO    O4 5029   5.783   8.381   6.224 -0.1019 -0.2154  0.1909
   12CHTO   C14 5030   5.828   8.473   6.328  0.3663  0.5145  0.6086
   12CHTO   H27 5031   5.869   8.410   6.410  2.1778 -1.7573 -1.9615
   12CHTO   C18 5032   5.700   8.545   6.383  0.0575 -0.2077 -0.8987
   12CHTO   O13 5033   5.616   8.467   6.477  0.0331 -0.0122 -0.4998
   12CHTO    H7 5034   5.679   8.434   6.538 -0.0395 -3.2803 -2.1333
   12CHTO    O2 5035   5.815   8.280   6.014 -0.1345 -0.2673  0.0114
   12CHTO    C1 5036   5.756   8.147   6.026 -0.4283  0.0281  0.1646
   12CHTO   H14 5037   5.737   8.113   6.130  1.3990  0.2314  0.5847
   12CHTO    C2 5038   5.838   8.033   5.946 -0.3496 -1.0017  0.2025
   12CHTO   H15 5039   5.846   8.067   5.842 -0.0457  2.8793  1.4294
   12CHTO    O6 5040   5.969   8.007   5.999  0.2143  0.8889  0.3272
   12CHTO    H1 5041   6.026   7.953   5.948  0.1813  1.2217 -0.0643
   12CHTO    C3 5042   5.753   7.907   5.946 -0.0948  0.2037  0.2111
   12CHTO   H16 5043   5.748   7.872   6.050  2.4348  0.1562  0.3508
   12CHTO    N1 5044   5.812   7.799   5.853  0.2965 -0.2143 -0.5563
   12CHTO    H8 5045   5.751   7.787   5.764  0.5596  2.3569 -1.1390
   12CHTO    H9 5046   5.823   7.711   5.914 -0.2680  0.6537  0.8005
   12CHTO    C4 5047   5.599   7.931   5.909 -0.3804  0.0256  0.5203
   12CHTO   H17 5048   5.594   7.943   5.801 -0.7207  0.4384  0.5826
   12CHTO    O1 5049   5.540   8.042   5.977 -0.1582 -0.3230 -0.2899
   12CHTO    C5 5050   5.617   8.157   5.963  0.7670  0.3372  0.8836
   12CHTO   H18 5051   5.632   8.168   5.855 -0.4544  2.4508  0.9076
   12CHTO   C16 5052   5.525   8.269   6.024 -0.4705  0.1750  0.7441
   12CHTO   O11 5053   5.513   8.243   6.162  0.5335  0.2671  0.1978
   12CHTO    H5 5054   5.447   8.177   6.174 -0.8587  1.9773  2.2115
   12CHTO    O3 5055   5.503   7.822   5.945 -0.2308 -0.1730 -0.1347
   12CHTO    C6 5056   5.411   7.778   5.844  0.2365  0.3844  0.1855
   12CHTO   H19 5057   5.446   7.800   5.743 -1.7005 -0.0983 -0.6138
   12CHTO    C8 5058   5.410   7.621   5.852 -0.7965  0.4506 -0.3472
   12CHTO   H21 5059   5.391   7.588   5.954 -2.1432 -1.6754 -1.2668
   12CHTO    O7 5060   5.545   7.579   5.819  0.3045 -0.0838 -0.0073
   12CHTO    H2 5061   5.565   7.494   5.854 -2.8578 -0.9612 -0.1569
   12CHTO   C12 5062   5.313   7.565   5.740  0.4328 -0.9053  0.2109
   12CHTO   H25 5063   5.364   7.594   5.646 -0.8910 -0.3597 -0.3495
   12CHTO    N3 5064   5.300   7.415   5.751 -0.5656  0.2652  0.0041
   12CHTO   H12 5065   5.295   7.390   5.856  1.1569 -1.9721 -0.4215
   12CHTO   H13 5066   5.387   7.369   5.709  1.3107  3.0722  0.6851
   12CHTO   C15 5067   5.177   7.641   5.751 -0.2306  0.6372  0.2389
   12CHTO   H28 5068   5.125   7.625   5.845 -0.9310 -2.2202 -0.5844
   12CHTO   O10 5069   5.095   7.621   5.625  0.8459  0.0586  0.4321
   12CHTO    H4 5070   5.109   7.535   5.592  2.4504  0.7176 -0.6940
   12CHTO    O5 5071   5.199   7.781   5.736 -1.1005  0.6565 -0.8199
   12CHTO   C10 5072   5.267   7.833   5.851  0.4957 -0.5818 -0.0985
   12CHTO   H23 5073   5.221   7.791   5.940  1.3664  0.5012  0.8744
   12CHTO   C17 5074   5.255   7.984   5.857 -0.3288  0.1792  0.5751
   12CHTO   O12 5075   5.124   8.021   5.853  0.2551  0.0415  0.2482
   12CHTO    H6 5076   5.075   8.006   5.774 -0.3986  0.5841  0.5481
   13CHTO  H203 5077   7.338   4.679   2.400 -0.2317 -0.0117 -0.4561
   13CHTO   O82 5078   7.327   4.759   2.354 -0.5954  0.4339  0.3780
   13CHTO  C123 5079   7.330   4.892   2.407 -0.1119 -0.0981 -0.2916
   13CHTO  H227 5080   7.398   4.954   2.347  0.3010  1.4346  1.6969
   13CHTO   O77 5081   7.193   4.950   2.398  0.2569 -0.0983  0.1498
   13CHTO  C118 5082   7.188   5.094   2.421 -0.0757  0.3788 -0.4676
   13CHTO  H222 5083   7.258   5.141   2.351 -0.5804  0.3200 -1.0136
   13CHTO  C125 5084   7.045   5.138   2.378  0.0390  0.5853  0.3597
   13CHTO   O84 5085   7.043   5.112   2.238 -0.2988  0.4541  0.2066
   13CHTO  H205 5086   7.020   5.021   2.234 -0.7610  0.6116 -0.6527
   13CHTO  C114 5087   7.236   5.124   2.567  0.2759 -0.7565 -0.3893
   13CHTO  H218 5088   7.162   5.082   2.636 -1.2311  1.7395 -0.4355
   13CHTO  C116 5089   7.374   5.054   2.596  0.4435 -0.4135 -0.1963
   13CHTO  H220 5090   7.447   5.102   2.528  2.2651 -1.1816  1.1693
   13CHTO   O79 5091   7.417   5.084   2.724 -0.0054  0.3805  0.4338
   13CHTO  H201 5092   7.506   5.060   2.736  0.4852  2.7154  1.7920
   13CHTO  C120 5093   7.379   4.898   2.559 -0.7675 -0.2937  0.3882
   13CHTO  H224 5094   7.305   4.851   2.626  0.1111  0.6916  2.0803
   13CHTO   N21 5095   7.515   4.836   2.585  0.6605 -0.2874 -0.0677
   13CHTO  H211 5096   7.509   4.793   2.684  1.5662  0.8282  0.4886
   13CHTO  H212 5097   7.586   4.917   2.580 -1.1632  1.3909  0.7325
   13CHTO   O75 5098   7.234   5.269   2.571  0.1072  0.0351 -0.1609
   13CHTO  C112 5099   7.144   5.344   2.711 -0.0398  0.1199 -0.2527
   13CHTO  H216 5100   7.185   5.298   2.802  0.9608 -0.8689 -1.1930
   13CHTO   O73 5101   7.005   5.315   2.695 -0.0371 -0.9118 -0.0508
   13CHTO  C113 5102   6.925   5.369   2.794 -0.0816 -0.7155  0.1611
   13CHTO  H217 5103   6.969   5.335   2.890  0.7061  0.5251  0.2624
   13CHTO  C124 5104   6.789   5.306   2.767 -0.0156  0.8625  0.4047
   13CHTO   O83 5105   6.792   5.168   2.820  0.4490 -0.0494  0.3850
   13CHTO  H204 5106   6.841   5.112   2.763 -0.6978 -1.3352  0.6548
   13CHTO  C109 5107   6.930   5.525   2.794  0.1619  0.0735 -0.4391
   13CHTO  H213 5108   6.901   5.556   2.692  1.9347 -0.9159 -1.2716
   13CHTO  C110 5109   7.071   5.573   2.816  0.6435 -0.1060 -0.7101
   13CHTO  H214 5110   7.096   5.556   2.921  0.5977 -0.9710 -0.8341
   13CHTO   O78 5111   7.075   5.710   2.795 -0.6257  0.5123 -0.1772
   13CHTO  H200 5112   7.154   5.758   2.809 -2.4859  3.4767  0.8525
   13CHTO  C111 5113   7.166   5.502   2.715  0.0020 -0.3709  0.5042
   13CHTO  H215 5114   7.143   5.539   2.615  1.4992 -0.6490  0.0416
   13CHTO   N19 5115   7.312   5.525   2.735  0.2607  0.0424 -0.1028
   13CHTO  H207 5116   7.335   5.524   2.841  0.1414  1.3759 -0.0536
   13CHTO  H208 5117   7.352   5.609   2.679 -0.1292 -0.1886 -0.7294
   13CHTO   O74 5118   6.831   5.575   2.890 -0.0863  0.1626 -0.2454
   13CHTO  C115 5119   6.712   5.649   2.822 -0.1295 -0.1261 -0.6056
   13CHTO  H219 5120   6.731   5.663   2.715  0.0257  0.6609 -0.4745
   13CHTO   O76 5121   6.562   5.561   2.830  0.2860 -0.2439 -0.3812
   13CHTO  C122 5122   6.519   5.554   2.968  0.1895  0.5236  0.0078
   13CHTO  H226 5123   6.599   5.505   3.023  0.4106  2.2208  1.2407
   13CHTO  C126 5124   6.389   5.464   2.992  0.4076  0.3010 -0.4913
   13CHTO   O85 5125   6.280   5.507   2.908  0.1447 -0.2966  0.2057
   13CHTO  H206 5126   6.206   5.452   2.924 -2.4051  2.8304 -0.1272
   13CHTO  C121 5127   6.495   5.701   3.029  0.3659  0.1460  0.0222
   13CHTO  H225 5128   6.387   5.713   3.051 -0.0337 -1.6407 -0.8474
   13CHTO   O81 5129   6.565   5.702   3.151  0.4724 -0.1077 -0.3894
   13CHTO  H202 5130   6.544   5.624   3.197 -1.0206  0.3218 -0.3150
   13CHTO  C119 5131   6.543   5.810   2.935 -0.2901 -0.1790 -0.3779
   13CHTO  H223 5132   6.478   5.811   2.847 -0.2133 -1.5856 -0.4537
   13CHTO  C117 5133   6.693   5.791   2.897 -0.0406  0.3637  0.2679
   13CHTO  H221 5134   6.760   5.785   2.983  1.2225  1.9784 -0.5604
   13CHTO   N20 5135   6.747   5.892   2.808 -0.6602 -0.3662 -0.7860
   13CHTO  H209 5136   6.798   5.859   2.718  1.2384 -1.4369  0.6590
   13CHTO  H210 5137   6.815   5.963   2.852  0.3466 -0.8319 -1.5848
   13CHTO   O80 5138   6.502   5.953   3.002  0.7349 -0.5430  0.4264
   13CHTO  C103 5139   6.355   6.007   3.010 -0.2264 -1.3069  0.2918
   13CHTO  H190 5140   6.368   6.115   3.017  2.7894 -1.6459  0.6093
   13CHTO  C101 5141   6.273   5.976   2.885 -0.9138  0.3085 -0.4691
   13CHTO  H188 5142   6.264   5.868   2.876  0.3516  0.3174 -2.2362
   13CHTO   O68 5143   6.351   6.037   2.762  0.0916  0.1653  0.1813
   13CHTO  H168 5144   6.358   5.969   2.698 -0.4782 -1.2230  1.5492
   13CHTO   C99 5145   6.122   6.037   2.889 -0.7182  0.2003 -0.3254
   13CHTO  H186 5146   6.124   6.148   2.891 -3.3432  0.2931 -1.0700
   13CHTO   N17 5147   6.034   6.002   2.774  0.0409  0.0892 -0.1551
   13CHTO  H174 5148   5.965   6.080   2.746 -0.1699 -0.3891 -1.0019
   13CHTO  H175 5149   6.092   5.975   2.687 -0.2160  1.6105 -0.8198
   13CHTO   C97 5150   6.063   5.996   3.023 -0.4905 -0.3702  0.5116
   13CHTO  H184 5151   6.053   5.886   3.024 -0.5107 -0.3691  1.4654
   13CHTO   O64 5152   6.142   6.038   3.129 -0.4688  0.6321 -0.0732
   13CHTO  C104 5153   6.270   5.964   3.136 -0.1722 -0.0125 -0.7085
   13CHTO  H191 5154   6.256   5.856   3.132  0.9642 -0.1354 -1.5920
   13CHTO  C108 5155   6.345   5.994   3.266  0.3000 -0.4232  0.5158
   13CHTO   O71 5156   6.278   5.941   3.377 -0.1670 -0.1649 -0.2247
   13CHTO  H171 5157   6.197   5.988   3.386 -0.0335  0.0722 -0.2588
   13CHTO   O62 5158   5.942   6.067   3.049  0.3415 -0.0682  0.1007
   13CHTO   C91 5159   5.843   6.010   3.144 -0.2848 -0.7759  0.2804
   13CHTO  H178 5160   5.894   5.925   3.188  0.0498 -0.5106  0.4091
   13CHTO   C92 5161   5.723   5.960   3.063 -0.6896 -0.3743  0.4972
   13CHTO  H179 5162   5.677   6.035   2.997 -1.3956 -0.4718  0.8681
   13CHTO   O66 5163   5.779   5.866   2.970 -0.1070 -0.6015 -0.0979
   13CHTO  H166 5164   5.851   5.905   2.925  1.6112 -3.5765 -0.0436
   13CHTO   C93 5165   5.606   5.899   3.156  0.1781 -0.1495  0.2067
   13CHTO  H180 5166   5.644   5.805   3.198 -0.8733 -0.2661  0.9247
   13CHTO   N16 5167   5.489   5.857   3.085 -0.3235  0.2137 -0.1747
   13CHTO  H172 5168   5.408   5.826   3.149 -1.0483  0.0284 -1.1734
   13CHTO  H173 5169   5.462   5.943   3.025  2.8342  1.0745 -0.4479
   13CHTO   C94 5170   5.564   5.998   3.268  0.5033  0.0131 -0.3805
   13CHTO  H181 5171   5.518   6.088   3.226  1.5898  0.5594 -0.4493
   13CHTO   O61 5172   5.680   6.044   3.338 -0.8945  0.0528 -0.0965
   13CHTO   C95 5173   5.791   6.105   3.260  0.7077  0.3200 -0.4192
   13CHTO  H182 5174   5.756   6.199   3.217  3.6454  0.7751 -1.9382
   13CHTO  C106 5175   5.906   6.129   3.371  0.4771  0.0586  0.1810
   13CHTO   O69 5176   5.862   6.220   3.473 -0.0006 -0.2606  0.0083
   13CHTO  H169 5177   5.923   6.225   3.544 -0.2754 -0.4803  0.2578
   13CHTO   O63 5178   5.472   5.918   3.384  0.0606  0.0402  0.1813
   13CHTO   C96 5179   5.336   5.978   3.391 -0.8497  0.2412 -0.3339
   13CHTO  H183 5180   5.311   5.991   3.286 -1.1566 -1.7009 -0.5197
   13CHTO   C98 5181   5.344   6.122   3.464  0.4675 -0.5455 -0.3990
   13CHTO  H185 5182   5.423   6.185   3.421 -1.0017  2.1274  0.7363
   13CHTO   O67 5183   5.220   6.188   3.439  0.4991 -0.0666  0.2651
   13CHTO  H167 5184   5.197   6.168   3.350  1.4228  0.3093 -0.0660
   13CHTO  C102 5185   5.362   6.104   3.627 -0.1302 -0.1431  1.0298
   13CHTO  H189 5186   5.318   6.193   3.675 -1.3140  0.0497 -0.3766
   13CHTO   N18 5187   5.506   6.101   3.671  0.8056 -0.0505 -0.1934
   13CHTO  H176 5188   5.527   5.996   3.688  0.8623  0.0336  0.2433
   13CHTO  H177 5189   5.516   6.153   3.765 -0.8325 -1.5987  0.8906
   13CHTO  C105 5190   5.285   5.975   3.674 -0.6797  0.3348  0.1345
   13CHTO  H192 5191   5.355   5.891   3.680  0.0704  0.8265 -1.5118
   13CHTO   O65 5192   5.181   5.943   3.585 -0.6724 -0.0874 -0.5497
   13CHTO  C100 5193   5.225   5.885   3.457 -0.1298  0.3698 -0.7189
   13CHTO  H187 5194   5.262   5.784   3.481 -1.6682  0.3696  1.8651
   13CHTO  C107 5195   5.114   5.858   3.358 -0.1954  0.4165 -0.0292
   13CHTO   O70 5196   5.149   5.774   3.246  0.3325 -0.1747  0.0090
   13CHTO  H170 5197   5.082   5.776   3.179  0.0230  0.5871  0.3354
   13CHTO   O57 5198   5.234   6.003   3.817 -0.7994  0.0755 -0.1293
   13CHTO   C85 5199   5.229   5.901   3.921 -0.1230  0.2842  0.2631
   13CHTO  H157 5200   5.320   5.838   3.904 -0.3617  0.2259 -0.8631
   13CHTO   C83 5201   5.105   5.810   3.899 -0.1996  0.6378 -0.2172
   13CHTO  H155 5202   5.121   5.767   3.800  0.3612 -1.4831  0.7628
   13CHTO   O56 5203   4.992   5.890   3.882 -0.6368 -0.3007 -0.1289
   13CHTO  H135 5204   4.917   5.841   3.911 -1.9042 -0.1121 -2.9027
   13CHTO   C81 5205   5.099   5.702   4.012 -0.0432 -0.5421 -0.2640
   13CHTO  H153 5206   5.193   5.647   4.008  0.0695 -0.4762  1.0285
   13CHTO   N14 5207   5.006   5.592   4.003  1.0368 -0.1743 -0.3132
   13CHTO  H141 5208   5.037   5.518   4.073  0.3001 -1.0397 -0.8830
   13CHTO  H142 5209   5.006   5.551   3.904  0.9183  1.0883 -0.8505
   13CHTO   C79 5210   5.083   5.776   4.148  0.3027  0.4734 -0.7119
   13CHTO  H151 5211   5.102   5.698   4.222  1.3089  0.5913 -0.8388
   13CHTO   O52 5212   5.197   5.865   4.159  0.5210  0.5693  0.1534
   13CHTO   C86 5213   5.232   5.962   4.063  0.0317  0.4823 -0.3818
   13CHTO  H158 5214   5.151   6.037   4.073  0.4012  0.4297  3.6649
   13CHTO   C90 5215   5.357   6.039   4.090  0.6915  0.2136  0.3871
   13CHTO   O60 5216   5.357   6.094   4.223 -0.3586 -0.3045  0.0053
   13CHTO  H138 5217   5.439   6.135   4.243  1.7245 -4.1375 -0.1795
   13CHTO   O50 5218   4.959   5.836   4.173  0.6922 -0.3702 -0.2689
   13CHTO   C73 5219   4.854   5.903   4.247  0.0173  0.1491  0.2009
   13CHTO  H145 5220   4.760   5.909   4.191  0.8810  0.6234 -1.2086
   13CHTO   C74 5221   4.908   6.049   4.278 -0.6962  0.0796  0.3792
   13CHTO  H146 5222   4.937   6.083   4.177  0.7214  0.5517  0.9232
   13CHTO   O54 5223   4.797   6.123   4.327 -0.5572  0.6442  0.1030
   13CHTO  H133 5224   4.762   6.179   4.259 -1.3498 -0.8804 -0.7624
   13CHTO   C75 5225   5.032   6.044   4.370 -0.1345  0.4069  0.3928
   13CHTO  H147 5226   5.117   5.998   4.317  0.3682  1.6210  0.1257
   13CHTO   N13 5227   5.086   6.169   4.422  0.6365 -0.8357 -0.0787
   13CHTO  H139 5228   5.066   6.183   4.528  2.0927  3.0700 -0.2559
   13CHTO  H140 5229   5.193   6.175   4.410  0.6068 -1.5417 -0.7045
   13CHTO   C76 5230   4.996   5.940   4.491  0.2004 -0.7615  0.4114
   13CHTO  H148 5231   4.935   5.992   4.565  0.9544 -1.0936  1.2827
   13CHTO   O49 5232   4.933   5.812   4.461 -0.7164  0.1639  0.4004
   13CHTO   C77 5233   4.823   5.834   4.380 -0.7315  0.1961 -0.9521
   13CHTO  H149 5234   4.749   5.894   4.434 -0.0608  0.7283 -0.6224
   13CHTO   C88 5235   4.755   5.702   4.360  0.2994  0.1007 -0.3660
   13CHTO   O58 5236   4.719   5.627   4.497  0.5395  0.3611 -0.4975
   13CHTO  H136 5237   4.805   5.606   4.525  0.6700  0.8502 -0.5244
   13CHTO   O51 5238   5.137   5.889   4.557  0.1776  0.5072 -0.7337
   13CHTO   C78 5239   5.133   5.905   4.721 -0.0992 -0.2331  0.0892
   13CHTO  H150 5240   5.029   5.900   4.759  0.1071  1.0156  0.8181
   13CHTO   C80 5241   5.189   6.039   4.757  0.5275  0.2329 -0.6731
   13CHTO  H152 5242   5.260   6.066   4.676 -0.2430 -1.5398 -1.9487
   13CHTO   O55 5243   5.074   6.131   4.778 -0.1408 -0.1234  0.0453
   13CHTO  H134 5244   5.054   6.150   4.688  1.0547 -0.4241 -0.2974
   13CHTO   C84 5245   5.268   6.045   4.887  0.4337 -0.5088 -0.7062
   13CHTO  H156 5246   5.199   6.024   4.970  2.0199  1.2733  1.1335
   13CHTO   N15 5247   5.341   6.172   4.919 -0.3293 -0.0856 -0.0731
   13CHTO  H143 5248   5.259   6.240   4.915  0.8677  1.4511  0.7184
   13CHTO  H144 5249   5.378   6.172   5.020 -0.6412  1.5501  0.0538
   13CHTO   C87 5250   5.360   5.917   4.898 -0.2388 -0.2049 -0.6624
   13CHTO  H159 5251   5.418   5.922   4.806  1.7591  0.5607  0.6218
   13CHTO   O53 5252   5.264   5.791   4.903 -0.3808 -0.3925  0.0619
   13CHTO   C82 5253   5.210   5.781   4.773 -0.5904  0.1476  0.1123
   13CHTO  H154 5254   5.296   5.757   4.711 -0.1229 -2.4891  1.6945
   13CHTO   C89 5255   5.116   5.654   4.768 -0.3233  0.4061  0.4152
   13CHTO   O59 5256   5.194   5.542   4.797 -0.0693 -0.0786 -0.2915
   13CHTO  H137 5257   5.242   5.518   4.720  1.1693  1.1003  0.0962
   13CHTO   O45 5258   5.465   5.908   5.020 -0.9053 -0.2817 -0.0309
   13CHTO   C67 5259   5.599   5.856   4.990 -0.4275 -0.4627  0.0640
   13CHTO  H124 5260   5.629   5.874   4.887  2.4467  0.8483  1.0688
   13CHTO   C65 5261   5.698   5.937   5.072  0.0484 -0.3509  0.2937
   13CHTO  H122 5262   5.634   5.986   5.146  0.1043 -0.0977  0.1749
   13CHTO   O44 5263   5.748   6.037   4.986  0.0903  0.0882  0.1128
   13CHTO  H102 5264   5.836   6.023   4.958 -0.1491 -0.2741 -0.4647
   13CHTO   C63 5265   5.812   5.856   5.151  0.7805  0.0497 -0.3215
   13CHTO  H120 5266   5.766   5.811   5.239  0.9307 -0.0644 -0.3023
   13CHTO   N11 5267   5.917   5.948   5.211 -0.1488  0.1698  0.6577
   13CHTO  H108 5268   5.970   6.001   5.134  0.1497 -2.7735 -1.2234
   13CHTO  H109 5269   5.869   6.021   5.273  1.8970 -0.4917  3.1134
   13CHTO   C61 5270   5.867   5.748   5.049  0.3587 -0.2674  0.2051
   13CHTO  H118 5271   5.929   5.691   5.120 -0.2982  3.4153  3.9236
   13CHTO   O40 5272   5.770   5.657   4.991  0.6560 -0.3755 -0.2117
   13CHTO   C68 5273   5.628   5.700   5.016  0.9678  0.9861 -0.3294
   13CHTO  H125 5274   5.603   5.670   5.120  1.8114  1.0950 -0.0929
   13CHTO   C72 5275   5.537   5.612   4.914 -0.0112 -0.2528  0.3199
   13CHTO   O48 5276   5.554   5.667   4.781  0.3731 -0.1556 -0.1594
   13CHTO  H105 5277   5.557   5.596   4.720  0.3337  1.7180 -2.4186
   13CHTO   O38 5278   5.943   5.818   4.949 -0.0206  0.7737 -0.1015
   13CHTO   C55 5279   6.027   5.750   4.857  0.4602 -0.2569 -0.1085
   13CHTO  H112 5280   5.990   5.649   4.834 -2.6286  0.9131 -0.5104
   13CHTO   C56 5281   6.178   5.739   4.925  0.2786  0.5915  0.2443
   13CHTO  H113 5282   6.191   5.840   4.965 -1.2063  0.9978 -0.2355
   13CHTO   O42 5283   6.163   5.643   5.031  0.1285 -0.1243 -0.0778
   13CHTO  H100 5284   6.152   5.557   4.995  0.1806  0.7334 -2.2290
   13CHTO   C57 5285   6.289   5.703   4.826  0.0187  0.2874 -0.2202
   13CHTO  H114 5286   6.278   5.598   4.799 -0.3985  0.6161 -1.3847
   13CHTO   N10 5287   6.419   5.730   4.889  0.1700 -0.0939 -0.1736
   13CHTO  H106 5288   6.494   5.770   4.823 -1.0066  0.9881 -0.8745
   13CHTO  H107 5289   6.453   5.635   4.929 -1.9325 -1.3113 -1.2276
   13CHTO   C58 5290   6.273   5.786   4.692  0.3548 -0.0915 -0.8339
   13CHTO  H115 5291   6.285   5.895   4.709 -1.6425  0.0689 -0.2127
   13CHTO   O37 5292   6.144   5.752   4.637  0.1283 -0.1631 -0.4898
   13CHTO   C59 5293   6.037   5.813   4.716  0.1191 -0.3998 -0.2057
   13CHTO  H116 5294   6.054   5.921   4.722 -2.6269  0.2986 -3.4234
   13CHTO   C70 5295   5.908   5.786   4.631  0.0394  0.5262  0.0725
   13CHTO   O46 5296   5.797   5.861   4.684 -0.3079 -0.0357  0.1768
   13CHTO  H103 5297   5.726   5.864   4.624 -0.3280  1.8231  0.2519
   13CHTO   O39 5298   6.382   5.721   4.582  0.4010  0.1686 -0.0310
   13CHTO   C60 5299   6.518   5.762   4.590 -0.5984  0.1521 -0.1934
   13CHTO  H117 5300   6.535   5.848   4.655  0.9653 -1.0813  1.0781
   13CHTO   C62 5301   6.622   5.648   4.635 -0.0829 -0.6185  0.5666
   13CHTO  H119 5302   6.573   5.613   4.729 -0.5484  0.5360  0.7614
   13CHTO   O43 5303   6.614   5.542   4.538  0.4780  0.0753 -0.0839
   13CHTO  H101 5304   6.528   5.503   4.541  1.1031 -1.3347 -0.0095
   13CHTO   C66 5305   6.775   5.689   4.663 -1.2570 -0.2579  0.6743
   13CHTO  H123 5306   6.775   5.765   4.741  0.5711 -0.5362  0.9595
   13CHTO   N12 5307   6.850   5.584   4.737 -0.0186  0.7104 -1.4164
   13CHTO  H110 5308   6.867   5.484   4.698  3.1120 -0.3830  2.3975
   13CHTO  H111 5309   6.934   5.620   4.794 -0.1684  1.2459 -1.5318
   13CHTO   C69 5310   6.824   5.742   4.523  0.6350  0.2125  0.2088
   13CHTO  H126 5311   6.833   5.658   4.452 -2.3844 -0.3344  0.3844
   13CHTO   O41 5312   6.712   5.853   4.471 -0.6442 -0.0032 -0.4403
   13CHTO   C64 5313   6.565   5.809   4.448 -0.3168 -0.0033 -0.2996
   13CHTO  H121 5314   6.557   5.732   4.368 -2.1147 -0.3202  0.1786
   13CHTO   C71 5315   6.495   5.928   4.391  0.2845 -0.3845  0.1503
   13CHTO   O47 5316   6.524   6.047   4.461  0.2629 -0.1252 -0.1698
   13CHTO  H104 5317   6.609   6.081   4.441 -0.0858 -0.6363 -2.6881
   13CHTO   O34 5318   6.982   5.819   4.539 -0.1605  0.5929  0.4650
   13CHTO   C49 5319   7.060   5.895   4.437  0.9066 -0.1577  0.0393
   13CHTO   H91 5320   7.092   5.819   4.367 -2.5957  0.0144 -1.8989
   13CHTO   C47 5321   7.172   5.968   4.513 -0.4372  0.8468  0.2308
   13CHTO   H89 5322   7.230   6.019   4.432  0.7975 -0.8229  0.0494
   13CHTO   O33 5323   7.265   5.881   4.584 -0.5637  0.5030 -0.1124
   13CHTO   H70 5324   7.326   5.926   4.638  0.0727  1.4873 -1.6221
   13CHTO   C45 5325   7.126   6.081   4.615 -0.8990 -0.2323 -0.6996
   13CHTO   H87 5326   7.123   6.037   4.716  2.4748  0.9051 -0.0467
   13CHTO    N8 5327   7.223   6.186   4.619 -0.2085  0.3384 -0.7389
   13CHTO   H75 5328   7.328   6.167   4.603  0.3107  4.2527 -2.7785
   13CHTO   H76 5329   7.215   6.243   4.711 -0.8020 -0.3414 -0.3671
   13CHTO   C43 5330   6.976   6.122   4.578  0.5519  0.1920 -0.2172
   13CHTO   H85 5331   6.913   6.041   4.615 -0.6129  1.1623 -0.0267
   13CHTO   O29 5332   6.970   6.138   4.433 -0.2898  0.1145 -0.1694
   13CHTO   C50 5333   6.986   6.016   4.359  0.2746  0.9148  0.1002
   13CHTO   H92 5334   6.884   5.985   4.332  0.0439  1.1686  0.6745
   13CHTO   C54 5335   7.043   6.049   4.217  0.4751  0.3682  0.2727
   13CHTO   O36 5336   6.975   6.164   4.157 -0.1921 -0.2567 -0.1138
   13CHTO   H72 5337   6.882   6.152   4.154 -0.6903  2.8459  0.9497
   13CHTO   O27 5338   6.935   6.239   4.651 -0.5689 -0.4332  0.0800
   13CHTO   C37 5339   6.874   6.298   4.760 -0.0563 -0.4095 -0.1713
   13CHTO   H79 5340   6.901   6.246   4.852 -0.2772 -1.2033 -0.5482
   13CHTO   C38 5341   6.931   6.442   4.788  0.0998 -0.1356  0.2811
   13CHTO   H80 5342   6.911   6.507   4.701  2.4425  1.5196  0.9409
   13CHTO   O31 5343   7.070   6.436   4.810  0.7319  0.6544 -0.1234
   13CHTO   H68 5344   7.094   6.365   4.867 -1.2067  0.1023  0.0270
   13CHTO   C39 5345   6.862   6.514   4.908 -0.5403  0.0158 -0.3112
   13CHTO   H81 5346   6.895   6.452   4.992  1.7980  0.1515 -1.0974
   13CHTO    N7 5347   6.906   6.658   4.924 -0.5926  0.2749 -0.7805
   13CHTO   H73 5348   6.821   6.717   4.893  0.0775  0.9769 -1.3013
   13CHTO   H74 5349   6.928   6.689   5.025  3.5810  0.3363 -1.6072
   13CHTO   C40 5350   6.705   6.498   4.888 -0.8818  0.0324  0.1389
   13CHTO   H82 5351   6.670   6.567   4.811 -0.1191 -1.8568 -1.9362
   13CHTO   O26 5352   6.663   6.361   4.856 -0.6825 -0.1783 -0.3575
   13CHTO   C41 5353   6.723   6.303   4.737  0.4413 -0.3113  0.3948
   13CHTO   H83 5354   6.706   6.363   4.646 -0.3938 -0.2104  0.6179
   13CHTO   C52 5355   6.661   6.162   4.713  0.0666 -0.0487 -0.0457
   13CHTO   O35 5356   6.641   6.102   4.848 -0.0290 -0.2057  0.8708
   13CHTO   H71 5357   6.550   6.109   4.870 -0.3226  0.6256 -0.5053
   13CHTO   O28 5358   6.653   6.513   5.022 -0.2568 -0.0313  0.3306
   13CHTO   C42 5359   6.508   6.539   5.054 -0.4363 -0.5380 -0.3376
   13CHTO   H84 5360   6.450   6.488   4.977 -1.8835 -0.7993  0.9160
   13CHTO   C44 5361   6.476   6.692   5.047  0.2242  0.3023  0.5345
   13CHTO   H86 5362   6.543   6.748   5.112  0.7556 -0.5684  0.7449
   13CHTO   O32 5363   6.507   6.749   4.916  0.4327  0.2216 -0.2718
   13CHTO   H69 5364   6.526   6.840   4.923  1.5900 -0.1023  0.9285
   13CHTO   C48 5365   6.333   6.741   5.107  0.2386 -0.2083  0.6615
   13CHTO   H90 5366   6.255   6.691   5.049  1.2984  0.0632 -1.0380
   13CHTO    N9 5367   6.310   6.890   5.095  0.7676  0.4722 -0.2743
   13CHTO   H77 5368   6.230   6.912   5.164  2.6005  4.0291  0.8340
   13CHTO   H78 5369   6.397   6.948   5.124  0.8676 -0.4185  1.2310
   13CHTO   C51 5370   6.331   6.681   5.251 -0.4500  0.5205 -0.4917
   13CHTO   H93 5371   6.425   6.717   5.295  0.0902 -1.9805  0.5124
   13CHTO   O30 5372   6.330   6.532   5.241 -0.0838 -0.1246 -0.2764
   13CHTO   C46 5373   6.462   6.477   5.191 -0.0463 -0.0054  0.1101
   13CHTO   H88 5374   6.548   6.499   5.254  1.3301 -1.5247 -1.2006
   13CHTO   C53 5375   6.449   6.325   5.175 -0.3458  0.0486 -1.1814
   13CHTO   O72 5376   6.557   6.237   5.139 -0.0356  0.5794  0.2235
   13CHTO  H199 5377   6.555   6.216   5.048 -0.1111 -0.0211  0.3619
   13CHTO   O22 5378   6.221   6.719   5.330  0.5435  0.2828 -0.2570
   13CHTO   C31 5379   6.252   6.721   5.476  0.0687 -0.3172 -0.1361
   13CHTO   H59 5380   6.337   6.652   5.493  0.2382  0.0754  0.6422
   13CHTO   C29 5381   6.291   6.859   5.522 -0.7452  0.8374  0.5279
   13CHTO   H57 5382   6.227   6.941   5.485  0.0712  0.7082 -1.2159
   13CHTO   O21 5383   6.415   6.888   5.457 -0.0495 -0.0940 -0.2508
   13CHTO   H37 5384   6.465   6.953   5.502  1.3789 -0.3853 -1.4116
   13CHTO   C27 5385   6.311   6.869   5.681 -0.3678 -0.1294 -0.0272
   13CHTO   H55 5386   6.395   6.804   5.711 -1.8381 -1.9954  0.1244
   13CHTO    N5 5387   6.340   7.006   5.726 -0.0073 -0.3936  0.1904
   13CHTO   H43 5388   6.270   7.080   5.690  2.7134  2.6699  0.9595
   13CHTO   H44 5389   6.309   7.013   5.829  0.0209  2.6090  0.0177
   13CHTO   C25 5390   6.183   6.812   5.747 -0.1672 -0.1183  0.1025
   13CHTO   H53 5391   6.093   6.863   5.711 -0.5475 -1.9944 -1.6864
   13CHTO   O17 5392   6.176   6.671   5.703  0.3621 -0.0328 -0.2139
   13CHTO   C32 5393   6.137   6.665   5.563 -0.4554 -0.4828 -0.2501
   13CHTO   H60 5394   6.045   6.722   5.552  0.6838  2.0506  2.6282
   13CHTO   C36 5395   6.102   6.514   5.533 -0.1114  0.2388 -0.0778
   13CHTO   O25 5396   6.053   6.502   5.401 -0.0362 -0.0175 -0.1500
   13CHTO   H40 5397   6.124   6.467   5.350 -0.3731 -0.6877 -0.1625
   13CHTO   O15 5398   6.191   6.829   5.909 -0.9216 -0.3113 -0.3108
   13CHTO   C19 5399   6.086   6.860   6.012 -0.5077  0.2688  0.0114
   13CHTO   H47 5400   6.118   6.860   6.117 -0.4351  1.5131 -0.0117
   13CHTO   C20 5401   6.018   6.995   5.983 -0.6738 -0.1678  0.4169
   13CHTO   H48 5402   5.975   6.998   5.882 -0.3487  4.6143  0.3221
   13CHTO   O19 5403   6.128   7.088   5.999 -0.0304  0.2722  0.0225
   13CHTO   H35 5404   6.093   7.173   6.021  0.5016  0.2987  0.7781
   13CHTO   C21 5405   5.902   7.028   6.080  0.4035 -1.2332 -0.5788
   13CHTO   H49 5406   5.931   7.025   6.186  1.5415  0.6375 -0.8256
   13CHTO    N4 5407   5.839   7.162   6.061  0.2436 -0.4628 -0.1410
   13CHTO   H41 5408   5.879   7.218   5.978 -0.8005  1.4253  0.5989
   13CHTO   H42 5409   5.732   7.152   6.052 -0.0816  1.4409  1.1169
   13CHTO   C22 5410   5.800   6.909   6.074 -0.6201  0.3920  0.3741
   13CHTO   H50 5411   5.747   6.905   5.979 -1.0600  0.1811  0.6252
   13CHTO   O14 5412   5.864   6.779   6.091  0.0349 -0.2223 -0.1268
   13CHTO   C23 5413   5.982   6.745   6.014 -0.0014 -0.3250  1.1557
   13CHTO   H51 5414   5.939   6.732   5.913 -1.6783 -0.7754  1.8976
   13CHTO   C34 5415   6.043   6.620   6.068 -0.2296 -0.0676  0.4417
   13CHTO   O23 5416   6.070   6.638   6.207  0.4289  0.0559  0.1395
   13CHTO   H38 5417   6.123   6.564   6.229 -1.1866 -0.8622  0.9943
   13CHTO   O16 5418   5.706   6.915   6.178  0.3105  0.1842  1.0822
   13CHTO   C24 5419   5.559   6.869   6.133 -0.3404  0.0842  0.0989
   13CHTO   H52 5420   5.567   6.801   6.048 -0.0949 -1.9483  1.7144
   13CHTO   C26 5421   5.476   6.990   6.085 -0.6731 -0.0615 -0.2919
   13CHTO   H54 5422   5.487   7.071   6.159  1.2905  0.8897 -1.6043
   13CHTO   O20 5423   5.532   7.042   5.962 -0.2601  0.1619 -0.0298
   13CHTO   H36 5424   5.501   6.984   5.894 -1.1019  1.0641 -0.4185
   13CHTO   C30 5425   5.324   6.971   6.066  0.0628  0.0341 -0.0220
   13CHTO   H58 5426   5.302   6.921   5.971 -1.0970 -0.1545  0.3314
   13CHTO    N6 5427   5.250   7.097   6.053  0.4549 -0.1607  0.1420
   13CHTO   H45 5428   5.254   7.139   5.954 -2.1871  2.7143  1.1290
   13CHTO   H46 5429   5.145   7.090   6.077 -0.3390 -0.3645 -3.1865
   13CHTO   C33 5430   5.272   6.873   6.175  0.1565 -0.4962 -0.4533
   13CHTO   H61 5431   5.265   6.928   6.271 -0.2988 -1.1115 -0.1335
   13CHTO   O18 5432   5.359   6.754   6.189 -0.4180  0.1744 -0.6090
   13CHTO   C28 5433   5.485   6.788   6.242  0.5636  0.3056 -0.8670
   13CHTO   H56 5434   5.478   6.845   6.335  0.3515 -0.3225 -0.4890
   13CHTO   C35 5435   5.556   6.650   6.277  0.4597  0.8594 -0.1380
   13CHTO   O24 5436   5.498   6.570   6.390  0.1511  0.2816 -0.0105
   13CHTO   H39 5437   5.451   6.493   6.365 -0.9064  0.8203  0.2982
   13CHTO    O9 5438   5.137   6.831   6.151  0.3175  0.0438 -0.0819
   13CHTO   C13 5439   5.013   6.881   6.233 -0.5954  0.1112 -0.7798
   13CHTO   H26 5440   5.044   6.959   6.306  0.5298 -1.6937  0.7046
   13CHTO   C11 5441   4.955   6.759   6.308  0.8186 -0.3462  0.6104
   13CHTO   H24 5442   5.021   6.746   6.395  1.1996  0.9785  0.5412
   13CHTO    O8 5443   4.965   6.648   6.223  0.0904  0.5214  0.1896
   13CHTO    H3 5444   5.056   6.630   6.209 -0.1558 -0.4558 -0.2361
   13CHTO    C9 5445   4.807   6.787   6.354  0.5545 -0.3885 -0.3414
   13CHTO   H22 5446   4.815   6.871   6.425  2.6814 -2.0215  1.3861
   13CHTO    N2 5447   4.751   6.686   6.446  0.2537  0.0340 -0.5809
   13CHTO   H10 5448   4.718   6.599   6.390  0.3481 -0.6619  0.4202
   13CHTO   H11 5449   4.809   6.670   6.535  1.5986 -0.5807 -1.5455
   13CHTO    C7 5450   4.715   6.833   6.230  0.3786  0.2331 -0.2638
   13CHTO   H20 5451   4.628   6.869   6.288  2.2142 -0.1180  2.7987
   13CHTO    O4 5452   4.772   6.952   6.172 -0.0699  0.3193 -0.5390
   13CHTO   C14 5453   4.911   6.957   6.135  0.6683  0.0957 -0.3275
   13CHTO   H27 5454   4.955   7.058   6.141  2.0141 -0.4645 -0.4036
   13CHTO   C18 5455   4.931   6.905   5.988  0.6097 -0.2148  0.5950
   13CHTO   O13 5456   4.867   6.998   5.897 -0.1585  0.2815  0.0090
   13CHTO    H7 5457   4.910   6.985   5.815  0.4113  1.5348  0.1023
   13CHTO    O2 5458   4.697   6.718   6.121  0.0752 -0.5871  0.4552
   13CHTO    C1 5459   4.577   6.686   6.062  0.0374  0.2452  0.2260
   13CHTO   H14 5460   4.537   6.778   6.016  0.9693  0.5626  0.0363
   13CHTO    C2 5461   4.465   6.614   6.160 -0.9513 -0.0231 -0.6371
   13CHTO   H15 5462   4.521   6.533   6.209 -0.3281  0.7596 -0.0428
   13CHTO    O6 5463   4.425   6.714   6.256 -0.5308 -0.5278  0.3401
   13CHTO    H1 5464   4.393   6.669   6.331  0.9401 -1.5597  0.3797
   13CHTO    C3 5465   4.342   6.557   6.073  0.4765  0.1947  0.2259
   13CHTO   H16 5466   4.279   6.644   6.048 -1.2673 -0.8073  1.1044
   13CHTO    N1 5467   4.250   6.471   6.150 -0.7628  0.1967 -0.0799
   13CHTO    H8 5468   4.196   6.401   6.088  0.8736 -0.1543 -1.1226
   13CHTO    H9 5469   4.300   6.426   6.234  2.5174  2.7021 -0.5930
   13CHTO    C4 5470   4.381   6.489   5.933 -0.2537 -0.3156  0.0974
   13CHTO   H17 5471   4.419   6.391   5.963 -4.3311 -2.1120 -0.2099
   13CHTO    O1 5472   4.488   6.560   5.868  0.1309 -0.1212  0.0068
   13CHTO    C5 5473   4.603   6.584   5.948 -0.7327 -0.6785  0.5139
   13CHTO   H18 5474   4.632   6.494   6.001 -0.5905 -0.9985 -0.1016
   13CHTO   C16 5475   4.726   6.626   5.861 -0.2571  0.6690 -0.0029
   13CHTO   O11 5476   4.737   6.551   5.741 -0.7138  0.6152  0.7257
   13CHTO    H5 5477   4.726   6.599   5.661 -2.6299 -1.4170 -0.2787
   13CHTO    O3 5478   4.270   6.477   5.841 -0.3957 -0.0139  0.0768
   13CHTO    C6 5479   4.285   6.367   5.745  0.6823 -0.3189 -0.5689
   13CHTO   H19 5480   4.377   6.308   5.754  1.2555  0.8929  1.8980
   13CHTO    C8 5481   4.164   6.269   5.753  0.5803 -0.1715  0.1931
   13CHTO   H21 5482   4.073   6.330   5.749  0.1946 -0.7710 -0.2478
   13CHTO    O7 5483   4.173   6.206   5.881  0.3477 -0.4345 -0.1573
   13CHTO    H2 5484   4.110   6.138   5.898  0.4697 -0.5092 -0.0116
   13CHTO   C12 5485   4.172   6.158   5.644  0.0317  0.3452  0.1969
   13CHTO   H25 5486   4.258   6.090   5.663  0.0783 -0.7739 -3.6679
   13CHTO    N3 5487   4.058   6.062   5.644 -0.0776  0.2571  0.0456
   13CHTO   H12 5488   4.070   5.992   5.562 -2.4816 -1.0270  0.7404
   13CHTO   H13 5489   3.961   6.107   5.636 -0.3152 -0.4356 -1.1619
   13CHTO   C15 5490   4.196   6.234   5.503  0.0562  0.2357 -0.2978
   13CHTO   H28 5491   4.105   6.289   5.477 -0.2721 -0.1759 -0.0487
   13CHTO   O10 5492   4.241   6.142   5.399  0.6630  0.8149 -0.0566
   13CHTO    H4 5493   4.231   6.185   5.316 -1.5629 -0.4376 -0.4640
   13CHTO    O5 5494   4.302   6.335   5.502 -0.2316  0.1865 -0.3568
   13CHTO   C10 5495   4.284   6.435   5.610 -0.3029 -0.2753 -0.7184
   13CHTO   H23 5496   4.188   6.483   5.591  1.1495  3.3767  0.6552
   13CHTO   C17 5497   4.386   6.541   5.585  0.1246  0.3983 -0.1209
   13CHTO   O12 5498   4.340   6.617   5.473  0.6622  0.3517  0.2229
   13CHTO    H6 5499   4.408   6.645   5.415 -1.7075  1.5107 -2.1259
   14CHTO  H203 5500   5.863   5.973   3.740  0.1322  2.8703  0.1571
   14CHTO   O82 5501   5.788   5.985   3.794 -0.1346 -0.0122  0.5280
   14CHTO  C123 5502   5.787   5.906   3.917  0.3004 -0.4371  0.4869
   14CHTO  H227 5503   5.883   5.859   3.940  0.3160 -0.6950 -0.1033
   14CHTO   O77 5504   5.762   5.999   4.023 -0.4892 -0.1170  0.2625
   14CHTO  C118 5505   5.757   5.934   4.155  0.0664 -0.6889  0.6805
   14CHTO  H222 5506   5.856   5.898   4.186  0.7679 -0.4128 -1.1800
   14CHTO  C125 5507   5.726   6.060   4.248  0.0423 -0.8900  0.2690
   14CHTO   O84 5508   5.830   6.165   4.237  0.1931 -0.1731  0.5581
   14CHTO  H205 5509   5.802   6.255   4.236  0.7180  0.0264 -3.4301
   14CHTO  C114 5510   5.654   5.819   4.163  0.2706 -0.2379 -0.5686
   14CHTO  H218 5511   5.558   5.863   4.191  0.6417 -0.5083  1.1595
   14CHTO  C116 5512   5.641   5.723   4.041  0.0846  0.2096 -0.8159
   14CHTO  H220 5513   5.713   5.640   4.054 -0.7726 -0.1135  2.2171
   14CHTO   O79 5514   5.513   5.653   4.043  0.3957  0.1379 -0.1463
   14CHTO  H201 5515   5.438   5.707   4.024  0.6323  0.6928  0.4545
   14CHTO  C120 5516   5.664   5.796   3.908  0.9446 -0.2172 -0.1228
   14CHTO  H224 5517   5.573   5.858   3.888  2.0263  1.0115 -1.3699
   14CHTO   N21 5518   5.677   5.703   3.790  0.4654 -0.4905 -0.6190
   14CHTO  H211 5519   5.582   5.684   3.744  0.4055  0.3229 -0.8371
   14CHTO  H212 5520   5.717   5.611   3.832  1.7560 -0.3128 -1.4243
   14CHTO   O75 5521   5.708   5.754   4.279  0.0770 -0.0419  0.7110
   14CHTO  C112 5522   5.605   5.654   4.375 -0.5709  1.2499 -0.2375
   14CHTO  H216 5523   5.650   5.650   4.475 -1.4398 -3.0449  0.0933
   14CHTO   O73 5524   5.613   5.522   4.310  0.4282 -0.1556  0.0536
   14CHTO  C113 5525   5.534   5.427   4.380 -0.4522 -0.0115  0.0849
   14CHTO  H217 5526   5.564   5.422   4.486 -0.2882 -0.9504 -0.0058
   14CHTO  C124 5527   5.565   5.288   4.325  0.1264 -0.0803 -0.1497
   14CHTO   O83 5528   5.526   5.271   4.185  0.0264 -0.5297  0.3377
   14CHTO  H204 5529   5.447   5.222   4.174 -0.4197 -0.1711  1.7850
   14CHTO  C109 5530   5.386   5.460   4.367 -0.1785  0.5339 -0.4810
   14CHTO  H213 5531   5.369   5.472   4.259 -1.4004 -0.5893 -0.4251
   14CHTO  C110 5532   5.353   5.598   4.438  0.3271 -0.3484 -0.2349
   14CHTO  H214 5533   5.372   5.587   4.544 -0.5590 -0.2775 -0.0610
   14CHTO   O78 5534   5.212   5.629   4.421 -0.1549  0.0165 -0.2410
   14CHTO  H200 5535   5.186   5.715   4.446  0.8930  0.2078  0.2209
   14CHTO  C111 5536   5.455   5.710   4.382 -0.1158 -0.1394 -0.5515
   14CHTO  H215 5537   5.436   5.724   4.274 -2.1275 -1.4100 -0.3871
   14CHTO   N19 5538   5.443   5.843   4.441  1.0825  0.4966 -0.1410
   14CHTO  H207 5539   5.438   5.820   4.546 -0.2902 -0.8673 -0.4980
   14CHTO  H208 5540   5.372   5.902   4.385 -0.0834 -0.7088  0.0374
   14CHTO   O74 5541   5.305   5.349   4.418 -0.3367 -0.2906 -0.1133
   14CHTO  C115 5542   5.191   5.284   4.315  0.0026  0.3120 -0.1567
   14CHTO  H219 5543   5.167   5.350   4.232 -1.6901  1.3061  1.0819
   14CHTO   O76 5544   5.231   5.149   4.257 -0.6917 -0.0289  0.1384
   14CHTO  C122 5545   5.139   5.099   4.158  0.0988  0.1151 -0.5138
   14CHTO  H226 5546   5.163   4.993   4.147  0.9237  0.1673  0.7520
   14CHTO  C126 5547   5.185   5.164   4.021  0.7546 -0.1838 -0.4391
   14CHTO   O85 5548   5.308   5.114   3.973 -0.0716 -0.5332  0.4098
   14CHTO  H206 5549   5.288   5.023   3.959  0.0026 -0.4702 -0.1099
   14CHTO  C121 5550   4.985   5.110   4.189  0.3530  0.0711  0.7373
   14CHTO  H225 5551   4.932   5.116   4.091 -1.3631 -2.9365  1.4229
   14CHTO   O81 5552   4.946   4.985   4.252  0.0997  0.2568  0.0910
   14CHTO  H202 5553   4.854   4.985   4.268 -0.1445 -0.9005 -1.2364
   14CHTO  C119 5554   4.946   5.237   4.271 -0.4161 -0.4055  0.9303
   14CHTO  H223 5555   4.941   5.319   4.199  2.0850 -0.5643  0.5335
   14CHTO  C117 5556   5.047   5.269   4.386 -1.0904  0.6489  0.0260
   14CHTO  H221 5557   5.056   5.188   4.458 -0.5364  0.4096 -0.3095
   14CHTO   N20 5558   5.018   5.392   4.464  0.4663 -0.4823  0.3812
   14CHTO  H209 5559   5.031   5.382   4.571  0.4820 -2.0494  0.2426
   14CHTO  H210 5560   4.917   5.426   4.449  0.0785 -1.1964  1.3429
   14CHTO   O80 5561   4.793   5.236   4.323 -0.0435 -0.4723 -0.5530
   14CHTO  C103 5562   4.693   5.326   4.255 -0.3840 -0.3799 -0.2346
   14CHTO  H190 5563   4.716   5.432   4.265 -1.7414 -0.2336  1.7212
   14CHTO  C101 5564   4.652   5.287   4.107 -0.1711 -0.3710  0.2176
   14CHTO  H188 5565   4.647   5.179   4.092  2.8443 -0.7864  1.8062
   14CHTO   O68 5566   4.763   5.348   4.001 -0.2769  0.4263  0.0678
   14CHTO  H168 5567   4.845   5.306   4.019 -1.4171 -1.2722  1.5463
   14CHTO   C99 5568   4.516   5.360   4.066  0.2908 -0.0310 -0.1270
   14CHTO  H186 5569   4.536   5.469   4.058 -0.9109  0.0439 -2.5140
   14CHTO   N17 5570   4.450   5.316   3.938 -0.3350  0.6288  0.5658
   14CHTO  H174 5571   4.402   5.395   3.881  0.1265  1.2454  1.0290
   14CHTO  H175 5572   4.524   5.267   3.876 -1.6037 -0.1336 -0.3748
   14CHTO   C97 5573   4.404   5.353   4.179  0.6859 -0.1780  0.8475
   14CHTO  H184 5574   4.369   5.249   4.178  1.3202 -0.3908  0.2686
   14CHTO   O64 5575   4.462   5.391   4.303 -0.2103 -0.4865  0.3571
   14CHTO  C104 5576   4.571   5.308   4.345 -0.4906  0.0821 -0.2406
   14CHTO  H191 5577   4.542   5.203   4.342 -1.8619  0.1798  4.6740
   14CHTO  C108 5578   4.600   5.331   4.496  0.5315  0.6815  0.5638
   14CHTO   O71 5579   4.486   5.324   4.583  0.2789 -0.0283  0.5977
   14CHTO  H171 5580   4.420   5.384   4.556  0.6200 -0.5722 -1.4992
   14CHTO   O62 5581   4.293   5.448   4.156  0.8740  0.4683 -0.8714
   14CHTO   C91 5582   4.245   5.550   4.246  0.0498 -0.5085  0.5191
   14CHTO  H178 5583   4.232   5.496   4.340  0.1272 -0.1244  0.7570
   14CHTO   C92 5584   4.101   5.597   4.198 -0.4690 -0.0211  0.1969
   14CHTO  H179 5585   4.038   5.508   4.186  0.2477 -0.9029  2.6845
   14CHTO   O66 5586   4.041   5.668   4.306 -0.4443 -0.3565 -0.2833
   14CHTO  H166 5587   3.969   5.616   4.336  0.7321 -1.0133  1.4789
   14CHTO   C93 5588   4.105   5.688   4.074 -0.3566 -0.6410  0.3629
   14CHTO  H180 5589   4.011   5.746   4.076 -0.9393 -1.5945  0.7621
   14CHTO   N16 5590   4.092   5.624   3.942 -0.5318 -0.5429 -0.5780
   14CHTO  H172 5591   4.153   5.537   3.925  0.4366  0.0158 -0.0645
   14CHTO  H173 5592   4.126   5.689   3.862  1.5710 -0.3909  0.3967
   14CHTO   C94 5593   4.233   5.789   4.086 -0.4662  0.0557  0.1434
   14CHTO  H181 5594   4.319   5.760   4.027 -1.1161 -2.5404  0.3863
   14CHTO   O61 5595   4.271   5.809   4.223 -0.4851 -0.4052 -0.5462
   14CHTO   C95 5596   4.331   5.688   4.265 -0.1480  0.1030 -0.0897
   14CHTO  H182 5597   4.428   5.673   4.217  0.9485  4.6494  0.4389
   14CHTO  C106 5598   4.357   5.696   4.415 -0.8848 -0.7441 -0.2364
   14CHTO   O69 5599   4.472   5.777   4.443 -0.1732  0.6111 -0.2187
   14CHTO  H169 5600   4.524   5.803   4.369  1.8250 -0.7527  0.6636
   14CHTO   O63 5601   4.197   5.919   4.025  0.0333  0.0984  0.2572
   14CHTO   C96 5602   4.325   6.016   3.983 -0.3193 -0.2476  0.4762
   14CHTO  H183 5603   4.272   6.111   3.975 -0.0776 -0.1357  0.2271
   14CHTO   C98 5604   4.374   5.954   3.848  0.4066  0.4142 -0.3192
   14CHTO  H185 5605   4.416   5.854   3.869 -3.9034 -1.5081 -0.2827
   14CHTO   O67 5606   4.260   5.935   3.766 -0.3523 -0.3158 -0.2000
   14CHTO  H167 5607   4.239   5.844   3.762  1.2450 -0.9904  4.0258
   14CHTO  C102 5608   4.484   6.052   3.787 -0.0458 -0.2548  0.6094
   14CHTO  H189 5609   4.439   6.151   3.775  0.5387 -0.2627 -2.0335
   14CHTO   N18 5610   4.528   6.011   3.650  0.3097 -0.7354  0.2443
   14CHTO  H176 5611   4.461   6.023   3.566  0.3571 -0.7324  0.2065
   14CHTO  H177 5612   4.632   6.033   3.629  0.0369 -0.9821 -1.5123
   14CHTO  C105 5613   4.597   6.071   3.888 -0.1933 -0.9082 -0.6095
   14CHTO  H192 5614   4.654   5.979   3.900  0.8207 -0.3131 -0.8030
   14CHTO   O65 5615   4.559   6.107   4.025  0.3915  0.0295 -0.0262
   14CHTO  C100 5616   4.447   6.031   4.085  0.5447  0.2950 -0.0906
   14CHTO  H187 5617   4.491   5.931   4.103 -0.7658  0.1020  2.2819
   14CHTO  C107 5618   4.401   6.102   4.217 -0.6057 -0.0298  0.1733
   14CHTO   O70 5619   4.479   6.053   4.325 -0.6528 -0.1861 -0.3340
   14CHTO  H170 5620   4.460   6.097   4.406  2.0411 -1.9858  1.3809
   14CHTO   O57 5621   4.685   6.198   3.819 -0.4342  0.7257  0.1011
   14CHTO   C85 5622   4.826   6.192   3.828  0.4532 -0.0741 -0.0333
   14CHTO  H157 5623   4.841   6.087   3.862 -1.6083 -0.7340 -1.0890
   14CHTO   C83 5624   4.872   6.294   3.944 -0.3030  0.3238  0.2286
   14CHTO  H155 5625   4.814   6.262   4.031 -1.4455 -1.8065 -1.2589
   14CHTO   O56 5626   4.818   6.420   3.909  0.1555 -0.6653  0.4055
   14CHTO  H135 5627   4.730   6.405   3.879  0.3690 -0.0134 -0.5929
   14CHTO   C81 5628   5.021   6.290   3.965  0.7412 -0.7534  0.1947
   14CHTO  H153 5629   5.050   6.188   3.990  0.5308 -0.7771  0.3376
   14CHTO   N14 5630   5.060   6.373   4.080 -0.3148  0.1745  0.4753
   14CHTO  H141 5631   5.017   6.469   4.065 -2.5899 -0.7768  0.7309
   14CHTO  H142 5632   5.167   6.382   4.085  0.0002 -2.8394  0.4974
   14CHTO   C79 5633   5.098   6.329   3.826 -0.1221 -0.3413 -0.1091
   14CHTO  H151 5634   5.201   6.298   3.843 -0.7335 -2.2284  0.2656
   14CHTO   O52 5635   5.057   6.247   3.711  0.4816 -0.5730 -0.3239
   14CHTO   C86 5636   4.911   6.223   3.696 -0.3639  0.3602 -0.4413
   14CHTO  H158 5637   4.875   6.322   3.661 -0.9249 -0.0008 -0.8910
   14CHTO   C90 5638   4.871   6.125   3.586 -0.3876 -0.5092  1.2200
   14CHTO   O60 5639   4.894   6.171   3.453  0.4719  0.9871 -0.2730
   14CHTO  H138 5640   4.958   6.131   3.397 -0.2870 -0.1813 -0.3255
   14CHTO   O50 5641   5.101   6.466   3.792 -0.4176 -0.3593 -0.2826
   14CHTO   C73 5642   5.107   6.600   3.764 -0.0698  0.0373 -0.1925
   14CHTO  H145 5643   5.076   6.654   3.855  0.8937  0.7775 -0.2995
   14CHTO   C74 5644   5.025   6.636   3.631 -0.1514 -0.9419  0.8576
   14CHTO  H146 5645   4.923   6.601   3.655  0.0996 -3.0121 -1.0009
   14CHTO   O54 5646   5.030   6.780   3.610  0.1102  0.6452 -0.2903
   14CHTO  H133 5647   4.968   6.800   3.542  2.4225  1.7657 -2.1388
   14CHTO   C75 5648   5.084   6.556   3.506 -0.1891 -0.5212 -0.0712
   14CHTO  H147 5649   5.096   6.450   3.532 -0.9378 -0.6152 -0.1047
   14CHTO   N13 5650   4.997   6.568   3.377 -0.2903  0.0822 -0.3886
   14CHTO  H139 5651   5.046   6.633   3.306 -1.6185 -0.5082 -1.8729
   14CHTO  H140 5652   4.900   6.611   3.399 -0.5475  1.2287 -3.4892
   14CHTO   C76 5653   5.238   6.598   3.500  0.0406 -0.5753  0.8179
   14CHTO  H148 5654   5.238   6.706   3.482  1.8817 -1.2996 -4.3699
   14CHTO   O49 5655   5.307   6.565   3.627  1.0690 -0.5512 -0.0885
   14CHTO   C77 5656   5.256   6.640   3.736 -0.2423 -0.5224 -0.7246
   14CHTO  H149 5657   5.256   6.745   3.709 -1.0925 -0.0350  1.0689
   14CHTO   C88 5658   5.356   6.632   3.854  0.2760 -0.3491 -0.0805
   14CHTO   O58 5659   5.419   6.497   3.866  0.1384  0.1308  0.3298
   14CHTO  H136 5660   5.435   6.461   3.781  1.7791 -0.6765  0.9657
   14CHTO   O51 5661   5.304   6.515   3.391  0.8769 -0.6484  0.0092
   14CHTO   C78 5662   5.443   6.580   3.346 -0.2650  0.0123  0.1571
   14CHTO  H150 5663   5.477   6.663   3.411  0.8773 -1.5934  1.6727
   14CHTO   C80 5664   5.431   6.633   3.202 -0.2655 -0.4058 -0.0824
   14CHTO  H152 5665   5.400   6.551   3.135  2.9532 -0.5374 -1.5299
   14CHTO   O55 5666   5.329   6.730   3.191 -0.0797 -0.2938  0.2740
   14CHTO  H134 5667   5.241   6.698   3.194  0.8108 -2.7724  1.8522
   14CHTO   C84 5668   5.571   6.688   3.153 -0.3171 -0.2026 -0.2902
   14CHTO  H156 5669   5.607   6.772   3.212  0.6166  0.0560 -1.2119
   14CHTO   N15 5670   5.570   6.730   3.009  0.2303 -0.2326  0.6119
   14CHTO  H143 5671   5.486   6.792   2.985  2.0320  0.9823 -2.9943
   14CHTO  H144 5672   5.565   6.641   2.950  0.3839 -1.4690  2.4128
   14CHTO   C87 5673   5.676   6.574   3.168 -0.4879  0.6843  0.2860
   14CHTO  H159 5674   5.656   6.488   3.106  0.7848  0.5576  0.0460
   14CHTO   O53 5675   5.679   6.534   3.312 -0.0277 -0.2787  0.0597
   14CHTO   C82 5676   5.556   6.474   3.359  0.4496 -0.1130 -0.2280
   14CHTO  H154 5677   5.542   6.386   3.297  0.2072  1.6219 -2.6798
   14CHTO   C89 5678   5.575   6.423   3.501  0.2423 -0.4495 -0.1992
   14CHTO   O59 5679   5.620   6.532   3.591 -0.1954  0.0145  0.1264
   14CHTO  H137 5680   5.548   6.584   3.622 -1.9673 -1.2575 -1.6967
   14CHTO   O45 5681   5.848   6.625   3.129 -0.0801 -0.4496 -1.1002
   14CHTO   C67 5682   5.926   6.515   3.095 -0.6700  0.2469  0.9507
   14CHTO  H124 5683   5.910   6.436   3.168 -0.4713  0.2872  1.0390
   14CHTO   C65 5684   5.897   6.453   2.947 -0.1893  0.5506 -0.0601
   14CHTO  H122 5685   5.789   6.449   2.938  0.1172 -0.3546 -4.1980
   14CHTO   O44 5686   5.943   6.320   2.940 -0.6781 -0.0366  0.0488
   14CHTO  H102 5687   5.931   6.285   2.854  1.2897 -1.0935  0.1793
   14CHTO   C63 5688   5.941   6.556   2.845  0.6835  0.2124 -0.2177
   14CHTO  H120 5689   5.908   6.654   2.879  1.9429 -0.0396  1.8235
   14CHTO   N11 5690   5.883   6.539   2.703 -1.0134  0.7043  0.4765
   14CHTO  H108 5691   5.870   6.434   2.685  0.0391  0.6801 -0.1412
   14CHTO  H109 5692   5.946   6.599   2.641 -0.3378  1.0154  1.4549
   14CHTO   C61 5693   6.094   6.569   2.846 -0.0787  0.0113  0.1844
   14CHTO  H118 5694   6.131   6.641   2.772  0.6560  0.1443  0.6733
   14CHTO   O40 5695   6.138   6.618   2.985  0.1527 -0.0518 -0.4357
   14CHTO   C68 5696   6.083   6.539   3.096  0.6634 -0.3111 -0.5411
   14CHTO  H125 5697   6.092   6.610   3.181 -1.2815 -0.4718 -0.1748
   14CHTO   C72 5698   6.180   6.418   3.126  0.7300 -0.2939 -0.0196
   14CHTO   O48 5699   6.167   6.377   3.265 -0.3016 -0.4415  0.0513
   14CHTO  H105 5700   6.106   6.306   3.263 -1.6624  0.6476  1.5356
   14CHTO   O38 5701   6.172   6.441   2.822 -0.1154  0.1741  0.7337
   14CHTO   C55 5702   6.277   6.435   2.725 -0.2795 -0.4026 -0.6491
   14CHTO  H112 5703   6.278   6.535   2.679  1.1685 -0.2808 -0.3890
   14CHTO   C56 5704   6.254   6.320   2.616  0.0737 -0.1460 -1.5053
   14CHTO  H113 5705   6.235   6.226   2.669 -1.0627  0.8829 -0.0519
   14CHTO   O42 5706   6.123   6.342   2.545  0.9054 -0.3982 -0.1976
   14CHTO  H100 5707   6.066   6.365   2.616 -0.3179 -0.7075 -1.0565
   14CHTO   C57 5708   6.381   6.321   2.524 -0.7426  0.0271 -0.0638
   14CHTO  H114 5709   6.381   6.410   2.460 -0.9407 -0.0385 -0.1551
   14CHTO   N10 5710   6.382   6.212   2.425 -0.3453 -0.1649 -0.2135
   14CHTO  H106 5711   6.335   6.239   2.332  1.0362 -0.7479 -1.0784
   14CHTO  H107 5712   6.339   6.117   2.454 -0.6866  0.0209 -0.1115
   14CHTO   C58 5713   6.520   6.321   2.598 -0.3345 -0.2986  0.5070
   14CHTO  H115 5714   6.537   6.224   2.649 -0.9667  0.4981  2.2564
   14CHTO   O37 5715   6.527   6.425   2.698 -0.1181 -0.0966  1.0951
   14CHTO   C59 5716   6.419   6.430   2.789  0.1605 -0.6817  0.2951
   14CHTO  H116 5717   6.427   6.347   2.859 -0.0464  1.0864  2.4680
   14CHTO   C70 5718   6.444   6.544   2.890 -0.1091  0.0982  0.4361
   14CHTO   O46 5719   6.474   6.667   2.823 -0.0374  0.6890 -0.2634
   14CHTO  H103 5720   6.394   6.697   2.784 -0.0755 -0.6301 -1.2561
   14CHTO   O39 5721   6.644   6.358   2.485  0.3105 -0.0940 -0.1007
   14CHTO   C60 5722   6.781   6.317   2.499  0.3193  0.9497 -0.0399
   14CHTO  H117 5723   6.832   6.369   2.418 -0.0539  0.6007 -0.5011
   14CHTO   C62 5724   6.856   6.356   2.625  0.2227  0.2146 -0.0143
   14CHTO  H119 5725   6.843   6.466   2.627  1.8047  0.3992  1.1927
   14CHTO   O43 5726   6.786   6.299   2.735 -0.0028 -0.1790  0.2748
   14CHTO  H101 5727   6.792   6.361   2.806  2.4138  1.5973 -1.3731
   14CHTO   C66 5728   7.011   6.323   2.615  0.3783  0.4241  0.5989
   14CHTO  H123 5729   7.048   6.374   2.526 -0.5100  1.2718  0.7115
   14CHTO   N12 5730   7.090   6.379   2.726 -0.4250  0.5670 -0.1811
   14CHTO  H110 5731   7.074   6.314   2.812  0.1404  1.2270  0.4317
   14CHTO  H111 5732   7.061   6.482   2.743 -0.1964  0.1205  3.2260
   14CHTO   C69 5733   7.028   6.166   2.598 -0.0420 -0.9186 -0.0047
   14CHTO  H126 5734   6.987   6.123   2.692  0.0128 -1.0698 -0.0501
   14CHTO   O41 5735   6.934   6.117   2.479  0.0921 -0.0570 -0.4858
   14CHTO   C64 5736   6.794   6.157   2.474  0.0719 -0.8352  0.4799
   14CHTO  H121 5737   6.740   6.096   2.549 -0.8965 -1.5956 -0.8119
   14CHTO   C71 5738   6.750   6.109   2.331 -0.4301 -0.5854  0.0278
   14CHTO   O47 5739   6.737   5.965   2.325  0.0501  0.0332 -0.4144
   14CHTO  H104 5740   6.669   5.940   2.384  0.2995 -0.0515 -0.1643
   14CHTO   O34 5741   7.184   6.118   2.577 -0.2694  0.5664  0.1312
   14CHTO   C49 5742   7.224   5.959   2.535 -0.0356 -0.1659 -0.0629
   14CHTO   H91 5743   7.216   5.893   2.622  0.6250 -2.8646 -1.9696
   14CHTO   C47 5744   7.362   5.966   2.474  0.6862 -0.1309 -0.0003
   14CHTO   H89 5745   7.392   5.860   2.464  1.1274 -0.2536  2.4524
   14CHTO   O33 5746   7.450   6.023   2.567  0.5451  0.3321  0.0746
   14CHTO   H70 5747   7.538   6.026   2.536 -0.0947  1.7454 -1.7188
   14CHTO   C45 5748   7.370   6.048   2.329 -0.1072  0.4009 -1.1551
   14CHTO   H87 5749   7.410   6.150   2.343  1.6580 -0.2507 -1.3637
   14CHTO    N8 5750   7.468   5.968   2.242 -0.0837 -0.5358 -0.0420
   14CHTO   H75 5751   7.551   6.036   2.227 -0.5921 -0.8927 -5.3408
   14CHTO   H76 5752   7.423   5.939   2.148 -0.1307  0.4196 -0.3219
   14CHTO   C43 5753   7.218   6.064   2.273 -0.4975  0.9821 -0.1548
   14CHTO   H85 5754   7.189   6.152   2.330 -1.2182  1.4008 -1.1481
   14CHTO   O29 5755   7.129   5.953   2.299  0.0794  0.2254 -0.9852
   14CHTO   C50 5756   7.121   5.897   2.431 -0.1971  1.1596 -0.4361
   14CHTO   H92 5757   7.021   5.904   2.477  0.2799 -1.4089  1.1078
   14CHTO   C54 5758   7.145   5.742   2.417  0.8008 -0.0253  0.5538
   14CHTO   O36 5759   7.081   5.672   2.309 -0.9699  0.3145  0.1822
   14CHTO   H72 5760   7.105   5.582   2.313 -0.9683  0.2645 -0.7589
   14CHTO   O27 5761   7.209   6.099   2.133 -0.2733  0.0013  0.1165
   14CHTO   C37 5762   7.112   6.179   2.054  0.6789  0.5105  0.4672
   14CHTO   H79 5763   7.153   6.201   1.954 -0.4974  0.3860 -0.0543
   14CHTO   C38 5764   6.971   6.107   2.045 -0.5553 -0.0512  0.0116
   14CHTO   H80 5765   6.951   6.066   2.145  0.3917 -1.4099 -0.3460
   14CHTO   O31 5766   7.006   6.000   1.957 -0.1364 -0.0508 -0.0307
   14CHTO   H68 5767   7.072   5.942   1.990  1.1775  1.2070 -0.3951
   14CHTO   C39 5768   6.870   6.208   1.975  0.1666  0.7447 -0.0275
   14CHTO   H81 5769   6.914   6.227   1.877  2.8246 -0.0870  0.9711
   14CHTO    N7 5770   6.740   6.137   1.945  0.2032 -0.2334 -0.9986
   14CHTO   H73 5771   6.674   6.162   2.027  0.7164  1.6956 -1.1535
   14CHTO   H74 5772   6.686   6.172   1.859  0.0911 -0.5159 -1.0447
   14CHTO   C40 5773   6.852   6.339   2.055  0.1522  0.3888 -0.4701
   14CHTO   H82 5774   6.805   6.316   2.151 -0.4731  1.2969 -0.5563
   14CHTO   O26 5775   6.979   6.398   2.071  0.3781  0.3976 -0.2683
   14CHTO   C41 5776   7.089   6.312   2.127  0.5431  0.2211 -0.0058
   14CHTO   H83 5777   7.062   6.282   2.230  1.0405 -0.3422 -0.0380
   14CHTO   C52 5778   7.211   6.413   2.142  0.4728 -0.2365 -0.7739
   14CHTO   O35 5779   7.183   6.518   2.228 -0.7223 -0.1205 -0.5007
   14CHTO   H71 5780   7.234   6.590   2.197  1.3251 -1.7506 -1.0316
   14CHTO   O28 5781   6.775   6.443   1.992 -0.3001 -0.0463  0.4540
   14CHTO   C42 5782   6.713   6.556   2.064  0.3307 -0.0742 -0.2164
   14CHTO   H84 5783   6.652   6.614   1.994  0.1967 -3.2339 -2.8531
   14CHTO   C44 5784   6.816   6.660   2.140 -0.7633 -0.4074  0.5077
   14CHTO   H86 5785   6.849   6.606   2.229 -0.5171  0.4582  0.9414
   14CHTO   O32 5786   6.940   6.669   2.070 -0.2358 -0.0362 -0.0048
   14CHTO   H69 5787   6.956   6.760   2.055  0.5389  0.0432  1.2734
   14CHTO   C48 5788   6.732   6.789   2.188 -0.1867  0.4464  0.1643
   14CHTO   H90 5789   6.692   6.826   2.094  1.3883 -1.0427 -1.1109
   14CHTO    N9 5790   6.827   6.899   2.231  0.3027 -0.4857 -0.0398
   14CHTO   H77 5791   6.830   6.907   2.338 -1.1263 -0.5714  0.0141
   14CHTO   H78 5792   6.923   6.910   2.183  0.6552 -2.1212  0.2380
   14CHTO   C51 5793   6.627   6.740   2.295  0.5660 -0.0199 -0.1889
   14CHTO   H93 5794   6.689   6.695   2.372  2.8934  1.2106 -1.2879
   14CHTO   O30 5795   6.540   6.645   2.236  0.2249  0.0113 -0.0841
   14CHTO   C46 5796   6.618   6.518   2.179 -0.3310  0.2995 -0.4765
   14CHTO   H88 5797   6.670   6.474   2.264  0.2560  1.0119 -0.4610
   14CHTO   C53 5798   6.506   6.424   2.132  0.0409  0.2720 -0.2889
   14CHTO   O72 5799   6.427   6.461   2.021 -0.1316 -0.2009  0.0644
   14CHTO  H199 5800   6.370   6.390   1.999  0.0593 -0.4335  0.3085
   14CHTO   O22 5801   6.549   6.853   2.338  0.5460 -0.7148 -0.0844
   14CHTO   C31 5802   6.504   6.860   2.479 -0.6388 -0.1508 -0.1791
   14CHTO   H59 5803   6.553   6.772   2.525  1.7260  0.1041 -2.0969
   14CHTO   C29 5804   6.558   6.984   2.548 -0.1732  0.2692  0.4645
   14CHTO   H57 5805   6.522   7.068   2.487 -1.0245 -0.2287  0.2749
   14CHTO   O21 5806   6.701   6.969   2.532  0.0804 -0.0100 -0.2456
   14CHTO   H37 5807   6.737   6.888   2.562 -0.2741 -0.0228  0.1497
   14CHTO   C27 5808   6.519   7.000   2.699 -0.1379 -0.6629 -0.6370
   14CHTO   H55 5809   6.565   6.928   2.768 -0.8676 -1.4063 -0.9172
   14CHTO    N5 5810   6.564   7.133   2.753  0.5132  0.0215  0.4209
   14CHTO   H43 5811   6.613   7.189   2.675 -1.1038  1.5083  0.4567
   14CHTO   H44 5812   6.640   7.133   2.830 -0.6201 -0.5233  1.5616
   14CHTO   C25 5813   6.370   6.973   2.725  0.2196 -0.0520 -0.7070
   14CHTO   H53 5814   6.314   7.060   2.688  1.9155  0.8185 -1.3285
   14CHTO   O17 5815   6.320   6.854   2.655 -0.3621  0.3176  0.2990
   14CHTO   C32 5816   6.349   6.852   2.511  0.2161  0.3355 -0.1042
   14CHTO   H60 5817   6.296   6.933   2.460 -2.1863  0.4860  2.5063
   14CHTO   C36 5818   6.278   6.722   2.464 -0.2442  0.5052  0.3647
   14CHTO   O25 5819   6.281   6.718   2.319 -0.3610  0.1991  0.3082
   14CHTO   H40 5820   6.227   6.786   2.284  1.2644  0.3789 -2.0311
   14CHTO   O15 5821   6.333   6.968   2.862  0.3348  0.0931  0.7218
   14CHTO   C19 5822   6.290   6.916   2.986  0.7049  0.1741 -0.8414
   14CHTO   H47 5823   6.252   6.816   2.963 -0.6071  0.0262  1.7385
   14CHTO   C20 5824   6.398   6.906   3.101  0.3969  0.1137  0.2960
   14CHTO   H48 5825   6.455   7.000   3.113  1.9091 -0.8077  0.4597
   14CHTO   O19 5826   6.503   6.819   3.061 -0.4109 -0.3416  0.5236
   14CHTO   H35 5827   6.476   6.740   3.017 -1.2108  0.3937 -0.3148
   14CHTO   C21 5828   6.343   6.870   3.245  0.1379 -0.1790  0.4876
   14CHTO   H49 5829   6.330   6.762   3.248 -0.3334 -0.0920  1.8925
   14CHTO    N4 5830   6.443   6.896   3.352 -0.0551 -0.4672 -0.2883
   14CHTO   H41 5831   6.528   6.832   3.337  1.2592  1.4928 -1.4878
   14CHTO   H42 5832   6.474   7.000   3.344 -4.2343  0.8747 -0.5078
   14CHTO   C22 5833   6.200   6.933   3.275 -0.9673  0.1551  0.4144
   14CHTO   H50 5834   6.224   7.038   3.294 -0.1829  0.4044 -1.8382
   14CHTO   O14 5835   6.118   6.921   3.162  0.0716  0.3998  0.3948
   14CHTO   C23 5836   6.163   6.996   3.048 -0.4825  0.0430 -0.1403
   14CHTO   H51 5837   6.194   7.093   3.090 -0.0156 -0.7143  1.2781
   14CHTO   C34 5838   6.048   7.008   2.944 -0.1868 -0.1949 -0.2394
   14CHTO   O23 5839   6.076   7.117   2.855 -0.4836  0.5879  0.4309
   14CHTO   H38 5840   6.167   7.124   2.833 -0.1573  0.6827  1.7599
   14CHTO   O16 5841   6.131   6.881   3.390 -0.2569 -0.2670  0.1310
   14CHTO   C24 5842   6.037   6.993   3.470 -0.4080  0.9101 -0.2564
   14CHTO   H52 5843   6.002   7.074   3.405  0.2154  2.0520  0.8111
   14CHTO   C26 5844   6.115   7.055   3.588  0.2010  0.5881 -0.9245
   14CHTO   H54 5845   6.152   6.973   3.653 -2.2070  0.8978  0.9206
   14CHTO   O20 5846   6.235   7.121   3.526  0.0823  0.1308  0.4585
   14CHTO   H36 5847   6.282   7.157   3.598 -0.7800  0.1777  1.0107
   14CHTO   C30 5848   6.022   7.148   3.671 -0.4381 -0.2118  0.6506
   14CHTO   H58 5849   5.972   7.217   3.601  0.0264 -0.1895  0.3375
   14CHTO    N6 5850   6.102   7.239   3.763  0.4847  0.6448  0.3897
   14CHTO   H45 5851   6.203   7.203   3.777  0.0538 -0.6139  0.3874
   14CHTO   H46 5852   6.106   7.335   3.714  0.7789  0.7939  0.6994
   14CHTO   C33 5853   5.909   7.058   3.727 -0.5230  0.3094 -0.5182
   14CHTO   H61 5854   5.946   6.970   3.782 -0.5410  0.7536  0.2089
   14CHTO   O18 5855   5.833   7.009   3.612  0.5017 -0.0153 -0.4457
   14CHTO   C28 5856   5.909   6.919   3.525  0.2166 -0.1562 -0.6131
   14CHTO   H56 5857   5.934   6.826   3.575  0.0249 -0.0095 -0.2379
   14CHTO   C35 5858   5.823   6.871   3.409 -0.0926  0.3269 -0.4112
   14CHTO   O24 5859   5.878   6.743   3.361 -0.3101  0.0218 -0.2130
   14CHTO   H39 5860   5.834   6.683   3.418  0.4600 -0.1895  0.1725
   14CHTO    O9 5861   5.826   7.131   3.821  0.2887 -0.1266  0.2867
   14CHTO   C13 5862   5.731   7.022   3.915 -0.5928  0.0071  0.0101
   14CHTO   H26 5863   5.719   6.930   3.854  1.5732 -1.1754  1.3202
   14CHTO   C11 5864   5.580   7.092   3.951  0.3694 -0.1421  0.1542
   14CHTO   H24 5865   5.521   7.103   3.859  0.5968  0.5500  0.0929
   14CHTO    O8 5866   5.603   7.222   4.010  0.7066 -0.0838  0.0749
   14CHTO    H3 5867   5.522   7.254   4.045  0.3449 -0.9764  0.0750
   14CHTO    C9 5868   5.504   6.989   4.036  0.1905 -0.3368 -0.1697
   14CHTO   H22 5869   5.481   6.902   3.974  0.5108  0.4048 -1.3511
   14CHTO    N2 5870   5.365   7.038   4.069  0.2136  0.0600 -0.4009
   14CHTO   H10 5871   5.316   7.093   3.990 -2.0369  0.9983  1.6055
   14CHTO   H11 5872   5.310   6.949   4.094  1.6718 -0.1781  2.1732
   14CHTO    C7 5873   5.574   6.940   4.164 -0.0306  0.1977  0.2543
   14CHTO   H20 5874   5.521   6.848   4.194 -0.2070 -0.0475 -0.8009
   14CHTO    O4 5875   5.712   6.900   4.126 -0.1901  0.2357 -0.0209
   14CHTO   C14 5876   5.802   6.982   4.045  0.6898  0.0706  0.3673
   14CHTO   H27 5877   5.892   6.924   4.015  0.7356  1.5538 -2.4714
   14CHTO   C18 5878   5.856   7.101   4.133  0.6018 -0.3424  0.1244
   14CHTO   O13 5879   5.961   7.185   4.084 -0.1220  0.7999 -0.0835
   14CHTO    H7 5880   5.932   7.244   4.016 -3.1973  0.4020  0.8239
   14CHTO    O2 5881   5.591   7.061   4.296 -0.3518  0.4481 -0.0354
   14CHTO    C1 5882   5.539   7.027   4.419 -0.5423 -0.2974  0.3510
   14CHTO   H14 5883   5.475   6.937   4.403  0.7864 -0.8413 -2.2926
   14CHTO    C2 5884   5.444   7.138   4.474 -0.5666  0.7687 -0.0391
   14CHTO   H15 5885   5.503   7.230   4.462 -1.6654  1.0755 -3.7907
   14CHTO    O6 5886   5.328   7.151   4.391  0.0941 -0.4937  0.1339
   14CHTO    H1 5887   5.292   7.069   4.362 -0.5911 -0.3891  0.6780
   14CHTO    C3 5888   5.402   7.107   4.625 -0.6565  0.6857  0.3029
   14CHTO   H16 5889   5.328   7.025   4.623  2.0893 -1.8952  0.2162
   14CHTO    N1 5890   5.342   7.229   4.680 -0.6648 -0.2426 -0.3120
   14CHTO    H8 5891   5.418   7.305   4.683  1.8339 -2.6348 -0.1988
   14CHTO    H9 5892   5.275   7.212   4.763 -1.4207 -1.2240 -1.1142
   14CHTO    C4 5893   5.523   7.062   4.717 -0.1249  0.1756 -0.0309
   14CHTO   H17 5894   5.580   7.146   4.757  0.4398 -0.1127 -0.2204
   14CHTO    O1 5895   5.612   6.971   4.648  0.0464 -0.2154  0.2221
   14CHTO    C5 5896   5.658   6.995   4.515  0.3711 -0.9721 -0.4240
   14CHTO   H18 5897   5.733   7.074   4.518  1.6845 -2.1527 -1.6984
   14CHTO   C16 5898   5.729   6.866   4.470 -0.4012 -0.6595  0.1377
   14CHTO   O11 5899   5.823   6.820   4.569  0.5620 -0.0866 -0.0241
   14CHTO    H5 5900   5.857   6.743   4.526  1.0095  0.4801 -0.6958
   14CHTO    O3 5901   5.483   6.982   4.834 -0.0016 -0.1825 -0.2906
   14CHTO    C6 5902   5.458   7.037   4.964 -0.3524  0.4726 -0.8202
   14CHTO   H19 5903   5.444   7.145   4.961  2.2101  0.8229 -0.9369
   14CHTO    C8 5904   5.328   6.976   5.041  0.1586  0.0966 -0.1325
   14CHTO   H21 5905   5.339   6.869   5.056 -1.5136 -0.4843 -2.8499
   14CHTO    O7 5906   5.212   6.998   4.955 -0.0299 -0.2197 -0.0527
   14CHTO    H2 5907   5.159   6.922   4.942  2.5005 -2.1498  0.2783
   14CHTO   C12 5908   5.312   7.048   5.184 -0.0333  0.0517  0.4423
   14CHTO   H25 5909   5.272   7.149   5.161 -2.5735 -0.5637  1.9811
   14CHTO    N3 5910   5.202   6.981   5.260 -0.1451 -0.6029 -0.0624
   14CHTO   H12 5911   5.124   7.049   5.291  0.0030 -0.9676  1.1461
   14CHTO   H13 5912   5.165   6.899   5.200 -1.7727 -0.6961  1.0246
   14CHTO   C15 5913   5.452   7.057   5.263 -0.4625 -0.1849  0.0498
   14CHTO   H28 5914   5.492   6.961   5.295 -0.2024 -1.5113 -3.9686
   14CHTO   O10 5915   5.449   7.161   5.380  0.1252 -0.6111  0.0425
   14CHTO    H4 5916   5.478   7.121   5.460 -2.5718  2.2907  2.5887
   14CHTO    O5 5917   5.558   7.104   5.172  0.1380 -0.2857 -0.3979
   14CHTO   C10 5918   5.581   7.018   5.065  0.0004  0.0435  0.5659
   14CHTO   H23 5919   5.595   6.914   5.094  2.4121 -0.1692 -1.2051
   14CHTO   C17 5920   5.716   7.066   5.003 -0.0270 -0.0405  0.8501
   14CHTO   O12 5921   5.755   6.992   4.890 -0.7599 -0.6800  0.4807
   14CHTO    H6 5922   5.841   6.959   4.906 -1.5055 -2.9734 -0.0347
   15CHTO  H203 5923   5.832   5.879   3.402  1.0045 -2.4959 -2.8405
   15CHTO   O82 5924   5.843   5.816   3.470 -0.1083  0.3103  0.1092
   15CHTO  C123 5925   5.838   5.678   3.423  0.3486  0.3068 -0.1579
   15CHTO  H227 5926   5.856   5.615   3.511 -0.3192  1.0781  0.5394
   15CHTO   O77 5927   5.698   5.668   3.373 -0.2524 -0.2489  0.5296
   15CHTO  C118 5928   5.670   5.534   3.319 -0.0588  0.5244 -0.4320
   15CHTO  H222 5929   5.703   5.456   3.390 -1.5796 -1.0549 -1.4309
   15CHTO  C125 5930   5.517   5.527   3.302 -0.3424 -0.6184 -0.0450
   15CHTO   O84 5931   5.450   5.498   3.429 -0.1219 -0.1915  0.2735
   15CHTO  H205 5932   5.359   5.483   3.413 -0.2634  0.5177  0.4183
   15CHTO  C114 5933   5.753   5.523   3.191 -1.0140 -0.2625  0.0411
   15CHTO  H218 5934   5.742   5.614   3.131  1.0760  0.0134  0.0396
   15CHTO  C116 5935   5.906   5.526   3.225 -1.2052  0.2214 -0.4003
   15CHTO  H220 5936   5.948   5.434   3.271 -0.4906  1.2258  1.0145
   15CHTO   O79 5937   5.986   5.533   3.102  0.1382  0.1416 -0.0269
   15CHTO  H201 5938   5.964   5.457   3.051  0.9953 -0.6243  0.7264
   15CHTO  C120 5939   5.945   5.655   3.312  0.0503  0.1459  0.2281
   15CHTO  H224 5940   5.947   5.736   3.235 -0.6587 -0.7322 -0.7273
   15CHTO   N21 5941   6.084   5.641   3.362  0.8251 -0.1755 -0.0034
   15CHTO  H211 5942   6.104   5.541   3.398 -3.3291 -0.9173  0.4545
   15CHTO  H212 5943   6.096   5.723   3.433 -1.4512  0.9928 -0.9096
   15CHTO   O75 5944   5.710   5.405   3.120  0.0820 -0.4146 -0.6635
   15CHTO  C112 5945   5.774   5.257   3.166  0.4587 -0.7168  0.4126
   15CHTO  H216 5946   5.802   5.259   3.272 -2.0008 -1.8727  1.1170
   15CHTO   O73 5947   5.887   5.232   3.080 -0.1335  0.0432 -0.1111
   15CHTO  C113 5948   5.979   5.130   3.133 -0.5432 -0.4983 -0.7470
   15CHTO  H217 5949   5.997   5.157   3.239 -0.9584 -1.3193 -0.4699
   15CHTO  C124 5950   6.113   5.120   3.059  0.3098  0.2361  0.1170
   15CHTO   O83 5951   6.103   5.118   2.915 -0.1240 -0.0907  0.4601
   15CHTO  H204 5952   6.186   5.088   2.883 -0.2725 -1.6051  1.4423
   15CHTO  C109 5953   5.899   4.993   3.140 -0.2524  0.4110 -0.9630
   15CHTO  H213 5954   5.876   4.970   3.035  0.3332  1.2146 -1.2716
   15CHTO  C110 5955   5.756   5.008   3.213 -0.3202 -0.0956 -0.1461
   15CHTO  H214 5956   5.781   5.005   3.320  0.4566 -3.7308 -0.3386
   15CHTO   O78 5957   5.682   4.886   3.192 -0.2346 -0.6203 -0.0437
   15CHTO  H200 5958   5.714   4.813   3.240  3.9040  0.0489 -1.5248
   15CHTO  C111 5959   5.675   5.127   3.153 -0.8729 -0.2295 -0.1810
   15CHTO  H215 5960   5.656   5.112   3.046 -0.9754 -0.2281 -0.1635
   15CHTO   N19 5961   5.545   5.147   3.218  0.5193 -0.0369 -0.7735
   15CHTO  H207 5962   5.541   5.244   3.265  1.7852 -1.0236  1.4103
   15CHTO  H208 5963   5.519   5.075   3.295  3.3366  0.9595  1.1897
   15CHTO   O74 5964   5.993   4.890   3.191  0.0580 -0.3639 -0.3785
   15CHTO  C115 5965   5.976   4.752   3.117  0.2503 -0.0059  0.3254
   15CHTO  H219 5966   5.872   4.727   3.094  0.7067 -1.3182 -0.3324
   15CHTO   O76 5967   6.034   4.758   2.965 -0.0111 -0.0732 -0.0766
   15CHTO  C122 5968   6.169   4.727   2.964  0.4586  0.0346  0.2401
   15CHTO  H226 5969   6.219   4.797   3.032 -0.4717  2.7623 -1.7965
   15CHTO  C126 5970   6.238   4.760   2.821  0.1614 -0.5992  0.1146
   15CHTO   O85 5971   6.255   4.900   2.797  0.2266  0.2379 -0.5505
   15CHTO  H206 5972   6.239   4.946   2.877  1.0178  0.7040 -0.6569
   15CHTO  C121 5973   6.193   4.569   2.994 -0.3417  0.3084 -0.4040
   15CHTO  H225 5974   6.187   4.515   2.898  1.3424 -0.4953 -0.0707
   15CHTO   O81 5975   6.323   4.548   3.049  0.9820 -0.2373 -0.1789
   15CHTO  H202 5976   6.347   4.624   3.099 -1.0678  1.8149 -2.1859
   15CHTO  C119 5977   6.077   4.515   3.084 -0.4274 -0.7523  0.4288
   15CHTO  H223 5978   5.998   4.495   3.011  0.5053 -1.3551 -0.4394
   15CHTO  C117 5979   6.035   4.628   3.202  0.5329 -0.7445  0.1583
   15CHTO  H221 5980   6.102   4.686   3.265  1.5950 -1.4630 -0.2974
   15CHTO   N20 5981   5.926   4.588   3.293 -0.2794  0.4526 -0.8469
   15CHTO  H209 5982   5.959   4.505   3.355 -2.0822 -1.6236 -2.5633
   15CHTO  H210 5983   5.909   4.676   3.353  0.5452 -0.0135  0.0942
   15CHTO   O80 5984   6.106   4.367   3.149 -0.0379 -0.1261 -0.7960
   15CHTO  C103 5985   6.016   4.244   3.109  0.0516 -0.1321 -0.1782
   15CHTO  H190 5986   6.035   4.160   3.176  0.4728  0.1797  0.0927
   15CHTO  C101 5987   5.857   4.265   3.108  0.1079  0.4617 -0.3345
   15CHTO  H188 5988   5.831   4.360   3.061 -1.0558  1.2977  1.9374
   15CHTO   O68 5989   5.805   4.252   3.255 -0.2100 -0.1504  0.0280
   15CHTO  H168 5990   5.853   4.303   3.318 -1.9738 -0.2869  1.5165
   15CHTO   C99 5991   5.787   4.151   3.025  0.2859  0.1315 -0.0294
   15CHTO  H186 5992   5.796   4.056   3.082 -0.1963  0.3228  0.3634
   15CHTO   N17 5993   5.645   4.176   3.001 -0.0884 -0.1291 -0.2242
   15CHTO  H174 5994   5.611   4.228   2.913  0.4860  0.2979 -0.1903
   15CHTO  H175 5995   5.593   4.082   3.014 -2.0901  0.7992 -1.2239
   15CHTO   C97 5996   5.858   4.124   2.887 -0.8499  0.4491 -0.1909
   15CHTO  H184 5997   5.850   4.214   2.824 -0.9440  0.1279 -0.6454
   15CHTO   O64 5998   5.997   4.092   2.912  0.2660 -0.3369  0.2248
   15CHTO  C104 5999   6.074   4.203   2.972 -0.1275 -0.6157  0.0391
   15CHTO  H191 6000   6.065   4.287   2.903 -1.4967 -1.3819 -0.7319
   15CHTO  C108 6001   6.224   4.166   2.980  0.6547 -0.7016  0.2861
   15CHTO   O71 6002   6.259   4.040   3.039 -0.1990  0.2149 -0.4228
   15CHTO  H171 6003   6.224   3.976   2.980 -0.0231  0.8834 -1.2757
   15CHTO   O62 6004   5.809   4.006   2.814  0.0055 -0.0662  0.4691
   15CHTO   C91 6005   5.738   4.030   2.691 -0.0330 -0.1408 -0.2293
   15CHTO  H178 6006   5.718   4.138   2.689  2.9047  0.4817  1.9298
   15CHTO   C92 6007   5.602   3.962   2.694  0.5333 -0.2548  0.2056
   15CHTO  H179 6008   5.559   3.976   2.794  0.5621  1.0681  0.0378
   15CHTO   O66 6009   5.526   4.032   2.598  0.2189 -0.4353 -0.2359
   15CHTO  H166 6010   5.546   4.016   2.508 -0.1813 -0.6464 -0.2923
   15CHTO   C93 6011   5.611   3.814   2.646 -0.1791  0.0986 -0.4684
   15CHTO  H180 6012   5.508   3.782   2.627 -0.3037 -0.9767  1.7977
   15CHTO   N16 6013   5.662   3.714   2.739  0.0747  0.1434 -0.3736
   15CHTO  H172 6014   5.673   3.740   2.843  1.3343 -1.1757 -0.1593
   15CHTO  H173 6015   5.619   3.616   2.725  0.2003 -0.1110  1.0091
   15CHTO   C94 6016   5.695   3.804   2.509  0.5695  0.3237 -0.0500
   15CHTO  H181 6017   5.765   3.720   2.506  0.0182 -0.1513  0.5284
   15CHTO   O61 6018   5.757   3.932   2.467 -0.6953 -0.3161 -0.0933
   15CHTO   C95 6019   5.825   4.005   2.564 -0.1586 -0.0125  0.6285
   15CHTO  H182 6020   5.908   3.947   2.605  0.1114 -2.1437 -2.7099
   15CHTO  C106 6021   5.893   4.133   2.498  0.3315 -0.3905  0.0369
   15CHTO   O69 6022   5.973   4.189   2.599  0.4894 -0.5311  0.3023
   15CHTO  H169 6023   6.052   4.141   2.618  0.1945 -0.7056  1.1353
   15CHTO   O63 6024   5.597   3.770   2.400  0.4514 -0.2103 -0.4453
   15CHTO   C96 6025   5.647   3.758   2.249  0.0473  0.3080  0.8662
   15CHTO  H183 6026   5.754   3.776   2.241  0.0837 -0.1537  0.2309
   15CHTO   C98 6027   5.570   3.853   2.144  0.2445 -0.6555  0.7127
   15CHTO  H185 6028   5.461   3.852   2.160 -0.2288 -3.6782 -2.1981
   15CHTO   O67 6029   5.619   3.991   2.158 -0.2174  0.2311 -0.1922
   15CHTO  H167 6030   5.550   4.049   2.183  1.3469  1.9076  0.3139
   15CHTO  C102 6031   5.601   3.811   1.987 -0.7535  0.7986  0.3090
   15CHTO  H189 6032   5.701   3.851   1.964 -1.1127  1.0444 -0.8775
   15CHTO   N18 6033   5.511   3.882   1.897  0.2124 -0.0628  0.1166
   15CHTO  H176 6034   5.476   3.815   1.820  1.0066 -1.0903  0.6470
   15CHTO  H177 6035   5.561   3.960   1.841  1.3351  0.8754  2.3633
   15CHTO  C105 6036   5.613   3.660   1.966  0.1087  0.7813  0.1904
   15CHTO  H192 6037   5.513   3.618   1.973  1.2125 -1.7876  1.0653
   15CHTO   O65 6038   5.687   3.597   2.070  0.2848 -0.4121  0.0621
   15CHTO  C100 6039   5.630   3.619   2.200 -0.0292  0.7033  0.4821
   15CHTO  H187 6040   5.524   3.591   2.195 -0.2312  1.0548  2.4167
   15CHTO  C107 6041   5.697   3.504   2.284  0.5193 -0.0521 -0.6190
   15CHTO   O70 6042   5.837   3.514   2.291 -0.3403  0.1378  0.0556
   15CHTO  H170 6043   5.883   3.464   2.355 -0.0620 -1.6587 -1.4821
   15CHTO   O57 6044   5.674   3.637   1.818 -0.8092  0.1814 -0.5892
   15CHTO   C85 6045   5.622   3.524   1.751  0.9506 -0.1482 -0.3227
   15CHTO  H157 6046   5.541   3.488   1.817  1.7028 -0.5849  0.3716
   15CHTO   C83 6047   5.732   3.412   1.728 -0.1527 -0.2222 -0.0045
   15CHTO  H155 6048   5.767   3.379   1.826  0.3089 -1.2162 -0.4939
   15CHTO   O56 6049   5.842   3.465   1.647 -0.0071 -0.0685 -0.2347
   15CHTO  H135 6050   5.923   3.419   1.651 -0.5116 -0.8977  0.6549
   15CHTO   C81 6051   5.657   3.293   1.659 -0.4507 -0.1639 -0.4522
   15CHTO  H153 6052   5.572   3.267   1.721  1.3032 -0.8655  1.7537
   15CHTO   N14 6053   5.727   3.167   1.661  0.0548 -0.2008  0.3363
   15CHTO  H141 6054   5.751   3.141   1.762  0.5350 -2.4210 -0.3340
   15CHTO  H142 6055   5.816   3.166   1.601  1.0443  2.0428  1.6781
   15CHTO   C79 6056   5.600   3.346   1.516 -0.7520 -0.1366  0.2822
   15CHTO  H151 6057   5.533   3.269   1.477 -0.6125 -0.3325  0.4332
   15CHTO   O52 6058   5.509   3.462   1.520  0.0849 -0.7731  0.3897
   15CHTO   C86 6059   5.567   3.560   1.605  0.3019  0.6961 -0.0320
   15CHTO  H158 6060   5.654   3.585   1.541 -1.6071  1.7998 -2.2855
   15CHTO   C90 6061   5.481   3.686   1.603 -0.1550  0.3381  0.0290
   15CHTO   O60 6062   5.500   3.745   1.468 -0.3745 -0.3145 -0.4929
   15CHTO  H138 6063   5.581   3.792   1.466 -1.1293  1.1242  0.8049
   15CHTO   O50 6064   5.693   3.376   1.416 -0.3790 -0.2755  0.5096
   15CHTO   C73 6065   5.718   3.409   1.273 -0.1267 -0.2996 -0.6145
   15CHTO  H145 6066   5.645   3.488   1.252 -1.2372 -0.6256  1.8097
   15CHTO   C74 6067   5.694   3.292   1.172 -0.5294  0.4786 -0.0281
   15CHTO  H146 6068   5.588   3.265   1.177 -0.2480 -0.7421 -0.3531
   15CHTO   O54 6069   5.708   3.347   1.040  0.9775 -0.2539 -0.1944
   15CHTO  H133 6070   5.682   3.437   1.031  1.6068 -0.1792 -1.4436
   15CHTO   C75 6071   5.787   3.167   1.214 -0.8138  0.0474  0.9021
   15CHTO  H147 6072   5.758   3.129   1.313 -0.2643  0.2471  1.1437
   15CHTO   N13 6073   5.771   3.052   1.125  0.1745  0.6295  0.0776
   15CHTO  H139 6074   5.691   2.987   1.156 -0.3405  0.9939 -0.4962
   15CHTO  H140 6075   5.751   3.087   1.025 -3.9752  1.5281  1.1463
   15CHTO   C76 6076   5.938   3.218   1.230  0.0309 -0.5123  0.8072
   15CHTO  H148 6077   5.984   3.235   1.132  0.6058  1.3141  1.3780
   15CHTO   O49 6078   5.951   3.348   1.298  0.6801  0.3652 -0.2894
   15CHTO   C77 6079   5.866   3.453   1.254 -0.5040  0.6327  0.6768
   15CHTO  H149 6080   5.886   3.483   1.151  0.3623  0.1041  0.6790
   15CHTO   C88 6081   5.899   3.583   1.333  0.8776 -0.0398 -0.3240
   15CHTO   O58 6082   5.777   3.689   1.313 -0.3685 -0.3019 -0.1286
   15CHTO  H136 6083   5.760   3.706   1.222 -0.4953 -0.1845 -0.0828
   15CHTO   O51 6084   6.014   3.120   1.306 -0.1215 -0.4651 -0.4268
   15CHTO   C78 6085   6.170   3.137   1.297  0.0255 -0.2455  0.0814
   15CHTO  H150 6086   6.192   3.238   1.257 -0.1605 -0.3423 -0.2653
   15CHTO   C80 6087   6.226   3.039   1.193 -0.2309 -0.0389 -0.6196
   15CHTO  H152 6088   6.205   2.935   1.226  3.1911 -0.9492 -1.1113
   15CHTO   O55 6089   6.149   3.068   1.070 -0.4848 -0.5394 -0.1673
   15CHTO  H134 6090   6.164   3.011   0.997  2.0031  0.3000 -0.3254
   15CHTO   C84 6091   6.383   3.060   1.172  0.2905  0.0895  0.2066
   15CHTO  H156 6092   6.410   3.154   1.124  0.8220  1.1031  2.4036
   15CHTO   N15 6093   6.437   2.954   1.086 -0.0320  0.3485  0.1052
   15CHTO  H143 6094   6.536   2.988   1.063  1.1154 -3.2607 -0.6667
   15CHTO  H144 6095   6.380   2.965   0.996 -0.1437  1.0179  0.2535
   15CHTO   C87 6096   6.454   3.055   1.308 -1.3913  0.6371  0.3846
   15CHTO  H159 6097   6.436   2.953   1.343 -2.0420  0.7364  0.3381
   15CHTO   O53 6098   6.376   3.161   1.412 -0.3391 -0.3928 -0.0742
   15CHTO   C82 6099   6.241   3.129   1.433  0.9662 -0.0027 -0.0016
   15CHTO  H154 6100   6.229   3.025   1.464 -0.1701  0.5447  1.4454
   15CHTO   C89 6101   6.175   3.210   1.541  0.3266  0.4016  0.3130
   15CHTO   O59 6102   6.224   3.191   1.671 -0.0209 -0.4757  0.4515
   15CHTO  H137 6103   6.185   3.259   1.722 -0.4850 -0.2818 -0.1578
   15CHTO   O45 6104   6.612   3.090   1.289 -0.0586  0.2314  0.6479
   15CHTO   C67 6105   6.667   3.135   1.416  1.0741  0.2378 -0.5295
   15CHTO  H124 6106   6.595   3.202   1.463  0.0063 -0.5900 -0.9669
   15CHTO   C65 6107   6.690   2.999   1.500  0.5335  0.0311 -0.2706
   15CHTO  H122 6108   6.682   2.925   1.421 -0.6324  0.0641 -0.1833
   15CHTO   O44 6109   6.581   2.962   1.583  0.4889  0.0375  0.0470
   15CHTO  H102 6110   6.578   2.871   1.606 -3.7436 -0.4408 -1.8926
   15CHTO   C63 6111   6.831   2.990   1.555  0.0269  0.1995  0.2381
   15CHTO  H120 6112   6.896   2.977   1.468 -0.7593  1.1700 -0.4933
   15CHTO   N11 6113   6.873   2.872   1.646  0.2450  0.0797  0.5011
   15CHTO  H108 6114   6.896   2.791   1.580 -0.4777  1.3759 -1.3862
   15CHTO  H109 6115   6.787   2.851   1.707 -0.2551  1.9775  0.4728
   15CHTO   C61 6116   6.866   3.129   1.616  0.2945 -0.8564 -0.3110
   15CHTO  H118 6117   6.971   3.125   1.649  0.6190  1.8621 -0.8302
   15CHTO   O40 6118   6.860   3.239   1.520  0.3625 -0.4121  0.4103
   15CHTO   C68 6119   6.798   3.206   1.394  0.7750  0.5955  0.2328
   15CHTO  H125 6120   6.865   3.144   1.330 -0.5931 -2.2980  1.5071
   15CHTO   C72 6121   6.768   3.335   1.316 -0.3912 -0.0515 -0.0606
   15CHTO   O48 6122   6.886   3.401   1.268 -0.1058  0.1528 -0.3804
   15CHTO  H105 6123   6.954   3.339   1.253  0.4638  0.4331  0.9777
   15CHTO   O38 6124   6.787   3.146   1.735  0.0433  0.1999 -0.0480
   15CHTO   C55 6125   6.812   3.266   1.811  0.3213  0.5879 -0.4933
   15CHTO  H112 6126   6.865   3.343   1.752 -0.9666  0.5623 -1.7276
   15CHTO   C56 6127   6.890   3.236   1.951 -0.3174  0.0808  0.3688
   15CHTO  H113 6128   6.839   3.154   2.004 -1.3859 -0.9596 -2.2104
   15CHTO   O42 6129   7.019   3.170   1.923  0.2030  0.1783  0.4513
   15CHTO  H100 6130   7.091   3.227   1.904 -0.3866  0.7536 -0.0730
   15CHTO   C57 6131   6.896   3.368   2.036 -0.2619  0.2909 -0.1083
   15CHTO  H114 6132   6.960   3.438   1.982  3.3321 -0.9222  2.3736
   15CHTO   N10 6133   6.964   3.363   2.169 -0.4140 -0.0268  0.2630
   15CHTO  H106 6134   6.998   3.458   2.208 -0.9961  0.7738 -1.1508
   15CHTO  H107 6135   6.910   3.312   2.247 -1.8959 -0.9727 -1.3468
   15CHTO   C58 6136   6.756   3.422   2.060 -0.4148  0.5979  0.2086
   15CHTO  H115 6137   6.706   3.356   2.135 -0.2400  3.9580  3.4065
   15CHTO   O37 6138   6.683   3.441   1.938 -0.0209 -0.1534  0.0595
   15CHTO   C59 6139   6.675   3.334   1.844  0.2494 -0.0071  0.2326
   15CHTO  H116 6140   6.592   3.275   1.884 -3.3328  2.2525 -3.4479
   15CHTO   C70 6141   6.618   3.385   1.707  0.3850  0.1594  0.3825
   15CHTO   O46 6142   6.487   3.439   1.703  0.2193 -0.5541 -0.6536
   15CHTO  H103 6143   6.430   3.385   1.653 -0.9203  1.3441 -1.4792
   15CHTO   O39 6144   6.765   3.567   2.108 -0.2847 -0.6592  0.2304
   15CHTO   C60 6145   6.688   3.623   2.216 -0.1212  0.5175 -0.4442
   15CHTO  H117 6146   6.601   3.563   2.242 -0.2066  1.4235  1.4483
   15CHTO   C62 6147   6.769   3.631   2.351  0.3039  0.1252 -0.4146
   15CHTO  H119 6148   6.797   3.526   2.374 -1.3477 -0.4083 -0.7850
   15CHTO   O43 6149   6.881   3.712   2.319  0.1020  0.1555 -0.2000
   15CHTO  H101 6150   6.860   3.801   2.336 -0.7252 -0.2015  0.6701
   15CHTO   C66 6151   6.687   3.698   2.480 -0.3494  0.1232  0.5723
   15CHTO  H123 6152   6.599   3.636   2.502 -0.1806 -0.0772  0.6873
   15CHTO   N12 6153   6.768   3.700   2.606  0.7169  0.4485 -0.0574
   15CHTO  H110 6154   6.728   3.751   2.693 -0.3814 -0.2711 -0.1328
   15CHTO  H111 6155   6.826   3.610   2.620 -0.3966 -0.1837  0.5800
   15CHTO   C69 6156   6.639   3.833   2.437  0.6542  0.0499 -0.0313
   15CHTO  H126 6157   6.725   3.904   2.431  0.1250  0.8130  1.3225
   15CHTO   O41 6158   6.560   3.825   2.284  0.0979  0.1596 -0.1139
   15CHTO   C64 6159   6.634   3.760   2.173  0.6296 -0.1847  0.0062
   15CHTO  H121 6160   6.724   3.822   2.153 -0.3839  0.6796 -2.0684
   15CHTO   C71 6161   6.560   3.752   2.042  0.3473  0.4795  0.1013
   15CHTO   O47 6162   6.428   3.715   2.066  0.0901 -0.7058 -0.8318
   15CHTO  H104 6163   6.379   3.794   2.076 -0.1342 -0.7867 -1.3170
   15CHTO   O34 6164   6.549   3.900   2.541 -0.4001  0.4951  0.5077
   15CHTO   C49 6165   6.433   3.952   2.618  0.2755 -0.4835  0.6078
   15CHTO   H91 6166   6.473   3.985   2.714  2.2986 -0.4016 -0.2406
   15CHTO   C47 6167   6.330   3.840   2.657 -0.0473 -0.4800 -0.2099
   15CHTO   H89 6168   6.275   3.886   2.742  1.8199  3.5993 -1.0507
   15CHTO   O33 6169   6.405   3.729   2.709  0.1192  0.8831  0.2868
   15CHTO   H70 6170   6.479   3.717   2.653  0.5083  0.8618  0.7958
   15CHTO   C45 6171   6.252   3.796   2.522  0.2441 -0.8059  0.2131
   15CHTO   H87 6172   6.308   3.712   2.478  2.1400  0.8070 -0.5242
   15CHTO    N8 6173   6.128   3.740   2.572 -0.4857  0.3651  0.4584
   15CHTO   H75 6174   6.054   3.768   2.498 -0.0293  1.5344  0.4357
   15CHTO   H76 6175   6.134   3.632   2.575  0.0088  0.3391 -0.8465
   15CHTO   C43 6176   6.244   3.912   2.417 -0.3694 -0.3632  0.0786
   15CHTO   H85 6177   6.344   3.895   2.379 -0.1522 -1.4969  1.1057
   15CHTO   O29 6178   6.235   4.031   2.487 -0.4169 -0.3777 -0.0497
   15CHTO   C50 6179   6.358   4.073   2.546 -0.0607 -1.4684  0.5251
   15CHTO   H92 6180   6.424   4.120   2.470  1.8033 -0.9999  2.3860
   15CHTO   C54 6181   6.324   4.188   2.641  0.1961  0.8849  0.6618
   15CHTO   O36 6182   6.248   4.290   2.574 -0.2240 -0.4911  0.4691
   15CHTO   H72 6183   6.242   4.361   2.635 -0.5008 -0.5016  0.4554
   15CHTO   O27 6184   6.155   3.894   2.306  0.3100  0.4172 -0.3125
   15CHTO   C37 6185   6.143   3.848   2.170  0.3963  0.1482 -0.2465
   15CHTO   H79 6186   6.240   3.851   2.119  0.6625  0.8761  0.2801
   15CHTO   C38 6187   6.086   3.696   2.170 -0.4683  1.1404 -0.4793
   15CHTO   H80 6188   5.982   3.696   2.204 -0.9501 -1.5904 -1.8534
   15CHTO   O31 6189   6.174   3.608   2.249 -0.3764 -0.0148  0.0350
   15CHTO   H68 6190   6.118   3.556   2.305  0.0014  0.3965  0.8078
   15CHTO   C39 6191   6.074   3.651   2.019 -0.4778  0.7176  0.2967
   15CHTO   H81 6192   6.176   3.667   1.981 -1.1703  3.9213 -0.4190
   15CHTO    N7 6193   6.023   3.507   2.007 -0.1929 -0.2133 -0.3113
   15CHTO   H73 6194   6.017   3.478   1.903  1.4622  0.0893 -0.5013
   15CHTO   H74 6195   5.937   3.481   2.068 -1.0290  4.2552  0.5433
   15CHTO   C40 6196   5.980   3.745   1.940 -0.5165  0.0079 -0.5523
   15CHTO   H82 6197   5.884   3.729   1.988  0.1661  0.4462  0.9950
   15CHTO   O26 6198   6.028   3.882   1.952  0.4640 -0.3763 -0.0757
   15CHTO   C41 6199   6.052   3.933   2.083 -0.1642 -0.0127  0.1390
   15CHTO   H83 6200   5.959   3.957   2.136  0.2635  0.0042  0.8835
   15CHTO   C52 6201   6.124   4.065   2.072 -1.2280  0.4402  0.1236
   15CHTO   O35 6202   6.194   4.083   1.955  0.2264 -0.5512  0.2498
   15CHTO   H71 6203   6.238   4.006   1.925 -0.9521  0.0516 -3.3242
   15CHTO   O28 6204   5.967   3.719   1.796  0.0116  0.4376 -0.5879
   15CHTO   C42 6205   6.057   3.747   1.679  0.4632  0.4393 -0.7796
   15CHTO   H84 6206   6.024   3.686   1.595 -0.2878 -0.7771  0.3669
   15CHTO   C44 6207   6.207   3.708   1.698  0.4691  0.7357  0.1543
   15CHTO   H86 6208   6.242   3.761   1.786 -0.9671  0.9955  0.5810
   15CHTO   O32 6209   6.213   3.561   1.723 -0.2824  0.1554 -0.2027
   15CHTO   H69 6210   6.301   3.544   1.752 -0.2160  0.7061 -0.0659
   15CHTO   C48 6211   6.286   3.749   1.568  0.9931  0.2817 -0.5083
   15CHTO   H90 6212   6.244   3.681   1.493  0.7530 -0.2006  0.0548
   15CHTO    N9 6213   6.431   3.725   1.581 -0.0508 -0.1471 -0.2812
   15CHTO   H77 6214   6.480   3.781   1.660  2.7503 -0.6837 -1.5740
   15CHTO   H78 6215   6.457   3.622   1.598  0.7411  0.0603 -0.1948
   15CHTO   C51 6216   6.258   3.898   1.527 -0.4219  0.3349  0.4094
   15CHTO   H93 6217   6.294   3.972   1.598 -2.1780 -0.0932  1.7812
   15CHTO   O30 6218   6.118   3.903   1.516  0.0704 -0.0372  0.0390
   15CHTO   C46 6219   6.045   3.891   1.635 -0.5425 -0.5813 -0.7628
   15CHTO   H88 6220   6.069   3.965   1.711  1.5118 -1.8140 -0.1685
   15CHTO   C53 6221   5.889   3.918   1.593 -0.8282 -0.9287 -0.2657
   15CHTO   O72 6222   5.851   4.057   1.573 -0.0162 -0.3718  0.7770
   15CHTO  H199 6223   5.854   4.079   1.482  0.8507 -1.3823  0.5484
   15CHTO   O22 6224   6.302   3.922   1.391 -0.2832  0.6680  0.1563
   15CHTO   C31 6225   6.278   4.046   1.320  0.5232  0.1146 -0.3058
   15CHTO   H59 6226   6.343   4.029   1.232  1.8742 -4.7913  1.4421
   15CHTO   C29 6227   6.137   4.074   1.267 -0.5747 -0.2568 -0.8564
   15CHTO   H57 6228   6.080   4.078   1.360  0.3640  1.7834 -0.3379
   15CHTO   O21 6229   6.101   3.960   1.193  0.4066 -0.2262 -0.0704
   15CHTO   H37 6230   6.025   3.980   1.142 -1.8683 -1.5218  2.6769
   15CHTO   C27 6231   6.132   4.212   1.188 -0.0564 -0.1837 -0.7005
   15CHTO   H55 6232   6.198   4.213   1.100 -1.5688  0.5412 -1.8544
   15CHTO    N5 6233   5.991   4.243   1.146  0.4891 -0.3935  0.1438
   15CHTO   H43 6234   5.993   4.299   1.054 -1.8221 -0.8429 -0.2201
   15CHTO   H44 6235   5.934   4.156   1.119  1.8742 -1.2147 -0.1874
   15CHTO   C25 6236   6.184   4.331   1.285 -0.2056 -0.0815  0.6106
   15CHTO   H53 6237   6.117   4.341   1.372 -1.3432  0.3153 -0.3001
   15CHTO   O17 6238   6.316   4.300   1.325 -0.3523 -0.1750  0.0090
   15CHTO   C32 6239   6.333   4.174   1.394 -0.1868 -0.1430 -0.4554
   15CHTO   H60 6240   6.283   4.187   1.490  1.0978  0.6408  0.1122
   15CHTO   C36 6241   6.488   4.162   1.411  0.5393 -0.4390  0.1295
   15CHTO   O25 6242   6.559   4.266   1.484 -0.0719  0.5139 -0.3355
   15CHTO   H40 6243   6.605   4.229   1.557  1.0028  3.5608  0.5849
   15CHTO   O15 6244   6.203   4.474   1.217  0.0745 -0.1486  1.2511
   15CHTO   C19 6245   6.211   4.599   1.292 -0.5267 -0.6734 -0.6109
   15CHTO   H47 6246   6.223   4.681   1.220 -0.4029 -1.6468 -1.7013
   15CHTO   C20 6247   6.083   4.642   1.379 -0.7271  0.3497  0.5130
   15CHTO   H48 6248   6.050   4.564   1.448 -1.2164 -1.0373 -1.2489
   15CHTO   O19 6249   5.971   4.653   1.290  0.6952 -0.4439  0.3482
   15CHTO   H35 6250   5.983   4.589   1.222  2.1364  0.9064 -0.6744
   15CHTO   C21 6251   6.099   4.768   1.470  0.1517 -0.2201 -0.2617
   15CHTO   H49 6252   6.121   4.860   1.415  0.0835 -0.8119 -1.2953
   15CHTO    N4 6253   5.977   4.789   1.556  0.2739 -0.3152 -0.1377
   15CHTO   H41 6254   5.991   4.882   1.609  0.4277 -0.1421 -0.4774
   15CHTO   H42 6255   5.966   4.711   1.630  0.3906  1.9865  2.3717
   15CHTO   C22 6256   6.226   4.730   1.561 -0.1264 -0.3912  0.2202
   15CHTO   H50 6257   6.212   4.642   1.623 -1.8481 -0.1746  0.1653
   15CHTO   O14 6258   6.341   4.712   1.471 -0.0330 -0.1100  0.0938
   15CHTO   C23 6259   6.340   4.602   1.382  0.5432  0.4548 -0.1546
   15CHTO   H51 6260   6.345   4.510   1.442  0.4929 -0.1067 -1.0088
   15CHTO   C34 6261   6.464   4.604   1.293 -0.0789 -0.4067 -0.3536
   15CHTO   O23 6262   6.585   4.620   1.366  0.3945 -0.5053  0.2173
   15CHTO   H38 6263   6.621   4.706   1.356 -2.0866  0.4374 -0.9917
   15CHTO   O16 6264   6.258   4.846   1.646  0.2481 -0.3514  0.0895
   15CHTO   C24 6265   6.299   4.800   1.802  0.6823 -0.7053  0.5976
   15CHTO   H52 6266   6.273   4.697   1.824  4.5178 -1.9163 -0.1989
   15CHTO   C26 6267   6.237   4.898   1.903 -0.0163 -0.0758 -0.3807
   15CHTO   H54 6268   6.262   5.000   1.867 -0.7897 -0.1467 -1.1422
   15CHTO   O20 6269   6.094   4.884   1.896 -0.1848  0.3260 -0.2808
   15CHTO   H36 6270   6.043   4.938   1.953 -0.5398  0.0024 -0.2898
   15CHTO   C30 6271   6.291   4.886   2.048  0.2195  0.1542 -0.2918
   15CHTO   H58 6272   6.273   4.783   2.082 -1.9279  0.4898 -0.3016
   15CHTO    N6 6273   6.228   4.987   2.143  0.0934 -0.7797 -0.6255
   15CHTO   H45 6274   6.315   5.042   2.175 -0.8841 -0.2293  1.1733
   15CHTO   H46 6275   6.181   4.935   2.226  0.7344  0.9371  0.8497
   15CHTO   C33 6276   6.451   4.886   2.051 -0.9842  0.5469  0.0588
   15CHTO   H61 6277   6.496   4.985   2.034  1.8111 -0.3970  1.6207
   15CHTO   O18 6278   6.501   4.798   1.953  0.1647 -0.1848  0.3178
   15CHTO   C28 6279   6.452   4.811   1.818  0.1039  0.3592  0.5432
   15CHTO   H56 6280   6.493   4.894   1.760  1.4988 -1.7668 -1.6154
   15CHTO   C35 6281   6.522   4.695   1.752  0.1824 -0.2203 -0.2689
   15CHTO   O24 6282   6.664   4.710   1.734 -0.7761  0.1684  0.8878
   15CHTO   H39 6283   6.719   4.635   1.734  0.0946  0.8022  0.2412
   15CHTO    O9 6284   6.500   4.850   2.183  0.1146  0.3120 -0.1081
   15CHTO   C13 6285   6.670   4.876   2.206 -0.0663  0.4107 -0.0119
   15CHTO   H26 6286   6.708   4.974   2.173 -0.0562 -0.7113 -3.5162
   15CHTO   C11 6287   6.754   4.755   2.136  0.4001  0.5424 -0.1370
   15CHTO   H24 6288   6.744   4.768   2.027 -0.8107  0.8075  0.0022
   15CHTO    O8 6289   6.688   4.628   2.163  0.3311 -0.2349 -0.3534
   15CHTO    H3 6290   6.734   4.553   2.129 -1.4191 -1.9477  0.9167
   15CHTO    C9 6291   6.899   4.757   2.192  0.0428 -0.4177 -0.0773
   15CHTO   H22 6292   6.932   4.860   2.171  0.5772 -0.2996  1.3237
   15CHTO    N2 6293   6.987   4.668   2.114 -1.1820 -0.0704  0.0744
   15CHTO   H10 6294   7.026   4.722   2.030  0.4258 -1.5990 -0.1777
   15CHTO   H11 6295   7.047   4.608   2.180 -1.4115 -0.2411  0.1299
   15CHTO    C7 6296   6.901   4.740   2.347  0.4279  0.8824  0.5965
   15CHTO   H20 6297   6.974   4.815   2.383  0.2447  2.0287 -1.3066
   15CHTO    O4 6298   6.774   4.762   2.407 -0.2311 -0.0605  0.4077
   15CHTO   C14 6299   6.707   4.882   2.363 -0.2324 -0.7272 -0.2743
   15CHTO   H27 6300   6.756   4.981   2.375 -1.7399 -0.2676  2.7242
   15CHTO   C18 6301   6.572   4.893   2.452  0.6689  0.1186 -0.7480
   15CHTO   O13 6302   6.612   4.877   2.591 -0.6062  0.2992  0.1719
   15CHTO    H7 6303   6.550   4.828   2.640  1.9459 -1.7220  1.5240
   15CHTO    O2 6304   6.955   4.578   2.392  0.1648  0.6004 -0.2818
   15CHTO    C1 6305   7.069   4.576   2.482  0.0410  0.3100  0.1766
   15CHTO   H14 6306   7.123   4.673   2.489 -1.4308  1.0920  1.0818
   15CHTO    C2 6307   7.177   4.463   2.446  1.1788 -0.6074 -0.0546
   15CHTO   H15 6308   7.125   4.367   2.440  2.0752 -1.1077  0.1783
   15CHTO    O6 6309   7.228   4.502   2.317 -0.0948 -0.5231  0.4999
   15CHTO    H1 6310   7.298   4.564   2.325  0.5112 -0.8481 -1.7381
   15CHTO    C3 6311   7.294   4.449   2.560 -0.5667 -0.1331 -0.2929
   15CHTO   H16 6312   7.357   4.538   2.548  1.3366 -1.4287 -0.1044
   15CHTO    N1 6313   7.383   4.337   2.526 -0.2384  0.0807  0.7716
   15CHTO    H8 6314   7.413   4.350   2.423 -0.9427  0.3017  0.5878
   15CHTO    H9 6315   7.345   4.236   2.529 -0.8080  0.3457  3.1966
   15CHTO    C4 6316   7.232   4.456   2.704  0.2400 -0.4340 -0.6534
   15CHTO   H17 6317   7.188   4.360   2.729 -1.7634 -0.2943 -3.4310
   15CHTO    O1 6318   7.136   4.559   2.726  0.0262  0.1668 -0.0724
   15CHTO    C5 6319   7.027   4.558   2.635 -0.1524 -0.2008  0.4031
   15CHTO   H18 6320   6.979   4.461   2.649 -0.3480  0.0257  1.3008
   15CHTO   C16 6321   6.926   4.666   2.669  0.1745  0.6627 -1.2158
   15CHTO   O11 6322   7.000   4.788   2.691  0.3986  0.4080 -0.7719
   15CHTO    H5 6323   6.977   4.829   2.773  0.5737  0.7369 -0.8827
   15CHTO    O3 6324   7.341   4.481   2.803 -0.0470 -0.2412 -0.4869
   15CHTO    C6 6325   7.343   4.415   2.938  1.0128 -0.3824 -0.2843
   15CHTO   H19 6326   7.241   4.397   2.971  1.6222 -2.6152  0.4350
   15CHTO    C8 6327   7.434   4.288   2.930  0.1744  0.7727  0.3411
   15CHTO   H21 6328   7.524   4.322   2.878 -0.4191  2.3908  0.3228
   15CHTO    O7 6329   7.358   4.190   2.854 -0.3529  0.3928  0.4818
   15CHTO    H2 6330   7.267   4.213   2.841 -0.3751  0.3227  0.5166
   15CHTO   C12 6331   7.479   4.231   3.073  0.3775  0.4704  0.1269
   15CHTO   H25 6332   7.389   4.178   3.110  1.9544 -1.9661  0.5339
   15CHTO    N3 6333   7.604   4.144   3.060  0.5418 -0.2515  0.3988
   15CHTO   H12 6334   7.658   4.159   2.968  0.7138 -1.0119  0.3653
   15CHTO   H13 6335   7.562   4.044   3.059 -0.2177  0.0204  2.5818
   15CHTO   C15 6336   7.503   4.355   3.167 -0.4510 -0.0930 -0.5765
   15CHTO   H28 6337   7.601   4.398   3.146 -0.2154 -0.5259 -0.3642
   15CHTO   O10 6338   7.518   4.298   3.324  0.2498  0.0547 -0.0632
   15CHTO    H4 6339   7.481   4.358   3.386 -0.5500 -1.5094  1.0076
   15CHTO    O5 6340   7.398   4.454   3.168  0.2663  0.5097  0.3530
   15CHTO   C10 6341   7.403   4.518   3.042  0.1506  0.9468  0.1545
   15CHTO   H23 6342   7.507   4.530   3.009  0.9184 -1.9842  1.3146
   15CHTO   C17 6343   7.333   4.657   3.041  0.2885  0.5481  0.0821
   15CHTO   O12 6344   7.388   4.746   2.950  0.3749  0.3464 -0.7505
   15CHTO    H6 6345   7.477   4.772   2.969 -0.4211  1.3987  1.7886
   16CHTO  H203 6346   5.643   4.732   1.723  1.6397  1.4178  0.0264
   16CHTO   O82 6347   5.675   4.645   1.711 -0.0101  0.7837  0.0716
   16CHTO  C123 6348   5.749   4.603   1.830 -0.3419 -0.3590  0.1308
   16CHTO  H227 6349   5.677   4.551   1.894 -0.2679 -2.5908 -1.5347
   16CHTO   O77 6350   5.844   4.512   1.777 -0.3363  0.0421 -0.2507
   16CHTO  C118 6351   5.919   4.430   1.863  0.0614 -0.1121 -1.1134
   16CHTO  H222 6352   5.858   4.361   1.924  1.6401 -1.1261 -0.6549
   16CHTO  C125 6353   6.021   4.341   1.772 -0.5183 -0.4034  0.6156
   16CHTO   O84 6354   6.109   4.412   1.692 -0.3717  0.2914  0.3330
   16CHTO  H205 6355   6.163   4.456   1.755 -0.0165  0.9590 -0.4267
   16CHTO  C114 6356   5.999   4.526   1.957 -0.2563 -0.1838 -0.3475
   16CHTO  H218 6357   6.075   4.579   1.900  0.9778  1.7155  2.9372
   16CHTO  C116 6358   5.910   4.638   2.018  0.0860  0.3876  0.4040
   16CHTO  H220 6359   5.839   4.592   2.090  1.1013 -0.9261  0.5818
   16CHTO   O79 6360   6.003   4.714   2.096 -0.4688  0.0490  0.8898
   16CHTO  H201 6361   5.998   4.807   2.085  2.2131  0.5119  2.8078
   16CHTO  C120 6362   5.825   4.711   1.908 -0.1051 -0.2006  0.4614
   16CHTO  H224 6363   5.901   4.765   1.847 -0.0744 -1.1973 -0.3944
   16CHTO   N21 6364   5.733   4.813   1.966 -0.7729 -0.1748 -0.7871
   16CHTO  H211 6365   5.718   4.890   1.892  1.7235 -0.6243 -1.8433
   16CHTO  H212 6366   5.787   4.859   2.048 -0.6030 -0.8173 -0.5271
   16CHTO   O75 6367   6.072   4.432   2.038 -0.4773 -0.2080 -0.1350
   16CHTO  C112 6368   6.218   4.466   2.069 -0.8285  0.4555 -0.0530
   16CHTO  H216 6369   6.239   4.573   2.054 -0.5147  0.1436 -1.9465
   16CHTO   O73 6370   6.301   4.377   1.986 -0.0024  0.1598  0.1440
   16CHTO  C113 6371   6.442   4.357   2.007 -0.1900  0.4533 -0.0046
   16CHTO  H217 6372   6.496   4.446   1.969 -0.4926  0.6651  0.0553
   16CHTO  C124 6373   6.479   4.242   1.912  0.0244  0.0010  0.7914
   16CHTO   O83 6374   6.629   4.249   1.888  0.8350 -0.4816  0.0942
   16CHTO  H204 6375   6.655   4.159   1.875 -0.0417 -0.7809  0.3417
   16CHTO  C109 6376   6.480   4.331   2.157  0.6475 -1.2221 -0.0867
   16CHTO  H213 6377   6.445   4.229   2.179  2.0099 -2.2173 -2.2617
   16CHTO  C110 6378   6.407   4.443   2.241  0.4133 -0.3545 -0.2814
   16CHTO  H214 6379   6.434   4.544   2.208 -1.6890 -0.5059 -2.5860
   16CHTO   O78 6380   6.451   4.429   2.375 -0.4725 -0.4029 -0.3871
   16CHTO  H200 6381   6.450   4.506   2.429  1.3464 -0.1350 -0.6785
   16CHTO  C111 6382   6.251   4.434   2.225 -0.4735  0.3920  1.1407
   16CHTO  H215 6383   6.221   4.333   2.257  1.2228  0.4454  2.9948
   16CHTO   N19 6384   6.172   4.528   2.313 -0.1622  0.2159 -0.2378
   16CHTO  H207 6385   6.082   4.565   2.267  0.5953  0.4263 -1.5748
   16CHTO  H208 6386   6.155   4.490   2.413 -0.3618 -0.9809 -0.7122
   16CHTO   O74 6387   6.629   4.323   2.171  0.7331 -0.5584  0.0812
   16CHTO  C115 6388   6.695   4.189   2.235 -0.3376  0.2267 -0.3534
   16CHTO  H219 6389   6.622   4.124   2.282 -1.3269  0.6822 -1.2281
   16CHTO   O76 6390   6.767   4.097   2.116  0.3799  0.3535 -0.2680
   16CHTO  C122 6391   6.899   4.135   2.092  0.4742  0.1586  0.0347
   16CHTO  H226 6392   6.900   4.237   2.054 -0.1262  0.5056  0.9439
   16CHTO  C126 6393   6.956   4.046   1.980 -0.1589  0.2707  0.3776
   16CHTO   O85 6394   7.078   4.106   1.923 -0.1941 -0.0706 -0.3544
   16CHTO  H206 6395   7.056   4.147   1.842 -0.3631  3.2820  1.2909
   16CHTO  C121 6396   6.995   4.124   2.218  0.4108 -0.8007  0.1906
   16CHTO  H225 6397   7.051   4.028   2.210  0.8444 -0.6998  1.9239
   16CHTO   O81 6398   7.082   4.231   2.208  0.0740 -0.0519 -0.2774
   16CHTO  H202 6399   7.155   4.218   2.266 -0.2533 -0.6532  0.0024
   16CHTO  C119 6400   6.917   4.124   2.352  0.2106 -0.0450 -0.2406
   16CHTO  H223 6401   6.866   4.028   2.358 -0.3339  0.1826 -1.2159
   16CHTO  C117 6402   6.799   4.233   2.347  0.3917 -0.7713  0.0561
   16CHTO  H221 6403   6.831   4.332   2.314  0.1295  1.1245  5.0495
   16CHTO   N20 6404   6.731   4.262   2.483 -0.1272 -0.0462  0.4892
   16CHTO  H209 6405   6.746   4.354   2.536  0.4829  0.3631 -0.3864
   16CHTO  H210 6406   6.776   4.189   2.549  0.5294 -0.5054 -0.4596
   16CHTO   O80 6407   7.000   4.130   2.483  0.4596  0.2247 -0.0855
   16CHTO  C103 6408   7.024   3.987   2.565  0.0449  0.2212 -0.4910
   16CHTO  H190 6409   6.936   3.922   2.561 -0.0417 -0.0052  3.1533
   16CHTO  C101 6410   7.147   3.901   2.524 -0.2271  0.0492  0.7490
   16CHTO  H188 6411   7.233   3.968   2.527  0.5892 -0.9678  0.4537
   16CHTO   O68 6412   7.133   3.841   2.369 -0.8446 -0.0574  0.2893
   16CHTO  H168 6413   7.213   3.809   2.332 -0.3555 -0.1409  1.4007
   16CHTO   C99 6414   7.173   3.778   2.626  0.4014  0.1196 -0.1747
   16CHTO  H186 6415   7.089   3.707   2.608  1.0810 -0.8713  0.4657
   16CHTO   N17 6416   7.302   3.705   2.602 -0.4144  0.1756  0.8434
   16CHTO  H174 6417   7.352   3.655   2.684  2.4633 -1.7059 -1.9489
   16CHTO  H175 6418   7.292   3.637   2.519 -0.4965 -1.2422  1.9923
   16CHTO   C97 6419   7.155   3.820   2.777  0.0374 -0.7758 -0.3724
   16CHTO  H184 6420   7.244   3.863   2.825 -1.3921  0.7236  0.9949
   16CHTO   O64 6421   7.041   3.909   2.793  0.5019 -0.0080 -0.0334
   16CHTO  C104 6422   7.040   4.029   2.719  0.4204 -0.4124 -0.0822
   16CHTO  H191 6423   7.131   4.089   2.732  0.6452 -0.1511 -2.6072
   16CHTO  C108 6424   6.924   4.111   2.765  0.5164  0.1807  0.4117
   16CHTO   O71 6425   6.799   4.040   2.744  0.3001 -0.3556 -0.2649
   16CHTO  H171 6426   6.777   3.991   2.821  0.0449 -1.3534 -0.9664
   16CHTO   O62 6427   7.114   3.701   2.850  0.1616 -0.5493 -0.6257
   16CHTO   C91 6428   7.173   3.666   2.974 -0.4526 -0.1592  0.8314
   16CHTO  H178 6429   7.279   3.646   2.955  0.2051  1.8275  2.2308
   16CHTO   C92 6430   7.114   3.525   3.005  0.1714 -0.1013 -0.5060
   16CHTO  H179 6431   7.127   3.456   2.921  0.2324 -2.5150  1.4330
   16CHTO   O66 6432   7.188   3.472   3.116  0.4627 -0.3847  0.3393
   16CHTO  H166 6433   7.278   3.467   3.090  0.2442  1.8742 -1.0069
   16CHTO   C93 6434   6.969   3.532   3.059  0.4538  0.4697 -0.4061
   16CHTO  H180 6435   6.950   3.444   3.122  0.3287  1.4915  1.0097
   16CHTO   N16 6436   6.870   3.523   2.947 -0.1743  0.1155 -0.1814
   16CHTO  H172 6437   6.774   3.571   2.962  1.2859  2.8127  0.6841
   16CHTO  H173 6438   6.865   3.423   2.904 -1.2901 -0.1409  0.5182
   16CHTO   C94 6439   6.941   3.665   3.146  0.2031 -0.1603  0.0008
   16CHTO  H181 6440   6.891   3.742   3.087  1.6036  0.5328 -0.2918
   16CHTO   O61 6441   7.064   3.718   3.198  0.0676  0.0196 -0.2852
   16CHTO   C95 6442   7.153   3.768   3.092 -0.1536 -0.9076 -0.2801
   16CHTO  H182 6443   7.110   3.859   3.049 -0.7858 -0.6180  0.9576
   16CHTO  C106 6444   7.281   3.820   3.162  0.5054  0.2514 -0.4613
   16CHTO   O69 6445   7.377   3.874   3.069 -0.3633  0.0720 -0.2186
   16CHTO  H169 6446   7.459   3.834   3.089 -1.1028 -1.8686 -0.9204
   16CHTO   O63 6447   6.839   3.626   3.276 -0.4020 -0.0899 -0.2303
   16CHTO   C96 6448   6.682   3.568   3.233  0.8159 -0.1071  0.8007
   16CHTO  H183 6449   6.700   3.482   3.169  1.3710  1.4361 -1.1745
   16CHTO   C98 6450   6.586   3.662   3.158 -0.0448 -0.3266  0.3620
   16CHTO  H185 6451   6.630   3.685   3.060 -0.4158  0.6613  0.4162
   16CHTO   O67 6452   6.472   3.584   3.124  0.1257  0.2774  0.0962
   16CHTO  H167 6453   6.430   3.560   3.204  1.3241 -2.0433  0.0793
   16CHTO  C102 6454   6.539   3.788   3.247  0.2650 -0.2629 -0.1212
   16CHTO  H189 6455   6.447   3.826   3.199  0.9177  0.4633 -0.8170
   16CHTO   N18 6456   6.632   3.902   3.235  0.4283  0.4984 -0.1076
   16CHTO  H176 6457   6.607   3.976   3.309  0.4026  1.2672 -0.8716
   16CHTO  H177 6458   6.621   3.949   3.138  0.2251  4.5505  1.7746
   16CHTO  C105 6459   6.506   3.748   3.394  0.3742  0.1593 -0.1337
   16CHTO  H192 6460   6.576   3.798   3.461 -0.5379  2.4669 -0.8427
   16CHTO   O65 6461   6.522   3.605   3.427 -0.1682 -0.5664 -0.2731
   16CHTO  C100 6462   6.629   3.523   3.371  0.3188 -0.6536  0.1927
   16CHTO  H187 6463   6.704   3.524   3.452 -0.0430 -0.4518  0.5235
   16CHTO  C107 6464   6.591   3.373   3.363  0.4589 -0.2819 -0.4572
   16CHTO   O70 6465   6.563   3.333   3.497  0.3562  0.0147  0.4036
   16CHTO  H170 6466   6.643   3.324   3.545 -0.9727  0.5089  2.8261
   16CHTO   O57 6467   6.348   3.807   3.433 -0.1401 -0.2728  0.0782
   16CHTO   C85 6468   6.316   3.944   3.416  0.7349  0.2073 -0.1191
   16CHTO  H157 6469   6.373   3.992   3.333 -0.4741 -2.0227 -2.2982
   16CHTO   C83 6470   6.371   4.018   3.535 -0.2336  0.3455 -0.0734
   16CHTO  H155 6471   6.479   4.003   3.547  0.0723  1.6854 -1.0503
   16CHTO   O56 6472   6.314   3.962   3.665 -0.0701  0.2167  0.8357
   16CHTO  H135 6473   6.314   3.868   3.671 -2.3078  0.2699  2.3126
   16CHTO   C81 6474   6.336   4.169   3.523  0.1878  0.3715 -0.2775
   16CHTO  H153 6475   6.385   4.210   3.434 -0.3045  1.4383 -0.0761
   16CHTO   N14 6476   6.390   4.259   3.631 -0.3200  0.7229 -0.1260
   16CHTO  H141 6477   6.496   4.264   3.643 -0.0296  0.6363 -2.4307
   16CHTO  H142 6478   6.344   4.250   3.728  0.5355 -2.4606  0.0421
   16CHTO   C79 6479   6.181   4.191   3.502 -0.0833  0.4720  0.5031
   16CHTO  H151 6480   6.164   4.297   3.483  0.1249  0.5448  0.7096
   16CHTO   O52 6481   6.144   4.119   3.394 -0.1247  0.0186  0.0047
   16CHTO   C86 6482   6.161   3.975   3.402  0.7219 -0.4000  0.4382
   16CHTO  H158 6483   6.105   3.939   3.490  1.1870 -1.8631  0.1481
   16CHTO   C90 6484   6.103   3.904   3.274 -0.2292 -0.6121 -0.5328
   16CHTO   O60 6485   5.964   3.908   3.260 -0.0575 -0.3289 -0.1047
   16CHTO  H138 6486   5.924   3.879   3.180 -4.7509  1.3897  1.4154
   16CHTO   O50 6487   6.095   4.165   3.613  0.2900 -0.2522 -0.4601
   16CHTO   C73 6488   6.018   4.123   3.722 -1.4838 -0.4731 -0.2165
   16CHTO  H145 6489   6.079   4.060   3.789 -1.6350  0.0369  0.4151
   16CHTO   C74 6490   5.898   4.032   3.674 -0.8747 -0.0366  0.0917
   16CHTO  H146 6491   5.941   3.950   3.616 -0.5186  0.5269 -0.4446
   16CHTO   O54 6492   5.833   3.967   3.792 -0.2396 -0.1542 -0.3209
   16CHTO  H133 6493   5.763   3.919   3.753 -1.7791  1.8046 -0.0176
   16CHTO   C75 6494   5.800   4.112   3.592  1.2101 -0.5133  0.2271
   16CHTO  H147 6495   5.848   4.136   3.496  4.2274 -2.3958  1.1851
   16CHTO   N13 6496   5.679   4.032   3.551 -0.1581  0.4007  0.6834
   16CHTO  H139 6497   5.625   4.084   3.474  2.7291  0.5853 -1.2873
   16CHTO  H140 6498   5.607   4.015   3.630 -0.0335  2.8398  1.3525
   16CHTO   C76 6499   5.762   4.246   3.663 -0.5405 -0.3306  0.4667
   16CHTO  H148 6500   5.717   4.220   3.759  0.6786  0.5628  1.2985
   16CHTO   O49 6501   5.889   4.312   3.689 -0.0387 -0.0529  0.0183
   16CHTO   C77 6502   5.965   4.252   3.786 -0.1281  0.2007  0.7818
   16CHTO  H149 6503   5.909   4.229   3.877  0.2602 -0.7398  0.7965
   16CHTO   C88 6504   6.068   4.351   3.824 -0.9002  0.3716 -0.2668
   16CHTO   O58 6505   6.162   4.294   3.945  0.8030  0.2116 -0.2355
   16CHTO  H136 6506   6.121   4.305   4.029  0.3064  0.9611 -0.5651
   16CHTO   O51 6507   5.654   4.350   3.586 -0.1085  0.8057 -0.0402
   16CHTO   C78 6508   5.623   4.495   3.666 -0.1989  0.6847 -0.3464
   16CHTO  H150 6509   5.717   4.554   3.661 -1.6029  3.0243  0.2062
   16CHTO   C80 6510   5.588   4.481   3.813 -0.2022  0.4029  0.4472
   16CHTO  H152 6511   5.514   4.400   3.826  1.0131 -0.4135  2.6601
   16CHTO   O55 6512   5.699   4.439   3.887  0.2471  0.1600  0.1254
   16CHTO  H134 6513   5.708   4.348   3.868 -1.4917 -0.3658  1.6824
   16CHTO   C84 6514   5.542   4.612   3.880  0.3757 -0.9009  1.0529
   16CHTO  H156 6515   5.633   4.668   3.903  0.0538  0.2282 -0.3580
   16CHTO   N15 6516   5.468   4.584   4.012 -0.0991 -0.1478 -0.7305
   16CHTO  H143 6517   5.421   4.670   4.053  2.0894 -0.1751  1.9630
   16CHTO  H144 6518   5.526   4.535   4.088  0.5794  2.3821  0.4293
   16CHTO   C87 6519   5.458   4.701   3.794  0.0048  0.1206  0.2146
   16CHTO  H159 6520   5.356   4.662   3.794  1.0098 -2.6510 -0.9979
   16CHTO   O53 6521   5.506   4.707   3.647  0.5773 -0.4801 -0.4879
   16CHTO   C82 6522   5.522   4.576   3.590  0.1548 -0.6321 -0.1809
   16CHTO  H154 6523   5.430   4.517   3.593  1.2062 -2.3613 -1.1377
   16CHTO   C89 6524   5.561   4.588   3.442 -0.8119 -0.1663 -0.5679
   16CHTO   O59 6525   5.469   4.665   3.366 -0.1150  0.5908 -0.1274
   16CHTO  H137 6526   5.525   4.715   3.310  0.1176  0.3388 -0.1185
   16CHTO   O45 6527   5.455   4.855   3.847  0.5782 -0.0986 -0.1367
   16CHTO   C67 6528   5.561   4.939   3.814 -0.8712 -0.1584  0.3138
   16CHTO  H124 6529   5.633   4.879   3.759 -0.3041  0.8160 -0.0112
   16CHTO   C65 6530   5.505   5.047   3.716 -0.3242  0.8075  0.3915
   16CHTO  H122 6531   5.402   5.071   3.743 -0.5185  0.1411  0.2607
   16CHTO   O44 6532   5.515   4.988   3.583 -0.4045 -0.2155  0.1048
   16CHTO  H102 6533   5.456   4.916   3.571  0.8558 -1.3439  0.5055
   16CHTO   C63 6534   5.583   5.184   3.730  0.6686 -0.2286  0.4406
   16CHTO  H120 6535   5.541   5.239   3.814  1.0410  0.9572 -0.1374
   16CHTO   N11 6536   5.562   5.279   3.616 -0.2872  0.5980  0.6181
   16CHTO  H108 6537   5.572   5.384   3.634 -0.9443  0.9606 -1.0222
   16CHTO  H109 6538   5.472   5.259   3.562  0.5622 -1.9636  0.0834
   16CHTO   C61 6539   5.738   5.147   3.759 -0.3973 -0.2591  1.0407
   16CHTO  H118 6540   5.780   5.245   3.784 -3.0504  2.2761 -3.7572
   16CHTO   O40 6541   5.751   5.059   3.882 -0.2729 -0.8509 -0.1387
   16CHTO   C68 6542   5.633   4.995   3.934 -0.1684  0.3125  0.4532
   16CHTO  H125 6543   5.570   5.076   3.977 -0.2888 -0.8786  2.5878
   16CHTO   C72 6544   5.674   4.899   4.050  0.7338 -0.6274 -0.6049
   16CHTO   O48 6545   5.701   4.971   4.174 -0.0313 -0.0146  0.3506
   16CHTO  H105 6546   5.791   4.989   4.192  0.1302  2.0123 -2.3017
   16CHTO   O38 6547   5.794   5.080   3.642 -0.5933  0.0180  0.2111
   16CHTO   C55 6548   5.938   5.066   3.642 -0.0239 -0.2984  0.2451
   16CHTO  H112 6549   5.981   5.069   3.743 -0.7491  0.1261  0.5477
   16CHTO   C56 6550   5.995   5.185   3.556  0.4853  0.4857  0.1035
   16CHTO  H113 6551   5.942   5.184   3.459 -0.1164  1.0925  0.4239
   16CHTO   O42 6552   5.972   5.310   3.625  0.6479 -0.8721 -0.0980
   16CHTO  H100 6553   6.029   5.311   3.699  2.8873 -0.7985 -1.7796
   16CHTO   C57 6554   6.145   5.171   3.522 -0.4268  1.3349 -0.1630
   16CHTO  H114 6555   6.196   5.189   3.617 -0.9155 -1.5531  0.6866
   16CHTO   N10 6556   6.195   5.273   3.428 -0.1434  0.2515  0.3008
   16CHTO  H106 6557   6.243   5.360   3.470  0.4910 -0.2562  0.6356
   16CHTO  H107 6558   6.133   5.299   3.343  2.2605 -1.2480 -1.9951
   16CHTO   C58 6559   6.176   5.028   3.470  0.4825 -0.7808 -0.8240
   16CHTO  H115 6560   6.124   5.016   3.373 -1.6959  1.6377  0.0007
   16CHTO   O37 6561   6.126   4.928   3.563  0.1092  0.1102 -0.0957
   16CHTO   C59 6562   5.981   4.931   3.577 -0.8739  0.3695  0.2610
   16CHTO  H116 6563   5.934   4.915   3.480  0.4977  2.0951 -0.7055
   16CHTO   C70 6564   5.931   4.810   3.661 -0.3901 -0.1904 -0.0946
   16CHTO   O46 6565   5.968   4.819   3.798 -0.9060  0.0520  0.1391
   16CHTO  H103 6566   5.896   4.863   3.840 -2.3173 -1.6245 -0.4860
   16CHTO   O39 6567   6.350   4.996   3.457  1.1421 -0.0382  0.2508
   16CHTO   C60 6568   6.406   4.914   3.350  0.0629 -0.7713  0.4614
   16CHTO  H117 6569   6.333   4.860   3.290 -1.1871  0.3919  0.9181
   16CHTO   C62 6570   6.492   5.003   3.251  0.4346  0.0197 -0.0855
   16CHTO  H119 6571   6.419   5.084   3.228 -2.7242 -2.4622  0.9119
   16CHTO   O43 6572   6.604   5.064   3.313 -0.5260 -0.0387  0.1984
   16CHTO  H101 6573   6.625   5.027   3.397  0.5558  0.7271  0.2762
   16CHTO   C66 6574   6.529   4.912   3.118  0.1544  0.0453 -0.1108
   16CHTO  H123 6575   6.437   4.869   3.078 -0.4806  0.9803  0.3655
   16CHTO   N12 6576   6.580   4.985   3.000  0.1913 -0.0472  0.2733
   16CHTO  H110 6577   6.560   5.090   3.020 -2.2794 -1.0883  3.6039
   16CHTO  H111 6578   6.540   4.954   2.905  1.8809 -1.1917 -0.0874
   16CHTO   C69 6579   6.617   4.793   3.171  0.5697  0.3921 -0.0740
   16CHTO  H126 6580   6.708   4.843   3.210  0.6449 -0.1929  0.5043
   16CHTO   O41 6581   6.555   4.715   3.296 -0.0335  0.4534  0.6392
   16CHTO   C64 6582   6.508   4.802   3.405  0.3578 -0.4930  1.1299
   16CHTO  H121 6583   6.584   4.851   3.470 -0.7389 -0.1080  2.1375
   16CHTO   C71 6584   6.442   4.709   3.507  0.2405 -0.1312 -0.4295
   16CHTO   O47 6585   6.342   4.631   3.441  0.2240  0.5613 -0.2641
   16CHTO  H104 6586   6.262   4.624   3.488  0.5104  1.8055  0.4206
   16CHTO   O34 6587   6.662   4.705   3.036  0.5712 -0.1319 -0.1521
   16CHTO   C49 6588   6.757   4.557   3.044  0.6103  0.2120 -0.2693
   16CHTO   H91 6589   6.809   4.561   2.948  2.1777 -1.1284  0.4910
   16CHTO   C47 6590   6.679   4.424   3.040  0.7451 -0.1747 -0.3476
   16CHTO   H89 6591   6.744   4.337   3.018  1.4339  0.4567 -0.8347
   16CHTO   O33 6592   6.585   4.436   2.928  0.1186 -0.4294 -0.3624
   16CHTO   H70 6593   6.516   4.372   2.930 -0.0390 -0.2687 -0.6831
   16CHTO   C45 6594   6.604   4.399   3.180 -0.4335  0.5375  0.2310
   16CHTO   H87 6595   6.541   4.486   3.202 -1.8387  0.1965 -2.2449
   16CHTO    N8 6596   6.515   4.279   3.178  0.0515  0.4541  0.1541
   16CHTO   H75 6597   6.532   4.216   3.092  0.5403  0.1865  0.4432
   16CHTO   H76 6598   6.520   4.226   3.272  0.1895 -0.1715 -0.2025
   16CHTO   C43 6599   6.729   4.383   3.295 -0.0771 -0.3635  0.7559
   16CHTO   H85 6600   6.679   4.377   3.391 -1.1358 -1.1718  0.1685
   16CHTO   O29 6601   6.822   4.499   3.288  0.1877 -0.5947  0.1441
   16CHTO   C50 6602   6.868   4.554   3.160 -0.0799 -0.3222  0.4386
   16CHTO   H92 6603   6.899   4.656   3.186 -0.3122  0.7470 -3.1999
   16CHTO   C54 6604   6.999   4.491   3.119 -0.9321  0.3687  0.0564
   16CHTO   O36 6605   7.090   4.485   3.231  0.5119 -0.2321 -0.1965
   16CHTO   H72 6606   7.057   4.426   3.297  3.9041 -0.7941  1.0854
   16CHTO   O27 6607   6.805   4.259   3.285  0.5730 -0.4467  0.0363
   16CHTO   C37 6608   6.886   4.197   3.393  0.1302  0.5538  0.8986
   16CHTO   H79 6609   6.967   4.257   3.438 -0.1518  0.4826  1.5051
   16CHTO   C38 6610   6.795   4.144   3.508 -0.1439 -1.0561 -0.3942
   16CHTO   H80 6611   6.702   4.105   3.465 -0.4440 -0.1497 -0.5893
   16CHTO   O31 6612   6.762   4.275   3.572  0.2270  0.4899 -0.3684
   16CHTO   H68 6613   6.670   4.278   3.588  0.0793  2.2748 -1.3729
   16CHTO   C39 6614   6.868   4.045   3.609 -0.6088  0.3915 -0.3252
   16CHTO   H81 6615   6.932   4.105   3.674  1.0960 -1.2317 -0.4789
   16CHTO    N7 6616   6.772   3.987   3.711 -0.7942  0.2307  1.1598
   16CHTO   H73 6617   6.822   3.923   3.783  2.4699  0.2376 -0.9627
   16CHTO   H74 6618   6.686   3.937   3.668 -0.1960  0.0007  0.2052
   16CHTO   C40 6619   6.964   3.944   3.540 -1.1113 -0.0407  0.5305
   16CHTO   H82 6620   6.903   3.858   3.513 -0.4872 -0.1293 -0.6229
   16CHTO   O26 6621   7.037   4.003   3.428 -0.6456  0.0608  0.9714
   16CHTO   C41 6622   6.953   4.073   3.333  0.1778 -0.1822  0.9614
   16CHTO   H83 6623   6.877   4.004   3.294 -2.1500  2.0878  1.3554
   16CHTO   C52 6624   7.044   4.106   3.211  0.9151 -0.3955 -0.3271
   16CHTO   O35 6625   7.165   4.198   3.245 -0.4278  0.1666  0.0791
   16CHTO   H71 6626   7.130   4.272   3.290 -0.1886 -0.2100  0.9193
   16CHTO   O28 6627   7.068   3.907   3.631 -0.8692  1.1246  0.3123
   16CHTO   C42 6628   7.103   3.772   3.664 -0.4260 -0.8295  0.6690
   16CHTO   H84 6629   7.209   3.783   3.688 -0.6909  1.3526  0.9738
   16CHTO   C44 6630   7.101   3.664   3.551  0.7718 -0.8184  0.3224
   16CHTO   H86 6631   7.006   3.669   3.496  0.1459  0.2171  1.4896
   16CHTO   O32 6632   7.203   3.699   3.459  0.5046  0.5067  0.0731
   16CHTO   H69 6633   7.245   3.621   3.427  0.2151  0.8590 -1.1871
   16CHTO   C48 6634   7.105   3.514   3.602 -0.3520 -0.0770  0.6972
   16CHTO   H90 6635   7.212   3.496   3.612 -0.3322  1.1711  3.3202
   16CHTO    N9 6636   7.075   3.425   3.491 -0.0876 -0.0576  0.2074
   16CHTO   H77 6637   7.016   3.478   3.418  2.1505  1.9581 -0.1912
   16CHTO   H78 6638   7.056   3.320   3.509  2.2339 -0.7544 -1.2756
   16CHTO   C51 6639   7.032   3.491   3.740 -0.3657 -0.1296  0.4385
   16CHTO   H93 6640   6.924   3.496   3.727 -0.7404  0.8632  3.5712
   16CHTO   O30 6641   7.075   3.590   3.830  0.0015 -0.2857  0.0801
   16CHTO   C46 6642   7.031   3.730   3.790  0.1958 -0.8477 -0.3698
   16CHTO   H88 6643   6.928   3.736   3.756  0.7655  2.0758 -1.8207
   16CHTO   C53 6644   7.064   3.828   3.900 -0.5056  0.1984 -0.2586
   16CHTO   O72 6645   6.981   3.811   4.014  0.5212  0.1850  0.2216
   16CHTO  H199 6646   7.011   3.863   4.086  0.3063  0.8824 -0.1889
   16CHTO   O22 6647   7.069   3.365   3.795  0.1528 -0.3570 -0.0527
   16CHTO   C31 6648   6.990   3.320   3.913  0.2492 -0.1224 -0.0066
   16CHTO   H59 6649   7.037   3.227   3.952 -1.7359 -0.4358  1.7584
   16CHTO   C29 6650   6.981   3.413   4.035  0.5036 -0.2037 -0.3098
   16CHTO   H57 6651   6.925   3.502   4.001  1.7081  1.0901  0.9757
   16CHTO   O21 6652   7.116   3.449   4.066 -0.0422  0.0362  0.2561
   16CHTO   H37 6653   7.110   3.516   4.132 -0.7310 -0.2494  0.4814
   16CHTO   C27 6654   6.901   3.344   4.152 -0.1822 -0.3047  0.1466
   16CHTO   H55 6655   6.955   3.249   4.171  0.4026 -0.0796 -0.3395
   16CHTO    N5 6656   6.891   3.426   4.279 -0.7245 -0.1145  0.2004
   16CHTO   H43 6657   6.993   3.431   4.315 -0.3485  2.4284 -1.0716
   16CHTO   H44 6658   6.835   3.374   4.355 -0.9626  1.4810  1.1351
   16CHTO   C25 6659   6.757   3.319   4.095  0.0385  0.1562 -0.0049
   16CHTO   H53 6660   6.726   3.409   4.041 -0.1135  0.4789  0.6207
   16CHTO   O17 6661   6.765   3.225   3.975 -0.0823 -0.3859 -0.2883
   16CHTO   C32 6662   6.850   3.279   3.871  0.3871 -0.0140 -0.4305
   16CHTO   H60 6663   6.798   3.365   3.829  2.8045  1.3831 -0.6441
   16CHTO   C36 6664   6.863   3.164   3.765 -0.2391 -0.1886  0.7407
   16CHTO   O25 6665   6.753   3.129   3.682  0.2119 -0.2978  0.1157
   16CHTO   H40 6666   6.673   3.112   3.727  0.9602  0.4421  1.7490
   16CHTO   O15 6667   6.657   3.249   4.208 -0.3976 -0.1212 -0.2914
   16CHTO   C19 6668   6.537   3.256   4.278 -0.1029  0.2101 -0.8484
   16CHTO   H47 6669   6.530   3.361   4.309  2.1950 -0.1078  0.8755
   16CHTO   C20 6670   6.416   3.214   4.190  0.0069 -0.0625 -0.6755
   16CHTO   H48 6671   6.426   3.111   4.151 -0.1902 -0.0543 -0.7457
   16CHTO   O19 6672   6.418   3.293   4.072  0.1811 -0.6850 -0.0508
   16CHTO   H35 6673   6.435   3.385   4.083 -0.1946 -0.7967  1.6120
   16CHTO   C21 6674   6.277   3.215   4.270  0.2472 -0.4423  0.4614
   16CHTO   H49 6675   6.249   3.319   4.288  2.1259 -0.2092  2.2370
   16CHTO    N4 6676   6.159   3.167   4.199  0.2835 -0.0620  0.4044
   16CHTO   H41 6677   6.153   3.212   4.101 -1.4640 -1.0457  0.0463
   16CHTO   H42 6678   6.065   3.187   4.247  0.3557  0.2727  0.4132
   16CHTO   C22 6679   6.299   3.146   4.401 -0.1241  0.5795  0.2870
   16CHTO   H50 6680   6.297   3.037   4.389 -1.1283  0.6158  0.1174
   16CHTO   O14 6681   6.418   3.182   4.467  0.1656  0.5938  0.0188
   16CHTO   C23 6682   6.544   3.170   4.408 -0.1923  0.3198  0.4564
   16CHTO   H51 6683   6.566   3.065   4.384  1.2658  0.7989 -0.3359
   16CHTO   C34 6684   6.641   3.207   4.522 -0.2128 -0.0174  0.2475
   16CHTO   O23 6685   6.772   3.186   4.473 -0.1237  0.0447 -0.5539
   16CHTO   H38 6686   6.832   3.164   4.542 -1.6756 -1.1222  0.4443
   16CHTO   O16 6687   6.200   3.187   4.487  0.6873 -0.5246 -0.5830
   16CHTO   C24 6688   6.154   3.072   4.599 -0.0817 -0.6572  0.0800
   16CHTO   H52 6689   6.221   2.986   4.591 -1.8700 -2.0500 -0.3013
   16CHTO   C26 6690   6.011   3.018   4.575 -0.3089 -0.4262  0.3813
   16CHTO   H54 6691   5.942   3.104   4.584 -0.5136 -0.4730 -0.7111
   16CHTO   O20 6692   6.016   2.954   4.447 -0.0384 -0.1681 -0.1053
   16CHTO   H36 6693   5.932   2.916   4.425  0.6805 -1.9145  0.0712
   16CHTO   C30 6694   5.958   2.917   4.679  0.5157 -0.3604  0.0008
   16CHTO   H58 6695   6.010   2.820   4.684 -0.1339 -0.6334  1.9544
   16CHTO    N6 6696   5.820   2.881   4.659  0.1964  0.0015 -0.0330
   16CHTO   H45 6697   5.782   2.795   4.711  2.2735  0.4352  2.3182
   16CHTO   H46 6698   5.768   2.970   4.691 -0.7167 -0.5381 -0.0110
   16CHTO   C33 6699   5.987   2.988   4.823 -0.0106  0.3276 -0.0370
   16CHTO   H61 6700   5.932   3.082   4.834 -2.1708 -1.0955  1.7396
   16CHTO   O18 6701   6.125   3.023   4.829 -0.0181  0.2110  0.2482
   16CHTO   C28 6702   6.171   3.133   4.744  0.8106  0.6759 -0.0300
   16CHTO   H56 6703   6.110   3.223   4.753  2.2173  1.7753 -1.2903
   16CHTO   C35 6704   6.317   3.167   4.780  0.0805 -0.6380 -0.5473
   16CHTO   O24 6705   6.331   3.201   4.920  0.3725  0.2226  0.3065
   16CHTO   H39 6706   6.252   3.187   4.968  1.3572 -2.2255  1.3388
   16CHTO    O9 6707   5.947   2.899   4.933 -0.1019 -0.6582  0.5365
   16CHTO   C13 6708   6.054   2.909   5.068 -0.5320 -0.1762 -0.0168
   16CHTO   H26 6709   6.093   3.012   5.074 -0.0516 -0.3197 -0.6750
   16CHTO   C11 6710   6.171   2.805   5.043  0.6239 -0.1679 -0.1864
   16CHTO   H24 6711   6.236   2.835   4.959  1.0132  0.6587  0.3974
   16CHTO    O8 6712   6.119   2.671   5.019 -0.3221 -0.4989 -0.1076
   16CHTO    H3 6713   6.051   2.660   4.955 -0.7912  2.2067 -0.1561
   16CHTO    C9 6714   6.263   2.805   5.173 -0.3932 -0.2674 -0.1702
   16CHTO   H22 6715   6.294   2.910   5.189  2.0245 -0.8297 -1.1396
   16CHTO    N2 6716   6.387   2.730   5.148  0.6352 -0.1199  0.1605
   16CHTO   H10 6717   6.438   2.783   5.069 -0.0167 -0.0585 -0.2286
   16CHTO   H11 6718   6.444   2.725   5.240 -1.2659  0.4229  1.4079
   16CHTO    C7 6719   6.186   2.764   5.299 -0.5760  0.1911  0.3445
   16CHTO   H20 6720   6.212   2.831   5.383  1.9836 -2.0758  1.4050
   16CHTO    O4 6721   6.045   2.767   5.278 -0.5726  0.3185 -0.3189
   16CHTO   C14 6722   5.985   2.867   5.202 -0.6943 -0.0249 -0.2997
   16CHTO   H27 6723   5.989   2.952   5.273  1.0785 -1.3403  1.2283
   16CHTO   C18 6724   5.834   2.834   5.178  1.4566  0.7356  0.7267
   16CHTO   O13 6725   5.757   2.815   5.300  0.0772 -0.3802 -0.1327
   16CHTO    H7 6726   5.692   2.881   5.312 -0.1633 -0.5036 -0.7402
   16CHTO    O2 6727   6.229   2.629   5.355  0.3988 -0.1717  0.4460
   16CHTO    C1 6728   6.120   2.537   5.401 -0.1984 -0.4128 -0.3416
   16CHTO   H14 6729   6.025   2.548   5.345  0.0436 -0.4248 -0.7557
   16CHTO    C2 6730   6.080   2.560   5.560  0.0315  0.6089 -0.3617
   16CHTO   H15 6731   6.172   2.565   5.619 -0.3582 -0.2063  0.3289
   16CHTO    O6 6732   6.017   2.681   5.570  0.1883 -0.5663  0.6124
   16CHTO    H1 6733   6.061   2.729   5.637 -1.7931  1.1216  0.7659
   16CHTO    C3 6734   5.995   2.444   5.616  0.5843  0.4896  1.6586
   16CHTO   H16 6735   5.896   2.448   5.569  0.4648 -0.7299  1.7765
   16CHTO    N1 6736   5.976   2.457   5.765  0.1725 -0.0374  0.9129
   16CHTO    H8 6737   5.876   2.457   5.805 -1.0168 -3.0660 -1.8097
   16CHTO    H9 6738   6.031   2.385   5.824  0.1878 -0.0795  0.8469
   16CHTO    C4 6739   6.056   2.303   5.568 -0.2045 -0.1310  0.3495
   16CHTO   H17 6740   6.153   2.286   5.616  0.1368  1.1139  0.1030
   16CHTO    O1 6741   6.068   2.300   5.424 -0.1297 -0.0002  0.2668
   16CHTO    C5 6742   6.170   2.389   5.376  0.3468  0.1535 -0.0724
   16CHTO   H18 6743   6.266   2.369   5.423  0.6327  1.4884 -0.0651
   16CHTO   C16 6744   6.183   2.371   5.227  0.0137  0.3362  0.1261
   16CHTO   O11 6745   6.213   2.239   5.186  0.3972 -0.1693  0.3073
   16CHTO    H5 6746   6.160   2.204   5.117 -1.9915  1.1596  1.3997
   16CHTO    O3 6747   5.969   2.192   5.601 -0.0521  0.7261  0.2319
   16CHTO    C6 6748   6.029   2.061   5.635 -0.8931 -0.2310 -0.6402
   16CHTO   H19 6749   6.125   2.057   5.582 -1.7108 -3.0270 -1.9884
   16CHTO    C8 6750   6.065   2.043   5.790 -0.1716  0.5784  0.8158
   16CHTO   H21 6751   5.984   2.092   5.845  0.0889  1.0272  0.7947
   16CHTO    O7 6752   6.179   2.120   5.806  0.2460  0.4349 -0.2361
   16CHTO    H2 6753   6.236   2.080   5.869  1.3715  0.6819 -1.0800
   16CHTO   C12 6754   6.084   1.895   5.841  0.2735  0.4593  0.4486
   16CHTO   H25 6755   6.186   1.863   5.812  1.0067  2.2503  0.9786
   16CHTO    N3 6756   6.083   1.888   5.990  0.1172  0.3933 -0.8417
   16CHTO   H12 6757   6.146   1.959   6.042  1.5408  0.0863 -2.1047
   16CHTO   H13 6758   6.099   1.789   6.029  1.0566  0.9687  0.2813
   16CHTO   C15 6759   5.984   1.794   5.759 -0.0616 -0.2017  0.0760
   16CHTO   H28 6760   5.878   1.810   5.781 -1.2011 -1.4719 -4.1713
   16CHTO   O10 6761   6.019   1.641   5.799  0.4460 -0.0923 -0.2793
   16CHTO    H4 6762   5.948   1.589   5.768  0.6216 -1.2565  1.1878
   16CHTO    O5 6763   5.998   1.813   5.618  0.4294 -0.4824  0.5516
   16CHTO   C10 6764   5.947   1.942   5.579  0.3157  0.3884  0.2144
   16CHTO   H23 6765   5.841   1.940   5.603 -0.1919  0.0206 -1.9927
   16CHTO   C17 6766   5.950   1.932   5.425  0.0791 -0.6359 -0.5902
   16CHTO   O12 6767   5.858   2.017   5.360  0.3722  0.4840  0.4416
   16CHTO    H6 6768   5.881   2.108   5.349  1.0252  0.3137  0.3998
   17CHTO  H203 6769   6.616   4.545  -0.490 -0.7133 -0.1225 -1.0594
   17CHTO   O82 6770   6.581   4.583  -0.412  0.9134 -0.0275 -0.3505
   17CHTO  C123 6771   6.514   4.706  -0.441  0.3902  1.0071  0.2687
   17CHTO  H227 6772   6.406   4.683  -0.446  0.6028 -0.0498  0.4819
   17CHTO   O77 6773   6.533   4.780  -0.317  0.0152  0.1543  0.6314
   17CHTO  C118 6774   6.460   4.900  -0.320 -0.7630  0.7797  0.3825
   17CHTO  H222 6775   6.354   4.888  -0.345 -1.3147 -0.5935  3.1761
   17CHTO  C125 6776   6.472   4.935  -0.169  0.3386 -0.8848 -0.2021
   17CHTO   O84 6777   6.406   5.058  -0.137 -0.1012  0.1902  0.2606
   17CHTO  H205 6778   6.418   5.077  -0.046  1.5105  0.1099  0.0805
   17CHTO  C114 6779   6.524   4.998  -0.421 -0.0524 -0.4869 -0.1891
   17CHTO  H218 6780   6.630   5.009  -0.396 -0.2761  2.0645 -0.2216
   17CHTO  C116 6781   6.521   4.936  -0.565  0.7248 -0.0558  0.2704
   17CHTO  H220 6782   6.415   4.949  -0.594  1.3107 -0.1052 -2.0076
   17CHTO   O79 6783   6.598   5.022  -0.654  0.2161  0.6335  0.0512
   17CHTO  H201 6784   6.680   5.050  -0.618 -0.2560  1.1049  0.7742
   17CHTO  C120 6785   6.567   4.779  -0.570 -0.3761  0.0096  0.4564
   17CHTO  H224 6786   6.677   4.782  -0.558 -0.1568 -1.1374 -1.0438
   17CHTO   N21 6787   6.531   4.707  -0.701 -0.1385  0.1232 -0.0286
   17CHTO  H211 6788   6.595   4.622  -0.715 -1.1582 -0.8907  1.3382
   17CHTO  H212 6789   6.541   4.775  -0.785  0.3996  1.6110  1.2241
   17CHTO   O75 6790   6.463   5.125  -0.393  0.2104  0.2729  0.6798
   17CHTO  C112 6791   6.506   5.254  -0.501 -0.5280  0.1679 -0.4509
   17CHTO  H216 6792   6.464   5.242  -0.601 -2.2007  0.6727  0.1663
   17CHTO   O73 6793   6.653   5.267  -0.504 -0.1254 -0.2891  0.0750
   17CHTO  C113 6794   6.692   5.390  -0.578 -0.5077  0.9256 -0.1352
   17CHTO  H217 6795   6.655   5.366  -0.680  1.3197 -0.6736 -0.4438
   17CHTO  C124 6796   6.843   5.400  -0.584 -0.1788 -0.3271 -0.3751
   17CHTO   O83 6797   6.911   5.294  -0.644 -0.2282 -0.1397  0.2262
   17CHTO  H204 6798   7.000   5.299  -0.615  0.4110  0.1736 -1.6804
   17CHTO  C109 6799   6.636   5.518  -0.515 -0.5003  0.0415  0.3763
   17CHTO  H213 6800   6.683   5.527  -0.416 -1.7719 -0.1346  1.0013
   17CHTO  C110 6801   6.482   5.512  -0.504 -0.2386  0.1509  0.2148
   17CHTO  H214 6802   6.434   5.524  -0.601  1.5366  0.1989 -0.6789
   17CHTO   O78 6803   6.439   5.624  -0.432 -0.2505  0.1949 -0.1166
   17CHTO  H200 6804   6.457   5.628  -0.340  0.3120  0.2224 -0.2212
   17CHTO  C111 6805   6.441   5.383  -0.432  0.4176 -0.7267  0.9876
   17CHTO  H215 6806   6.467   5.391  -0.325 -0.8762  0.2169  1.2463
   17CHTO   N19 6807   6.291   5.371  -0.433  0.1916 -0.7986  0.2359
   17CHTO  H207 6808   6.257   5.279  -0.477 -2.8532 -0.1178  1.0275
   17CHTO  H208 6809   6.263   5.382  -0.329  2.1883  1.5094  0.5762
   17CHTO   O74 6810   6.686   5.627  -0.594 -0.1660  0.1702 -0.2711
   17CHTO  C115 6811   6.774   5.737  -0.506  0.2754  0.5712 -0.2457
   17CHTO  H219 6812   6.814   5.692  -0.415 -0.5693  0.7317  0.2132
   17CHTO   O76 6813   6.899   5.796  -0.596  0.4771 -0.1719 -0.1705
   17CHTO  C122 6814   6.864   5.881  -0.706 -0.3701 -0.6570 -0.0105
   17CHTO  H226 6815   6.824   5.818  -0.785 -1.9082  1.0927 -0.6603
   17CHTO  C126 6816   6.993   5.960  -0.761 -0.0242 -0.4974 -0.1762
   17CHTO   O85 6817   7.091   5.877  -0.828  0.1643  0.1459  0.1853
   17CHTO  H206 6818   7.172   5.925  -0.830  1.2310 -1.6115  0.7624
   17CHTO  C121 6819   6.762   5.995  -0.668  0.2007  0.1724  0.2172
   17CHTO  H225 6820   6.810   6.092  -0.690 -0.7643  1.1254  2.1973
   17CHTO   O81 6821   6.652   5.992  -0.762  0.5714 -0.3960  0.3653
   17CHTO  H202 6822   6.589   5.925  -0.740  1.2125 -1.8561 -2.0778
   17CHTO  C119 6823   6.729   5.999  -0.515  0.0876 -0.4078  0.3228
   17CHTO  H223 6824   6.826   6.015  -0.468  0.4176 -1.6523  0.0784
   17CHTO  C117 6825   6.680   5.859  -0.462 -0.4483 -0.4099 -0.0716
   17CHTO  H221 6826   6.581   5.833  -0.500 -1.0596 -0.8256  1.7694
   17CHTO   N20 6827   6.654   5.865  -0.317 -0.8841 -0.4137  0.3364
   17CHTO  H209 6828   6.618   5.770  -0.279  0.0968 -0.5472  0.9558
   17CHTO  H210 6829   6.576   5.939  -0.305  0.3100  0.7184  1.2647
   17CHTO   O80 6830   6.650   6.121  -0.470 -0.4109  0.1924  0.1593
   17CHTO  C103 6831   6.722   6.239  -0.376 -0.9887 -0.0420  0.7992
   17CHTO  H190 6832   6.783   6.188  -0.301 -1.5494 -1.5146  0.2526
   17CHTO  C101 6833   6.799   6.343  -0.453  0.0993  0.6877 -0.0539
   17CHTO  H188 6834   6.742   6.370  -0.541 -0.1054 -1.5741 -0.6561
   17CHTO   O68 6835   6.938   6.261  -0.491  0.5853 -0.8691  0.0274
   17CHTO  H168 6836   6.962   6.281  -0.579  0.5069  0.7231  0.3529
   17CHTO   C99 6837   6.845   6.472  -0.366 -0.9700  0.1728  0.2649
   17CHTO  H186 6838   6.918   6.440  -0.289 -1.0752 -0.5260  0.0774
   17CHTO   N17 6839   6.909   6.582  -0.444 -0.1329  0.2452  0.4290
   17CHTO  H174 6840   6.990   6.629  -0.390  2.3860 -2.9583 -0.3916
   17CHTO  H175 6841   6.931   6.553  -0.546 -2.3111  1.7648 -0.5151
   17CHTO   C97 6842   6.726   6.517  -0.279 -0.2909  0.2993  0.2206
   17CHTO  H184 6843   6.648   6.554  -0.347  0.9586  3.6814  0.5037
   17CHTO   O64 6844   6.679   6.408  -0.202 -0.3674  0.2083 -0.3284
   17CHTO  C104 6845   6.611   6.310  -0.289 -0.1189  0.3812  0.8785
   17CHTO  H191 6846   6.546   6.364  -0.357 -0.6885  0.9243  1.8478
   17CHTO  C108 6847   6.526   6.202  -0.211 -0.3604  0.8354 -0.0923
   17CHTO   O71 6848   6.410   6.261  -0.142  0.6308  0.2709  0.1361
   17CHTO  H171 6849   6.394   6.230  -0.055  0.3353  0.8926  0.3063
   17CHTO   O62 6850   6.755   6.626  -0.187  0.0647  0.0243 -0.8562
   17CHTO   C91 6851   6.655   6.699  -0.106 -0.3629 -0.3087  0.6591
   17CHTO  H178 6852   6.559   6.669  -0.148  0.9017 -1.4566 -1.5185
   17CHTO   C92 6853   6.687   6.851  -0.127 -0.0540  0.8166 -0.2735
   17CHTO  H179 6854   6.698   6.877  -0.233 -0.6755  2.0825 -0.0491
   17CHTO   O66 6855   6.578   6.932  -0.072  0.5342 -0.2009  0.3924
   17CHTO  H166 6856   6.593   6.940   0.021 -0.6209 -0.1387  0.5748
   17CHTO   C93 6857   6.822   6.893  -0.054  0.2837 -0.2502  0.2462
   17CHTO  H180 6858   6.816   7.001  -0.037 -0.3877 -0.4974  1.6761
   17CHTO   N16 6859   6.950   6.874  -0.134  0.0108  0.5277 -0.0259
   17CHTO  H172 6860   6.993   6.777  -0.112 -1.2914  0.5248  2.6250
   17CHTO  H173 6861   6.919   6.885  -0.237 -1.8942 -1.3769  0.2829
   17CHTO   C94 6862   6.822   6.820   0.091 -0.1718  0.0153 -0.4684
   17CHTO  H181 6863   6.889   6.734   0.096 -0.1171 -0.0149 -1.6782
   17CHTO   O61 6864   6.699   6.767   0.132 -0.3119  0.4891  0.0986
   17CHTO   C95 6865   6.660   6.654   0.047 -0.2345  0.4214 -0.0217
   17CHTO  H182 6866   6.736   6.576   0.055  0.8122  1.4036 -0.1959
   17CHTO  C106 6867   6.525   6.593   0.109  0.5967  0.3661  0.3933
   17CHTO   O69 6868   6.505   6.460   0.062  0.6923 -0.2701  0.4087
   17CHTO  H169 6869   6.573   6.404   0.028 -0.0439 -1.5039  0.9485
   17CHTO   O63 6870   6.865   6.922   0.196 -0.0048 -0.1185  0.3267
   17CHTO   C96 6871   6.734   7.031   0.265  0.0261 -0.0828 -0.3420
   17CHTO  H183 6872   6.641   6.991   0.223 -0.5366  0.4820  0.3584
   17CHTO   C98 6873   6.736   7.184   0.240  0.3022 -0.7825  0.3250
   17CHTO  H185 6874   6.832   7.223   0.278 -1.7240  0.6840  4.1703
   17CHTO   O67 6875   6.746   7.206   0.101  0.8325  0.5093 -0.3354
   17CHTO  H167 6876   6.754   7.294   0.068 -3.9495  0.6945 -1.4911
   17CHTO  C102 6877   6.615   7.266   0.306  0.0127 -0.4156 -0.2551
   17CHTO  H189 6878   6.526   7.240   0.246  1.6056  0.1681 -2.9763
   17CHTO   N18 6879   6.635   7.414   0.306 -0.1732  0.2051  0.8994
   17CHTO  H176 6880   6.598   7.468   0.392  1.3396  1.7086  0.6498
   17CHTO  H177 6881   6.740   7.442   0.298  0.0213 -0.8519 -0.4035
   17CHTO  C105 6882   6.595   7.215   0.454 -0.2935 -0.2234  0.1137
   17CHTO  H192 6883   6.675   7.245   0.520  0.7244  0.2200 -1.2867
   17CHTO   O65 6884   6.598   7.069   0.465 -0.0439 -0.0523  0.3372
   17CHTO  C100 6885   6.719   7.007   0.419 -0.2620 -0.5298 -0.1348
   17CHTO  H187 6886   6.806   7.053   0.469  0.5434 -3.1654  0.9775
   17CHTO  C107 6887   6.728   6.861   0.455 -0.4344  0.1050  0.1486
   17CHTO   O70 6888   6.611   6.787   0.432  0.4846 -0.2824 -0.2474
   17CHTO  H170 6889   6.578   6.775   0.345 -0.7716 -0.6078  0.2569
   17CHTO   O57 6890   6.460   7.262   0.518 -0.2525  0.3892 -0.1850
   17CHTO   C85 6891   6.455   7.358   0.627  0.6246 -0.0041  0.2157
   17CHTO  H157 6892   6.556   7.402   0.617  1.2400 -1.6180 -1.0526
   17CHTO   C83 6893   6.464   7.282   0.764  0.6452 -0.0356 -0.0288
   17CHTO  H155 6894   6.552   7.217   0.761  1.1356  0.6944 -2.0898
   17CHTO   O56 6895   6.350   7.191   0.780  0.1426  0.1453  0.7848
   17CHTO  H135 6896   6.273   7.230   0.742  0.5593 -0.5324 -0.8291
   17CHTO   C81 6897   6.485   7.389   0.874  0.1231 -0.3826  0.0651
   17CHTO  H153 6898   6.577   7.444   0.852 -0.4175  0.6238  0.2538
   17CHTO   N14 6899   6.522   7.332   1.009 -0.2816  1.5794  0.1968
   17CHTO  H141 6900   6.449   7.260   1.040  0.3721  0.6927 -0.2735
   17CHTO  H142 6901   6.616   7.282   1.000 -1.1371  0.2586 -1.8193
   17CHTO   C79 6902   6.363   7.486   0.885 -0.1135  0.4330 -0.9403
   17CHTO  H151 6903   6.387   7.560   0.961 -0.7306  1.5723 -1.8485
   17CHTO   O52 6904   6.346   7.550   0.757 -0.0122 -0.3160 -0.2514
   17CHTO   C86 6905   6.337   7.463   0.634 -1.0225 -0.3625 -0.6770
   17CHTO  H158 6906   6.239   7.411   0.637 -2.3124  2.0495  3.2965
   17CHTO   C90 6907   6.339   7.558   0.505  0.0427  0.1130 -0.4539
   17CHTO   O60 6908   6.332   7.492   0.377 -0.1808 -0.3134  0.1670
   17CHTO  H138 6909   6.339   7.561   0.315  2.4896  0.2685  1.0065
   17CHTO   O50 6910   6.238   7.428   0.929  0.4769  0.3962  0.4828
   17CHTO   C73 6911   6.113   7.484   0.961  1.3298 -0.2934  0.3249
   17CHTO  H145 6912   6.104   7.590   0.933 -2.6913 -0.0398  2.3349
   17CHTO   C74 6913   6.104   7.491   1.114  0.1683  0.2715 -0.7617
   17CHTO  H146 6914   6.181   7.555   1.159  1.4395 -1.9030  0.2276
   17CHTO   O54 6915   5.985   7.553   1.158 -0.0542  0.1054 -0.4894
   17CHTO  H133 6916   5.908   7.504   1.136  0.6258 -1.6527  0.8557
   17CHTO   C75 6917   6.112   7.344   1.177  0.0701 -0.4976  0.1840
   17CHTO  H147 6918   6.209   7.303   1.143 -0.2911  0.2302 -1.7669
   17CHTO   N13 6919   6.090   7.336   1.327  0.1892  0.1860 -0.8043
   17CHTO  H139 6920   6.186   7.319   1.375  0.4714 -2.7485 -2.2365
   17CHTO  H140 6921   6.031   7.422   1.353 -0.3060 -0.6706  0.9505
   17CHTO   C76 6922   6.010   7.240   1.105 -0.2974 -0.7272  0.4391
   17CHTO  H148 6923   5.910   7.264   1.141 -0.5375 -0.2192 -0.5345
   17CHTO   O49 6924   6.000   7.266   0.961  0.2539 -0.0251  0.0822
   17CHTO   C77 6925   5.994   7.402   0.911 -0.3061  0.5064 -0.4074
   17CHTO  H149 6926   5.897   7.438   0.946 -1.1122 -0.1604 -1.8937
   17CHTO   C88 6927   5.983   7.402   0.757  0.4345 -0.0127  1.0001
   17CHTO   O58 6928   5.933   7.529   0.717  0.1624 -0.0423  0.5974
   17CHTO  H136 6929   5.999   7.594   0.732 -1.2540  1.8125 -1.1067
   17CHTO   O51 6930   6.037   7.095   1.130 -0.4722  0.1943  0.5527
   17CHTO   C78 6931   5.936   7.011   1.071 -0.2247 -0.1067  0.0074
   17CHTO  H150 6932   5.873   7.065   0.998 -0.8390  1.5267  1.6894
   17CHTO   C80 6933   5.847   6.949   1.182 -0.3030  0.1696 -0.5181
   17CHTO  H152 6934   5.912   6.902   1.258  0.8964  1.2190 -0.8812
   17CHTO   O55 6935   5.778   7.056   1.250 -0.0723 -0.0712 -0.1358
   17CHTO  H134 6936   5.834   7.131   1.261  2.1298 -2.0868  3.1144
   17CHTO   C84 6937   5.746   6.832   1.129  0.3155 -0.2873 -1.0378
   17CHTO  H156 6938   5.681   6.880   1.056 -1.6906 -0.3543  0.6279
   17CHTO   N15 6939   5.674   6.769   1.242 -0.1111 -0.6601  0.2081
   17CHTO  H143 6940   5.623   6.847   1.294 -1.2698 -1.0541 -0.3138
   17CHTO  H144 6941   5.743   6.721   1.308 -0.8671 -1.0520  0.7314
   17CHTO   C87 6942   5.835   6.734   1.048  0.3829  0.1844  0.2203
   17CHTO  H159 6943   5.901   6.692   1.125 -2.0110 -1.0318  1.6871
   17CHTO   O53 6944   5.913   6.813   0.941 -0.2029  0.0053 -0.4600
   17CHTO   C82 6945   6.010   6.903   0.989  0.1002 -0.3347  0.4529
   17CHTO  H154 6946   6.075   6.844   1.054 -0.0632 -2.3371 -1.1679
   17CHTO   C89 6947   6.097   6.952   0.871 -1.0352 -0.2079 -0.3313
   17CHTO   O59 6948   6.025   7.020   0.765  0.5609 -0.1613  0.1493
   17CHTO  H137 6949   6.001   7.110   0.774  0.0334  0.0495 -2.8154
   17CHTO   O45 6950   5.742   6.634   0.971 -0.3704  0.1345 -0.0325
   17CHTO   C67 6951   5.794   6.527   0.892 -0.7665  0.0070  0.0108
   17CHTO  H124 6952   5.895   6.502   0.924 -0.9941 -1.6154 -0.4892
   17CHTO   C65 6953   5.698   6.400   0.897  0.4688  0.0760  0.2466
   17CHTO  H122 6954   5.660   6.402   0.999  1.6471  0.8549  0.6889
   17CHTO   O44 6955   5.788   6.287   0.883  0.0573 -0.3813  0.0800
   17CHTO  H102 6956   5.781   6.232   0.959  1.2461  0.1166  0.5554
   17CHTO   C63 6957   5.575   6.415   0.805 -0.1276  0.0685 -0.4141
   17CHTO  H120 6958   5.518   6.502   0.837  1.8602  1.4971 -0.6065
   17CHTO   N11 6959   5.489   6.296   0.820  0.0495  0.0909 -0.0876
   17CHTO  H108 6960   5.524   6.216   0.758 -1.1378  1.1539 -2.1545
   17CHTO  H109 6961   5.483   6.273   0.925 -0.7227  1.8611  0.2818
   17CHTO   C61 6962   5.624   6.435   0.657 -0.0479  0.1695  0.0879
   17CHTO  H118 6963   5.537   6.454   0.592  0.8117  0.0657 -1.1163
   17CHTO   O40 6964   5.709   6.553   0.646  0.1502 -0.2280  0.1998
   17CHTO   C68 6965   5.821   6.556   0.739  0.0822 -0.4721  0.1174
   17CHTO  H125 6966   5.849   6.663   0.746  0.9629 -0.7621  1.0753
   17CHTO   C72 6967   5.949   6.484   0.694 -0.8888  0.8475 -0.6303
   17CHTO   O48 6968   6.004   6.523   0.571  0.0894  0.3575  0.6204
   17CHTO  H105 6969   5.970   6.472   0.499  2.3371 -2.5660  1.5419
   17CHTO   O38 6970   5.699   6.322   0.600  0.0790  0.0185  0.4845
   17CHTO   C55 6971   5.693   6.283   0.460 -0.3143 -0.0631  0.4288
   17CHTO  H112 6972   5.758   6.198   0.436  1.4885  1.4204 -0.0706
   17CHTO   C56 6973   5.711   6.401   0.352  0.6411  0.4526 -0.0878
   17CHTO  H113 6974   5.649   6.488   0.377  3.0911  1.9091  1.1314
   17CHTO   O42 6975   5.846   6.442   0.361 -0.4954  0.3466 -0.1218
   17CHTO  H100 6976   5.840   6.525   0.317  0.3873  0.9248  0.8408
   17CHTO   C57 6977   5.676   6.349   0.207  0.2657  0.7011 -0.2961
   17CHTO  H114 6978   5.750   6.272   0.184 -0.3332  0.6127 -1.9463
   17CHTO   N10 6979   5.694   6.438   0.093 -0.5588 -0.1720 -0.4011
   17CHTO  H106 6980   5.711   6.380   0.004  1.9800 -2.4330  1.4719
   17CHTO  H107 6981   5.781   6.500   0.111 -0.0018 -1.3859  1.2206
   17CHTO   C58 6982   5.534   6.291   0.202  0.2274  0.2656  0.1380
   17CHTO  H115 6983   5.465   6.375   0.225  1.7757  1.1252  1.7423
   17CHTO   O37 6984   5.517   6.192   0.300  0.2936  0.2740 -0.3048
   17CHTO   C59 6985   5.549   6.221   0.435  0.2158 -0.1570  0.1318
   17CHTO  H116 6986   5.479   6.296   0.472 -0.4830  0.4175 -2.2695
   17CHTO   C70 6987   5.522   6.095   0.516  0.2914 -0.3674 -0.7999
   17CHTO   O46 6988   5.599   5.983   0.464 -0.4446 -0.0123  0.5537
   17CHTO  H103 6989   5.561   5.905   0.500 -2.9319 -0.0279 -1.9116
   17CHTO   O39 6990   5.485   6.218   0.051  0.9888  0.0765  0.1120
   17CHTO   C60 6991   5.357   6.256   0.010  0.8080 -0.2476 -0.2858
   17CHTO  H117 6992   5.320   6.330   0.081 -0.3568 -1.0761 -0.0153
   17CHTO   C62 6993   5.347   6.318  -0.132  0.1726  0.2757  0.7801
   17CHTO  H119 6994   5.422   6.399  -0.141  0.8706 -0.5130 -0.9254
   17CHTO   O43 6995   5.392   6.218  -0.221 -0.8287  0.6087  0.1992
   17CHTO  H101 6996   5.481   6.192  -0.215 -0.1521  1.4182 -4.4812
   17CHTO   C66 6997   5.204   6.370  -0.162  0.2661  0.1322 -0.1471
   17CHTO  H123 6998   5.185   6.457  -0.099  0.9921 -0.5400  1.0132
   17CHTO   N12 6999   5.189   6.440  -0.294  0.2750  0.4105  0.2033
   17CHTO  H110 7000   5.098   6.416  -0.347 -0.9671  1.3825  1.8167
   17CHTO  H111 7001   5.225   6.542  -0.304  1.8387 -0.4054 -2.9870
   17CHTO   C69 7002   5.094   6.255  -0.147  0.8733  0.0991 -0.1882
   17CHTO  H126 7003   5.115   6.177  -0.223  1.9754  1.2538 -1.1039
   17CHTO   O41 7004   5.112   6.187  -0.013 -0.0680 -0.9493  0.1000
   17CHTO   C64 7005   5.261   6.133   0.023  0.0082  0.5576 -0.4933
   17CHTO  H121 7006   5.284   6.048  -0.045  1.2241 -0.5297  1.2197
   17CHTO   C71 7007   5.259   6.075   0.174 -0.0356 -0.5780 -0.1251
   17CHTO   O47 7008   5.200   6.180   0.260 -0.0987  0.2016  0.1619
   17CHTO  H104 7009   5.191   6.139   0.344 -1.8422 -0.2323 -0.2326
   17CHTO   O34 7010   4.941   6.307  -0.154  0.0841 -0.1575  0.0965
   17CHTO   C49 7011   4.795   6.367  -0.098 -0.5049  0.2145  0.2246
   17CHTO   H91 7012   4.770   6.462  -0.145 -1.3000 -0.2533 -0.3090
   17CHTO   C47 7013   4.812   6.405   0.052 -0.6041 -0.3411 -0.2940
   17CHTO   H89 7014   4.717   6.459   0.070 -1.8182 -2.3482 -0.4433
   17CHTO   O33 7015   4.921   6.497   0.062  0.7431 -0.0933 -0.2971
   17CHTO   H70 7016   4.927   6.530   0.150  0.7483  2.5269 -1.2646
   17CHTO   C45 7017   4.831   6.279   0.148  0.4532 -0.7120  0.4536
   17CHTO   H87 7018   4.937   6.260   0.171  0.5143  0.3294  1.0736
   17CHTO    N8 7019   4.764   6.311   0.276  0.9905 -0.5149  0.0205
   17CHTO   H75 7020   4.817   6.375   0.345  2.3453 -0.1463 -1.3319
   17CHTO   H76 7021   4.745   6.221   0.332  0.3534 -0.6984 -0.4925
   17CHTO   C43 7022   4.780   6.142   0.076  0.4262  0.3836 -0.8463
   17CHTO   H85 7023   4.867   6.109   0.019  1.2421  1.8784 -0.4995
   17CHTO   O29 7024   4.664   6.173  -0.008 -0.1613 -0.2123  0.0248
   17CHTO   C50 7025   4.681   6.272  -0.113 -0.6840 -0.1343 -0.4305
   17CHTO   H92 7026   4.686   6.231  -0.215 -0.6384  1.2512 -0.9960
   17CHTO   C54 7027   4.546   6.340  -0.116 -0.0898 -0.0139  0.7263
   17CHTO   O36 7028   4.515   6.415  -0.231  0.3034  0.1141 -0.2896
   17CHTO   H72 7029   4.431   6.456  -0.235  0.9175  1.3398 -1.0333
   17CHTO   O27 7030   4.749   6.037   0.167  0.8291 -0.3592  0.2063
   17CHTO   C37 7031   4.821   5.934   0.225 -0.3568 -0.4086  0.1588
   17CHTO   H79 7032   4.913   5.973   0.270 -0.7454  1.1385 -0.3310
   17CHTO   C38 7033   4.734   5.873   0.342  0.3505  0.4706  0.2094
   17CHTO   H80 7034   4.641   5.832   0.300  1.0412 -1.0675  0.1386
   17CHTO   O31 7035   4.720   5.979   0.437 -0.1580  0.6355 -0.2454
   17CHTO   H68 7036   4.666   6.042   0.393  0.4064  0.2167 -1.5736
   17CHTO   C39 7037   4.792   5.748   0.421  0.3438 -0.6983 -0.3201
   17CHTO   H81 7038   4.870   5.794   0.482 -0.1964 -0.5532  0.2666
   17CHTO    N7 7039   4.706   5.680   0.524  0.0238  0.7925  0.1738
   17CHTO   H73 7040   4.766   5.603   0.569 -0.0515 -0.6323 -2.0831
   17CHTO   H74 7041   4.629   5.623   0.474 -0.3330 -0.4643  2.1178
   17CHTO   C40 7042   4.840   5.649   0.303 -0.1859  0.2243 -0.3741
   17CHTO   H82 7043   4.750   5.608   0.255  0.6634 -1.7369 -0.3675
   17CHTO   O26 7044   4.927   5.717   0.201  0.4552 -0.3950  0.5186
   17CHTO   C41 7045   4.855   5.821   0.124  0.1261  0.2773  0.0575
   17CHTO   H83 7046   4.761   5.774   0.091  0.2818 -1.2207  1.6265
   17CHTO   C52 7047   4.940   5.843  -0.005 -0.6934 -0.4658 -0.0459
   17CHTO   O35 7048   4.964   5.730  -0.089 -0.3020 -0.6040 -0.1558
   17CHTO   H71 7049   5.042   5.685  -0.062  1.1924  0.5088 -2.4377
   17CHTO   O28 7050   4.909   5.531   0.352 -0.1122 -0.9460  0.1153
   17CHTO   C42 7051   5.055   5.515   0.334 -0.2411 -0.4057  0.3510
   17CHTO   H84 7052   5.069   5.428   0.398 -0.4859 -0.6439  0.0810
   17CHTO   C44 7053   5.134   5.629   0.396  0.2071  0.2623 -0.7170
   17CHTO   H86 7054   5.079   5.722   0.379 -0.7210 -0.4373 -1.5977
   17CHTO   O32 7055   5.134   5.614   0.539 -0.3355 -0.4441  0.2058
   17CHTO   H69 7056   5.138   5.521   0.547 -0.7760 -0.5459 -0.6703
   17CHTO   C48 7057   5.287   5.642   0.348  0.0286 -0.0650  0.0812
   17CHTO   H90 7058   5.350   5.567   0.395  0.8610 -0.0181 -0.9343
   17CHTO    N9 7059   5.344   5.773   0.389  0.0174  0.5937  0.0128
   17CHTO   H77 7060   5.297   5.853   0.334 -0.9423 -0.4440 -0.6929
   17CHTO   H78 7061   5.318   5.788   0.493 -0.5967  0.1161 -0.0694
   17CHTO   C51 7062   5.299   5.608   0.195  0.9768  0.1891 -0.0592
   17CHTO   H93 7063   5.249   5.683   0.135  3.0582  1.4821 -0.2511
   17CHTO   O30 7064   5.242   5.475   0.184  0.6456 -0.2951  0.4216
   17CHTO   C46 7065   5.107   5.474   0.192  0.9614  0.8866 -0.2841
   17CHTO   H88 7066   5.065   5.537   0.113  0.4700 -0.0218 -0.7652
   17CHTO   C53 7067   5.061   5.321   0.169  0.2368  0.2327 -0.1708
   17CHTO   O72 7068   5.114   5.283   0.043  0.0706 -0.2241 -0.0011
   17CHTO  H199 7069   5.102   5.190   0.040  1.6253 -0.3992 -0.9075
   17CHTO   O22 7070   5.429   5.583   0.135 -0.7622 -0.5009  0.5340
   17CHTO   C31 7071   5.487   5.656   0.021 -0.0881  0.5900  0.2487
   17CHTO   H59 7072   5.566   5.589  -0.020 -1.7244 -1.2272  0.0025
   17CHTO   C29 7073   5.407   5.702  -0.103 -0.2709 -0.8732  0.7266
   17CHTO   H57 7074   5.324   5.768  -0.073 -0.0776  0.3064 -1.2160
   17CHTO   O21 7075   5.341   5.584  -0.160  0.6522  0.0093 -1.0684
   17CHTO   H37 7076   5.404   5.520  -0.185  1.0614 -0.2250  0.5247
   17CHTO   C27 7077   5.493   5.779  -0.207  0.6717  0.1827 -0.1862
   17CHTO   H55 7078   5.568   5.708  -0.247 -1.3662 -1.4290 -1.2220
   17CHTO    N5 7079   5.411   5.830  -0.321  0.4034 -0.3020 -0.4321
   17CHTO   H43 7080   5.472   5.855  -0.408  1.9550 -1.8914  0.1656
   17CHTO   H44 7081   5.336   5.904  -0.300 -0.0958 -0.9628  0.0969
   17CHTO   C25 7082   5.570   5.895  -0.134 -0.1644 -0.4772  1.0504
   17CHTO   H53 7083   5.502   5.974  -0.100 -0.2516 -0.9179  1.9406
   17CHTO   O17 7084   5.643   5.843  -0.024 -0.2176  0.1211  0.0750
   17CHTO   C32 7085   5.567   5.773   0.078  0.1986 -0.3962  0.7525
   17CHTO   H60 7086   5.503   5.850   0.122  1.8354  1.0342  0.6991
   17CHTO   C36 7087   5.664   5.726   0.194 -0.6708 -0.2207 -0.2224
   17CHTO   O25 7088   5.749   5.825   0.247  0.8929  0.2077  0.3025
   17CHTO   H40 7089   5.821   5.848   0.193 -0.4082 -1.8560 -2.3951
   17CHTO   O15 7090   5.678   5.962  -0.209  0.2507  0.4387  0.0502
   17CHTO   C19 7091   5.776   6.050  -0.245 -1.2097 -0.3544  0.3086
   17CHTO   H47 7092   5.859   5.988  -0.282 -0.6852  0.1384  0.6517
   17CHTO   C20 7093   5.748   6.155  -0.353 -0.6171 -0.3402  0.1125
   17CHTO   H48 7094   5.662   6.219  -0.325  1.4738  3.0204 -0.7855
   17CHTO   O19 7095   5.712   6.084  -0.475 -0.1737  0.2420  0.0008
   17CHTO   H35 7096   5.624   6.054  -0.468  0.1078 -0.4165  0.8286
   17CHTO   C21 7097   5.875   6.246  -0.379  0.1000  0.4699  0.7973
   17CHTO   H49 7098   5.960   6.183  -0.404  1.1422  3.7246 -4.7249
   17CHTO    N4 7099   5.855   6.340  -0.489  0.0793  0.0187 -0.1362
   17CHTO   H41 7100   5.945   6.336  -0.548  0.9461  0.6692  1.1466
   17CHTO   H42 7101   5.840   6.442  -0.458  4.0455  0.4577  0.5376
   17CHTO   C22 7102   5.920   6.312  -0.249 -0.3338 -0.0866  0.6928
   17CHTO   H50 7103   5.839   6.376  -0.214 -0.8686 -0.5441  0.2859
   17CHTO   O14 7104   5.947   6.206  -0.156  0.1952 -0.1418 -0.1300
   17CHTO   C23 7105   5.832   6.124  -0.124  0.2815  0.0181 -0.0623
   17CHTO   H51 7106   5.761   6.195  -0.079  2.0097  1.6885  0.1090
   17CHTO   C34 7107   5.890   6.027  -0.013 -0.4225  0.0468 -0.3915
   17CHTO   O23 7108   5.915   6.100   0.106  0.7717  0.2707 -0.7517
   17CHTO   H38 7109   5.832   6.131   0.137  0.5060  0.4867 -1.6607
   17CHTO   O16 7110   6.039   6.390  -0.251  0.5075  0.2673  0.3899
   17CHTO   C24 7111   6.018   6.539  -0.152  0.0968  0.7070  0.5356
   17CHTO   H52 7112   5.933   6.531  -0.085 -2.3876  1.2497 -2.4283
   17CHTO   C26 7113   5.995   6.667  -0.240 -1.1371  0.2640 -0.4135
   17CHTO   H54 7114   6.082   6.673  -0.308 -0.0806  0.3677  0.9148
   17CHTO   O20 7115   5.877   6.644  -0.324 -0.2254  0.4838  0.0365
   17CHTO   H36 7116   5.798   6.655  -0.276 -0.6586 -0.0690 -0.5510
   17CHTO   C30 7117   5.984   6.793  -0.154 -0.0655 -0.0745 -0.3507
   17CHTO   H58 7118   5.900   6.787  -0.083  0.8835 -2.6860  0.6402
   17CHTO    N6 7119   5.971   6.917  -0.236 -0.0364 -0.0080 -0.0542
   17CHTO   H45 7120   5.896   6.901  -0.312  0.5446  1.0444 -0.8583
   17CHTO   H46 7121   5.940   6.996  -0.169  1.6865  0.2077  0.5093
   17CHTO   C33 7122   6.106   6.808  -0.055 -0.5363  0.5274 -0.3322
   17CHTO   H61 7123   6.194   6.834  -0.115  0.4702  0.4310  1.0991
   17CHTO   O18 7124   6.127   6.678   0.010 -0.3445  0.0118  0.5240
   17CHTO   C28 7125   6.146   6.554  -0.068 -0.2794 -0.7908 -0.2204
   17CHTO   H56 7126   6.233   6.568  -0.133 -1.3455 -0.7138 -1.6705
   17CHTO   C35 7127   6.170   6.434   0.029  0.7127 -0.2002 -0.1113
   17CHTO   O24 7128   6.057   6.379   0.088 -0.5792  0.1615 -0.2213
   17CHTO   H39 7129   6.086   6.309   0.142  0.4114  0.2944 -0.5683
   17CHTO    O9 7130   6.087   6.917   0.042 -0.3889  0.4230 -0.0819
   17CHTO   C13 7131   6.242   6.954   0.128 -0.1893 -0.1167 -0.3550
   17CHTO   H26 7132   6.324   6.917   0.064 -0.0165 -0.3262 -0.0115
   17CHTO   C11 7133   6.250   6.889   0.280  0.1760 -0.6445 -0.3064
   17CHTO   H24 7134   6.339   6.824   0.282  0.8941  0.3098 -0.5298
   17CHTO    O8 7135   6.141   6.798   0.301  0.1896 -0.2363 -0.4469
   17CHTO    H3 7136   6.170   6.713   0.326  1.8016  0.4558  0.0924
   17CHTO    C9 7137   6.267   7.003   0.385  0.1207  0.3626 -0.0979
   17CHTO   H22 7138   6.373   7.030   0.382 -0.2018  1.7600  0.7034
   17CHTO    N2 7139   6.247   6.971   0.524  0.2100 -0.5647 -0.1591
   17CHTO   H10 7140   6.293   7.048   0.584  0.2672  1.0113 -2.2090
   17CHTO   H11 7141   6.286   6.873   0.550  1.2214 -0.1696 -0.1517
   17CHTO    C7 7142   6.172   7.125   0.342 -0.8709 -0.2050  0.2344
   17CHTO   H20 7143   6.180   7.199   0.424  3.0276 -1.5427  1.1948
   17CHTO    O4 7144   6.219   7.193   0.222  0.3566 -0.2883  0.1090
   17CHTO   C14 7145   6.277   7.113   0.123 -0.2224 -0.0102 -0.2603
   17CHTO   H27 7146   6.386   7.118   0.142  0.0129 -0.1873 -1.4929
   17CHTO   C18 7147   6.249   7.180  -0.010 -0.3785  0.4152  0.2953
   17CHTO   O13 7148   6.315   7.306  -0.018 -0.2743 -0.1467  0.1465
   17CHTO    H7 7149   6.260   7.371   0.022  0.5614  1.8652 -1.9194
   17CHTO    O2 7150   6.023   7.084   0.312  0.1431  0.2526  0.1398
   17CHTO    C1 7151   5.937   7.096   0.429  0.1398 -0.1599  0.5794
   17CHTO   H14 7152   5.995   7.126   0.518  1.8190 -2.6347  0.3602
   17CHTO    C2 7153   5.856   6.958   0.469 -0.1964  0.3593 -0.2362
   17CHTO   H15 7154   5.818   6.908   0.378  0.4414 -2.4038  0.9570
   17CHTO    O6 7155   5.950   6.864   0.525 -0.0633 -0.1892 -0.2060
   17CHTO    H1 7156   5.980   6.896   0.608  2.2366  2.2259 -1.8839
   17CHTO    C3 7157   5.736   6.980   0.572 -0.1821 -0.4215  0.3906
   17CHTO   H16 7158   5.781   6.983   0.673  2.0601  0.3280 -0.6016
   17CHTO    N1 7159   5.644   6.861   0.587  0.3229 -0.1553 -0.2894
   17CHTO    H8 7160   5.697   6.786   0.644  0.8129 -0.6755 -1.4148
   17CHTO    H9 7161   5.606   6.829   0.492  0.9227 -0.3587 -0.4657
   17CHTO    C4 7162   5.663   7.118   0.546  0.5097 -0.4992 -0.2978
   17CHTO   H17 7163   5.591   7.103   0.466  0.7543  0.7960 -0.7664
   17CHTO    O1 7164   5.753   7.225   0.515  0.2422 -0.1159  0.1494
   17CHTO    C5 7165   5.828   7.205   0.398 -0.5339  0.2859  0.5222
   17CHTO   H18 7166   5.774   7.178   0.307 -0.9828  2.5770  0.0616
   17CHTO   C16 7167   5.900   7.337   0.377 -0.0638  0.6082 -0.3132
   17CHTO   O11 7168   5.824   7.463   0.389  0.0587  0.0288 -0.3142
   17CHTO    H5 7169   5.860   7.549   0.398 -0.2738  0.1491 -0.0981
   17CHTO    O3 7170   5.595   7.145   0.671 -0.1846 -0.0677  0.3129
   17CHTO    C6 7171   5.556   7.287   0.706 -0.5182 -0.3550 -1.2034
   17CHTO   H19 7172   5.640   7.352   0.680 -0.8366  0.0466 -1.2178
   17CHTO    C8 7173   5.419   7.349   0.641  0.5461  0.2206 -0.4906
   17CHTO   H21 7174   5.334   7.284   0.661  0.4956  0.7798  1.1714
   17CHTO    O7 7175   5.442   7.341   0.500 -0.1693 -0.4849  0.4915
   17CHTO    H2 7176   5.513   7.397   0.478 -0.4439 -1.2629 -2.5866
   17CHTO   C12 7177   5.408   7.503   0.691  0.3182 -0.0705 -0.6032
   17CHTO   H25 7178   5.501   7.550   0.653 -0.3648  1.3524 -0.5761
   17CHTO    N3 7179   5.294   7.583   0.632  0.5812 -0.7904  0.1748
   17CHTO   H12 7180   5.273   7.552   0.530  3.3184  0.4214 -0.8115
   17CHTO   H13 7181   5.203   7.567   0.688 -0.3362  1.2155 -0.7112
   17CHTO   C15 7182   5.416   7.509   0.846 -0.4703  0.7332  0.0620
   17CHTO   H28 7183   5.325   7.467   0.890 -0.2715 -0.6887 -0.8400
   17CHTO   O10 7184   5.441   7.653   0.904 -0.5516 -0.2722  0.2714
   17CHTO    H4 7185   5.517   7.696   0.869  0.5685 -2.3594  0.0615
   17CHTO    O5 7186   5.540   7.441   0.894  0.1710 -0.4122  0.6698
   17CHTO   C10 7187   5.542   7.298   0.858 -0.9575 -0.2194  0.1276
   17CHTO   H23 7188   5.451   7.255   0.901  0.6130 -0.1762  3.6492
   17CHTO   C17 7189   5.658   7.224   0.933  0.8964  0.3805 -1.2496
   17CHTO   O12 7190   5.631   7.216   1.074  0.0430  0.1236  0.3208
   17CHTO    H6 7191   5.660   7.128   1.093  1.7683  1.0279  2.0566
   18CHTO  H203 7192   6.544   8.072   1.533 -1.6503 -2.0399  1.5126
   18CHTO   O82 7193   6.542   8.022   1.454 -0.5334 -0.4798  0.4588
   18CHTO  C123 7194   6.636   7.913   1.452 -0.1669  0.1782  0.2736
   18CHTO  H227 7195   6.626   7.855   1.545 -0.1279 -1.4613 -0.7264
   18CHTO   O77 7196   6.594   7.824   1.342  0.1150  0.1201 -0.0925
   18CHTO  C118 7197   6.676   7.714   1.307  0.3959  0.6696 -0.4817
   18CHTO  H222 7198   6.700   7.646   1.390 -1.9317 -1.5192 -1.5714
   18CHTO  C125 7199   6.602   7.631   1.198  0.2751  0.0105 -0.1853
   18CHTO   O84 7200   6.580   7.689   1.068 -0.5496  0.3003 -0.2489
   18CHTO  H205 7201   6.562   7.779   1.086  0.2724  0.6478 -1.0520
   18CHTO  C114 7202   6.818   7.766   1.257 -0.1080 -0.6929  0.0221
   18CHTO  H218 7203   6.805   7.833   1.172 -2.1615 -1.9505 -0.6952
   18CHTO  C116 7204   6.884   7.854   1.368  0.1219 -0.8104  0.4357
   18CHTO  H220 7205   6.936   7.790   1.442  0.0595 -0.1708  1.0323
   18CHTO   O79 7206   6.987   7.931   1.295 -0.2844  0.1315  0.1859
   18CHTO  H201 7207   7.040   7.969   1.363  0.8442  0.1615 -0.6885
   18CHTO  C120 7208   6.779   7.961   1.426  0.4553  0.0579 -0.3249
   18CHTO  H224 7209   6.781   8.049   1.360  2.0636 -1.4552 -2.3615
   18CHTO   N21 7210   6.846   7.997   1.556 -0.2483 -0.9737  0.0581
   18CHTO  H211 7211   6.792   8.083   1.593  1.0722 -0.3431  0.5629
   18CHTO  H212 7212   6.947   8.032   1.537 -0.1127 -0.5201  1.5549
   18CHTO   O75 7213   6.891   7.647   1.208  0.1708 -0.4388  0.0755
   18CHTO  C112 7214   7.049   7.632   1.205 -0.1404 -0.2346 -0.4406
   18CHTO  H216 7215   7.103   7.655   1.298 -1.8455 -2.3289  1.1119
   18CHTO   O73 7216   7.095   7.712   1.094 -0.2397  0.1528 -0.1863
   18CHTO  C113 7217   7.235   7.701   1.062 -0.2990  0.1572 -0.0591
   18CHTO  H217 7218   7.301   7.702   1.151  0.0698 -1.2633 -0.3160
   18CHTO  C124 7219   7.272   7.823   0.976 -0.4075  0.2597  0.2917
   18CHTO   O83 7220   7.250   7.940   1.049 -0.4675 -0.1604 -0.3300
   18CHTO  H204 7221   7.253   7.924   1.142  0.1804 -1.8672 -0.6181
   18CHTO  C109 7222   7.251   7.565   0.990  0.3426 -0.1790  0.1145
   18CHTO  H213 7223   7.178   7.565   0.907  0.3011  0.1337  0.1497
   18CHTO  C110 7224   7.213   7.451   1.094  0.3656  0.2044  0.8570
   18CHTO  H214 7225   7.291   7.450   1.170  0.1266 -2.4756  1.1305
   18CHTO   O78 7226   7.222   7.322   1.031 -0.2570  0.0447 -0.0622
   18CHTO  H200 7227   7.162   7.323   0.959  0.1395 -0.8475 -0.4132
   18CHTO  C111 7228   7.076   7.481   1.164 -0.4003 -0.0571  0.4381
   18CHTO  H215 7229   6.997   7.450   1.093 -0.0184 -1.7964  0.7459
   18CHTO   N19 7230   7.053   7.393   1.285  0.3985  0.2167 -0.5727
   18CHTO  H207 7231   7.137   7.342   1.330 -1.4051 -2.9783 -0.7202
   18CHTO  H208 7232   6.982   7.315   1.261  1.2710  0.3260 -3.7502
   18CHTO   O74 7233   7.385   7.551   0.941  0.2426 -0.6335  0.2546
   18CHTO  C115 7234   7.398   7.516   0.776 -0.5949 -0.1901 -0.4712
   18CHTO  H219 7235   7.327   7.438   0.748 -2.0748  0.3275  1.7709
   18CHTO   O76 7236   7.357   7.639   0.690 -0.1322  0.6229 -0.1830
   18CHTO  C122 7237   7.461   7.728   0.641 -0.3577  0.0828 -0.3263
   18CHTO  H226 7238   7.507   7.769   0.731  1.2340  0.6240 -1.3723
   18CHTO  C126 7239   7.402   7.842   0.557 -0.2924 -0.1755  0.1257
   18CHTO   O85 7240   7.308   7.926   0.613  0.2636 -0.3775 -0.0748
   18CHTO  H206 7241   7.273   7.983   0.547  1.3256 -0.1583 -0.4671
   18CHTO  C121 7242   7.573   7.651   0.567  1.1659  0.1390 -0.0145
   18CHTO  H225 7243   7.549   7.663   0.459  2.5903 -1.6710 -0.5531
   18CHTO   O81 7244   7.707   7.707   0.593  0.0167 -0.3079 -0.1351
   18CHTO  H202 7245   7.733   7.714   0.683 -2.4730  0.4562  0.5762
   18CHTO  C119 7246   7.580   7.497   0.597  0.0033 -0.2192 -0.4709
   18CHTO  H223 7247   7.508   7.442   0.537 -1.2789  2.1308 -1.1585
   18CHTO  C117 7248   7.543   7.471   0.746  0.7688 -0.2831 -0.3799
   18CHTO  H221 7249   7.592   7.532   0.822  1.0960 -0.7320 -0.2313
   18CHTO   N20 7250   7.563   7.330   0.790 -0.2046 -0.3028 -0.4144
   18CHTO  H209 7251   7.654   7.295   0.743 -0.0285  0.6879 -0.8133
   18CHTO  H210 7252   7.579   7.328   0.897  1.3416  0.6468 -0.6113
   18CHTO   O80 7253   7.732   7.428   0.543 -0.7698  0.4344 -0.2264
   18CHTO  C103 7254   7.738   7.354   0.402 -0.5082 -0.3727 -0.0431
   18CHTO  H190 7255   7.835   7.307   0.387 -0.9962 -1.1646 -0.7242
   18CHTO  C101 7256   7.626   7.248   0.368  0.1579 -0.1363  0.5463
   18CHTO  H188 7257   7.529   7.293   0.393 -0.0120 -1.7505  2.9359
   18CHTO   O68 7258   7.648   7.125   0.441  0.9140  0.9077 -0.1584
   18CHTO  H168 7259   7.738   7.110   0.422  0.6043  1.2547 -2.0492
   18CHTO   C99 7260   7.615   7.211   0.209  0.4678 -0.0081 -0.7511
   18CHTO  H186 7261   7.708   7.154   0.188  1.2970  0.5059  1.4317
   18CHTO   N17 7262   7.500   7.122   0.175 -0.4383  0.0743  0.4172
   18CHTO  H174 7263   7.447   7.088   0.263  0.0351 -0.8785  0.3372
   18CHTO  H175 7264   7.427   7.172   0.112  1.2896  0.2724 -1.4770
   18CHTO   C97 7265   7.614   7.340   0.125  0.1735 -0.3873  0.2592
   18CHTO  H184 7266   7.518   7.384   0.155  0.4333  0.1429  0.3127
   18CHTO   O64 7267   7.725   7.421   0.170  0.4991  0.2740  0.2097
   18CHTO  C104 7268   7.725   7.474   0.301  0.3639  0.2868  0.3544
   18CHTO  H191 7269   7.632   7.528   0.319  0.5007  1.2575 -1.7528
   18CHTO  C108 7270   7.840   7.578   0.313  0.4315 -0.8519 -0.9228
   18CHTO   O71 7271   7.960   7.541   0.257 -0.4902  0.3935  0.0162
   18CHTO  H171 7272   8.020   7.604   0.291  0.0212  0.4929 -1.0891
   18CHTO   O62 7273   7.630   7.323  -0.013 -0.7445  0.4076  0.3181
   18CHTO   C91 7274   7.550   7.402  -0.098  0.2212 -0.2826  0.0410
   18CHTO  H178 7275   7.450   7.359  -0.091 -0.2802  0.4052 -2.2814
   18CHTO   C92 7276   7.606   7.370  -0.246  0.0991 -0.2233 -0.1255
   18CHTO  H179 7277   7.713   7.397  -0.246 -0.1211  0.9329  2.9721
   18CHTO   O66 7278   7.602   7.227  -0.277  0.2239 -0.2075  0.0129
   18CHTO  H166 7279   7.685   7.183  -0.273 -0.3637 -1.6310 -2.3901
   18CHTO   C93 7280   7.529   7.450  -0.359  0.1672  0.5285  0.3419
   18CHTO  H180 7281   7.450   7.378  -0.385 -0.3899  1.0790  0.5143
   18CHTO   N16 7282   7.611   7.472  -0.481 -0.1643 -0.5620 -0.1690
   18CHTO  H172 7283   7.646   7.378  -0.521 -2.5335 -2.4397  1.9725
   18CHTO  H173 7284   7.696   7.535  -0.459 -0.2752 -0.9162  1.3073
   18CHTO   C94 7285   7.463   7.587  -0.309 -0.0418  0.0482 -0.1610
   18CHTO  H181 7286   7.474   7.667  -0.382  0.0237  1.4728  1.3864
   18CHTO   O61 7287   7.534   7.634  -0.195  0.3700 -0.5025 -0.0733
   18CHTO   C95 7288   7.540   7.559  -0.068  0.3461  0.4087  0.1790
   18CHTO  H182 7289   7.632   7.584  -0.015 -0.0185  0.4450  0.8011
   18CHTO  C106 7290   7.418   7.597   0.036 -0.8395 -0.6004  0.1072
   18CHTO   O69 7291   7.430   7.733   0.080 -0.0114  0.4100 -0.2218
   18CHTO  H169 7292   7.484   7.724   0.157  0.2894  0.6647 -0.4016
   18CHTO   O63 7293   7.302   7.549  -0.269  0.1116 -0.1737  0.6396
   18CHTO   C96 7294   7.205   7.622  -0.370 -0.7900  0.0124  0.3948
   18CHTO  H183 7295   7.104   7.584  -0.350 -1.8717  2.3762 -0.4134
   18CHTO   C98 7296   7.229   7.585  -0.525 -0.5763 -0.2923 -0.5501
   18CHTO  H185 7297   7.337   7.591  -0.541 -0.2791 -1.4182  0.8775
   18CHTO   O67 7298   7.194   7.445  -0.521 -0.1769  0.3140  0.2455
   18CHTO  H167 7299   7.238   7.400  -0.591  2.0800  0.5796  1.4518
   18CHTO  C102 7300   7.141   7.676  -0.623  0.1428  0.4970  0.1575
   18CHTO  H189 7301   7.036   7.648  -0.612  1.1132 -3.6567 -0.3198
   18CHTO   N18 7302   7.175   7.647  -0.765  0.3057  0.0049  0.8054
   18CHTO  H176 7303   7.162   7.541  -0.776 -2.2966  0.4411 -0.7734
   18CHTO  H177 7304   7.128   7.710  -0.840 -0.4607 -0.5889  0.7831
   18CHTO  C105 7305   7.156   7.827  -0.580  0.1575  0.0901 -0.3776
   18CHTO  H192 7306   7.262   7.852  -0.580  0.3809 -0.7912 -0.8765
   18CHTO   O65 7307   7.110   7.839  -0.442 -0.2324  0.8162 -0.0158
   18CHTO  C100 7308   7.192   7.769  -0.346 -0.2665 -0.2860 -0.2689
   18CHTO  H187 7309   7.289   7.818  -0.355 -0.1154  0.1268  2.8964
   18CHTO  C107 7310   7.155   7.798  -0.208  1.0640 -0.2931  0.2463
   18CHTO   O70 7311   7.019   7.782  -0.173 -0.3537  0.3538 -0.4636
   18CHTO  H170 7312   6.987   7.863  -0.137 -0.6051  0.0845 -0.0925
   18CHTO   O57 7313   7.072   7.931  -0.686 -0.2903  0.5585 -0.1142
   18CHTO   C85 7314   7.081   8.071  -0.661 -0.3798 -0.3566  0.3647
   18CHTO  H157 7315   7.191   8.083  -0.670 -0.6127  2.1155  0.5690
   18CHTO   C83 7316   7.043   8.128  -0.526 -0.7938 -0.4593 -0.2556
   18CHTO  H155 7317   7.111   8.088  -0.451 -0.6803 -0.5016 -0.3815
   18CHTO   O56 7318   6.911   8.093  -0.493 -0.1937  0.5520 -0.6633
   18CHTO  H135 7319   6.902   8.093  -0.399  1.1531 -0.6192 -0.5285
   18CHTO   C81 7320   7.063   8.282  -0.532  0.2874 -0.3282 -0.1725
   18CHTO  H153 7321   7.168   8.298  -0.554  0.1380 -0.0717 -0.7144
   18CHTO   N14 7322   7.037   8.343  -0.399  0.0812 -0.0156 -0.0694
   18CHTO  H141 7323   6.965   8.282  -0.349 -1.4728  1.4926 -0.3980
   18CHTO  H142 7324   7.003   8.445  -0.397 -1.9884 -0.6835 -0.2670
   18CHTO   C79 7325   6.979   8.353  -0.650  0.3720 -0.4631  0.3634
   18CHTO  H151 7326   7.019   8.453  -0.665  1.6512 -0.9745  0.2774
   18CHTO   O52 7327   7.009   8.283  -0.778 -0.3736  0.0267 -0.0022
   18CHTO   C86 7328   7.003   8.142  -0.779 -1.1151 -0.2023  0.6115
   18CHTO  H158 7329   6.895   8.122  -0.770 -0.7458 -2.0443  1.3650
   18CHTO   C90 7330   7.052   8.095  -0.914  0.2331  0.1589 -0.2187
   18CHTO   O60 7331   7.193   8.109  -0.936  0.1361 -0.2737  0.9853
   18CHTO  H138 7332   7.213   8.197  -0.962  2.5513 -0.4977  1.9378
   18CHTO   O50 7333   6.837   8.346  -0.620  0.1913  0.3684 -0.4904
   18CHTO   C73 7334   6.715   8.388  -0.674 -0.7193 -0.7852 -0.3875
   18CHTO  H145 7335   6.720   8.396  -0.783 -0.9909  0.3976 -0.3194
   18CHTO   C74 7336   6.679   8.530  -0.628  0.0499 -0.0805 -0.4320
   18CHTO  H146 7337   6.767   8.591  -0.653  0.5661 -0.3986  0.5685
   18CHTO   O54 7338   6.585   8.586  -0.715  0.4385  0.3762 -0.0812
   18CHTO  H133 7339   6.502   8.544  -0.704  0.5814 -0.3152 -1.6037
   18CHTO   C75 7340   6.647   8.533  -0.470  0.3812 -0.2465  0.7985
   18CHTO  H147 7341   6.735   8.505  -0.411  2.5704  1.3942 -1.5641
   18CHTO   N13 7342   6.612   8.674  -0.422  0.5647 -0.5638  0.6417
   18CHTO  H139 7343   6.704   8.730  -0.421 -0.0788  0.5917 -1.4105
   18CHTO  H140 7344   6.562   8.678  -0.327  0.1410  2.5908  0.3393
   18CHTO   C76 7345   6.533   8.429  -0.444  0.3708 -0.3748  0.2341
   18CHTO  H148 7346   6.440   8.456  -0.494 -0.3221 -0.2907  1.5470
   18CHTO   O49 7347   6.581   8.299  -0.489 -0.1002  0.0704 -0.4667
   18CHTO   C77 7348   6.603   8.294  -0.626 -0.8657 -0.9740 -0.0170
   18CHTO  H149 7349   6.509   8.316  -0.677 -0.4512 -0.2309 -0.4779
   18CHTO   C88 7350   6.629   8.144  -0.663  0.1997  0.0905 -0.7387
   18CHTO   O58 7351   6.621   8.132  -0.812  0.0242 -0.0328  0.1960
   18CHTO  H136 7352   6.684   8.188  -0.853  0.4828 -0.9836 -0.4212
   18CHTO   O51 7353   6.517   8.425  -0.298 -0.0804 -0.2315  0.4318
   18CHTO   C78 7354   6.418   8.299  -0.235  0.2792  0.1916  0.0272
   18CHTO  H150 7355   6.406   8.214  -0.305 -0.9787 -0.2415  0.7487
   18CHTO   C80 7356   6.275   8.355  -0.209  0.0585 -0.3349  0.4284
   18CHTO  H152 7357   6.281   8.460  -0.172 -1.3615 -0.1712  0.2190
   18CHTO   O55 7358   6.210   8.362  -0.335  0.7825  0.0988 -0.3757
   18CHTO  H134 7359   6.127   8.403  -0.321  0.3633 -1.2312  1.1990
   18CHTO   C84 7360   6.196   8.275  -0.097  0.3982 -1.0860  0.2656
   18CHTO  H156 7361   6.169   8.176  -0.134 -0.8683 -1.7789  2.9052
   18CHTO   N15 7362   6.067   8.348  -0.064  0.4799  0.4588 -0.3332
   18CHTO  H143 7363   5.980   8.287  -0.076  1.3345 -0.5636 -1.3761
   18CHTO  H144 7364   6.048   8.447  -0.103  2.1481  1.3440  1.0575
   18CHTO   C87 7365   6.276   8.251   0.032 -0.2115  0.3814 -0.0265
   18CHTO  H159 7366   6.315   8.345   0.070 -0.0101 -0.3727  1.6534
   18CHTO   O53 7367   6.397   8.179  -0.008  0.1008 -0.2523 -0.4614
   18CHTO   C82 7368   6.478   8.263  -0.094  0.2145 -0.7463  0.4613
   18CHTO  H154 7369   6.514   8.354  -0.047 -0.4502 -0.0754 -0.3236
   18CHTO   C89 7370   6.599   8.177  -0.120 -0.2790 -0.1283  0.0752
   18CHTO   O59 7371   6.679   8.155  -0.004  0.4011  0.0594  0.1462
   18CHTO  H137 7372   6.637   8.087   0.045  3.3882 -2.0610 -0.1030
   18CHTO   O45 7373   6.210   8.177   0.143 -0.5187  0.0109  0.1303
   18CHTO   C67 7374   6.250   8.221   0.275  0.5452  0.3483 -0.2916
   18CHTO  H124 7375   6.348   8.270   0.272  1.2346 -1.0153 -0.6036
   18CHTO   C65 7376   6.139   8.328   0.334  0.5895  0.0306 -0.1282
   18CHTO  H122 7377   6.045   8.300   0.287 -0.6084  1.7351  1.2077
   18CHTO   O44 7378   6.186   8.457   0.282  0.6283 -0.2396  0.1518
   18CHTO  H102 7379   6.175   8.462   0.189 -0.5924  1.5366  0.3588
   18CHTO   C63 7380   6.107   8.298   0.490 -0.0477  0.5060  0.1260
   18CHTO  H120 7381   6.046   8.208   0.500  0.9781  0.1278  3.2904
   18CHTO   N11 7382   6.017   8.398   0.554  0.1923 -0.0441  0.2120
   18CHTO  H108 7383   6.053   8.420   0.653 -2.0100 -0.7929  1.2258
   18CHTO  H109 7384   5.999   8.488   0.499  2.6257  0.6694  0.5372
   18CHTO   C61 7385   6.239   8.260   0.564 -0.2938  0.5831  0.1066
   18CHTO  H118 7386   6.200   8.229   0.661 -1.3488 -1.8710 -1.0700
   18CHTO   O40 7387   6.312   8.151   0.497 -0.0200 -0.0113 -0.7943
   18CHTO   C68 7388   6.266   8.103   0.375 -0.0590 -0.1874  0.3943
   18CHTO  H125 7389   6.168   8.055   0.392  0.5819 -2.2511 -1.5436
   18CHTO   C72 7390   6.360   7.989   0.329 -0.2271 -0.7166  0.5757
   18CHTO   O48 7391   6.334   7.932   0.201 -0.5252 -0.0584  0.4507
   18CHTO  H105 7392   6.340   8.000   0.136 -0.1312  0.8193  1.3877
   18CHTO   O38 7393   6.324   8.376   0.585 -0.3125  0.1322 -0.8732
   18CHTO   C55 7394   6.439   8.366   0.664  0.4505  0.1945  0.3944
   18CHTO  H112 7395   6.466   8.261   0.684 -2.0205 -0.8531 -1.5318
   18CHTO   C56 7396   6.415   8.443   0.801 -0.3568 -0.1260  0.1948
   18CHTO  H113 7397   6.410   8.548   0.768 -0.2746  0.1686  1.1334
   18CHTO   O42 7398   6.292   8.403   0.866 -0.2105  0.0637 -0.3518
   18CHTO  H100 7399   6.270   8.466   0.932 -0.0967 -1.5200  1.2728
   18CHTO   C57 7400   6.535   8.429   0.890  0.5013 -0.1020 -0.1555
   18CHTO  H114 7401   6.541   8.323   0.914 -0.9891  0.5030  3.0868
   18CHTO   N10 7402   6.525   8.499   1.020  0.0599  0.1364 -0.4783
   18CHTO  H106 7403   6.478   8.444   1.100 -0.2046  2.0398  0.7295
   18CHTO  H107 7404   6.478   8.596   1.011  0.5772  0.3847 -0.5592
   18CHTO   C58 7405   6.657   8.471   0.810  0.4431  0.2761  0.6832
   18CHTO  H115 7406   6.668   8.582   0.802  1.1215  0.2525  1.1989
   18CHTO   O37 7407   6.669   8.414   0.677  0.0769  0.7095 -0.6868
   18CHTO   C59 7408   6.560   8.438   0.593 -0.1915 -0.0478  0.0548
   18CHTO  H116 7409   6.543   8.546   0.591  1.9799  0.3978  2.6300
   18CHTO   C70 7410   6.598   8.382   0.460 -0.2570 -0.3279  0.2204
   18CHTO   O46 7411   6.579   8.247   0.427  0.4997  0.3517  0.2108
   18CHTO  H103 7412   6.487   8.228   0.436  0.5385  0.1389  0.1598
   18CHTO   O39 7413   6.793   8.425   0.890  0.2539  0.2347  0.4814
   18CHTO   C60 7414   6.838   8.293   0.863 -0.4663 -0.6341  0.2726
   18CHTO  H117 7415   6.758   8.234   0.818 -0.6057  0.6522 -1.2084
   18CHTO   C62 7416   6.939   8.288   0.748 -0.6185  0.4050  0.5661
   18CHTO  H119 7417   6.896   8.344   0.663 -5.0911 -1.7241  1.2803
   18CHTO   O43 7418   7.069   8.347   0.786  1.0735  0.1806  0.0760
   18CHTO  H101 7419   7.058   8.440   0.780  0.8717  0.3214  2.2063
   18CHTO   C66 7420   6.959   8.134   0.706  0.4744 -0.0692  0.5106
   18CHTO  H123 7421   6.861   8.092   0.685  0.6946 -1.1668  1.6837
   18CHTO   N12 7422   7.039   8.112   0.581 -0.4273  0.6680 -0.1214
   18CHTO  H110 7423   6.984   8.154   0.499 -0.6170  1.2101  0.2825
   18CHTO  H111 7424   7.136   8.156   0.597  1.5881 -3.7912  0.8343
   18CHTO   C69 7425   7.015   8.049   0.820  0.2954  0.5904  0.3315
   18CHTO  H126 7426   7.116   8.083   0.852 -0.0175  0.3327  1.6292
   18CHTO   O41 7427   6.914   8.057   0.947 -0.4134 -0.1275  0.0901
   18CHTO   C64 7428   6.894   8.214   0.983  0.9252  0.1194  0.1263
   18CHTO  H121 7429   6.989   8.261   1.015  0.8226  1.7702 -1.8995
   18CHTO   C71 7430   6.801   8.234   1.101 -0.4003 -0.0161 -0.3040
   18CHTO   O47 7431   6.828   8.357   1.180 -0.7371 -0.6354 -0.0713
   18CHTO  H104 7432   6.768   8.425   1.155  0.1974 -0.2122 -1.2003
   18CHTO   O34 7433   7.013   7.889   0.767 -0.1894  0.5183  0.2381
   18CHTO   C49 7434   6.946   7.752   0.714 -0.2792  0.4963 -0.0860
   18CHTO   H91 7435   7.030   7.682   0.707 -0.3183  0.6424 -2.4149
   18CHTO   C47 7436   6.872   7.761   0.575 -0.2348 -0.2969  0.1609
   18CHTO   H89 7437   6.843   7.655   0.557 -1.3868  0.1037 -0.4339
   18CHTO   O33 7438   6.965   7.803   0.470 -0.3679  0.2913 -0.5632
   18CHTO   H70 7439   6.937   7.887   0.440 -0.7272  0.3590 -0.0465
   18CHTO   C45 7440   6.735   7.851   0.587  0.1705 -0.3688 -0.2293
   18CHTO   H87 7441   6.755   7.956   0.562  2.7716 -0.4102  1.4427
   18CHTO    N8 7442   6.631   7.793   0.499  0.1685 -0.1809 -0.1903
   18CHTO   H75 7443   6.586   7.708   0.548 -0.1147  0.5916  0.9212
   18CHTO   H76 7444   6.552   7.865   0.481  0.5833  0.5880  1.0272
   18CHTO   C43 7445   6.695   7.853   0.744 -0.0382 -0.1765  0.0166
   18CHTO   H85 7446   6.758   7.934   0.781 -0.4657  0.0332  0.2927
   18CHTO   O29 7447   6.714   7.727   0.805 -0.0718 -0.3402  0.2586
   18CHTO   C50 7448   6.851   7.695   0.825  0.1518  0.1235  0.8518
   18CHTO   H92 7449   6.877   7.731   0.926  1.7251  0.7455  0.2368
   18CHTO   C54 7450   6.869   7.537   0.838 -1.0052 -0.1008 -0.1424
   18CHTO   O36 7451   6.773   7.471   0.750 -0.0774 -0.9368  0.3573
   18CHTO   H72 7452   6.765   7.380   0.769 -2.3301 -1.4644 -2.7797
   18CHTO   O27 7453   6.562   7.908   0.769  0.6138  0.0959 -0.3992
   18CHTO   C37 7454   6.456   7.914   0.869 -0.4658 -0.3704 -0.4068
   18CHTO   H79 7455   6.440   7.818   0.920 -1.4764 -0.1031 -0.2139
   18CHTO   C38 7456   6.500   8.021   0.979 -0.3346  0.0427  0.1847
   18CHTO   H80 7457   6.545   8.105   0.924  0.1605 -0.2468  0.1302
   18CHTO   O31 7458   6.610   7.950   1.046 -0.0980 -0.0885  0.7372
   18CHTO   H68 7459   6.697   7.978   1.024 -0.6818  1.2763  0.1496
   18CHTO   C39 7460   6.383   8.062   1.077 -0.1717  0.5443 -0.6442
   18CHTO   H81 7461   6.360   7.972   1.134  1.4073  0.7444  0.3550
   18CHTO    N7 7462   6.422   8.175   1.169  0.3012  0.0058 -0.2549
   18CHTO   H73 7463   6.373   8.271   1.157 -0.1240  0.4176  3.9935
   18CHTO   H74 7464   6.522   8.201   1.199  0.6278 -0.8879 -0.5512
   18CHTO   C40 7465   6.249   8.105   0.998 -0.0652  0.3116 -1.5915
   18CHTO   H82 7466   6.260   8.205   0.958 -1.8388  0.8541 -0.7994
   18CHTO   O26 7467   6.217   8.007   0.893  0.6634 -0.1827  0.4848
   18CHTO   C41 7468   6.323   7.974   0.800 -0.4063  0.6292  0.3740
   18CHTO   H83 7469   6.359   8.066   0.751  1.5125 -0.3278 -0.0599
   18CHTO   C52 7470   6.260   7.888   0.686  0.2922 -0.7152 -0.3394
   18CHTO   O35 7471   6.197   7.774   0.726  0.0342  0.8498  0.2711
   18CHTO   H71 7472   6.255   7.704   0.748  1.1288  1.9946  1.0705
   18CHTO   O28 7473   6.128   8.117   1.087 -0.4338  0.3416 -0.1364
   18CHTO   C42 7474   5.984   8.102   1.037  0.0880 -0.1762 -0.8769
   18CHTO   H84 7475   5.923   8.137   1.120  1.3918  1.1850 -0.4664
   18CHTO   C44 7476   5.945   7.954   1.007  0.0799  0.1908  0.8966
   18CHTO   H86 7477   6.012   7.909   0.933  1.3572  0.1447  2.0640
   18CHTO   O32 7478   5.974   7.876   1.122  0.3121 -0.1956  0.5725
   18CHTO   H69 7479   5.930   7.903   1.201 -0.4326  2.8639 -0.7927
   18CHTO   C48 7480   5.798   7.939   0.961 -0.6009  0.2612  0.1445
   18CHTO   H90 7481   5.731   7.961   1.044 -0.1684  0.3284  0.4800
   18CHTO    N9 7482   5.765   7.791   0.932 -0.2534  0.0551 -0.2340
   18CHTO   H77 7483   5.660   7.774   0.949 -0.0422 -0.4163  0.6618
   18CHTO   H78 7484   5.806   7.747   0.842  1.2905  1.1977 -0.1129
   18CHTO   C51 7485   5.773   8.028   0.829  0.3027 -0.6227 -0.3649
   18CHTO   H93 7486   5.844   7.993   0.754 -0.7581 -1.8073 -0.8298
   18CHTO   O30 7487   5.801   8.166   0.872  0.1127  0.0850  0.0299
   18CHTO   C46 7488   5.948   8.191   0.913 -1.0254 -0.3200  0.2060
   18CHTO   H88 7489   6.011   8.159   0.829  1.0741  0.8692  1.2784
   18CHTO   C53 7490   5.986   8.335   0.937 -0.3437 -0.0987  0.5323
   18CHTO   O72 7491   5.880   8.392   1.012 -0.5254 -0.4706  0.0776
   18CHTO  H199 7492   5.929   8.452   1.066 -0.4499 -0.7920  0.3690
   18CHTO   O22 7493   5.640   8.022   0.776  0.1179  0.3895 -0.0076
   18CHTO   C31 7494   5.613   8.048   0.635  0.2192  0.8250  0.3166
   18CHTO   H59 7495   5.504   8.037   0.621  0.3576  0.3613 -0.4424
   18CHTO   C29 7496   5.647   8.192   0.597  0.1342 -0.4142  0.8925
   18CHTO   H57 7497   5.754   8.215   0.609 -0.0699 -0.1433  2.2058
   18CHTO   O21 7498   5.564   8.287   0.666  0.2693 -0.3408  0.0471
   18CHTO   H37 7499   5.526   8.240   0.738 -2.6992 -0.6438 -1.6287
   18CHTO   C27 7500   5.613   8.209   0.438  0.1271 -0.2693  0.1716
   18CHTO   H55 7501   5.506   8.192   0.420  0.0397  3.5204 -3.9474
   18CHTO    N5 7502   5.638   8.347   0.389  0.3458 -1.0187 -0.3954
   18CHTO   H43 7503   5.612   8.356   0.284 -0.3092  1.8636 -0.0329
   18CHTO   H44 7504   5.735   8.392   0.406 -0.5684  1.3576 -1.2140
   18CHTO   C25 7505   5.690   8.099   0.353 -0.2615 -0.1233 -0.5034
   18CHTO   H53 7506   5.796   8.113   0.380 -0.4013 -1.9543  1.0757
   18CHTO   O17 7507   5.643   7.968   0.406 -0.5883  0.1765 -0.2633
   18CHTO   C32 7508   5.680   7.943   0.540  0.0592  0.7479  0.2075
   18CHTO   H60 7509   5.788   7.944   0.555  0.0379 -0.4039  0.4374
   18CHTO   C36 7510   5.619   7.803   0.560 -0.0267 -0.7132 -0.2076
   18CHTO   O25 7511   5.694   7.697   0.507  0.3478  0.1827 -0.1227
   18CHTO   H40 7512   5.654   7.684   0.423 -2.4413  0.8700  1.0260
   18CHTO   O15 7513   5.667   8.112   0.189 -0.0119 -0.3397 -0.2679
   18CHTO   C19 7514   5.731   8.042   0.071 -0.2308  0.6887  0.2062
   18CHTO   H47 7515   5.696   7.938   0.078  0.4135  0.5593  1.6790
   18CHTO   C20 7516   5.677   8.097  -0.064 -0.5526 -0.2546  0.0241
   18CHTO   H48 7517   5.707   8.202  -0.078  0.2568 -0.7542 -2.1393
   18CHTO   O19 7518   5.531   8.101  -0.054 -0.1822 -0.5919 -0.4312
   18CHTO   H35 7519   5.492   8.149  -0.125 -0.3406 -1.0558 -0.6604
   18CHTO   C21 7520   5.720   8.009  -0.182 -1.2687  0.1740 -0.2711
   18CHTO   H49 7521   5.663   7.916  -0.174 -2.5124  0.7486 -2.1209
   18CHTO    N4 7522   5.688   8.061  -0.315  0.3643 -0.3963  0.6308
   18CHTO   H41 7523   5.749   8.142  -0.351 -1.8188 -0.1169 -2.6523
   18CHTO   H42 7524   5.681   7.975  -0.380 -1.0890 -0.8945  1.4141
   18CHTO   C22 7525   5.874   7.989  -0.177 -0.3302 -0.4223  0.2081
   18CHTO   H50 7526   5.926   8.077  -0.215  0.3697 -1.1366 -0.5376
   18CHTO   O14 7527   5.910   7.950  -0.046 -0.0057  0.3532  0.6530
   18CHTO   C23 7528   5.888   8.033   0.063  0.0871  0.3160 -0.0785
   18CHTO   H51 7529   5.935   8.131   0.044 -0.1175  0.0401 -2.1776
   18CHTO   C34 7530   5.952   7.970   0.191 -0.1458 -0.2813  0.4217
   18CHTO   O23 7531   5.885   7.865   0.242  0.0133  0.2632  0.1961
   18CHTO   H38 7532   5.819   7.895   0.301  1.0611  0.1206  1.4566
   18CHTO   O16 7533   5.929   7.874  -0.250  0.1160 -0.8650 -0.0591
   18CHTO   C24 7534   6.108   7.881  -0.244  0.7367 -0.5427 -0.1300
   18CHTO   H52 7535   6.143   7.953  -0.171 -0.5189  1.3042 -1.3085
   18CHTO   C26 7536   6.170   7.911  -0.387 -0.2250 -0.0736  0.2308
   18CHTO   H54 7537   6.128   7.838  -0.459  2.4969 -1.0816 -0.3897
   18CHTO   O20 7538   6.127   8.038  -0.443  0.0815 -0.1196  0.7897
   18CHTO   H36 7539   6.158   8.114  -0.398  1.7295 -0.3898  0.1610
   18CHTO   C30 7540   6.325   7.891  -0.384  0.0342 -0.1150  0.4215
   18CHTO   H58 7541   6.358   7.968  -0.313 -4.0030 -0.5575  2.9162
   18CHTO    N6 7542   6.390   7.912  -0.517 -0.3000 -0.2785  0.3794
   18CHTO   H45 7543   6.467   7.836  -0.522  0.0924 -0.0954  2.8010
   18CHTO   H46 7544   6.319   7.890  -0.595  1.4970  1.0114 -1.6742
   18CHTO   C33 7545   6.362   7.753  -0.313 -0.5471  0.3744 -0.5000
   18CHTO   H61 7546   6.331   7.673  -0.383 -0.4062  1.4819 -1.8489
   18CHTO   O18 7547   6.296   7.741  -0.181 -0.3880  0.4505  0.1415
   18CHTO   C28 7548   6.155   7.733  -0.198 -0.1860  0.1820  0.2497
   18CHTO   H56 7549   6.124   7.662  -0.274 -0.1382  0.5832 -0.1482
   18CHTO   C35 7550   6.075   7.673  -0.074 -0.5388 -0.0655 -0.6933
   18CHTO   O24 7551   6.110   7.539  -0.045 -0.7505 -0.8947 -0.1229
   18CHTO   H39 7552   6.180   7.547   0.018 -0.3429  0.1022 -0.6801
   18CHTO    O9 7553   6.507   7.743  -0.302 -0.0125 -0.1052  0.3782
   18CHTO   C13 7554   6.577   7.609  -0.379 -0.4922 -0.0007 -0.4072
   18CHTO   H26 7555   6.518   7.590  -0.471 -1.0534  0.6106 -0.1776
   18CHTO   C11 7556   6.564   7.496  -0.272 -0.1907 -0.1535  0.3991
   18CHTO   H24 7557   6.459   7.464  -0.271 -0.3576  0.4033  0.4427
   18CHTO    O8 7558   6.580   7.550  -0.140 -0.4121  0.2104 -0.0551
   18CHTO    H3 7559   6.528   7.499  -0.080 -2.3761  0.9045 -1.1129
   18CHTO    C9 7560   6.668   7.386  -0.308 -0.2572  0.3014 -0.2660
   18CHTO   H22 7561   6.655   7.360  -0.413  1.1562  1.1253 -0.6626
   18CHTO    N2 7562   6.643   7.259  -0.240 -0.0091  0.0378  0.2788
   18CHTO   H10 7563   6.699   7.184  -0.293  0.3450  0.5623 -0.0911
   18CHTO   H11 7564   6.538   7.234  -0.238  0.1076 -0.5936 -1.1288
   18CHTO    C7 7565   6.812   7.451  -0.282 -0.0164  0.0253 -0.1314
   18CHTO   H20 7566   6.883   7.379  -0.327 -2.2739 -1.4859 -1.3518
   18CHTO    O4 7567   6.841   7.580  -0.339  0.1833  0.6456 -0.6783
   18CHTO   C14 7568   6.737   7.640  -0.426 -0.5164 -0.3008 -0.0177
   18CHTO   H27 7569   6.747   7.588  -0.523 -3.9149 -0.4963 -0.3257
   18CHTO   C18 7570   6.773   7.792  -0.450  0.1840 -0.4305  0.3386
   18CHTO   O13 7571   6.768   7.871  -0.331 -0.3574  0.5993 -0.3914
   18CHTO    H7 7572   6.774   7.819  -0.254  0.0457  1.1971 -0.0192
   18CHTO    O2 7573   6.838   7.468  -0.129  0.1255  0.0690  0.0618
   18CHTO    C1 7574   6.969   7.450  -0.081 -0.2978  0.0531 -0.7188
   18CHTO   H14 7575   7.026   7.538  -0.116  0.0050  0.3429  0.4847
   18CHTO    C2 7576   7.048   7.313  -0.122 -0.0816  0.0102 -0.6292
   18CHTO   H15 7577   6.974   7.232  -0.126  0.4936 -0.5782  0.4941
   18CHTO    O6 7578   7.104   7.321  -0.257 -0.2125 -0.5040  0.4498
   18CHTO    H1 7579   7.039   7.344  -0.321  0.1779  1.5092  0.7189
   18CHTO    C3 7580   7.166   7.278  -0.025  0.4902  0.5415 -0.6469
   18CHTO   H16 7581   7.250   7.348  -0.041  0.5421  0.8632  0.9490
   18CHTO    N1 7582   7.225   7.140  -0.035  0.0325 -0.1648 -0.4216
   18CHTO    H8 7583   7.145   7.068  -0.023  0.0279  0.2775  2.5758
   18CHTO    H9 7584   7.297   7.124  -0.113  0.0854 -3.1645  0.1879
   18CHTO    C4 7585   7.113   7.299   0.120  0.1122 -0.2338  0.0243
   18CHTO   H17 7586   7.030   7.231   0.137 -1.4210  1.0263 -2.1908
   18CHTO    O1 7587   7.071   7.432   0.143  0.4671 -0.3942  0.1597
   18CHTO    C5 7588   6.953   7.475   0.075 -0.1642 -0.2125 -0.0310
   18CHTO   H18 7589   6.867   7.416   0.108 -1.4806  1.6666 -0.0188
   18CHTO   C16 7590   6.922   7.631   0.096 -0.0072  0.6507 -0.4076
   18CHTO   O11 7591   6.794   7.678   0.062  0.4175 -0.1318 -0.6384
   18CHTO    H5 7592   6.729   7.610   0.067 -0.7700  0.8230 -2.4878
   18CHTO    O3 7593   7.217   7.289   0.223  0.5016  0.3259  0.4503
   18CHTO    C6 7594   7.161   7.254   0.359  0.1326 -0.1639  0.3717
   18CHTO   H19 7595   7.052   7.250   0.361  0.1667 -2.4493 -0.8713
   18CHTO    C8 7596   7.197   7.102   0.404 -1.0286  0.1517 -0.4902
   18CHTO   H21 7597   7.306   7.095   0.411 -1.0969 -2.0681 -1.2678
   18CHTO    O7 7598   7.138   7.008   0.313 -0.4400  0.0316 -0.2008
   18CHTO    H2 7599   7.207   6.981   0.255  0.7673  2.4212  0.0594
   18CHTO   C12 7600   7.139   7.079   0.551  0.2631 -0.2198  0.4269
   18CHTO   H25 7601   7.028   7.082   0.554  0.2459  0.1775 -0.5481
   18CHTO    N3 7602   7.173   6.939   0.595 -0.5501  0.2903  0.0393
   18CHTO   H12 7603   7.278   6.931   0.621 -0.2854 -1.8542 -1.5125
   18CHTO   H13 7604   7.112   6.919   0.682 -0.1826 -0.9874  0.0243
   18CHTO   C15 7605   7.195   7.193   0.645  0.5738 -0.2731  0.4143
   18CHTO   H28 7606   7.302   7.174   0.658  0.4681  0.6595  2.9257
   18CHTO   O10 7607   7.129   7.200   0.768  0.7353 -0.0540 -0.6400
   18CHTO    H4 7608   7.179   7.255   0.825  0.4799 -0.0669 -0.3983
   18CHTO    O5 7609   7.159   7.316   0.589  0.2947  0.2291  0.0827
   18CHTO   C10 7610   7.205   7.355   0.460  0.0774  0.2852 -0.2670
   18CHTO   H23 7611   7.313   7.354   0.470 -0.0014 -1.0935  0.6058
   18CHTO   C17 7612   7.154   7.493   0.436  0.7566 -0.5742 -0.2087
   18CHTO   O12 7613   7.230   7.555   0.340 -0.3905 -0.6950 -0.0877
   18CHTO    H6 7614   7.190   7.638   0.323 -0.8420 -0.8303  0.3028
   19CHTO  H203 7615   6.897   8.857   1.754  2.1136 -0.2633  0.7728
   19CHTO   O82 7616   6.881   8.765   1.747  0.8878  0.0352 -0.5129
   19CHTO  C123 7617   6.774   8.746   1.654 -0.3094 -0.3248 -0.3037
   19CHTO  H227 7618   6.796   8.805   1.564  0.5744 -1.3438 -0.7689
   19CHTO   O77 7619   6.768   8.601   1.641 -0.1777  0.2463 -0.4611
   19CHTO  C118 7620   6.684   8.564   1.532 -0.3706  0.4058  0.2830
   19CHTO  H222 7621   6.716   8.615   1.440  0.1298  1.1131  0.8345
   19CHTO  C125 7622   6.699   8.409   1.515  0.0986  0.4583 -0.6210
   19CHTO   O84 7623   6.600   8.352   1.423 -0.6987 -0.4837  0.0989
   19CHTO  H205 7624   6.628   8.363   1.334  2.1125 -0.5756  0.9268
   19CHTO  C114 7625   6.538   8.605   1.565 -0.5268 -0.6093 -0.0798
   19CHTO  H218 7626   6.511   8.560   1.661  0.6874 -0.9800  0.0936
   19CHTO  C116 7627   6.529   8.759   1.602  0.8023  1.0140 -0.0185
   19CHTO  H220 7628   6.537   8.823   1.511  0.1453 -0.3664 -1.0780
   19CHTO   O79 7629   6.390   8.781   1.636 -0.2459  0.0592 -0.2425
   19CHTO  H201 7630   6.390   8.837   1.711 -1.4224 -1.8357  1.2237
   19CHTO  C120 7631   6.639   8.791   1.715  0.1446 -0.1265  0.7882
   19CHTO  H224 7632   6.605   8.728   1.800 -0.4361  1.9790  2.1446
   19CHTO   N21 7633   6.638   8.930   1.760  0.1060 -0.0082  0.2682
   19CHTO  H211 7634   6.723   8.972   1.709  0.1845 -1.3871 -0.7722
   19CHTO  H212 7635   6.646   8.936   1.867  0.5672  0.3164  0.2185
   19CHTO   O75 7636   6.459   8.575   1.456  0.3897 -0.1980 -0.0890
   19CHTO  C112 7637   6.312   8.503   1.491  0.4808  0.2935 -0.1953
   19CHTO  H216 7638   6.248   8.569   1.552  0.4055 -0.2471  0.3218
   19CHTO   O73 7639   6.350   8.384   1.564 -0.1800 -0.1391 -0.4901
   19CHTO  C113 7640   6.234   8.316   1.621  0.2877 -0.2950  0.2949
   19CHTO  H217 7641   6.178   8.389   1.683 -1.3399 -1.1861 -0.0974
   19CHTO  C124 7642   6.281   8.198   1.705  0.4897 -0.6746  0.2993
   19CHTO   O83 7643   6.373   8.251   1.804 -0.0178 -1.1109  0.1799
   19CHTO  H204 7644   6.395   8.177   1.857  0.1332 -0.6081  0.8278
   19CHTO  C109 7645   6.150   8.265   1.507  0.1014  0.2415  0.6385
   19CHTO  H213 7646   6.209   8.192   1.451  0.3664  1.4011 -0.6297
   19CHTO  C110 7647   6.103   8.380   1.408  0.4102  0.4306  0.2679
   19CHTO  H214 7648   6.023   8.444   1.445  0.7775  0.2951  1.3170
   19CHTO   O78 7649   6.040   8.322   1.292  0.3072 -0.2114 -0.5239
   19CHTO  H200 7650   6.085   8.247   1.257  1.3963  0.0189  0.3361
   19CHTO  C111 7651   6.233   8.458   1.367 -0.6271  0.0765 -0.1388
   19CHTO  H215 7652   6.303   8.386   1.321 -1.6008 -0.8003 -0.2449
   19CHTO   N19 7653   6.221   8.573   1.270  0.0458  0.1523  0.8376
   19CHTO  H207 7654   6.161   8.554   1.182  0.0929  1.4607  0.5140
   19CHTO  H208 7655   6.176   8.653   1.327 -0.2168  0.1405  0.6481
   19CHTO   O74 7656   6.030   8.196   1.550 -0.4007 -0.1630 -0.2164
   19CHTO  C115 7657   5.981   8.062   1.457  0.3534  1.1532  0.3266
   19CHTO  H219 7658   5.924   8.095   1.370  3.2493  1.9436 -1.3469
   19CHTO   O76 7659   6.106   7.980   1.397 -0.9874 -0.2040 -0.1804
   19CHTO  C122 7660   6.144   7.860   1.465  0.0549  0.3421  0.2255
   19CHTO  H226 7661   6.201   7.896   1.551 -0.7414  2.8934 -0.2715
   19CHTO  C126 7662   6.242   7.776   1.372 -0.1550  0.3448 -1.1029
   19CHTO   O85 7663   6.300   7.662   1.442  0.7960 -0.4040  0.2447
   19CHTO  H206 7664   6.329   7.612   1.368  0.3789  0.6871 -0.6636
   19CHTO  C121 7665   6.027   7.758   1.504  0.0457 -0.8054 -0.7235
   19CHTO  H225 7666   6.036   7.669   1.439  0.2392 -0.7931 -0.7137
   19CHTO   O81 7667   6.040   7.716   1.640 -0.4388 -0.1633 -0.1976
   19CHTO  H202 7668   5.998   7.778   1.697 -0.6356  0.2824 -0.8167
   19CHTO  C119 7669   5.885   7.825   1.493  0.0188 -0.3147  0.4145
   19CHTO  H223 7670   5.859   7.828   1.388  0.6182 -0.7638  0.2520
   19CHTO  C117 7671   5.882   7.973   1.547 -0.3673  0.4430 -0.4817
   19CHTO  H221 7672   5.922   7.985   1.648  0.5348  0.8795 -0.8800
   19CHTO   N20 7673   5.755   8.041   1.550  0.1550  1.0060  0.5304
   19CHTO  H209 7674   5.702   8.049   1.457  1.5889 -0.7849 -0.4927
   19CHTO  H210 7675   5.703   8.010   1.640  0.5507  0.1743  0.4873
   19CHTO   O80 7676   5.770   7.735   1.555  0.2545 -0.0792 -0.3055
   19CHTO  C103 7677   5.751   7.572   1.508 -0.0365 -0.1114  0.4238
   19CHTO  H190 7678   5.832   7.535   1.445  1.2303  0.9864  1.3960
   19CHTO  C101 7679   5.727   7.479   1.633  0.2279  0.5974 -0.2977
   19CHTO  H188 7680   5.645   7.524   1.688 -0.2122  1.0421 -1.3050
   19CHTO   O68 7681   5.870   7.451   1.723 -0.1861  0.2035  0.6810
   19CHTO  H168 7682   5.924   7.390   1.677 -0.7460 -1.2336  1.8635
   19CHTO   C99 7683   5.690   7.329   1.584 -0.2411  0.1905 -0.7081
   19CHTO  H186 7684   5.767   7.278   1.522 -0.3715 -1.4007  0.4137
   19CHTO   N17 7685   5.656   7.236   1.687 -0.5925  0.3472  0.2023
   19CHTO  H174 7686   5.692   7.275   1.782  0.0478 -0.4643  0.3025
   19CHTO  H175 7687   5.551   7.220   1.704 -0.6922 -0.1547 -0.8659
   19CHTO   C97 7688   5.563   7.351   1.489 -0.0567 -0.0487  0.1041
   19CHTO  H184 7689   5.480   7.384   1.554 -0.1776 -0.9006  0.3835
   19CHTO   O64 7690   5.591   7.442   1.382 -0.6223 -0.1132 -0.3574
   19CHTO  C104 7691   5.626   7.579   1.414  0.0448 -0.7393  0.5187
   19CHTO  H191 7692   5.550   7.641   1.460  1.0663  0.2817  0.8533
   19CHTO  C108 7693   5.667   7.646   1.282  0.0711 -0.4582 -1.0469
   19CHTO   O71 7694   5.576   7.618   1.176  0.2296  0.4347 -0.0022
   19CHTO  H171 7695   5.491   7.651   1.198  0.6370  1.9246 -0.5974
   19CHTO   O62 7696   5.530   7.236   1.417  0.8740  0.0827 -0.1802
   19CHTO   C91 7697   5.401   7.175   1.404 -0.1373  0.6396 -0.2717
   19CHTO  H178 7698   5.337   7.213   1.483 -0.6406  0.9919 -0.8364
   19CHTO   C92 7699   5.416   7.024   1.437 -0.3963  0.5130 -0.0727
   19CHTO  H179 7700   5.510   6.983   1.396 -1.8200 -2.9545 -0.0261
   19CHTO   O66 7701   5.423   7.007   1.579 -0.5279 -0.2798 -0.2715
   19CHTO  H166 7702   5.408   6.920   1.610  1.4140 -0.9872 -1.1945
   19CHTO   C93 7703   5.299   6.939   1.377  0.4222  0.5852  0.3305
   19CHTO  H180 7704   5.202   6.965   1.423  0.9560  3.0931  0.1485
   19CHTO   N16 7705   5.320   6.792   1.402 -0.3804 -0.8242 -0.7018
   19CHTO  H172 7706   5.289   6.774   1.504 -0.0789 -0.6268 -0.5748
   19CHTO  H173 7707   5.255   6.738   1.334  0.0670 -0.6398 -1.2838
   19CHTO   C94 7708   5.298   6.976   1.225  1.1611  0.7591  0.0871
   19CHTO  H181 7709   5.396   6.966   1.180  0.3434  0.8141 -1.7414
   19CHTO   O61 7710   5.253   7.113   1.203 -0.4460  0.7636  0.1449
   19CHTO   C95 7711   5.323   7.217   1.267  0.4001  0.1089  0.0374
   19CHTO  H182 7712   5.402   7.257   1.202 -0.2321 -0.5294 -1.1495
   19CHTO  C106 7713   5.225   7.337   1.281 -0.1041  0.1631 -0.2553
   19CHTO   O69 7714   5.168   7.387   1.155  0.1935 -0.0213 -0.1238
   19CHTO  H169 7715   5.141   7.314   1.104 -3.1511  0.8697  0.2370
   19CHTO   O63 7716   5.188   6.883   1.147  0.2361  0.2481 -0.4852
   19CHTO   C96 7717   5.253   6.797   1.021 -0.1984  0.0521 -0.1556
   19CHTO  H183 7718   5.304   6.710   1.062  0.2497  1.0082  1.3457
   19CHTO   C98 7719   5.359   6.874   0.941 -0.2128  0.3393  0.4791
   19CHTO  H185 7720   5.425   6.934   1.006 -1.8774  2.3384  0.3683
   19CHTO   O67 7721   5.444   6.781   0.872 -0.1184  0.0073  0.6644
   19CHTO  H167 7722   5.527   6.823   0.855  0.7453 -1.1862  1.8267
   19CHTO  C102 7723   5.295   6.960   0.828 -0.5175 -0.1376 -0.4465
   19CHTO  H189 7724   5.377   6.992   0.761  1.0368 -0.4822  1.2644
   19CHTO   N18 7725   5.229   7.084   0.878 -0.2404 -0.8383 -0.0212
   19CHTO  H176 7726   5.166   7.061   0.963  0.1556 -0.2658  0.4331
   19CHTO  H177 7727   5.298   7.163   0.902 -2.0227  0.7987 -0.1505
   19CHTO  C105 7728   5.200   6.877   0.742  0.0653  0.1420 -0.3451
   19CHTO  H192 7729   5.111   6.936   0.720 -0.8292 -1.3311 -0.7488
   19CHTO   O65 7730   5.166   6.747   0.790 -0.1582  0.1676  0.2654
   19CHTO  C100 7731   5.138   6.737   0.932  0.3664 -0.0607  0.3858
   19CHTO  H187 7732   5.046   6.797   0.942  0.8052  0.6427  0.2456
   19CHTO  C107 7733   5.095   6.598   0.967 -0.5166  0.0060 -0.1541
   19CHTO   O70 7734   5.050   6.588   1.097 -0.4183 -0.5100 -0.1663
   19CHTO  H170 7735   5.006   6.506   1.110 -1.7780  0.0062 -1.3930
   19CHTO   O57 7736   5.286   6.864   0.607  0.0900  0.4293  0.0973
   19CHTO   C85 7737   5.213   6.823   0.490 -0.2543 -0.0164 -0.4069
   19CHTO  H157 7738   5.113   6.796   0.529 -0.3205  0.6813 -0.0826
   19CHTO   C83 7739   5.274   6.692   0.427  0.1488  0.4267  0.2001
   19CHTO  H155 7740   5.292   6.615   0.502  1.4103  0.3110 -0.2169
   19CHTO   O56 7741   5.409   6.708   0.372 -0.2569  0.4872  0.2863
   19CHTO  H135 7742   5.463   6.631   0.381  0.6871  1.2958  1.7453
   19CHTO   C81 7743   5.164   6.648   0.322 -0.3684 -0.1757 -0.6171
   19CHTO  H153 7744   5.069   6.650   0.374  0.6126  1.3682  1.1696
   19CHTO   N14 7745   5.185   6.513   0.268  0.2084  0.1023  0.4696
   19CHTO  H141 7746   5.141   6.442   0.335  1.5438 -0.0408  1.2228
   19CHTO  H142 7747   5.289   6.487   0.260  0.1661 -0.5913  1.9458
   19CHTO   C79 7748   5.151   6.753   0.208 -0.4238 -0.2081 -0.9935
   19CHTO  H151 7749   5.068   6.722   0.144  0.4263 -0.2370 -2.1041
   19CHTO   O52 7750   5.118   6.887   0.263  0.2181  0.3494 -0.0965
   19CHTO   C86 7751   5.199   6.934   0.375 -0.3655 -0.2982  0.9713
   19CHTO  H158 7752   5.300   6.951   0.333 -0.9275 -0.4466 -0.4634
   19CHTO   C90 7753   5.139   7.069   0.414  0.6847  0.0798 -0.5193
   19CHTO   O60 7754   5.217   7.132   0.521 -0.8711  0.2268  0.1809
   19CHTO  H138 7755   5.302   7.146   0.482  0.5133  1.1429  3.3618
   19CHTO   O50 7756   5.273   6.758   0.130 -0.2724  0.5027  0.1281
   19CHTO   C73 7757   5.345   6.771   0.006 -0.3951 -0.7674 -0.1560
   19CHTO  H145 7758   5.336   6.678  -0.052  0.5986 -1.3057  0.5355
   19CHTO   C74 7759   5.498   6.784   0.042 -0.0365  0.0780 -0.3556
   19CHTO  H146 7760   5.519   6.697   0.107 -0.3049 -0.8672 -1.5226
   19CHTO   O54 7761   5.571   6.782  -0.082  0.3715 -0.2933  0.2582
   19CHTO  H133 7762   5.577   6.694  -0.116  1.7851  0.1335 -0.6378
   19CHTO   C75 7763   5.514   6.919   0.124  0.7948 -0.1575  0.3956
   19CHTO  H147 7764   5.467   6.911   0.223  0.0581  2.0390  0.2576
   19CHTO   N13 7765   5.654   6.951   0.150 -0.0003 -0.1161  0.2380
   19CHTO  H139 7766   5.688   6.863   0.203  0.5702  0.9688  1.6933
   19CHTO  H140 7767   5.710   6.945   0.058  1.7986 -0.0877  1.3260
   19CHTO   C76 7768   5.447   7.043   0.035  0.2315 -0.1809 -0.8007
   19CHTO  H148 7769   5.510   7.056  -0.053 -0.6303  0.7610 -1.3026
   19CHTO   O49 7770   5.312   7.018  -0.012 -0.2523  0.2361 -0.1992
   19CHTO   C77 7771   5.290   6.892  -0.080  0.5122 -0.1829 -0.5078
   19CHTO  H149 7772   5.345   6.891  -0.174 -0.0118 -0.1988 -0.8138
   19CHTO   C88 7773   5.140   6.865  -0.112 -0.0078 -0.1565  1.0199
   19CHTO   O58 7774   5.093   6.975  -0.196  0.4245  0.4597 -0.4240
   19CHTO  H136 7775   5.135   7.054  -0.168  1.3976 -0.7661  1.7619
   19CHTO   O51 7776   5.448   7.174   0.137  0.0089 -0.8937 -0.3389
   19CHTO   C78 7777   5.438   7.308   0.068 -0.1845 -0.4556 -0.1725
   19CHTO  H150 7778   5.388   7.306  -0.031  2.4617  1.1610 -1.6171
   19CHTO   C80 7779   5.572   7.380   0.055  0.1557 -0.1376  0.3244
   19CHTO  H152 7780   5.634   7.362   0.145 -0.7507  1.9884  1.4011
   19CHTO   O55 7781   5.639   7.313  -0.050 -0.6633  0.3411  0.5277
   19CHTO  H134 7782   5.719   7.345  -0.086 -1.0003 -0.2428 -0.7780
   19CHTO   C84 7783   5.561   7.536   0.036 -0.8151  0.0604  0.1276
   19CHTO  H156 7784   5.530   7.541  -0.068  1.0471  0.5512 -0.4227
   19CHTO   N15 7785   5.693   7.604   0.048 -0.3180  0.0563  0.9186
   19CHTO  H143 7786   5.680   7.710   0.047 -0.0561  0.0929  1.2898
   19CHTO  H144 7787   5.762   7.575  -0.029  1.9577  0.1722  2.8620
   19CHTO   C87 7788   5.454   7.602   0.129  0.1417 -0.4187  0.3558
   19CHTO  H159 7789   5.492   7.597   0.231 -0.0958  2.2440  0.6254
   19CHTO   O53 7790   5.333   7.526   0.132  0.0988  0.0600 -0.1472
   19CHTO   C82 7791   5.347   7.383   0.166  0.4508 -0.2850 -0.1278
   19CHTO  H154 7792   5.382   7.367   0.268 -0.1799 -0.3233  0.0853
   19CHTO   C89 7793   5.194   7.340   0.165  0.1363  0.9549  0.3385
   19CHTO   O59 7794   5.120   7.399   0.277 -0.2882 -0.0872 -0.2952
   19CHTO  H137 7795   5.138   7.362   0.361 -1.1468 -0.8917 -0.4533
   19CHTO   O45 7796   5.445   7.785   0.090 -1.0427 -0.0802  0.2072
   19CHTO   C67 7797   5.311   7.832   0.128 -0.6532  0.2166 -0.4280
   19CHTO  H124 7798   5.244   7.758   0.172  0.8452 -2.0911 -1.9239
   19CHTO   C65 7799   5.325   7.953   0.227 -0.1155 -0.0326 -0.9431
   19CHTO  H122 7800   5.430   7.982   0.231  0.3009 -1.4587 -1.5124
   19CHTO   O44 7801   5.278   7.903   0.358 -0.6562 -0.1561  0.0948
   19CHTO  H102 7802   5.344   7.928   0.419  1.0719  0.6364 -2.0059
   19CHTO   C63 7803   5.257   8.083   0.181  0.4152 -0.1419 -0.4761
   19CHTO  H120 7804   5.301   8.120   0.088 -3.7821 -1.1026 -2.9832
   19CHTO   N11 7805   5.264   8.201   0.272  0.4890  0.2524  0.2245
   19CHTO  H108 7806   5.350   8.264   0.273  0.8694 -0.1957 -1.5656
   19CHTO  H109 7807   5.228   8.174   0.369  0.1993 -0.9402 -0.2082
   19CHTO   C61 7808   5.110   8.050   0.132 -0.0318 -0.4272 -0.3530
   19CHTO  H118 7809   5.064   8.143   0.094  2.2978  0.3547 -1.3481
   19CHTO   O40 7810   5.107   7.952   0.028 -0.6315 -0.4229  0.2232
   19CHTO   C68 7811   5.232   7.881   0.000  0.1290  0.5474 -0.0131
   19CHTO  H125 7812   5.304   7.943  -0.058  1.3537 -1.4783 -0.6872
   19CHTO   C72 7813   5.190   7.759  -0.090  0.1273  0.2219  0.6828
   19CHTO   O48 7814   5.296   7.666  -0.128  0.1920 -0.7035  0.5357
   19CHTO  H105 7815   5.336   7.631  -0.051  0.0138 -0.5417  0.7010
   19CHTO   O38 7816   5.028   7.986   0.232  0.2428 -0.4758  0.0402
   19CHTO   C55 7817   4.888   7.963   0.206 -0.1837  0.0196 -0.0395
   19CHTO  H112 7818   4.873   7.972   0.098 -0.2504  0.2253 -0.0138
   19CHTO   C56 7819   4.802   8.071   0.291  0.4113  0.2059 -0.0347
   19CHTO  H113 7820   4.817   8.050   0.398  0.7090  0.0279 -0.1114
   19CHTO   O42 7821   4.848   8.199   0.250  0.0561 -0.2504 -0.3084
   19CHTO  H100 7822   4.803   8.262   0.304  0.7482  0.3138 -0.3846
   19CHTO   C57 7823   4.645   8.051   0.254 -0.0389 -0.0868  0.8390
   19CHTO  H114 7824   4.636   8.089   0.153 -0.4022  0.3137  1.0217
   19CHTO   N10 7825   4.551   8.137   0.332  0.1393 -0.3356 -0.1428
   19CHTO  H106 7826   4.590   8.238   0.332  0.7985 -0.5856 -0.4864
   19CHTO  H107 7827   4.535   8.107   0.434 -2.3943 -0.0263 -0.4103
   19CHTO   C58 7828   4.606   7.897   0.266 -0.1144 -0.4612 -0.1144
   19CHTO  H115 7829   4.615   7.869   0.373  0.7969  1.1057  0.2380
   19CHTO   O37 7830   4.702   7.814   0.199 -0.5485 -0.1200 -0.5912
   19CHTO   C59 7831   4.838   7.821   0.249  0.0337 -0.1744  0.4218
   19CHTO  H116 7832   4.833   7.805   0.357 -0.8477 -1.3684  0.2180
   19CHTO   C70 7833   4.921   7.705   0.192  0.1122 -0.4276  0.5092
   19CHTO   O46 7834   5.022   7.653   0.283  0.0834  0.0053  0.1097
   19CHTO  H103 7835   4.989   7.603   0.355 -1.1013  1.0553  0.3090
   19CHTO   O39 7836   4.457   7.871   0.226 -0.2205  0.4630 -0.7910
   19CHTO   C60 7837   4.437   7.783   0.111 -0.6135  0.4878 -0.5194
   19CHTO  H117 7838   4.513   7.803   0.035 -0.1438 -0.1800 -0.2362
   19CHTO   C62 7839   4.445   7.632   0.151  0.9368 -0.1830 -0.0662
   19CHTO  H119 7840   4.543   7.609   0.197  0.4467 -1.2537  0.4648
   19CHTO   O43 7841   4.337   7.592   0.236 -0.7312  0.0241  0.4238
   19CHTO  H101 7842   4.353   7.610   0.327  0.7623  3.3324 -0.4103
   19CHTO   C66 7843   4.449   7.540   0.017  0.0554  0.5248  0.6086
   19CHTO  H123 7844   4.518   7.593  -0.048 -1.9008  2.0051 -0.3098
   19CHTO   N12 7845   4.492   7.400   0.044  0.0799  0.5469 -0.1621
   19CHTO  H110 7846   4.412   7.329   0.031  0.0745  0.3202  1.0719
   19CHTO  H111 7847   4.559   7.387   0.127 -0.1301 -0.7619 -0.1915
   19CHTO   C69 7848   4.308   7.546  -0.046  0.3947 -0.2791 -0.5387
   19CHTO  H126 7849   4.235   7.501   0.024  0.6946  0.7354  0.4472
   19CHTO   O41 7850   4.264   7.697  -0.065 -0.3290  0.3784 -0.2016
   19CHTO   C64 7851   4.301   7.807   0.041  0.9683 -0.6333  0.4511
   19CHTO  H121 7852   4.221   7.789   0.115  0.9208 -0.8084  0.3568
   19CHTO   C71 7853   4.270   7.947  -0.024 -0.0935 -0.1695 -0.1254
   19CHTO   O47 7854   4.366   7.977  -0.126 -0.2824 -0.3431  0.4413
   19CHTO  H104 7855   4.452   7.984  -0.088 -0.6605 -1.8134  1.5891
   19CHTO   O34 7856   4.310   7.465  -0.199 -0.2701 -0.1839  0.4144
   19CHTO   C49 7857   4.271   7.460  -0.343 -0.6693  0.6810 -0.0868
   19CHTO   H91 7858   4.173   7.508  -0.343 -0.6286  0.7949  1.6793
   19CHTO   C47 7859   4.260   7.312  -0.392 -0.2337 -0.1389 -0.7536
   19CHTO   H89 7860   4.196   7.324  -0.482 -0.2546  2.5693 -0.4062
   19CHTO   O33 7861   4.185   7.235  -0.294 -0.3764  0.0780 -0.0271
   19CHTO   H70 7862   4.181   7.145  -0.320  2.2233 -0.0400 -0.2211
   19CHTO   C45 7863   4.400   7.240  -0.427  0.0454 -0.1619  0.2548
   19CHTO   H87 7864   4.413   7.162  -0.350  0.7484  0.4889  0.8060
   19CHTO    N8 7865   4.392   7.178  -0.560  0.2741 -0.3973 -0.0228
   19CHTO   H75 7866   4.291   7.145  -0.578  0.4828  0.2582 -2.6886
   19CHTO   H76 7867   4.461   7.098  -0.583  0.7369 -0.2414  0.7891
   19CHTO   C43 7868   4.519   7.337  -0.401  0.6789 -0.5369 -0.5061
   19CHTO   H85 7869   4.523   7.347  -0.292  2.2055  1.1159 -0.6910
   19CHTO   O29 7870   4.497   7.466  -0.463  0.1532 -0.0881  0.7177
   19CHTO   C50 7871   4.371   7.533  -0.429  0.3463  0.5550  0.3709
   19CHTO   H92 7872   4.411   7.620  -0.375 -0.8783  0.1567  1.9570
   19CHTO   C54 7873   4.322   7.588  -0.567  0.7042  0.1715  0.9084
   19CHTO   O36 7874   4.199   7.668  -0.571 -0.2829 -0.2888  0.3436
   19CHTO   H72 7875   4.198   7.739  -0.510  0.1285 -0.6877  0.8237
   19CHTO   O27 7876   4.644   7.277  -0.430 -0.1716 -0.3372 -0.0805
   19CHTO   C37 7877   4.784   7.275  -0.439 -0.1049 -0.1779 -0.7548
   19CHTO   H79 7878   4.824   7.174  -0.456  1.3095  0.5590 -1.8891
   19CHTO   C38 7879   4.822   7.368  -0.553 -0.8544 -0.2076 -0.3908
   19CHTO   H80 7880   4.791   7.470  -0.526  0.8216  0.5749 -1.3588
   19CHTO   O31 7881   4.754   7.323  -0.672 -0.0243 -0.3040 -0.4324
   19CHTO   H68 7882   4.759   7.229  -0.676 -2.9593 -0.4533 -1.3858
   19CHTO   C39 7883   4.977   7.375  -0.568 -0.5470 -0.8917 -0.4690
   19CHTO   H81 7884   5.014   7.274  -0.589  1.9929 -0.3070  1.0156
   19CHTO    N7 7885   5.027   7.465  -0.680 -0.0473 -0.7938 -0.0838
   19CHTO   H73 7886   5.040   7.566  -0.643 -1.9688 -0.2691 -0.8003
   19CHTO   H74 7887   4.959   7.470  -0.763  0.9578  1.0641 -0.8133
   19CHTO   C40 7888   5.054   7.409  -0.428 -0.5881 -0.4832 -0.3405
   19CHTO   H82 7889   5.035   7.513  -0.399 -2.5718 -0.7320 -0.6560
   19CHTO   O26 7890   5.005   7.320  -0.329  0.0973 -0.6427 -0.3512
   19CHTO   C41 7891   4.859   7.327  -0.311  1.1553 -0.6134 -0.0012
   19CHTO   H83 7892   4.826   7.431  -0.300  1.5927 -0.3683 -0.9976
   19CHTO   C52 7893   4.836   7.246  -0.184 -0.4690  0.3133 -0.1903
   19CHTO   O35 7894   4.871   7.320  -0.060  0.1416  0.0724  0.4451
   19CHTO   H71 7895   4.825   7.298   0.018  2.4164  1.0417  2.1308
   19CHTO   O28 7896   5.191   7.360  -0.447 -0.1031 -0.0885 -0.0074
   19CHTO   C42 7897   5.311   7.419  -0.400  0.4176 -0.2012 -0.4579
   19CHTO   H84 7898   5.290   7.442  -0.296 -1.5320 -2.0543 -0.4141
   19CHTO   C44 7899   5.358   7.552  -0.474 -0.5218 -0.0098 -0.0614
   19CHTO   H86 7900   5.344   7.536  -0.581  0.1418 -2.9902  0.2623
   19CHTO   O32 7901   5.256   7.649  -0.457 -0.3124  0.6136  0.1676
   19CHTO   H69 7902   5.180   7.640  -0.512  0.9627  2.9889 -2.1190
   19CHTO   C48 7903   5.497   7.608  -0.429 -0.4933  0.2945  0.5051
   19CHTO   H90 7904   5.501   7.639  -0.325 -1.8175  1.1076  0.3131
   19CHTO    N9 7905   5.527   7.725  -0.519 -0.5879  0.0518  1.0762
   19CHTO   H77 7906   5.502   7.704  -0.622  1.7852  0.9780  0.2810
   19CHTO   H78 7907   5.632   7.753  -0.517 -0.1154 -1.4803 -0.8356
   19CHTO   C51 7908   5.606   7.494  -0.455 -0.2194  0.1958 -0.3631
   19CHTO   H93 7909   5.603   7.465  -0.560  0.3024  2.4589 -1.0344
   19CHTO   O30 7910   5.574   7.383  -0.366  0.3143  0.3636  0.0838
   19CHTO   C46 7911   5.434   7.313  -0.399 -0.9573  0.3241  0.6188
   19CHTO   H88 7912   5.447   7.278  -0.501 -0.9353 -1.4884  1.2184
   19CHTO   C53 7913   5.409   7.190  -0.307  0.1892 -0.8295 -0.5267
   19CHTO   O72 7914   5.510   7.095  -0.343  0.0531 -0.3546 -0.0087
   19CHTO  H199 7915   5.469   7.039  -0.406 -1.3887 -0.4291  0.9630
   19CHTO   O22 7916   5.741   7.526  -0.408  0.1629 -0.5554 -0.3597
   19CHTO   C31 7917   5.860   7.478  -0.471 -0.4018 -0.1564 -0.6469
   19CHTO   H59 7918   5.820   7.419  -0.557 -0.9407  1.2202 -1.3556
   19CHTO   C29 7919   5.952   7.589  -0.530  0.3977 -0.7013  0.1103
   19CHTO   H57 7920   5.993   7.651  -0.449  0.2085 -0.3755 -0.0460
   19CHTO   O21 7921   5.876   7.677  -0.613  0.0985  0.7347  0.0958
   19CHTO   H37 7922   5.831   7.735  -0.556  0.8239  1.8216 -0.4178
   19CHTO   C27 7923   6.074   7.532  -0.617  0.2132  0.3109  0.1500
   19CHTO   H55 7924   6.027   7.488  -0.706 -1.5685 -1.5563  1.9714
   19CHTO    N5 7925   6.168   7.641  -0.660 -0.4581  0.0160  0.1288
   19CHTO   H43 7926   6.263   7.647  -0.609 -0.1429 -2.2633 -0.1147
   19CHTO   H44 7927   6.180   7.641  -0.768  1.5232  0.8265  0.3162
   19CHTO   C25 7928   6.150   7.420  -0.537  0.4434  0.1870 -0.8736
   19CHTO   H53 7929   6.210   7.466  -0.457  0.6297  0.5326 -1.2069
   19CHTO   O17 7930   6.052   7.330  -0.476 -0.1288 -0.5569  0.4674
   19CHTO   C32 7931   5.956   7.393  -0.385 -0.3000  0.0383 -0.1372
   19CHTO   H60 7932   6.011   7.458  -0.318 -1.1602  0.0930  0.5226
   19CHTO   C36 7933   5.881   7.280  -0.309 -0.0531 -0.7336 -0.3292
   19CHTO   O25 7934   5.776   7.211  -0.371 -0.7193 -0.3731  0.6635
   19CHTO   H40 7935   5.785   7.206  -0.464 -0.5630 -3.0502  0.7786
   19CHTO   O15 7936   6.246   7.333  -0.634  0.1842 -0.4568 -0.3035
   19CHTO   C19 7937   6.356   7.253  -0.582 -0.6922 -0.3521 -0.0215
   19CHTO   H47 7938   6.409   7.329  -0.522 -0.6182  0.5439 -1.2071
   19CHTO   C20 7939   6.313   7.133  -0.495  0.5718  0.0900  0.4774
   19CHTO   H48 7940   6.234   7.075  -0.546  1.3283  1.2596 -2.1326
   19CHTO   O19 7941   6.254   7.182  -0.370  0.2431  0.0147 -0.2618
   19CHTO   H35 7942   6.306   7.160  -0.295 -0.2060 -0.0340  0.0354
   19CHTO   C21 7943   6.435   7.032  -0.468  0.7019 -0.5653 -0.4630
   19CHTO   H49 7944   6.505   7.081  -0.400  1.1453 -1.7429 -0.0694
   19CHTO    N4 7945   6.394   6.914  -0.386 -0.7061 -0.6688  0.0784
   19CHTO   H41 7946   6.408   6.817  -0.433 -1.3232 -0.4502 -0.5566
   19CHTO   H42 7947   6.441   6.923  -0.290 -2.1388  0.5878  0.6789
   19CHTO   C22 7948   6.517   7.000  -0.597 -0.5420  0.1926 -0.7585
   19CHTO   H50 7949   6.447   6.944  -0.660 -1.0627  0.3675 -0.3371
   19CHTO   O14 7950   6.559   7.127  -0.645  0.6955 -0.0115  0.2958
   19CHTO   C23 7951   6.457   7.211  -0.697 -0.3879  0.5861  0.4045
   19CHTO   H51 7952   6.410   7.147  -0.773 -1.5390  0.7920  0.9318
   19CHTO   C34 7953   6.533   7.334  -0.756 -0.2170 -0.0515 -0.1291
   19CHTO   O23 7954   6.441   7.412  -0.828  0.6447  0.6466 -0.4609
   19CHTO   H38 7955   6.450   7.423  -0.921 -2.0915 -0.5580 -0.9122
   19CHTO   O16 7956   6.632   6.928  -0.580  0.3624  0.0973 -0.3010
   19CHTO   C24 7957   6.694   6.831  -0.712  0.1332  0.3859  0.1954
   19CHTO   H52 7958   6.787   6.782  -0.685 -0.2031  0.8115  2.2044
   19CHTO   C26 7959   6.718   6.922  -0.835  0.1963 -0.3737  0.6291
   19CHTO   H54 7960   6.627   6.980  -0.860 -0.5019 -1.7383 -0.0170
   19CHTO   O20 7961   6.815   7.015  -0.789 -0.0136 -0.2272  0.2057
   19CHTO   H36 7962   6.829   7.082  -0.852 -0.5422  1.7200  2.0964
   19CHTO   C30 7963   6.772   6.847  -0.961 -0.0530 -0.1207  0.0314
   19CHTO   H58 7964   6.877   6.817  -0.944  0.0751 -0.7744 -1.7623
   19CHTO    N6 7965   6.767   6.937  -1.079 -0.5515  0.6813  0.4888
   19CHTO   H45 7966   6.666   6.964  -1.109 -0.9591 -0.8165  0.4817
   19CHTO   H46 7967   6.817   6.888  -1.160 -1.4907  1.9212 -0.8600
   19CHTO   C33 7968   6.691   6.716  -0.985  0.0839  0.3324 -0.3745
   19CHTO   H61 7969   6.596   6.751  -1.026 -0.5209 -0.3988  0.3774
   19CHTO   O18 7970   6.667   6.645  -0.857 -0.2884  0.3887 -0.0710
   19CHTO   C28 7971   6.594   6.715  -0.757  0.1356 -0.7230 -0.3058
   19CHTO   H56 7972   6.502   6.762  -0.794  0.4394  1.6196  1.7549
   19CHTO   C35 7973   6.567   6.615  -0.635 -0.0953 -0.0180  0.5878
   19CHTO   O24 7974   6.483   6.505  -0.660 -0.2514 -0.6715  0.4632
   19CHTO   H39 7975   6.509   6.434  -0.605  1.5278 -0.0648  0.4506
   19CHTO    O9 7976   6.744   6.621  -1.082  0.5310  0.0038 -0.0712
   19CHTO   C13 7977   6.689   6.483  -1.105  0.1867  0.1027  0.0700
   19CHTO   H26 7978   6.740   6.454  -1.200  0.0164 -0.8561  0.2640
   19CHTO   C11 7979   6.533   6.465  -1.118 -0.5287 -0.0891 -0.3695
   19CHTO   H24 7980   6.516   6.509  -1.217 -0.5780 -0.8047 -0.6825
   19CHTO    O8 7981   6.464   6.535  -1.013  0.0841  0.1520  0.0038
   19CHTO    H3 7982   6.400   6.478  -0.975 -1.5716  1.6896 -0.4612
   19CHTO    C9 7983   6.508   6.315  -1.117  0.7490  0.1065  0.3624
   19CHTO   H22 7984   6.588   6.271  -1.179  0.7285 -0.0960  0.4803
   19CHTO    N2 7985   6.377   6.274  -1.178 -0.0417 -0.9368  0.0129
   19CHTO   H10 7986   6.297   6.344  -1.163  0.7221  0.1233 -0.7708
   19CHTO   H11 7987   6.396   6.261  -1.284  0.0326 -1.8857  0.1390
   19CHTO    C7 7988   6.539   6.264  -0.963  0.4579  0.9535  0.0539
   19CHTO   H20 7989   6.567   6.159  -0.982  1.2873  1.3250 -0.8048
   19CHTO    O4 7990   6.648   6.327  -0.903 -0.1099 -0.1193  0.5392
   19CHTO   C14 7991   6.743   6.380  -1.002  0.2235 -0.2740  0.2905
   19CHTO   H27 7992   6.779   6.290  -1.055  0.6042  1.0347 -1.7262
   19CHTO   C18 7993   6.866   6.433  -0.930 -0.3076 -0.2864 -0.3124
   19CHTO   O13 7994   6.926   6.324  -0.862 -0.4237 -0.7329 -0.0057
   19CHTO    H7 7995   6.878   6.314  -0.782 -0.8391 -0.9677 -0.2810
   19CHTO    O2 7996   6.406   6.277  -0.850  0.2053  0.5352 -0.1236
   19CHTO    C1 7997   6.343   6.161  -0.798 -0.7264 -0.4423  0.5128
   19CHTO   H14 7998   6.424   6.097  -0.757 -0.5642 -0.4416  0.1931
   19CHTO    C2 7999   6.259   6.069  -0.897  0.1560 -0.4386 -0.4677
   19CHTO   H15 8000   6.183   6.131  -0.947 -0.5276 -2.0323 -1.4259
   19CHTO    O6 8001   6.332   6.012  -1.005  0.3554  0.3984  0.2762
   19CHTO    H1 8002   6.280   5.953  -1.056  0.5807  1.1288 -0.8233
   19CHTO    C3 8003   6.191   5.942  -0.813 -0.8861  0.6375  0.0280
   19CHTO   H16 8004   6.265   5.862  -0.803 -0.1224  1.1997 -1.0943
   19CHTO    N1 8005   6.085   5.878  -0.894 -0.1772 -0.1620  0.4145
   19CHTO    H8 8006   6.108   5.892  -0.998  0.9544  1.0641  0.8107
   19CHTO    H9 8007   5.986   5.916  -0.874 -0.7244 -0.9927 -0.7068
   19CHTO    C4 8008   6.136   5.972  -0.669 -0.3994  0.1599  0.0970
   19CHTO   H17 8009   6.036   6.012  -0.685 -0.1261  0.0891 -1.9204
   19CHTO    O1 8010   6.219   6.073  -0.604 -0.6737 -0.1592 -0.1158
   19CHTO    C5 8011   6.254   6.192  -0.671 -0.0444  0.4700 -0.0730
   19CHTO   H18 8012   6.163   6.240  -0.707 -1.0531  0.3919  2.2789
   19CHTO   C16 8013   6.318   6.279  -0.555 -0.3790  0.3033  0.3154
   19CHTO   O11 8014   6.210   6.341  -0.487  0.6094 -0.2865 -0.7887
   19CHTO    H5 8015   6.239   6.393  -0.414  0.0616 -2.9824  1.4597
   19CHTO    O3 8016   6.147   5.856  -0.586 -0.1662  1.2166  0.3897
   19CHTO    C6 8017   6.039   5.831  -0.487  0.7018 -0.0539  0.8696
   19CHTO   H19 8018   5.992   5.923  -0.452 -0.1113  0.4418 -1.4772
   19CHTO    C8 8019   5.930   5.748  -0.546 -0.0634  0.0388  0.0003
   19CHTO   H21 8020   5.975   5.657  -0.586  0.7956 -0.1103  1.2933
   19CHTO    O7 8021   5.871   5.825  -0.652 -0.3409  0.4594  0.2743
   19CHTO    H2 8022   5.781   5.799  -0.653 -0.2258  0.0697 -0.3776
   19CHTO   C12 8023   5.832   5.711  -0.429  0.9403  0.2466  0.5971
   19CHTO   H25 8024   5.782   5.806  -0.402  0.6650 -0.1517  1.5486
   19CHTO    N3 8025   5.736   5.610  -0.487 -0.1907 -0.0479 -0.4608
   19CHTO   H12 8026   5.700   5.556  -0.401  1.6509  0.5844  0.7458
   19CHTO   H13 8027   5.648   5.665  -0.517  1.4901  2.6133 -0.6653
   19CHTO   C15 8028   5.909   5.657  -0.297 -0.9726 -0.7582  0.7044
   19CHTO   H28 8029   5.954   5.558  -0.308  0.1044 -0.2511  0.4198
   19CHTO   O10 8030   5.817   5.659  -0.166 -0.9700 -1.1063  0.4988
   19CHTO    H4 8031   5.805   5.569  -0.141 -0.3223 -0.3949  3.5709
   19CHTO    O5 8032   6.019   5.747  -0.265  0.7564 -0.6261 -0.5046
   19CHTO   C10 8033   6.111   5.775  -0.369 -0.8362 -0.2266 -0.5505
   19CHTO   H23 8034   6.162   5.683  -0.398  3.0075  0.6124  3.0882
   19CHTO   C17 8035   6.228   5.875  -0.324  0.6876 -0.7887 -0.7239
   19CHTO   O12 8036   6.173   5.993  -0.258 -0.1104  0.5022  0.1280
   19CHTO    H6 8037   6.241   6.043  -0.216  0.2841  0.5436 -0.5582
   20CHTO  H203 8038   5.562   1.838   6.812 -0.2308 -0.2092  1.4143
   20CHTO   O82 8039   5.472   1.845   6.789  0.1113  0.6274  0.2740
   20CHTO  C123 8040   5.426   1.978   6.816  0.3495 -0.3442 -0.1636
   20CHTO  H227 8041   5.478   2.046   6.748  0.8797 -0.2974  0.2867
   20CHTO   O77 8042   5.282   1.988   6.777 -0.7155 -0.5093 -0.3609
   20CHTO  C118 8043   5.201   2.106   6.798  0.2902  1.2066  0.3161
   20CHTO  H222 8044   5.247   2.184   6.735 -2.4601  0.0839 -3.2617
   20CHTO  C125 8045   5.062   2.068   6.743 -0.3497 -0.0136 -0.4701
   20CHTO   O84 8046   5.018   1.963   6.824 -0.6409  0.1042 -0.4214
   20CHTO  H205 8047   4.980   1.998   6.903 -1.6681 -0.8172 -0.4899
   20CHTO  C114 8048   5.202   2.160   6.943 -0.5301  0.1133 -0.4924
   20CHTO  H218 8049   5.149   2.089   7.005 -1.4445 -0.0006 -1.3862
   20CHTO  C116 8050   5.359   2.167   6.986 -0.3688  0.1358 -0.1235
   20CHTO  H220 8051   5.410   2.243   6.923 -1.1543  0.6608 -0.1367
   20CHTO   O79 8052   5.362   2.224   7.119  0.0806 -0.1881  0.1961
   20CHTO  H201 8053   5.435   2.282   7.123 -2.3804  3.1745 -0.9603
   20CHTO  C120 8054   5.427   2.025   6.968 -0.1685 -0.3330 -0.1622
   20CHTO  H224 8055   5.362   1.957   7.026 -0.8946 -0.6978 -1.3786
   20CHTO   N21 8056   5.568   2.015   7.019 -0.5452  0.2498 -0.2179
   20CHTO  H211 8057   5.577   1.911   7.048 -2.3922 -0.1582 -1.0572
   20CHTO  H212 8058   5.626   2.044   6.933  0.3233 -2.2614 -0.5280
   20CHTO   O75 8059   5.126   2.281   6.933 -0.3361  0.0470 -0.0097
   20CHTO  C112 8060   5.201   2.417   6.886  0.2321 -0.0791 -0.3112
   20CHTO  H216 8061   5.286   2.402   6.818 -0.1140 -0.5056 -0.6541
   20CHTO   O73 8062   5.238   2.486   7.003  0.5970  0.5813 -0.2474
   20CHTO  C113 8063   5.326   2.593   6.966  0.2930 -0.0060 -0.9518
   20CHTO  H217 8064   5.408   2.558   6.901  2.0359  0.0757  1.1472
   20CHTO  C124 8065   5.378   2.644   7.094  0.5167 -0.4653 -0.0227
   20CHTO   O83 8066   5.463   2.556   7.157 -0.2230  0.0353  0.1219
   20CHTO  H204 8067   5.436   2.561   7.247 -2.8079  0.0718 -0.5976
   20CHTO  C109 8068   5.243   2.706   6.892  0.1895 -0.1944  0.2103
   20CHTO  H213 8069   5.164   2.737   6.962 -1.4475 -2.5491 -0.5067
   20CHTO  C110 8070   5.170   2.636   6.771 -0.1553 -0.0504 -0.1558
   20CHTO  H214 8071   5.241   2.613   6.691  0.1721 -0.7405  0.3251
   20CHTO   O78 8072   5.087   2.732   6.712  0.1723 -0.1388 -0.3549
   20CHTO  H200 8073   5.123   2.818   6.714 -3.5816  1.4961  0.4203
   20CHTO  C111 8074   5.093   2.505   6.812  1.0628 -0.0312 -0.5193
   20CHTO  H215 8075   5.017   2.534   6.887  0.3261  1.4375 -1.7980
   20CHTO   N19 8076   5.022   2.428   6.704  0.3792  0.1169  0.0620
   20CHTO  H207 8077   4.967   2.345   6.745  1.9358 -0.3594  1.2700
   20CHTO  H208 8078   4.960   2.497   6.649 -1.3227 -0.8403  0.7408
   20CHTO   O74 8079   5.317   2.819   6.844  0.3457 -0.1477  0.2056
   20CHTO  C115 8080   5.223   2.965   6.837 -0.3657  0.1253 -0.0483
   20CHTO  H219 8081   5.117   2.943   6.826 -0.3770 -0.1212  0.5690
   20CHTO   O76 8082   5.234   3.042   6.963  0.9152  0.2327  0.7079
   20CHTO  C122 8083   5.370   3.055   6.997 -0.3492  0.2034 -0.4038
   20CHTO  H226 8084   5.412   2.958   7.024 -0.3274 -0.2885 -2.1384
   20CHTO  C126 8085   5.389   3.141   7.118  0.2075 -0.7463  0.0772
   20CHTO   O85 8086   5.365   3.284   7.097 -0.0333 -0.0688 -0.3255
   20CHTO  H206 8087   5.373   3.326   7.181  0.0148 -0.6214 -0.0505
   20CHTO  C121 8088   5.453   3.110   6.869 -0.3844 -0.6797 -0.1437
   20CHTO  H225 8089   5.519   3.194   6.898 -1.2152 -0.4420  1.0860
   20CHTO   O81 8090   5.547   3.004   6.835 -0.1614 -0.2806 -0.4300
   20CHTO  H202 8091   5.597   2.980   6.910 -0.6162 -0.6713 -0.2504
   20CHTO  C119 8092   5.368   3.159   6.746  0.4681 -0.4300  0.5632
   20CHTO  H223 8093   5.323   3.248   6.788  0.0748  0.2329 -1.2152
   20CHTO  C117 8094   5.260   3.055   6.712 -0.1945  0.6869  0.4337
   20CHTO  H221 8095   5.294   2.981   6.640 -1.2641  2.7518 -2.2539
   20CHTO   N20 8096   5.141   3.112   6.647 -0.0226  0.0071 -0.1694
   20CHTO  H209 8097   5.050   3.098   6.705 -0.8208  0.5453 -1.2658
   20CHTO  H210 8098   5.155   3.203   6.591 -1.4603  0.4850  0.2282
   20CHTO   O80 8099   5.457   3.221   6.623 -0.4298  0.2993  0.4570
   20CHTO  C103 8100   5.487   3.380   6.617 -0.4353 -0.5448 -0.1094
   20CHTO  H190 8101   5.397   3.438   6.636 -0.3797 -0.0812 -1.2943
   20CHTO  C101 8102   5.595   3.435   6.729 -0.4344 -0.0941  0.0368
   20CHTO  H188 8103   5.684   3.374   6.743  2.2890  3.1412 -2.3959
   20CHTO   O68 8104   5.531   3.444   6.863  0.0287 -0.3155 -0.4240
   20CHTO  H168 8105   5.577   3.401   6.932  0.2938 -0.4520 -0.6870
   20CHTO   C99 8106   5.642   3.583   6.687  0.5752 -0.2378  0.2098
   20CHTO  H186 8107   5.559   3.656   6.694  0.5895 -0.4273  3.2189
   20CHTO   N17 8108   5.753   3.632   6.778  0.4392 -0.3921 -0.4711
   20CHTO  H174 8109   5.815   3.707   6.731  0.6073  0.3337  0.8942
   20CHTO  H175 8110   5.805   3.555   6.833  1.5845 -1.0286 -2.3926
   20CHTO   C97 8111   5.677   3.579   6.539 -0.1086 -0.0699 -0.6370
   20CHTO  H184 8112   5.758   3.508   6.518  0.1335  0.2300 -0.7176
   20CHTO   O64 8113   5.560   3.543   6.464  0.1603 -0.1460 -0.4071
   20CHTO  C104 8114   5.531   3.403   6.469 -0.3643  0.3250 -0.2273
   20CHTO  H191 8115   5.606   3.329   6.442  0.2423  0.3807  1.3207
   20CHTO  C108 8116   5.414   3.377   6.375  0.2253  0.0810  0.4329
   20CHTO   O71 8117   5.470   3.401   6.243 -0.0000 -0.1122  0.0801
   20CHTO  H171 8118   5.520   3.325   6.219 -0.7999 -0.4413 -0.5648
   20CHTO   O62 8119   5.706   3.710   6.485 -0.5008 -0.3839 -0.7093
   20CHTO   C91 8120   5.781   3.710   6.362  0.2087  0.1172  0.1498
   20CHTO  H178 8121   5.790   3.609   6.322 -0.9131  0.1282 -0.1694
   20CHTO   C92 8122   5.923   3.780   6.375 -0.6947 -0.0540  0.3867
   20CHTO  H179 8123   5.922   3.885   6.406 -0.8491  0.3660 -1.0323
   20CHTO   O66 8124   5.990   3.715   6.484  0.1651 -0.3655  0.3420
   20CHTO  H166 8125   6.060   3.770   6.515 -0.9301  0.9406  0.5234
   20CHTO   C93 8126   6.006   3.778   6.246 -0.6525  0.4653  0.3219
   20CHTO  H180 8127   6.027   3.672   6.227 -0.6275  0.4303  0.5434
   20CHTO   N16 8128   6.137   3.855   6.253  0.0036 -0.1080 -0.4794
   20CHTO  H172 8129   6.144   3.907   6.347  1.3283 -0.0658 -0.5875
   20CHTO  H173 8130   6.134   3.935   6.180  1.8129 -0.5662 -1.0700
   20CHTO   C94 8131   5.922   3.833   6.129  0.0646  0.6535  0.5114
   20CHTO  H181 8132   5.899   3.939   6.134 -1.2855  0.4792 -1.2043
   20CHTO   O61 8133   5.785   3.776   6.115 -0.0877  0.4265  0.5850
   20CHTO   C95 8134   5.715   3.784   6.237 -0.9292  0.1743 -0.7072
   20CHTO  H182 8135   5.704   3.889   6.263  2.2885  0.2763  0.5050
   20CHTO  C106 8136   5.567   3.740   6.217  0.2837 -0.5529 -0.1231
   20CHTO   O69 8137   5.503   3.825   6.123  0.2406  0.1485 -0.1661
   20CHTO  H169 8138   5.453   3.885   6.175 -1.0954  0.5664 -1.8704
   20CHTO   O63 8139   5.987   3.804   5.984  0.2489 -0.0414  0.3398
   20CHTO   C96 8140   5.993   3.662   5.931 -0.6062  1.3703  0.7273
   20CHTO  H183 8141   6.001   3.591   6.013  0.0691 -0.9473 -1.2958
   20CHTO   C98 8142   6.118   3.646   5.843  1.0791 -0.0448  0.1286
   20CHTO  H185 8143   6.204   3.685   5.900  1.5330  0.6802 -1.0239
   20CHTO   O67 8144   6.143   3.507   5.814 -0.2840  0.2072 -0.1836
   20CHTO  H167 8145   6.229   3.475   5.830 -0.0813  2.2390  3.3157
   20CHTO  C102 8146   6.113   3.717   5.694 -1.0329 -0.0324 -0.0746
   20CHTO  H189 8147   6.163   3.652   5.621 -4.7348 -0.6459 -2.1282
   20CHTO   N18 8148   6.186   3.845   5.690 -0.0086 -0.8341  0.2185
   20CHTO  H176 8149   6.202   3.873   5.793  2.9266 -1.8210  0.0831
   20CHTO  H177 8150   6.134   3.926   5.642 -1.0194 -1.1614  0.7672
   20CHTO  C105 8151   5.966   3.732   5.639  0.4737 -0.0156 -0.6576
   20CHTO  H192 8152   5.922   3.827   5.671  1.2109  1.0567 -2.7543
   20CHTO   O65 8153   5.890   3.631   5.695 -0.5760  0.6421  0.2702
   20CHTO  C100 8154   5.864   3.634   5.838 -0.0091  0.1779 -0.6505
   20CHTO  H187 8155   5.780   3.703   5.853 -1.5632 -1.8876  0.3620
   20CHTO  C107 8156   5.802   3.497   5.865 -0.5297  0.4881  0.3915
   20CHTO   O70 8157   5.720   3.495   5.988 -0.3584 -0.0603 -0.3795
   20CHTO  H170 8158   5.772   3.441   6.045  0.4749  0.5104 -0.6022
   20CHTO   O57 8159   5.966   3.710   5.478  0.5429  0.0356 -0.4268
   20CHTO   C85 8160   5.855   3.740   5.396  0.1234  0.0326  0.3123
   20CHTO  H157 8161   5.801   3.817   5.454  2.7504  1.4049  1.0072
   20CHTO   C83 8162   5.739   3.639   5.401  0.5758 -0.6909  0.6706
   20CHTO  H155 8163   5.709   3.634   5.506 -2.0297  3.3878  0.2278
   20CHTO   O56 8164   5.788   3.500   5.379  0.1066 -0.0691  0.3517
   20CHTO  H135 8165   5.858   3.467   5.431 -0.1682 -1.8137 -0.3358
   20CHTO   C81 8166   5.611   3.684   5.313  0.2737 -0.4490  0.3267
   20CHTO  H153 8167   5.573   3.778   5.354  0.1599  0.4304 -1.7655
   20CHTO   N14 8168   5.495   3.593   5.317  0.5425  0.3856  0.3351
   20CHTO  H141 8169   5.483   3.549   5.220  1.8815 -1.5643  1.0352
   20CHTO  H142 8170   5.406   3.647   5.344  0.1685 -0.4539  0.7874
   20CHTO   C79 8171   5.663   3.710   5.172 -0.1948  0.2584  0.1739
   20CHTO  H151 8172   5.580   3.746   5.112 -1.5689 -1.6903  0.8828
   20CHTO   O52 8173   5.763   3.823   5.171 -0.7856  0.0342 -0.4378
   20CHTO   C86 8174   5.883   3.785   5.237  0.2324 -0.1576 -0.0049
   20CHTO  H158 8175   5.933   3.703   5.181  0.6004 -0.8843  1.3766
   20CHTO   C90 8176   5.980   3.901   5.242  0.6520 -0.3094  0.5743
   20CHTO   O60 8177   6.105   3.864   5.286 -0.2311  0.2834  0.1935
   20CHTO  H138 8178   6.107   3.834   5.374  0.3172  1.2262  0.5090
   20CHTO   O50 8179   5.698   3.591   5.104  0.3370  0.4557  0.4087
   20CHTO   C73 8180   5.712   3.539   4.969 -0.1453 -0.4285 -0.1155
   20CHTO  H145 8181   5.801   3.586   4.925 -0.8645  1.1335  0.0560
   20CHTO   C74 8182   5.582   3.572   4.881  0.8369 -0.5385  0.1053
   20CHTO  H146 8183   5.564   3.680   4.891  3.6359 -0.0585  0.2712
   20CHTO   O54 8184   5.621   3.556   4.746  0.3783 -0.3559  0.3282
   20CHTO  H133 8185   5.551   3.557   4.684  0.2785 -1.5112  0.4060
   20CHTO   C75 8186   5.455   3.485   4.923 -0.1949  0.8728 -0.6941
   20CHTO  H147 8187   5.423   3.511   5.024  0.0031 -1.0418 -0.1097
   20CHTO   N13 8188   5.331   3.501   4.841 -0.6831 -0.0252 -0.3228
   20CHTO  H139 8189   5.320   3.603   4.806  2.5415  0.3019 -0.5675
   20CHTO  H140 8190   5.241   3.484   4.898 -0.0085 -1.5889  0.3065
   20CHTO   C76 8191   5.508   3.335   4.928  0.0471  0.1702  0.4286
   20CHTO  H148 8192   5.532   3.312   4.824  0.9082 -0.1346  0.6963
   20CHTO   O49 8193   5.613   3.311   5.013  0.7115 -0.3081  0.8041
   20CHTO   C77 8194   5.727   3.381   4.971 -0.8981 -0.3810  0.0688
   20CHTO  H149 8195   5.755   3.353   4.869 -0.4733  2.4297 -0.6491
   20CHTO   C88 8196   5.846   3.347   5.055 -0.7285 -0.0574  0.0240
   20CHTO   O58 8197   5.868   3.186   5.104 -0.4657 -0.5168 -0.3919
   20CHTO  H136 8198   5.807   3.155   5.168 -0.0956 -1.5444 -0.5206
   20CHTO   O51 8199   5.374   3.231   4.977 -0.1972 -0.3559  0.4555
   20CHTO   C78 8200   5.413   3.107   5.046  0.0384  0.1649 -0.2428
   20CHTO  H150 8201   5.506   3.114   5.106  0.7112 -1.1737 -1.1048
   20CHTO   C80 8202   5.440   2.992   4.944  0.4273  0.5197 -0.1625
   20CHTO  H152 8203   5.346   2.964   4.890  0.3437  1.0534 -0.2883
   20CHTO   O55 8204   5.527   3.044   4.847 -0.1563 -0.3665  0.4696
   20CHTO  H134 8205   5.528   2.988   4.772  0.6447  1.5302 -0.9659
   20CHTO   C84 8206   5.495   2.862   5.019 -0.1324 -0.3039  0.1208
   20CHTO  H156 8207   5.588   2.892   5.067  0.4378 -2.7076  0.5965
   20CHTO   N15 8208   5.524   2.744   4.926  0.0817  0.6654  0.0888
   20CHTO  H143 8209   5.487   2.771   4.829  0.1803 -3.9729 -1.3432
   20CHTO  H144 8210   5.473   2.654   4.955  2.1366 -1.6085 -3.0078
   20CHTO   C87 8211   5.389   2.829   5.130 -0.3964 -0.0626 -0.9885
   20CHTO  H159 8212   5.301   2.794   5.076  0.5848 -1.4743 -1.7017
   20CHTO   O53 8213   5.356   2.948   5.219 -0.1541 -0.2130  0.5518
   20CHTO   C82 8214   5.307   3.062   5.149  0.2670  0.1887  0.1816
   20CHTO  H154 8215   5.226   3.028   5.085  0.4030 -3.7776  1.9952
   20CHTO   C89 8216   5.253   3.168   5.250 -0.6366 -0.0082  0.2966
   20CHTO   O59 8217   5.204   3.287   5.191 -0.1033  0.4894  0.3324
   20CHTO  H137 8218   5.115   3.285   5.163 -0.1682  0.9792  0.5079
   20CHTO   O45 8219   5.444   2.713   5.217 -0.8119  0.2659  0.5779
   20CHTO   C67 8220   5.370   2.662   5.327  0.6546 -0.2624 -0.2637
   20CHTO  H124 8221   5.341   2.746   5.390 -1.0280 -1.4206  0.5239
   20CHTO   C65 8222   5.232   2.593   5.281  0.6772 -0.1715 -0.5818
   20CHTO  H122 8223   5.251   2.561   5.178  0.3481  0.0781 -0.7219
   20CHTO   O44 8224   5.129   2.690   5.273 -0.0796  0.3040  0.6508
   20CHTO  H102 8225   5.053   2.664   5.322  0.6601 -0.8889  1.1823
   20CHTO   C63 8226   5.212   2.458   5.364  0.3413 -0.5146 -1.1267
   20CHTO  H120 8227   5.294   2.390   5.340  1.1923 -0.5781  1.7687
   20CHTO   N11 8228   5.092   2.373   5.330  0.9623 -0.1108 -0.5720
   20CHTO  H108 8229   5.016   2.438   5.292 -0.1815 -0.4225  1.1230
   20CHTO  H109 8230   5.123   2.294   5.266 -0.9358 -0.3819 -1.1906
   20CHTO   C61 8231   5.228   2.492   5.514 -0.3187  0.1994  0.5129
   20CHTO  H118 8232   5.214   2.391   5.557 -1.7471 -0.6901 -1.9256
   20CHTO   O40 8233   5.366   2.528   5.541  0.8821 -0.0893 -0.0708
   20CHTO   C68 8234   5.453   2.567   5.424 -0.0217 -0.7063  0.0651
   20CHTO  H125 8235   5.493   2.475   5.377 -1.1769 -1.0150 -0.3283
   20CHTO   C72 8236   5.569   2.650   5.471  0.3021  0.0780  0.8776
   20CHTO   O48 8237   5.645   2.584   5.572  0.5349 -0.2093  0.3322
   20CHTO  H105 8238   5.588   2.564   5.643 -0.3792  1.3047  0.0518
   20CHTO   O38 8239   5.130   2.578   5.568 -0.3342 -0.1089  0.3554
   20CHTO   C55 8240   5.119   2.582   5.714 -0.3632  0.3680  0.0542
   20CHTO  H112 8241   5.211   2.543   5.761 -1.4034 -1.2733  0.7633
   20CHTO   C56 8242   4.990   2.502   5.762 -0.2152  0.0845 -0.5777
   20CHTO  H113 8243   4.898   2.539   5.713 -0.0657  0.6579 -0.4213
   20CHTO   O42 8244   5.006   2.360   5.727 -0.1356  0.8402 -0.5418
   20CHTO  H100 8245   5.027   2.348   5.636 -1.5859  0.4751 -0.8380
   20CHTO   C57 8246   4.962   2.518   5.910 -0.4437  0.2819 -0.2039
   20CHTO  H114 8247   5.050   2.476   5.959  1.0550  1.1905 -2.0228
   20CHTO   N10 8248   4.844   2.458   5.969 -0.5456  0.5807 -0.3941
   20CHTO  H106 8249   4.850   2.422   6.071  2.7035  1.2172 -0.3283
   20CHTO  H107 8250   4.786   2.389   5.909 -1.1877 -0.9057  1.8407
   20CHTO   C58 8251   4.964   2.669   5.937  0.2281  0.3351 -0.2963
   20CHTO  H115 8252   4.884   2.719   5.878  1.9839  0.9593 -2.2653
   20CHTO   O37 8253   5.085   2.737   5.897 -0.4717  0.2081  0.0948
   20CHTO   C59 8254   5.114   2.730   5.755 -0.3623  0.3519 -0.5474
   20CHTO  H116 8255   5.039   2.793   5.707 -1.4703 -0.0254  0.6714
   20CHTO   C70 8256   5.241   2.805   5.718 -0.1808 -0.2425  0.0359
   20CHTO   O46 8257   5.343   2.786   5.809  0.2602  0.2911 -0.3931
   20CHTO  H103 8258   5.314   2.764   5.895 -2.6831 -1.3179 -1.7496
   20CHTO   O39 8259   4.942   2.707   6.111  0.3289 -0.1013 -0.1173
   20CHTO   C60 8260   4.926   2.848   6.133  0.2554  0.6699  0.2181
   20CHTO  H117 8261   5.016   2.896   6.094 -1.2777  2.7368 -0.8879
   20CHTO   C62 8262   4.803   2.912   6.050 -0.6770  0.2790  0.0611
   20CHTO  H119 8263   4.826   2.898   5.942  3.4790  0.5042  0.8295
   20CHTO   O43 8264   4.689   2.836   6.086 -0.0797  0.3650  0.6725
   20CHTO  H101 8265   4.611   2.888   6.090  0.3335  1.2243 -1.8304
   20CHTO   C66 8266   4.789   3.069   6.082  0.3208 -0.3356  1.1616
   20CHTO  H123 8267   4.880   3.119   6.048  1.4696 -2.9675  0.2376
   20CHTO   N12 8268   4.683   3.125   5.996  0.6060 -0.5113 -0.2586
   20CHTO  H110 8269   4.672   3.227   6.028 -0.1365 -0.6809  0.0367
   20CHTO  H111 8270   4.700   3.128   5.889  0.5464  1.8090 -0.2299
   20CHTO   C69 8271   4.780   3.107   6.233  0.6381  0.3608 -0.0429
   20CHTO  H126 8272   4.683   3.079   6.277 -0.3583  2.7951 -0.6209
   20CHTO   O41 8273   4.916   3.031   6.314 -0.1557  0.3785  0.6064
   20CHTO   C64 8274   4.921   2.880   6.285  0.3239  0.0629 -0.1175
   20CHTO  H121 8275   4.829   2.839   6.331  0.0842  0.4930 -0.2150
   20CHTO   C71 8276   5.054   2.816   6.344  0.4918 -0.0744  0.6988
   20CHTO   O47 8277   5.073   2.676   6.322 -0.2568 -0.1541 -0.0176
   20CHTO  H104 8278   4.988   2.641   6.303 -0.2604  0.7737 -1.8236
   20CHTO   O34 8279   4.786   3.268   6.237  0.9270 -0.1001  0.2663
   20CHTO   C49 8280   4.814   3.393   6.321 -0.2406 -0.1706 -0.2612
   20CHTO   H91 8281   4.731   3.411   6.390 -0.2145 -1.0106 -0.0010
   20CHTO   C47 8282   4.828   3.518   6.225 -0.6166 -1.0792  0.2057
   20CHTO   H89 8283   4.834   3.609   6.288 -2.6511 -1.9346  1.6624
   20CHTO   O33 8284   4.711   3.520   6.140  0.5172  0.3468 -0.6315
   20CHTO   H70 8285   4.677   3.603   6.115 -1.3004  0.0914  0.8675
   20CHTO   C45 8286   4.967   3.510   6.129 -0.1120 -0.0226  0.6044
   20CHTO   H87 8287   4.935   3.470   6.032 -1.0092 -0.7571  1.1955
   20CHTO    N8 8288   5.021   3.644   6.103  0.4925 -0.0896  0.5389
   20CHTO   H75 8289   4.953   3.714   6.149 -2.1687 -1.9675 -0.3670
   20CHTO   H76 8290   5.031   3.682   6.003 -0.9242  0.3807  0.5532
   20CHTO   C43 8291   5.068   3.398   6.178 -0.9458 -0.2558  0.2134
   20CHTO   H85 8292   5.025   3.301   6.152  0.3658 -0.4683 -1.2123
   20CHTO   O29 8293   5.078   3.416   6.323 -0.0988  0.2383  0.3737
   20CHTO   C50 8294   4.959   3.378   6.399 -0.4115 -0.0607 -0.6407
   20CHTO   H92 8295   4.977   3.272   6.424 -2.5415 -0.3622 -0.2922
   20CHTO   C54 8296   4.945   3.465   6.531 -1.0304 -0.1928  0.1504
   20CHTO   O36 8297   4.947   3.609   6.520 -0.0905  0.1540 -0.1324
   20CHTO   H72 8298   5.031   3.643   6.495  0.4522 -1.3955 -0.4254
   20CHTO   O27 8299   5.193   3.398   6.113 -0.8208  0.0363 -0.3970
   20CHTO   C37 8300   5.241   3.350   5.984  0.6422 -0.0360  1.1481
   20CHTO   H79 8301   5.154   3.344   5.918  1.4951 -0.7724  0.0725
   20CHTO   C38 8302   5.351   3.443   5.918 -0.5800 -0.3243  0.4590
   20CHTO   H80 8303   5.443   3.443   5.978 -0.2572 -1.5028 -0.0205
   20CHTO   O31 8304   5.306   3.579   5.914 -0.6965  0.6515 -0.4738
   20CHTO   H68 8305   5.273   3.603   5.829  0.0954 -0.8250 -1.2357
   20CHTO   C39 8306   5.381   3.387   5.779  0.9992 -0.1420  0.0905
   20CHTO   H81 8307   5.297   3.386   5.710 -1.4991  0.7990  2.9712
   20CHTO    N7 8308   5.488   3.467   5.709 -0.3112  0.4618  0.6243
   20CHTO   H73 8309   5.457   3.567   5.684  0.4949  0.1794 -1.5823
   20CHTO   H74 8310   5.513   3.407   5.623  0.1521  0.3175  0.8531
   20CHTO   C40 8311   5.440   3.236   5.802 -0.4883 -0.3430  0.1445
   20CHTO   H82 8312   5.536   3.249   5.854 -0.6129 -1.0283  0.5502
   20CHTO   O26 8313   5.354   3.152   5.874 -0.2191  0.3770  0.9023
   20CHTO   C41 8314   5.306   3.203   6.000  0.0020 -0.0919  0.0976
   20CHTO   H83 8315   5.380   3.212   6.080 -0.7523  0.2970  0.7568
   20CHTO   C52 8316   5.204   3.094   6.051  0.2306  0.4581  0.4479
   20CHTO   O35 8317   5.269   2.954   6.061  0.3884  0.1579  0.5319
   20CHTO   H71 8318   5.295   2.935   5.973  1.5015  0.8400  0.7008
   20CHTO   O28 8319   5.451   3.165   5.678 -0.2996 -0.0676  0.2206
   20CHTO   C42 8320   5.580   3.094   5.649 -0.2679 -0.5550  0.1555
   20CHTO   H84 8321   5.541   3.004   5.601 -1.2129 -0.8739  1.4975
   20CHTO   C44 8322   5.672   3.041   5.762  0.0143 -0.7797 -0.1136
   20CHTO   H86 8323   5.703   3.123   5.826 -1.0608 -1.0202  0.7118
   20CHTO   O32 8324   5.585   2.954   5.835  0.2005  0.3230 -0.4954
   20CHTO   H69 8325   5.640   2.909   5.896  1.4514  1.6940 -0.5560
   20CHTO   C48 8326   5.799   2.966   5.708 -0.6561 -0.0891 -0.0469
   20CHTO   H90 8327   5.771   2.889   5.636  0.4380  0.0035 -0.5891
   20CHTO    N9 8328   5.877   2.903   5.814  0.6861 -0.5185  0.5989
   20CHTO   H77 8329   5.913   2.974   5.887  0.0386  0.2313  0.2014
   20CHTO   H78 8330   5.823   2.822   5.860 -1.4405  1.2290  1.2788
   20CHTO   C51 8331   5.886   3.065   5.618 -0.2962  0.3362  0.0536
   20CHTO   H93 8332   5.902   3.159   5.670 -1.0708  0.1434  0.6445
   20CHTO   O30 8333   5.801   3.077   5.508  0.6979  0.0315 -0.0407
   20CHTO   C46 8334   5.670   3.165   5.542  0.1419 -0.1494  0.1938
   20CHTO   H88 8335   5.686   3.267   5.576 -1.0718  0.1827 -0.1932
   20CHTO   C53 8336   5.585   3.173   5.416 -0.9635 -0.2258 -0.4637
   20CHTO   O72 8337   5.661   3.218   5.304 -0.2883 -0.8329 -0.2701
   20CHTO  H199 8338   5.737   3.164   5.296  0.4800  0.4044 -1.8659
   20CHTO   O22 8339   6.002   3.012   5.555  0.4485 -0.2515 -0.3279
   20CHTO   C31 8340   6.129   3.098   5.536 -0.0586  0.2020 -0.6640
   20CHTO   H59 8341   6.203   3.043   5.474 -0.4079  0.3882 -1.2480
   20CHTO   C29 8342   6.090   3.232   5.456 -0.4042 -0.3945 -0.5885
   20CHTO   H57 8343   6.025   3.296   5.519 -0.1987  0.1979 -0.9833
   20CHTO   O21 8344   6.021   3.192   5.341  0.2308  0.7383 -0.0375
   20CHTO   H37 8345   6.044   3.260   5.281  0.8382  2.3868  2.0330
   20CHTO   C27 8346   6.223   3.314   5.427  0.3507 -0.3273 -0.2178
   20CHTO   H55 8347   6.281   3.250   5.359 -0.4425 -0.9333 -0.3293
   20CHTO    N5 8348   6.200   3.448   5.361 -0.5937 -0.4347 -0.1100
   20CHTO   H43 8349   6.246   3.531   5.412 -2.5758  0.3798  0.4094
   20CHTO   H44 8350   6.191   3.450   5.253 -0.8154  0.0176 -0.0827
   20CHTO   C25 8351   6.300   3.334   5.564  0.2099 -0.0131 -0.1326
   20CHTO   H53 8352   6.236   3.393   5.631 -1.5509  0.2664 -2.0556
   20CHTO   O17 8353   6.328   3.210   5.624  0.0546  0.0311 -0.3359
   20CHTO   C32 8354   6.202   3.146   5.665 -0.5092 -0.7007  0.0845
   20CHTO   H60 8355   6.132   3.210   5.719  0.2361 -0.3335  0.6243
   20CHTO   C36 8356   6.239   3.022   5.742 -0.5087 -0.5547  0.2345
   20CHTO   O25 8357   6.314   3.047   5.864  0.2668 -0.4838  0.2756
   20CHTO   H40 8358   6.406   3.058   5.847  0.0093  0.4972 -0.5486
   20CHTO   O15 8359   6.446   3.412   5.546  0.8434  0.0544 -0.4213
   20CHTO   C19 8360   6.554   3.461   5.633  0.3099 -0.1654 -0.0115
   20CHTO   H47 8361   6.622   3.496   5.554 -1.0732 -1.2409 -1.7342
   20CHTO   C20 8362   6.512   3.576   5.734 -0.2146 -0.4706  0.5595
   20CHTO   H48 8363   6.424   3.551   5.795 -0.1742 -0.5445  0.5864
   20CHTO   O19 8364   6.472   3.686   5.654 -0.4006 -0.4776 -0.2406
   20CHTO   H35 8365   6.466   3.766   5.703 -0.9072 -0.3471 -0.5077
   20CHTO   C21 8366   6.636   3.616   5.824  0.2884 -0.3856  0.5325
   20CHTO   H49 8367   6.714   3.656   5.760  0.2336 -0.4048  0.4529
   20CHTO    N4 8368   6.594   3.719   5.922  0.6476 -0.7816  0.2602
   20CHTO   H41 8369   6.648   3.811   5.907 -0.8859  0.0792 -0.0720
   20CHTO   H42 8370   6.614   3.678   6.020  0.1316 -2.2330 -0.2152
   20CHTO   C22 8371   6.705   3.489   5.882 -0.1252 -0.1968 -0.3436
   20CHTO   H50 8372   6.636   3.444   5.952  1.3728 -1.7661  0.1710
   20CHTO   O14 8373   6.736   3.395   5.777  0.2619  0.5644  0.2379
   20CHTO   C23 8374   6.627   3.345   5.699  0.3983  0.5762 -0.6828
   20CHTO   H51 8375   6.564   3.283   5.766  0.2070  1.8957  0.3805
   20CHTO   C34 8376   6.681   3.243   5.591 -0.2817 -0.4493  1.0851
   20CHTO   O23 8377   6.752   3.133   5.646  0.1286 -0.3083 -0.1086
   20CHTO   H38 8378   6.702   3.099   5.717 -0.8320  0.6212 -0.3263
   20CHTO   O16 8379   6.830   3.512   5.947 -0.3948  0.2965 -0.4594
   20CHTO   C24 8380   6.858   3.381   6.051 -0.8941 -0.8516 -0.1704
   20CHTO   H52 8381   6.793   3.296   6.027 -1.0868 -0.8066  0.1779
   20CHTO   C26 8382   6.815   3.421   6.195  0.0896  0.4333  0.4708
   20CHTO   H54 8383   6.886   3.500   6.229  1.5521 -1.3501  1.6133
   20CHTO   O20 8384   6.678   3.473   6.198  0.3401  0.1691 -0.8486
   20CHTO   H36 8385   6.641   3.458   6.283  0.3431  0.6838 -0.7569
   20CHTO   C30 8386   6.831   3.297   6.283  0.6275  0.1216  0.0526
   20CHTO   H58 8387   6.766   3.214   6.251  2.0366 -0.4773 -1.3667
   20CHTO    N6 8388   6.791   3.323   6.426  0.8826  0.5271 -0.3697
   20CHTO   H45 8389   6.733   3.239   6.460 -0.5756  0.4794 -2.8720
   20CHTO   H46 8390   6.877   3.340   6.489 -0.8208  1.0416  1.8835
   20CHTO   C33 8391   6.973   3.226   6.270  0.1065 -0.7986 -0.3542
   20CHTO   H61 8392   7.040   3.284   6.335 -1.8667  0.1478  0.9105
   20CHTO   O18 8393   7.034   3.224   6.137 -0.1738 -0.0807 -0.1569
   20CHTO   C28 8394   7.007   3.337   6.054  0.2794  0.3801 -0.1878
   20CHTO   H56 8395   7.062   3.423   6.091 -0.5809 -0.7049  3.8614
   20CHTO   C35 8396   7.052   3.302   5.908  0.9022  1.2287 -0.2488
   20CHTO   O24 8397   6.973   3.196   5.850 -0.1298 -0.3494  0.3175
   20CHTO   H39 8398   7.007   3.117   5.888 -0.6272 -0.9902 -0.5316
   20CHTO    O9 8399   6.964   3.093   6.329 -0.3779 -0.1363  0.4481
   20CHTO   C13 8400   7.011   2.955   6.225  0.0642  0.1734  0.0360
   20CHTO   H26 8401   7.121   2.957   6.212  0.2920 -3.1884  0.8029
   20CHTO   C11 8402   6.931   2.953   6.094  0.1020 -0.8198  0.3595
   20CHTO   H24 8403   6.954   3.041   6.032 -2.8257  0.6393  1.2423
   20CHTO    O8 8404   6.792   2.968   6.114  0.3267 -0.3560  0.0275
   20CHTO    H3 8405   6.757   2.919   6.186  1.4002 -1.5453 -0.2471
   20CHTO    C9 8406   6.957   2.823   6.016 -0.3253 -0.2334  0.6496
   20CHTO   H22 8407   7.067   2.814   6.007 -0.4147 -0.6215 -0.0324
   20CHTO    N2 8408   6.914   2.842   5.876  0.0222  0.6263  0.5306
   20CHTO   H10 8409   6.808   2.862   5.871 -0.3576 -1.1310  1.1430
   20CHTO   H11 8410   6.936   2.749   5.827 -0.9775  0.0584  1.1362
   20CHTO    C7 8411   6.910   2.699   6.095 -0.2635 -0.1229  0.5029
   20CHTO   H20 8412   6.986   2.622   6.071 -0.2577  0.3237 -0.9764
   20CHTO    O4 8413   6.893   2.720   6.235 -0.4502 -0.0443  0.2420
   20CHTO   C14 8414   6.981   2.815   6.304 -0.4469  0.0762  0.2510
   20CHTO   H27 8415   7.079   2.766   6.324 -0.8046 -0.9136 -0.3736
   20CHTO   C18 8416   6.920   2.847   6.449  0.2274 -0.7889  0.1370
   20CHTO   O13 8417   6.777   2.877   6.443  0.4112  0.3156 -0.5511
   20CHTO    H7 8418   6.721   2.802   6.454  0.2984  0.3876 -0.6299
   20CHTO    O2 8419   6.774   2.649   6.033  0.6831 -0.0945  0.1555
   20CHTO    C1 8420   6.665   2.615   6.119  1.1075  0.0160 -0.0353
   20CHTO   H14 8421   6.659   2.666   6.217  1.2646  1.9338 -0.9957
   20CHTO    C2 8422   6.657   2.455   6.140 -0.0314  0.4770 -0.0820
   20CHTO   H15 8423   6.678   2.409   6.042 -2.0076  0.9555 -0.7443
   20CHTO    O6 8424   6.765   2.430   6.229  0.1674  0.1071 -0.6914
   20CHTO    H1 8425   6.844   2.421   6.179  0.1081 -0.8527 -0.6246
   20CHTO    C3 8426   6.507   2.403   6.197  0.4158 -0.5307 -0.3350
   20CHTO   H16 8427   6.492   2.434   6.301 -1.0661  1.8634 -1.2105
   20CHTO    N1 8428   6.494   2.257   6.207 -0.5083  0.2380 -0.6279
   20CHTO    H8 8429   6.584   2.219   6.253 -0.2538 -1.5462 -2.5217
   20CHTO    H9 8430   6.400   2.229   6.251  0.4332 -0.6181  0.9009
   20CHTO    C4 8431   6.387   2.463   6.124  0.1008  0.1025 -0.3736
   20CHTO   H17 8432   6.370   2.413   6.028  0.1485 -1.2764  0.3138
   20CHTO    O1 8433   6.417   2.606   6.116  0.5753  0.1114 -0.6621
   20CHTO    C5 8434   6.529   2.649   6.033 -0.3808 -0.0137 -0.4809
   20CHTO   H18 8435   6.540   2.588   5.944 -1.7926  1.3472 -1.6089
   20CHTO   C16 8436   6.507   2.797   6.002  0.1954 -0.4337 -0.3971
   20CHTO   O11 8437   6.589   2.850   5.903  0.8599  0.9127 -0.3500
   20CHTO    H5 8438   6.615   2.939   5.920 -2.9324  2.1719 -0.6479
   20CHTO    O3 8439   6.274   2.454   6.211  0.6967 -0.3419 -0.2185
   20CHTO    C6 8440   6.142   2.442   6.143 -0.5885  0.6659  0.3272
   20CHTO   H19 8441   6.150   2.473   6.038 -0.3996  0.1917  0.1988
   20CHTO    C8 8442   6.086   2.297   6.148  0.0787 -0.7187 -0.1777
   20CHTO   H21 8443   6.104   2.259   6.249 -0.6410 -2.0676 -0.5523
   20CHTO    O7 8444   6.162   2.223   6.051  0.1900  0.3452  0.0085
   20CHTO    H2 8445   6.141   2.133   6.063 -1.1518  0.4388 -1.4564
   20CHTO   C12 8446   5.929   2.298   6.122  0.3464  0.3524  0.3765
   20CHTO   H25 8447   5.901   2.313   6.016  1.4378  1.4984  0.2418
   20CHTO    N3 8448   5.868   2.161   6.145  0.4352  0.3017 -0.4795
   20CHTO   H12 8449   5.760   2.158   6.143  0.3706  2.0672 -0.4268
   20CHTO   H13 8450   5.920   2.115   6.227  1.0114 -1.9251 -2.0528
   20CHTO   C15 8451   5.857   2.409   6.211 -0.3580 -0.0487  0.0087
   20CHTO   H28 8452   5.853   2.376   6.314 -0.7882  1.2709  0.4234
   20CHTO   O10 8453   5.709   2.439   6.175 -0.1576  0.4796  0.8011
   20CHTO    H4 8454   5.696   2.431   6.083  2.1385  1.6399  0.3236
   20CHTO    O5 8455   5.913   2.540   6.202  0.3296  0.0960  0.3131
   20CHTO   C10 8456   6.055   2.549   6.214 -0.1145 -0.2329  0.3074
   20CHTO   H23 8457   6.084   2.554   6.319  1.2605 -2.6694  0.0829
   20CHTO   C17 8458   6.092   2.686   6.153  0.5866  0.3324 -0.1176
   20CHTO   O12 8459   6.055   2.806   6.223 -0.7117  0.2334  0.1290
   20CHTO    H6 8460   6.134   2.828   6.270 -0.1152 -0.0940 -0.6956
   21GLOH   H03 8461   8.794   1.766   0.108  0.5803 -0.0786 -0.1272
   21GLOH    O1 8462   8.792   1.725   0.019  0.0685 -0.0281 -0.1388
   21GLOH    C1 8463   8.761   1.582   0.025 -0.5168  0.3777  0.5782
   21GLOH   H02 8464   8.758   1.548  -0.078  0.0821  2.0273 -0.0035
   21GLOH   H08 8465   8.663   1.582   0.073 -0.5426  1.2600  0.5454
   21GLOH    C2 8466   8.862   1.508   0.106 -0.2253 -0.0871  0.4877
   21GLOH   H04 8467   8.957   1.552   0.075 -0.2413 -0.1305  0.3723
   21GLOH    O2 8468   8.840   1.531   0.243 -1.1569 -0.1139  0.1995
   21GLOH   H05 8469   8.836   1.626   0.267  0.5804 -0.3469  1.4807
   21GLOH    C3 8470   8.848   1.357   0.062 -0.3798 -0.1814 -0.1932
   21GLOH   H06 8471   8.749   1.326   0.097  0.1883 -0.7793  0.9254
   21GLOH   H07 8472   8.917   1.285   0.105 -1.1445 -0.3929  0.6939
   21GLOH    O3 8473   8.849   1.334  -0.081  0.1904  0.2940 -0.0344
   21GLOH   H01 8474   8.924   1.382  -0.121  1.9590 -3.1231 -1.0243
   22GLOH   H03 8475   8.429   7.317   3.099  0.8673  0.3099 -0.3085
   22GLOH    O1 8476   8.481   7.398   3.083  0.4369  0.6127 -0.1809
   22GLOH    C1 8477   8.536   7.431   3.210  0.3345 -0.0566  0.2174
   22GLOH   H02 8478   8.614   7.358   3.233 -1.2876 -1.6667  0.7462
   22GLOH   H08 8479   8.468   7.412   3.293  1.3241 -2.6383  0.4988
   22GLOH    C2 8480   8.589   7.575   3.223  1.0967 -0.9028  0.0336
   22GLOH   H04 8481   8.652   7.598   3.136  2.0805  0.7405  1.1610
   22GLOH    O2 8482   8.469   7.656   3.225  0.1728  0.4920  0.1251
   22GLOH   H05 8483   8.438   7.665   3.133 -0.5339 -0.7339  0.2339
   22GLOH    C3 8484   8.669   7.587   3.350 -0.2517 -0.1545  0.0146
   22GLOH   H06 8485   8.670   7.691   3.380 -0.0120 -0.0913 -0.2160
   22GLOH   H07 8486   8.772   7.568   3.320 -0.8660 -2.3132 -0.8819
   22GLOH    O3 8487   8.626   7.496   3.456 -0.0831  0.1124 -0.2372
   22GLOH   H01 8488   8.537   7.522   3.485  0.4365  0.3891  1.1678
   23GLOH   H03 8489   7.800   7.996   5.887 -1.1658  0.6560  0.2639
   23GLOH    O1 8490   7.739   7.922   5.905 -0.4570  0.1536  0.5931
   23GLOH    C1 8491   7.620   7.982   5.958  0.6304  0.0392 -0.3235
   23GLOH   H02 8492   7.584   8.070   5.906  0.8398  0.0337 -0.4764
   23GLOH   H08 8493   7.628   8.012   6.063 -0.9315  3.7640 -1.1826
   23GLOH    C2 8494   7.497   7.888   5.946 -0.6219  0.5355 -0.4632
   23GLOH   H04 8495   7.401   7.934   5.976 -1.2829 -1.3871  0.4341
   23GLOH    O2 8496   7.478   7.844   5.813 -0.3930 -0.0351  0.3853
   23GLOH   H05 8497   7.508   7.911   5.749  0.9050 -0.3870  0.6018
   23GLOH    C3 8498   7.525   7.766   6.041  0.5610  0.2220  0.6323
   23GLOH   H06 8499   7.456   7.686   6.016 -0.3357  1.5135 -1.2295
   23GLOH   H07 8500   7.499   7.792   6.143  0.1863  1.8274  0.1474
   23GLOH    O3 8501   7.662   7.723   6.025  0.7976 -0.3546 -0.5261
   23GLOH   H01 8502   7.699   7.789   5.964  1.2353  0.8424  0.9758
   24GLOH   H03 8503   0.757   3.174   6.764  2.0564  0.4733 -1.7897
   24GLOH    O1 8504   0.702   3.122   6.702 -0.6428  0.1265  0.7452
   24GLOH    C1 8505   0.705   2.987   6.753 -0.0848 -0.0367  0.1535
   24GLOH   H02 8506   0.683   2.992   6.859  0.5158  1.9035  0.2155
   24GLOH   H08 8507   0.805   2.943   6.748  0.8087  1.7864  1.2704
   24GLOH    C2 8508   0.615   2.889   6.680 -0.1440 -0.4177  0.1524
   24GLOH   H04 8509   0.632   2.893   6.571 -2.4562  0.5824 -0.2152
   24GLOH    O2 8510   0.645   2.748   6.718 -0.2007 -0.1764  0.3990
   24GLOH   H05 8511   0.609   2.730   6.807  0.9089  1.0759  1.1265
   24GLOH    C3 8512   0.463   2.930   6.694 -0.4143 -0.5873 -0.0948
   24GLOH   H06 8513   0.422   2.860   6.621  3.6014 -0.8132 -2.2844
   24GLOH   H07 8514   0.451   3.030   6.654 -0.1858 -1.1772 -1.6745
   24GLOH    O3 8515   0.417   2.917   6.825  0.2532  0.1141 -0.7399
   24GLOH   H01 8516   0.446   2.829   6.857 -0.9275 -0.2976 -0.7525
   25GLOH   H03 8517   5.379   1.134   3.938  0.4026 -1.4523  2.9493
   25GLOH    O1 8518   5.417   1.059   3.890  0.1165  0.1332  0.1270
   25GLOH    C1 8519   5.455   0.966   3.988 -0.6145 -0.2206 -0.3483
   25GLOH   H02 8520   5.489   0.876   3.938 -0.4324 -0.2664 -0.1400
   25GLOH   H08 8521   5.373   0.938   4.055  1.8322 -1.4225  2.2570
   25GLOH    C2 8522   5.570   1.025   4.078  0.7245  0.0872 -0.0740
   25GLOH   H04 8523   5.541   1.129   4.097 -2.8847 -0.5601 -1.5765
   25GLOH    O2 8524   5.585   0.948   4.196 -0.8446 -0.0209 -0.5946
   25GLOH   H05 8525   5.617   0.861   4.166 -0.0981  0.4118 -1.0658
   25GLOH    C3 8526   5.702   1.025   3.999 -0.1947  0.5802  0.8241
   25GLOH   H06 8527   5.686   0.937   3.938 -2.4566 -0.2181  2.4799
   25GLOH   H07 8528   5.791   1.011   4.061 -0.6422  1.3471  1.6682
   25GLOH    O3 8529   5.713   1.135   3.905 -0.0702  0.4499 -0.5662
   25GLOH   H01 8530   5.742   1.107   3.816  0.0190  0.5781 -0.5772
   26GLOH   H03 8531   6.020   2.583   4.337  0.2855  0.4865  0.8428
   26GLOH    O1 8532   6.015   2.486   4.341 -0.0632  0.4668  0.1534
   26GLOH    C1 8533   6.137   2.440   4.395 -0.1432 -0.6102  0.0048
   26GLOH   H02 8534   6.128   2.332   4.403 -1.1858 -0.5062  0.3304
   26GLOH   H08 8535   6.160   2.478   4.494 -2.5662  0.4020  0.2187
   26GLOH    C2 8536   6.255   2.473   4.303  0.3957 -0.2498 -0.0069
   26GLOH   H04 8537   6.264   2.578   4.272 -4.1065 -0.8904 -4.0131
   26GLOH    O2 8538   6.372   2.459   4.386 -0.0624  0.2644  0.8562
   26GLOH   H05 8539   6.415   2.373   4.367 -2.6417 -0.9738  0.4294
   26GLOH    C3 8540   6.243   2.393   4.171 -0.3447 -0.0018  0.8443
   26GLOH   H06 8541   6.334   2.420   4.116 -0.8591  0.8978  0.4228
   26GLOH   H07 8542   6.157   2.431   4.117 -0.5309 -1.4631  0.0899
   26GLOH    O3 8543   6.239   2.248   4.180 -0.2889  0.4558 -0.1001
   26GLOH   H01 8544   6.209   2.222   4.091  0.1447  1.5145 -0.5658
   27GLOH   H03 8545   1.517   8.519   3.373  2.9342  2.1305 -1.0085
   27GLOH    O1 8546   1.524   8.557   3.462  0.3228 -0.7468  0.5368
   27GLOH    C1 8547   1.621   8.481   3.525  0.4777 -0.3708 -0.0422
   27GLOH   H02 8548   1.669   8.538   3.605 -1.4923  0.3968  0.6109
   27GLOH   H08 8549   1.701   8.446   3.459  1.0978  2.5755 -0.9692
   27GLOH    C2 8550   1.555   8.368   3.605  0.0303 -0.0324 -0.2588
   27GLOH   H04 8551   1.495   8.403   3.690 -3.5481 -1.8868 -1.9188
   27GLOH    O2 8552   1.460   8.284   3.529  0.3148  0.7133  0.2519
   27GLOH   H05 8553   1.497   8.257   3.443 -0.3614 -0.9702  0.4744
   27GLOH    C3 8554   1.663   8.274   3.667  0.3803 -0.2316 -0.1787
   27GLOH   H06 8555   1.720   8.236   3.583 -0.2176  1.8408 -1.5628
   27GLOH   H07 8556   1.608   8.198   3.722 -0.1766  1.1391  1.2063
   27GLOH    O3 8557   1.752   8.348   3.757  0.4536  0.8677 -0.3601
   27GLOH   H01 8558   1.835   8.300   3.744 -0.8159 -0.5169 -4.1607
   28GLOH   H03 8559   4.442   2.337   6.704 -0.2964 -2.1672  0.2900
   28GLOH    O1 8560   4.519   2.282   6.684  0.6805 -0.7629  0.1210
   28GLOH    C1 8561   4.536   2.282   6.537  0.0250 -0.4612 -0.0036
   28GLOH   H02 8562   4.576   2.379   6.508  0.6207 -0.1341  1.8130
   28GLOH   H08 8563   4.444   2.257   6.484 -0.6195 -2.0466  1.7687
   28GLOH    C2 8564   4.660   2.192   6.497  0.1547 -0.0308 -0.6118
   28GLOH   H04 8565   4.720   2.183   6.589  0.3710 -0.0483 -0.7554
   28GLOH    O2 8566   4.625   2.059   6.447  0.1426  0.1517  0.0561
   28GLOH   H05 8567   4.636   2.061   6.351 -0.2888 -0.8205 -0.0151
   28GLOH    C3 8568   4.742   2.269   6.391  0.5024  0.5148  0.0153
   28GLOH   H06 8569   4.829   2.207   6.369  1.1812  1.7304 -0.7761
   28GLOH   H07 8570   4.773   2.365   6.434  0.7712  0.2120  0.5140
   28GLOH    O3 8571   4.650   2.302   6.274 -0.1375  0.2168  0.4687
   28GLOH   H01 8572   4.615   2.392   6.284 -0.3391  0.2411 -0.4398
   29GLOH   H03 8573   4.026   5.957   5.206 -0.1351  0.4970  1.2598
   29GLOH    O1 8574   4.094   6.008   5.158 -0.3843  0.3224  0.7176
   29GLOH    C1 8575   4.047   6.136   5.116 -0.6274  0.0557 -0.5300
   29GLOH   H02 8576   4.134   6.200   5.101 -1.8226  1.5125 -1.3960
   29GLOH   H08 8577   3.990   6.175   5.200  0.1182 -1.9608  0.9687
   29GLOH    C2 8578   3.964   6.131   4.990  0.2609  0.0111  0.0974
   29GLOH   H04 8579   3.870   6.079   5.015  0.2912 -0.9449 -1.7610
   29GLOH    O2 8580   3.948   6.264   4.949 -0.2830 -0.2190 -0.2538
   29GLOH   H05 8581   3.883   6.265   4.876  0.1614  0.0706 -0.6511
   29GLOH    C3 8582   4.043   6.054   4.882  0.6592 -0.0677  0.1160
   29GLOH   H06 8583   4.077   5.957   4.920 -1.6156 -0.6663  0.6538
   29GLOH   H07 8584   4.142   6.099   4.870  0.2427  1.3961  2.0707
   29GLOH    O3 8585   3.970   6.033   4.760 -0.3343  0.4135 -0.2597
   29GLOH   H01 8586   3.912   5.957   4.778  0.6798  0.3237  2.9643
   30GLOH   H03 8587   7.306   7.144   3.698  0.3089 -1.3442 -0.1835
   30GLOH    O1 8588   7.323   7.142   3.794  0.2723 -0.3541 -0.1514
   30GLOH    C1 8589   7.397   7.259   3.817 -0.4141  0.1239 -0.0552
   30GLOH   H02 8590   7.491   7.254   3.763 -0.2556 -1.0125  0.3101
   30GLOH   H08 8591   7.419   7.277   3.922  3.3839  3.9153 -1.3459
   30GLOH    C2 8592   7.349   7.396   3.779 -0.2449  0.1163  0.3221
   30GLOH   H04 8593   7.409   7.474   3.827 -1.4697  1.7545 -0.7510
   30GLOH    O2 8594   7.355   7.412   3.637  1.0144 -0.6645 -0.5327
   30GLOH   H05 8595   7.396   7.499   3.621 -3.6556  1.8381  0.0026
   30GLOH    C3 8596   7.203   7.412   3.817 -0.5617 -0.1231  0.3700
   30GLOH   H06 8597   7.139   7.351   3.753 -0.0589 -0.6050  0.3207
   30GLOH   H07 8598   7.188   7.518   3.795 -0.3777 -0.5325 -1.8488
   30GLOH    O3 8599   7.169   7.395   3.956 -0.2574  0.0792 -0.3853
   30GLOH   H01 8600   7.116   7.313   3.962  0.6454 -0.6729 -2.1401
   31GLOH   H03 8601   0.068   7.557   0.430 -2.3800 -1.8273 -2.5451
   31GLOH    O1 8602   0.097   7.615   0.358  0.3774  0.4688  0.2720
   31GLOH    C1 8603  -0.010   7.704   0.324  0.2072  0.5740 -0.9364
   31GLOH   H02 8604  -0.032   7.767   0.409  1.7165  1.8427 -1.4637
   31GLOH   H08 8605  -0.102   7.654   0.292 -0.9760  1.8127  0.4405
   31GLOH    C2 8606   0.025   7.798   0.206 -0.6735  0.2853  0.4711
   31GLOH   H04 8607   0.036   7.746   0.110  0.5480  1.2175  0.0889
   31GLOH    O2 8608  -0.082   7.891   0.188  0.7008  0.0423 -0.5456
   31GLOH   H05 8609  -0.060   7.964   0.249 -0.2681  0.4561 -0.6786
   31GLOH    C3 8610   0.158   7.872   0.240  0.5505  0.0918  0.2092
   31GLOH   H06 8611   0.235   7.799   0.218 -1.1643 -1.2186 -1.6018
   31GLOH   H07 8612   0.165   7.902   0.345  1.2631  0.1308  0.1477
   31GLOH    O3 8613   0.194   7.983   0.147  0.1962 -0.5473 -0.1725
   31GLOH   H01 8614   0.241   7.953   0.067 -0.1385 -0.4696 -0.4016
   32GLOH   H03 8615   7.370   2.599   1.662 -1.0397 -0.4499 -0.2697
   32GLOH    O1 8616   7.373   2.515   1.612  0.1888 -0.3568 -0.3616
   32GLOH    C1 8617   7.500   2.451   1.628  0.5489  0.0669  0.1566
   32GLOH   H02 8618   7.471   2.349   1.602 -2.2059  0.8606 -0.0614
   32GLOH   H08 8619   7.545   2.455   1.727 -0.6508  0.0175  0.7142
   32GLOH    C2 8620   7.602   2.503   1.524  0.3784  0.8035  0.5300
   32GLOH   H04 8621   7.695   2.448   1.546  0.7806  0.9764 -0.6867
   32GLOH    O2 8622   7.567   2.465   1.389 -0.2952  0.1852  0.3162
   32GLOH   H05 8623   7.639   2.501   1.333 -2.2393  0.5887 -1.9876
   32GLOH    C3 8624   7.620   2.652   1.530 -0.1971 -0.4617 -0.4117
   32GLOH   H06 8625   7.536   2.700   1.480 -1.5132 -0.2553  1.9232
   32GLOH   H07 8626   7.716   2.675   1.484 -0.9765  3.0431 -0.4085
   32GLOH    O3 8627   7.622   2.699   1.667 -0.0500 -0.4864 -0.1685
   32GLOH   H01 8628   7.609   2.796   1.668  0.5175 -0.3981 -0.8829
   33GLOH   H03 8629   8.100   9.605   2.366 -1.0247 -0.5833 -1.5269
   33GLOH    O1 8630   8.077   9.692   2.329  0.2007  0.3020 -0.2870
   33GLOH    C1 8631   8.128   9.719   2.198 -0.4372  0.4022 -0.5406
   33GLOH   H02 8632   8.069   9.795   2.146  0.3478  2.0045  0.8751
   33GLOH   H08 8633   8.122   9.629   2.136  2.2102 -0.5132  0.4463
   33GLOH    C2 8634   8.275   9.771   2.194  0.4076 -0.0659 -0.5658
   33GLOH   H04 8635   8.274   9.869   2.243  1.0886 -0.1223 -0.4268
   33GLOH    O2 8636   8.355   9.675   2.262 -0.0046 -0.3268  0.1473
   33GLOH   H05 8637   8.441   9.708   2.293 -0.3627  0.0550  0.7364
   33GLOH    C3 8638   8.315   9.804   2.046 -0.1505 -0.1167  0.6233
   33GLOH   H06 8639   8.250   9.887   2.021 -0.2033 -0.3935 -0.1696
   33GLOH   H07 8640   8.296   9.707   1.998  4.3394 -0.5059 -0.6650
   33GLOH    O3 8641   8.451   9.849   2.022  0.2598 -0.1986 -0.0708
   33GLOH   H01 8642   8.513   9.788   2.065  0.5843  0.9450  1.1462
   34GLOH   H03 8643   9.049   9.607   1.554 -0.7297 -2.3065  0.4988
   34GLOH    O1 8644   8.990   9.627   1.629 -0.0496  0.1902  0.4101
   34GLOH    C1 8645   9.048   9.560   1.743  0.4503 -0.4245 -1.0299
   34GLOH   H02 8646   9.084   9.633   1.817 -0.2291 -1.1693  0.0491
   34GLOH   H08 8647   9.135   9.503   1.712  0.0058 -1.5305 -0.2759
   34GLOH    C2 8648   8.956   9.447   1.801 -0.0784 -0.3551 -0.5201
   34GLOH   H04 8649   8.922   9.375   1.725 -0.3635 -2.2059  1.2923
   34GLOH    O2 8650   9.024   9.378   1.910  0.4122  0.2900  0.2061
   34GLOH   H05 8651   8.966   9.305   1.936 -0.4968  0.3092 -1.6693
   34GLOH    C3 8652   8.823   9.510   1.846  0.6181 -0.2021  0.2916
   34GLOH   H06 8653   8.765   9.536   1.757  0.3724  0.5539  0.6678
   34GLOH   H07 8654   8.844   9.607   1.890  0.8182  0.1801 -0.6287
   34GLOH    O3 8655   8.738   9.433   1.936  0.0700  0.2276  0.1552
   34GLOH   H01 8656   8.780   9.422   2.024 -1.9256 -0.1430  1.0863
   35GLOH   H03 8657   2.198   8.732   5.589 -1.0779  0.6197 -1.7999
   35GLOH    O1 8658   2.280   8.784   5.577 -0.6197  0.1391 -0.7915
   35GLOH    C1 8659   2.302   8.774   5.434  0.2632  0.1438  0.3130
   35GLOH   H02 8660   2.219   8.789   5.365 -0.0978 -1.5959  0.3358
   35GLOH   H08 8661   2.333   8.676   5.397  0.5317  0.1938  0.4013
   35GLOH    C2 8662   2.410   8.882   5.398 -0.0610 -0.2554  0.5377
   35GLOH   H04 8663   2.508   8.865   5.445 -0.3430 -2.5915  0.3479
   35GLOH    O2 8664   2.427   8.874   5.257 -0.4568  0.6368 -0.2597
   35GLOH   H05 8665   2.498   8.933   5.229 -1.3258  2.0426  0.4556
   35GLOH    C3 8666   2.350   9.016   5.442  0.5268 -0.7031 -1.1093
   35GLOH   H06 8667   2.344   9.013   5.551 -0.0407  0.8244 -1.0897
   35GLOH   H07 8668   2.249   9.023   5.402 -0.3312  2.7082  1.3914
   35GLOH    O3 8669   2.432   9.128   5.407  0.0656  0.0824  0.2963
   35GLOH   H01 8670   2.519   9.123   5.451  1.3870  0.9334 -2.1495
   36GLOH   H03 8671   4.220   8.005   0.871  0.2668 -1.9532  0.0159
   36GLOH    O1 8672   4.154   7.991   0.941  0.3437 -0.0113  0.4855
   36GLOH    C1 8673   4.179   8.093   1.040 -0.0284 -0.2209 -0.6901
   36GLOH   H02 8674   4.087   8.122   1.092  0.0578 -0.9308 -0.1336
   36GLOH   H08 8675   4.220   8.185   0.999 -2.3731  0.6286 -1.2524
   36GLOH    C2 8676   4.282   8.040   1.140  0.0731 -0.5024 -0.4185
   36GLOH   H04 8677   4.377   8.021   1.088  1.0786 -0.5645  1.4059
   36GLOH    O2 8678   4.317   8.125   1.252 -0.4069 -0.6137  0.3805
   36GLOH   H05 8679   4.390   8.181   1.220  0.3913 -3.0186 -2.1674
   36GLOH    C3 8680   4.218   7.915   1.205 -0.1524  0.0684  0.0235
   36GLOH   H06 8681   4.127   7.941   1.258 -0.3227  1.0723 -0.7258
   36GLOH   H07 8682   4.287   7.881   1.282 -0.7075 -1.0623  0.0308
   36GLOH    O3 8683   4.200   7.811   1.103 -0.5420 -0.0450 -0.5179
   36GLOH   H01 8684   4.185   7.864   1.023 -1.1028  1.3208  0.4860
   37GLOH   H03 8685   3.668   5.733   5.767  0.0336 -0.2571 -2.3249
   37GLOH    O1 8686   3.759   5.757   5.796 -0.4816 -0.3973 -0.5546
   37GLOH    C1 8687   3.813   5.654   5.881  0.6767 -0.9636  0.5632
   37GLOH   H02 8688   3.745   5.641   5.965 -0.3611  1.5475  0.1513
   37GLOH   H08 8689   3.907   5.698   5.915  0.1884  1.7879 -1.4260
   37GLOH    C2 8690   3.836   5.523   5.805  0.1059 -1.0855 -0.7400
   37GLOH   H04 8691   3.880   5.455   5.878  0.6989  1.2884  1.1596
   37GLOH    O2 8692   3.715   5.467   5.751  0.0493 -0.1668  0.0169
   37GLOH   H05 8693   3.648   5.535   5.731 -0.3396 -0.4527  0.3222
   37GLOH    C3 8694   3.944   5.534   5.704 -0.0756 -0.0338 -0.3818
   37GLOH   H06 8695   3.948   5.630   5.653 -1.2249 -0.3586 -1.0985
   37GLOH   H07 8696   3.921   5.458   5.629 -0.5914  0.2744 -0.5362
   37GLOH    O3 8697   4.071   5.491   5.763 -0.7249  0.6616 -0.0221
   37GLOH   H01 8698   4.122   5.572   5.780  1.5309 -0.9078  0.8271
   38GLOH   H03 8699   7.130   2.873   2.456  2.0340 -1.7433  1.1712
   38GLOH    O1 8700   7.165   2.848   2.369  0.6356 -0.6369  0.2658
   38GLOH    C1 8701   7.294   2.794   2.394 -0.5121 -0.0386 -0.5688
   38GLOH   H02 8702   7.281   2.710   2.463 -1.2940  1.0161  0.5832
   38GLOH   H08 8703   7.366   2.864   2.437 -2.7300  0.0524  3.2534
   38GLOH    C2 8704   7.344   2.753   2.253 -0.0555 -0.5287 -0.1195
   38GLOH   H04 8705   7.269   2.694   2.198 -1.3757  0.7696  0.2512
   38GLOH    O2 8706   7.375   2.876   2.182 -0.0265 -0.1402  0.2836
   38GLOH   H05 8707   7.441   2.858   2.113 -0.0154  0.0744  0.2403
   38GLOH    C3 8708   7.471   2.661   2.247 -0.4614  0.0790  0.4727
   38GLOH   H06 8709   7.562   2.720   2.260 -0.4205  0.5420 -1.7264
   38GLOH   H07 8710   7.476   2.637   2.140  1.1577  2.0463  0.0722
   38GLOH    O3 8711   7.463   2.542   2.318 -0.2993  0.0125  0.3040
   38GLOH   H01 8712   7.373   2.507   2.305 -0.1832 -0.5881  1.0600
   39GLOH   H03 8713   9.711   1.492   5.110  3.2093 -1.1058  2.3155
   39GLOH    O1 8714   9.672   1.403   5.106  0.2700  0.1845  0.0557
   39GLOH    C1 8715   9.734   1.335   5.217 -0.1838  0.1035 -0.3135
   39GLOH   H02 8716   9.690   1.374   5.309 -0.1750 -1.9200  0.5674
   39GLOH   H08 8717   9.838   1.366   5.223 -0.7217  2.0468 -0.5531
   39GLOH    C2 8718   9.695   1.190   5.208 -0.8719 -0.3321  0.1143
   39GLOH   H04 8719   9.727   1.143   5.302  0.1178 -1.3075 -0.6957
   39GLOH    O2 8720   9.554   1.166   5.205  0.4406  0.1850 -0.0293
   39GLOH   H05 8721   9.500   1.233   5.159  1.3762  2.1741  1.7150
   39GLOH    C3 8722   9.760   1.120   5.092  0.5399  0.8600  0.4642
   39GLOH   H06 8723   9.868   1.138   5.087  0.4032  2.0842  1.6071
   39GLOH   H07 8724   9.730   1.170   5.000  0.0538 -0.8062 -0.3010
   39GLOH    O3 8725   9.738   0.983   5.079 -0.2885  0.0448  0.1989
   39GLOH   H01 8726   9.642   0.967   5.087 -0.4434  0.6054 -0.4741
   40GLOH   H03 8727   1.547   2.446   4.128 -0.0495  0.6084  0.0470
   40GLOH    O1 8728   1.611   2.425   4.198  0.0425  0.2904 -0.1326
   40GLOH    C1 8729   1.588   2.280   4.214 -0.5684 -0.2729  0.3311
   40GLOH   H02 8730   1.645   2.244   4.299 -1.4084 -1.3844  0.4404
   40GLOH   H08 8731   1.625   2.225   4.127 -1.7976 -0.5441 -0.0413
   40GLOH    C2 8732   1.442   2.235   4.231 -0.5114 -0.5871 -0.3828
   40GLOH   H04 8733   1.391   2.230   4.134 -1.8400  0.3307  0.2442
   40GLOH    O2 8734   1.456   2.101   4.269 -0.6509  0.2171 -0.9625
   40GLOH   H05 8735   1.447   2.051   4.186 -0.4516 -0.1159 -0.7845
   40GLOH    C3 8736   1.353   2.320   4.319 -0.1374 -0.0123  0.2917
   40GLOH   H06 8737   1.394   2.312   4.420 -2.3109 -0.9372  1.1434
   40GLOH   H07 8738   1.256   2.270   4.320  0.5556 -1.4073  2.4243
   40GLOH    O3 8739   1.355   2.457   4.278 -0.0450 -0.1573 -0.3579
   40GLOH   H01 8740   1.438   2.482   4.233  0.9205 -0.2627  1.3556
   41GLOH   H03 8741   1.318   1.147   2.149 -0.2463 -0.8938  3.0006
   41GLOH    O1 8742   1.228   1.175   2.128  0.4020 -0.6521  0.4109
   41GLOH    C1 8743   1.149   1.149   2.241  0.6852 -0.0597  0.4058
   41GLOH   H02 8744   1.145   1.235   2.309  0.7952  0.2312  0.0477
   41GLOH   H08 8745   1.202   1.068   2.291  2.1757 -0.0745 -1.1274
   41GLOH    C2 8746   0.998   1.109   2.217 -0.1787  0.2330  0.1810
   41GLOH   H04 8747   1.016   1.004   2.189  2.0988  0.3975  0.9486
   41GLOH    O2 8748   0.922   1.112   2.336 -0.0578 -0.4500 -0.2242
   41GLOH   H05 8749   0.932   1.032   2.390 -0.5793 -0.3681 -0.0028
   41GLOH    C3 8750   0.926   1.178   2.103  0.0327  0.1166  0.2155
   41GLOH   H06 8751   0.908   1.279   2.138 -3.4773 -0.0071 -1.0146
   41GLOH   H07 8752   0.828   1.143   2.070 -0.4727  0.7455  1.0465
   41GLOH    O3 8753   1.017   1.183   1.986 -0.1434 -0.0453  0.1564
   41GLOH   H01 8754   1.105   1.188   2.028 -0.8513  2.9468  1.4631
   42GLOH   H03 8755   4.524   4.893   4.719 -0.9126  0.4107  1.5262
   42GLOH    O1 8756   4.610   4.900   4.765 -0.1101 -0.1644  0.1274
   42GLOH    C1 8757   4.692   4.997   4.691  0.0851 -0.0165 -1.1143
   42GLOH   H02 8758   4.770   5.036   4.757 -0.4759  0.2696 -0.6150
   42GLOH   H08 8759   4.643   5.086   4.653  0.4341 -0.5521 -2.8645
   42GLOH    C2 8760   4.761   4.934   4.562  0.4553  0.6673  0.2746
   42GLOH   H04 8761   4.791   5.018   4.498  0.8057 -0.0498 -0.5153
   42GLOH    O2 8762   4.878   4.858   4.604  0.2914 -0.2712 -0.3410
   42GLOH   H05 8763   4.887   4.792   4.533 -1.2363 -1.1103  0.2054
   42GLOH    C3 8764   4.653   4.864   4.482 -0.1037  0.0072 -0.2405
   42GLOH   H06 8765   4.568   4.932   4.491  0.8866  1.1709  0.6131
   42GLOH   H07 8766   4.628   4.768   4.526 -2.5161  1.1715  1.0421
   42GLOH    O3 8767   4.691   4.837   4.352  0.3196 -0.0291 -0.7259
   42GLOH   H01 8768   4.609   4.842   4.300 -0.9267 -2.8737  0.8185
   43GLOH   H03 8769   0.137   7.750   1.768 -1.2034  1.7860 -0.3845
   43GLOH    O1 8770   0.218   7.805   1.774 -0.1429  0.1956  0.0494
   43GLOH    C1 8771   0.189   7.935   1.707  0.1821  1.6159  0.5207
   43GLOH   H02 8772   0.281   7.984   1.677 -0.4507  1.3448 -1.9266
   43GLOH   H08 8773   0.136   7.998   1.779  1.0762  1.1326  1.6256
   43GLOH    C2 8774   0.098   7.915   1.589  0.4399  0.1668  0.2643
   43GLOH   H04 8775   0.004   7.877   1.631  0.9308 -1.4360 -0.0816
   43GLOH    O2 8776   0.081   8.035   1.518 -0.0348 -0.1051 -0.4445
   43GLOH   H05 8777   0.156   8.061   1.463 -0.6008 -0.8732 -1.6038
   43GLOH    C3 8778   0.159   7.815   1.492 -0.4067  0.5796  0.4211
   43GLOH   H06 8779   0.263   7.840   1.470  0.0369 -1.3218  0.2538
   43GLOH   H07 8780   0.108   7.820   1.396  0.0752  0.6976  0.1664
   43GLOH    O3 8781   0.143   7.677   1.535  0.2064 -0.3848  0.1015
   43GLOH   H01 8782   0.153   7.617   1.459  0.9339 -2.4351  1.7525
   44GLOH   H03 8783   9.545   1.071   5.335  1.8616 -1.1140 -0.0459
   44GLOH    O1 8784   9.527   1.049   5.428  0.7024  0.0660  0.0119
   44GLOH    C1 8785   9.494   1.175   5.492  0.5222 -0.2851 -0.0940
   44GLOH   H02 8786   9.414   1.219   5.432 -1.3140 -1.6239  1.3242
   44GLOH   H08 8787   9.587   1.231   5.484 -0.4142  1.1628 -1.0612
   44GLOH    C2 8788   9.443   1.155   5.642 -0.6021  0.2441  0.4008
   44GLOH   H04 8789   9.518   1.090   5.689 -1.4604 -1.8168 -1.0264
   44GLOH    O2 8790   9.440   1.284   5.712 -0.5282  0.0900  0.0907
   44GLOH   H05 8791   9.509   1.342   5.677 -0.1246  0.3475  1.3019
   44GLOH    C3 8792   9.311   1.074   5.648 -0.5946 -0.2752 -0.1411
   44GLOH   H06 8793   9.235   1.115   5.581 -0.3670 -0.6456 -0.6287
   44GLOH   H07 8794   9.261   1.081   5.744 -3.0632  2.2120 -1.5287
   44GLOH    O3 8795   9.331   0.937   5.611 -0.0748 -0.2464 -0.0565
   44GLOH   H01 8796   9.272   0.892   5.675  0.3241  0.8551  1.0929
   45GLOH   H03 8797   6.972   2.128   1.480  2.1982 -1.8407 -0.6388
   45GLOH    O1 8798   6.970   2.114   1.576  0.1242  0.0910 -0.3581
   45GLOH    C1 8799   6.851   2.039   1.621  0.5346 -0.5465 -0.1304
   45GLOH   H02 8800   6.768   2.099   1.659  0.6096 -1.0243  0.8166
   45GLOH   H08 8801   6.881   1.975   1.704  0.3121 -1.1768 -0.5301
   45GLOH    C2 8802   6.801   1.937   1.512  0.1796 -0.3761 -0.6276
   45GLOH   H04 8803   6.859   1.844   1.518  1.2684  0.1349 -2.7075
   45GLOH    O2 8804   6.667   1.907   1.528  0.3926 -0.3815 -0.8614
   45GLOH   H05 8805   6.630   1.832   1.477 -2.7091  0.6922 -0.3098
   45GLOH    C3 8806   6.830   1.986   1.363  0.4389 -0.2612  0.0690
   45GLOH   H06 8807   6.768   2.073   1.345  0.2331 -0.2388  0.8436
   45GLOH   H07 8808   6.789   1.909   1.296 -2.5533  0.1249  1.3638
   45GLOH    O3 8809   6.965   2.015   1.345 -0.1581 -0.5219 -0.8572
   45GLOH   H01 8810   7.028   1.944   1.368 -2.7772 -1.6500  3.5028
   46GLOH   H03 8811   5.567   5.925   1.823  0.1656 -0.2310 -0.1003
   46GLOH    O1 8812   5.597   6.006   1.778  0.7198 -0.2647  0.1959
   46GLOH    C1 8813   5.659   6.111   1.854 -0.2572  0.1605 -0.8212
   46GLOH   H02 8814   5.621   6.207   1.819 -0.8759  0.9536  1.8447
   46GLOH   H08 8815   5.768   6.112   1.850 -0.2625  2.4882 -1.0863
   46GLOH    C2 8816   5.627   6.110   2.006 -0.6508  0.0370 -0.3645
   46GLOH   H04 8817   5.663   6.010   2.035  1.3219  0.7870 -0.1419
   46GLOH    O2 8818   5.695   6.217   2.077  0.4169 -0.2176 -0.1387
   46GLOH   H05 8819   5.630   6.287   2.099 -0.1806 -0.8824  0.2106
   46GLOH    C3 8820   5.472   6.114   2.028  0.0350  0.2508  0.4195
   46GLOH   H06 8821   5.415   6.036   1.978 -2.1702  1.5702  0.8170
   46GLOH   H07 8822   5.431   6.210   1.995  0.5337  0.9246  1.7153
   46GLOH    O3 8823   5.448   6.092   2.171  0.4117 -0.1309 -0.2262
   46GLOH   H01 8824   5.486   6.166   2.221 -0.1304 -0.8040  1.1847
   47GLOH   H03 8825   8.775   1.972   3.321  1.7201  1.6346 -0.2191
   47GLOH    O1 8826   8.723   2.037   3.372 -0.3215 -0.2453  0.1862
   47GLOH    C1 8827   8.817   2.118   3.445 -0.4002  0.2575  0.0325
   47GLOH   H02 8828   8.888   2.157   3.372 -1.0130  0.2957 -0.5450
   47GLOH   H08 8829   8.869   2.060   3.522  0.1274  0.5999 -0.0609
   47GLOH    C2 8830   8.762   2.238   3.528  0.4253 -0.1474 -0.8624
   47GLOH   H04 8831   8.699   2.299   3.462  0.8477 -0.0418 -1.1704
   47GLOH    O2 8832   8.680   2.194   3.637  0.0756 -0.3119 -0.1340
   47GLOH   H05 8833   8.650   2.283   3.664  2.3343  0.0871  1.3203
   47GLOH    C3 8834   8.872   2.332   3.585 -0.1298  0.5259 -0.2676
   47GLOH   H06 8835   8.935   2.276   3.654  0.5759 -0.5127 -1.7157
   47GLOH   H07 8836   8.835   2.422   3.632 -0.7155 -0.8081  1.8720
   47GLOH    O3 8837   8.963   2.385   3.485  0.1238  0.1812 -0.4901
   47GLOH   H01 8838   9.049   2.339   3.494  0.3584  0.4702 -1.2162
   48GLOH   H03 8839   7.593   6.193   4.950 -1.0592 -0.6797  0.4624
   48GLOH    O1 8840   7.561   6.185   4.858 -0.1448  0.2992  0.0533
   48GLOH    C1 8841   7.673   6.168   4.769 -0.2454 -0.4244  0.0173
   48GLOH   H02 8842   7.647   6.105   4.685 -0.4339 -0.5722  0.1850
   48GLOH   H08 8843   7.748   6.104   4.815 -0.5551 -1.6470 -1.1618
   48GLOH    C2 8844   7.744   6.297   4.735  0.2264 -0.6806 -0.6718
   48GLOH   H04 8845   7.753   6.355   4.828  0.0655 -1.3778 -0.2125
   48GLOH    O2 8846   7.872   6.266   4.679  0.6758  0.4549  0.0559
   48GLOH   H05 8847   7.939   6.248   4.747 -0.2970  1.0692  1.1933
   48GLOH    C3 8848   7.641   6.369   4.647 -0.6555  0.2605  0.1310
   48GLOH   H06 8849   7.613   6.299   4.569 -0.9189  1.7723 -1.1629
   48GLOH   H07 8850   7.686   6.459   4.605 -0.5901 -0.0159 -0.3913
   48GLOH    O3 8851   7.522   6.400   4.719 -0.0192  0.7328 -0.0354
   48GLOH   H01 8852   7.495   6.328   4.780  0.4719  0.8322  0.3017
   49GLOH   H03 8853   7.698   0.487   0.644 -0.9322 -3.0655 -0.9220
   49GLOH    O1 8854   7.744   0.507   0.561 -0.3493 -0.7543 -0.0931
   49GLOH    C1 8855   7.875   0.542   0.584 -0.0558  0.7580 -0.4617
   49GLOH   H02 8856   7.927   0.542   0.488  2.3508 -2.2539  0.7349
   49GLOH   H08 8857   7.924   0.476   0.656 -1.2723  1.4733  1.0304
   49GLOH    C2 8858   7.892   0.689   0.636 -0.5656  0.0473  0.0924
   49GLOH   H04 8859   7.819   0.709   0.716 -0.0966  0.5056  0.4071
   49GLOH    O2 8860   8.027   0.710   0.685  0.0917  0.4092 -0.1690
   49GLOH   H05 8861   8.045   0.806   0.686 -1.4168  0.7247  3.2799
   49GLOH    C3 8862   7.863   0.784   0.518  0.0314  0.1117  0.4614
   49GLOH   H06 8863   7.958   0.797   0.466 -0.5162 -0.4299 -0.6999
   49GLOH   H07 8864   7.833   0.881   0.556  1.7650  0.8738 -0.0840
   49GLOH    O3 8865   7.767   0.732   0.425  0.4018  0.2109  0.0462
   49GLOH   H01 8866   7.743   0.643   0.459  0.4324 -0.0751 -0.6678
   50GLOH   H03 8867   0.334   2.691   6.494  1.1615  0.1922 -0.5027
   50GLOH    O1 8868   0.352   2.599   6.519  0.6324  0.3506  0.4860
   50GLOH    C1 8869   0.293   2.508   6.421  0.3395  0.0634 -0.3895
   50GLOH   H02 8870   0.240   2.554   6.338 -0.4939 -0.6550 -0.2625
   50GLOH   H08 8871   0.222   2.442   6.472  1.3112  0.0617  0.9891
   50GLOH    C2 8872   0.404   2.412   6.364 -0.0937  0.5644 -0.4173
   50GLOH   H04 8873   0.439   2.357   6.453  1.8965  0.7231 -1.0746
   50GLOH    O2 8874   0.338   2.322   6.271 -0.8459 -0.3571  1.1216
   50GLOH   H05 8875   0.395   2.305   6.194  0.2740  1.8721  1.4004
   50GLOH    C3 8876   0.526   2.486   6.301 -0.3550 -0.2416 -0.5821
   50GLOH   H06 8877   0.572   2.525   6.392 -0.7590 -0.0034 -0.4788
   50GLOH   H07 8878   0.491   2.571   6.243  0.4519  1.2441  1.0903
   50GLOH    O3 8879   0.607   2.391   6.228 -0.1363 -0.2733  0.3574
   50GLOH   H01 8880   0.661   2.340   6.291  0.9086 -1.3229 -1.3496
   51GLOH   H03 8881   8.175   2.098   0.432  1.1518  0.2153 -1.4062
   51GLOH    O1 8882   8.124   2.124   0.353 -0.3115  0.1495 -0.5009
   51GLOH    C1 8883   8.012   2.037   0.343 -0.6212 -0.3144 -0.3353
   51GLOH   H02 8884   7.945   2.060   0.425  1.1118 -3.1306  1.9933
   51GLOH   H08 8885   8.043   1.932   0.345  1.6514  0.2375 -2.8268
   51GLOH    C2 8886   7.940   2.058   0.205  0.0598  0.0928 -0.9455
   51GLOH   H04 8887   8.005   2.029   0.120 -1.2835 -0.6196 -1.7434
   51GLOH    O2 8888   7.819   1.968   0.193 -0.5323  0.0334 -0.2677
   51GLOH   H05 8889   7.785   1.970   0.102 -2.1427  1.5231  0.3367
   51GLOH    C3 8890   7.901   2.207   0.183 -0.1565 -0.7354 -0.1451
   51GLOH   H06 8891   7.809   2.231   0.236  0.1772  0.4453 -0.0831
   51GLOH   H07 8892   7.874   2.221   0.078  3.6073  1.6921 -0.9005
   51GLOH    O3 8893   8.000   2.313   0.209  0.1086  0.0335 -0.4489
   51GLOH   H01 8894   8.070   2.267   0.260 -1.1874 -1.0902  0.3572
   52GLOH   H03 8895   7.803   9.502   2.902  0.2251 -0.5101  0.1063
   52GLOH    O1 8896   7.895   9.532   2.917  0.3067 -0.4658 -0.4376
   52GLOH    C1 8897   7.939   9.578   2.787 -0.2286 -0.4058 -0.2404
   52GLOH   H02 8898   7.866   9.549   2.712 -0.7757  2.8588 -1.0716
   52GLOH   H08 8899   8.035   9.531   2.765 -1.5170 -3.2851  0.0546
   52GLOH    C2 8900   7.933   9.728   2.787 -0.1248 -0.1008 -0.4839
   52GLOH   H04 8901   7.957   9.752   2.683  0.2210 -1.1317 -0.6412
   52GLOH    O2 8902   7.804   9.781   2.810 -0.2996  0.6239 -0.0912
   52GLOH   H05 8903   7.786   9.762   2.903 -2.4031 -1.7177 -0.9211
   52GLOH    C3 8904   8.028   9.797   2.886 -0.5483 -0.5139  0.2520
   52GLOH   H06 8905   8.008   9.758   2.986 -3.3340 -3.0725 -1.2075
   52GLOH   H07 8906   7.995   9.901   2.882 -0.9278 -0.6466 -0.2976
   52GLOH    O3 8907   8.172   9.792   2.847  0.1844 -0.2920  0.2411
   52GLOH   H01 8908   8.190   9.872   2.794 -0.9887 -0.1486  0.0413
   53GLOH   H03 8909   6.920   8.282   3.821  0.9110  0.5900 -0.7109
   53GLOH    O1 8910   6.924   8.332   3.904 -0.5360 -0.0562 -0.2273
   53GLOH    C1 8911   7.032   8.290   3.986 -0.2810  0.0298 -0.0477
   53GLOH   H02 8912   7.109   8.366   3.970  0.9692 -1.1793  0.1086
   53GLOH   H08 8913   7.076   8.195   3.956 -2.1723 -0.3123 -1.8825
   53GLOH    C2 8914   6.985   8.281   4.135  0.6683  0.1205 -0.3181
   53GLOH   H04 8915   6.897   8.216   4.146  0.8298  0.0351  0.4653
   53GLOH    O2 8916   7.098   8.228   4.212 -0.0927  0.1084  0.1643
   53GLOH   H05 8917   7.085   8.131   4.211 -0.7216  0.1321  2.4461
   53GLOH    C3 8918   6.935   8.425   4.186  0.0515  0.6621 -0.0468
   53GLOH   H06 8919   7.022   8.480   4.223 -0.0274  1.0376 -0.4201
   53GLOH   H07 8920   6.871   8.423   4.274  0.6276 -0.8240  0.3626
   53GLOH    O3 8921   6.865   8.495   4.083 -0.2365  0.0091 -0.4155
   53GLOH   H01 8922   6.871   8.431   4.010  1.3164  0.9976 -1.1944
   54GLOH   H03 8923   1.679   6.062   6.071  0.4177  0.2297 -0.6393
   54GLOH    O1 8924   1.772   6.064   6.103  0.1286 -0.1089  0.2387
   54GLOH    C1 8925   1.846   6.056   5.983 -0.5871  0.3298 -0.1459
   54GLOH   H02 8926   1.848   6.153   5.933  0.0933  0.7135  0.6092
   54GLOH   H08 8927   1.795   5.975   5.931  1.9932 -2.5578  1.6282
   54GLOH    C2 8928   1.996   6.011   5.998 -0.4576 -0.0209  0.8633
   54GLOH   H04 8929   2.038   6.085   6.068 -2.4308  0.5863  1.4357
   54GLOH    O2 8930   2.024   5.878   6.044 -0.4032  0.5855 -0.0278
   54GLOH   H05 8931   2.043   5.887   6.139  1.6767  0.6947 -0.4117
   54GLOH    C3 8932   2.079   6.038   5.865 -0.4565  0.4909 -0.9439
   54GLOH   H06 8933   2.035   5.969   5.792 -0.9775 -0.4623  0.2636
   54GLOH   H07 8934   2.184   6.012   5.875 -0.3198  0.9168 -1.2666
   54GLOH    O3 8935   2.084   6.172   5.816  0.3887  0.1046  0.5274
   54GLOH   H01 8936   2.133   6.218   5.887  3.0618 -0.8723 -0.6077
   55GLOH   H03 8937   6.817  10.032   1.100 -5.2786 -0.7972  0.6572
   55GLOH    O1 8938   6.839   9.962   1.166 -0.3782 -0.2433 -0.1974
   55GLOH    C1 8939   6.729   9.868   1.175  0.2945 -0.2705 -1.3658
   55GLOH   H02 8940   6.765   9.766   1.163  0.9105 -0.3205  0.7422
   55GLOH   H08 8941   6.652   9.891   1.101 -0.4754  1.3793 -0.0912
   55GLOH    C2 8942   6.645   9.878   1.304 -0.4825  0.2898 -0.2893
   55GLOH   H04 8943   6.552   9.825   1.280 -0.8988  1.0091 -0.2679
   55GLOH    O2 8944   6.707   9.816   1.419  0.5380 -0.0217  0.4999
   55GLOH   H05 8945   6.659   9.847   1.498  0.3012 -2.2887  1.2817
   55GLOH    C3 8946   6.603  10.026   1.337  0.0975  0.2001  0.5511
   55GLOH   H06 8947   6.590  10.086   1.247  2.3846  0.7526  0.5651
   55GLOH   H07 8948   6.686  10.078   1.384  0.0549  0.7005  0.0746
   55GLOH    O3 8949   6.485  10.032   1.425 -0.4724 -0.2979  0.2686
   55GLOH   H01 8950   6.410  10.064   1.373 -0.9121 -1.3619  0.2384
   56GLOH   H03 8951   1.074   2.952   4.433 -1.5075  1.3321  1.2242
   56GLOH    O1 8952   1.125   3.034   4.417  0.7305 -0.2941 -0.3609
   56GLOH    C1 8953   1.044   3.153   4.415  0.2247  0.6416  0.4105
   56GLOH   H02 8954   0.957   3.130   4.353 -0.7982  2.2405  1.2085
   56GLOH   H08 8955   1.090   3.242   4.373  0.3222  0.4915  0.2010
   56GLOH    C2 8956   1.009   3.187   4.561  0.2121  0.0286  0.2442
   56GLOH   H04 8957   0.964   3.104   4.616 -2.2227  0.5955 -0.8219
   56GLOH    O2 8958   1.130   3.230   4.629  0.3877  0.5716  0.1423
   56GLOH   H05 8959   1.199   3.162   4.617  1.4929  1.3800  1.8415
   56GLOH    C3 8960   0.909   3.306   4.552 -0.6808  0.2901 -0.1082
   56GLOH   H06 8961   0.848   3.302   4.462 -0.7221  0.9737 -0.1179
   56GLOH   H07 8962   0.977   3.391   4.540 -0.6129  0.1770 -0.5360
   56GLOH    O3 8963   0.822   3.325   4.663 -0.2120  0.3071  0.0986
   56GLOH   H01 8964   0.753   3.257   4.650  0.1381 -0.2060  0.9441
   57GLOH   H03 8965   2.962   1.051   6.530  0.7308  0.7527  1.0922
   57GLOH    O1 8966   2.868   1.077   6.530  0.4688 -0.1663 -0.2186
   57GLOH    C1 8967   2.857   1.184   6.634 -0.7285  0.7439 -0.1910
   57GLOH   H02 8968   2.888   1.147   6.731 -3.0985  0.1163  0.3632
   57GLOH   H08 8969   2.749   1.198   6.643 -1.0433 -1.2664 -0.6899
   57GLOH    C2 8970   2.921   1.323   6.610 -1.1046  0.3627 -0.5261
   57GLOH   H04 8971   3.018   1.301   6.563 -0.5726 -1.2389  1.2799
   57GLOH    O2 8972   2.840   1.395   6.520  0.0258  0.0113 -0.0877
   57GLOH   H05 8973   2.839   1.337   6.442 -0.1850  1.7770 -1.4161
   57GLOH    C3 8974   2.956   1.404   6.735 -0.7845  0.1380 -0.7415
   57GLOH   H06 8975   2.858   1.427   6.777 -1.4951  0.4723 -2.5415
   57GLOH   H07 8976   3.004   1.499   6.712  0.9512 -0.8271 -1.2353
   57GLOH    O3 8977   3.025   1.320   6.833  0.8000 -0.0228 -0.1669
   57GLOH   H01 8978   3.006   1.347   6.925  0.6506 -0.0704 -0.1837
   58GLOH   H03 8979   0.882   0.882   6.577 -4.8322  0.5952 -2.0789
   58GLOH    O1 8980   0.890   0.978   6.591 -0.1555 -0.0448  0.6842
   58GLOH    C1 8981   0.878   1.004   6.736  0.9622 -0.4658 -0.6945
   58GLOH   H02 8982   0.946   1.084   6.765 -1.1787  1.3246 -0.5193
   58GLOH   H08 8983   0.914   0.916   6.790 -2.0984  0.3550  2.8612
   58GLOH    C2 8984   0.733   1.051   6.779 -0.2881  0.1882  0.7193
   58GLOH   H04 8985   0.666   0.971   6.744  0.2400  0.0511 -0.0182
   58GLOH    O2 8986   0.714   1.070   6.920  0.2019 -0.2808  0.4063
   58GLOH   H05 8987   0.738   0.989   6.968 -1.6615  0.0184  1.8822
   58GLOH    C3 8988   0.683   1.171   6.696  0.0373 -0.0907 -0.1964
   58GLOH   H06 8989   0.720   1.261   6.744  1.0550 -0.9868  0.7319
   58GLOH   H07 8990   0.574   1.163   6.702  0.2396 -1.4918  1.9646
   58GLOH    O3 8991   0.722   1.170   6.561  0.4696  0.4514  0.1645
   58GLOH   H01 8992   0.798   1.115   6.535  0.5147  1.3675 -1.7822
   59GLOH   H03 8993   5.981   0.451   1.862 -0.2230 -1.0133 -0.9711
   59GLOH    O1 8994   6.075   0.425   1.865  0.0176 -0.0502  0.0047
   59GLOH    C1 8995   6.076   0.282   1.864  0.1873 -0.1513 -0.1883
   59GLOH   H02 8996   6.178   0.245   1.850  0.4500 -1.1758  3.8037
   59GLOH   H08 8997   6.021   0.244   1.778 -0.2578  0.8527 -0.3565
   59GLOH    C2 8998   6.020   0.208   1.983 -0.0914 -0.1737 -0.7965
   59GLOH   H04 8999   5.914   0.237   1.991 -0.0500  0.0586 -1.0790
   59GLOH    O2 9000   6.026   0.066   1.968 -0.3309 -0.4075  0.0768
   59GLOH   H05 9001   5.947   0.036   1.920  0.6741 -1.8218 -0.7076
   59GLOH    C3 9002   6.105   0.254   2.103  0.3543  0.5951 -0.4846
   59GLOH   H06 9003   6.209   0.245   2.071  0.2031  0.4575 -0.9300
   59GLOH   H07 9004   6.090   0.192   2.192 -2.1882  1.3340 -0.3766
   59GLOH    O3 9005   6.075   0.389   2.133 -0.3927  0.2740  0.0205
   59GLOH   H01 9006   6.111   0.445   2.062 -0.3224 -1.3421 -1.2511
   60GLOH   H03 9007   9.375   1.945   0.324 -1.1446 -0.0182  0.0022
   60GLOH    O1 9008   9.327   1.960   0.240  0.0082 -0.5941 -0.7761
   60GLOH    C1 9009   9.410   2.042   0.158  0.0429 -0.0949 -0.4298
   60GLOH   H02 9010   9.444   1.987   0.071  0.0458 -0.6305 -0.0923
   60GLOH   H08 9011   9.505   2.071   0.204 -0.7861 -0.1802  1.4016
   60GLOH    C2 9012   9.336   2.170   0.112 -0.5602 -0.2987  0.2293
   60GLOH   H04 9013   9.236   2.144   0.075 -0.0393  1.3125 -2.4467
   60GLOH    O2 9014   9.325   2.272   0.214 -0.2049  0.1328  0.0384
   60GLOH   H05 9015   9.419   2.297   0.225  0.4207 -0.6757 -2.8336
   60GLOH    C3 9016   9.407   2.238  -0.008  0.3466 -0.2667  0.3776
   60GLOH   H06 9017   9.515   2.245   0.008  1.0396 -2.4451 -3.0656
   60GLOH   H07 9018   9.373   2.341  -0.016  1.6390 -0.0064 -2.0465
   60GLOH    O3 9019   9.392   2.170  -0.136 -0.1548 -0.1200  0.2143
   60GLOH   H01 9020   9.471   2.197  -0.186 -0.3091 -0.0067  0.0290
   61GLOH   H03 9021   5.056   1.776   5.983  3.2075  1.4218  1.9342
   61GLOH    O1 9022   5.114   1.749   5.909  0.2539 -0.1388  0.1093
   61GLOH    C1 9023   5.084   1.839   5.797 -0.1332  0.2313  0.4227
   61GLOH   H02 9024   5.021   1.784   5.727  0.7019 -0.8483  0.4987
   61GLOH   H08 9025   5.173   1.857   5.736 -0.1790  2.5004  0.9960
   61GLOH    C2 9026   5.019   1.974   5.840  1.0619 -0.1502  0.1804
   61GLOH   H04 9027   5.102   2.018   5.898  0.6972  0.3056  0.3589
   61GLOH    O2 9028   4.995   2.067   5.729 -0.5672  0.2603  0.0184
   61GLOH   H05 9029   5.074   2.066   5.672 -1.4084 -1.2033 -1.1345
   61GLOH    C3 9030   4.904   1.956   5.935  0.5467 -0.3061 -0.1160
   61GLOH   H06 9031   4.832   1.898   5.878  1.6555  0.0010 -1.8654
   61GLOH   H07 9032   4.866   2.054   5.963  4.5984  1.1573  0.6786
   61GLOH    O3 9033   4.953   1.883   6.044 -0.1063 -0.2595 -0.2719
   61GLOH   H01 9034   4.875   1.847   6.090  0.6519  1.0190  2.0842
   62GLOH   H03 9035   6.834   1.233   2.092 -0.8334  0.0837  1.3796
   62GLOH    O1 9036   6.775   1.185   2.031  0.7690 -0.1403 -0.0081
   62GLOH    C1 9037   6.694   1.087   2.100  0.2965  0.6398 -0.2846
   62GLOH   H02 9038   6.639   1.135   2.181  0.9827  2.3832 -0.8413
   62GLOH   H08 9039   6.754   1.006   2.140  2.5026  1.8987 -0.9717
   62GLOH    C2 9040   6.582   1.033   2.001  0.4782 -1.0176  0.6537
   62GLOH   H04 9041   6.631   1.006   1.906  0.0494 -1.7830  0.6420
   62GLOH    O2 9042   6.530   0.910   2.057  0.5167 -0.5546 -0.1768
   62GLOH   H05 9043   6.599   0.842   2.054 -0.3483 -1.4848  0.5610
   62GLOH    C3 9044   6.468   1.136   1.980  0.1430  0.3240  0.3820
   62GLOH   H06 9045   6.407   1.094   1.901  0.8025 -0.5837  0.3451
   62GLOH   H07 9046   6.504   1.231   1.941  0.4984  0.5030  1.1330
   62GLOH    O3 9047   6.397   1.173   2.101  0.1983 -0.2996 -0.1266
   62GLOH   H01 9048   6.301   1.169   2.085 -0.1654  0.7661  1.7212
   63GLOH   H03 9049   5.936   7.417   4.991  1.5234  2.5069 -1.6975
   63GLOH    O1 9050   5.925   7.382   4.901 -0.2806  0.0919 -0.5899
   63GLOH    C1 9051   6.002   7.260   4.883 -0.1740 -0.3025  0.1466
   63GLOH   H02 9052   5.984   7.240   4.778  1.0186 -0.0573 -0.1062
   63GLOH   H08 9053   5.972   7.177   4.948 -1.5445 -0.4040 -0.6123
   63GLOH    C2 9054   6.154   7.267   4.902  0.0954 -0.8091 -0.2809
   63GLOH   H04 9055   6.194   7.345   4.836 -3.4494  0.8113 -0.6173
   63GLOH    O2 9056   6.190   7.293   5.041  0.5357 -0.3247 -0.0931
   63GLOH   H05 9057   6.121   7.307   5.109  0.0849  2.6077 -1.0843
   63GLOH    C3 9058   6.211   7.135   4.846 -0.3886  0.4716  0.2415
   63GLOH   H06 9059   6.157   7.055   4.897 -1.8241  1.5270  0.4104
   63GLOH   H07 9060   6.317   7.125   4.868 -0.5474 -1.9562  0.0089
   63GLOH    O3 9061   6.198   7.109   4.709 -0.6371 -0.1841  0.1765
   63GLOH   H01 9062   6.237   7.020   4.697  0.2739  0.0323  1.4043
   64GLOH   H03 9063   0.970   1.192   4.691  0.5494  2.4067  0.9538
   64GLOH    O1 9064   1.038   1.177   4.623 -1.1785  0.7912 -0.4645
   64GLOH    C1 9065   1.039   1.292   4.530  0.8592  0.7285  0.1958
   64GLOH   H02 9066   0.984   1.378   4.567 -0.4784 -0.0535  0.0489
   64GLOH   H08 9067   0.995   1.267   4.433 -1.0514 -0.0801  1.2417
   64GLOH    C2 9068   1.180   1.322   4.486  0.6833  0.4322  0.4826
   64GLOH   H04 9069   1.244   1.323   4.575 -0.8031 -0.0115  1.5553
   64GLOH    O2 9070   1.240   1.220   4.398  0.5255 -0.1037  0.5521
   64GLOH   H05 9071   1.260   1.144   4.455  2.5484  0.2828  0.3940
   64GLOH    C3 9072   1.182   1.458   4.419  0.7163 -0.3182  0.0989
   64GLOH   H06 9073   1.100   1.458   4.347 -0.3233 -1.1944  1.2597
   64GLOH   H07 9074   1.274   1.471   4.363  0.3276  3.0052  0.1463
   64GLOH    O3 9075   1.159   1.568   4.508  0.0976  0.4897  0.5106
   64GLOH   H01 9076   1.156   1.544   4.602  0.2235  1.0393  0.6550
   65GLOH   H03 9077   4.787   7.301   4.278  0.6068  2.0919 -0.5479
   65GLOH    O1 9078   4.836   7.252   4.209  0.4315  0.9413  0.1257
   65GLOH    C1 9079   4.979   7.287   4.230  0.4408  0.0410  0.5394
   65GLOH   H02 9080   5.045   7.227   4.167 -0.3925 -0.1003 -0.2089
   65GLOH   H08 9081   5.006   7.260   4.332  0.2041  2.1836  1.1925
   65GLOH    C2 9082   5.015   7.441   4.220 -0.5023  0.1291  0.6137
   65GLOH   H04 9083   4.940   7.500   4.275 -0.4040 -1.5241  2.5918
   65GLOH    O2 9084   5.151   7.471   4.261 -0.2112 -0.5494 -0.0638
   65GLOH   H05 9085   5.208   7.409   4.212  1.0532 -0.1558  0.8817
   65GLOH    C3 9086   4.987   7.498   4.077 -0.7416  0.1770  0.2297
   65GLOH   H06 9087   5.036   7.594   4.067 -0.6931  0.3868  2.2981
   65GLOH   H07 9088   4.880   7.513   4.059 -0.9419 -0.9104  0.4562
   65GLOH    O3 9089   5.044   7.406   3.978 -0.0941 -0.0174 -0.1938
   65GLOH   H01 9090   5.140   7.405   3.999  0.3259  1.7938 -1.8632
   66GLOH   H03 9091   3.619   4.627   3.878  0.3409 -0.2837 -0.3140
   66GLOH    O1 9092   3.591   4.596   3.967 -0.3124 -0.1747 -0.4828
   66GLOH    C1 9093   3.670   4.475   3.989  0.3745  0.1830 -0.2288
   66GLOH   H02 9094   3.638   4.397   3.919 -1.5502 -0.1651  0.9935
   66GLOH   H08 9095   3.645   4.436   4.088 -2.1410 -0.3627 -1.0349
   66GLOH    C2 9096   3.823   4.496   3.981  0.1785  0.4882 -0.4879
   66GLOH   H04 9097   3.848   4.573   4.055 -1.8388  0.3232  0.3907
   66GLOH    O2 9098   3.889   4.372   4.012  0.0129  0.4632  0.0058
   66GLOH   H05 9099   3.863   4.360   4.105  0.2637 -1.7210 -0.1613
   66GLOH    C3 9100   3.855   4.543   3.840 -0.3174  0.1813  0.2666
   66GLOH   H06 9101   3.805   4.479   3.768 -0.0788 -1.1359  1.2433
   66GLOH   H07 9102   3.959   4.521   3.816 -0.5616 -1.6457  0.8305
   66GLOH    O3 9103   3.817   4.680   3.810  0.4628 -0.1351  0.2210
   66GLOH   H01 9104   3.857   4.696   3.722 -0.1018  0.2909  0.0426
   67GLOH   H03 9105   6.550   7.153   5.173  1.4645 -0.3227  0.0302
   67GLOH    O1 9106   6.598   7.075   5.205  0.2146 -1.1698 -0.1395
   67GLOH    C1 9107   6.722   7.110   5.279 -0.0033 -0.1292 -0.8230
   67GLOH   H02 9108   6.732   7.041   5.363  1.9537  2.9165  1.5840
   67GLOH   H08 9109   6.709   7.209   5.324  0.9655 -0.0017 -0.8018
   67GLOH    C2 9110   6.850   7.118   5.184 -0.1808  0.7315  0.3374
   67GLOH   H04 9111   6.860   7.200   5.111  2.0736 -0.2503 -0.5026
   67GLOH    O2 9112   6.961   7.141   5.277  0.4709  0.5547 -0.4656
   67GLOH   H05 9113   7.027   7.202   5.241  1.7169 -1.9987 -2.7115
   67GLOH    C3 9114   6.857   6.985   5.111 -0.6780 -0.2708  1.1443
   67GLOH   H06 9115   6.857   6.899   5.177 -1.9552  1.0086  2.8756
   67GLOH   H07 9116   6.947   6.984   5.050 -1.2092  1.2236  0.2874
   67GLOH    O3 9117   6.749   6.960   5.020  0.2114  0.1881  0.2013
   67GLOH   H01 9118   6.675   6.992   5.076  1.4393  1.7228  0.9681
   68GLOH   H03 9119   0.034   5.633   2.902  0.3528 -1.3475 -0.0642
   68GLOH    O1 9120  -0.017   5.603   2.980  0.0019 -0.0937  0.1895
   68GLOH    C1 9121   0.032   5.673   3.093 -0.8233  0.6622 -0.4219
   68GLOH   H02 9122   0.117   5.613   3.127 -0.3613  1.4167 -0.2285
   68GLOH   H08 9123  -0.048   5.692   3.164 -0.9755 -2.3742  0.2781
   68GLOH    C2 9124   0.082   5.815   3.066 -0.4893  0.0094 -0.1482
   68GLOH   H04 9125   0.007   5.874   3.011 -2.5047 -3.8665 -1.7351
   68GLOH    O2 9126   0.128   5.886   3.183 -0.0636 -0.4240 -0.0115
   68GLOH   H05 9127   0.092   5.976   3.184  1.5068  0.2255 -0.4106
   68GLOH    C3 9128   0.189   5.816   2.963  0.4902  0.5700  0.8758
   68GLOH   H06 9129   0.273   5.758   3.002  0.6079  0.3918  0.3494
   68GLOH   H07 9130   0.231   5.915   2.942  0.0733 -0.0757 -3.3626
   68GLOH    O3 9131   0.140   5.761   2.835 -0.0991  0.5174 -0.8251
   68GLOH   H01 9132   0.222   5.737   2.788  0.8857 -2.1781  2.0832
   69GLOH   H03 9133   5.211   3.688   3.214  1.7012 -2.3143  2.1937
   69GLOH    O1 9134   5.209   3.748   3.291  0.5866 -0.0295  0.4087
   69GLOH    C1 9135   5.134   3.697   3.406 -0.8276 -0.6202 -0.4929
   69GLOH   H02 9136   5.130   3.775   3.482  0.1222 -0.2324 -0.8174
   69GLOH   H08 9137   5.186   3.611   3.449  2.2338  1.7739  0.8397
   69GLOH    C2 9138   4.996   3.642   3.371  0.0202 -0.3521 -0.2809
   69GLOH   H04 9139   4.942   3.715   3.309  1.0525  0.3603 -0.3568
   69GLOH    O2 9140   5.018   3.517   3.307  0.3417 -0.3427  0.4298
   69GLOH   H05 9141   5.100   3.522   3.255  0.3030 -0.8241  0.3271
   69GLOH    C3 9142   4.917   3.627   3.505  0.3515 -0.5471 -0.2822
   69GLOH   H06 9143   4.964   3.552   3.569 -2.6161 -0.7891  1.7013
   69GLOH   H07 9144   4.818   3.592   3.478 -0.2905  0.2849  0.9423
   69GLOH    O3 9145   4.907   3.751   3.582 -0.3999 -0.5106 -0.1111
   69GLOH   H01 9146   4.856   3.814   3.528 -4.6187 -3.2625  0.3963
   70GLOH   H03 9147   4.820   5.530   1.382 -0.0773 -0.8834 -2.3855
   70GLOH    O1 9148   4.765   5.470   1.435  0.1486  0.7533 -0.2230
   70GLOH    C1 9149   4.638   5.423   1.387 -0.4688 -0.0215  0.3424
   70GLOH   H02 9150   4.583   5.498   1.330  1.3545  1.9233  1.0822
   70GLOH   H08 9151   4.568   5.403   1.468 -0.9244  0.1588 -0.0029
   70GLOH    C2 9152   4.648   5.284   1.317  0.2646 -0.0709 -0.3822
   70GLOH   H04 9153   4.697   5.221   1.393  0.5737 -1.4412 -1.6956
   70GLOH    O2 9154   4.517   5.225   1.301  0.7236  0.4290 -1.1782
   70GLOH   H05 9155   4.531   5.129   1.306  0.8508  0.4993 -0.0185
   70GLOH    C3 9156   4.724   5.291   1.186  0.3506  0.5497  0.5696
   70GLOH   H06 9157   4.709   5.193   1.140  1.0515  1.6238 -2.0243
   70GLOH   H07 9158   4.831   5.298   1.204  0.5500  2.3340 -1.1688
   70GLOH    O3 9159   4.678   5.400   1.105 -0.2502 -1.1914  0.1530
   70GLOH   H01 9160   4.744   5.472   1.104  1.7370 -2.9421  1.9769
   71GLOH   H03 9161   4.707   7.816   6.118 -0.7242 -4.6143  2.3005
   71GLOH    O1 9162   4.792   7.826   6.165  0.2503  0.3476 -0.1371
   71GLOH    C1 9163   4.873   7.916   6.100  0.5603 -0.5390  0.0666
   71GLOH   H02 9164   4.890   7.896   5.994 -0.5032  0.1642 -0.2437
   71GLOH   H08 9165   4.971   7.895   6.143  0.1695  1.3551  1.9638
   71GLOH    C2 9166   4.821   8.061   6.107  0.3661  0.3722  0.2682
   71GLOH   H04 9167   4.713   8.063   6.089 -0.0660 -1.7088  2.4205
   71GLOH    O2 9168   4.848   8.116   6.240 -0.6154  0.0660 -0.6623
   71GLOH   H05 9169   4.828   8.057   6.315 -1.3445 -0.0625 -0.9587
   71GLOH    C3 9170   4.886   8.143   5.994  0.1266  0.5532  0.8605
   71GLOH   H06 9171   4.995   8.142   6.005  0.7062 -2.1732 -4.0897
   71GLOH   H07 9172   4.865   8.249   6.010  0.0249  1.0036 -2.1377
   71GLOH    O3 9173   4.845   8.103   5.863  0.4192  0.1839 -0.6634
   71GLOH   H01 9174   4.898   8.154   5.799  1.5472 -0.1517 -0.0125
   72GLOH   H03 9175   1.221   7.757   0.567 -2.1703 -1.6344  0.3033
   72GLOH    O1 9176   1.271   7.677   0.542  0.1448 -0.2653  0.4732
   72GLOH    C1 9177   1.229   7.661   0.406 -0.4152  0.2411  0.0968
   72GLOH   H02 9178   1.120   7.656   0.395 -0.6911  2.1865  1.5835
   72GLOH   H08 9179   1.265   7.561   0.380 -4.0579 -1.0152 -0.4285
   72GLOH    C2 9180   1.272   7.773   0.305  0.1458  0.0536  0.1457
   72GLOH   H04 9181   1.238   7.872   0.339 -0.7869  0.1020 -0.9152
   72GLOH    O2 9182   1.416   7.775   0.288  0.1273  0.0867 -0.2169
   72GLOH   H05 9183   1.441   7.686   0.259  0.4307  0.5440 -1.3819
   72GLOH    C3 9184   1.200   7.757   0.167  0.5335  0.1432  0.0184
   72GLOH   H06 9185   1.213   7.659   0.122  0.8287 -0.2731  0.9908
   72GLOH   H07 9186   1.244   7.823   0.092 -0.7168 -0.4503 -1.2634
   72GLOH    O3 9187   1.062   7.779   0.190  0.0043 -0.4173  0.0929
   72GLOH   H01 9188   1.015   7.800   0.107  0.9923 -1.0357 -0.6384
   73GLOH   H03 9189   8.415   1.339   1.932  0.6251 -0.9890  1.7593
   73GLOH    O1 9190   8.416   1.260   1.874  0.3568  0.0669  0.2943
   73GLOH    C1 9191   8.412   1.139   1.943 -0.8978  1.1799 -0.0661
   73GLOH   H02 9192   8.316   1.090   1.932 -0.0182 -1.2159  2.3867
   73GLOH   H08 9193   8.433   1.153   2.049 -0.3151 -0.1007 -0.0112
   73GLOH    C2 9194   8.534   1.049   1.902  0.0927 -0.2939  0.0132
   73GLOH   H04 9195   8.629   1.093   1.935 -0.0923 -0.1166  0.3098
   73GLOH    O2 9196   8.521   0.925   1.967 -0.5892 -0.0048  0.0039
   73GLOH   H05 9197   8.433   0.885   1.958 -0.5455 -0.3778  1.1574
   73GLOH    C3 9198   8.535   1.026   1.749  0.8644 -0.8334 -0.2236
   73GLOH   H06 9199   8.542   1.126   1.706  1.9210 -0.4409  0.8354
   73GLOH   H07 9200   8.446   0.977   1.709  0.5493  0.0684 -0.6538
   73GLOH    O3 9201   8.649   0.953   1.708  0.3086 -0.0302 -0.3017
   73GLOH   H01 9202   8.705   1.022   1.668  0.7277 -0.4519 -0.4482
   74GLOH   H03 9203   3.406   4.789   0.161  1.4289 -0.0783  1.1571
   74GLOH    O1 9204   3.366   4.704   0.185 -0.6992  0.4131 -0.4667
   74GLOH    C1 9205   3.401   4.605   0.088 -0.4681  0.0501  0.4095
   74GLOH   H02 9206   3.440   4.518   0.140  0.6591  1.3103  1.7251
   74GLOH   H08 9207   3.476   4.639   0.016 -0.3108  2.2150  1.5540
   74GLOH    C2 9208   3.280   4.562   0.004  0.4071 -0.0425  0.0179
   74GLOH   H04 9209   3.238   4.647  -0.051 -0.4262  1.1681  2.4528
   74GLOH    O2 9210   3.321   4.466  -0.096  0.2383 -0.0784  0.2337
   74GLOH   H05 9211   3.242   4.443  -0.147 -1.1477  2.2379  1.2905
   74GLOH    C3 9212   3.162   4.507   0.091  0.5995  0.1585  0.2030
   74GLOH   H06 9213   3.192   4.412   0.134 -2.7133 -1.8865 -1.7336
   74GLOH   H07 9214   3.068   4.497   0.036  0.7039 -1.3053  0.2826
   74GLOH    O3 9215   3.137   4.597   0.202 -0.3926 -0.1197  0.3758
   74GLOH   H01 9216   3.224   4.643   0.208 -1.0490  1.2331 -0.1795
   75GLOH   H03 9217   3.027   4.892   4.081  0.3702 -0.0840  0.1756
   75GLOH    O1 9218   3.013   4.860   4.172  0.3747 -0.4573  0.0461
   75GLOH    C1 9219   2.938   4.739   4.177 -0.1714  0.4999 -0.2544
   75GLOH   H02 9220   2.944   4.686   4.272  1.0325  1.4754  0.2331
   75GLOH   H08 9221   3.003   4.678   4.115  0.7038 -0.1159  1.2224
   75GLOH    C2 9222   2.790   4.748   4.137 -0.2101  0.1134  0.1168
   75GLOH   H04 9223   2.791   4.779   4.031  1.4150 -2.1870 -0.6034
   75GLOH    O2 9224   2.724   4.615   4.158 -0.0512 -0.0047 -0.2395
   75GLOH   H05 9225   2.685   4.613   4.247  0.7606  1.9322  0.2036
   75GLOH    C3 9226   2.726   4.862   4.220  0.5552  0.7368  0.4321
   75GLOH   H06 9227   2.789   4.949   4.200 -1.4625  2.2385  0.4141
   75GLOH   H07 9228   2.731   4.829   4.324 -1.7320 -0.6689  0.1196
   75GLOH    O3 9229   2.595   4.900   4.187  0.1431  0.0144 -0.1823
   75GLOH   H01 9230   2.572   4.982   4.234  0.4528  0.3213 -0.5636
   76GLOH   H03 9231   7.857   6.505   4.304 -0.4497  1.4444  0.9136
   76GLOH    O1 9232   7.769   6.463   4.296  0.3608 -0.1506  0.1612
   76GLOH    C1 9233   7.712   6.495   4.167 -0.2098 -0.2725 -0.9581
   76GLOH   H02 9234   7.644   6.580   4.176  2.5540  1.9632 -0.6328
   76GLOH   H08 9235   7.645   6.417   4.132 -0.6794 -0.9448  1.3770
   76GLOH    C2 9236   7.812   6.525   4.056 -0.1443  0.1312  0.4512
   76GLOH   H04 9237   7.889   6.600   4.079  0.9873 -1.0789  0.6557
   76GLOH    O2 9238   7.889   6.401   4.028 -0.2739 -0.0073  0.6918
   76GLOH   H05 9239   7.932   6.368   4.108 -0.0254 -1.6594 -0.0964
   76GLOH    C3 9240   7.743   6.564   3.925  0.1666 -0.2633  1.1388
   76GLOH   H06 9241   7.665   6.491   3.902  0.4444 -0.3769  0.5393
   76GLOH   H07 9242   7.812   6.551   3.842 -0.1121  1.6250  0.5951
   76GLOH    O3 9243   7.679   6.692   3.921 -0.3376  0.4686 -0.5351
   76GLOH   H01 9244   7.751   6.756   3.904  1.8073 -2.2774 -2.2790
   77GLOH   H03 9245   1.232   8.640   3.491  0.1211 -1.2174 -0.7548
   77GLOH    O1 9246   1.135   8.634   3.492  0.0199  0.2828  0.3141
   77GLOH    C1 9247   1.095   8.563   3.379  0.1037  0.3368  0.4872
   77GLOH   H02 9248   1.163   8.480   3.360  0.8153  0.6974  1.4571
   77GLOH   H08 9249   1.109   8.628   3.292 -0.7120 -0.8868 -0.5838
   77GLOH    C2 9250   0.953   8.509   3.383  0.2111  0.5505  0.1250
   77GLOH   H04 9251   0.898   8.538   3.474 -1.1065 -0.5326 -0.3172
   77GLOH    O2 9252   0.872   8.548   3.269  0.2043 -0.2144 -0.2634
   77GLOH   H05 9253   0.920   8.528   3.187  1.3584 -1.0316  0.6003
   77GLOH    C3 9254   0.957   8.354   3.393 -0.4370  0.2553 -0.1627
   77GLOH   H06 9255   0.857   8.318   3.419 -0.4589 -0.1643 -0.8177
   77GLOH   H07 9256   1.019   8.331   3.480  1.5255 -1.8045 -2.0594
   77GLOH    O3 9257   1.003   8.288   3.273  0.0279 -0.0825  0.0484
   77GLOH   H01 9258   0.997   8.342   3.192  1.6776 -1.3529 -0.9458
   78GLOH   H03 9259   9.498   9.304   3.585 -1.9619  1.7362 -1.5176
   78GLOH    O1 9260   9.557   9.374   3.553  0.5281  0.3262 -0.1896
   78GLOH    C1 9261   9.532   9.377   3.413 -0.6931  0.0454  0.3134
   78GLOH   H02 9262   9.468   9.295   3.380 -2.0246  0.5590  1.5227
   78GLOH   H08 9263   9.628   9.361   3.365 -1.7865 -2.8656 -1.0442
   78GLOH    C2 9264   9.482   9.512   3.355 -0.5152  0.3333 -0.0269
   78GLOH   H04 9265   9.561   9.580   3.389 -0.3101  0.9358 -1.6603
   78GLOH    O2 9266   9.471   9.515   3.211 -0.3183 -0.1528 -0.0898
   78GLOH   H05 9267   9.380   9.509   3.178 -0.6140 -0.9312  0.8497
   78GLOH    C3 9268   9.354   9.541   3.423  0.0959 -0.0554  0.5814
   78GLOH   H06 9269   9.313   9.621   3.360 -1.0216 -2.9776 -2.5823
   78GLOH   H07 9270   9.383   9.588   3.517  0.0441  0.1483  0.4988
   78GLOH    O3 9271   9.245   9.444   3.449  0.0602  0.1452 -0.2841
   78GLOH   H01 9272   9.159   9.488   3.434 -1.0409 -1.6872  0.5420
   79GLOH   H03 9273   0.367   2.883   1.831  0.8881 -4.1218  1.4317
   79GLOH    O1 9274   0.423   2.926   1.898  0.0570 -0.7195  0.0587
   79GLOH    C1 9275   0.527   2.838   1.938 -0.0564 -0.3482  0.2073
   79GLOH   H02 9276   0.596   2.813   1.857 -0.4497 -2.3908  0.4696
   79GLOH   H08 9277   0.478   2.747   1.974  0.9147 -1.2659 -0.7243
   79GLOH    C2 9278   0.600   2.902   2.058 -0.2818  0.4195 -0.2772
   79GLOH   H04 9279   0.526   2.917   2.138  3.2453 -0.8987  3.4438
   79GLOH    O2 9280   0.698   2.800   2.097  0.6081 -0.3755  0.2607
   79GLOH   H05 9281   0.708   2.803   2.193 -0.6597  1.0595  0.3678
   79GLOH    C3 9282   0.653   3.041   2.022 -0.3668  0.0953 -0.1343
   79GLOH   H06 9283   0.569   3.104   1.996 -0.2388 -0.2964 -1.5380
   79GLOH   H07 9284   0.726   3.031   1.941  1.2759 -0.2693  1.3386
   79GLOH    O3 9285   0.717   3.112   2.129  0.3806  0.2227 -0.5079
   79GLOH   H01 9286   0.807   3.073   2.137  1.9974  3.6121 -1.1607
   80GLOH   H03 9287   6.524   1.026   6.711 -1.3815  1.8629 -1.0711
   80GLOH    O1 9288   6.524   0.962   6.638  0.1376 -0.0070  0.4960
   80GLOH    C1 9289   6.651   0.931   6.583  0.1501  0.4313  0.6385
   80GLOH   H02 9290   6.650   0.840   6.523 -0.1875  0.0778  1.1702
   80GLOH   H08 9291   6.724   0.922   6.664 -0.5069  1.1844  1.3209
   80GLOH    C2 9292   6.696   1.051   6.492 -0.0233 -0.0753  0.0801
   80GLOH   H04 9293   6.630   1.065   6.406  1.3476  2.9619 -0.5792
   80GLOH    O2 9294   6.698   1.174   6.572 -0.5134  0.0834 -0.2339
   80GLOH   H05 9295   6.630   1.170   6.642 -0.9931  0.4837 -0.6673
   80GLOH    C3 9296   6.835   1.035   6.434  0.8042  0.5365 -0.3407
   80GLOH   H06 9297   6.837   0.934   6.395 -0.0444 -1.1176  3.7270
   80GLOH   H07 9298   6.910   1.040   6.514 -0.4187  2.8484  0.7148
   80GLOH    O3 9299   6.877   1.130   6.334  0.5169 -0.4655  0.3261
   80GLOH   H01 9300   6.829   1.215   6.332 -0.5158 -1.0081  1.4558
   81GLOH   H03 9301   4.543   2.995   0.963  0.3752 -1.4375  1.6366
   81GLOH    O1 9302   4.612   2.949   0.912  0.0746  0.3675 -0.5083
   81GLOH    C1 9303   4.549   2.859   0.811 -0.9485  0.0632  0.4370
   81GLOH   H02 9304   4.507   2.916   0.728  0.2589 -0.9000 -0.8448
   81GLOH   H08 9305   4.457   2.814   0.848 -0.6547 -2.6713 -2.0067
   81GLOH    C2 9306   4.642   2.749   0.761  0.4317  0.1631  0.8188
   81GLOH   H04 9307   4.688   2.686   0.839  1.2482 -0.1994  0.0456
   81GLOH    O2 9308   4.563   2.660   0.684 -0.5311  0.4623 -0.2436
   81GLOH   H05 9309   4.494   2.617   0.739 -0.0581  0.4779  0.3661
   81GLOH    C3 9310   4.765   2.798   0.687 -0.0588 -0.7037 -0.5093
   81GLOH   H06 9311   4.822   2.709   0.659  1.9299  0.1779  0.5875
   81GLOH   H07 9312   4.828   2.850   0.759 -0.9167  1.0207 -0.9836
   81GLOH    O3 9313   4.729   2.885   0.585  0.3546 -0.2677 -0.5136
   81GLOH   H01 9314   4.692   2.830   0.513 -0.5067  0.0316 -0.3013
   82GLOH   H03 9315   2.057   4.866   5.250 -0.6886  0.8813  0.1974
   82GLOH    O1 9316   1.978   4.813   5.273  0.3324 -0.5862  0.3481
   82GLOH    C1 9317   1.881   4.853   5.168  0.2862 -0.7510 -0.4655
   82GLOH   H02 9318   1.900   4.800   5.075 -1.5556 -1.4384 -0.4720
   82GLOH   H08 9319   1.877   4.960   5.150 -0.7410 -1.1638 -2.8032
   82GLOH    C2 9320   1.743   4.807   5.220 -0.6712  0.7475 -0.1542
   82GLOH   H04 9321   1.712   4.859   5.312 -1.1487 -0.7562  0.5470
   82GLOH    O2 9322   1.641   4.835   5.127 -0.4161 -0.5160  0.3503
   82GLOH   H05 9323   1.640   4.767   5.057  1.0451 -0.6975  0.4934
   82GLOH    C3 9324   1.754   4.659   5.253 -0.3376 -0.2090 -0.0076
   82GLOH   H06 9325   1.847   4.618   5.214  0.6783  0.9203  1.1817
   82GLOH   H07 9326   1.672   4.606   5.203  0.1895 -1.2036  0.1811
   82GLOH    O3 9327   1.748   4.635   5.399 -0.2760  0.1738  0.2211
   82GLOH   H01 9328   1.775   4.545   5.425 -0.5673  0.3464  1.1173
   83GLOH   H03 9329   9.231   7.182   2.291 -0.7624  0.1824 -1.4190
   83GLOH    O1 9330   9.247   7.088   2.271  0.4297  0.0162  0.1304
   83GLOH    C1 9331   9.338   7.027   2.362 -0.8561  0.0053 -0.7204
   83GLOH   H02 9332   9.283   6.974   2.439 -1.3339  1.9636  0.3087
   83GLOH   H08 9333   9.392   7.094   2.429  1.8545 -3.8021  1.1074
   83GLOH    C2 9334   9.439   6.928   2.296  0.6050 -0.2528  0.2864
   83GLOH   H04 9335   9.373   6.857   2.242 -1.0708  0.2670  1.6025
   83GLOH    O2 9336   9.522   7.006   2.213  0.1552 -0.3786  0.0044
   83GLOH   H05 9337   9.545   6.958   2.132  1.4172 -0.1483  0.2213
   83GLOH    C3 9338   9.532   6.855   2.399 -0.0742 -0.3562  0.1792
   83GLOH   H06 9339   9.595   6.934   2.438 -0.1547 -0.4410  0.4763
   83GLOH   H07 9340   9.603   6.784   2.354  1.4018  0.2794  1.4642
   83GLOH    O3 9341   9.465   6.785   2.505  0.2170  0.6034 -0.2520
   83GLOH   H01 9342   9.375   6.761   2.475  0.1579 -0.7630  0.9072
   84GLOH   H03 9343   9.665   2.850   5.694 -0.2939 -0.3619 -2.2061
   84GLOH    O1 9344   9.758   2.872   5.674 -0.0599  0.4014 -0.3137
   84GLOH    C1 9345   9.762   2.898   5.535 -0.2712 -0.3192  0.8170
   84GLOH   H02 9346   9.735   2.808   5.479 -0.2407  1.7660 -2.6943
   84GLOH   H08 9347   9.862   2.917   5.497 -0.8408 -0.3256 -0.7375
   84GLOH    C2 9348   9.673   3.014   5.488  0.3890 -0.4146  0.1281
   84GLOH   H04 9349   9.569   2.990   5.516  0.2047 -1.1066 -1.1077
   84GLOH    O2 9350   9.709   3.143   5.529 -0.2529  0.1055  0.3241
   84GLOH   H05 9351   9.672   3.211   5.471 -0.7654 -0.6596 -0.2619
   84GLOH    C3 9352   9.678   3.028   5.337  0.1267 -0.6831  0.2083
   84GLOH   H06 9353   9.764   3.085   5.302 -1.1322  1.2159  0.1409
   84GLOH   H07 9354   9.596   3.093   5.305  1.5093  0.2925 -1.4097
   84GLOH    O3 9355   9.665   2.912   5.261 -0.5456  0.0097  0.0640
   84GLOH   H01 9356   9.580   2.878   5.296  0.7134 -3.5798 -0.1508
   85GLOH   H03 9357   6.982   1.259   5.874  1.6372 -1.0284  2.8055
   85GLOH    O1 9358   6.949   1.343   5.909  0.2477 -0.3957  0.0666
   85GLOH    C1 9359   7.001   1.445   5.822  0.1201 -0.7449  0.5092
   85GLOH   H02 9360   6.988   1.432   5.715 -0.9448 -1.1146  0.6712
   85GLOH   H08 9361   7.108   1.452   5.843  0.2854  1.1022 -0.8443
   85GLOH    C2 9362   6.938   1.578   5.871 -0.4749 -0.0222  0.0804
   85GLOH   H04 9363   6.832   1.558   5.893  0.4867 -1.9127  3.2762
   85GLOH    O2 9364   7.005   1.624   5.989 -0.3125 -0.2123 -0.8570
   85GLOH   H05 9365   7.007   1.552   6.054 -0.6385  0.3447 -0.2304
   85GLOH    C3 9366   6.935   1.693   5.768 -0.1894 -0.0653  0.7215
   85GLOH   H06 9367   7.039   1.717   5.743 -0.2242 -0.9218 -0.2638
   85GLOH   H07 9368   6.897   1.783   5.814  0.2562 -1.0046  2.9845
   85GLOH    O3 9369   6.868   1.660   5.649 -0.5445  0.0627  0.3794
   85GLOH   H01 9370   6.926   1.648   5.572 -1.2718  0.5814 -0.2640
   86GLOH   H03 9371   6.306   1.798   3.699 -0.2522  0.4209  0.8397
   86GLOH    O1 9372   6.225   1.814   3.646  0.0031 -0.2680  0.2328
   86GLOH    C1 9373   6.111   1.835   3.733 -1.1886 -0.8973  0.2001
   86GLOH   H02 9374   6.042   1.909   3.692  0.9121  2.0864  1.8534
   86GLOH   H08 9375   6.141   1.862   3.834 -3.4099  1.1236  0.3723
   86GLOH    C2 9376   6.026   1.703   3.750 -0.3270  0.1386 -0.2000
   86GLOH   H04 9377   6.091   1.626   3.793  0.8371 -0.1618 -2.3940
   86GLOH    O2 9378   5.919   1.727   3.843 -0.5166 -0.0265 -0.0629
   86GLOH   H05 9379   5.842   1.669   3.832  0.0176 -0.8365  0.3821
   86GLOH    C3 9380   5.974   1.661   3.614 -0.3161  0.3871 -0.3492
   86GLOH   H06 9381   5.902   1.739   3.593  0.5274  1.2765  0.0147
   86GLOH   H07 9382   5.911   1.572   3.622 -0.9324  0.9817  1.5993
   86GLOH    O3 9383   6.071   1.650   3.513  0.0431 -0.1392 -0.0067
   86GLOH   H01 9384   6.140   1.713   3.542 -0.4417  1.3758 -2.0607
   87GLOH   H03 9385   7.333   3.172   2.443 -0.4821 -1.7721  0.0180
   87GLOH    O1 9386   7.281   3.216   2.513  0.2836 -0.4162 -0.2549
   87GLOH    C1 9387   7.381   3.256   2.611  0.2339  0.1883  0.3517
   87GLOH   H02 9388   7.435   3.345   2.581  0.6542 -0.8276 -1.9943
   87GLOH   H08 9389   7.456   3.178   2.621 -0.2608 -0.6544 -2.2002
   87GLOH    C2 9390   7.329   3.307   2.752 -0.5527 -0.1429 -0.7137
   87GLOH   H04 9391   7.264   3.391   2.723 -2.1783  0.0335  3.1646
   87GLOH    O2 9392   7.261   3.198   2.809  0.0482 -0.3844  0.0537
   87GLOH   H05 9393   7.166   3.211   2.791 -0.0332 -0.3397  0.5205
   87GLOH    C3 9394   7.445   3.356   2.837  0.6008  0.1357  0.0218
   87GLOH   H06 9395   7.511   3.271   2.854  0.2626 -0.1549 -0.1043
   87GLOH   H07 9396   7.398   3.378   2.933  3.5058  0.1967  1.4830
   87GLOH    O3 9397   7.513   3.467   2.787  0.1623 -0.0226 -0.7606
   87GLOH   H01 9398   7.572   3.449   2.711 -0.8082 -0.7409 -1.3462
   88GLOH   H03 9399   9.093   8.040   2.933 -0.4068  1.3325  1.1066
   88GLOH    O1 9400   9.008   8.080   2.908 -0.1407  1.0947 -0.2070
   88GLOH    C1 9401   8.906   7.995   2.976  0.5872  0.2453  0.2527
   88GLOH   H02 9402   8.904   7.889   2.950 -1.7803  0.8628 -2.3360
   88GLOH   H08 9403   8.809   8.033   2.942 -0.2495 -3.3419 -1.6346
   88GLOH    C2 9404   8.908   8.003   3.135  0.3255 -0.0728  0.5919
   88GLOH   H04 9405   9.015   8.005   3.163  0.8271 -1.9802 -1.0680
   88GLOH    O2 9406   8.852   8.124   3.188  0.3779 -0.0786  0.1142
   88GLOH   H05 9407   8.896   8.197   3.141 -1.3548  0.4477 -0.7270
   88GLOH    C3 9408   8.833   7.880   3.186 -0.2910  0.0336 -0.2683
   88GLOH   H06 9409   8.756   7.847   3.116 -1.9293 -0.2459  1.6235
   88GLOH   H07 9410   8.778   7.912   3.275 -0.1782  0.3463 -0.3093
   88GLOH    O3 9411   8.913   7.775   3.226 -0.9508  0.2305  0.2830
   88GLOH   H01 9412   8.924   7.782   3.323  1.6979  0.8616 -0.0251
   89GLOH   H03 9413   7.528   8.883   1.899 -1.8293  0.4624 -3.3117
   89GLOH    O1 9414   7.530   8.788   1.879  0.1437 -0.2242 -0.0480
   89GLOH    C1 9415   7.619   8.772   1.766 -0.9419  0.1810  0.2937
   89GLOH   H02 9416   7.614   8.673   1.720  1.7641 -0.5602  1.5365
   89GLOH   H08 9417   7.724   8.783   1.794 -0.9627 -1.2886  1.0262
   89GLOH    C2 9418   7.590   8.880   1.659 -0.6616  0.4711 -0.1650
   89GLOH   H04 9419   7.607   8.975   1.711  1.6220 -0.5215  0.9664
   89GLOH    O2 9420   7.677   8.868   1.549 -0.1377  0.2666  0.7201
   89GLOH   H05 9421   7.769   8.858   1.576 -0.3681 -0.3931  1.2638
   89GLOH    C3 9422   7.439   8.885   1.612 -0.1070  0.1016 -0.5643
   89GLOH   H06 9423   7.418   8.786   1.570 -0.6062 -1.3415  2.9122
   89GLOH   H07 9424   7.427   8.956   1.531 -0.7244  0.2106 -0.3811
   89GLOH    O3 9425   7.353   8.906   1.727 -0.5209 -0.3205  0.6282
   89GLOH   H01 9426   7.352   8.816   1.765 -1.5357 -0.8988 -0.7100
   90GLOH   H03 9427   9.150   2.727   1.025  0.1652 -0.2559  1.2327
   90GLOH    O1 9428   9.122   2.635   1.038 -0.5502 -0.3392 -0.6628
   90GLOH    C1 9429   9.202   2.544   0.965 -0.6962  0.8609  0.7425
   90GLOH   H02 9430   9.194   2.560   0.857  1.3381 -0.6272  0.3342
   90GLOH   H08 9431   9.158   2.445   0.975  0.1129  0.4448  0.2747
   90GLOH    C2 9432   9.342   2.530   1.014 -0.3378 -0.7145  0.3710
   90GLOH   H04 9433   9.386   2.456   0.947 -0.5788  0.7839 -1.4892
   90GLOH    O2 9434   9.412   2.656   0.993 -0.1826 -0.3429 -0.3720
   90GLOH   H05 9435   9.431   2.667   0.899  1.0041  1.8474  0.0933
   90GLOH    C3 9436   9.341   2.469   1.157 -0.0627  0.0804  0.0964
   90GLOH   H06 9437   9.290   2.373   1.147  1.9329 -1.0080  0.1309
   90GLOH   H07 9438   9.295   2.530   1.235 -2.5391 -0.5815 -0.8117
   90GLOH    O3 9439   9.476   2.451   1.203  0.1612 -0.0934  0.1086
   90GLOH   H01 9440   9.501   2.543   1.225 -1.9964  0.2323  1.3642
   91GLOH   H03 9441   7.719   3.130   5.307 -2.1904  0.9389 -0.6897
   91GLOH    O1 9442   7.672   3.086   5.381 -0.0711  0.1161  0.1960
   91GLOH    C1 9443   7.594   2.983   5.322 -0.5941  0.5010  0.1220
   91GLOH   H02 9444   7.549   2.924   5.402 -0.0917 -1.4313 -0.9985
   91GLOH   H08 9445   7.655   2.906   5.276  2.2317  0.6174  3.4136
   91GLOH    C2 9446   7.484   3.035   5.228  0.1854  0.3236 -0.4181
   91GLOH   H04 9447   7.418   3.098   5.290  1.0521 -0.2750  1.1306
   91GLOH    O2 9448   7.526   3.112   5.114 -0.0812  0.7538  0.0369
   91GLOH   H05 9449   7.623   3.111   5.110 -0.0577  3.0058 -0.4584
   91GLOH    C3 9450   7.404   2.914   5.181 -0.1671  0.4100 -0.0942
   91GLOH   H06 9451   7.368   2.849   5.261 -2.5259  0.9029 -0.7095
   91GLOH   H07 9452   7.482   2.865   5.123 -0.7339 -0.5442 -0.0691
   91GLOH    O3 9453   7.285   2.930   5.104 -0.2019 -0.3299  0.2702
   91GLOH   H01 9454   7.304   3.000   5.039  4.0600 -1.7447 -0.1491
   92GLOH   H03 9455   0.935   9.404   3.798  0.9339  0.6050 -0.5008
   92GLOH    O1 9456   0.950   9.400   3.702 -0.3172  0.0971 -0.6823
   92GLOH    C1 9457   0.833   9.423   3.625  0.3599 -0.7055 -0.4389
   92GLOH   H02 9458   0.760   9.464   3.694 -2.0223  0.4906 -3.5161
   92GLOH   H08 9459   0.797   9.326   3.588 -0.9634 -0.8786  1.2437
   92GLOH    C2 9460   0.864   9.527   3.511  0.6124  0.2861 -0.0653
   92GLOH   H04 9461   0.930   9.487   3.433 -1.0940  0.3945 -1.6044
   92GLOH    O2 9462   0.739   9.555   3.449 -0.6271 -0.9000  0.6444
   92GLOH   H05 9463   0.694   9.621   3.503 -0.0230  2.0215 -2.2532
   92GLOH    C3 9464   0.916   9.666   3.557 -0.2584  0.6513 -0.4373
   92GLOH   H06 9465   0.987   9.658   3.639 -0.7023  2.5317  0.1470
   92GLOH   H07 9466   0.837   9.726   3.601 -0.4897  1.2893 -1.7034
   92GLOH    O3 9467   0.973   9.746   3.450  0.2261 -0.1265  0.2165
   92GLOH   H01 9468   0.906   9.811   3.421 -1.8531 -2.3234 -0.0733
   93GLOH   H03 9469   1.463   6.692   4.659 -0.1639  0.2402 -0.5809
   93GLOH    O1 9470   1.437   6.766   4.718  0.0298 -0.0675 -0.1052
   93GLOH    C1 9471   1.442   6.711   4.847  0.3048 -0.7336  0.0070
   93GLOH   H02 9472   1.529   6.725   4.912 -0.4980  0.2331  0.8902
   93GLOH   H08 9473   1.438   6.602   4.848 -2.5784 -0.6939 -1.0945
   93GLOH    C2 9474   1.329   6.761   4.937  0.9287 -0.0892  0.3624
   93GLOH   H04 9475   1.234   6.752   4.884  1.0696 -1.4691  0.3327
   93GLOH    O2 9476   1.317   6.686   5.065  0.6668  0.0988  0.3479
   93GLOH   H05 9477   1.360   6.599   5.057  0.7587  0.2944 -1.7384
   93GLOH    C3 9478   1.358   6.908   4.964  0.1464 -0.4101 -0.7650
   93GLOH   H06 9479   1.441   6.913   5.035 -1.5037 -0.7712  1.2156
   93GLOH   H07 9480   1.276   6.953   5.021  0.1091 -0.5016 -0.7481
   93GLOH    O3 9481   1.386   6.980   4.844  0.3916 -0.2327 -0.0857
   93GLOH   H01 9482   1.410   6.914   4.776 -0.1452  0.9004 -1.3814
   94GLOH   H03 9483   7.663   4.629   1.749 -0.6152 -1.8833 -0.1927
   94GLOH    O1 9484   7.594   4.617   1.680 -0.7086  0.1479 -0.4661
   94GLOH    C1 9485   7.551   4.479   1.690  0.3571 -0.6994 -0.2970
   94GLOH   H02 9486   7.523   4.450   1.791 -0.3656 -0.9827 -0.5726
   94GLOH   H08 9487   7.633   4.414   1.659  0.3724 -1.5982  1.5592
   94GLOH    C2 9488   7.438   4.452   1.586  0.0542 -0.0034  0.3933
   94GLOH   H04 9489   7.480   4.471   1.486  0.8746  0.1444  0.7608
   94GLOH    O2 9490   7.400   4.312   1.590  0.0065 -0.4969  0.0724
   94GLOH   H05 9491   7.469   4.260   1.636  0.8822  0.0475 -0.6288
   94GLOH    C3 9492   7.320   4.542   1.611  0.1639 -0.0406 -0.4705
   94GLOH   H06 9493   7.353   4.645   1.624 -0.1491  0.3517 -2.5387
   94GLOH   H07 9494   7.268   4.515   1.703  0.4163  1.2737  0.0783
   94GLOH    O3 9495   7.216   4.553   1.512 -0.1702 -0.3690 -0.3153
   94GLOH   H01 9496   7.239   4.634   1.463 -2.6893  0.7243  0.2421
   95GLOH   H03 9497   6.398   1.968   2.249 -0.6763 -0.0074  0.9780
   95GLOH    O1 9498   6.403   2.057   2.290  0.2754  0.1414  0.5660
   95GLOH    C1 9499   6.540   2.106   2.277 -0.1685 -0.1987  0.4610
   95GLOH   H02 9500   6.562   2.175   2.359 -1.3911 -0.1904  0.7965
   95GLOH   H08 9501   6.556   2.164   2.186 -0.2950 -2.3849 -0.9869
   95GLOH    C2 9502   6.648   1.995   2.289 -0.1204  0.1515  0.6174
   95GLOH   H04 9503   6.619   1.909   2.228  0.3827  0.3002  0.1664
   95GLOH    O2 9504   6.778   2.046   2.263 -0.4785  0.2263  0.0695
   95GLOH   H05 9505   6.772   2.087   2.175 -0.2412  2.3276  1.0143
   95GLOH    C3 9506   6.649   1.940   2.433 -0.5543  0.3816 -0.5514
   95GLOH   H06 9507   6.678   2.017   2.505 -0.6623  0.0106 -0.1007
   95GLOH   H07 9508   6.724   1.861   2.436 -2.6593 -1.6713 -1.1918
   95GLOH    O3 9509   6.520   1.892   2.476 -0.5726 -0.2775 -0.1864
   95GLOH   H01 9510   6.492   1.956   2.544  0.2936  0.1905 -0.2738
   96GLOH   H03 9511   9.856   9.420   6.617 -0.5836 -0.0944 -0.6570
   96GLOH    O1 9512   9.830   9.421   6.710 -0.4246  0.4219 -0.6155
   96GLOH    C1 9513   9.713   9.340   6.733 -0.2327 -0.0881 -0.5367
   96GLOH   H02 9514   9.674   9.362   6.832 -0.1450  0.6279 -0.6558
   96GLOH   H08 9515   9.748   9.238   6.720 -0.6530  0.0477 -3.1232
   96GLOH    C2 9516   9.595   9.359   6.633  0.5932 -0.5706  0.3793
   96GLOH   H04 9517   9.628   9.355   6.528 -1.0713  0.6376 -0.2036
   96GLOH    O2 9518   9.491   9.261   6.656 -0.2914  0.2970 -0.5028
   96GLOH   H05 9519   9.411   9.290   6.609 -1.4441 -0.2934  1.0495
   96GLOH    C3 9520   9.532   9.497   6.669 -0.0003  0.6102 -0.2052
   96GLOH   H06 9521   9.608   9.573   6.686  0.5322  0.4302 -1.6317
   96GLOH   H07 9522   9.480   9.479   6.762  1.0327  1.8911  0.6415
   96GLOH    O3 9523   9.432   9.543   6.573 -0.2711  0.0302  0.5947
   96GLOH   H01 9524   9.347   9.535   6.621 -0.8138  0.0811 -0.3602
   97GLOH   H03 9525   1.598   3.923   2.339 -1.1274  0.1619 -2.4082
   97GLOH    O1 9526   1.659   3.850   2.318  0.2826  0.4477  0.4687
   97GLOH    C1 9527   1.783   3.844   2.392 -0.2003  0.1399  0.4355
   97GLOH   H02 9528   1.831   3.751   2.361  1.1992  1.7403 -2.4220
   97GLOH   H08 9529   1.761   3.823   2.497 -0.3159  2.3222  0.8691
   97GLOH    C2 9530   1.875   3.968   2.382 -0.5414 -0.5028  0.2511
   97GLOH   H04 9531   1.819   4.055   2.421 -0.0679 -0.1084  0.0612
   97GLOH    O2 9532   1.987   3.953   2.472 -0.4358  0.0162 -0.0780
   97GLOH   H05 9533   2.054   3.892   2.435 -1.7136 -1.4505 -0.0158
   97GLOH    C3 9534   1.919   3.985   2.236  0.6383 -0.3862  0.8044
   97GLOH   H06 9535   1.906   3.886   2.192 -1.0520 -0.1695  0.7834
   97GLOH   H07 9536   2.025   4.012   2.229  0.2084  0.6136 -4.1594
   97GLOH    O3 9537   1.831   4.067   2.157 -0.5250 -0.2895 -0.3213
   97GLOH   H01 9538   1.862   4.159   2.167  2.5169 -1.1334 -1.6720
   98GLOH   H03 9539   2.451   6.482   4.837 -0.6912 -1.0987  1.1127
   98GLOH    O1 9540   2.419   6.426   4.764 -0.3862 -0.4541  0.4766
   98GLOH    C1 9541   2.277   6.411   4.767  0.0442 -0.4606 -0.3647
   98GLOH   H02 9542   2.249   6.353   4.680  0.5508  0.5831 -1.2394
   98GLOH   H08 9543   2.222   6.505   4.760 -0.6149 -0.6670  1.6211
   98GLOH    C2 9544   2.234   6.346   4.895 -0.0932  0.3372  0.4451
   98GLOH   H04 9545   2.291   6.253   4.907  0.0903  0.5199  0.9869
   98GLOH    O2 9546   2.265   6.428   5.014 -0.4545  0.0997  0.0090
   98GLOH   H05 9547   2.360   6.449   5.019 -0.1142 -1.7631  1.9208
   98GLOH    C3 9548   2.091   6.311   4.895  0.4597 -0.1313  0.0662
   98GLOH   H06 9549   2.028   6.400   4.886 -1.4351 -0.8438  4.8226
   98GLOH   H07 9550   2.065   6.266   4.991 -2.3755  0.1053 -0.5300
   98GLOH    O3 9551   2.065   6.210   4.795 -0.4862 -0.1794 -0.0713
   98GLOH   H01 9552   1.971   6.207   4.769 -0.3971  1.8793 -0.6972
   99GLOH   H03 9553   3.057   6.086   6.941  1.1942 -1.1328 -2.2201
   99GLOH    O1 9554   3.000   6.131   6.876  0.0886  0.4234 -0.1897
   99GLOH    C1 9555   3.043   6.110   6.743  0.0063 -0.5047  0.1727
   99GLOH   H02 9556   3.038   6.005   6.717 -0.3369 -0.2772 -0.7008
   99GLOH   H08 9557   3.148   6.138   6.734 -0.4885  1.5253  0.3184
   99GLOH    C2 9558   2.952   6.171   6.631 -0.7727  0.2307  0.3622
   99GLOH   H04 9559   2.924   6.274   6.658 -3.3136 -0.5060  0.6163
   99GLOH    O2 9560   3.026   6.168   6.505  0.2058 -0.2538 -0.3368
   99GLOH   H05 9561   3.046   6.262   6.489 -2.9933  0.7264  1.0519
   99GLOH    C3 9562   2.814   6.104   6.620 -0.5891  0.8017 -0.0921
   99GLOH   H06 9563   2.785   6.081   6.722  1.8439 -0.4253  0.3456
   99GLOH   H07 9564   2.844   6.007   6.581 -1.8693 -0.1161  1.1623
   99GLOH    O3 9565   2.720   6.176   6.534  0.2581 -0.8442  0.3866
   99GLOH   H01 9566   2.697   6.263   6.572  0.0177 -0.1595 -1.2883
  100GLOH   H03 9567   3.879  -0.063   5.261  2.6159 -2.3052 -1.3402
  100GLOH    O1 9568   3.930   0.018   5.242  0.1099 -0.4768 -0.4603
  100GLOH    C1 9569   3.846   0.129   5.193 -0.4354  0.0400 -0.0559
  100GLOH   H02 9570   3.917   0.209   5.173  0.0915 -0.3259  0.3342
  100GLOH   H08 9571   3.773   0.159   5.268  1.2126  1.1189  1.1472
  100GLOH    C2 9572   3.770   0.103   5.062 -0.0502  1.0268 -0.1060
  100GLOH   H04 9573   3.709   0.013   5.081  1.4456  0.0056 -0.0371
  100GLOH    O2 9574   3.681   0.216   5.040 -0.9814  0.0432  0.5550
  100GLOH   H05 9575   3.601   0.191   4.991  0.4932 -0.0750 -1.8760
  100GLOH    C3 9576   3.865   0.074   4.944  0.2397 -0.6708 -0.4329
  100GLOH   H06 9577   3.936   0.158   4.943 -0.4465 -0.0903 -0.6343
  100GLOH   H07 9578   3.801   0.071   4.856 -0.8525  0.1547  0.3258
  100GLOH    O3 9579   3.939  -0.049   4.954  0.4473  0.2508  0.2438
  100GLOH   H01 9580   4.015  -0.027   5.010  0.7269  1.3079 -0.5237
  101GLOH   H03 9581   2.097   9.397   3.869 -1.4241 -0.4797  2.8282
  101GLOH    O1 9582   2.181   9.371   3.911  0.3137 -0.0356 -0.2344
  101GLOH    C1 9583   2.285   9.335   3.820 -0.5524 -0.3051  0.5011
  101GLOH   H02 9584   2.245   9.266   3.745  0.7519  0.0213 -0.5065
  101GLOH   H08 9585   2.353   9.269   3.874  0.6157 -0.5531 -1.2278
  101GLOH    C2 9586   2.363   9.452   3.761 -0.1811  0.2270  0.1957
  101GLOH   H04 9587   2.377   9.523   3.845 -0.2198  0.5726 -0.0879
  101GLOH    O2 9588   2.488   9.410   3.698 -0.0492 -0.4474 -0.4423
  101GLOH   H05 9589   2.555   9.381   3.762  0.2383  0.5245 -0.2971
  101GLOH    C3 9590   2.279   9.534   3.658 -0.2438 -0.7848  0.0770
  101GLOH   H06 9591   2.268   9.484   3.562 -1.3809 -0.0005 -0.2252
  101GLOH   H07 9592   2.346   9.613   3.624  1.0929 -1.5300  0.9424
  101GLOH    O3 9593   2.148   9.587   3.701 -0.0506 -0.0289  0.3156
  101GLOH   H01 9594   2.134   9.665   3.644 -3.1787 -0.0188  1.0535
  102GLOH   H03 9595   7.793   2.827   5.859 -1.5317  0.5750  0.8613
  102GLOH    O1 9596   7.756   2.851   5.772  0.0831 -0.2453 -0.0818
  102GLOH    C1 9597   7.729   2.727   5.706 -0.3836 -0.5058 -0.0729
  102GLOH   H02 9598   7.647   2.724   5.635  0.4715  0.3137 -1.1184
  102GLOH   H08 9599   7.705   2.651   5.781 -0.5630  1.2712  1.7141
  102GLOH    C2 9600   7.845   2.689   5.619 -0.2009 -0.5056  0.1530
  102GLOH   H04 9601   7.934   2.700   5.683  0.4585 -0.1000 -0.8348
  102GLOH    O2 9602   7.839   2.552   5.586  0.2198  0.3604  0.1106
  102GLOH   H05 9603   7.926   2.516   5.562 -0.6085 -2.3029  0.9345
  102GLOH    C3 9604   7.864   2.788   5.503 -0.3363  0.6533 -0.0624
  102GLOH   H06 9605   7.847   2.887   5.547  0.0275 -0.3115  2.3324
  102GLOH   H07 9606   7.776   2.764   5.444 -1.3338  2.5074  0.6207
  102GLOH    O3 9607   7.979   2.774   5.425 -0.4730 -0.2414 -0.2299
  102GLOH   H01 9608   8.055   2.779   5.486  0.0039  1.0083 -0.9096
  103GLOH   H03 9609   9.206   2.494   0.508  1.1398  0.2976  1.3722
  103GLOH    O1 9610   9.220   2.401   0.534 -0.4281 -0.3332  0.0333
  103GLOH    C1 9611   9.340   2.381   0.611 -0.1965  0.1216  0.3063
  103GLOH   H02 9612   9.315   2.396   0.716  0.8174 -0.2395  0.6004
  103GLOH   H08 9613   9.409   2.460   0.579  0.3095 -0.0065  1.0824
  103GLOH    C2 9614   9.406   2.243   0.609 -0.4936 -0.0707 -0.7351
  103GLOH   H04 9615   9.440   2.227   0.506  0.0673  3.1390 -1.0923
  103GLOH    O2 9616   9.526   2.234   0.693  0.2362 -0.1578 -0.2149
  103GLOH   H05 9617   9.537   2.151   0.742 -0.6440  0.8459  1.7359
  103GLOH    C3 9618   9.302   2.143   0.658 -0.7024  0.4176 -0.4236
  103GLOH   H06 9619   9.221   2.154   0.587 -1.1765 -2.3130 -0.3656
  103GLOH   H07 9620   9.263   2.175   0.755 -0.3357  0.3801 -0.2619
  103GLOH    O3 9621   9.351   2.007   0.654 -0.2922 -0.0885 -0.5826
  103GLOH   H01 9622   9.313   1.965   0.734 -2.4494  1.7781 -0.5765
  104GLOH   H03 9623   4.704   6.919   4.033 -1.6260  0.1415  0.1027
  104GLOH    O1 9624   4.699   6.859   3.956 -0.2336  0.1953 -0.0320
  104GLOH    C1 9625   4.788   6.888   3.851 -0.7850 -0.2315  0.2532
  104GLOH   H02 9626   4.745   6.972   3.796 -1.2560 -1.0055 -0.5782
  104GLOH   H08 9627   4.805   6.798   3.791 -1.1030 -1.1794  1.5699
  104GLOH    C2 9628   4.928   6.924   3.917 -0.0411  0.4432  0.0294
  104GLOH   H04 9629   4.965   6.834   3.968  2.8231  1.7139  0.2572
  104GLOH    O2 9630   5.030   6.956   3.815  0.1550  0.0430  0.2261
  104GLOH   H05 9631   5.106   7.004   3.853  1.5174 -0.7848 -1.4379
  104GLOH    C3 9632   4.918   7.036   4.023  0.3017  0.1664  0.2812
  104GLOH   H06 9633   4.907   7.128   3.965 -1.0722 -1.2613 -1.7967
  104GLOH   H07 9634   5.010   7.051   4.079  0.1362  0.9851  0.3421
  104GLOH    O3 9635   4.817   7.009   4.122  0.1323 -0.1715 -0.1716
  104GLOH   H01 9636   4.811   7.089   4.178  1.7285 -0.4958  0.4899
  105GLOH   H03 9637   1.624   4.204   6.545  3.0429 -1.6422 -0.7826
  105GLOH    O1 9638   1.642   4.267   6.472  0.0028  0.9487  0.5798
  105GLOH    C1 9639   1.777   4.314   6.466 -0.5051  0.1544 -0.5539
  105GLOH   H02 9640   1.819   4.353   6.559 -1.6189 -0.2657  0.1342
  105GLOH   H08 9641   1.784   4.398   6.396  0.7979 -0.8006 -1.5819
  105GLOH    C2 9642   1.875   4.207   6.416  0.6893 -0.0450  0.0714
  105GLOH   H04 9643   1.825   4.162   6.329  0.8792 -2.9909  1.4456
  105GLOH    O2 9644   2.005   4.252   6.372  0.1332  0.4733 -0.2877
  105GLOH   H05 9645   2.050   4.187   6.315  0.2283 -1.0605  1.4989
  105GLOH    C3 9646   1.889   4.093   6.520 -0.1664 -0.2103  0.9024
  105GLOH   H06 9647   1.940   4.014   6.466  1.3821  1.3796 -0.0105
  105GLOH   H07 9648   1.787   4.063   6.546 -0.8505  0.8375 -0.5268
  105GLOH    O3 9649   1.946   4.141   6.645 -0.1406  0.7839 -0.1822
  105GLOH   H01 9650   1.927   4.068   6.707 -0.4729  0.6977 -0.3793
  106GLOH   H03 9651   2.644   0.997   1.439 -2.6385  2.0802 -0.3630
  106GLOH    O1 9652   2.710   1.061   1.407 -0.4575 -0.0502 -0.2766
  106GLOH    C1 9653   2.659   1.109   1.282 -0.1178  0.3754  0.2461
  106GLOH   H02 9654   2.552   1.129   1.293 -0.1175  0.4119  0.1864
  106GLOH   H08 9655   2.671   1.025   1.214 -0.4910 -0.5185  1.2557
  106GLOH    C2 9656   2.726   1.234   1.226 -0.4597 -0.0815  0.1370
  106GLOH   H04 9657   2.825   1.198   1.197 -0.1788  0.5680  0.2866
  106GLOH    O2 9658   2.653   1.265   1.104 -0.1490  0.0974 -0.6293
  106GLOH   H05 9659   2.704   1.322   1.044  1.2852  0.1210  0.5666
  106GLOH    C3 9660   2.732   1.350   1.328  0.7482 -0.1326  0.0955
  106GLOH   H06 9661   2.772   1.320   1.425  1.2560 -0.6346 -0.2660
  106GLOH   H07 9662   2.627   1.378   1.342  1.0963  1.8783 -1.0659
  106GLOH    O3 9663   2.809   1.460   1.278 -0.0859  0.5687 -0.2664
  106GLOH   H01 9664   2.899   1.428   1.263 -0.8761 -1.4491 -0.8801
  107GLOH   H03 9665   7.397   3.195   3.576 -0.9512  0.2168  1.2191
  107GLOH    O1 9666   7.481   3.215   3.621 -0.4338 -0.0325  0.3771
  107GLOH    C1 9667   7.562   3.098   3.590 -0.0383 -0.2894 -0.2713
  107GLOH   H02 9668   7.504   3.012   3.625  0.0207 -0.9488 -1.7784
  107GLOH   H08 9669   7.654   3.099   3.647 -0.1434  0.9107 -0.1111
  107GLOH    C2 9670   7.597   3.073   3.441 -0.1693 -0.4376  0.7317
  107GLOH   H04 9671   7.507   3.093   3.382 -0.1916  0.0775  0.9327
  107GLOH    O2 9672   7.700   3.172   3.400  0.8382  0.4862 -0.7836
  107GLOH   H05 9673   7.717   3.230   3.476  0.6361  1.7981 -1.7339
  107GLOH    C3 9674   7.642   2.931   3.413 -0.3863  0.7658 -0.1255
  107GLOH   H06 9675   7.707   2.902   3.495 -1.3331 -0.3528  0.2290
  107GLOH   H07 9676   7.701   2.919   3.322 -1.1415  1.7217 -0.7501
  107GLOH    O3 9677   7.523   2.842   3.413 -0.6471  0.2118 -0.3570
  107GLOH   H01 9678   7.461   2.879   3.348 -0.6816 -0.3455 -0.6506
  108GLOH   H03 9679   5.196   4.384   4.101  2.5749 -2.0192  1.9711
  108GLOH    O1 9680   5.221   4.460   4.156  0.0597  0.3999 -0.0958
  108GLOH    C1 9681   5.279   4.413   4.278 -0.5132 -0.1352 -1.0557
  108GLOH   H02 9682   5.290   4.489   4.356 -1.2898 -2.1885  1.1312
  108GLOH   H08 9683   5.379   4.377   4.255  0.5535  1.1556  1.3418
  108GLOH    C2 9684   5.186   4.311   4.341  0.4760 -0.3260  0.1025
  108GLOH   H04 9685   5.157   4.239   4.263  1.3412 -1.1686  0.5446
  108GLOH    O2 9686   5.232   4.243   4.458 -0.0135 -0.0637  0.5954
  108GLOH   H05 9687   5.238   4.312   4.527  0.1869  0.9833 -0.4572
  108GLOH    C3 9688   5.055   4.385   4.377  0.3417 -0.3490 -0.2119
  108GLOH   H06 9689   5.020   4.425   4.282 -2.7947 -2.5375 -0.0366
  108GLOH   H07 9690   5.080   4.470   4.441  0.0153  0.2565 -0.8813
  108GLOH    O3 9691   4.950   4.303   4.437  0.2241  0.6123 -0.3630
  108GLOH   H01 9692   4.905   4.264   4.359  0.6907 -1.7602  0.5199
  109GLOH   H03 9693   5.480   3.827   0.334  2.1089  0.3600 -1.7169
  109GLOH    O1 9694   5.524   3.869   0.410  0.2345 -0.4782 -0.1350
  109GLOH    C1 9695   5.572   3.775   0.514 -0.2065  0.4102  0.4322
  109GLOH   H02 9696   5.550   3.827   0.608  0.1868  1.4675 -0.0462
  109GLOH   H08 9697   5.677   3.747   0.500 -0.4751  0.3538 -1.6531
  109GLOH    C2 9698   5.498   3.639   0.514  0.6952 -0.2430 -0.1325
  109GLOH   H04 9699   5.389   3.655   0.508  0.0853 -3.8398  0.6021
  109GLOH    O2 9700   5.526   3.555   0.399 -0.1091 -0.4870 -0.0704
  109GLOH   H05 9701   5.487   3.605   0.325 -2.8002 -1.4867  0.6342
  109GLOH    C3 9702   5.529   3.570   0.648 -0.5564 -0.6111 -0.8175
  109GLOH   H06 9703   5.635   3.549   0.666 -0.4124  0.3602 -0.5002
  109GLOH   H07 9704   5.482   3.472   0.650  0.6507 -1.1870  1.4050
  109GLOH    O3 9705   5.473   3.653   0.756  0.5684 -0.3176 -0.3067
  109GLOH   H01 9706   5.377   3.635   0.763  0.8838 -0.9385  3.1723
  110GLOH   H03 9707   8.065   9.067   6.343 -1.3489  0.3517  0.2088
  110GLOH    O1 9708   8.070   9.144   6.402  0.0263  0.2368  0.2440
  110GLOH    C1 9709   8.046   9.251   6.313  0.3897 -0.3689  0.5700
  110GLOH   H02 9710   8.121   9.265   6.236  0.3377  2.3092  0.9381
  110GLOH   H08 9711   8.053   9.344   6.370 -0.1328  0.6086 -0.9526
  110GLOH    C2 9712   7.901   9.254   6.256 -0.8206  0.4633 -0.8276
  110GLOH   H04 9713   7.887   9.348   6.201 -0.6093  0.9365 -0.0720
  110GLOH    O2 9714   7.887   9.143   6.159 -0.4929  0.0635  0.0885
  110GLOH   H05 9715   7.894   9.061   6.210  1.8611 -1.4443 -2.5481
  110GLOH    C3 9716   7.804   9.242   6.375 -0.1227  0.2309  0.4036
  110GLOH   H06 9717   7.828   9.151   6.431 -1.8590 -1.2673 -1.2211
  110GLOH   H07 9718   7.704   9.229   6.336  0.2276 -0.1962 -0.3613
  110GLOH    O3 9719   7.814   9.359   6.458 -0.9060  0.5729  0.8155
  110GLOH   H01 9720   7.879   9.346   6.530  1.1268 -1.8273 -1.3749
  111GLOH   H03 9721   5.832   5.772   1.037  0.1080 -0.2261  0.0682
  111GLOH    O1 9722   5.844   5.679   1.062  0.2396 -0.3287 -0.3586
  111GLOH    C1 9723   5.977   5.638   1.024 -0.4223 -0.4563  0.0991
  111GLOH   H02 9724   6.004   5.554   1.089  0.0290  0.7387  1.4797
  111GLOH   H08 9725   6.050   5.718   1.034  0.6437 -1.3576 -0.3192
  111GLOH    C2 9726   5.997   5.588   0.880 -0.4720 -0.2400  0.8888
  111GLOH   H04 9727   5.962   5.673   0.820  1.2546 -0.0903  0.0652
  111GLOH    O2 9728   6.136   5.563   0.844  0.3153 -0.0702 -0.0682
  111GLOH   H05 9729   6.155   5.468   0.841  0.7379 -0.0670  1.9590
  111GLOH    C3 9730   5.917   5.463   0.844 -0.2983 -0.2532 -0.4830
  111GLOH   H06 9731   5.951   5.422   0.748  0.1911 -1.7245  0.3019
  111GLOH   H07 9732   5.812   5.486   0.827 -0.1451  2.2032  1.5179
  111GLOH    O3 9733   5.934   5.356   0.939  0.3162  0.4221 -0.2034
  111GLOH   H01 9734   6.025   5.326   0.925  0.7687  1.1412  1.1014
  112GLOH   H03 9735   9.477   0.621   4.478  0.7597 -0.5745 -0.1672
  112GLOH    O1 9736   9.480   0.574   4.563 -0.4014  0.0934  0.2633
  112GLOH    C1 9737   9.597   0.491   4.564 -0.0935  0.5659 -0.3476
  112GLOH   H02 9738   9.591   0.418   4.645  2.6182 -2.0148 -2.3731
  112GLOH   H08 9739   9.677   0.557   4.597 -1.6592  1.8570  1.0000
  112GLOH    C2 9740   9.625   0.411   4.437  0.1849 -0.6347 -0.7326
  112GLOH   H04 9741   9.640   0.485   4.357 -1.3247  1.3482  0.7622
  112GLOH    O2 9742   9.737   0.327   4.464  0.4701 -0.0144 -0.2645
  112GLOH   H05 9743   9.725   0.251   4.523  2.3731  0.6011  0.9490
  112GLOH    C3 9744   9.511   0.319   4.387  0.8203 -0.2564 -0.0842
  112GLOH   H06 9745   9.488   0.248   4.467  1.4492  0.0634  0.3752
  112GLOH   H07 9746   9.561   0.266   4.306 -1.8847 -1.1580 -1.2393
  112GLOH    O3 9747   9.392   0.396   4.349  0.0997 -0.4023 -0.3904
  112GLOH   H01 9748   9.314   0.336   4.346  1.6168 -2.7064  3.2821
  113GLOH   H03 9749   7.828   2.819   3.835 -0.5320 -1.3627  0.6606
  113GLOH    O1 9750   7.873   2.785   3.755 -0.0438 -0.0047  0.3293
  113GLOH    C1 9751   7.799   2.669   3.711  0.2159  0.3084 -0.3356
  113GLOH   H02 9752   7.851   2.619   3.630 -2.0434  0.3162 -1.8410
  113GLOH   H08 9753   7.707   2.705   3.665  0.4272 -1.4687 -2.2647
  113GLOH    C2 9754   7.760   2.568   3.825  0.2862 -0.3147  0.2835
  113GLOH   H04 9755   7.691   2.614   3.897  0.2007 -3.4849  2.2916
  113GLOH    O2 9756   7.684   2.463   3.752  0.6665  0.5985  0.2868
  113GLOH   H05 9757   7.737   2.413   3.687 -1.2521  1.8799 -2.3513
  113GLOH    C3 9758   7.872   2.513   3.909 -0.2721 -0.4859  0.2378
  113GLOH   H06 9759   7.812   2.449   3.972  0.4206 -0.6915  0.6946
  113GLOH   H07 9760   7.915   2.591   3.972 -1.0816 -1.2717  1.7761
  113GLOH    O3 9761   7.968   2.445   3.831  0.1272  1.3014 -0.6771
  113GLOH   H01 9762   7.940   2.352   3.821  0.6045  1.1114 -0.3168
  114GLOH   H03 9763   4.221   7.521   5.508  1.3006 -1.8109  0.7196
  114GLOH    O1 9764   4.174   7.511   5.592  0.0924 -0.2166  0.2580
  114GLOH    C1 9765   4.251   7.457   5.700  0.0830 -0.5660 -0.4215
  114GLOH   H02 9766   4.244   7.349   5.692  0.5416 -0.6279  0.0203
  114GLOH   H08 9767   4.197   7.490   5.790  0.3267  1.3921 -0.9675
  114GLOH    C2 9768   4.393   7.501   5.712  0.3131 -0.0485 -0.1798
  114GLOH   H04 9769   4.447   7.478   5.618 -0.4584  1.0507 -0.9058
  114GLOH    O2 9770   4.395   7.636   5.759  0.2096  0.0278 -0.0882
  114GLOH   H05 9771   4.376   7.682   5.676  0.8562 -2.1492 -1.4758
  114GLOH    C3 9772   4.460   7.422   5.826  0.3035 -0.1500 -0.0339
  114GLOH   H06 9773   4.427   7.319   5.814 -0.7811  0.3540 -1.5231
  114GLOH   H07 9774   4.413   7.456   5.918 -1.0228  1.5152 -1.2837
  114GLOH    O3 9775   4.606   7.422   5.837 -0.0346  0.1471 -0.3332
  114GLOH   H01 9776   4.620   7.499   5.896 -1.2581  0.3194 -0.2600
  115GLOH   H03 9777   6.600   8.559   1.977 -1.6175 -2.1225  0.0371
  115GLOH    O1 9778   6.680   8.511   1.948 -0.4637  0.0332 -0.4973
  115GLOH    C1 9779   6.652   8.367   1.958  0.3729 -1.1837 -0.1677
  115GLOH   H02 9780   6.632   8.328   1.859 -2.4447 -0.8288  0.2198
  115GLOH   H08 9781   6.563   8.344   2.017  0.3183  0.7756  0.5614
  115GLOH    C2 9782   6.767   8.289   2.026  0.7640  0.0487 -0.3741
  115GLOH   H04 9783   6.799   8.337   2.120 -0.1542 -0.6976  0.3193
  115GLOH    O2 9784   6.719   8.152   2.046 -0.6039  0.6364 -0.2858
  115GLOH   H05 9785   6.643   8.152   2.106 -0.5926 -0.7594 -0.2576
  115GLOH    C3 9786   6.888   8.294   1.937 -0.1788 -0.1847  0.1597
  115GLOH   H06 9787   6.865   8.245   1.842  1.9796 -1.0424  0.0504
  115GLOH   H07 9788   6.968   8.233   1.981  0.5245  1.5778  1.3607
  115GLOH    O3 9789   6.935   8.429   1.910  0.4918  0.3270 -0.2066
  115GLOH   H01 9790   6.853   8.477   1.889 -0.0326  0.5236  2.1670
  116GLOH   H03 9791   0.426   5.693   6.568  1.2483  4.0675 -1.1487
  116GLOH    O1 9792   0.494   5.658   6.507 -0.3350  0.1125 -0.8569
  116GLOH    C1 9793   0.440   5.583   6.401 -0.3624  0.1696 -0.1767
  116GLOH   H02 9794   0.481   5.603   6.302  0.7053  1.6191  0.5457
  116GLOH   H08 9795   0.335   5.612   6.394 -0.5267  0.0701  1.7104
  116GLOH    C2 9796   0.453   5.431   6.424 -0.0000  0.0552 -0.4189
  116GLOH   H04 9797   0.400   5.379   6.344 -0.1718 -3.3360  1.8089
  116GLOH    O2 9798   0.596   5.404   6.414 -0.2406  0.4179  0.2673
  116GLOH   H05 9799   0.638   5.481   6.372  0.6514 -0.1730  0.0666
  116GLOH    C3 9800   0.409   5.377   6.557  0.4462 -0.2195 -0.2568
  116GLOH   H06 9801   0.472   5.414   6.638  0.5417 -2.6152  0.7885
  116GLOH   H07 9802   0.418   5.269   6.560  1.5717 -0.1365 -0.5035
  116GLOH    O3 9803   0.275   5.417   6.583  0.3267  0.3095 -0.0816
  116GLOH   H01 9804   0.222   5.367   6.518  0.3202  0.3158 -0.0809
  117GLOH   H03 9805   0.858   9.757   5.128 -0.8055 -3.1494  1.2796
  117GLOH    O1 9806   0.931   9.736   5.190  0.3962 -0.8363  0.7162
  117GLOH    C1 9807   0.865   9.649   5.277  0.2143  0.0565  0.0624
  117GLOH   H02 9808   0.772   9.687   5.320 -0.5999 -0.4647 -1.2363
  117GLOH   H08 9809   0.933   9.636   5.362  0.6077 -0.8808 -0.3930
  117GLOH    C2 9810   0.837   9.509   5.229  0.2156 -0.1076  0.7894
  117GLOH   H04 9811   0.801   9.510   5.125  0.7166  3.5250  0.6151
  117GLOH    O2 9812   0.962   9.430   5.236 -0.5502 -0.2115  0.4600
  117GLOH   H05 9813   0.965   9.361   5.167 -1.2566 -0.6785  0.8936
  117GLOH    C3 9814   0.732   9.437   5.317 -0.0541  0.4230  0.5487
  117GLOH   H06 9815   0.774   9.446   5.417 -0.7433 -3.3032  1.2460
  117GLOH   H07 9816   0.725   9.333   5.286 -0.0247  0.4499  0.4551
  117GLOH    O3 9817   0.601   9.498   5.299 -0.1724 -0.2193  0.4844
  117GLOH   H01 9818   0.537   9.437   5.340 -0.7615 -0.1312 -0.2716
  118GLOH   H03 9819   5.290   4.594   0.318 -1.9470 -0.2672  1.6890
  118GLOH    O1 9820   5.302   4.686   0.349 -0.1746  0.1008  0.0055
  118GLOH    C1 9821   5.195   4.756   0.292  0.3360 -0.7875  0.6990
  118GLOH   H02 9822   5.190   4.857   0.333 -1.7716  0.4458 -2.3839
  118GLOH   H08 9823   5.100   4.709   0.318  1.0241 -1.1466  2.5589
  118GLOH    C2 9824   5.217   4.762   0.137 -0.2100  0.1554 -0.4257
  118GLOH   H04 9825   5.318   4.802   0.125 -1.0492  2.0192 -1.3874
  118GLOH    O2 9826   5.219   4.625   0.088  0.1011 -0.0260 -0.3237
  118GLOH   H05 9827   5.251   4.618  -0.004 -0.4258 -0.9317 -0.4355
  118GLOH    C3 9828   5.118   4.848   0.059 -0.4249  0.2491  0.0788
  118GLOH   H06 9829   5.022   4.798   0.044 -0.2217 -0.0128 -0.3578
  118GLOH   H07 9830   5.168   4.857  -0.037  0.9456  0.5127  0.8096
  118GLOH    O3 9831   5.110   4.979   0.115 -0.3951 -0.5174 -0.4270
  118GLOH   H01 9832   5.200   5.017   0.114 -2.0030  3.5694  1.4200
  119GLOH   H03 9833   4.226   8.912   3.701 -0.0993  0.2686  0.4877
  119GLOH    O1 9834   4.292   8.854   3.743 -0.1582  0.0218  0.2363
  119GLOH    C1 9835   4.366   8.791   3.636  0.3932 -0.2827 -0.7150
  119GLOH   H02 9836   4.314   8.794   3.540  0.3249 -2.1910 -0.7707
  119GLOH   H08 9837   4.374   8.686   3.667  2.8310  0.5555  1.7021
  119GLOH    C2 9838   4.510   8.842   3.617  0.1687 -0.9121  0.1773
  119GLOH   H04 9839   4.555   8.795   3.528 -0.4856 -0.7724 -0.2300
  119GLOH    O2 9840   4.509   8.978   3.569  0.1247 -0.1118  0.0765
  119GLOH   H05 9841   4.441   9.027   3.619  0.1466  1.3471 -1.2757
  119GLOH    C3 9842   4.596   8.814   3.735 -0.0169  0.7678 -0.4072
  119GLOH   H06 9843   4.597   8.708   3.761  1.2827  0.7465 -0.5382
  119GLOH   H07 9844   4.547   8.873   3.813  2.3908  1.7224  0.4230
  119GLOH    O3 9845   4.734   8.852   3.716 -0.4974  0.0007 -0.1169
  119GLOH   H01 9846   4.763   8.839   3.624  1.6540  2.6902  0.1101
  120GLOH   H03 9847   3.586   4.237   0.411  1.3106  0.1961 -0.4037
  120GLOH    O1 9848   3.592   4.209   0.504  0.2510 -0.0394 -0.4004
  120GLOH    C1 9849   3.484   4.134   0.555 -0.2362  0.2618  0.5383
  120GLOH   H02 9850   3.517   4.075   0.641  0.8653  0.2584  0.1291
  120GLOH   H08 9851   3.436   4.068   0.482  3.0190 -1.5406 -0.1064
  120GLOH    C2 9852   3.368   4.219   0.607 -0.1941 -0.4092  0.2723
  120GLOH   H04 9853   3.291   4.156   0.652 -0.4101  0.8735  1.7497
  120GLOH    O2 9854   3.417   4.304   0.709 -0.3763 -0.1259  0.1852
  120GLOH   H05 9855   3.469   4.253   0.774 -1.3114 -1.2789  0.0356
  120GLOH    C3 9856   3.299   4.305   0.503 -0.6334 -0.0818  0.1016
  120GLOH   H06 9857   3.369   4.384   0.477 -1.7150  0.6737 -0.5963
  120GLOH   H07 9858   3.203   4.343   0.540 -0.4010  0.0907  0.5352
  120GLOH    O3 9859   3.280   4.221   0.388 -0.1877 -0.2595  0.1670
  120GLOH   H01 9860   3.346   4.251   0.322 -1.4682  3.1980  0.3702
  121ACOH    H4 9861   5.667   2.554   2.095  2.4012 -1.9478 -0.4708
  121ACOH    O2 9862   5.698   2.601   2.016  0.5933  0.4546  0.1477
  121ACOH    C2 9863   5.593   2.588   1.926  0.8518 -0.1883  0.7480
  121ACOH    O1 9864   5.488   2.532   1.950  0.1177  0.0755 -0.4057
  121ACOH    C1 9865   5.637   2.597   1.785 -0.2462 -0.7877 -0.6465
  121ACOH    H1 9866   5.657   2.701   1.757  1.2603 -0.9270 -0.1533
  121ACOH    H2 9867   5.556   2.577   1.714 -0.4917  0.5914 -0.7708
  121ACOH    H3 9868   5.714   2.526   1.753  0.1398 -0.4894 -0.3896
  122ACOH    H4 9869   4.029   6.385   5.029  1.0079 -0.9618  0.4210
  122ACOH    O2 9870   4.072   6.453   5.083 -0.4106  0.4372 -0.1726
  122ACOH    C2 9871   4.089   6.562   5.001 -0.1769  0.2398  0.3007
  122ACOH    O1 9872   4.034   6.586   4.896 -0.1040  0.2660  0.2231
  122ACOH    C1 9873   4.164   6.667   5.080  0.2944  0.5875 -0.5405
  122ACOH    H1 9874   4.232   6.714   5.008 -0.7714  1.4546 -0.9995
  122ACOH    H2 9875   4.223   6.626   5.162  1.2849 -0.3298 -1.6979
  122ACOH    H3 9876   4.101   6.742   5.127 -1.6050 -2.5094  2.0430
  123ACOH    H4 9877   6.532   7.148   4.502  0.1788  0.2298  0.6560
  123ACOH    O2 9878   6.598   7.178   4.438  0.2916 -0.3196  0.5146
  123ACOH    C2 9879   6.665   7.066   4.403  0.6843 -0.4831  0.7277
  123ACOH    O1 9880   6.627   6.950   4.414 -0.0424  0.3009  0.0268
  123ACOH    C1 9881   6.799   7.091   4.345 -0.3961  0.7829 -0.2373
  123ACOH    H1 9882   6.776   7.089   4.239  1.0781 -0.8485 -0.5495
  123ACOH    H2 9883   6.877   7.016   4.357  1.6483  3.1205  1.7835
  123ACOH    H3 9884   6.832   7.189   4.379  1.6313  0.4116 -1.0719
  124ACOH    H4 9885   4.934   6.117   2.742 -0.1650 -0.2341  0.5533
  124ACOH    O2 9886   4.939   6.208   2.708  0.5210 -0.6337 -0.4574
  124ACOH    C2 9887   5.054   6.253   2.763 -0.5557  0.1200  0.2745
  124ACOH    O1 9888   5.123   6.205   2.850  0.1013 -0.2486 -0.2080
  124ACOH    C1 9889   5.071   6.388   2.720 -0.0114 -0.6906 -0.8044
  124ACOH    H1 9890   5.166   6.398   2.668  0.5447 -0.7324  0.1868
  124ACOH    H2 9891   5.065   6.455   2.806  0.5530 -0.6126 -0.8256
  124ACOH    H3 9892   4.985   6.421   2.662 -2.4004  0.4493  3.2192
  125ACOH    H4 9893   9.182   7.054   5.579  0.2158  4.2532 -0.8045
  125ACOH    O2 9894   9.240   7.037   5.502  0.2120  0.2586 -0.0343
  125ACOH    C2 9895   9.179   6.931   5.438 -0.7108 -0.5181 -0.4267
  125ACOH    O1 9896   9.090   6.864   5.491 -0.6628 -0.1934 -0.6738
  125ACOH    C1 9897   9.236   6.913   5.304  0.3351 -0.2365 -0.0982
  125ACOH    H1 9898   9.243   7.005   5.246  1.1289  0.4557  1.0780
  125ACOH    H2 9899   9.184   6.837   5.245  1.6819  0.3125 -2.0354
  125ACOH    H3 9900   9.343   6.892   5.306  0.2473 -0.5695  1.5273
  127ACOH    H4 9901   5.019   6.220   0.766 -1.2941 -1.3199  4.0956
  127ACOH    O2 9902   4.957   6.295   0.756  0.7216 -0.0023  0.2425
  127ACOH    C2 9903   4.994   6.376   0.657 -1.1500  0.8443  0.4217
  127ACOH    O1 9904   5.102   6.380   0.598 -0.1539 -0.3852 -0.1607
  127ACOH    C1 9905   4.884   6.468   0.626  0.3544  0.6781 -0.2338
  127ACOH    H1 9906   4.886   6.505   0.523 -0.4635  0.7628 -0.2231
  127ACOH    H2 9907   4.892   6.544   0.703 -0.9928 -0.9054  1.5185
  127ACOH    H3 9908   4.786   6.425   0.645  0.6445 -0.3113 -0.9024
  129ACOH    H4 9909   7.310   2.102   6.656 -0.0138  0.4236  0.0253
  129ACOH    O2 9910   7.352   2.137   6.737 -0.3627  0.4102  0.2134
  129ACOH    C2 9911   7.448   2.224   6.701 -0.4640 -0.6053 -0.1797
  129ACOH    O1 9912   7.476   2.258   6.589 -0.4705  0.4919  0.3445
  129ACOH    C1 9913   7.507   2.291   6.820 -0.0247 -0.0744 -0.3650
  129ACOH    H1 9914   7.563   2.378   6.785  1.0684  0.2294  2.0854
  129ACOH    H2 9915   7.575   2.223   6.872  1.3112  1.1077 -0.5333
  129ACOH    H3 9916   7.433   2.317   6.896  0.7691  1.3690 -0.0703
  130ACOH    H4 9917   0.782   7.482   4.748  0.7073  1.0008  0.9329
  130ACOH    O2 9918   0.702   7.535   4.730  0.9331  1.0736  0.1270
  130ACOH    C2 9919   0.592   7.481   4.780 -0.1032  0.5553  0.3129
  130ACOH    O1 9920   0.581   7.365   4.803 -0.5861 -0.4772 -0.3220
  130ACOH    C1 9921   0.477   7.575   4.790  0.6650  0.1921  0.1521
  130ACOH    H1 9922   0.389   7.519   4.821  0.4428 -0.6353 -1.9019
  130ACOH    H2 9923   0.451   7.619   4.694 -0.0210  0.8864  0.6595
  130ACOH    H3 9924   0.500   7.658   4.857 -1.8100  1.5486 -0.6322
  131ACOH    H4 9925   6.406   5.720   0.453  1.0213  1.1334 -0.0367
  131ACOH    O2 9926   6.450   5.684   0.374 -0.2075  0.3165 -0.3655
  131ACOH    C2 9927   6.582   5.691   0.397  0.3174 -0.1010  0.3562
  131ACOH    O1 9928   6.626   5.754   0.493  0.6058 -0.2558  0.4550
  131ACOH    C1 9929   6.679   5.651   0.286 -0.8427  0.1567  0.2222
  131ACOH    H1 9930   6.708   5.743   0.233  0.5718 -0.4089 -0.0301
  131ACOH    H2 9931   6.633   5.584   0.214  0.2427 -1.1518  0.7324
  131ACOH    H3 9932   6.766   5.602   0.330 -0.4283  1.2998  0.7057
  132ACOH    H4 9933   1.874   1.581   6.554  0.3490  2.2937  0.1235
  132ACOH    O2 9934   1.863   1.558   6.648 -0.4259  0.0302 -0.4828
  132ACOH    C2 9935   1.832   1.430   6.652 -0.2610 -0.3322 -0.0795
  132ACOH    O1 9936   1.855   1.348   6.563  0.2385 -0.0415  0.3813
  132ACOH    C1 9937   1.766   1.386   6.780 -0.4502 -0.4336  0.0542
  132ACOH    H1 9938   1.824   1.420   6.866  0.8489  0.7350 -1.2542
  132ACOH    H2 9939   1.756   1.278   6.794  0.5236 -0.3622  1.3169
  132ACOH    H3 9940   1.667   1.429   6.768 -0.1515  0.3874  0.5021
  133ACOH    H4 9941   6.373   7.909   2.027  2.0627 -0.7512  0.5268
  133ACOH    O2 9942   6.415   7.963   1.957  0.1314  0.0855 -0.0270
  133ACOH    C2 9943   6.551   7.944   1.949  0.3651  0.6090 -0.0010
  133ACOH    O1 9944   6.616   7.874   2.024  0.1341 -0.0975 -0.6434
  133ACOH    C1 9945   6.605   8.005   1.823  0.4638  0.1503 -0.0266
  133ACOH    H1 9946   6.606   8.114   1.827  0.5237  0.2873 -2.5633
  133ACOH    H2 9947   6.545   7.963   1.742  0.3000  2.3954 -1.0967
  133ACOH    H3 9948   6.706   7.967   1.810  0.1299 -1.0355  0.7956
  134ACOH    H4 9949   3.770   7.227   0.756 -3.5260 -0.7361 -0.4334
  134ACOH    O2 9950   3.778   7.160   0.686  0.3903 -0.2789 -0.5578
  134ACOH    C2 9951   3.905   7.122   0.670 -0.1888  0.2841 -0.4367
  134ACOH    O1 9952   4.002   7.181   0.707 -0.8383  0.5649 -0.1897
  134ACOH    C1 9953   3.905   7.005   0.577 -0.9126  0.6286 -0.4485
  134ACOH    H1 9954   4.005   6.974   0.548 -1.1602 -0.2932 -0.3613
  134ACOH    H2 9955   3.847   7.035   0.490 -0.3252 -0.9784 -1.4231
  134ACOH    H3 9956   3.858   6.920   0.627  0.9501  0.3120  0.8060
  135ACOH    H4 9957   4.291   6.320   3.728 -0.8932 -0.5142  0.4390
  135ACOH    O2 9958   4.240   6.277   3.799 -0.7728 -0.5632  0.4949
  135ACOH    C2 9959   4.114   6.321   3.796 -0.3911 -0.6288 -0.1782
  135ACOH    O1 9960   4.076   6.421   3.737  0.3657  0.2663  0.7072
  135ACOH    C1 9961   4.019   6.223   3.863 -0.3044 -0.1764  0.4320
  135ACOH    H1 9962   3.945   6.277   3.922  1.5929  0.2913  2.4663
  135ACOH    H2 9963   4.079   6.154   3.923  1.1730 -0.6533 -1.5192
  135ACOH    H3 9964   3.972   6.159   3.788  1.0731 -1.2653  0.4739
  136ACOH    H4 9965   7.516   5.845   5.237 -1.1018 -1.3151 -0.0367
  136ACOH    O2 9966   7.459   5.892   5.174 -0.4212 -0.2317  0.1438
  136ACOH    C2 9967   7.407   5.997   5.245 -0.1968 -0.3257  0.3303
  136ACOH    O1 9968   7.462   6.051   5.338  0.6525 -0.2534  0.3076
  136ACOH    C1 9969   7.306   6.066   5.158  0.0465  0.2960 -0.2102
  136ACOH    H1 9970   7.325   6.043   5.053 -0.5268  1.4910 -0.5779
  136ACOH    H2 9971   7.317   6.173   5.174 -1.7629  0.3042  1.1301
  136ACOH    H3 9972   7.206   6.032   5.184 -0.5827  0.7399 -2.0045
  137ACOH    H4 9973   6.745   5.655   0.585 -0.0967  0.8783  0.6987
  137ACOH    O2 9974   6.824   5.612   0.623 -0.6429 -0.7392  0.0130
  137ACOH    C2 9975   6.778   5.506   0.690 -0.3948 -0.2560  0.0594
  137ACOH    O1 9976   6.674   5.443   0.683  0.2676  0.2680  0.0964
  137ACOH    C1 9977   6.895   5.446   0.747 -0.3363  0.0633 -0.7580
  137ACOH    H1 9978   6.882   5.399   0.844  1.2116  2.6769  0.7845
  137ACOH    H2 9979   6.977   5.518   0.758 -0.0249 -0.6705  2.3517
  137ACOH    H3 9980   6.931   5.369   0.679 -1.3793 -1.8451  0.8109
  140ACOH    H4 9981   6.253   1.641   3.006  0.5214 -1.4342 -0.5229
  140ACOH    O2 9982   6.333   1.674   3.049 -0.6155  0.5025  0.1718
  140ACOH    C2 9983   6.291   1.711   3.169 -0.4654  0.0017  0.0274
  140ACOH    O1 9984   6.176   1.738   3.201 -0.0018  0.3745 -0.1474
  140ACOH    C1 9985   6.408   1.722   3.260 -0.0320 -0.0380  0.2469
  140ACOH    H1 9986   6.491   1.656   3.236 -0.5248 -0.7799  0.5698
  140ACOH    H2 9987   6.369   1.687   3.355  0.5250 -0.7289  0.2212
  140ACOH    H3 9988   6.437   1.826   3.276  1.8829 -0.8046  1.9891
  141ACOH    H4 9989   7.848   9.359   0.969 -0.1022  0.7496 -1.4912
  141ACOH    O2 9990   7.756   9.326   0.970 -0.0459  0.6133 -0.1631
  141ACOH    C2 9991   7.681   9.429   0.930  0.1145 -0.2882  0.0782
  141ACOH    O1 9992   7.715   9.508   0.840  0.0589 -0.1431 -0.7769
  141ACOH    C1 9993   7.534   9.409   0.952 -0.5779 -0.2047 -0.4710
  141ACOH    H1 9994   7.501   9.310   0.919  1.1222 -0.8270 -0.3629
  141ACOH    H2 9995   7.477   9.479   0.891 -1.6526 -0.4908  0.2060
  141ACOH    H3 9996   7.523   9.419   1.059  0.8370  0.1749 -0.3495
  142ACOH    H4 9997   4.897   6.139   1.068  0.0915  0.5257  0.3916
  142ACOH    O2 9998   4.812   6.094   1.081  0.1251  0.2840 -0.1862
  142ACOH    C2 9999   4.774   6.145   1.198  0.2790 -0.8873 -0.5125
  142ACOH    O110000   4.829   6.230   1.260  0.7360  0.3729  0.3082
  142ACOH    C110001   4.637   6.109   1.226 -0.2064 -0.6602 -0.2460
  142ACOH    H110002   4.581   6.110   1.133  0.3531 -2.3538 -0.6220
  142ACOH    H210003   4.594   6.166   1.308  0.1834 -0.4879 -0.1633
  142ACOH    H310004   4.641   6.006   1.263  0.3992 -0.7913 -0.6682
  143ACOH    H410005   8.140   7.640   1.459 -2.0132 -0.6482  0.3814
  143ACOH    O210006   8.092   7.724   1.448 -0.3707  0.2955  0.2869
  143ACOH    C210007   8.121   7.763   1.324 -0.4721 -0.8540 -0.0075
  143ACOH    O110008   8.205   7.729   1.247  0.1196  0.3170 -0.4893
  143ACOH    C110009   8.017   7.857   1.280  0.3724 -0.0652  0.0264
  143ACOH    H110010   8.004   7.941   1.348  1.7750  0.1105  0.1057
  143ACOH    H210011   7.924   7.800   1.272 -1.0048  2.2678 -0.8051
  143ACOH    H310012   8.043   7.894   1.181 -1.9584  1.6257  0.0241
  144ACOH    H410013   6.276   1.351   0.337  0.1631 -1.8250  2.3816
  144ACOH    O210014   6.229   1.272   0.305 -0.7142 -0.2184 -0.4990
  144ACOH    C210015   6.251   1.253   0.173  1.0973  0.7106 -0.2511
  144ACOH    O110016   6.285   1.335   0.090  0.6213 -0.1115 -0.3055
  144ACOH    C110017   6.214   1.115   0.129 -0.9551 -0.3437  0.3455
  144ACOH    H110018   6.306   1.060   0.110  0.1096  1.3956  0.3769
  144ACOH    H210019   6.162   1.117   0.034 -1.9485  0.2922  0.8943
  144ACOH    H310020   6.155   1.063   0.204 -0.0386 -0.6625  0.8621
  145ACOH    H410021   4.360   6.790   1.060 -0.3536  1.0054 -0.3762
  145ACOH    O210022   4.320   6.825   0.979  0.2067  0.4132 -0.9116
  145ACOH    C210023   4.363   6.765   0.869 -0.4427  0.1594  0.2509
  145ACOH    O110024   4.437   6.668   0.864 -0.5731  0.5899 -0.5636
  145ACOH    C110025   4.291   6.810   0.746  0.1185 -0.4207 -0.3648
  145ACOH    H110026   4.201   6.751   0.730  0.9991 -1.8682 -0.0504
  145ACOH    H210027   4.356   6.802   0.659 -2.4052  1.9431 -2.5695
  145ACOH    H310028   4.257   6.913   0.756  2.4250  0.1908  1.6534
  146ACOH    H410029   9.606   8.199   4.286  0.5681  3.9649 -0.8018
  146ACOH    O210030   9.698   8.178   4.264  0.1590 -0.0702  0.8683
  146ACOH    C210031   9.746   8.075   4.339 -0.0181  0.2103 -0.4999
  146ACOH    O110032   9.671   8.002   4.405  0.0050  0.4403 -0.0641
  146ACOH    C110033   9.879   8.025   4.301  0.2883 -0.2541 -0.1038
  146ACOH    H110034   9.910   8.040   4.197 -0.4501 -1.8592 -0.5592
  146ACOH    H210035   9.882   7.917   4.314 -2.1157 -0.1035  2.1770
  146ACOH    H310036   9.963   8.063   4.359  1.1179  1.3145 -2.2411
  147ACOH    H410037   5.337   3.285   4.034 -3.0845  0.5096 -1.4284
  147ACOH    O210038   5.319   3.365   4.087 -0.1150 -0.1246  0.6780
  147ACOH    C210039   5.193   3.392   4.067  0.4975  0.1236 -0.3254
  147ACOH    O110040   5.117   3.323   4.000  0.2423 -0.1439  0.1300
  147ACOH    C110041   5.151   3.505   4.160  0.3883  0.2180 -0.4183
  147ACOH    H110042   5.084   3.575   4.110  0.0103  0.7901  0.8452
  147ACOH    H210043   5.242   3.560   4.181  0.2315  1.0905 -2.0215
  147ACOH    H310044   5.106   3.469   4.253 -0.4379  1.5351 -0.2993
  148ACOH    H410045   9.378   6.013   0.603  0.1866 -3.7191  0.7046
  148ACOH    O210046   9.289   5.994   0.568 -0.2597  0.0530 -0.3872
  148ACOH    C210047   9.258   5.867   0.595 -0.1562 -0.7934  0.4826
  148ACOH    O110048   9.321   5.797   0.675  0.2089  0.0195  0.1538
  148ACOH    C110049   9.118   5.848   0.566  0.5313 -0.0117 -0.3810
  148ACOH    H110050   9.068   5.902   0.647 -1.1158  1.2127 -2.1635
  148ACOH    H210051   9.079   5.747   0.556  1.3724 -0.2741 -0.9745
  148ACOH    H310052   9.102   5.903   0.473  0.2400  1.1853  0.3594
  151ACOH    H410053   4.673   2.549   5.506  0.7150  0.6796  0.1786
  151ACOH    O210054   4.642   2.628   5.554  0.3948  0.3487  0.5157
  151ACOH    C210055   4.732   2.729   5.557 -0.0973  0.7431  1.1822
  151ACOH    O110056   4.826   2.740   5.477  0.2216  0.6034 -0.0619
  151ACOH    C110057   4.675   2.818   5.660  0.3693 -0.4364  0.2693
  151ACOH    H110058   4.597   2.871   5.605 -0.9342 -2.5304  0.0601
  151ACOH    H210059   4.759   2.885   5.678 -0.1378  0.0116  1.0014
  151ACOH    H310060   4.625   2.772   5.745  1.2140  0.2101  1.1247
  152ACOH    H410061   9.913   2.894   4.776 -0.4325 -1.8576  0.2560
  152ACOH    O210062   9.817   2.908   4.770 -0.0459  1.0763  0.4382
  152ACOH    C210063   9.777   3.024   4.711 -0.3455  0.4020  0.8462
  152ACOH    O110064   9.671   3.030   4.658  0.3896  0.3392 -0.0674
  152ACOH    C110065   9.865   3.138   4.717  0.2106 -0.4501  0.1000
  152ACOH    H110066   9.956   3.122   4.774 -0.3604 -0.7814  0.9395
  152ACOH    H210067   9.814   3.215   4.774  0.6692  0.4530 -0.6979
  152ACOH    H310068   9.890   3.170   4.616  0.7649 -0.6496  0.1723
  154ACOH    H410069   2.164   6.396   5.373 -0.3629  1.0294  1.1538
  154ACOH    O210070   2.244   6.451   5.364  0.2091 -0.0571 -0.6151
  154ACOH    C210071   2.310   6.465   5.475  0.1872 -0.1033 -0.2017
  154ACOH    O110072   2.262   6.431   5.584  0.4127  0.0036 -0.9871
  154ACOH    C110073   2.437   6.539   5.476 -0.6663  0.1850  0.3264
  154ACOH    H110074   2.487   6.548   5.380 -0.8859  2.7628  0.4075
  154ACOH    H210075   2.502   6.471   5.531  1.7449  1.1777 -1.2316
  154ACOH    H310076   2.432   6.641   5.516  1.6670  0.0345  1.0698
  155ACOH    H410077   6.380   2.088   4.924  0.6017  0.1820 -0.1953
  155ACOH    O210078   6.399   2.178   4.957  0.2833  0.1815 -0.0090
  155ACOH    C210079   6.449   2.258   4.863 -0.3994  1.0475 -0.4773
  155ACOH    O110080   6.402   2.266   4.756  0.1131 -0.2123 -0.6506
  155ACOH    C110081   6.516   2.377   4.923 -0.3492 -0.0865  0.0268
  155ACOH    H110082   6.480   2.475   4.893 -0.4317  1.1678  3.9361
  155ACOH    H210083   6.621   2.380   4.893 -0.2538  1.3892  0.4722
  155ACOH    H310084   6.519   2.374   5.032 -2.2473 -4.1804  0.0789
  157ACOH    H410085   7.118   3.525   1.417 -0.1791  0.2189  0.3683
  157ACOH    O210086   7.154   3.439   1.444 -0.6983 -0.0533  0.2028
  157ACOH    C210087   7.252   3.459   1.531  0.7500  0.5524 -0.4573
  157ACOH    O110088   7.317   3.559   1.542 -0.1557 -0.5512 -0.0326
  157ACOH    C110089   7.284   3.337   1.620 -0.0045  0.2403  0.3927
  157ACOH    H110090   7.393   3.330   1.622  0.0220  0.4473 -0.0705
  157ACOH    H210091   7.248   3.242   1.582  1.6895 -0.5858  0.8388
  157ACOH    H310092   7.243   3.355   1.719 -1.4648 -0.4964 -0.0593
  158ACOH    H410093   7.894   1.596   2.238  0.8830  0.6491 -1.8822
  158ACOH    O210094   7.867   1.504   2.223 -0.0452  0.5234  0.3227
  158ACOH    C210095   7.970   1.443   2.165  0.0018 -0.5658 -0.7007
  158ACOH    O110096   8.063   1.502   2.114 -0.1825 -0.3649 -0.1907
  158ACOH    C110097   7.951   1.296   2.160  0.0482  0.9332 -0.5529
  158ACOH    H110098   7.850   1.267   2.133 -0.9066  2.1718  1.5907
  158ACOH    H210099   7.992   1.252   2.251 -0.3010  3.3187  0.7972
  158ACOH    H310100   8.015   1.265   2.078  1.3731  0.2176  0.7153
  162ACOH    H410101   6.450   0.467   5.019 -0.1682 -0.0311 -0.2252
  162ACOH    O210102   6.432   0.541   4.958 -0.3813  0.1259  0.0269
  162ACOH    C210103   6.297   0.547   4.942 -0.0876  0.2550 -0.6788
  162ACOH    O110104   6.206   0.497   5.001  0.3048 -0.2323 -0.4780
  162ACOH    C110105   6.269   0.667   4.860 -0.5522  0.3531 -0.0871
  162ACOH    H110106   6.319   0.750   4.909  0.6577 -0.2465 -0.2905
  162ACOH    H210107   6.165   0.700   4.857 -0.2746  1.3332  0.9281
  162ACOH    H310108   6.316   0.670   4.762 -0.8679 -2.0597 -0.3350
  164ACOH    H410109   1.402   6.106   3.037  0.4612 -1.3609  1.9775
  164ACOH    O210110   1.493   6.132   3.014 -0.6204  0.2491 -0.6430
  164ACOH    C210111   1.545   6.030   2.949 -0.3591  0.1219 -0.1102
  164ACOH    O110112   1.486   5.928   2.918  0.8245 -0.0989  0.2433
  164ACOH    C110113   1.688   6.047   2.922 -1.1684  0.0250 -0.1952
  164ACOH    H110114   1.738   6.078   3.014 -1.9931 -1.4474  0.7685
  164ACOH    H210115   1.696   6.130   2.852 -1.0274  1.3786  1.3878
  164ACOH    H310116   1.735   5.954   2.891 -1.8979  0.5946 -3.1994
  165ACOH    H410117   8.979   0.635   1.357 -1.6953  0.7566 -1.8912
  165ACOH    O210118   8.902   0.627   1.415 -0.2990  0.3975 -0.0228
  165ACOH    C210119   8.784   0.618   1.356  0.0549  0.0998 -0.9093
  165ACOH    O110120   8.767   0.611   1.234 -0.2009 -0.6358  0.3971
  165ACOH    C110121   8.676   0.603   1.451 -0.0679  0.6578  0.0611
  165ACOH    H110122   8.590   0.579   1.389 -0.6631  0.6875  0.8778
  165ACOH    H210123   8.646   0.694   1.502  1.8960  1.2537  0.2133
  165ACOH    H310124   8.696   0.521   1.521 -0.1158  2.2901  2.0419
  166ACOH    H410125   4.867   3.947   1.673  0.7966 -2.5189  0.4529
  166ACOH    O210126   4.856   3.969   1.767  0.2491  0.4962 -0.2713
  166ACOH    C210127   4.969   4.037   1.795 -0.1265 -0.4216  0.1713
  166ACOH    O110128   5.067   4.055   1.722  0.2350  0.3778 -0.3163
  166ACOH    C110129   4.978   4.088   1.935  0.1176 -0.2587 -0.0861
  166ACOH    H110130   4.894   4.150   1.966  1.4921  0.2004  2.9215
  166ACOH    H210131   5.077   4.129   1.949  1.2296 -2.7370 -0.3403
  166ACOH    H310132   4.985   4.007   2.009  1.0032 -0.0924  0.0181
  167ACOH    H410133   6.234   2.806   3.926  1.2830 -4.2067  1.4102
  167ACOH    O210134   6.328   2.831   3.935  0.3223  0.4079 -0.2156
  167ACOH    C210135   6.371   2.857   3.813 -0.1327 -0.5747  0.0999
  167ACOH    O110136   6.307   2.890   3.715  0.0204 -0.4885  0.5992
  167ACOH    C110137   6.521   2.866   3.824  0.0286 -0.1633  0.5928
  167ACOH    H110138   6.559   2.915   3.734  0.8479 -1.9743 -0.0643
  167ACOH    H210139   6.569   2.768   3.824 -0.5382 -0.4503 -0.0472
  167ACOH    H310140   6.537   2.915   3.919 -0.3420  1.7336 -0.3033
  169ACOH    H410141   5.558   5.020   4.538  0.5387 -0.5637  0.1498
  169ACOH    O210142   5.632   5.076   4.566  0.4609 -0.2146 -0.3364
  169ACOH    C210143   5.580   5.179   4.639  0.9849 -0.3709  0.1874
  169ACOH    O110144   5.457   5.194   4.657 -0.2005  0.4291  0.0557
  169ACOH    C110145   5.681   5.279   4.674  0.1667  0.0572 -0.3277
  169ACOH    H110146   5.657   5.383   4.649 -0.7343 -0.0557  0.0801
  169ACOH    H210147   5.778   5.245   4.638  0.5665 -2.4686  2.9387
  169ACOH    H310148   5.697   5.274   4.782 -2.1180  0.4042  0.0519
  170ACOH    H410149   5.228   5.621   2.599 -0.1580  1.0596 -0.5715
  170ACOH    O210150   5.308   5.635   2.653 -0.6305  0.5134  0.2943
  170ACOH    C210151   5.325   5.546   2.754 -0.1308 -0.4864  0.0013
  170ACOH    O110152   5.227   5.492   2.805  0.4275 -0.5983  0.4338
  170ACOH    C110153   5.463   5.540   2.808  0.0199 -0.5418  0.5698
  170ACOH    H110154   5.493   5.630   2.863 -0.7105  0.4106 -0.5544
  170ACOH    H210155   5.523   5.545   2.717 -2.4132  0.0721 -1.0457
  170ACOH    H310156   5.486   5.446   2.858  3.4075  0.5488  1.2179
  171ACOH    H410157   6.726   3.548   1.024 -0.0578  0.2318 -3.0286
  171ACOH    O210158   6.656   3.481   1.020 -0.7798  0.6296  0.6301
  171ACOH    C210159   6.644   3.453   0.892  0.0369  0.0782  0.4594
  171ACOH    O110160   6.710   3.488   0.792  0.1283  0.6354 -0.3756
  171ACOH    C110161   6.527   3.367   0.870 -0.6001  0.9809 -0.5401
  171ACOH    H110162   6.487   3.334   0.966  0.7491  1.9280  0.3811
  171ACOH    H210163   6.558   3.276   0.820 -1.8741  1.0207 -1.4201
  171ACOH    H310164   6.448   3.419   0.816 -1.2439 -0.3368 -0.8696
  172ACOH    H410165   7.024   3.623   1.788 -2.6144  1.9943 -0.2447
  172ACOH    O210166   6.996   3.591   1.701  0.0654 -0.1021 -0.3890
  172ACOH    C210167   6.878   3.646   1.683  0.0554 -0.0663 -0.6024
  172ACOH    O110168   6.818   3.726   1.747 -0.1353  0.2503  0.0575
  172ACOH    C110169   6.825   3.607   1.550 -0.2320 -0.8411 -0.4762
  172ACOH    H110170   6.810   3.699   1.494 -1.2415 -1.6464 -1.5487
  172ACOH    H210171   6.731   3.554   1.563 -1.0500  1.0270  1.4713
  172ACOH    H310172   6.902   3.540   1.512 -0.1256 -1.6073  1.0728
  173ACOH    H410173   8.883   3.722   5.531 -0.7577 -0.5111 -0.4478
  173ACOH    O210174   8.920   3.696   5.446  0.3256  0.3506 -0.2511
  173ACOH    C210175   8.965   3.801   5.381 -0.0222  0.3409  0.1237
  173ACOH    O110176   8.931   3.916   5.395 -0.1231  0.1152  0.5467
  173ACOH    C110177   9.030   3.754   5.252  0.6315 -0.8404 -0.3191
  173ACOH    H110178   9.004   3.650   5.232  1.0913 -1.0510  0.1487
  173ACOH    H210179   9.138   3.745   5.267  0.7660 -1.0443 -1.3739
  173ACOH    H310180   9.000   3.813   5.166 -0.9708 -0.3014  0.5850
  174ACOH    H410181   6.342   2.299   3.230  0.0472  1.1024  1.0327
  174ACOH    O210182   6.332   2.244   3.310 -0.1020  0.1753  0.3839
  174ACOH    C210183   6.300   2.117   3.282 -0.2275 -0.1207 -0.2506
  174ACOH    O110184   6.263   2.068   3.175 -0.4741 -0.3198  0.4530
  174ACOH    C110185   6.248   2.059   3.406  0.2993 -0.2811 -0.3510
  174ACOH    H110186   6.340   2.040   3.463  1.2817  1.3396 -1.3646
  174ACOH    H210187   6.196   1.964   3.392  1.5628 -1.4608  2.4178
  174ACOH    H310188   6.182   2.128   3.458  1.2386  1.8187 -1.8754
  175ACOH    H410189   6.145   0.783   0.304 -1.6623  0.3051 -1.4704
  175ACOH    O210190   6.203   0.737   0.241  0.1255 -0.0845  0.3712
  175ACOH    C210191   6.206   0.611   0.289  0.9519  0.5256  0.1771
  175ACOH    O110192   6.171   0.569   0.399  0.2969  0.2424 -0.3776
  175ACOH    C110193   6.251   0.518   0.182  0.0976  0.3575 -0.8053
  175ACOH    H110194   6.167   0.450   0.166  1.2441 -1.9690  2.6801
  175ACOH    H210195   6.337   0.462   0.219 -1.4307 -1.6821 -0.2224
  175ACOH    H310196   6.280   0.568   0.089  1.6963 -1.3436 -1.2523
  176ACOH    H410197   7.490   4.748   5.573  0.6387  2.3009 -1.6196
  176ACOH    O210198   7.478   4.710   5.484 -0.1325 -0.4424 -0.4110
  176ACOH    C210199   7.405   4.599   5.515 -0.1346 -0.1351 -0.2725
  176ACOH    O110200   7.422   4.539   5.619  0.0713  0.1765 -0.2617
  176ACOH    C110201   7.359   4.523   5.396  0.1886  0.3084 -0.2228
  176ACOH    H110202   7.421   4.547   5.310  1.3153 -0.7834  0.2701
  176ACOH    H210203   7.250   4.533   5.390  0.1198  0.3902  1.1065
  176ACOH    H310204   7.380   4.418   5.418  3.8552  1.1066  0.3741
  177ACOH    H410205   0.264   1.296   3.831  0.0120  0.3527  0.4886
  177ACOH    O210206   0.352   1.317   3.865  0.3369  0.0841 -0.1744
  177ACOH    C210207   0.392   1.212   3.945  0.2274  0.0680 -0.3719
  177ACOH    O110208   0.314   1.155   4.021  0.4042 -0.0267  0.3270
  177ACOH    C110209   0.537   1.217   3.984 -0.0501  0.1556  0.5019
  177ACOH    H110210   0.542   1.283   4.071  1.4163  2.0886 -1.0247
  177ACOH    H210211   0.590   1.268   3.904  0.7127  0.2263  1.0501
  177ACOH    H310212   0.583   1.118   3.995 -1.7865 -0.8252 -0.8274
  178ACOH    H410213   7.679   4.549   5.035 -0.4325  2.1191 -1.3736
  178ACOH    O210214   7.612   4.509   4.978  0.3118 -0.6211 -0.4019
  178ACOH    C210215   7.647   4.526   4.848  0.2048 -0.6642 -0.0745
  178ACOH    O110216   7.752   4.580   4.807 -0.0934  0.1776 -0.3157
  178ACOH    C110217   7.561   4.444   4.763  0.1340 -0.5052 -0.1442
  178ACOH    H110218   7.587   4.453   4.657  0.4719  1.2160  0.0792
  178ACOH    H210219   7.463   4.485   4.787  0.5688 -0.7737  2.2256
  178ACOH    H310220   7.569   4.343   4.803  1.4874 -0.8462 -1.2372
  179ACOH    H410221   6.628   9.368   3.443 -0.1592 -0.9297 -0.2763
  179ACOH    O210222   6.568   9.348   3.516  0.5131 -0.4375  0.4145
  179ACOH    C210223   6.532   9.476   3.559 -0.2650 -0.5582  0.1780
  179ACOH    O110224   6.577   9.578   3.515 -0.0814 -0.9710  0.0091
  179ACOH    C110225   6.426   9.486   3.669 -0.6714  0.0820 -0.4569
  179ACOH    H110226   6.325   9.486   3.627 -1.4908  3.6013  1.3173
  179ACOH    H210227   6.442   9.585   3.711  2.3642 -0.7548  0.4766
  179ACOH    H310228   6.424   9.407   3.743  2.4900 -1.5625 -2.0258
  180ACOH    H410229   5.963   9.334   1.271 -0.1190  1.1719 -0.6737
  180ACOH    O210230   6.055   9.302   1.263 -0.2973  0.5261 -0.0805
  180ACOH    C210231   6.045   9.168   1.236  0.2776 -0.3073  0.4988
  180ACOH    O110232   5.942   9.112   1.201 -0.2788  0.0627 -0.7138
  180ACOH    C110233   6.181   9.099   1.245  0.1180  0.3938  0.4305
  180ACOH    H110234   6.178   8.991   1.255  1.3588  0.3042 -0.1123
  180ACOH    H210235   6.240   9.138   1.328  2.2705 -0.5341 -0.6261
  180ACOH    H310236   6.238   9.131   1.158 -1.0949  1.9176  0.1501
  181ACOH    H410237   4.702   7.615   4.863  0.5173 -0.6235  0.4631
  181ACOH    O210238   4.622   7.561   4.858  0.1783 -0.1193  0.4627
  181ACOH    C210239   4.578   7.569   4.728  0.5810  0.6726 -0.8537
  181ACOH    O110240   4.635   7.618   4.631 -0.4585 -0.6854  0.3212
  181ACOH    C110241   4.451   7.497   4.713  0.4041  0.2721  1.4420
  181ACOH    H110242   4.418   7.452   4.807 -3.8522  0.0112 -0.0675
  181ACOH    H210243   4.450   7.423   4.633 -0.2594  0.3582  1.3699
  181ACOH    H310244   4.374   7.568   4.685 -1.0266 -0.9603  2.1500
  183ACOH    H410245   7.085   2.833   2.243  0.2762 -1.7247  0.1523
  183ACOH    O210246   7.019   2.834   2.172 -0.4406  0.3298  0.8238
  183ACOH    C210247   6.957   2.715   2.166  0.0785 -0.2471 -0.5977
  183ACOH    O110248   6.944   2.638   2.258  0.1054  0.2228 -0.1115
  183ACOH    C110249   6.880   2.711   2.046  0.3548 -0.1273  0.0309
  183ACOH    H110250   6.774   2.718   2.069  0.1276  2.9603 -1.6830
  183ACOH    H210251   6.903   2.624   1.985 -1.2271  1.0660 -2.3483
  183ACOH    H310252   6.895   2.795   1.977 -0.2808  0.5080  0.6582
  184ACOH    H410253   5.962   2.359   4.749 -0.0959  0.1729 -1.1438
  184ACOH    O210254   5.899   2.433   4.753 -0.0772  0.1327  0.2235
  184ACOH    C210255   5.789   2.389   4.684  0.1950 -0.2992 -0.0370
  184ACOH    O110256   5.775   2.291   4.612 -0.1280 -0.0407 -0.0748
  184ACOH    C110257   5.677   2.482   4.719 -0.2959  0.1485 -0.4981
  184ACOH    H110258   5.581   2.461   4.671 -1.7678 -1.4211  2.9339
  184ACOH    H210259   5.697   2.588   4.700 -3.3751  0.9670  0.5446
  184ACOH    H310260   5.661   2.463   4.825  0.6340  1.9393 -0.0009
  185ACOH    H410261   5.014   1.598   3.399 -0.2561  0.3912 -0.4527
  185ACOH    O210262   4.954   1.521   3.394 -0.0811  0.2266 -0.0066
  185ACOH    C210263   4.996   1.418   3.475 -0.1732  0.1635 -0.6694
  185ACOH    O110264   5.082   1.429   3.564  0.2224  0.2815  0.0221
  185ACOH    C110265   4.911   1.302   3.470  0.6225  0.6075  0.3271
  185ACOH    H110266   4.839   1.296   3.552  0.3246  1.3081  0.1268
  185ACOH    H210267   4.974   1.214   3.470 -0.7021 -0.3664 -0.1823
  185ACOH    H310268   4.851   1.297   3.379  0.3618 -1.5858  0.5864
  186ACOH    H410269   9.060   1.525   4.105 -0.9304 -0.3524 -0.9656
  186ACOH    O210270   9.063   1.602   4.046  0.4075  0.0606 -0.3701
  186ACOH    C210271   9.196   1.617   4.025  0.5366 -0.1022 -0.0340
  186ACOH    O110272   9.277   1.531   3.998  0.1410  0.5352  0.1179
  186ACOH    C110273   9.228   1.757   3.998  0.6428 -0.5430  0.7671
  186ACOH    H110274   9.287   1.795   4.082  2.2514  0.3694 -0.7396
  186ACOH    H210275   9.140   1.820   3.984  2.5214  1.9485 -0.2192
  186ACOH    H310276   9.296   1.776   3.915  1.5145  1.1891  1.8383
  187ACOH    H410277   0.485   1.564   5.336  1.4064 -1.0639  3.0788
  187ACOH    O210278   0.397   1.548   5.372 -0.0013  0.3496  0.3777
  187ACOH    C210279   0.411   1.432   5.442 -0.2805 -0.2571 -0.5869
  187ACOH    O110280   0.507   1.396   5.506  0.0218  0.1485  0.2255
  187ACOH    C110281   0.286   1.360   5.472  0.2257  0.5632 -0.3709
  187ACOH    H110282   0.268   1.371   5.579  1.3335  2.0532 -0.3170
  187ACOH    H210283   0.312   1.255   5.455  0.5051  0.8102 -1.4899
  187ACOH    H310284   0.195   1.385   5.418 -0.8617 -0.9686  0.7138
  188ACOH    H410285   4.815   3.294   2.495 -0.9874  0.1023  0.0392
  188ACOH    O210286   4.751   3.236   2.452 -0.1891 -0.5455 -0.2912
  188ACOH    C210287   4.715   3.145   2.540  0.4102  0.1222 -0.3695
  188ACOH    O110288   4.756   3.133   2.653  0.6692 -0.2367 -0.1129
  188ACOH    C110289   4.602   3.060   2.492 -0.0862  0.1583  0.8283
  188ACOH    H110290   4.625   2.962   2.534  3.2400  0.2495 -0.6622
  188ACOH    H210291   4.604   3.050   2.384  0.8041  0.0635  0.8496
  188ACOH    H310292   4.500   3.088   2.518  0.4033  1.4669  1.3739
  189ACOH    H410293   5.792   7.150   2.251  0.5338  0.4202  0.2569
  189ACOH    O210294   5.787   7.179   2.159  0.5928  0.3228  0.2236
  189ACOH    C210295   5.817   7.312   2.159 -0.1542  0.5425  0.9126
  189ACOH    O110296   5.860   7.378   2.253  0.0878 -0.7262 -0.9033
  189ACOH    C110297   5.799   7.371   2.023  0.8049 -0.1912  0.2014
  189ACOH    H110298   5.868   7.455   2.020  0.6191 -0.0705 -0.6223
  189ACOH    H210299   5.695   7.396   2.002  0.7121 -1.2211 -0.6160
  189ACOH    H310300   5.829   7.294   1.953  0.6688  0.5323 -0.6547
  190ACOH    H410301   8.452   7.791   1.428 -1.6827 -1.5445 -0.9757
  190ACOH    O210302   8.439   7.743   1.511 -0.3878 -0.0230  0.1434
  190ACOH    C210303   8.517   7.813   1.600 -0.0516  0.2566 -0.5625
  190ACOH    O110304   8.567   7.922   1.580 -0.1986  0.2929 -0.8279
  190ACOH    C110305   8.504   7.762   1.744 -0.0120  0.1736 -0.2998
  190ACOH    H110306   8.595   7.778   1.802  1.5277 -1.3922 -2.1848
  190ACOH    H210307   8.470   7.658   1.751 -0.9404  0.5235  0.5737
  190ACOH    H310308   8.421   7.825   1.776 -0.7325 -0.6215 -0.5680
  191ACOH    H410309   0.230   4.357   4.150 -0.7202 -1.1465  0.4252
  191ACOH    O210310   0.323   4.369   4.178 -0.7919 -0.3434  0.3136
  191ACOH    C210311   0.390   4.255   4.187 -0.3225  0.1772  0.2933
  191ACOH    O110312   0.342   4.149   4.194  0.6068  0.2770 -0.2549
  191ACOH    C110313   0.527   4.286   4.210 -0.2579  0.3041  0.0663
  191ACOH    H110314   0.582   4.201   4.251  0.4328  0.7998  0.1766
  191ACOH    H210315   0.533   4.374   4.274 -1.1357  0.8011 -0.5213
  191ACOH    H310316   0.571   4.304   4.112 -1.4475  2.0980 -0.1549
  193ACOH    H410317   5.233   3.655   1.326 -0.2386  0.5127 -1.0885
  193ACOH    O210318   5.318   3.621   1.292  0.2557  0.4747  0.1773
  193ACOH    C210319   5.291   3.583   1.164 -0.6667  0.3600 -0.1131
  193ACOH    O110320   5.185   3.577   1.101 -0.2867 -0.0927  0.4972
  193ACOH    C110321   5.413   3.518   1.116  0.5182  0.7273  0.0369
  193ACOH    H110322   5.395   3.479   1.016  0.2009  0.7954  0.0672
  193ACOH    H210323   5.426   3.430   1.179 -1.8565 -1.4507 -2.4013
  193ACOH    H310324   5.498   3.585   1.110  1.1824 -0.2646 -2.2158
  194ACOH    H410325   0.171   9.624   0.807 -0.1661 -0.2232 -0.7378
  194ACOH    O210326   0.148   9.701   0.752 -0.2471  0.1725 -0.1563
  194ACOH    C210327   0.267   9.752   0.705  0.3683  0.2423  0.5901
  194ACOH    O110328   0.379   9.702   0.718 -0.3322  0.3815 -0.1368
  194ACOH    C110329   0.245   9.886   0.648  0.0115 -0.6973 -0.9874
  194ACOH    H110330   0.162   9.884   0.577  1.0309 -0.8385 -2.1794
  194ACOH    H210331   0.337   9.919   0.600  0.6157  1.6402  1.6741
  194ACOH    H310332   0.233   9.955   0.731  1.8479 -1.2587 -0.2317
  195ACOH    H410333   5.149   5.258   2.017 -1.9910 -1.4512  0.5890
  195ACOH    O210334   5.130   5.313   2.094 -0.2469 -0.1099  0.1105
  195ACOH    C210335   5.045   5.240   2.167 -0.2324  0.5916 -0.3603
  195ACOH    O110336   5.010   5.121   2.146 -0.7856  0.1337  0.5401
  195ACOH    C110337   5.035   5.298   2.307  0.4078  0.0236  0.1083
  195ACOH    H110338   5.095   5.247   2.382 -0.4126 -0.1449  0.6663
  195ACOH    H210339   4.930   5.302   2.338  0.1833 -1.3867 -0.4243
  195ACOH    H310340   5.070   5.401   2.309 -1.2697  0.6503 -1.4023
  196ACOH    H410341   8.075   8.657   1.592 -0.6790 -1.5550  0.5553
  196ACOH    O210342   8.011   8.668   1.520 -0.2743 -0.2651  0.3823
  196ACOH    C210343   8.075   8.699   1.410  0.0973  0.2172  0.0244
  196ACOH    O110344   8.185   8.746   1.394  0.0898 -0.1768  0.3064
  196ACOH    C110345   7.989   8.701   1.291  0.3646  0.4027  0.1128
  196ACOH    H110346   7.888   8.735   1.311 -0.4228 -0.5688 -2.0861
  196ACOH    H210347   7.998   8.604   1.243  0.4961  0.8848 -0.8542
  196ACOH    H310348   8.020   8.771   1.214  0.8464 -1.6736 -1.6186
  197ACOH    H410349   8.112   1.476   3.911  0.4908  4.7993  0.4476
  197ACOH    O210350   8.055   1.468   3.989  0.3122  0.2312 -0.0390
  197ACOH    C210351   8.076   1.350   4.050 -0.5173 -0.4824  0.9350
  197ACOH    O110352   8.180   1.291   4.034  0.2224  0.3417 -0.5134
  197ACOH    C110353   7.960   1.313   4.128  1.1826  0.2068 -0.0557
  197ACOH    H110354   7.880   1.280   4.062 -0.0952  1.3754  0.8758
  197ACOH    H210355   7.932   1.405   4.180 -0.0194  0.6406 -1.4639
  197ACOH    H310356   7.969   1.231   4.200  0.0113 -0.2746 -0.4429
  198ACOH    H410357   7.124   3.191   2.512 -0.2923 -1.3760  2.0232
  198ACOH    O210358   7.029   3.195   2.489  0.2840  0.3747 -0.2519
  198ACOH    C210359   6.963   3.231   2.599  0.2380 -0.6934  0.1771
  198ACOH    O110360   7.008   3.242   2.712  0.4646  0.2130 -0.3604
  198ACOH    C110361   6.818   3.250   2.570 -0.3700 -0.7422  0.3314
  198ACOH    H110362   6.769   3.153   2.568  1.7594 -1.8888  1.4424
  198ACOH    H210363   6.812   3.287   2.468 -0.1709 -1.0663  0.1989
  198ACOH    H310364   6.783   3.319   2.647  0.3673  1.5728 -1.3517
  199ACOH    H410365   6.026   5.265   1.574  0.0825  0.2510  0.8133
  199ACOH    O210366   6.087   5.341   1.574  0.1786  0.1741  0.0524
  199ACOH    C210367   6.191   5.297   1.638  0.3437 -0.0073 -0.4759
  199ACOH    O110368   6.216   5.188   1.686  0.1506  0.0148  0.0186
  199ACOH    C110369   6.295   5.399   1.629  0.0746  0.6438 -0.5133
  199ACOH    H110370   6.380   5.348   1.584 -0.2181 -0.6970  0.4378
  199ACOH    H210371   6.309   5.443   1.727  0.4459 -0.5771 -0.0105
  199ACOH    H310372   6.274   5.482   1.561  0.2942  1.5073  0.4590
  200ACOH    H410373   1.166   0.617   4.402  0.8419 -0.7726  0.2686
  200ACOH    O210374   1.159   0.704   4.360  0.5022 -0.5020  0.8799
  200ACOH    C210375   1.153   0.682   4.224  0.4869  0.1051  0.0136
  200ACOH    O110376   1.103   0.586   4.168 -0.0267 -0.2739 -0.5204
  200ACOH    C110377   1.162   0.812   4.158  0.3681  0.5732 -0.5573
  200ACOH    H110378   1.267   0.824   4.131  0.2474  0.8670 -0.9049
  200ACOH    H210379   1.131   0.894   4.224 -1.8507 -2.3210  2.1486
  200ACOH    H310380   1.094   0.816   4.073  0.0508  0.2688 -0.3233
  201ACOH    H410381   4.636   5.319   3.617  1.1803 -0.3818  1.1297
  201ACOH    O210382   4.594   5.396   3.659  0.3285 -0.0234 -0.3721
  201ACOH    C210383   4.700   5.461   3.710 -0.6348  0.5690  0.0421
  201ACOH    O110384   4.815   5.440   3.681 -0.6544  0.5220 -0.2689
  201ACOH    C110385   4.645   5.594   3.752 -0.0658 -0.0476 -0.0560
  201ACOH    H110386   4.626   5.654   3.663  0.5630  0.5464  0.2068
  201ACOH    H210387   4.714   5.641   3.822  0.6898 -0.9927 -0.1433
  201ACOH    H310388   4.548   5.580   3.798 -0.0866 -1.8997 -0.6201
  202ACOH    H410389   7.021   2.686   1.212  0.7436 -2.0087  0.3859
  202ACOH    O210390   6.967   2.661   1.135  0.1336  0.2874  0.0286
  202ACOH    C210391   6.899   2.775   1.096  0.3341  0.7694  0.0104
  202ACOH    O110392   6.905   2.879   1.153 -0.4765 -0.0772 -0.4685
  202ACOH    C110393   6.814   2.762   0.978 -0.3057  0.3181 -1.1384
  202ACOH    H110394   6.864   2.697   0.906 -1.0007 -1.1719 -0.3021
  202ACOH    H210395   6.789   2.855   0.927 -1.3640  1.3697  1.2607
  202ACOH    H310396   6.723   2.706   1.001 -0.4273  1.2205  0.6011
  203ACOH    H410397   5.137   2.662   2.417 -0.4134  1.3329  1.9197
  203ACOH    O210398   5.198   2.714   2.362 -0.5761 -0.7611 -0.3371
  203ACOH    C210399   5.321   2.670   2.351 -0.0150  0.1656  0.1995
  203ACOH    O110400   5.360   2.569   2.408  0.6075 -0.5889  0.2051
  203ACOH    C110401   5.408   2.739   2.257 -0.5811 -0.1666  0.6216
  203ACOH    H110402   5.507   2.758   2.298  0.2190 -0.5982 -1.0509
  203ACOH    H210403   5.372   2.838   2.227 -0.6598 -1.0753 -2.5177
  203ACOH    H310404   5.426   2.670   2.174 -0.1444  0.3934  0.2455
  204ACOH    H410405   4.402   6.157   3.410  0.1796 -0.7856 -2.3479
  204ACOH    O210406   4.453   6.236   3.386  0.2548 -0.1648 -0.2491
  204ACOH    C210407   4.495   6.215   3.260  0.7161  0.4911  0.5073
  204ACOH    O110408   4.509   6.105   3.209  0.7947  0.5558 -0.6457
  204ACOH    C110409   4.561   6.335   3.209 -0.7440 -0.1597 -0.5169
  204ACOH    H110410   4.664   6.303   3.195 -0.5954  1.0389 -2.4221
  204ACOH    H210411   4.548   6.418   3.278  0.7349  0.5244 -1.0383
  204ACOH    H310412   4.516   6.351   3.111 -1.2079 -0.8105 -0.4157
  206ACOH    H410413   8.442   8.382   0.311 -1.7456 -2.1158 -0.8849
  206ACOH    O210414   8.361   8.434   0.324  0.0002  0.5553 -0.2823
  206ACOH    C210415   8.263   8.358   0.381 -0.4273 -0.3453  0.4624
  206ACOH    O110416   8.267   8.245   0.422 -0.5649 -0.7396 -0.1172
  206ACOH    C110417   8.139   8.444   0.393  0.2997 -0.0288  0.2838
  206ACOH    H110418   8.158   8.522   0.466 -0.0679  0.4137 -0.0972
  206ACOH    H210419   8.059   8.381   0.433 -0.0183 -0.2771 -0.7343
  206ACOH    H310420   8.114   8.496   0.301  1.3343  0.0714  0.0460
  208ACOH    H410421   3.427   5.956   4.399 -1.0677  3.9482 -0.3300
  208ACOH    O210422   3.489   5.952   4.324 -0.1957  0.0668  0.4962
  208ACOH    C210423   3.558   6.074   4.319  0.4635  0.2061 -0.2984
  208ACOH    O110424   3.505   6.177   4.356  0.1495  0.7066 -0.2099
  208ACOH    C110425   3.662   6.068   4.213  0.2051  0.4374  0.0379
  208ACOH    H110426   3.739   5.995   4.240 -0.9159 -0.5349  0.6287
  208ACOH    H210427   3.717   6.160   4.195 -0.4140  0.4818 -1.7798
  208ACOH    H310428   3.612   6.042   4.119  0.9888  0.7384 -0.4664
  209ACOH    H410429   7.467   1.150   1.920  0.5775 -0.7237  0.6594
  209ACOH    O210430   7.536   1.195   1.868 -0.3276 -0.0049  0.0482
  209ACOH    C210431   7.649   1.162   1.930 -0.5307 -0.5368 -0.4394
  209ACOH    O110432   7.651   1.107   2.040 -0.1041  0.8188  0.6032
  209ACOH    C110433   7.761   1.233   1.862 -0.1997  0.1658 -0.4654
  209ACOH    H110434   7.753   1.340   1.882 -0.9663 -0.0189  0.2332
  209ACOH    H210435   7.767   1.206   1.756 -2.2111 -1.3865 -0.2294
  209ACOH    H310436   7.852   1.199   1.911 -1.4952 -0.7221  1.4222
  210ACOH    H410437   2.290   6.950   0.333  0.3023  0.1117  0.4726
  210ACOH    O210438   2.347   6.962   0.411  0.2525 -0.1774  0.5518
  210ACOH    C210439   2.471   6.975   0.365 -0.0502 -0.7717 -0.4350
  210ACOH    O110440   2.510   6.940   0.254  0.4544 -0.4932  0.0476
  210ACOH    C110441   2.555   7.013   0.481  0.1021 -0.7256  0.1451
  210ACOH    H110442   2.502   6.979   0.570 -1.9775  1.3042 -0.2732
  210ACOH    H210443   2.560   7.121   0.491 -0.1566 -0.6144 -0.8932
  210ACOH    H310444   2.652   6.965   0.468 -0.2226 -1.2928 -0.2080
  211ACOH    H410445   5.831   6.567   1.962  3.0178 -0.5982  0.4296
  211ACOH    O210446   5.857   6.549   1.870  0.6862 -0.1639 -0.3462
  211ACOH    C210447   5.747   6.517   1.799 -0.2550  0.9636  0.5826
  211ACOH    O110448   5.631   6.520   1.843 -0.1301 -0.2619 -0.9332
  211ACOH    C110449   5.784   6.474   1.664  0.1034 -0.3707  0.2905
  211ACOH    H110450   5.824   6.554   1.602  1.7336 -2.5331 -1.5252
  211ACOH    H210451   5.696   6.440   1.609  1.0974 -2.7753  0.1353
  211ACOH    H310452   5.861   6.397   1.672  0.9199  0.3353 -0.7088
  212ACOH    H410453   7.718   3.463   3.320  0.7085 -1.4654  0.2175
  212ACOH    O210454   7.648   3.490   3.381  1.2272 -0.3056  0.3028
  212ACOH    C210455   7.532   3.445   3.328 -0.8189 -0.0589  0.0294
  212ACOH    O110456   7.518   3.425   3.209  0.2118  0.6405  0.0170
  212ACOH    C110457   7.426   3.466   3.428  0.2869  0.4558  0.7495
  212ACOH    H110458   7.429   3.573   3.448 -3.2017  1.0345 -1.4635
  212ACOH    H210459   7.443   3.419   3.525  2.3306 -1.0454 -0.2946
  212ACOH    H310460   7.330   3.449   3.379  0.2123 -1.1360  1.4292
  214ACOH    H410461   9.205   0.584   0.200 -0.0313 -0.9528 -0.9875
  214ACOH    O210462   9.297   0.611   0.214 -0.3866  0.0148 -0.4643
  214ACOH    C210463   9.287   0.699   0.315 -0.0226  0.8923 -0.3507
  214ACOH    O110464   9.193   0.775   0.328  0.3786  0.7269  0.2379
  214ACOH    C110465   9.425   0.722   0.365 -0.2184  0.1055  1.1654
  214ACOH    H110466   9.429   0.775   0.460 -2.7171 -1.6235  2.2824
  214ACOH    H210467   9.485   0.775   0.292  0.1781 -1.0382  0.6553
  214ACOH    H310468   9.467   0.623   0.382  2.1703  0.6572 -1.1965
  215ACOH    H410469   0.139   1.397   5.198  0.2899  0.0689  1.2495
  215ACOH    O210470   0.213   1.341   5.169 -0.3175 -0.2364  0.2527
  215ACOH    C210471   0.167   1.212   5.190 -0.4355 -0.1357  0.0436
  215ACOH    O110472   0.088   1.173   5.271 -0.2084  0.3747 -0.0872
  215ACOH    C110473   0.254   1.109   5.128  0.3273  0.3999  0.1600
  215ACOH    H110474   0.210   1.056   5.043  2.5720 -1.4869  0.1214
  215ACOH    H210475   0.264   1.032   5.205 -0.9983 -0.8230 -0.8475
  215ACOH    H310476   0.352   1.150   5.104  0.0839  1.5978  1.2284
  216ACOH    H410477   5.543   6.137   1.207 -2.6784  1.2075 -1.5520
  216ACOH    O210478   5.543   6.229   1.240 -0.6095  0.7958 -0.3245
  216ACOH    C210479   5.414   6.261   1.256  0.4904  0.0442  0.4815
  216ACOH    O110480   5.317   6.195   1.222 -0.0005 -0.4389 -0.1408
  216ACOH    C110481   5.402   6.410   1.269  0.3745  0.6469 -0.2325
  216ACOH    H110482   5.313   6.446   1.217  1.4472  1.0233 -1.8743
  216ACOH    H210483   5.488   6.463   1.228  1.2291 -0.6029 -0.0777
  216ACOH    H310484   5.403   6.431   1.376  0.2527  0.2801 -0.1590
  217ACOH    H410485   1.550   8.903   1.386 -0.1016 -0.0061  0.8023
  217ACOH    O210486   1.468   8.854   1.407 -0.2231 -0.2344 -0.1469
  217ACOH    C210487   1.373   8.910   1.330  0.1477 -0.4024  0.3848
  217ACOH    O110488   1.389   9.016   1.275 -0.4515 -0.7014 -0.1697
  217ACOH    C110489   1.245   8.829   1.344 -0.1954  0.2591 -0.0355
  217ACOH    H110490   1.263   8.740   1.284  0.8097 -0.0015  0.6428
  217ACOH    H210491   1.160   8.885   1.304  0.2174  0.2614 -0.9253
  217ACOH    H310492   1.233   8.793   1.446 -0.6965  1.0388  0.1936
  218ACOH    H410493   4.838   5.155   5.092 -0.3045  2.9316  0.6748
  218ACOH    O210494   4.894   5.172   5.014  0.0853  0.6683  0.4239
  218ACOH    C210495   4.819   5.257   4.942 -0.3504 -0.1813 -0.1832
  218ACOH    O110496   4.700   5.276   4.965 -0.8524 -0.0055 -0.3885
  218ACOH    C110497   4.886   5.311   4.825 -0.0968  0.2503  0.3123
  218ACOH    H110498   4.825   5.378   4.764  1.1887 -1.2442 -2.7068
  218ACOH    H210499   4.902   5.223   4.762 -1.4041  0.0039  0.3187
  218ACOH    H310500   4.975   5.369   4.848 -1.7627  2.3082  1.6876
  219ACOH    H410501   6.988   9.763   1.968 -0.3076  1.0780  1.3954
  219ACOH    O210502   6.898   9.774   1.933  0.0869  0.2194  0.0990
  219ACOH    C210503   6.841   9.656   1.959 -0.0320  0.9174  0.2805
  219ACOH    O110504   6.888   9.554   2.014 -0.4587  0.6427  0.2244
  219ACOH    C110505   6.697   9.661   1.925 -0.3705 -0.4702 -0.5137
  219ACOH    H110506   6.664   9.572   1.871 -1.2829  0.9219 -2.2765
  219ACOH    H210507   6.672   9.750   1.868 -0.7730  0.0456  0.4456
  219ACOH    H310508   6.636   9.663   2.016 -1.6340  0.8834 -1.3726
  220ACOH    H410509   7.540   5.530   5.054  0.3420  1.0416 -1.0210
  220ACOH    O210510   7.463   5.584   5.029 -0.7532 -0.0066  0.0395
  220ACOH    C210511   7.495   5.641   4.914 -0.1331  0.1810 -0.3936
  220ACOH    O110512   7.604   5.646   4.866  0.0893 -1.0784 -0.0959
  220ACOH    C110513   7.374   5.701   4.853  0.4809  0.3262  0.1852
  220ACOH    H110514   7.325   5.767   4.926  0.0069 -0.8517  0.9377
  220ACOH    H210515   7.303   5.627   4.817  0.1884 -0.6243  2.6390
  220ACOH    H310516   7.403   5.766   4.770  0.4855  0.3661  0.2185
  221ACOH    H410517   6.824   2.404   0.320  1.3906 -0.0788 -0.7249
  221ACOH    O210518   6.783   2.349   0.251  0.8518  0.2613 -0.6783
  221ACOH    C210519   6.854   2.241   0.219  0.0037  0.3586  0.7731
  221ACOH    O110520   6.947   2.186   0.276  0.8795  0.4209  0.2094
  221ACOH    C110521   6.792   2.178   0.098  0.3532 -0.1644  0.4981
  221ACOH    H110522   6.767   2.236   0.009 -2.2482 -2.1114 -0.0801
  221ACOH    H210523   6.697   2.137   0.130  0.8450 -0.4526  1.6324
  221ACOH    H310524   6.844   2.093   0.054  0.9663  0.3053  0.3049
  222ACOH    H410525   4.977   1.314   6.812  0.5018 -1.4841 -0.4030
  222ACOH    O210526   5.024   1.392   6.777  0.3948 -0.9319  0.6599
  222ACOH    C210527   5.091   1.348   6.672  0.5505  0.1783  0.0293
  222ACOH    O110528   5.110   1.235   6.629 -0.5306  0.2796 -0.1178
  222ACOH    C110529   5.137   1.463   6.585  0.1030  0.1557  0.0574
  222ACOH    H110530   5.081   1.452   6.493 -0.4194 -2.1191  0.6045
  222ACOH    H210531   5.246   1.458   6.577  0.2077  1.5653  0.4031
  222ACOH    H310532   5.112   1.560   6.629  1.5037  0.6995 -0.3256
  223ACOH    H410533   7.523   4.785   5.329 -0.1209  1.5259  2.0856
  223ACOH    O210534   7.531   4.848   5.255 -0.1880 -0.2841  0.5119
  223ACOH    C210535   7.591   4.962   5.298  0.7170 -0.2308 -1.1542
  223ACOH    O110536   7.692   4.968   5.372  0.2505 -0.4174  0.1994
  223ACOH    C110537   7.546   5.081   5.219  0.0305 -0.1999  0.2411
  223ACOH    H110538   7.490   5.142   5.290 -1.6460 -2.2302  0.7240
  223ACOH    H210539   7.480   5.039   5.144  0.9359 -3.4844  1.1736
  223ACOH    H310540   7.623   5.141   5.171 -2.5162  2.1394 -1.0144
  224ACOH    H410541   7.470   3.258   5.138 -0.6943  0.5839  0.7442
  224ACOH    O210542   7.447   3.352   5.128 -0.0971  0.6360 -0.1025
  224ACOH    C210543   7.546   3.412   5.059  0.5654  0.2820  0.6137
  224ACOH    O110544   7.630   3.361   4.984 -0.3292  0.3651 -0.1043
  224ACOH    C110545   7.535   3.559   5.070 -0.1128  1.0349  0.3262
  224ACOH    H110546   7.622   3.600   5.019 -0.1465 -0.6701 -1.1545
  224ACOH    H210547   7.532   3.590   5.174  0.2581  2.6952 -0.1381
  224ACOH    H310548   7.450   3.595   5.010  1.2301 -0.1031 -2.3449
  225ACOH    H410549   6.539   5.015   1.307  2.4805 -1.5207  0.9376
  225ACOH    O210550   6.502   5.031   1.396  0.6097 -0.2294 -0.0336
  225ACOH    C210551   6.604   5.092   1.452 -0.1047 -0.2985 -0.3625
  225ACOH    O110552   6.720   5.083   1.412 -0.2817  0.5734 -0.1348
  225ACOH    C110553   6.569   5.141   1.589 -1.2418  0.5433 -0.3741
  225ACOH    H110554   6.588   5.068   1.668  0.2273  1.7738  0.4361
  225ACOH    H210555   6.461   5.159   1.591 -0.9341  2.8638 -2.1069
  225ACOH    H310556   6.610   5.238   1.619 -0.2585 -0.5251  1.8136
  226ACOH    H410557   5.826   1.447   1.033  1.4797 -0.9143 -1.4973
  226ACOH    O210558   5.826   1.539   1.004 -0.1296 -0.2462  0.5004
  226ACOH    C210559   5.860   1.625   1.103 -0.4066 -0.3994  0.1277
  226ACOH    O110560   5.906   1.592   1.213 -0.5145 -0.5628 -0.1370
  226ACOH    C110561   5.845   1.766   1.068 -0.4609 -0.5078  0.1138
  226ACOH    H110562   5.858   1.833   1.153  1.9689  0.2728 -0.8247
  226ACOH    H210563   5.748   1.780   1.021 -0.0898 -0.7704 -0.7521
  226ACOH    H310564   5.922   1.797   0.997  1.4928  0.2440  2.4815
  227ACOH    H410565   8.144   7.404   2.122  0.0805 -0.4548  0.0461
  227ACOH    O210566   8.196   7.417   2.042 -0.3450 -0.5633 -0.2501
  227ACOH    C210567   8.133   7.506   1.960 -0.0935  0.4085  0.8121
  227ACOH    O110568   8.064   7.588   2.009 -0.2884 -0.3199  0.2045
  227ACOH    C110569   8.199   7.517   1.825 -0.4552 -0.3597  0.3065
  227ACOH    H110570   8.132   7.559   1.751  2.2290  1.0150 -1.4317
  227ACOH    H210571   8.228   7.416   1.795 -1.2410 -1.0783  1.8924
  227ACOH    H310572   8.287   7.581   1.830 -0.7960  0.2663 -1.4843
  228ACOH    H410573   5.236   4.482   0.187  1.4194 -1.0714 -0.8463
  228ACOH    O210574   5.272   4.450   0.272  0.4977 -0.3033 -0.1656
  228ACOH    C210575   5.256   4.321   0.267 -0.0522 -0.0703  0.4608
  228ACOH    O110576   5.224   4.251   0.172  0.5252  0.0825  0.3357
  228ACOH    C110577   5.316   4.260   0.390 -0.1144  0.4724  0.5042
  228ACOH    H110578   5.268   4.284   0.485  0.3039  1.3321  0.5109
  228ACOH    H210579   5.422   4.288   0.386  0.1557 -0.6870 -0.6695
  228ACOH    H310580   5.316   4.151   0.391  1.3648  0.4660  1.4494
  229ACOH    H410581   9.130   5.296   4.838  0.5572 -0.0863  1.0762
  229ACOH    O210582   9.207   5.349   4.811 -0.0494  0.2159 -0.0815
  229ACOH    C210583   9.277   5.285   4.717 -0.5551  0.7558  0.0322
  229ACOH    O110584   9.264   5.168   4.681  0.1623  0.6924 -0.0254
  229ACOH    C110585   9.402   5.354   4.679 -0.3562 -0.2998  0.1690
  229ACOH    H110586   9.439   5.418   4.758 -0.3253 -1.6156  1.2457
  229ACOH    H210587   9.378   5.409   4.588 -1.3503  2.2936  1.9448
  229ACOH    H310588   9.482   5.283   4.658  0.9312  1.3820 -0.6719
  230ACOH    H410589   4.905   4.071   5.042  0.1174  0.4602  0.7501
  230ACOH    O210590   4.984   4.051   5.095  0.0878 -0.0355  0.6093
  230ACOH    C210591   5.059   3.951   5.046  0.0205  0.2185 -0.5298
  230ACOH    O110592   5.027   3.870   4.957  0.0967  0.1273 -0.7731
  230ACOH    C110593   5.186   3.933   5.126  0.0898 -0.4516 -0.1797
  230ACOH    H110594   5.174   3.866   5.211  1.5059 -0.6753 -0.1429
  230ACOH    H210595   5.219   4.030   5.164 -0.7064 -0.0226 -0.5756
  230ACOH    H310596   5.262   3.884   5.065 -0.1003 -0.6511 -0.2526
  231ACOH    H410597   7.047   6.150   5.561 -1.2405  2.2919  1.8450
  231ACOH    O210598   6.958   6.151   5.521 -0.2140 -0.3193 -0.6886
  231ACOH    C210599   6.961   6.200   5.398 -0.3074 -0.6909  0.0803
  231ACOH    O110600   7.062   6.238   5.343  0.6783 -0.4293  0.0936
  231ACOH    C110601   6.820   6.212   5.351 -0.3443 -0.2749  0.3969
  231ACOH    H110602   6.783   6.114   5.382 -1.6470 -0.1751 -0.7795
  231ACOH    H210603   6.817   6.208   5.242  1.1282 -0.3297  0.3557
  231ACOH    H310604   6.760   6.290   5.397 -0.8493 -0.8103  0.6624
  232ACOH    H410605   6.989   2.612   4.409 -2.8502 -0.0478  3.2790
  232ACOH    O210606   6.973   2.708   4.400  1.3568  0.5087  0.0889
  232ACOH    C210607   6.851   2.728   4.458 -0.2595  0.4406 -0.1670
  232ACOH    O110608   6.795   2.648   4.531  0.2854 -0.4416 -0.6886
  232ACOH    C110609   6.802   2.864   4.438 -0.2749  0.1411  0.3062
  232ACOH    H110610   6.862   2.924   4.369 -3.1258  0.4619 -1.9970
  232ACOH    H210611   6.803   2.922   4.530 -1.1676  0.9858 -0.2000
  232ACOH    H310612   6.707   2.867   4.385  0.8617  3.0507 -1.7510
  233ACOH    H410613   3.412   9.340   0.258  0.1832  0.7298  1.8018
  233ACOH    O210614   3.438   9.252   0.290  0.0883  0.2092  0.4890
  233ACOH    C210615   3.569   9.247   0.284  0.5470 -0.2234  0.1247
  233ACOH    O110616   3.647   9.334   0.252  0.0013 -0.7188 -0.2267
  233ACOH    C110617   3.605   9.113   0.333  0.6184 -0.1728 -0.4834
  233ACOH    H110618   3.688   9.079   0.271  1.2283  0.5319 -0.0690
  233ACOH    H210619   3.527   9.039   0.315 -1.0165  1.1293  1.0495
  233ACOH    H310620   3.639   9.126   0.436  0.0967  0.9790 -0.4459
  234ACOH    H410621   7.495   5.821   0.490 -1.1872  0.0525  0.8619
  234ACOH    O210622   7.478   5.893   0.428 -0.4528 -0.6584 -0.1949
  234ACOH    C210623   7.574   5.984   0.438  0.9724  0.7238  0.6062
  234ACOH    O110624   7.653   5.979   0.531  0.0362 -0.1506  0.0024
  234ACOH    C110625   7.539   6.103   0.366 -0.4352  0.1931 -0.3389
  234ACOH    H110626   7.501   6.175   0.439 -1.6886 -1.0479  0.2442
  234ACOH    H210627   7.469   6.095   0.284 -3.0987  0.1522  1.8631
  234ACOH    H310628   7.631   6.147   0.327 -0.8813  1.5055  0.0525
  235ACOH    H410629   1.915   8.618   2.095 -0.3520  0.0131 -0.1425
  235ACOH    O210630   1.965   8.692   2.131 -0.4606 -0.2001  0.4439
  235ACOH    C210631   1.925   8.806   2.082 -0.1127 -1.1255  1.1812
  235ACOH    O110632   1.815   8.840   2.059  0.4237 -0.0167  0.2456
  235ACOH    C110633   2.021   8.910   2.121 -0.8991 -0.3192 -0.4639
  235ACOH    H110634   2.034   8.988   2.046 -0.7605  2.4628  2.3544
  235ACOH    H210635   2.121   8.866   2.124  0.3888  2.5083 -0.1060
  235ACOH    H310636   1.983   8.952   2.214 -0.2434 -0.7833  0.0265
  236ACOH    H410637   6.700   2.022   0.874 -0.6613  1.4233  0.7216
  236ACOH    O210638   6.702   2.074   0.791  0.5098 -0.7280 -0.6541
  236ACOH    C210639   6.717   2.200   0.839  0.2935  0.2389  1.0508
  236ACOH    O110640   6.752   2.234   0.947 -0.5654  0.3402 -0.5224
  236ACOH    C110641   6.743   2.285   0.722  0.1924 -0.0972  0.1310
  236ACOH    H110642   6.848   2.274   0.697  0.1693 -0.1418  0.0519
  236ACOH    H210643   6.722   2.390   0.744  0.6998 -0.2932  1.6090
  236ACOH    H310644   6.691   2.250   0.632  1.0417 -0.2485 -0.3024
  237ACOH    H410645   5.693   7.428   5.221  2.3009  0.0561 -0.0690
  237ACOH    O210646   5.710   7.406   5.314  0.2739 -0.3976  0.2203
  237ACOH    C210647   5.596   7.422   5.387 -0.0190  0.3530 -0.1476
  237ACOH    O110648   5.484   7.460   5.364  0.1679 -0.8863  0.0365
  237ACOH    C110649   5.622   7.386   5.529  0.7635  0.1567 -0.2789
  237ACOH    H110650   5.613   7.480   5.585  1.5847  1.3012 -2.0229
  237ACOH    H210651   5.722   7.342   5.533  0.6311 -0.1712 -0.5668
  237ACOH    H310652   5.549   7.311   5.559  0.1930  0.7727 -0.1222
  238ACOH    H410653   9.033   9.450   0.710  0.1217 -0.4187  0.9712
  238ACOH    O210654   8.971   9.414   0.645  0.1479  0.6983  0.3150
  238ACOH    C210655   8.881   9.517   0.630 -0.3729  0.2020  0.2954
  238ACOH    O110656   8.838   9.578   0.727 -0.4584 -0.4263  0.8589
  238ACOH    C110657   8.812   9.491   0.503 -0.4982  0.2193  0.4089
  238ACOH    H110658   8.711   9.528   0.518 -1.0021 -1.3486  1.0550
  238ACOH    H210659   8.804   9.386   0.476  1.5899  0.0887  0.1995
  238ACOH    H310660   8.854   9.564   0.434  1.9471  0.4667  2.0850
  239ACOH    H410661   6.842   1.978   5.454  0.2514  0.2824  1.9523
  239ACOH    O210662   6.905   2.052   5.454  0.3721  0.1941  0.3430
  239ACOH    C210663   6.984   2.044   5.562 -0.4289 -0.3594 -0.2497
  239ACOH    O110664   7.006   1.944   5.631  0.1887 -0.5736  0.2228
  239ACOH    C110665   7.046   2.176   5.582 -0.7045  0.1683 -0.7482
  239ACOH    H110666   7.064   2.219   5.484  0.5912 -1.4389 -1.2471
  239ACOH    H210667   7.146   2.161   5.624 -0.8104  2.1595  0.2565
  239ACOH    H310668   6.985   2.243   5.642  0.3137  2.0285 -1.7502
  240ACOH    H410669   4.843   6.377   1.329 -0.7627  1.1439 -1.4883
  240ACOH    O210670   4.853   6.459   1.379 -0.1177  0.2315 -0.0855
  240ACOH    C210671   4.978   6.481   1.428 -0.0547 -0.0567 -0.5239
  240ACOH    O110672   5.079   6.414   1.411 -0.2501  0.1238 -0.2227
  240ACOH    C110673   4.990   6.617   1.494  0.2164  0.5504  0.3079
  240ACOH    H110674   5.074   6.620   1.563  0.6865  2.2080 -0.3230
  240ACOH    H210675   4.898   6.634   1.550  0.1921 -1.8884  1.0885
  240ACOH    H310676   4.992   6.696   1.419  1.8421  3.3382  3.2142
  244ACOH    H410677   9.159   1.668   4.360  1.5810  0.6815 -0.1014
  244ACOH    O210678   9.170   1.764   4.347 -0.0067  0.8193 -0.4746
  244ACOH    C210679   9.054   1.832   4.362 -0.1835 -0.5079  0.5610
  244ACOH    O110680   8.942   1.788   4.385 -0.4790  0.2626 -0.2038
  244ACOH    C110681   9.075   1.982   4.340  0.0729  0.2157  0.5650
  244ACOH    H110682   9.171   2.008   4.386 -0.4825 -0.5717  2.1867
  244ACOH    H210683   8.996   2.030   4.396  0.1386  1.2922 -0.2359
  244ACOH    H310684   9.074   2.004   4.233  2.1181 -2.9379 -0.1788
  245ACOH    H410685   5.729   2.789   3.221  0.4220 -1.1829  1.4465
  245ACOH    O210686   5.809   2.832   3.256  0.4626 -0.3402  0.3486
  245ACOH    C210687   5.781   2.868   3.383 -0.0267  0.0193 -0.1417
  245ACOH    O110688   5.713   2.802   3.461 -1.0870  0.3642  0.2247
  245ACOH    C110689   5.878   2.970   3.430 -0.1963  0.8871  1.0922
  245ACOH    H110690   5.915   3.021   3.342  1.3837 -1.8219  0.1029
  245ACOH    H210691   5.974   2.933   3.466 -0.6653 -2.1858 -0.6584
  245ACOH    H310692   5.827   3.039   3.497 -2.7854 -0.9584  1.1182
  246ACOH    H410693   4.417   7.144   4.719 -0.2116 -0.0339  0.4331
  246ACOH    O210694   4.380   7.159   4.631 -0.8429  0.1783  0.7287
  246ACOH    C210695   4.493   7.157   4.554  0.2445 -0.3031  0.3885
  246ACOH    O110696   4.608   7.188   4.581  0.1699  0.0665 -0.8681
  246ACOH    C110697   4.437   7.145   4.412 -0.0315  0.0253 -1.1194
  246ACOH    H110698   4.402   7.043   4.396 -0.2571  0.0585 -0.8259
  246ACOH    H210699   4.521   7.162   4.345 -1.3670  0.7054 -2.6339
  246ACOH    H310700   4.362   7.220   4.389 -1.3893 -1.5601 -1.8781
  247ACOH    H410701   1.208   5.778   5.447 -0.0580  0.0037 -0.7967
  247ACOH    O210702   1.255   5.856   5.414 -0.1819  0.3355 -0.2044
  247ACOH    C210703   1.382   5.810   5.412 -0.3009 -0.1514  0.4192
  247ACOH    O110704   1.419   5.700   5.376 -0.2962  0.3582  0.0821
  247ACOH    C110705   1.474   5.923   5.395  0.3904 -0.2093 -0.1942
  247ACOH    H110706   1.497   5.932   5.288  2.0031 -1.1860  0.0615
  247ACOH    H210707   1.559   5.910   5.461 -0.6771  1.0148  1.4653
  247ACOH    H310708   1.434   6.019   5.429  1.0100  1.2206 -3.2417
  248ACOH    H410709   7.332   7.068   3.944  3.5140  2.3038 -0.1256
  248ACOH    O210710   7.337   7.042   4.037 -0.3644  0.0331 -0.4387
  248ACOH    C210711   7.213   7.049   4.092 -0.1623 -0.0896  0.0771
  248ACOH    O110712   7.118   7.115   4.056 -0.4021  0.4838 -0.1203
  248ACOH    C110713   7.237   7.016   4.238  0.0322 -0.0754 -0.1745
  248ACOH    H110714   7.145   7.003   4.296  0.9484  0.1610  1.3442
  248ACOH    H210715   7.300   7.093   4.282  1.6211 -1.9290  0.8681
  248ACOH    H310716   7.287   6.919   4.244 -1.7594 -0.9446  1.3538
  249ACOH    H410717   9.379   7.504   4.076 -0.2927 -0.1898  0.0582
  249ACOH    O210718   9.402   7.409   4.077  0.2697 -0.0548  0.0051
  249ACOH    C210719   9.309   7.338   4.140  0.0813  0.4016  0.2001
  249ACOH    O110720   9.211   7.380   4.193  0.3649 -0.3631  0.3511
  249ACOH    C110721   9.339   7.192   4.144  0.7252  0.2018 -0.1585
  249ACOH    H110722   9.438   7.166   4.182  1.4536  2.0798 -0.6962
  249ACOH    H210723   9.320   7.154   4.044 -3.0137  2.5435 -0.4258
  249ACOH    H310724   9.264   7.150   4.211  1.6582  0.5511  1.1280
  250ACOH    H410725   2.495   3.719   4.117 -1.3260  0.1283 -0.3275
  250ACOH    O210726   2.510   3.627   4.143 -0.8251  0.3527  0.1797
  250ACOH    C210727   2.642   3.596   4.170 -1.0763  0.6880 -0.7010
  250ACOH    O110728   2.740   3.665   4.136  0.4687 -0.0546 -0.5851
  250ACOH    C110729   2.652   3.463   4.234 -0.7632  0.0532 -0.0219
  250ACOH    H110730   2.623   3.446   4.337 -0.5738  0.7465  0.1499
  250ACOH    H210731   2.756   3.432   4.225 -0.7098 -0.0304  0.8829
  250ACOH    H310732   2.591   3.395   4.174  1.2708 -3.2614  1.5710
  251ACOH    H410733  10.045   3.773   2.183 -0.6666 -0.6922  0.5551
  251ACOH    O210734  10.021   3.842   2.247  0.4300  0.2787 -0.0613
  251ACOH    C210735   9.917   3.912   2.198  0.1952 -0.7311  0.6245
  251ACOH    O110736   9.850   3.888   2.099  0.0282 -0.4661 -0.1218
  251ACOH    C110737   9.886   4.029   2.284 -0.3539 -0.8026  0.0136
  251ACOH    H110738   9.871   3.992   2.385  2.1189  2.1535  1.5280
  251ACOH    H210739   9.793   4.077   2.254  0.1934  0.1924 -0.0993
  251ACOH    H310740   9.964   4.104   2.274  0.7028 -1.8779 -0.0054
  253ACOH    H410741   1.244   0.881   2.868 -0.8525  0.0875 -1.6846
  253ACOH    O210742   1.318   0.938   2.841 -0.1551 -0.3485 -0.7346
  253ACOH    C210743   1.301   1.058   2.894 -0.0322  0.5221  0.1175
  253ACOH    O110744   1.215   1.091   2.975  0.0060 -0.0309  0.6007
  253ACOH    C110745   1.395   1.154   2.833  0.0896  0.5438  0.4638
  253ACOH    H110746   1.445   1.203   2.916 -1.9498  1.8934  0.9302
  253ACOH    H210747   1.345   1.236   2.781 -0.1050  0.0301 -0.1651
  253ACOH    H310748   1.462   1.105   2.763 -2.6325 -2.0387 -0.4706
  254ACOH    H410749   1.600   6.154   0.459 -5.0724 -1.7074  0.6335
  254ACOH    O210750   1.626   6.069   0.418 -0.0012 -0.1761  0.3551
  254ACOH    C210751   1.549   6.050   0.313 -0.1014 -0.3129 -0.2143
  254ACOH    O110752   1.466   6.131   0.278  0.2374 -0.3126 -0.0763
  254ACOH    C110753   1.580   5.932   0.235 -0.1837 -0.3999 -0.1367
  254ACOH    H110754   1.491   5.869   0.236  0.2034 -0.9518  0.3699
  254ACOH    H210755   1.664   5.883   0.286 -0.3953 -0.5928  0.0312
  254ACOH    H310756   1.609   5.951   0.132 -3.6026  0.9383 -0.9172
  255ACOH    H410757   6.439   3.699   0.263 -0.6785  0.4424 -0.1150
  255ACOH    O210758   6.392   3.638   0.204 -0.9988  0.2396  0.3508
  255ACOH    C210759   6.465   3.608   0.089  0.4114 -0.7589  0.0232
  255ACOH    O110760   6.580   3.636   0.071  0.0071 -0.0938  0.3369
  255ACOH    C110761   6.391   3.533  -0.006 -0.3597  0.8123  0.3277
  255ACOH    H110762   6.333   3.603  -0.066  1.3680 -0.1755 -2.5866
  255ACOH    H210763   6.326   3.472   0.058 -0.9629  0.0881 -0.9659
  255ACOH    H310764   6.449   3.476  -0.078 -1.7129 -1.4665  0.9671
  256ACOH    H410765   5.243   4.279   3.113  1.3674  1.7974  0.3063
  256ACOH    O210766   5.309   4.222   3.156  0.5730  0.2890 -0.3982
  256ACOH    C210767   5.332   4.286   3.269  0.0205 -0.5304  0.1813
  256ACOH    O110768   5.256   4.361   3.328  0.7031  0.7270  0.1023
  256ACOH    C110769   5.452   4.232   3.341 -0.2554  0.4397 -0.1000
  256ACOH    H110770   5.540   4.281   3.299 -0.6890  0.7030 -0.7074
  256ACOH    H210771   5.463   4.128   3.310  0.6285  1.0700 -1.9607
  256ACOH    H310772   5.449   4.245   3.449  1.9761  1.4578 -0.1343
  258ACOH    H410773   5.364   9.132   2.858  2.6713  0.6530 -1.1496
  258ACOH    O210774   5.416   9.103   2.935 -0.3259 -0.3222  0.5892
  258ACOH    C210775   5.427   8.969   2.931  0.5497 -0.3173  0.8343
  258ACOH    O110776   5.455   8.922   2.824  0.1905  0.1626  0.2469
  258ACOH    C110777   5.466   8.912   3.063 -0.9291 -0.1337  0.8580
  258ACOH    H110778   5.415   8.816   3.076  0.5600 -0.6668  2.9538
  258ACOH    H210779   5.441   8.976   3.147  0.3261 -0.7271  1.6956
  258ACOH    H310780   5.574   8.899   3.058 -0.6168  2.0819  1.2883
  260ACOH    H410781   5.342   4.127   4.481 -1.0646 -1.4874  1.3135
  260ACOH    O210782   5.424   4.083   4.509 -0.2046 -0.9698 -0.3801
  260ACOH    C210783   5.391   3.967   4.540 -0.2505  0.5288  0.2782
  260ACOH    O110784   5.279   3.923   4.549 -0.5485  0.2718  0.4116
  260ACOH    C110785   5.502   3.876   4.556 -0.1667  0.3204  0.5530
  260ACOH    H110786   5.566   3.880   4.467 -0.6636 -2.3580  0.0285
  260ACOH    H210787   5.481   3.773   4.586  0.4694  0.2726  0.8580
  260ACOH    H310788   5.570   3.901   4.638 -1.1893 -1.9262  2.1524
  261ACOH    H410789   5.606   5.451   0.606 -0.6926 -0.7764 -0.0919
  261ACOH    O210790   5.531   5.512   0.612 -0.0079  0.0868 -0.1175
  261ACOH    C210791   5.570   5.621   0.680 -0.0937 -0.3532 -0.0955
  261ACOH    O110792   5.678   5.675   0.670  0.0108  0.5195  0.5246
  261ACOH    C110793   5.452   5.701   0.709 -0.6865  0.6389  0.4054
  261ACOH    H110794   5.470   5.743   0.808 -0.1915 -0.3344  0.7336
  261ACOH    H210795   5.361   5.641   0.707  2.2384 -4.0285  0.5778
  261ACOH    H310796   5.447   5.780   0.634 -0.3759  0.8808  0.6342
  262ACOH    H410797   6.863   9.328   1.768 -1.2254  0.9213  1.5283
  262ACOH    O210798   6.898   9.396   1.708 -0.0535 -0.6087  0.4441
  262ACOH    C210799   6.790   9.465   1.667  0.4447  0.0466 -0.5138
  262ACOH    O110800   6.675   9.433   1.683 -0.3825 -0.4659 -0.6547
  262ACOH    C110801   6.828   9.579   1.584  0.9214 -0.2264  1.1715
  262ACOH    H110802   6.912   9.560   1.517  0.2720  1.8006 -0.2594
  262ACOH    H210803   6.850   9.654   1.659  0.5529  1.0538  0.0125
  262ACOH    H310804   6.749   9.618   1.519  2.9978  2.2483  0.0753
  263ACOH    H410805   7.766   7.025   3.350 -0.8574  2.6604  3.5946
  263ACOH    O210806   7.672   7.002   3.344 -0.0172 -0.2921  0.4129
  263ACOH    C210807   7.616   7.013   3.220 -0.1313  1.1247 -0.2404
  263ACOH    O110808   7.665   6.986   3.115 -0.7008  0.3581  0.0728
  263ACOH    C110809   7.470   7.015   3.222 -0.0459 -0.1764  0.1217
  263ACOH    H110810   7.441   7.092   3.150  2.4589  1.2111  0.5291
  263ACOH    H210811   7.430   7.043   3.319  0.5268  2.6459 -0.4038
  263ACOH    H310812   7.440   6.914   3.194  1.4841 -0.7257  0.4428
  264ACOH    H410813   5.003   4.462   4.686 -0.9110  0.4892  1.4280
  264ACOH    O210814   5.040   4.552   4.691 -0.0549  0.2440 -0.3007
  264ACOH    C210815   5.169   4.554   4.664  0.6966 -0.9376  0.4198
  264ACOH    O110816   5.238   4.466   4.639 -0.0604  0.0395 -0.0880
  264ACOH    C110817   5.217   4.691   4.664 -0.2536 -0.5976  0.3909
  264ACOH    H110818   5.178   4.738   4.573 -1.9488 -2.6215  0.0351
  264ACOH    H210819   5.325   4.680   4.666 -0.1971  0.0735  1.7706
  264ACOH    H310820   5.192   4.747   4.754 -0.8511 -0.8386  0.3757
  265ACOH    H410821   2.531   0.071   1.666 -1.0638  1.0120  0.9208
  265ACOH    O210822   2.563   0.162   1.653 -0.1278  0.6463  0.5603
  265ACOH    C210823   2.521   0.236   1.761  0.1180  0.2611  0.3378
  265ACOH    O110824   2.453   0.202   1.856  0.2762  0.3720  0.1316
  265ACOH    C110825   2.563   0.371   1.735  0.0761  0.4601  0.2561
  265ACOH    H110826   2.672   0.372   1.732  0.0756  1.0632  0.2303
  265ACOH    H210827   2.536   0.445   1.811  2.6278  0.7035  0.9593
  265ACOH    H310828   2.520   0.396   1.638  1.6613  2.1634 -0.0431
  266ACOH    H410829   6.725   2.814   3.576  2.2375 -0.1526 -2.3065
  266ACOH    O210830   6.683   2.887   3.528  0.1603  0.1109 -0.1889
  266ACOH    C210831   6.701   2.864   3.402  0.4075 -0.4798  0.1917
  266ACOH    O110832   6.763   2.775   3.348 -0.0055 -0.0354  0.8093
  266ACOH    C110833   6.623   2.958   3.323  0.6552 -0.0394 -0.3051
  266ACOH    H110834   6.539   2.904   3.281  0.8055 -0.5856  0.0965
  266ACOH    H210835   6.682   2.999   3.241  1.8794  0.6650  0.9065
  266ACOH    H310836   6.598   3.044   3.386  2.6469 -0.4167  1.0659
  267ACOH    H410837   7.568   4.396   5.186 -0.0886  1.0118  1.9844
  267ACOH    O210838   7.572   4.303   5.214  0.5067  0.5049  0.2654
  267ACOH    C210839   7.528   4.223   5.117 -0.5513  0.1526  0.1327
  267ACOH    O110840   7.433   4.255   5.051  0.3730  0.1103 -0.4429
  267ACOH    C110841   7.581   4.084   5.134 -0.4781 -0.1461  0.8257
  267ACOH    H110842   7.616   4.041   5.040  0.0772 -2.5570  2.1070
  267ACOH    H210843   7.510   4.014   5.176  0.6136 -0.9653  1.3408
  267ACOH    H310844   7.662   4.076   5.206  1.3514  0.4553 -1.1084
  268ACOH    H410845   5.174   2.706   1.703  0.2185  0.1471 -0.4829
  268ACOH    O210846   5.164   2.788   1.651  0.4141  0.4199 -0.0965
  268ACOH    C210847   5.054   2.771   1.577 -0.1158 -0.4424  0.4520
  268ACOH    O110848   5.009   2.665   1.533 -0.3122 -0.4021 -0.0731
  268ACOH    C110849   5.019   2.898   1.514  0.8239 -0.0934  0.5899
  268ACOH    H110850   5.051   2.891   1.410  2.1563 -0.4913  1.0209
  268ACOH    H210851   5.065   2.988   1.555  0.9340 -0.7829  2.0166
  268ACOH    H310852   4.910   2.910   1.513  0.9751  1.3190 -0.4056
  269ACOH    H410853   7.624   8.952   1.433 -1.0194  0.0244  1.1844
  269ACOH    O210854   7.581   9.000   1.361  0.4829  0.2943  0.4566
  269ACOH    C210855   7.668   9.096   1.333  0.0918  0.4062  0.0770
  269ACOH    O110856   7.791   9.095   1.346 -0.4706  0.3009  0.1698
  269ACOH    C110857   7.604   9.205   1.268 -0.8072  0.2007 -0.0370
  269ACOH    H110858   7.634   9.305   1.300  1.9525 -0.5396 -0.2701
  269ACOH    H210859   7.495   9.204   1.277 -0.5158 -0.7316  4.8293
  269ACOH    H310860   7.629   9.204   1.162 -2.1679 -0.0929 -0.3662
  270ACOH    H410861   4.894   3.558   2.246  0.9627 -1.5806 -0.8193
  270ACOH    O210862   4.953   3.626   2.208 -0.0227  0.1072  0.6298
  270ACOH    C210863   5.019   3.665   2.314 -0.8881 -0.0421 -0.5600
  270ACOH    O110864   5.053   3.595   2.408  0.6410 -0.4441 -0.8283
  270ACOH    C110865   5.092   3.791   2.289  0.1434  0.0300 -0.0178
  270ACOH    H110866   5.024   3.862   2.242 -0.8212 -0.5499  0.4752
  270ACOH    H210867   5.167   3.783   2.210 -1.6895  2.6845 -2.1407
  270ACOH    H310868   5.139   3.838   2.375 -0.8330  1.1175 -0.0648
  271ACOH    H410869   7.071   8.410   1.807 -0.9990 -2.2761 -0.1455
  271ACOH    O210870   7.148   8.402   1.748 -0.3085 -1.0897  0.5639
  271ACOH    C210871   7.224   8.513   1.768 -0.0564  0.1818 -0.2608
  271ACOH    O110872   7.176   8.621   1.813 -0.3222  0.9119  0.2746
  271ACOH    C110873   7.350   8.500   1.696  0.0176 -0.1784  0.0984
  271ACOH    H110874   7.356   8.413   1.631 -1.9912  0.3326 -0.8033
  271ACOH    H210875   7.441   8.511   1.755 -0.2977 -0.9810  0.7385
  271ACOH    H310876   7.354   8.589   1.632  0.5403 -0.1398  0.1819
  272ACOH    H410877   5.956   6.439   2.286  0.6646 -0.5918  0.0859
  272ACOH    O210878   5.899   6.493   2.344 -0.2124 -0.3480 -0.9946
  272ACOH    C210879   5.814   6.569   2.276 -0.2455 -0.2395 -0.0135
  272ACOH    O110880   5.813   6.576   2.156  0.1910  0.7720 -0.6688
  272ACOH    C110881   5.732   6.651   2.368 -0.4525  0.2531 -0.6650
  272ACOH    H110882   5.717   6.592   2.458  0.3935  1.6264  0.3937
  272ACOH    H210883   5.640   6.665   2.310 -1.0566 -1.4515 -0.1425
  272ACOH    H310884   5.778   6.746   2.392  1.5027 -0.6727 -0.6246
  273ACOH    H410885   8.530   5.919   3.107  0.4357  0.0600 -0.2409
  273ACOH    O210886   8.571   5.971   3.178  0.2877  0.2290 -0.2810
  273ACOH    C210887   8.475   6.003   3.269  0.0283 -0.5145  0.7837
  273ACOH    O110888   8.365   6.048   3.238  0.3325  0.7657  0.0288
  273ACOH    C110889   8.547   6.022   3.399 -0.2396  0.1369  0.7937
  273ACOH    H110890   8.584   5.924   3.426 -1.4565 -0.0264  1.9225
  273ACOH    H210891   8.474   6.053   3.475 -0.1821 -0.1117  0.9482
  273ACOH    H310892   8.623   6.099   3.387 -0.4726  0.3236  0.5042
  274ACOH    H410893   5.976   8.742   1.606 -4.4107  1.9314  0.8157
  274ACOH    O210894   5.953   8.710   1.517  0.0089 -0.3295  0.3230
  274ACOH    C210895   5.936   8.823   1.442  0.3248  0.0242  0.0813
  274ACOH    O110896   5.918   8.930   1.491  0.1593  0.5138 -0.1202
  274ACOH    C110897   5.878   8.787   1.307 -0.0071 -0.4823  0.3988
  274ACOH    H110898   5.829   8.873   1.262  1.6228  1.6340  2.5537
  274ACOH    H210899   5.800   8.715   1.333 -0.4759  0.6159  2.1701
  274ACOH    H310900   5.948   8.734   1.242  0.0959  0.6359 -0.4097
  275ACOH    H410901   1.483   4.394   5.301 -1.4703 -0.4649 -0.5668
  275ACOH    O210902   1.526   4.394   5.214  0.1626  0.6272  0.2349
  275ACOH    C210903   1.628   4.307   5.212 -0.5657  0.0845  0.4108
  275ACOH    O110904   1.648   4.214   5.285  0.0264  0.1763  0.0688
  275ACOH    C110905   1.718   4.332   5.093 -0.4726  0.1896  0.0643
  275ACOH    H110906   1.805   4.268   5.108 -1.2394 -1.1826 -1.2320
  275ACOH    H210907   1.748   4.437   5.088 -0.1054 -0.0034 -2.2533
  275ACOH    H310908   1.654   4.295   5.014  0.5208 -1.3695 -0.0261
  276ACOH    H410909   7.927   5.657   4.429 -0.8231 -0.8170 -2.5105
  276ACOH    O210910   7.888   5.577   4.469 -0.5150  0.4082  0.3724
  276ACOH    C210911   7.945   5.467   4.411 -0.6105  0.1899 -0.2867
  276ACOH    O110912   7.996   5.473   4.300 -0.1906  0.2943  0.3544
  276ACOH    C110913   7.888   5.342   4.464  0.5509  0.6247 -0.7029
  276ACOH    H110914   7.913   5.253   4.406  1.9134 -1.2585  2.6028
  276ACOH    H210915   7.780   5.345   4.476  0.3515 -1.6331 -1.6127
  276ACOH    H310916   7.922   5.330   4.567 -0.9387 -0.0757 -0.2732
  277ACOH    H410917   3.242   3.874   0.644  0.2375  0.3454  0.8801
  277ACOH    O210918   3.240   3.839   0.554  0.0388  0.7326  0.7337
  277ACOH    C210919   3.365   3.791   0.531 -0.2822 -0.0773  0.5025
  277ACOH    O110920   3.447   3.759   0.614 -0.2589 -0.0882 -0.0746
  277ACOH    C110921   3.394   3.766   0.389  0.5893  0.2647  0.2480
  277ACOH    H110922   3.394   3.659   0.367  2.7139 -0.1044  1.9228
  277ACOH    H210923   3.490   3.808   0.361  1.3594 -1.5938 -0.0108
  277ACOH    H310924   3.325   3.810   0.317 -0.8485 -1.6984  0.3757
  278ACOH    H410925   0.286   3.898   0.616 -2.3946  1.9874 -1.9145
  278ACOH    O210926   0.331   3.881   0.531 -0.7498  0.0528 -0.6948
  278ACOH    C210927   0.337   3.746   0.510  0.0361  0.4150  0.4805
  278ACOH    O110928   0.328   3.658   0.592 -0.7563 -0.2818  0.9838
  278ACOH    C110929   0.400   3.723   0.382  0.2566 -0.0504  0.1097
  278ACOH    H110930   0.491   3.782   0.368  1.0678 -0.8948  1.7932
  278ACOH    H210931   0.320   3.743   0.309 -0.0325  1.7143  0.8741
  278ACOH    H310932   0.431   3.619   0.376  1.1323  0.3142 -2.5501
  279ACOH    H410933   2.333   5.297   2.079 -0.5659 -0.1068  0.3769
  279ACOH    O210934   2.282   5.244   2.016 -0.0362 -0.0272 -0.1186
  279ACOH    C210935   2.166   5.222   2.080 -0.1719  0.1280  0.2765
  279ACOH    O110936   2.108   5.299   2.157  0.6031  0.2987 -0.2432
  279ACOH    C110937   2.103   5.093   2.032  0.0316  0.6152  0.2473
  279ACOH    H110938   2.048   5.110   1.939  2.1303  2.2210 -0.7518
  279ACOH    H210939   2.024   5.068   2.102  0.2506 -0.7912  0.0099
  279ACOH    H310940   2.180   5.017   2.014 -0.8268 -0.3428  0.5706
  281ACOH    H410941   6.031   7.280   3.199 -1.4274 -0.7197  2.9458
  281ACOH    O210942   5.959   7.265   3.135  0.8285  0.0538  0.1319
  281ACOH    C210943   5.848   7.229   3.205  0.0869  0.5105  0.0812
  281ACOH    O110944   5.814   7.278   3.314 -0.1280  0.9938 -0.3207
  281ACOH    C110945   5.742   7.148   3.133  0.1029  0.1714 -0.0627
  281ACOH    H110946   5.773   7.120   3.033  0.7075  2.1116 -0.4339
  281ACOH    H210947   5.651   7.206   3.115 -0.4290 -0.7108 -0.2720
  281ACOH    H310948   5.716   7.056   3.186 -0.6690  0.8953  0.8525
  282ACOH    H410949   7.752   5.412   0.400  2.9976  0.6244 -0.5163
  282ACOH    O210950   7.728   5.439   0.310 -0.2594  0.2270  0.1694
  282ACOH    C210951   7.639   5.536   0.322  0.3519 -0.6589  1.3642
  282ACOH    O110952   7.625   5.606   0.423  0.1226  0.7059  0.1378
  282ACOH    C110953   7.589   5.580   0.192 -0.3621  0.1372  1.0118
  282ACOH    H110954   7.633   5.519   0.113 -1.5949  0.7561 -0.1797
  282ACOH    H210955   7.624   5.682   0.175  0.1295 -0.3844 -1.2873
  282ACOH    H310956   7.481   5.574   0.180 -0.1933 -1.6193  0.2852
  283ACOH    H410957   5.121   4.575   4.136  3.0413  2.2567 -0.9072
  283ACOH    O210958   5.055   4.646   4.134 -0.1058 -0.5647 -0.0255
  283ACOH    C210959   5.015   4.654   4.008 -0.9766 -0.2348 -0.3079
  283ACOH    O110960   5.082   4.607   3.916  0.5452 -0.0883 -0.1301
  283ACOH    C110961   4.944   4.791   3.998 -0.0079  0.0004 -0.0112
  283ACOH    H110962   5.014   4.873   4.012  0.9740 -0.6245 -1.1698
  283ACOH    H210963   4.867   4.801   4.074  0.5477  2.2175  0.2916
  283ACOH    H310964   4.896   4.800   3.900 -1.5817  2.1422  0.9043
  284ACOH    H410965   8.351   8.011   2.032  1.4461  0.6039  1.9742
  284ACOH    O210966   8.382   8.063   1.956 -0.2279 -0.0160  0.8557
  284ACOH    C210967   8.374   8.193   1.986 -0.0632  0.0520  0.1822
  284ACOH    O110968   8.324   8.238   2.088 -0.2060 -0.0275  0.1116
  284ACOH    C110969   8.440   8.267   1.876 -0.1340  0.2016  0.2884
  284ACOH    H110970   8.395   8.256   1.777 -1.9099  2.8707  0.7441
  284ACOH    H210971   8.547   8.248   1.873 -0.1427  0.3894 -2.1586
  284ACOH    H310972   8.430   8.373   1.900 -2.0968 -0.3271  1.9270
  285ACOH    H410973   5.174   7.874   1.612 -0.7421 -0.1331 -0.3400
  285ACOH    O210974   5.189   7.885   1.516 -0.3838  0.3089 -0.2399
  285ACOH    C210975   5.325   7.893   1.502  0.3147 -0.9439  0.0073
  285ACOH    O110976   5.399   7.848   1.588  0.0705 -0.9732 -0.0857
  285ACOH    C110977   5.359   7.909   1.364 -0.6650  0.3456 -0.2415
  285ACOH    H110978   5.442   7.979   1.353 -1.4069  1.2970  0.1313
  285ACOH    H210979   5.275   7.954   1.312 -2.6792 -2.2512  0.6734
  285ACOH    H310980   5.387   7.809   1.330 -1.3584 -0.7905  2.3613
  286ACOH    H410981   4.646   5.143   5.227 -0.2442  0.3350 -0.2438
  286ACOH    O210982   4.742   5.130   5.225 -0.2508  0.1281  0.5357
  286ACOH    C210983   4.790   5.061   5.331  0.2196  0.3145  0.2438
  286ACOH    O110984   4.725   5.050   5.434 -0.2102  0.0289  0.0398
  286ACOH    C110985   4.917   4.989   5.297  0.1377 -0.1672 -0.0680
  286ACOH    H110986   4.975   5.045   5.224  0.7842 -1.2437 -0.4024
  286ACOH    H210987   4.875   4.901   5.248  0.0345  1.4179 -2.9282
  286ACOH    H310988   4.976   4.964   5.386  1.7443  0.5923 -0.9171
  287ACOH    H410989   5.103   8.900   0.569  0.8780  0.8911  0.8619
  287ACOH    O210990   5.161   8.852   0.631  0.2887 -0.4878  0.3599
  287ACOH    C210991   5.212   8.752   0.557  0.5357 -0.5611  0.3536
  287ACOH    O110992   5.182   8.717   0.443 -0.4735  0.1780  0.1665
  287ACOH    C110993   5.325   8.692   0.626  0.4616  0.3443  0.0657
  287ACOH    H110994   5.389   8.773   0.660  0.6854  0.1824  0.0304
  287ACOH    H210995   5.378   8.626   0.558 -0.9387 -1.0734  0.3161
  287ACOH    H310996   5.298   8.647   0.721  3.4762 -0.2618  0.6710
  288ACOH    H410997   8.088   4.525   2.196 -1.2716 -3.1960 -2.0772
  288ACOH    O210998   8.002   4.558   2.165 -0.6283  0.1783 -0.5207
  288ACOH    C210999   7.995   4.682   2.218 -1.1091  0.2838 -0.0575
  288ACOH    O111000   8.059   4.723   2.311  0.3504  0.0287  0.0468
  288ACOH    C111001   7.873   4.736   2.164 -0.1772 -0.8809  0.1753
  288ACOH    H111002   7.834   4.667   2.089  1.4068  0.1442 -1.6404
  288ACOH    H211003   7.889   4.837   2.127  1.4846 -0.6635  1.4094
  288ACOH    H311004   7.795   4.732   2.240 -1.9586 -0.5248 -1.5927
  289ACOH    H411005   7.100   0.179   0.998 -1.0021  0.4346  0.7096
  289ACOH    O211006   7.071   0.173   0.906 -0.0980 -0.5069  0.4805
  289ACOH    C211007   7.188   0.154   0.835  0.8399  0.4781  0.3250
  289ACOH    O111008   7.214   0.206   0.725 -0.3168 -0.5479 -0.1087
  289ACOH    C111009   7.302   0.102   0.910  0.1037 -0.5581  0.0494
  289ACOH    H111010   7.304   0.168   0.996  2.7696 -0.2516 -0.2025
  289ACOH    H211011   7.400   0.110   0.861  0.9930  0.2880  1.9069
  289ACOH    H311012   7.277   0.003   0.948 -3.3440  0.2615 -0.0010
  290ACOH    H411013   6.437   7.172   4.151  1.0727 -0.0851 -0.9902
  290ACOH    O211014   6.415   7.082   4.123 -0.6785 -0.2147  0.6376
  290ACOH    C211015   6.437   7.090   3.991  0.7131 -0.4372 -0.6694
  290ACOH    O111016   6.545   7.128   3.951  0.3611  0.4955 -0.3331
  290ACOH    C111017   6.350   6.995   3.918  0.0754  0.3315 -0.1311
  290ACOH    H111018   6.385   6.994   3.815  1.2810 -0.5934  0.2743
  290ACOH    H211019   6.251   7.039   3.925  0.7289  1.9670 -0.7618
  290ACOH    H311020   6.349   6.894   3.959 -1.8171  0.1833 -0.5077
  293ACOH    H411021   4.815   5.932   2.796  0.1044 -2.5906  0.3514
  293ACOH    O211022   4.912   5.942   2.796 -0.1890  0.8031 -0.2792
  293ACOH    C211023   4.960   5.845   2.874  0.3357 -0.6116  0.6758
  293ACOH    O111024   4.891   5.758   2.923  0.2418 -0.5356 -1.0122
  293ACOH    C111025   5.106   5.855   2.892  0.4045 -0.0697  0.0673
  293ACOH    H111026   5.143   5.887   2.795 -0.8264  0.8857 -0.0852
  293ACOH    H211027   5.154   5.760   2.918 -1.2321 -1.5744 -2.2572
  293ACOH    H311028   5.118   5.929   2.971  1.3356 -0.5738  0.4121
  294ACOH    H411029   5.375   3.793   3.278  1.2136  0.8829  1.9965
  294ACOH    O211030   5.466   3.802   3.244  0.5550 -0.8517 -0.2958
  294ACOH    C211031   5.515   3.679   3.209 -0.0049  0.3395  0.2594
  294ACOH    O111032   5.493   3.581   3.275 -0.1651 -0.2915  0.5244
  294ACOH    C111033   5.641   3.692   3.134 -0.4585 -0.2339 -0.2995
  294ACOH    H111034   5.623   3.683   3.027  1.3392 -2.0093 -0.4922
  294ACOH    H211035   5.717   3.618   3.160 -0.5147 -0.2954 -0.3112
  294ACOH    H311036   5.685   3.789   3.157 -0.5536 -0.8116  2.5013
  295ACOH    H411037   7.006   2.674   4.074 -1.6722  0.3685  1.1084
  295ACOH    O211038   6.982   2.761   4.037 -0.1621  0.4615  0.3005
  295ACOH    C211039   6.867   2.803   4.091  0.3394  0.2502 -0.4538
  295ACOH    O111040   6.787   2.732   4.145 -0.1877 -0.4141  0.3303
  295ACOH    C111041   6.851   2.949   4.069 -0.2692  0.5573  0.6440
  295ACOH    H111042   6.769   2.980   4.134  0.2573  0.9724  1.1237
  295ACOH    H211043   6.827   2.966   3.964  0.5880  2.4775  0.7421
  295ACOH    H311044   6.940   3.005   4.099  1.2842 -2.4937  1.9595
  296ACOH    H411045   3.390   0.619   0.521  0.3362 -0.5537  1.3925
  296ACOH    O211046   3.318   0.554   0.524  0.0998 -0.3862 -0.2551
  296ACOH    C211047   3.196   0.616   0.514  0.1262 -0.2939 -0.1623
  296ACOH    O111048   3.171   0.716   0.443  0.6820 -0.2935  0.5069
  296ACOH    C111049   3.095   0.519   0.554  0.2694 -0.1194 -0.0874
  296ACOH    H111050   3.116   0.419   0.590 -1.3243 -0.2675  0.4780
  296ACOH    H211051   3.013   0.511   0.483 -0.5330  0.0414  0.8146
  296ACOH    H311052   3.052   0.570   0.640 -0.7319  0.9180 -1.1911
  297ACOH    H411053   8.147   6.772   0.996 -0.2852  0.5070  0.3450
  297ACOH    O211054   8.095   6.712   1.052  0.0022 -0.2636 -0.2058
  297ACOH    C211055   8.094   6.592   0.997  0.4085 -0.3026  0.1503
  297ACOH    O111056   8.125   6.564   0.882 -0.0164  0.4628  0.1585
  297ACOH    C111057   8.056   6.494   1.099 -0.7189 -0.3190 -0.1277
  297ACOH    H111058   7.962   6.449   1.065 -0.4510 -0.0593 -1.2473
  297ACOH    H211059   8.032   6.548   1.191 -0.7900  0.9613 -0.8756
  297ACOH    H311060   8.120   6.407   1.103  2.1279  1.6998 -0.6098
  301ACOH    H411061   8.224   7.815   6.808 -1.6814  2.5625  0.1683
  301ACOH    O211062   8.143   7.760   6.807  0.1428 -0.2207 -0.6960
  301ACOH    C211063   8.108   7.749   6.677  0.1345 -0.8055  0.5600
  301ACOH    O111064   8.186   7.763   6.583 -0.5327  0.3171  0.1702
  301ACOH    C111065   7.981   7.673   6.668  0.3058 -0.7780 -0.3980
  301ACOH    H111066   8.003   7.572   6.634 -1.0838 -1.1159 -0.3280
  301ACOH    H211067   7.914   7.725   6.599  0.9123  0.0217 -0.3841
  301ACOH    H311068   7.933   7.657   6.765 -1.2788  0.8564 -0.8679
  302ACOH    H411069   0.024   2.526   5.029 -0.2682  0.0580 -0.6467
  302ACOH    O211070   0.076   2.606   5.008 -0.4516  0.4083  0.2474
  302ACOH    C211071   0.183   2.600   5.087 -0.3110  0.1545 -0.1903
  302ACOH    O111072   0.203   2.523   5.179 -0.8615  0.3006 -0.3314
  302ACOH    C111073   0.259   2.725   5.070 -0.2380 -0.0148  0.5663
  302ACOH    H111074   0.344   2.708   5.137 -0.7245 -3.0608  0.4875
  302ACOH    H211075   0.195   2.806   5.103 -2.7952 -1.1703 -1.3971
  302ACOH    H311076   0.288   2.738   4.966  1.3054 -1.8036  0.7284
  303ACOH    H411077   7.989   1.978   1.796  1.2840 -0.2092  1.0963
  303ACOH    O211078   7.928   2.002   1.868 -0.5103 -0.6505 -0.2687
  303ACOH    C211079   7.875   1.884   1.901 -0.3225 -0.2751  0.8096
  303ACOH    O111080   7.923   1.777   1.877 -0.4135  0.3919  0.1115
  303ACOH    C111081   7.760   1.921   1.985 -0.8337 -0.7774  0.0771
  303ACOH    H111082   7.700   1.997   1.935  1.0501  1.5796  1.3149
  303ACOH    H211083   7.801   1.974   2.071 -0.3352  0.2289 -0.7747
  303ACOH    H311084   7.702   1.837   2.023 -0.0510 -1.3376  0.0512
  304ACOH    H411085   7.577   3.392   2.373  0.2793  0.4015  0.1029
  304ACOH    O211086   7.604   3.301   2.352 -0.2690  0.1461  0.4882
  304ACOH    C211087   7.667   3.244   2.457 -0.3069  0.1264 -0.2131
  304ACOH    O111088   7.701   3.296   2.562 -0.6746 -0.2982 -0.0442
  304ACOH    C111089   7.702   3.109   2.419 -0.6942 -0.2447 -0.0098
  304ACOH    H111090   7.787   3.102   2.350  0.2538  1.4380  0.9596
  304ACOH    H211091   7.624   3.056   2.365 -1.6116  0.8493  0.2324
  304ACOH    H311092   7.730   3.052   2.508 -2.2827 -1.9035 -0.5457
  306ACOH    H411093   3.946   7.971   0.274 -0.1279  0.9437 -0.2805
  306ACOH    O211094   4.007   7.929   0.337 -0.1538  0.4990 -0.5523
  306ACOH    C211095   4.114   8.010   0.354 -0.2921  0.7338 -0.2108
  306ACOH    O111096   4.139   8.109   0.293  0.1156  0.0235  0.1095
  306ACOH    C111097   4.182   7.973   0.479 -0.3607  0.0527  0.0397
  306ACOH    H111098   4.145   7.875   0.510 -0.2227 -0.3169 -0.9695
  306ACOH    H211099   4.156   8.040   0.561 -0.2009  0.2919 -0.1057
  306ACOH    H311100   4.291   7.969   0.477 -0.3158 -1.8472  2.6119
  307ACOH    H411101   4.127   6.480   4.129  0.7558  1.0440 -0.5397
  307ACOH    O211102   4.209   6.429   4.130  0.2773  0.2668 -0.2204
  307ACOH    C211103   4.314   6.518   4.133  0.2414 -0.9299  0.6242
  307ACOH    O111104   4.298   6.640   4.131 -0.4688 -0.0547  0.4504
  307ACOH    C111105   4.445   6.453   4.101 -0.3260  0.2100 -0.1614
  307ACOH    H111106   4.476   6.386   4.181  0.9854 -0.2002 -0.9955
  307ACOH    H211107   4.537   6.507   4.079 -2.7359  3.2632 -3.4896
  307ACOH    H311108   4.418   6.394   4.014  0.7434 -2.7154  1.4452
  308ACOH    H411109   9.672   9.734   3.656 -0.0747  0.2091  2.0096
  308ACOH    O211110   9.737   9.662   3.653 -0.2417  0.1360 -0.2284
  308ACOH    C211111   9.797   9.657   3.528 -0.2701 -0.0607 -0.1587
  308ACOH    O111112   9.774   9.725   3.431 -0.3866 -0.0366 -0.1786
  308ACOH    C111113   9.886   9.534   3.529  0.7921  0.0041  0.0115
  308ACOH    H111114   9.953   9.538   3.443  0.2504  1.8710 -0.3508
  308ACOH    H211115   9.824   9.448   3.504  2.1142 -0.4081 -2.0016
  308ACOH    H311116   9.947   9.521   3.618  0.9331 -2.4607 -0.4054
  309ACOH    H411117   3.738   9.201   1.010  1.8229  1.7747 -0.9735
  309ACOH    O211118   3.721   9.168   0.920  0.0100  0.0512 -0.0523
  309ACOH    C211119   3.672   9.043   0.915  0.0658  0.2358  0.1600
  309ACOH    O111120   3.658   8.970   1.014 -0.2878 -0.1532  0.1116
  309ACOH    C111121   3.656   8.990   0.777 -0.0008  0.4689 -0.5856
  309ACOH    H111122   3.553   8.955   0.779 -0.4299  1.7904  2.2020
  309ACOH    H211123   3.725   8.911   0.749  1.1882  1.8513 -1.6000
  309ACOH    H311124   3.652   9.076   0.711  0.4111 -0.1689 -1.4619
  310ACOH    H411125   7.431   1.480   3.432  0.7486 -1.7983 -0.6129
  310ACOH    O211126   7.449   1.464   3.526 -0.2871 -0.5047 -0.1956
  310ACOH    C211127   7.487   1.584   3.574  0.1462 -0.0773 -0.1578
  310ACOH    O111128   7.494   1.691   3.516  0.0206 -0.4027  0.3236
  310ACOH    C111129   7.507   1.572   3.720 -0.0046  0.0436  0.5084
  310ACOH    H111130   7.553   1.476   3.744  3.0588  1.8356  1.9948
  310ACOH    H211131   7.408   1.561   3.764 -1.0475  1.2135 -1.4726
  310ACOH    H311132   7.564   1.660   3.750  0.5319  0.5396 -1.9047
  311ACOH    H411133   5.592   5.955   2.631 -0.3514 -4.3310 -1.5085
  311ACOH    O211134   5.683   5.967   2.598 -0.1267 -0.2199  0.2871
  311ACOH    C211135   5.680   6.093   2.547 -0.1120  0.4077  0.4684
  311ACOH    O111136   5.597   6.184   2.562  0.3057 -0.2657 -0.1478
  311ACOH    C111137   5.811   6.123   2.478 -0.1898 -0.2496 -0.1375
  311ACOH    H111138   5.821   6.082   2.378  3.2537 -1.0565  0.4856
  311ACOH    H211139   5.887   6.069   2.534 -1.1418 -1.1558  0.2967
  311ACOH    H311140   5.851   6.225   2.477  0.3731 -0.4322  1.6831
  312ACOH    H411141   6.626   3.135   2.958 -0.0720  0.5894 -0.4874
  312ACOH    O211142   6.536   3.109   2.981  0.1463  0.5952  0.3740
  312ACOH    C211143   6.507   2.977   2.943 -1.1476 -0.0688 -0.4603
  312ACOH    O111144   6.586   2.899   2.895  0.0515 -0.2809  0.0180
  312ACOH    C111145   6.369   2.925   2.970 -0.1299 -0.3810 -0.4925
  312ACOH    H111146   6.356   2.817   2.971  0.0683 -0.4065  0.5427
  312ACOH    H211147   6.303   2.986   2.909  0.8123  0.5012 -0.6503
  312ACOH    H311148   6.354   2.957   3.073  1.2903  1.0655 -0.7171
  313ACOH    H411149   2.787   7.128   4.932  1.2724  0.3645  1.0945
  313ACOH    O211150   2.821   7.134   4.841  0.7509 -0.0075  0.8772
  313ACOH    C211151   2.724   7.077   4.765 -0.3103 -0.0108 -0.3302
  313ACOH    O111152   2.608   7.084   4.803 -0.2924 -0.1013  0.1136
  313ACOH    C111153   2.768   7.071   4.620  0.4575 -0.3100  0.3492
  313ACOH    H111154   2.875   7.048   4.615  0.4747 -0.0114 -0.6516
  313ACOH    H211155   2.748   7.170   4.579  2.3285 -0.2893 -0.5507
  313ACOH    H311156   2.715   6.991   4.569  0.8705 -0.7490  0.6041
  314ACOH    H411157   4.007   6.082   4.593  0.1319  0.9435  0.2229
  314ACOH    O211158   4.044   6.085   4.503 -0.1425  0.1760  0.0807
  314ACOH    C211159   3.968   6.169   4.438 -0.1186  0.5165 -0.1848
  314ACOH    O111160   3.862   6.211   4.479 -0.5125  0.0182 -0.1515
  314ACOH    C111161   4.033   6.195   4.301 -0.0653  0.3673 -0.2004
  314ACOH    H111162   3.973   6.269   4.249  0.9730  2.3613  1.3482
  314ACOH    H211163   4.030   6.106   4.238 -0.6360  1.0199 -1.1087
  314ACOH    H311164   4.137   6.225   4.308  0.2307 -0.2321 -1.8488
  315ACOH    H411165   4.885   4.277   0.350  0.6597 -0.1279 -0.9014
  315ACOH    O211166   4.954   4.215   0.380 -0.2117 -0.7037 -0.0887
  315ACOH    C211167   4.934   4.097   0.317  0.9408  0.8097  0.0382
  315ACOH    O111168   4.860   4.077   0.226 -0.1535 -0.0748  0.1482
  315ACOH    C111169   5.021   3.996   0.373 -0.3780  0.7263 -0.0965
  315ACOH    H111170   5.117   4.046   0.358  0.4809 -0.7912  0.2179
  315ACOH    H211171   5.026   3.904   0.314 -0.1115  0.0923  0.9022
  315ACOH    H311172   5.005   3.995   0.481 -0.0842  1.3896 -0.0470
  316ACOH    H411173   8.400   7.301  -0.157 -0.7901  0.0711 -1.0479
  316ACOH    O211174   8.349   7.360  -0.099  0.2588 -0.2387  0.2086
  316ACOH    C211175   8.415   7.384   0.016 -0.3275 -0.1875 -0.0652
  316ACOH    O111176   8.507   7.326   0.058  0.0116 -0.5338 -0.0069
  316ACOH    C111177   8.352   7.490   0.096 -0.4849  0.3324  0.9213
  316ACOH    H111178   8.419   7.516   0.178 -0.3857  1.0132  0.6267
  316ACOH    H211179   8.262   7.444   0.137 -0.8523  0.4616  0.2533
  316ACOH    H311180   8.334   7.578   0.035  1.8133 -1.1571 -2.0235
  317ACOH    H411181   8.223   8.407   0.013 -0.8043 -0.7164 -0.2638
  317ACOH    O211182   8.171   8.356   0.078 -0.0256 -0.4823  0.5482
  317ACOH    C211183   8.211   8.225   0.087  0.2748 -0.0539  0.1686
  317ACOH    O111184   8.327   8.192   0.073 -0.6290 -0.3018 -0.3590
  317ACOH    C111185   8.108   8.139   0.141  0.0797  0.1601 -0.6157
  317ACOH    H111186   8.018   8.134   0.080 -0.9343  0.0222  0.8532
  317ACOH    H211187   8.082   8.151   0.246 -1.2894 -0.4735 -0.8779
  317ACOH    H311188   8.145   8.036   0.135 -1.4302 -0.4822  0.6596
  318ACOH    H411189   5.461   7.015   3.295 -2.9968 -3.4046 -0.8949
  318ACOH    O211190   5.502   6.961   3.365  0.0160 -0.3637 -0.1864
  318ACOH    C211191   5.429   6.970   3.476  0.1143 -0.0061 -0.3676
  318ACOH    O111192   5.328   7.045   3.495 -0.4432 -0.0682  0.3953
  318ACOH    C111193   5.481   6.875   3.579  0.2348  0.1190 -0.0248
  318ACOH    H111194   5.407   6.796   3.586  0.5966 -0.1405  1.0634
  318ACOH    H211195   5.509   6.913   3.678  0.6584  0.0515 -0.1170
  318ACOH    H311196   5.575   6.830   3.548  0.5602 -0.0839  1.2076
  319ACOH    H411197   5.589   3.661   0.857 -1.0631  1.4416  0.0459
  319ACOH    O211198   5.659   3.670   0.924 -0.6365 -0.1662 -0.1483
  319ACOH    C211199   5.693   3.799   0.914 -0.1051  0.7505 -0.5756
  319ACOH    O111200   5.672   3.879   0.826 -0.7322  0.0773 -0.5351
  319ACOH    C111201   5.798   3.823   1.021 -0.1427 -0.6632 -0.5089
  319ACOH    H111202   5.748   3.860   1.110 -3.2847 -2.7646 -1.3098
  319ACOH    H211203   5.868   3.901   0.990 -0.5148  0.7065  1.9934
  319ACOH    H311204   5.861   3.736   1.039  2.6009  1.2646 -0.5046
  320ACOH    H411205   3.813   6.712   2.327  0.1371 -1.4563  2.4953
  320ACOH    O211206   3.864   6.640   2.286 -0.0208  0.0093 -0.3590
  320ACOH    C211207   3.928   6.570   2.380 -0.7191 -0.3954 -0.5210
  320ACOH    O111208   3.900   6.577   2.499 -0.3314 -0.0302 -0.4064
  320ACOH    C111209   4.016   6.461   2.321 -0.0237 -0.2811  0.2625
  320ACOH    H111210   3.976   6.366   2.354  1.0230 -1.0648 -0.7054
  320ACOH    H211211   4.114   6.474   2.365 -0.2394  0.7834  0.4552
  320ACOH    H311212   4.022   6.457   2.213 -0.4780 -0.5827  0.2440
  321ACOH    H411213   4.851   7.337   4.889 -0.7982  1.4059  0.6190
  321ACOH    O211214   4.891   7.338   4.978  0.1307  0.5137  0.2206
  321ACOH    C211215   4.799   7.287   5.061  0.7844  0.2096  0.2850
  321ACOH    O111216   4.678   7.265   5.045 -0.1606  0.0868 -0.0803
  321ACOH    C111217   4.852   7.286   5.203  0.4350 -0.0093  0.3362
  321ACOH    H111218   4.957   7.258   5.203  0.4253 -0.0570  0.9839
  321ACOH    H211219   4.808   7.211   5.268  1.3643  0.4142  1.4646
  321ACOH    H311220   4.851   7.382   5.255 -1.3388  0.5449 -0.6670
  323ACOH    H411221   8.027   6.243   2.409 -2.2804  0.2486 -2.9454
  323ACOH    O211222   8.049   6.337   2.411 -0.4500 -0.1895  0.2005
  323ACOH    C211223   8.072   6.368   2.286  0.2859  1.1865  0.5697
  323ACOH    O111224   8.105   6.285   2.203  0.7703  0.7073  0.6772
  323ACOH    C111225   8.082   6.516   2.259  0.4422  0.0422 -0.8924
  323ACOH    H111226   8.144   6.533   2.171  0.5306  2.3010 -0.4184
  323ACOH    H211227   8.138   6.555   2.344 -2.0461 -1.4418  1.5120
  323ACOH    H311228   7.984   6.561   2.248 -0.0089  0.0307  2.5592
  324ACOH    H411229   5.292   2.847   2.753 -0.8036  0.2962  0.7417
  324ACOH    O211230   5.313   2.920   2.814 -0.4439  0.8438 -0.0228
  324ACOH    C211231   5.375   2.874   2.927  0.2592 -0.7525  0.9810
  324ACOH    O111232   5.420   2.761   2.943  0.3634 -0.5131 -0.0664
  324ACOH    C111233   5.394   2.990   3.015  0.5543 -0.0241 -0.5363
  324ACOH    H111234   5.449   2.973   3.108 -1.0977 -0.2249  0.4174
  324ACOH    H211235   5.297   3.027   3.046  1.3854 -0.0313  2.2394
  324ACOH    H311236   5.442   3.075   2.967  0.5461  0.4452  0.2868
  325ACOH    H411237   7.703   4.269   2.654 -1.4601  0.1784 -0.4874
  325ACOH    O211238   7.713   4.336   2.723  0.1902 -0.4062 -0.1260
  325ACOH    C211239   7.720   4.461   2.674 -0.2488  0.3475 -0.6910
  325ACOH    O111240   7.693   4.498   2.561 -0.2446  0.0341 -0.2123
  325ACOH    C111241   7.742   4.563   2.780 -0.3662  0.4782 -0.6971
  325ACOH    H111242   7.717   4.667   2.757  0.1635  0.9003  0.5950
  325ACOH    H211243   7.845   4.575   2.814 -0.6869  0.9201  0.1308
  325ACOH    H311244   7.687   4.536   2.870  0.5420  0.7922 -0.0483
  326ACOH    H411245   5.560   4.228   1.339 -0.1088  0.7479  0.4762
  326ACOH    O211246   5.630   4.258   1.398  0.4221 -0.0188  0.2406
  326ACOH    C211247   5.684   4.372   1.348  0.7040 -0.6785 -0.1916
  326ACOH    O111248   5.640   4.436   1.258  0.0686 -0.3399  0.5446
  326ACOH    C111249   5.778   4.439   1.446 -0.4528 -0.0127 -0.1125
  326ACOH    H111250   5.878   4.459   1.410 -1.2691  3.4589 -0.6505
  326ACOH    H211251   5.792   4.374   1.532 -2.4099 -0.6762 -0.2506
  326ACOH    H311252   5.737   4.532   1.487 -0.3717  0.4911 -1.1666
  327ACOH    H411253   4.560   7.196   1.284 -0.2995 -1.5425  0.7732
  327ACOH    O211254   4.656   7.184   1.281 -0.1885 -0.5805  0.3934
  327ACOH    C211255   4.688   7.210   1.412 -0.5817 -0.2557  0.0627
  327ACOH    O111256   4.631   7.171   1.509 -0.4363  0.2681  0.4480
  327ACOH    C111257   4.818   7.285   1.420  0.3252  0.7375  0.7424
  327ACOH    H111258   4.813   7.382   1.370  1.2911 -0.3777 -1.5866
  327ACOH    H211259   4.898   7.225   1.376 -1.7586 -0.8196 -1.0617
  327ACOH    H311260   4.844   7.306   1.524 -0.4303 -1.6574  1.4539
  328ACOH    H411261   7.481   4.122   2.212  1.7121 -0.3221 -2.6579
  328ACOH    O211262   7.480   4.213   2.179  0.0467  0.5255 -0.4046
  328ACOH    C211263   7.431   4.219   2.056 -0.2542  0.3395  0.4219
  328ACOH    O111264   7.416   4.121   1.979  0.1335 -0.3901  0.4428
  328ACOH    C111265   7.384   4.362   2.031  0.2812 -0.3514 -0.2918
  328ACOH    H111266   7.317   4.390   2.113  0.5063  1.1671 -0.6099
  328ACOH    H211267   7.350   4.378   1.929 -1.9475  0.5070  0.5762
  328ACOH    H311268   7.471   4.427   2.041  1.2110 -1.9685  3.1801
  329ACOH    H411269   6.171   7.430   3.037 -0.5280  1.4987  0.1103
  329ACOH    O211270   6.258   7.401   3.071 -1.2220 -0.5294  0.2514
  329ACOH    C211271   6.266   7.346   3.193 -0.8602 -0.2436 -0.2162
  329ACOH    O111272   6.169   7.340   3.267  0.2869 -0.5961  0.4792
  329ACOH    C111273   6.394   7.273   3.217 -0.8119  0.3515 -0.2206
  329ACOH    H111274   6.383   7.213   3.307  0.7139 -0.3343 -0.4746
  329ACOH    H211275   6.474   7.346   3.232 -1.0089  0.9650 -2.0338
  329ACOH    H311276   6.419   7.209   3.132 -1.5792  1.2502 -1.1388
  331ACOH    H411277   5.061   4.213   2.363  0.7551  0.7970  0.5727
  331ACOH    O211278   5.137   4.152   2.360  0.5783  0.5996  0.0418
  331ACOH    C211279   5.200   4.174   2.247  0.3581  0.0989  0.1554
  331ACOH    O111280   5.188   4.274   2.176  0.1385  0.1173  0.1808
  331ACOH    C111281   5.286   4.061   2.203  0.1548  0.0776  0.3555
  331ACOH    H111282   5.378   4.115   2.182 -0.4729  0.5989 -1.0916
  331ACOH    H211283   5.242   4.030   2.108 -3.5393  1.0998  1.6606
  331ACOH    H311284   5.308   3.980   2.273  1.2379  0.3784  0.3745
  332ACOH    H411285   5.208   9.335   0.085  2.0152  2.0688 -1.7289
  332ACOH    O211286   5.281   9.319   0.147 -0.1495 -0.2459  0.3130
  332ACOH    C211287   5.367   9.234   0.084  0.6134  0.5420 -0.9010
  332ACOH    O111288   5.361   9.182  -0.025  0.3109 -0.2431 -0.4667
  332ACOH    C111289   5.487   9.210   0.167 -0.3522 -0.2792  0.2466
  332ACOH    H111290   5.528   9.300   0.214  1.4827 -1.5756  1.2344
  332ACOH    H211291   5.566   9.168   0.105 -1.2992 -2.1548  0.2752
  332ACOH    H311292   5.462   9.137   0.245  2.2833 -1.4568  0.0572
  333ACOH    H411293   5.295   4.331   3.672 -2.6572 -0.2745  1.8015
  333ACOH    O211294   5.328   4.239   3.672  0.0371  0.5963 -0.4530
  333ACOH    C211295   5.217   4.159   3.644  0.1474 -0.1955  0.8044
  333ACOH    O111296   5.097   4.182   3.662  0.5050 -0.2510 -0.2273
  333ACOH    C111297   5.272   4.029   3.601 -0.1474  0.2558 -0.3547
  333ACOH    H111298   5.295   4.030   3.494 -1.2931 -2.3312 -0.6574
  333ACOH    H211299   5.196   3.954   3.624  1.8051 -0.7825  2.9958
  333ACOH    H311300   5.360   4.005   3.660 -1.3110 -2.4977  0.3419
  334ACOH    H411301   8.122   9.155   6.545 -0.5194 -1.8592  0.0259
  334ACOH    O211302   8.150   9.166   6.638  0.2657  0.0218 -0.4248
  334ACOH    C211303   8.039   9.206   6.703  0.4610 -0.1124  0.3263
  334ACOH    O111304   7.956   9.290   6.665  0.6269  0.4188  0.1279
  334ACOH    C111305   8.052   9.159   6.846 -0.0308  1.0016  0.5467
  334ACOH    H111306   7.976   9.215   6.900 -0.5701  1.1711 -0.3806
  334ACOH    H211307   8.155   9.169   6.882 -0.1532  0.7393  0.9811
  334ACOH    H311308   8.019   9.055   6.853  0.7963  0.7036  0.1530
  336ACOH    H411309   1.355   2.100   3.821 -0.7837  0.1440 -1.6408
  336ACOH    O211310   1.372   2.009   3.792  0.0219 -0.1860 -0.1523
  336ACOH    C211311   1.407   1.937   3.898 -0.0986 -0.0302 -0.4146
  336ACOH    O111312   1.450   1.974   4.005 -0.1496 -0.8520 -0.9388
  336ACOH    C111313   1.417   1.798   3.856  0.1777  0.1615  0.1500
  336ACOH    H111314   1.360   1.730   3.920  1.0367  0.7960  1.6279
  336ACOH    H211315   1.523   1.775   3.862  0.1569 -0.0222 -0.1706
  336ACOH    H311316   1.385   1.788   3.752 -0.6737  2.1750  0.2010
  337ACOH    H411317   1.490   3.279   3.438  0.5472  0.1265  0.5554
  337ACOH    O211318   1.439   3.240   3.511  0.1339 -0.1181  0.1326
  337ACOH    C211319   1.458   3.111   3.535 -0.7499 -0.1969  0.3613
  337ACOH    O111320   1.512   3.030   3.466 -0.2316  0.2273 -0.8004
  337ACOH    C111321   1.387   3.075   3.658 -0.3760 -0.4919  0.1736
  337ACOH    H111322   1.336   2.980   3.639 -2.9229  1.2734 -2.1861
  337ACOH    H211323   1.298   3.135   3.678 -1.9459 -2.8371  0.4794
  337ACOH    H311324   1.458   3.064   3.740  0.6424 -3.1251 -0.9796
  339ACOH    H411325   5.213   5.007   4.525  0.4789  0.5890 -1.3511
  339ACOH    O211326   5.207   4.936   4.459 -0.1268 -0.5717 -0.0913
  339ACOH    C211327   5.330   4.905   4.423  0.6003  0.7833  0.4430
  339ACOH    O111328   5.429   4.919   4.493  0.1013  0.4478  0.0189
  339ACOH    C111329   5.337   4.807   4.304 -0.1139  0.1077  0.2442
  339ACOH    H111330   5.412   4.840   4.232 -1.3379  0.3911 -0.9038
  339ACOH    H211331   5.241   4.815   4.254 -0.0539  1.4388  0.3357
  339ACOH    H311332   5.361   4.706   4.338  1.9326  0.7926  0.9602
  341ACOH    H411333   0.707   2.020   2.813  0.5135 -2.2014 -1.8657
  341ACOH    O211334   0.720   1.960   2.888 -0.0500 -0.2681 -0.1823
  341ACOH    C211335   0.624   1.996   2.967  0.4981 -0.2371 -0.1572
  341ACOH    O111336   0.564   2.102   2.974 -0.0662 -0.1452  0.8735
  341ACOH    C111337   0.633   1.899   3.078  0.9780  0.3866 -0.2804
  341ACOH    H111338   0.733   1.903   3.123  1.0625  1.8670 -0.5867
  341ACOH    H211339   0.617   1.798   3.041  2.0552  0.1742 -0.1908
  341ACOH    H311340   0.563   1.923   3.157 -1.5167  0.0012 -2.3252
  344ACOH    H411341   7.890   4.139   3.508 -0.0848  1.0102 -0.5017
  344ACOH    O211342   7.866   4.080   3.434  0.1706  0.2407  0.0178
  344ACOH    C211343   7.906   3.954   3.470 -0.2299  0.5480 -0.6992
  344ACOH    O111344   7.926   3.924   3.584  0.4204  0.3259 -0.1992
  344ACOH    C111345   7.894   3.852   3.365 -0.4713  0.2729  0.4603
  344ACOH    H111346   7.838   3.767   3.403  1.0656 -0.7367  0.4930
  344ACOH    H211347   7.993   3.811   3.344  0.1059  1.6540  0.3537
  344ACOH    H311348   7.845   3.900   3.281  0.0027  0.4784  0.3011
  345ACOH    H411349   7.473   7.275   2.899  1.6575 -0.8883 -1.6884
  345ACOH    O211350   7.418   7.319   2.832  0.4332 -0.2090 -0.2752
  345ACOH    C211351   7.449   7.454   2.855 -0.1363  0.4169 -0.0431
  345ACOH    O111352   7.558   7.508   2.869 -0.3636  0.2887 -0.4223
  345ACOH    C111353   7.334   7.531   2.803 -0.1934  0.3578 -0.5803
  345ACOH    H111354   7.335   7.505   2.697  3.0479  1.2747 -0.8056
  345ACOH    H211355   7.349   7.638   2.819  0.5733  0.3033 -0.9450
  345ACOH    H311356   7.244   7.492   2.851  0.5274 -0.2964  0.2309
  347ACOH    H411357   5.105   5.269   3.689  0.8346 -3.1314  1.1659
  347ACOH    O211358   5.184   5.319   3.714 -0.6953  0.1668 -0.1686
  347ACOH    C211359   5.197   5.414   3.618 -0.0993  0.0191 -0.2581
  347ACOH    O111360   5.168   5.398   3.502  0.4780  0.0090  0.4466
  347ACOH    C111361   5.280   5.525   3.674  0.0309  0.0853  0.0908
  347ACOH    H111362   5.271   5.620   3.622 -0.5483 -1.0652 -1.9889
  347ACOH    H211363   5.385   5.494   3.664  0.0443 -0.1483  0.9099
  347ACOH    H311364   5.248   5.530   3.778  3.3034 -0.3090  1.1866
  348ACOH    H411365   6.918   7.631   5.512  1.3308 -3.6452  0.9141
  348ACOH    O211366   7.009   7.663   5.524  0.4151  0.1068 -1.2051
  348ACOH    C211367   7.015   7.801   5.533 -0.0154 -0.2470 -0.4371
  348ACOH    O111368   6.923   7.879   5.528  0.0510  0.4726  0.0180
  348ACOH    C111369   7.159   7.841   5.528  0.4681 -0.0610 -0.0592
  348ACOH    H111370   7.184   7.924   5.595 -0.5814  2.5565 -2.7954
  348ACOH    H211371   7.196   7.867   5.429 -0.0190 -1.1173 -0.5289
  348ACOH    H311372   7.209   7.751   5.564  1.6959  0.1888 -1.1135
  349ACOH    H411373   9.902  -0.115   6.630  2.2014 -0.0633 -1.1278
  349ACOH    O211374   9.907  -0.018   6.631 -0.2949  0.0781  0.1962
  349ACOH    C211375   9.819   0.032   6.720  0.2751  0.1373  0.0626
  349ACOH    O111376   9.722  -0.034   6.760 -0.5906  0.2266 -0.3577
  349ACOH    C111377   9.819   0.178   6.725  0.5551  0.2438 -0.3756
  349ACOH    H111378   9.812   0.222   6.824 -0.2487 -0.2927 -0.1929
  349ACOH    H211379   9.733   0.206   6.664  0.5137 -0.9824 -0.8851
  349ACOH    H311380   9.912   0.204   6.673 -0.8511  1.9670 -2.1443
  350ACOH    H411381   5.862   2.336   2.995 -2.2808 -0.4298 -0.3567
  350ACOH    O211382   5.877   2.258   2.940 -0.5376 -0.2031 -0.2449
  350ACOH    C211383   5.855   2.302   2.816  0.1798 -0.5118  0.7988
  350ACOH    O111384   5.821   2.414   2.770  0.0162  0.5961 -0.1857
  350ACOH    C111385   5.903   2.206   2.712 -0.7835 -0.2809  0.9387
  350ACOH    H111386   5.951   2.255   2.628  2.5286 -0.5834  2.5668
  350ACOH    H211387   5.818   2.148   2.677  0.8297 -1.4132 -1.1623
  350ACOH    H311388   5.970   2.135   2.761 -1.1946 -0.3546  1.4008
  351ACOH    H411389   7.676   1.553   1.740  0.5251 -0.6934  0.9859
  351ACOH    O211390   7.589   1.524   1.773 -0.0217 -0.3598 -0.1301
  351ACOH    C211391   7.577   1.562   1.903 -0.4243  0.1598 -0.5520
  351ACOH    O111392   7.659   1.599   1.985  0.1978  0.1982  0.0909
  351ACOH    C111393   7.437   1.525   1.943 -0.0133 -0.1095  0.3518
  351ACOH    H111394   7.404   1.435   1.892 -0.3625 -0.0722  0.5099
  351ACOH    H211395   7.364   1.605   1.924 -1.2027 -1.2561  0.0258
  351ACOH    H311396   7.422   1.507   2.049 -0.5493  1.1390  0.5050
  352ACOH    H411397   5.200   0.877   4.785  0.9185 -1.1057  0.4622
  352ACOH    O211398   5.162   0.851   4.870 -0.7293  0.1181  0.1176
  352ACOH    C211399   5.149   0.721   4.854 -0.4681  0.5757  0.1931
  352ACOH    O111400   5.180   0.654   4.759 -0.8991 -0.4522  0.2424
  352ACOH    C111401   5.079   0.668   4.970  0.4392  0.5589  0.6471
  352ACOH    H111402   5.147   0.614   5.036 -0.3498 -2.3780 -0.8851
  352ACOH    H211403   4.997   0.603   4.940 -0.2417  1.3612  0.7256
  352ACOH    H311404   5.026   0.738   5.036 -1.7295 -0.1829 -0.2605
  353ACOH    H411405   3.179   3.756   3.900 -0.4429 -0.5954  0.9452
  353ACOH    O211406   3.115   3.798   3.839  0.1202 -0.1045  0.6910
  353ACOH    C211407   3.171   3.846   3.725  0.4069  0.3376 -0.0951
  353ACOH    O111408   3.280   3.818   3.685  0.0043  0.3340 -0.0024
  353ACOH    C111409   3.091   3.936   3.642 -0.0254  0.5048  0.3423
  353ACOH    H111410   3.014   3.987   3.699  0.1114  3.9906 -2.4105
  353ACOH    H211411   3.049   3.894   3.551  0.4917  2.2882 -0.7606
  353ACOH    H311412   3.161   4.012   3.606  0.4835  0.8613  2.0553
  354ACOH    H411413   8.359   6.636   6.564  1.0299 -1.1421  1.0565
  354ACOH    O211414   8.272   6.604   6.594  0.2712  0.4157  0.5842
  354ACOH    C211415   8.272   6.629   6.730  0.0809 -0.2167  0.2889
  354ACOH    O111416   8.294   6.741   6.782 -0.1729  0.7804 -0.3171
  354ACOH    C111417   8.162   6.542   6.785 -0.6006 -0.0254  0.3632
  354ACOH    H111418   8.169   6.540   6.894 -0.9871 -3.8034  0.3983
  354ACOH    H211419   8.172   6.440   6.747  0.2324 -0.5238  1.8606
  354ACOH    H311420   8.070   6.596   6.762  0.0702  1.8239  1.8719
  355ACOH    H411421   5.452   3.413   3.406  2.1858  0.5975  0.0537
  355ACOH    O211422   5.439   3.352   3.480  0.3662 -0.0494 -0.7856
  355ACOH    C211423   5.521   3.246   3.461  0.2986 -0.8005 -0.7302
  355ACOH    O111424   5.622   3.234   3.397  0.5797  0.2446 -0.1448
  355ACOH    C111425   5.479   3.129   3.543 -0.4583 -0.8549  0.2382
  355ACOH    H111426   5.451   3.044   3.480  2.0485 -0.1474 -1.8957
  355ACOH    H211427   5.394   3.152   3.607 -2.2407 -0.0583 -2.3886
  355ACOH    H311428   5.554   3.092   3.614 -1.4378 -1.1326  1.1445
  356ACOH    H411429   5.715   3.267   3.254  2.2492 -3.0760  0.1554
  356ACOH    O211430   5.757   3.297   3.172 -0.7549 -0.3467 -0.5243
  356ACOH    C211431   5.659   3.302   3.080 -0.8312  0.4148 -0.1969
  356ACOH    O111432   5.542   3.273   3.096  1.0129  0.2290  0.2322
  356ACOH    C111433   5.718   3.355   2.957  0.1391 -0.3842  0.4762
  356ACOH    H111434   5.799   3.295   2.917  0.9294  2.4039 -2.3286
  356ACOH    H211435   5.760   3.454   2.977 -1.6681  0.2199  1.4048
  356ACOH    H311436   5.634   3.366   2.888  0.2905  1.6243  0.5809
  358ACOH    H411437   7.968   5.454   2.993 -0.0562 -0.2189  0.7142
  358ACOH    O211438   7.977   5.365   2.957  0.0820 -0.0946  0.4413
  358ACOH    C211439   8.057   5.366   2.847 -0.0322 -0.4338  0.6975
  358ACOH    O111440   8.117   5.466   2.813 -0.0355  0.4119  0.3268
  358ACOH    C111441   8.056   5.245   2.764 -0.4630 -0.0253 -0.5199
  358ACOH    H111442   8.104   5.246   2.666 -1.7532  0.5018 -1.1578
  358ACOH    H211443   7.957   5.201   2.749 -1.4013  1.9181 -0.1633
  358ACOH    H311444   8.113   5.176   2.825  1.1322  1.0157 -0.8081
  359ACOH    H411445   3.598   6.007   2.386 -0.3710  1.4292 -0.6503
  359ACOH    O211446   3.663   6.043   2.449 -0.5085  0.7910 -0.1409
  359ACOH    C211447   3.595   6.139   2.511 -0.8087  0.3549 -0.3694
  359ACOH    O111448   3.500   6.199   2.466 -0.7968  0.5227  0.1767
  359ACOH    C111449   3.673   6.192   2.624 -0.7782  0.3159 -0.8960
  359ACOH    H111450   3.771   6.223   2.589  1.0741 -2.7344  1.3104
  359ACOH    H211451   3.685   6.117   2.703 -1.2705  0.4643 -0.6752
  359ACOH    H311452   3.619   6.272   2.675 -0.2166 -1.5150  2.7718
  360ACOH    H411453   8.629   3.432   3.625 -0.2111  0.6024  0.1052
  360ACOH    O211454   8.542   3.468   3.650 -0.4728 -0.1838  0.3148
  360ACOH    C211455   8.462   3.364   3.638  0.7463  0.8159  0.1383
  360ACOH    O111456   8.489   3.257   3.584 -0.0463  0.7026 -0.3738
  360ACOH    C111457   8.321   3.394   3.686 -0.5571  0.0298 -0.2038
  360ACOH    H111458   8.306   3.501   3.678 -0.4418  0.1816  1.3410
  360ACOH    H211459   8.309   3.367   3.791 -1.1336 -0.7493 -0.4655
  360ACOH    H311460   8.246   3.344   3.624 -0.0991  0.5406 -1.1702
  361ACOH    H411461   7.102   6.677   5.513 -0.4080  0.4292 -0.7008
  361ACOH    O211462   7.030   6.619   5.482  0.2107 -0.5206 -0.4073
  361ACOH    C211463   6.994   6.670   5.360 -0.9464  0.0482  0.7015
  361ACOH    O111464   7.060   6.737   5.285 -0.1681  0.9891 -0.3903
  361ACOH    C111465   6.877   6.592   5.310  0.0917 -0.5080 -0.4220
  361ACOH    H111466   6.841   6.631   5.215  0.8967  0.4101 -0.3544
  361ACOH    H211467   6.800   6.602   5.387 -0.3372  2.4842 -1.1938
  361ACOH    H311468   6.905   6.487   5.297 -1.0460 -0.5679 -2.6330
  362ACOH    H411469   5.426   8.075   5.560 -1.7288 -0.8697  0.9840
  362ACOH    O211470   5.488   8.001   5.550 -0.1903  0.5070 -0.0423
  362ACOH    C211471   5.409   7.908   5.488  0.2345  0.2626 -0.2760
  362ACOH    O111472   5.288   7.919   5.472 -0.0870  0.3906  0.0621
  362ACOH    C111473   5.486   7.789   5.453 -0.1810 -0.3409 -0.1067
  362ACOH    H111474   5.472   7.710   5.527 -1.8646  1.2213  1.2989
  362ACOH    H211475   5.590   7.814   5.434 -0.8038  0.0741 -3.2515
  362ACOH    H311476   5.448   7.749   5.359 -0.2139 -0.0447 -0.2203
  363ACOH    H411477   4.781   3.397   0.078  0.7834  2.2190  1.0707
  363ACOH    O211478   4.854   3.337   0.099 -0.0735  0.5043 -0.6422
  363ACOH    C211479   4.832   3.276   0.219 -0.8831 -0.4620 -0.5038
  363ACOH    O111480   4.736   3.298   0.290  0.4826  0.0448 -0.3587
  363ACOH    C111481   4.933   3.171   0.251  0.1126  0.6551 -0.1222
  363ACOH    H111482   5.022   3.212   0.300 -0.7951  4.1433 -1.2695
  363ACOH    H211483   4.964   3.126   0.157 -2.1881  3.5060 -2.3151
  363ACOH    H311484   4.879   3.094   0.306 -0.9254 -0.7542 -2.9994
  365ACOH    H411485   7.574   5.332   0.661 -1.2530 -2.0099  0.0947
  365ACOH    O211486   7.490   5.372   0.635 -0.2657 -0.0203 -0.1003
  365ACOH    C211487   7.453   5.333   0.516 -0.8803 -0.3515  0.2775
  365ACOH    O111488   7.524   5.265   0.443  0.2126  0.5279  0.7610
  365ACOH    C111489   7.325   5.396   0.472  0.4284  0.3836  0.0342
  365ACOH    H111490   7.301   5.362   0.371  1.2210 -0.4919  0.1274
  365ACOH    H211491   7.335   5.504   0.467  1.4520  0.2418 -1.1967
  365ACOH    H311492   7.256   5.368   0.551  1.1797 -0.3859  0.4264
  366ACOH    H411493   7.442   7.453   3.196  0.8163 -0.3146 -0.5481
  366ACOH    O211494   7.386   7.427   3.121  0.0005 -0.2748  0.0496
  366ACOH    C211495   7.282   7.380   3.186 -0.5287  0.7541  0.4986
  366ACOH    O111496   7.287   7.306   3.283  0.3191 -0.1964  0.2140
  366ACOH    C111497   7.157   7.427   3.117 -0.6954 -0.0348  0.1207
  366ACOH    H111498   7.075   7.396   3.181 -2.0402  2.0493 -0.5574
  366ACOH    H211499   7.157   7.374   3.021  2.6061  2.0954 -1.1624
  366ACOH    H311500   7.158   7.533   3.094  0.2062 -0.4061 -1.6775
  368ACOH    H411501   0.957   1.726   2.809 -1.8402  2.1231 -0.9338
  368ACOH    O211502   1.011   1.740   2.730 -0.7423  0.3060 -0.5245
  368ACOH    C211503   1.090   1.635   2.727  0.5343  0.0751  0.6003
  368ACOH    O111504   1.119   1.553   2.813  0.0585 -0.3241  0.7389
  368ACOH    C111505   1.171   1.644   2.603  0.6031  0.0954  0.3626
  368ACOH    H111506   1.115   1.599   2.521 -0.5659 -0.1954  1.2976
  368ACOH    H211507   1.260   1.584   2.625  2.4841  2.5149 -0.4309
  368ACOH    H311508   1.197   1.747   2.578 -0.1968  0.1231 -0.3664
  369ACOH    H411509   4.876   5.109   2.875 -1.4990 -1.6085  1.7796
  369ACOH    O211510   4.874   5.040   2.807  0.7290 -0.1087  0.1200
  369ACOH    C211511   4.845   4.929   2.872 -0.3616  0.1464 -0.8502
  369ACOH    O111512   4.847   4.910   2.993  0.3440 -0.1851 -0.5345
  369ACOH    C111513   4.846   4.815   2.781 -0.4263 -0.1008 -0.0609
  369ACOH    H111514   4.949   4.780   2.776 -1.1985 -2.6969  1.1465
  369ACOH    H211515   4.810   4.831   2.679 -0.2832  0.8427  0.0298
  369ACOH    H311516   4.778   4.740   2.821 -1.3357  1.2189  0.9035
  370ACOH    H411517   7.017   0.157   2.109 -1.8190 -0.1563 -0.7089
  370ACOH    O211518   6.977   0.100   2.177 -0.0853 -0.3838  0.1294
  370ACOH    C211519   7.085   0.056   2.251  0.1102  0.4153 -0.2065
  370ACOH    O111520   7.195   0.031   2.209  0.0561 -0.2507  0.2045
  370ACOH    C111521   7.032  -0.024   2.367  0.1156 -0.6666 -0.2653
  370ACOH    H111522   6.937   0.012   2.406  0.1488 -0.2231 -0.5906
  370ACOH    H211523   7.100  -0.009   2.451  1.0112 -2.9576 -0.5596
  370ACOH    H311524   7.018  -0.132   2.359 -2.2270 -0.4982  1.0455
  371ACOH    H411525   8.491   4.863   3.047  1.5324 -1.5308 -2.0313
  371ACOH    O211526   8.432   4.792   3.076  0.3032  0.1141 -0.4124
  371ACOH    C211527   8.492   4.741   3.179 -0.0774  0.3584 -0.3825
  371ACOH    O111528   8.584   4.796   3.236  0.1045  0.2091 -1.0676
  371ACOH    C111529   8.460   4.598   3.212 -0.1431  0.1093 -0.5003
  371ACOH    H111530   8.501   4.572   3.309 -1.7470  1.6432  0.6269
  371ACOH    H211531   8.510   4.525   3.148 -0.5819 -0.6245 -0.0223
  371ACOH    H311532   8.351   4.588   3.214  0.0456 -2.2511 -0.4590
  372ACOH    H411533   7.604   6.230   3.263 -2.1566 -0.1485 -1.3043
  372ACOH    O211534   7.573   6.138   3.260 -0.4455 -0.7974  0.0728
  372ACOH    C211535   7.573   6.085   3.377  0.0871 -0.4074 -0.0077
  372ACOH    O111536   7.618   6.144   3.476  0.0230  0.2749 -0.7168
  372ACOH    C111537   7.535   5.940   3.371  0.5957 -1.0007  0.6362
  372ACOH    H111538   7.446   5.920   3.311  0.3467  2.6431 -0.3419
  372ACOH    H211539   7.519   5.900   3.471  0.7036 -1.0317  0.6411
  372ACOH    H311540   7.612   5.881   3.322 -0.6901 -1.3545 -1.0002
  374ACOH    H411541   7.092   4.501   1.586 -0.3731  1.3450 -0.1769
  374ACOH    O211542   7.014   4.490   1.643 -0.0455 -0.6837 -0.0920
  374ACOH    C211543   6.927   4.442   1.557 -0.6261  0.5888  0.4291
  374ACOH    O111544   6.902   4.489   1.446  0.2170  0.1407  0.3009
  374ACOH    C111545   6.826   4.384   1.650  0.2482 -0.5488 -0.7223
  374ACOH    H111546   6.859   4.287   1.688 -0.9488 -0.4506  0.6341
  374ACOH    H211547   6.738   4.364   1.589 -1.9416  0.9043  1.8542
  374ACOH    H311548   6.801   4.449   1.734  3.2606  0.5898 -0.6495
  375ACOH    H411549   4.845   5.983   3.091 -0.5445  0.0573  0.6669
  375ACOH    O211550   4.922   6.025   3.133 -0.0649  0.5400 -0.6567
  375ACOH    C211551   4.912   6.148   3.082 -0.2440  0.2020  0.0036
  375ACOH    O111552   4.819   6.193   3.022  0.1697  0.6535  0.1454
  375ACOH    C111553   4.996   6.248   3.151  0.2032  0.1259  0.6829
  375ACOH    H111554   4.935   6.313   3.213 -0.5353  1.7041 -1.6180
  375ACOH    H211555   5.047   6.315   3.082  0.6855 -0.7898  0.1353
  375ACOH    H311556   5.067   6.195   3.214  1.6556  0.1717 -0.8790
  376ACOH    H411557   5.864   6.205   2.085  0.3243  0.5424 -0.2074
  376ACOH    O211558   5.952   6.186   2.047  0.4796 -0.5444  0.6717
  376ACOH    C211559   6.056   6.251   2.098  0.8847  0.3530  0.0208
  376ACOH    O111560   6.048   6.316   2.200  0.7657 -0.0921 -0.0656
  376ACOH    C111561   6.173   6.226   2.016  0.4003  0.3005  0.1862
  376ACOH    H111562   6.154   6.270   1.918  0.3932  0.6961  0.3625
  376ACOH    H211563   6.188   6.119   2.000  0.2160  0.1174  1.1971
  376ACOH    H311564   6.259   6.272   2.065  0.2099 -1.7722  2.5526
  377ACOH    H411565   6.444   1.651   5.524  1.8852  0.8068 -1.6380
  377ACOH    O211566   6.373   1.650   5.457  0.1940  0.5099  0.1085
  377ACOH    C211567   6.436   1.673   5.342  0.3884  0.0025  0.3564
  377ACOH    O111568   6.558   1.674   5.326 -0.1035  0.2463  0.1328
  377ACOH    C111569   6.346   1.701   5.232  0.3468  0.6657 -0.0031
  377ACOH    H111570   6.359   1.639   5.144 -0.9631 -0.4110  0.5387
  377ACOH    H211571   6.368   1.805   5.207  1.8493  0.4204  0.2674
  377ACOH    H311572   6.248   1.692   5.279  1.1422  0.8474  1.7368
  378ACOH    H411573  -0.086   3.852   3.124  0.2249  1.4862  0.4767
  378ACOH    O211574  -0.021   3.842   3.053 -0.3405  0.5992  0.0775
  378ACOH    C211575   0.051   3.732   3.085 -0.2014 -0.1254  0.9331
  378ACOH    O111576   0.019   3.643   3.160 -0.5248 -0.1549 -0.0637
  378ACOH    C111577   0.186   3.725   3.022  0.5797 -0.1388 -0.8092
  378ACOH    H111578   0.246   3.642   3.060  1.8252  0.1721 -2.0516
  378ACOH    H211579   0.236   3.819   3.046  1.0661 -1.1077  2.1809
  378ACOH    H311580   0.197   3.708   2.915  1.2321  1.9322 -1.0884
  379ACOH    H411581   3.893   6.252   0.213 -2.2619  0.6251  1.2900
  379ACOH    O211582   3.852   6.257   0.124 -0.4324 -0.3844  0.3584
  379ACOH    C211583   3.846   6.392   0.088 -0.4776  0.9110 -0.2042
  379ACOH    O111584   3.850   6.479   0.173 -0.8281 -0.1416 -0.6517
  379ACOH    C111585   3.789   6.401  -0.048  0.4858  0.2786 -0.1645
  379ACOH    H111586   3.682   6.421  -0.038  0.2294 -1.3120  0.3612
  379ACOH    H211587   3.806   6.310  -0.105  3.0748 -0.0511  1.0792
  379ACOH    H311588   3.830   6.483  -0.108  1.0973 -0.6448 -1.0224
  380ACOH    H411589   4.048   5.668   0.109 -0.2703 -1.1686  0.4401
  380ACOH    O211590   3.981   5.702   0.047  0.3976  0.3629  0.5365
  380ACOH    C211591   3.976   5.835   0.072  0.4227  0.4433 -0.3609
  380ACOH    O111592   4.001   5.883   0.180  0.3724  0.0486  0.1202
  380ACOH    C111593   3.922   5.904  -0.050  0.4638  0.5368 -0.3492
  380ACOH    H111594   3.906   6.009  -0.025  4.6067  1.3122 -0.6539
  380ACOH    H211595   3.830   5.856  -0.083 -0.1574  2.5063 -1.5402
  380ACOH    H311596   3.993   5.895  -0.132 -0.0310 -1.8179 -0.5453
  381ACOH    H411597   1.143   9.140   1.866  0.2845 -1.3844 -0.0119
  381ACOH    O211598   1.179   9.162   1.778 -0.3282 -0.1833  0.0205
  381ACOH    C211599   1.256   9.066   1.732 -0.2706  0.2747  0.0722
  381ACOH    O111600   1.247   8.949   1.756 -0.7947 -0.0952 -0.0341
  381ACOH    C111601   1.343   9.123   1.629 -0.1449  0.3382  0.2145
  381ACOH    H111602   1.425   9.175   1.679 -1.9178  0.6894  2.8301
  381ACOH    H211603   1.290   9.200   1.572  0.7975  0.4037 -0.5873
  381ACOH    H311604   1.383   9.044   1.566 -0.3552 -1.4735  2.3137
  382ACOH    H411605   5.567   9.840   1.094  0.6993 -1.3436  0.6158
  382ACOH    O211606   5.658   9.845   1.060  0.3461 -0.2264 -0.2003
  382ACOH    C211607   5.711   9.726   1.083  0.6978  0.3219  0.4327
  382ACOH    O111608   5.650   9.623   1.104  0.4374  0.2133 -0.0882
  382ACOH    C111609   5.857   9.732   1.066  0.1368  0.7866 -0.1871
  382ACOH    H111610   5.910   9.653   1.119 -0.8302 -2.0930 -3.3450
  382ACOH    H211611   5.907   9.824   1.099  1.6207  1.0752 -3.0801
  382ACOH    H311612   5.883   9.724   0.960 -1.1969  1.6747 -0.5966
  383ACOH    H411613   4.446   8.302   0.731  0.1971 -0.6221 -1.6565
  383ACOH    O211614   4.532   8.256   0.727  0.5921 -0.0075 -0.2961
  383ACOH    C211615   4.511   8.132   0.782  0.5475 -0.1484  0.2980
  383ACOH    O111616   4.416   8.089   0.840 -0.1466  0.6985  0.1770
  383ACOH    C111617   4.643   8.057   0.777  0.2061 -0.1979  0.0732
  383ACOH    H111618   4.720   8.125   0.815  0.6872 -1.1595  0.8306
  383ACOH    H211619   4.658   8.015   0.678 -0.3634 -0.0628 -0.0750
  383ACOH    H311620   4.642   7.969   0.841 -0.8825 -1.5000 -1.6896
  384ACOH    H411621   7.248   3.141   4.371 -1.2509  2.2862 -0.8379
  384ACOH    O211622   7.181   3.122   4.438 -0.5040  0.8945 -0.4710
  384ACOH    C211623   7.195   2.996   4.482 -0.1797 -0.1281  0.0399
  384ACOH    O111624   7.271   2.907   4.444  0.5103  0.3339 -0.2793
  384ACOH    C111625   7.102   2.976   4.599  0.1551  0.8067 -0.4231
  384ACOH    H111626   7.147   3.013   4.690 -0.1172  0.3243 -0.0880
  384ACOH    H211627   7.073   2.873   4.617 -0.4564  1.1769  0.8023
  384ACOH    H311628   7.018   3.038   4.567  0.5681 -0.2622 -3.7659
  385ACOH    H411629   5.554   2.111   2.890 -0.6951  1.6766  1.1261
  385ACOH    O211630   5.530   2.058   2.968 -0.3314 -0.3083 -0.0707
  385ACOH    C211631   5.603   1.949   2.964  0.7801 -0.0425 -0.1300
  385ACOH    O111632   5.675   1.912   2.874 -0.1854  0.0288  0.0535
  385ACOH    C111633   5.590   1.861   3.083 -0.0315 -0.0597 -0.0465
  385ACOH    H111634   5.642   1.919   3.159  0.4593  0.1568 -0.5430
  385ACOH    H211635   5.639   1.764   3.076 -0.7106 -0.3700 -0.5649
  385ACOH    H311636   5.488   1.853   3.120  0.2029 -2.3076  0.1871
  386ACOH    H411637   5.518   5.054   1.806 -0.1682 -1.1255 -0.4214
  386ACOH    O211638   5.588   5.116   1.833 -0.6036 -0.7726 -0.0678
  386ACOH    C211639   5.679   5.115   1.731 -0.0771  0.7493 -0.4970
  386ACOH    O111640   5.656   5.049   1.624 -0.1566  0.2583  0.1227
  386ACOH    C111641   5.796   5.205   1.757  0.2313 -0.2212 -0.5228
  386ACOH    H111642   5.786   5.257   1.852  1.9019  0.5472 -0.7712
  386ACOH    H211643   5.807   5.276   1.676  1.8030  0.8095  0.5652
  386ACOH    H311644   5.888   5.148   1.760  1.5087  1.8498  0.7358
  387ACOH    H411645   7.881   8.290   2.201  0.6971  1.2010  0.2164
  387ACOH    O211646   7.808   8.342   2.161  0.0551 -0.0212 -0.2159
  387ACOH    C211647   7.847   8.392   2.046 -0.3846 -0.6759 -0.7392
  387ACOH    O111648   7.952   8.375   1.985 -0.0352  0.1141  0.2483
  387ACOH    C111649   7.743   8.492   2.002 -0.4581  0.3374  0.2198
  387ACOH    H111650   7.683   8.445   1.924  0.1374  0.0241 -0.0586
  387ACOH    H211651   7.793   8.579   1.959  1.6341  0.6341  3.1494
  387ACOH    H311652   7.672   8.525   2.078 -1.8674  1.1575 -1.4051
  389ACOH    H411653   4.701   5.308   0.598  1.5558 -1.0311 -0.1736
  389ACOH    O211654   4.720   5.330   0.691 -0.4063 -0.4508  0.1281
  389ACOH    C211655   4.857   5.335   0.682 -0.7352 -0.4338 -0.2191
  389ACOH    O111656   4.928   5.301   0.588 -0.1439 -0.2403  0.0977
  389ACOH    C111657   4.914   5.408   0.797  0.3487 -0.5160  0.5933
  389ACOH    H111658   4.853   5.409   0.888 -0.4395 -1.7577  0.1062
  389ACOH    H211659   4.932   5.510   0.765 -0.1226 -1.1131 -1.6831
  389ACOH    H311660   5.014   5.369   0.817 -0.1189 -1.7107  0.6567
  390ACOH    H411661   8.860   5.913   2.757 -1.8078 -0.2755 -0.3572
  390ACOH    O211662   8.853   5.836   2.815 -0.4982  0.0363  0.2230
  390ACOH    C211663   8.804   5.878   2.933 -0.3613  0.3873 -0.6531
  390ACOH    O111664   8.779   5.991   2.962  0.2241  0.1068 -0.1522
  390ACOH    C111665   8.792   5.762   3.023  0.1861  0.0167  0.1490
  390ACOH    H111666   8.763   5.786   3.125  1.2341 -0.6980  0.6142
  390ACOH    H211667   8.878   5.696   3.017 -0.0311 -0.1503 -1.3274
  390ACOH    H311668   8.715   5.697   2.980  0.2307  0.4097 -0.5383
  391ACOH    H411669   2.909   0.802   5.269  0.2299 -0.0134 -0.9775
  391ACOH    O211670   2.978   0.742   5.236  0.2545 -0.2602 -0.4969
  391ACOH    C211671   3.090   0.802   5.270 -0.2835  0.6449 -0.0659
  391ACOH    O111672   3.104   0.912   5.315  0.2054 -0.4104 -0.4027
  391ACOH    C111673   3.206   0.716   5.239 -1.1917 -0.5558 -0.1503
  391ACOH    H111674   3.296   0.771   5.268  0.5383 -1.7386 -3.0952
  391ACOH    H211675   3.206   0.703   5.131  1.7650  3.2022 -0.7038
  391ACOH    H311676   3.199   0.626   5.301  2.9683 -0.7142  0.2375
  393ACOH    H411677   7.123   8.099   2.229 -0.0429 -0.0857 -0.0697
  393ACOH    O211678   7.205   8.143   2.203 -0.2661  0.3894  0.0261
  393ACOH    C211679   7.302   8.089   2.277 -0.3122 -0.4483  0.0908
  393ACOH    O111680   7.292   8.030   2.385 -0.4305 -0.2489 -1.5593
  393ACOH    C111681   7.439   8.124   2.223  0.8054 -0.6429 -0.0870
  393ACOH    H111682   7.431   8.191   2.138 -1.7091  0.7548  1.1980
  393ACOH    H211683   7.492   8.031   2.199 -1.5425 -1.4535 -2.2474
  393ACOH    H311684   7.489   8.166   2.311  0.2064  2.9089 -1.3796
  394ACOH    H411685   4.765   6.801   1.299  0.0804 -2.1748 -0.9165
  394ACOH    O211686   4.792   6.822   1.208 -0.2708  0.6696 -0.4319
  394ACOH    C211687   4.871   6.929   1.230 -0.0640 -0.5723  0.4361
  394ACOH    O111688   4.955   6.944   1.313  0.1105  0.2458  0.8359
  394ACOH    C111689   4.851   7.026   1.116  0.2390 -0.5326 -0.3993
  394ACOH    H111690   4.913   7.115   1.116 -0.9226  0.2923 -1.2351
  394ACOH    H211691   4.745   7.044   1.099  0.1844 -1.1136 -0.6945
  394ACOH    H311692   4.887   6.974   1.028 -1.4460 -1.1640 -0.7404
  395ACOH    H411693   7.246   2.292   1.309 -0.1223  0.6076 -0.2863
  395ACOH    O211694   7.156   2.287   1.347 -0.0691 -0.1792 -0.2597
  395ACOH    C211695   7.078   2.342   1.258 -0.0618  0.2858 -0.1880
  395ACOH    O111696   7.098   2.364   1.139  0.5101  0.0827  0.3476
  395ACOH    C111697   6.935   2.342   1.301 -0.5973 -1.2416  0.1050
  395ACOH    H111698   6.880   2.266   1.247  0.0418 -0.7373 -1.2708
  395ACOH    H211699   6.890   2.440   1.282 -0.1934 -0.8532  1.1088
  395ACOH    H311700   6.928   2.317   1.407  1.3320 -3.6071 -0.2975
  396ACOH    H411701   8.028   5.565   3.932 -1.3278  0.4723  0.2870
  396ACOH    O211702   8.012   5.520   3.847 -0.2074  0.5933  0.0073
  396ACOH    C211703   7.914   5.583   3.782  0.0233 -0.3384 -0.7691
  396ACOH    O111704   7.865   5.693   3.817 -0.4491  0.3734  0.2559
  396ACOH    C111705   7.871   5.500   3.668 -0.5814  0.7181  0.7716
  396ACOH    H111706   7.848   5.402   3.710  0.5143 -0.4442 -1.2699
  396ACOH    H211707   7.956   5.501   3.600 -1.3146  0.5978 -0.1632
  396ACOH    H311708   7.789   5.543   3.611 -0.0348  1.0466  0.2322
  397ACOH    H411709   5.580   4.240   1.555  0.1622 -1.2164 -0.2606
  397ACOH    O211710   5.574   4.201   1.644 -0.6121 -0.2265  0.1120
  397ACOH    C211711   5.531   4.310   1.721 -0.8751  0.4923 -0.0823
  397ACOH    O111712   5.501   4.414   1.675 -0.1279  0.2122 -0.1731
  397ACOH    C111713   5.517   4.269   1.859  0.0511  0.3420  0.4978
  397ACOH    H111714   5.444   4.188   1.852  0.8296 -0.1881 -1.9090
  397ACOH    H211715   5.473   4.342   1.927 -2.9795 -3.2681  2.6031
  397ACOH    H311716   5.613   4.236   1.899  0.0589 -0.5232 -0.2121
  398ACOH    H411717   5.394   8.484   1.483  0.0797 -0.2201  0.6628
  398ACOH    O211718   5.476   8.435   1.464  0.6192  0.9745 -0.1509
  398ACOH    C211719   5.577   8.519   1.488  0.3846 -0.0832  0.4120
  398ACOH    O111720   5.561   8.634   1.518  0.7619  0.3316  0.2913
  398ACOH    C111721   5.706   8.448   1.481  0.2197 -0.5498 -0.5116
  398ACOH    H111722   5.782   8.517   1.515  1.8810 -2.0303 -1.1327
  398ACOH    H211723   5.733   8.414   1.381  0.8596  2.0222 -1.2454
  398ACOH    H311724   5.704   8.367   1.554  0.8127 -1.3359 -1.3509
  400ACOH    H411725   1.253   6.282   4.325 -1.0034 -0.2111  1.7187
  400ACOH    O211726   1.219   6.372   4.339 -0.1997  0.2810  0.6493
  400ACOH    C211727   1.229   6.412   4.469 -0.4889  0.3495  0.1317
  400ACOH    O111728   1.283   6.350   4.559 -0.1842  0.5928  0.6484
  400ACOH    C111729   1.172   6.539   4.494 -0.2480  0.0210 -0.3464
  400ACOH    H111730   1.188   6.576   4.595  0.5890  0.1928 -0.5437
  400ACOH    H211731   1.065   6.541   4.472  0.0968  1.3302 -2.0035
  400ACOH    H311732   1.212   6.608   4.421 -0.8365 -0.4112 -1.0909
  402ACOH    H411733   5.057   5.839   0.735 -1.6420  0.2026  1.2166
  402ACOH    O211734   5.053   5.887   0.651  0.0390 -0.6579  0.6288
  402ACOH    C211735   5.120   5.998   0.675 -0.1655  0.2168  0.2292
  402ACOH    O111736   5.118   6.064   0.779 -0.2039 -0.1834  0.1438
  402ACOH    C111737   5.129   6.069   0.542 -0.4427  0.1179 -0.3041
  402ACOH    H111738   5.169   5.999   0.468  0.7484  0.9342 -0.4508
  402ACOH    H211739   5.208   6.144   0.548 -0.3775  0.0098  0.2200
  402ACOH    H311740   5.031   6.104   0.512 -0.2660 -0.1628 -1.2193
  403ACOH    H411741   6.413   2.539   4.526  1.1878  0.7077 -0.4614
  403ACOH    O211742   6.420   2.578   4.614  0.1431  0.2587 -0.1777
  403ACOH    C211743   6.465   2.698   4.591  0.1569  0.1172 -0.1525
  403ACOH    O111744   6.469   2.752   4.482  0.4033  0.2658 -0.0023
  403ACOH    C111745   6.487   2.783   4.710  0.0866 -0.1997  0.4037
  403ACOH    H111746   6.489   2.714   4.795  1.3344 -0.1458  0.4317
  403ACOH    H211747   6.409   2.857   4.727  1.1715  1.2578 -0.8615
  403ACOH    H311748   6.582   2.836   4.698 -0.2401  0.8436  2.2035
  405ACOH    H411749   7.521   3.585   2.868  2.3358 -2.2603  1.2512
  405ACOH    O211750   7.538   3.655   2.933  0.6474 -0.0647 -0.5789
  405ACOH    C211751   7.653   3.613   2.981 -0.0963 -0.0132  0.2626
  405ACOH    O111752   7.750   3.559   2.921 -0.3125 -0.1718 -0.0041
  405ACOH    C111753   7.679   3.683   3.109 -0.4970  0.5080  0.2462
  405ACOH    H111754   7.753   3.762   3.097 -0.0266  0.3029  1.6780
  405ACOH    H211755   7.714   3.623   3.193  0.2965  0.0306 -0.4257
  405ACOH    H311756   7.593   3.736   3.151 -0.9384  1.2575 -1.5758
  406ACOH    H411757   8.284   6.932   1.167 -0.3617 -1.0258  1.1738
  406ACOH    O211758   8.188   6.945   1.159 -0.1344  0.0057 -0.0127
  406ACOH    C211759   8.144   6.998   1.276  0.2179  0.1107  0.0189
  406ACOH    O111760   8.206   7.025   1.375  0.0248 -0.2405 -0.2666
  406ACOH    C111761   7.992   6.997   1.282 -0.8754 -0.0703  0.4464
  406ACOH    H111762   7.967   6.918   1.352  1.5899  1.1668  2.7911
  406ACOH    H211763   7.943   6.982   1.185 -3.6029  2.0518  1.4091
  406ACOH    H311764   7.951   7.092   1.317 -1.7166 -0.3175  0.1501
  407ACOH    H411765   6.551   2.209   4.271  0.6344 -0.5868 -0.1730
  407ACOH    O211766   6.548   2.258   4.356  0.7302 -0.1876 -0.3975
  407ACOH    C211767   6.676   2.275   4.399 -0.5933  0.3882 -0.1185
  407ACOH    O111768   6.782   2.266   4.337 -0.1985 -0.1055  0.7333
  407ACOH    C111769   6.684   2.325   4.539 -0.6606  0.7359 -0.2190
  407ACOH    H111770   6.784   2.359   4.565  0.0683 -1.6144  0.1556
  407ACOH    H211771   6.646   2.244   4.602  2.7295 -0.5573  0.2327
  407ACOH    H311772   6.618   2.412   4.544 -1.8475 -0.0637 -1.3666
  408ACOH    H411773   7.383   3.089   4.869 -0.9546 -0.4325 -0.1770
  408ACOH    O211774   7.310   3.116   4.927 -0.2334 -0.7053  0.8664
  408ACOH    C211775   7.256   3.229   4.880 -0.0927  0.4628  0.2044
  408ACOH    O111776   7.303   3.297   4.790 -0.1609 -0.2903 -0.3639
  408ACOH    C111777   7.133   3.270   4.953  0.1026  0.1562 -0.1600
  408ACOH    H111778   7.047   3.215   4.916  0.8253 -0.3159 -1.1454
  408ACOH    H211779   7.117   3.378   4.947 -1.7958 -0.1153 -0.3449
  408ACOH    H311780   7.145   3.245   5.059 -1.5020  2.7994  0.6940
  409ACOH    H411781   0.612   4.001   0.628 -0.0649  1.5168 -1.3387
  409ACOH    O211782   0.539   4.045   0.675  0.0336  0.0875  0.2152
  409ACOH    C211783   0.493   4.146   0.598  0.5738 -0.4502 -0.6194
  409ACOH    O111784   0.537   4.181   0.494 -0.0735 -0.4816 -0.3791
  409ACOH    C111785   0.368   4.200   0.646 -0.4134  0.5357 -0.2476
  409ACOH    H111786   0.372   4.221   0.753 -4.5325  0.9287 -0.0972
  409ACOH    H211787   0.303   4.113   0.640  1.4360 -0.8128 -1.5595
  409ACOH    H311788   0.318   4.282   0.596 -1.5386  0.2593  0.4217
  410ACOH    H411789   7.927   5.607   1.995  3.2740  1.9529  0.5212
  410ACOH    O211790   7.945   5.535   2.058  0.2270  0.2045 -0.4763
  410ACOH    C211791   8.003   5.600   2.163  0.3828 -0.2161 -0.1621
  410ACOH    O111792   8.051   5.712   2.158  0.5048 -0.1671  0.1389
  410ACOH    C111793   8.036   5.494   2.259 -0.0322 -0.3227 -0.0661
  410ACOH    H111794   7.946   5.433   2.263 -0.8664  0.9526  1.0783
  410ACOH    H211795   8.054   5.546   2.353 -4.3022  2.3273 -0.5792
  410ACOH    H311796   8.128   5.443   2.229  1.5644 -0.1648  4.3081
  411ACOH    H411797   8.260   4.560   2.538  1.5128 -0.9008  0.6430
  411ACOH    O211798   8.261   4.654   2.564 -0.0410 -0.7418  0.1877
  411ACOH    C211799   8.280   4.652   2.696 -0.0209  0.6870  0.1663
  411ACOH    O111800   8.294   4.562   2.775 -0.4794  0.2940  1.0181
  411ACOH    C111801   8.296   4.792   2.742 -0.5454 -0.4641 -0.8367
  411ACOH    H111802   8.351   4.853   2.670  0.0634 -0.5917 -0.4837
  411ACOH    H211803   8.361   4.806   2.828 -0.6417  0.0762 -0.8525
  411ACOH    H311804   8.198   4.836   2.760 -1.5210 -1.8138 -2.6032
  412ACOH    H411805   4.878   2.792   0.185 -0.7512  1.3396 -0.8056
  412ACOH    O211806   4.939   2.855   0.227  0.1307  0.0778 -0.1427
  412ACOH    C211807   4.949   2.793   0.349 -0.2053  0.6392  0.1836
  412ACOH    O111808   4.920   2.680   0.385 -0.3590  0.0091 -0.2550
  412ACOH    C111809   5.032   2.875   0.445 -0.7128 -0.3864  0.2823
  412ACOH    H111810   4.980   2.884   0.540 -0.1341 -3.5661  0.9314
  412ACOH    H211811   5.064   2.973   0.408 -0.8147 -0.7881 -0.8993
  412ACOH    H311812   5.120   2.819   0.475 -1.7027 -1.0535  1.9674
  413ACOH    H411813   6.706   8.426   3.585 -0.9540  1.0456  0.0018
  413ACOH    O211814   6.675   8.409   3.676  0.4812  0.6908  0.4316
  413ACOH    C211815   6.628   8.279   3.683  0.4187 -0.6184  0.7678
  413ACOH    O111816   6.588   8.222   3.585  0.2880  0.6724  0.0103
  413ACOH    C111817   6.602   8.232   3.817  0.4656 -0.1767  0.1912
  413ACOH    H111818   6.691   8.190   3.864  1.3817  0.4046 -0.9850
  413ACOH    H211819   6.530   8.151   3.809  2.3194 -1.5180 -5.5093
  413ACOH    H311820   6.570   8.313   3.882 -1.0198 -1.3972  1.0223
  414ACOH    H411821   1.913   8.018   3.125 -1.0991  2.6228 -1.2160
  414ACOH    O211822   1.968   7.995   3.048  0.3345  0.0903  0.4670
  414ACOH    C211823   2.058   8.089   3.028 -0.3918  0.3567  0.3981
  414ACOH    O111824   2.083   8.181   3.105 -0.5352 -0.4339 -0.1973
  414ACOH    C111825   2.121   8.086   2.894  0.2453 -0.2886 -0.8050
  414ACOH    H111826   2.065   8.135   2.814  1.9159 -0.2175 -1.9467
  414ACOH    H211827   2.136   7.979   2.880 -1.1526 -1.0856  3.0931
  414ACOH    H311828   2.221   8.126   2.912 -0.9883  2.7505 -0.2595
  415ACOH    H411829   0.576   0.993   4.362  0.7521  0.2136 -0.4581
  415ACOH    O211830   0.653   0.961   4.413  0.4206  0.0944 -0.0278
  415ACOH    C211831   0.752   0.952   4.318  0.3007  0.3038 -0.2426
  415ACOH    O111832   0.754   0.991   4.206 -0.5817  0.3084  0.1910
  415ACOH    C111833   0.877   0.890   4.382 -0.2630 -0.2290 -0.2453
  415ACOH    H111834   0.894   0.790   4.341 -0.0057 -0.8933  1.4156
  415ACOH    H211835   0.870   0.884   4.491 -0.6428  0.8637 -0.2009
  415ACOH    H311836   0.964   0.954   4.370 -0.5747  0.9112  3.0718
  416ACOH    H411837   9.330   9.396   0.842 -0.2063 -0.9581  0.9201
  416ACOH    O211838   9.381   9.456   0.899 -0.3947  0.0631  0.0310
  416ACOH    C211839   9.494   9.472   0.824  0.3049  0.6509 -0.0639
  416ACOH    O111840   9.521   9.394   0.733  0.2304 -0.3070  0.1490
  416ACOH    C111841   9.578   9.576   0.879 -0.1466  0.2747  0.8295
  416ACOH    H111842   9.586   9.558   0.986  0.0330 -0.5921  0.6709
  416ACOH    H211843   9.531   9.674   0.867  1.3826  1.2847  2.8344
  416ACOH    H311844   9.680   9.570   0.842 -0.7428  3.2312 -1.4593
  418ACOH    H411845   6.684   8.273   2.786  1.9811 -1.7997  1.3370
  418ACOH    O211846   6.716   8.221   2.710 -0.3147 -0.5682 -0.5246
  418ACOH    C211847   6.850   8.229   2.728  0.0936  0.4857  0.5631
  418ACOH    O111848   6.912   8.300   2.799 -0.3955  0.2942 -0.0936
  418ACOH    C111849   6.919   8.146   2.626 -0.4826  0.5128  0.3031
  418ACOH    H111850   6.883   8.165   2.525 -0.8017  0.2165  0.3629
  418ACOH    H211851   6.891   8.044   2.650 -0.1264  0.6273  1.2563
  418ACOH    H311852   7.028   8.158   2.628 -0.1446 -2.2758 -0.2146
  420ACOH    H411853   0.375   0.045   4.573 -1.1606 -0.7302 -1.1246
  420ACOH    O211854   0.328   0.125   4.545 -0.1965  0.1052 -0.3915
  420ACOH    C211855   0.345   0.198   4.655 -0.0486 -0.1438 -0.3798
  420ACOH    O111856   0.454   0.196   4.714  0.0337  0.4098 -0.6683
  420ACOH    C111857   0.237   0.303   4.664 -0.2236 -0.0331  0.3038
  420ACOH    H111858   0.139   0.267   4.633 -0.9718  1.7334  0.5449
  420ACOH    H211859   0.270   0.377   4.590  1.3715 -0.8757  0.1436
  420ACOH    H311860   0.222   0.356   4.758  0.0430  1.5063 -0.4958
  421ACOH    H411861   4.856   0.074   4.751  0.5933 -0.0667 -0.2830
  421ACOH    O211862   4.945   0.091   4.785  0.4359  0.2919 -0.0438
  421ACOH    C211863   5.035   0.089   4.685  0.3893 -0.0021  0.4512
  421ACOH    O111864   5.006   0.092   4.568  0.7549  0.1446  0.8802
  421ACOH    C111865   5.167   0.066   4.744 -0.8817  0.3730  0.8686
  421ACOH    H111866   5.167   0.141   4.823  0.0038  1.2679  0.0344
  421ACOH    H211867   5.251   0.076   4.675  1.4442 -0.8805  3.3972
  421ACOH    H311868   5.177  -0.032   4.791 -0.1644 -0.4125 -0.8786
  423ACOH    H411869   6.332   2.639   3.112  0.5163  1.9968 -1.8351
  423ACOH    O211870   6.262   2.593   3.064  0.4482  0.1060 -0.0023
  423ACOH    C211871   6.299   2.465   3.056 -0.6240  0.1150 -0.3949
  423ACOH    O111872   6.402   2.424   3.110  0.0426 -0.5521 -0.5309
  423ACOH    C111873   6.183   2.382   3.022 -0.1369  0.1624  0.4716
  423ACOH    H111874   6.106   2.449   2.986 -0.1179  0.1116  0.3377
  423ACOH    H211875   6.149   2.336   3.115 -1.6992  1.5613  0.6132
  423ACOH    H311876   6.206   2.297   2.958  2.3055 -0.6132  2.2748
  424ACOH    H411877   8.073   6.634   1.649  1.3337  0.2831  0.8895
  424ACOH    O211878   8.049   6.717   1.693 -0.4569  0.4131 -0.2511
  424ACOH    C211879   8.047   6.693   1.829 -0.3933 -0.4017  0.5208
  424ACOH    O111880   8.072   6.589   1.883 -0.1457  0.0233 -0.2024
  424ACOH    C111881   7.985   6.807   1.899 -0.0423  0.8901  0.5613
  424ACOH    H111882   7.901   6.836   1.835  1.9959 -0.1765 -2.7355
  424ACOH    H211883   8.061   6.884   1.900  0.8835 -0.0198  1.8163
  424ACOH    H311884   7.952   6.781   2.000  0.9150  0.4166  0.7552
  425ACOH    H411885   7.816   5.861   3.793 -2.4665  0.0351  0.5153
  425ACOH    O211886   7.799   5.947   3.750  0.1984  0.0612 -0.6204
  425ACOH    C211887   7.759   6.036   3.845 -0.1297  1.0410  0.7637
  425ACOH    O111888   7.797   6.021   3.957  0.0137 -0.2827 -0.1049
  425ACOH    C111889   7.711   6.164   3.796 -0.2484  0.2684  0.6086
  425ACOH    H111890   7.708   6.174   3.687  1.7195 -2.1054  0.3027
  425ACOH    H211891   7.769   6.246   3.838  0.1828  1.5818 -2.4490
  425ACOH    H311892   7.613   6.163   3.843 -1.2354 -0.6837 -1.3816
  426ACOH    H411893   3.683   7.410   1.609 -1.2252 -1.9310 -3.2188
  426ACOH    O211894   3.741   7.468   1.559  0.2165 -0.0282  0.4819
  426ACOH    C211895   3.865   7.418   1.568  0.4374  0.2200  0.2804
  426ACOH    O111896   3.894   7.303   1.600  0.1504  0.6423 -0.0878
  426ACOH    C111897   3.967   7.506   1.514  0.3096  0.4048 -0.1827
  426ACOH    H111898   4.061   7.463   1.546  1.2042  1.4726 -1.3217
  426ACOH    H211899   3.959   7.609   1.550 -0.6160  1.3289 -2.9635
  426ACOH    H311900   3.963   7.494   1.406  0.8884  1.8006 -0.3730
  427ACOH    H411901   7.033   5.154   0.499 -1.8383 -0.6372  0.6918
  427ACOH    O211902   6.986   5.199   0.427 -0.2906  0.2027  0.1784
  427ACOH    C211903   6.860   5.198   0.452 -0.3546 -0.5132  0.4943
  427ACOH    O111904   6.806   5.152   0.549  0.3340 -0.0559 -0.0902
  427ACOH    C111905   6.790   5.267   0.336  0.4307 -0.1059  0.4085
  427ACOH    H111906   6.802   5.219   0.239 -0.7477  1.9074 -0.7938
  427ACOH    H211907   6.826   5.370   0.334 -1.4706  0.5695 -0.3043
  427ACOH    H311908   6.686   5.267   0.369  0.3086  0.5071  0.0435
  428ACOH    H411909   7.862   6.041   0.338 -1.3898 -0.0325  0.1324
  428ACOH    O211910   7.887   6.129   0.370  0.1761 -0.4398  0.0751
  428ACOH    C211911   7.889   6.209   0.265 -0.1671 -0.2087  0.2980
  428ACOH    O111912   7.863   6.175   0.147  0.2368 -0.2388  0.4249
  428ACOH    C111913   7.935   6.343   0.306  0.6676 -0.4221 -0.2341
  428ACOH    H111914   7.900   6.390   0.398 -0.8826  0.5407 -1.3188
  428ACOH    H211915   7.913   6.413   0.226 -0.6427  0.4193  0.8403
  428ACOH    H311916   8.044   6.334   0.313  1.0005  0.7230 -3.2155
  429ACOH    H411917   5.598   2.148   5.073 -1.4750  1.3697  1.2522
  429ACOH    O211918   5.657   2.166   5.148  0.0546  0.7650  0.1977
  429ACOH    C211919   5.660   2.298   5.160 -0.0554 -0.1848  0.2462
  429ACOH    O111920   5.610   2.384   5.088  0.0460 -0.1242 -0.9413
  429ACOH    C111921   5.740   2.336   5.277 -0.0583 -0.4389 -0.2171
  429ACOH    H111922   5.826   2.271   5.290  0.0027 -0.2825  0.1784
  429ACOH    H211923   5.680   2.329   5.368 -0.4469  0.1130 -0.4289
  429ACOH    H311924   5.789   2.433   5.267  2.0233 -1.3295  1.0708
  430ACOH    H411925   5.368   1.862   5.522 -1.9434  0.8338 -0.9052
  430ACOH    O211926   5.410   1.933   5.472  0.4390 -0.0506 -0.2333
  430ACOH    C211927   5.348   2.047   5.486 -0.8117 -0.6302  0.2138
  430ACOH    O111928   5.250   2.060   5.558  0.0764  0.4220 -0.5350
  430ACOH    C111929   5.420   2.157   5.411 -0.5100 -0.1752 -0.7110
  430ACOH    H111930   5.384   2.169   5.308  1.3451 -2.5012 -1.6797
  430ACOH    H211931   5.523   2.122   5.408  0.4268  2.5803 -2.9971
  430ACOH    H311932   5.411   2.250   5.467  2.3356 -0.7331  0.7386
  431ACOH    H411933   5.293   7.279   1.794 -0.2545 -0.0522  1.8198
  431ACOH    O211934   5.299   7.374   1.775  0.1573 -0.5155 -0.5586
  431ACOH    C211935   5.221   7.405   1.668 -0.0307 -0.0013 -0.1799
  431ACOH    O111936   5.115   7.357   1.635 -0.2296 -0.1277 -0.2571
  431ACOH    C111937   5.250   7.546   1.638 -0.0047 -0.3137  0.2522
  431ACOH    H111938   5.226   7.611   1.723  0.2632  0.6715 -0.4215
  431ACOH    H211939   5.173   7.574   1.567  0.4134 -1.6176 -0.7336
  431ACOH    H311940   5.349   7.570   1.598  0.2724  0.5070  1.4121
  432ACOH    H411941   8.762   2.313   0.969  0.4969  2.1483  0.3736
  432ACOH    O211942   8.753   2.340   0.876  0.1134  0.3382 -0.1394
  432ACOH    C211943   8.876   2.329   0.828  0.3236 -0.8781  0.5192
  432ACOH    O111944   8.966   2.263   0.866 -0.8996 -0.0156 -0.2680
  432ACOH    C111945   8.891   2.397   0.690  0.1520 -0.1262  0.0259
  432ACOH    H111946   8.805   2.374   0.627  0.4727 -0.5146 -0.2735
  432ACOH    H211947   8.983   2.370   0.638  0.2378  0.7171 -0.2702
  432ACOH    H311948   8.887   2.505   0.702 -0.3807 -0.0826 -0.5573
  434ACOH    H411949   5.995   5.508   1.596  0.3408 -0.1526 -0.0876
  434ACOH    O211950   5.979   5.601   1.570  0.4085 -0.1356 -0.0691
  434ACOH    C211951   5.864   5.633   1.640  0.3315 -0.3531 -0.1102
  434ACOH    O111952   5.795   5.545   1.692  0.0713 -0.1419 -0.2297
  434ACOH    C111953   5.814   5.772   1.618 -0.1415  0.7927 -0.6528
  434ACOH    H111954   5.889   5.843   1.651  0.9644  0.2512 -1.9891
  434ACOH    H211955   5.719   5.788   1.670  0.3534 -0.3811  0.6496
  434ACOH    H311956   5.790   5.795   1.514  0.2415  0.6764 -0.7672
  435ACOH    H411957   5.788   0.614   0.579  1.0572  1.4043 -2.3803
  435ACOH    O211958   5.703   0.654   0.553  0.0894  0.5081 -0.6562
  435ACOH    C211959   5.712   0.785   0.543 -0.3265 -0.7755 -0.0235
  435ACOH    O111960   5.811   0.852   0.558  0.0163  0.2473 -0.1969
  435ACOH    C111961   5.586   0.844   0.483 -0.1658 -0.0977 -0.5030
  435ACOH    H111962   5.609   0.951   0.474  2.1125 -0.1691  3.2832
  435ACOH    H211963   5.493   0.834   0.539 -1.9553  0.1050 -3.3670
  435ACOH    H311964   5.582   0.793   0.388 -0.4235 -0.1452 -0.4673
  436ACOH    H411965   6.797   1.910   4.887 -0.6947  1.5889  0.3160
  436ACOH    O211966   6.743   1.892   4.965 -0.4592  0.2727  0.1879
  436ACOH    C211967   6.763   2.004   5.038 -0.2604 -0.5307  0.6789
  436ACOH    O111968   6.827   2.102   5.002  0.4069 -0.1024 -0.1752
  436ACOH    C111969   6.702   1.982   5.174 -0.0634  0.0386  0.8826
  436ACOH    H111970   6.779   1.964   5.249  0.3534 -1.4525  0.1087
  436ACOH    H211971   6.629   1.902   5.175  1.2919 -1.2285 -0.1855
  436ACOH    H311972   6.644   2.072   5.195 -2.7746 -1.1206 -1.2899
  440ACOH    H411973   5.631   8.004   1.865 -0.2984  1.4465 -0.7582
  440ACOH    O211974   5.727   7.999   1.881 -0.3726 -0.0699 -0.7423
  440ACOH    C211975   5.752   7.865   1.890 -0.2579 -0.5184  0.4431
  440ACOH    O111976   5.674   7.769   1.877  0.4193 -0.4860  0.0573
  440ACOH    C111977   5.900   7.852   1.909 -0.2512  0.4127 -0.5462
  440ACOH    H111978   5.919   7.905   2.002 -1.9710  0.4820 -0.2218
  440ACOH    H211979   5.943   7.903   1.823  0.4418  0.2467 -0.3013
  440ACOH    H311980   5.930   7.748   1.920 -1.0664  0.0932 -1.2979
  441ACOH    H411981   3.079   8.327   1.089  0.0430  0.1091 -1.3010
  441ACOH    O211982   3.030   8.268   1.030 -0.0271 -0.1633 -0.9735
  441ACOH    C211983   3.058   8.317   0.906  1.1706 -0.1961  0.3333
  441ACOH    O111984   3.157   8.381   0.867 -0.1110  0.6940  0.8222
  441ACOH    C111985   2.957   8.254   0.815  0.4934  0.2789  0.4729
  441ACOH    H111986   2.984   8.152   0.785 -0.4572  0.4882 -1.1437
  441ACOH    H211987   2.963   8.306   0.719  0.3875 -2.6654 -1.1852
  441ACOH    H311988   2.854   8.256   0.851 -0.4221  0.8139 -2.0931
  442ACOH    H411989   9.795   8.738   2.045 -0.3359 -1.2349  1.2348
  442ACOH    O211990   9.866   8.701   1.989  0.4731  0.7262  0.9429
  442ACOH    C211991   9.918   8.608   2.067 -0.2775  0.7790 -0.9174
  442ACOH    O111992   9.921   8.601   2.187 -0.2178  0.1111 -0.5592
  442ACOH    C111993  10.014   8.520   1.997  0.0895  0.2769  0.1267
  442ACOH    H111994  10.119   8.536   2.020 -0.6408  2.8218  1.9164
  442ACOH    H211995   9.999   8.528   1.889  0.3722 -1.0730 -0.0320
  442ACOH    H311996   9.980   8.419   2.023 -1.0737  0.7055  0.2889
  443ACOH    H411997   4.094   4.202   1.095 -0.5171 -0.3953  1.1330
  443ACOH    O211998   4.074   4.267   1.165  0.0892  0.7394  0.2853
  443ACOH    C211999   4.033   4.184   1.269  0.1572  0.0070 -0.3927
  443ACOH    O112000   4.052   4.065   1.283  0.7337 -0.3803 -0.1160
  443ACOH    C112001   3.965   4.264   1.373  0.1164 -0.3745  0.4038
  443ACOH    H112002   3.897   4.333   1.323 -0.6728 -1.5565 -0.1761
  443ACOH    H212003   4.041   4.309   1.437 -0.1461  0.3496  0.2060
  443ACOH    H312004   3.919   4.197   1.446 -1.3383  1.4982  1.2347
  444ACOH    H412005   7.795   6.841   3.587 -0.3156  0.6770  0.3057
  444ACOH    O212006   7.703   6.814   3.572 -0.0103 -0.1107 -0.1644
  444ACOH    C212007   7.637   6.913   3.631  0.0366 -0.5263 -0.5586
  444ACOH    O112008   7.683   7.003   3.700 -0.2142 -0.0195  0.1089
  444ACOH    C112009   7.489   6.888   3.616 -0.1788 -0.6709 -0.4351
  444ACOH    H112010   7.429   6.970   3.655 -1.3969 -1.4187 -0.7014
  444ACOH    H212011   7.466   6.796   3.670  0.4724 -1.4830 -1.5119
  444ACOH    H312012   7.461   6.883   3.511 -1.1457  1.5012 -0.3027
  445ACOH    H412013   2.284   7.133   4.210 -1.6545 -0.8889  0.2865
  445ACOH    O212014   2.281   7.109   4.304  0.2700 -0.5823  0.4513
  445ACOH    C212015   2.350   7.202   4.369 -0.2799 -0.5176  0.4381
  445ACOH    O112016   2.390   7.305   4.327  0.0509  0.1570  0.4262
  445ACOH    C112017   2.356   7.164   4.507  0.7648  0.8108  0.2618
  445ACOH    H112018   2.261   7.168   4.559  0.5356 -0.7531 -0.0023
  445ACOH    H212019   2.429   7.225   4.560  2.9966 -1.7633  0.2849
  445ACOH    H312020   2.399   7.066   4.530  2.5063  1.5952  0.4395
  446ACOH    H412021   5.448   1.854   0.884  0.9998 -1.0067  0.3869
  446ACOH    O212022   5.483   1.890   0.801 -0.0832 -0.2148  0.2596
  446ACOH    C212023   5.368   1.934   0.742 -0.2859  0.5684  0.0464
  446ACOH    O112024   5.266   1.959   0.804  0.1487  0.2084  0.0504
  446ACOH    C112025   5.395   1.974   0.605 -0.1915  0.3502 -0.2392
  446ACOH    H112026   5.403   1.892   0.534  0.5369  1.3162 -1.2946
  446ACOH    H212027   5.488   2.029   0.587  0.3217 -0.7363 -0.9760
  446ACOH    H312028   5.316   2.038   0.568  0.8613  0.5136 -2.2820
  447ACOH    H412029   8.911   4.578   2.528  2.7601 -1.6052  3.9191
  447ACOH    O212030   8.989   4.592   2.472  0.0437  0.1606  0.3306
  447ACOH    C212031   9.010   4.723   2.481  0.2436 -0.3959  0.4158
  447ACOH    O112032   8.980   4.801   2.567  0.2780 -0.3444  0.9939
  447ACOH    C112033   9.108   4.766   2.378 -0.5343  0.3127  0.0102
  447ACOH    H112034   9.104   4.699   2.292 -0.2665  1.2186 -0.7185
  447ACOH    H212035   9.205   4.776   2.428 -0.0105 -2.5117 -0.3493
  447ACOH    H312036   9.087   4.866   2.341  0.0473 -0.3178 -2.0866
  448ACOH    H412037   6.206   7.255   2.592  1.0576 -3.4262  1.6530
  448ACOH    O212038   6.157   7.206   2.524  0.2837 -0.6265  0.1048
  448ACOH    C212039   6.233   7.196   2.412 -0.5887  0.2899  0.0755
  448ACOH    O112040   6.340   7.256   2.385  0.1578 -0.6231 -0.1106
  448ACOH    C112041   6.156   7.122   2.308 -0.6336 -0.8730 -0.5268
  448ACOH    H112042   6.069   7.184   2.283  2.3942  4.1577  0.6659
  448ACOH    H212043   6.127   7.029   2.357  1.2778 -1.7383 -0.9980
  448ACOH    H312044   6.208   7.092   2.217  0.8978 -1.1040  0.4062
  449ACOH    H412045   8.014   3.389   2.093  0.1794  1.1457 -0.0980
  449ACOH    O212046   7.994   3.353   2.005  0.0990 -0.1985  0.4578
  449ACOH    C212047   7.865   3.331   1.993  0.0958 -0.2483 -0.3311
  449ACOH    O112048   7.795   3.294   2.085 -0.1762 -0.6117 -0.4672
  449ACOH    C112049   7.824   3.312   1.847 -0.4499 -0.2480  0.1730
  449ACOH    H112050   7.721   3.278   1.845 -1.0975  1.6939 -2.3751
  449ACOH    H212051   7.884   3.227   1.815  1.6676  0.7823  1.3119
  449ACOH    H312052   7.836   3.399   1.782 -1.6056 -0.3822 -0.2319
  450ACOH    H412053   9.560   5.146   4.057  1.1597  0.9192 -0.4778
  450ACOH    O212054   9.639   5.103   4.094 -0.0367 -0.3629  0.6219
  450ACOH    C212055   9.707   5.206   4.157  0.8739  0.6229  0.3499
  450ACOH    O112056   9.674   5.324   4.164  0.4621  0.7723  1.3088
  450ACOH    C112057   9.823   5.149   4.231  0.0094 -0.2232  0.2831
  450ACOH    H112058   9.862   5.225   4.299  0.4156 -0.5738  0.4430
  450ACOH    H212059   9.888   5.122   4.148  0.5439 -1.6924  1.1633
  450ACOH    H312060   9.799   5.062   4.293 -0.9929  0.0932  0.3541
  451ACOH    H412061   2.845   1.990   1.727  0.1435  0.5898  1.8529
  451ACOH    O212062   2.806   2.076   1.702  0.0630  0.0953  0.2407
  451ACOH    C212063   2.901   2.171   1.706 -0.4286 -0.5145 -0.2988
  451ACOH    O112064   3.020   2.142   1.687  0.5558 -0.1817 -0.3470
  451ACOH    C112065   2.847   2.302   1.661 -0.1857 -1.0222 -0.1991
  451ACOH    H112066   2.812   2.365   1.743 -0.6075 -1.2509 -0.2050
  451ACOH    H212067   2.771   2.287   1.585 -1.6818  1.3234  0.7490
  451ACOH    H312068   2.927   2.359   1.612 -0.0506 -0.5702  0.5340
  452ACOH    H412069   5.393   5.975   1.422 -0.4773 -0.6410  2.1064
  452ACOH    O212070   5.354   5.901   1.372  0.1610 -0.0379  0.7009
  452ACOH    C212071   5.409   5.892   1.246 -0.0106  0.4260 -0.1569
  452ACOH    O112072   5.515   5.936   1.199  0.3414  0.0808 -0.1757
  452ACOH    C112073   5.328   5.795   1.166 -0.5024  0.1151  0.3928
  452ACOH    H112074   5.304   5.831   1.066  0.9333 -2.0469 -0.7731
  452ACOH    H212075   5.235   5.776   1.219 -0.1729  1.7152  1.5898
  452ACOH    H312076   5.385   5.702   1.169  0.3308  0.6062 -0.1078
  453ACOH    H412077   3.673   6.901   5.603 -1.9227  0.7084 -0.3496
  453ACOH    O212078   3.707   6.985   5.567 -0.3476  0.1429 -0.2514
  453ACOH    C212079   3.702   6.966   5.433 -0.1174  0.2972  0.1245
  453ACOH    O112080   3.671   6.864   5.376 -0.6323 -0.1943 -0.1113
  453ACOH    C112081   3.730   7.102   5.367 -0.6734  0.5977  0.1875
  453ACOH    H112082   3.832   7.134   5.385  0.5851 -2.2018 -1.7184
  453ACOH    H212083   3.666   7.186   5.395 -0.7242  0.3675  0.7725
  453ACOH    H312084   3.724   7.091   5.259  0.3398 -1.2636  0.3204
  455ACOH    H412085   3.731   2.245   1.914  1.7255  2.0531 -0.5014
  455ACOH    O212086   3.677   2.255   1.834  0.2942 -0.1235  0.1414
  455ACOH    C212087   3.769   2.246   1.733  0.0614  0.1511  0.2176
  455ACOH    O112088   3.889   2.260   1.746 -1.0706 -0.2308  0.3087
  455ACOH    C112089   3.700   2.234   1.601 -0.2864 -0.8349 -0.1388
  455ACOH    H112090   3.606   2.287   1.608  0.7655  0.8626  1.4842
  455ACOH    H212091   3.680   2.128   1.582  2.0979 -1.7106  1.8904
  455ACOH    H312092   3.766   2.269   1.522 -0.0041 -1.5496 -0.2267
  456ACOH    H412093   3.801   5.863   1.693 -0.6410  0.2196  1.0944
  456ACOH    O212094   3.711   5.860   1.657 -0.0311 -0.3079 -0.4452
  456ACOH    C212095   3.639   5.941   1.733  0.3561  0.1041  0.4916
  456ACOH    O112096   3.667   5.973   1.847  0.5833 -0.1278  0.5829
  456ACOH    C112097   3.508   5.981   1.670 -0.1074 -0.0123 -0.2104
  456ACOH    H112098   3.440   6.031   1.739 -2.2393 -1.8321 -0.9455
  456ACOH    H212099   3.455   5.899   1.621  1.2589 -1.9286  1.4136
  456ACOH    H312100   3.542   6.044   1.588  1.2632 -2.6909 -1.7615
  457ACOH    H412101   6.220   3.818   6.746 -0.4884 -0.4438 -0.4333
  457ACOH    O212102   6.279   3.849   6.676 -0.4446  0.2922 -0.0760
  457ACOH    C212103   6.335   3.967   6.710  0.4653  0.2946 -0.0368
  457ACOH    O112104   6.303   4.046   6.793 -0.2873 -0.6125  0.5286
  457ACOH    C112105   6.416   4.005   6.591 -0.7588  0.6208 -0.4182
  457ACOH    H112106   6.438   4.111   6.597  1.1214  0.2887 -1.0040
  457ACOH    H212107   6.359   3.990   6.499 -0.4927  0.7921 -0.6079
  457ACOH    H312108   6.504   3.942   6.601 -1.4999 -0.4155 -0.3038
  458ACOH    H412109   1.070   9.692   5.125  0.4784  0.1720  0.5942
  458ACOH    O212110   1.159   9.658   5.104 -0.0826 -0.5661 -0.6283
  458ACOH    C212111   1.133   9.571   5.007  0.2711 -0.0699 -0.2481
  458ACOH    O112112   1.035   9.562   4.943  0.0338  0.1587  0.3907
  458ACOH    C112113   1.253   9.489   4.980  0.5109 -0.0337  0.3512
  458ACOH    H112114   1.223   9.386   4.959  0.2193 -0.3164  2.1216
  458ACOH    H212115   1.322   9.484   5.065  0.0245 -2.0633  0.6550
  458ACOH    H312116   1.303   9.533   4.893 -0.6980  1.3343  0.3433
  459ACOH    H412117   4.572   6.349   3.464 -0.7160  0.5218  0.2160
  459ACOH    O212118   4.607   6.431   3.503 -0.0231  0.3717 -0.0916
  459ACOH    C212119   4.509   6.468   3.589  0.1774 -0.1728 -0.0295
  459ACOH    O112120   4.408   6.409   3.629 -0.2584  0.3734 -0.4728
  459ACOH    C112121   4.551   6.595   3.647 -0.0038 -0.8801 -0.0845
  459ACOH    H112122   4.525   6.596   3.753 -2.9645  2.0064 -0.7744
  459ACOH    H212123   4.499   6.671   3.588  0.5748  0.5541  1.1967
  459ACOH    H312124   4.659   6.611   3.638 -0.0160 -0.8210 -0.1313
  460ACOH    H412125   7.090   6.645   4.507  1.4276 -1.9421 -2.9016
  460ACOH    O212126   6.996   6.632   4.487  0.3913  0.3972  0.1020
  460ACOH    C212127   7.007   6.519   4.412  0.1302  0.0165  0.1521
  460ACOH    O112128   7.107   6.469   4.354  0.0245 -0.4572  0.4104
  460ACOH    C112129   6.868   6.473   4.386  0.0929 -0.7568  0.4924
  460ACOH    H112130   6.820   6.558   4.338  1.2773 -2.3764 -3.8034
  460ACOH    H212131   6.820   6.456   4.483 -0.9368  1.6378  0.4333
  460ACOH    H312132   6.856   6.384   4.325  1.8043 -0.6331 -0.0619
  461ACOH    H412133   6.271   8.369   3.895 -1.7354  0.4044  1.4506
  461ACOH    O212134   6.200   8.302   3.901 -0.9599 -0.6168 -0.3828
  461ACOH    C212135   6.176   8.271   4.028 -0.4659  0.0778  0.6046
  461ACOH    O112136   6.250   8.288   4.120  0.5206 -0.0706 -0.3406
  461ACOH    C112137   6.054   8.182   4.042  0.4597 -0.5307 -1.1635
  461ACOH    H112138   6.008   8.183   4.141 -0.2247  0.2337 -1.4865
  461ACOH    H212139   6.078   8.079   4.017  0.9955 -1.6609  3.4957
  461ACOH    H312140   5.981   8.214   3.967  0.5975  0.9425 -0.6776
  462ACOH    H412141   5.115   3.541   2.741  2.0925  0.1129  0.8801
  462ACOH    O212142   5.103   3.629   2.701  0.3789 -0.7188 -0.4831
  462ACOH    C212143   5.218   3.697   2.723  0.3643 -0.1241  0.8478
  462ACOH    O112144   5.317   3.660   2.789 -0.0031  0.1452 -0.1610
  462ACOH    C112145   5.221   3.816   2.640 -0.0263  0.1732  0.2988
  462ACOH    H112146   5.287   3.796   2.555 -0.7878 -0.9519 -0.0349
  462ACOH    H212147   5.257   3.896   2.704 -0.2700  0.6939 -0.2085
  462ACOH    H312148   5.126   3.844   2.594  0.1846  0.3625 -0.0315
  467SOL     OW12149   4.489   3.335   0.663  0.0315 -0.0311 -0.4054
  467SOL    HW112150   4.482   3.406   0.593 -1.0410  0.8193  0.5400
  467SOL    HW212151   4.539   3.371   0.742 -0.5065 -0.3304  0.0749
  469SOL     OW12152   6.979   8.544   4.486  0.3078 -0.0332  0.4105
  469SOL    HW112153   6.977   8.634   4.442 -0.7866 -0.9611 -1.4750
  469SOL    HW212154   7.062   8.496   4.458 -0.6635 -0.8457 -1.1338
  470SOL     OW12155   1.975   3.179   4.209 -0.1006  0.5776 -0.1449
  470SOL    HW112156   1.902   3.224   4.261  0.1914  1.3155 -0.3734
  470SOL    HW212157   1.967   3.203   4.112 -0.3802 -0.4436 -0.3776
  471SOL     OW12158   1.591   2.172   1.374 -0.3024  0.4885  0.1420
  471SOL    HW112159   1.679   2.180   1.420 -0.1641  1.4692 -0.2858
  471SOL    HW212160   1.526   2.236   1.416 -0.3743  0.8693 -0.5431
  472SOL     OW12161   0.413   6.568   3.192 -0.3651 -0.4764 -0.1938
  472SOL    HW112162   0.375   6.572   3.284 -1.6842  0.0220 -0.7378
  472SOL    HW212163   0.512   6.557   3.196 -0.5490 -1.6953  1.2760
  474SOL     OW12164   3.453   1.803   1.520  0.5121 -0.0355  0.2950
  474SOL    HW112165   3.490   1.842   1.604  0.1670  0.1610  0.3581
  474SOL    HW212166   3.501   1.841   1.441 -0.1391  0.8700  0.3328
  475SOL     OW12167   1.510   5.177   2.498 -0.1304  0.4053 -0.2164
  475SOL    HW112168   1.579   5.187   2.426  0.4443 -1.5337  0.0441
  475SOL    HW212169   1.439   5.113   2.467 -0.9546  1.1355  0.1497
  476SOL     OW12170   6.298   1.328   4.174 -0.0848 -0.4693 -0.1661
  476SOL    HW112171   6.297   1.228   4.177 -0.3920 -0.4470  0.5639
  476SOL    HW212172   6.223   1.360   4.117  0.6151 -0.6814 -1.2146
  477SOL     OW12173   4.687   6.393   1.038  0.3765 -0.0497 -0.9181
  477SOL    HW112174   4.691   6.492   1.032 -0.2594 -0.0637 -1.6860
  477SOL    HW212175   4.773   6.354   1.005  0.4906  0.2367 -0.9579
  478SOL     OW12176   3.781   0.954   4.571  0.2728  0.5705  0.4689
  478SOL    HW112177   3.814   1.011   4.496 -0.5263 -0.3192 -0.5603
  478SOL    HW212178   3.818   0.989   4.657 -1.1099  3.3623 -0.0024
  479SOL     OW12179   6.248   9.447   2.459 -0.8913  0.5789 -0.1926
  479SOL    HW112180   6.257   9.544   2.436 -1.3082  0.6274 -0.1606
  479SOL    HW212181   6.241   9.437   2.558  0.7129  0.3860 -0.0897
  480SOL     OW12182   1.643   3.965   3.296  0.4393  0.1600  0.1917
  480SOL    HW112183   1.734   4.000   3.318  0.4694 -0.4440  1.0520
  480SOL    HW212184   1.646   3.865   3.293 -0.1735  0.1429  0.0955
  481SOL     OW12185   0.671   0.795   0.949  1.1414  0.0725  1.2755
  481SOL    HW112186   0.722   0.741   0.882  0.6592  0.2425  0.7687
  481SOL    HW212187   0.651   0.886   0.911  0.0956 -0.1360  1.3031
  483SOL     OW12188   4.452   1.578   0.275 -0.2692 -0.2188 -0.3446
  483SOL    HW112189   4.530   1.534   0.318 -0.3443  0.2867  0.3134
  483SOL    HW212190   4.379   1.591   0.342 -1.1836 -1.2989 -1.1110
  484SOL     OW12191   4.419   9.706   0.005 -0.1136 -0.1368  0.3554
  484SOL    HW112192   4.480   9.654   0.065  0.2842 -2.1958 -1.7597
  484SOL    HW212193   4.324   9.696   0.037  0.2723  0.3604  1.7110
  485SOL     OW12194   2.169   3.510   1.343  0.1275  0.3336  0.3111
  485SOL    HW112195   2.252   3.497   1.396  0.5670  0.0759 -0.4313
  485SOL    HW212196   2.095   3.540   1.403  0.2899 -1.1478  1.2846
  487SOL     OW12197   3.881   9.186   2.470  0.1260 -0.3521  1.0131
  487SOL    HW112198   3.850   9.189   2.565  0.1533 -0.2911  1.0201
  487SOL    HW212199   3.980   9.201   2.466  0.1388 -0.4469  0.9830
  489SOL     OW12200   0.263   4.163   1.592  0.0938 -0.1367  0.0995
  489SOL    HW112201   0.321   4.230   1.547  0.5252  0.1842  1.1150
  489SOL    HW212202   0.264   4.077   1.541  1.6140 -0.1931  0.2138
  490SOL     OW12203   9.462   6.720   1.076  0.3081 -0.1902  0.6585
  490SOL    HW112204   9.376   6.759   1.043  0.3991 -1.5011 -1.2363
  490SOL    HW212205   9.467   6.729   1.175 -1.7071  0.5062  0.7240
  492SOL     OW12206   9.741   4.361   4.918 -0.4265 -0.1547  0.1651
  492SOL    HW112207   9.744   4.442   4.859 -1.5085  0.3209  0.7372
  492SOL    HW212208   9.750   4.279   4.862 -0.7056  0.3175 -0.5846
  493SOL     OW12209   2.119   2.893   1.565 -0.4067 -0.0216 -0.0051
  493SOL    HW112210   2.204   2.938   1.593  0.2722  0.8051 -3.2036
  493SOL    HW212211   2.042   2.955   1.580  0.0532  0.7476 -0.7496
  494SOL     OW12212   5.418   1.367   4.437  0.1068 -0.3203 -0.0854
  494SOL    HW112213   5.503   1.405   4.402 -0.2434  0.4082 -0.1410
  494SOL    HW212214   5.368   1.323   4.363  0.5348 -0.9394 -0.0103
  495SOL     OW12215   1.628   7.800   1.028 -0.8199 -0.6690  0.2380
  495SOL    HW112216   1.687   7.846   1.095  0.0942 -1.5648  0.0628
  495SOL    HW212217   1.619   7.703   1.051 -1.0980 -0.8296 -0.5162
  496SOL     OW12218   2.851   5.809   3.371 -0.9410  0.0363  0.3185
  496SOL    HW112219   2.930   5.748   3.375 -0.1546  0.8494 -1.8751
  496SOL    HW212220   2.767   5.755   3.372 -0.3027 -0.9696  0.5496
  497SOL     OW12221   1.401   7.809   4.114 -0.0080 -0.1737 -0.2907
  497SOL    HW112222   1.482   7.750   4.110 -0.3786 -0.7837  0.9792
  497SOL    HW212223   1.427   7.904   4.097  0.8300 -0.4931 -0.8043
  498SOL     OW12224   0.216   0.734   5.113  0.1540  0.3881 -0.1541
  498SOL    HW112225   0.178   0.808   5.057  0.4290 -0.4180 -1.4227
  498SOL    HW212226   0.190   0.646   5.074  0.1648 -0.1917  1.1263
  499SOL     OW12227   7.888   3.223   2.954 -0.6315  0.5806 -0.0794
  499SOL    HW112228   7.808   3.281   2.971 -1.4180 -0.4787 -0.0994
  499SOL    HW212229   7.894   3.153   3.026  0.3560  0.7381 -0.0061
  501SOL     OW12230   9.537   9.449   1.667 -0.3318 -0.5154  0.1497
  501SOL    HW112231   9.524   9.430   1.765 -3.5497 -0.5140 -0.2000
  501SOL    HW212232   9.511   9.368   1.614 -1.0257  0.3194 -0.7921
  502SOL     OW12233   9.255   9.894   2.062  0.1435 -0.5852  0.2511
  502SOL    HW112234   9.248   9.846   2.149  2.3513 -1.9634 -0.2869
  502SOL    HW212235   9.326   9.964   2.067 -0.3742 -0.0202 -0.1529
  504SOL     OW12236   7.568   9.066   1.942  0.1686 -0.5514  0.1094
  504SOL    HW112237   7.626   9.116   2.007  0.9124 -1.6459  0.3157
  504SOL    HW212238   7.485   9.118   1.925  1.2038  1.0533 -0.1772
  505SOL     OW12239   6.610   8.915   4.124 -0.3230  0.0610  1.0525
  505SOL    HW112240   6.541   8.986   4.108  0.3435  0.3450 -0.6190
  505SOL    HW212241   6.576   8.827   4.092  0.3719  0.3389 -0.5024
  506SOL     OW12242   1.367   3.251   1.527 -0.4679  0.1909  1.0120
  506SOL    HW112243   1.399   3.177   1.468 -0.2602  2.6560 -2.0991
  506SOL    HW212244   1.441   3.315   1.544 -1.6659  1.8533  0.1769
  508SOL     OW12245   1.227   5.707   4.375  0.1322 -0.0997  0.4495
  508SOL    HW112246   1.275   5.783   4.420 -0.3499  0.0275  0.7524
  508SOL    HW212247   1.289   5.662   4.311  1.0423 -0.7017  1.7267
  509SOL     OW12248   9.862   3.258   1.145 -0.1768 -0.0548  0.3551
  509SOL    HW112249   9.927   3.206   1.201  0.9475 -1.1982 -1.9371
  509SOL    HW212250   9.777   3.208   1.138 -0.1909 -0.0848  0.7180
  510SOL     OW12251   2.663   2.343   2.149 -0.4577 -0.8083 -0.8081
  510SOL    HW112252   2.662   2.441   2.129 -0.6787 -1.0410 -1.9266
  510SOL    HW212253   2.577   2.301   2.121  0.6257 -1.7991 -2.7380
  511SOL     OW12254   3.345   0.999   4.799 -0.3950  0.0663 -0.5633
  511SOL    HW112255   3.315   1.053   4.878 -0.5026 -0.4479 -0.2492
  511SOL    HW212256   3.308   0.907   4.806  1.4803 -0.6658 -0.0250
  512SOL     OW12257   3.076   1.706   1.333  0.0515 -0.1912  0.2407
  512SOL    HW112258   3.145   1.775   1.311 -0.2288  0.1726  0.5030
  512SOL    HW212259   3.044   1.663   1.248 -0.9759  1.1603 -0.0598
  513SOL     OW12260   0.709   7.105   1.904 -0.2393  0.0048 -0.0802
  513SOL    HW112261   0.774   7.064   1.969  0.0137 -0.3570 -0.5552
  513SOL    HW212262   0.740   7.196   1.879 -0.0454 -0.0671 -0.1067
  514SOL     OW12263   5.445   0.574   4.544 -0.4559 -0.3175  0.4738
  514SOL    HW112264   5.496   0.559   4.459 -1.3586 -0.4596 -0.0507
  514SOL    HW212265   5.504   0.619   4.611  0.0162  0.5546 -0.5109
  515SOL     OW12266   1.133   1.174   1.565 -0.1660  0.0640 -0.2341
  515SOL    HW112267   1.083   1.260   1.568 -0.8538 -0.2661 -1.5731
  515SOL    HW212268   1.071   1.099   1.587  0.5554 -0.0600  1.4632
  516SOL     OW12269   2.279   9.136   1.751  0.4592  0.3443 -0.6158
  516SOL    HW112270   2.333   9.092   1.679  0.9192 -0.7437  0.3660
  516SOL    HW212271   2.309   9.102   1.840 -1.7619 -0.1736 -0.0412
  517SOL     OW12272   0.090   4.395   0.754 -0.1550  0.1311 -0.2051
  517SOL    HW112273   0.143   4.474   0.722  0.4635 -0.2570 -0.1572
  517SOL    HW212274   0.075   4.332   0.679  0.3505 -0.2545  0.0117
  520SOL     OW12275   0.726   5.028   3.278 -0.2537 -0.0211  0.6126
  520SOL    HW112276   0.782   5.092   3.330 -0.5666  0.7848 -0.0497
  520SOL    HW212277   0.785   4.975   3.217 -0.2627  1.1389 -0.4130
  522SOL     OW12278   1.661   1.062   1.374 -1.2080 -0.1558 -0.1365
  522SOL    HW112279   1.672   1.035   1.470 -0.1602 -1.5951 -0.6523
  522SOL    HW212280   1.585   1.128   1.367 -1.6348 -0.4294  1.5984
  523SOL     OW12281   7.356   4.799   0.371 -0.2374  0.3229 -0.1428
  523SOL    HW112282   7.261   4.813   0.397  0.2209 -0.0695  1.8721
  523SOL    HW212283   7.373   4.701   0.361  0.2838  0.2974  0.9011
  525SOL     OW12284   1.549   6.910   4.025 -0.0031  0.1510  0.2495
  525SOL    HW112285   1.479   6.939   4.090 -0.0541  0.4013  0.0844
  525SOL    HW212286   1.623   6.865   4.074 -1.2823 -2.0823  0.2127
  526SOL     OW12287   7.601   0.443   0.785  0.2938  0.2085 -0.4041
  526SOL    HW112288   7.510   0.482   0.770  0.2716 -0.1320 -1.1835
  526SOL    HW212289   7.609   0.411   0.879 -0.1845  0.7988 -0.1673
  528SOL     OW12290   7.142   0.215   4.267 -0.4060  0.4301 -0.6955
  528SOL    HW112291   7.202   0.146   4.308 -0.3797  1.0932  0.3727
  528SOL    HW212292   7.085   0.171   4.197 -0.7757 -0.7848  0.3549
  529SOL     OW12293   2.484   4.717   2.754  0.4742 -0.5839 -0.2373
  529SOL    HW112294   2.408   4.769   2.792 -0.8608 -1.2381 -1.9421
  529SOL    HW212295   2.545   4.689   2.828 -1.4355 -0.8665  1.2862
  530SOL     OW12296   9.955   9.636   0.465  0.2557  0.1001  0.0601
  530SOL    HW112297  10.012   9.618   0.546 -0.7441  0.1725  0.7879
  530SOL    HW212298  10.012   9.675   0.393  1.4184 -1.1994  0.2558
  531SOL     OW12299   3.962   2.745   2.877 -0.0771  0.5600  0.2615
  531SOL    HW112300   3.975   2.800   2.960  1.2751  2.3067 -1.0860
  531SOL    HW212301   3.901   2.793   2.814 -2.2071 -1.3871  0.7624
  532SOL     OW12302   4.345   1.633   5.104 -0.3990  0.3247 -0.3986
  532SOL    HW112303   4.406   1.707   5.076  0.8157  0.0683  1.4636
  532SOL    HW212304   4.394   1.573   5.167 -1.8723 -1.1914 -0.6899
  534SOL     OW12305   9.554   9.060   3.901  0.2484 -0.6640  0.4292
  534SOL    HW112306   9.508   8.992   3.844  0.3649  1.0330 -1.7789
  534SOL    HW212307   9.485   9.114   3.950 -0.1373  0.7785 -1.5924
  535SOL     OW12308   7.123   7.773   3.596 -0.1618 -0.1697 -0.1760
  535SOL    HW112309   7.053   7.701   3.598  0.0224 -0.3131  1.2706
  535SOL    HW212310   7.201   7.742   3.543 -1.7093  0.4840 -2.9375
  538SOL     OW12311   0.030   4.803   3.824  0.7505 -0.3313  0.9469
  538SOL    HW112312  -0.037   4.730   3.837  0.0114  0.2185  0.3127
  538SOL    HW212313   0.097   4.800   3.897  0.9645 -1.9070  0.7099
  540SOL     OW12314   4.390   7.740   2.195 -0.0000  0.4149  0.4349
  540SOL    HW112315   4.477   7.726   2.147  0.2730  1.2495  0.6856
  540SOL    HW212316   4.339   7.654   2.197  1.3180 -0.3643  1.2751
  541SOL     OW12317   0.503   2.416   2.217  0.0754  0.3842  0.0346
  541SOL    HW112318   0.516   2.432   2.119  1.0533 -1.9936 -0.2623
  541SOL    HW212319   0.582   2.452   2.267 -0.0698  0.9306 -0.1321
  542SOL     OW12320   0.506   5.025   1.136  0.2950 -0.3310  0.2734
  542SOL    HW112321   0.530   5.105   1.191  0.3476 -1.2278  1.5844
  542SOL    HW212322   0.419   5.041   1.089 -0.0960  0.1857  1.1643
  544SOL     OW12323   7.104   3.141   1.319 -0.1528  0.1389 -0.1846
  544SOL    HW112324   7.114   3.238   1.342 -1.2651  0.1234  0.3998
  544SOL    HW212325   7.062   3.132   1.229  1.5831  0.1940 -1.0173
  545SOL     OW12326   6.335   6.870   4.684 -0.2377 -0.3264 -0.0721
  545SOL    HW112327   6.366   6.779   4.709 -0.6605  0.0896  2.0700
  545SOL    HW212328   6.414   6.925   4.655  0.4901 -0.4484  1.6039
  546SOL     OW12329   5.465   4.526   0.770 -0.2323 -0.1657  0.0946
  546SOL    HW112330   5.389   4.540   0.707 -1.4087 -2.1365  1.0156
  546SOL    HW212331   5.449   4.577   0.854  0.7730  1.5367 -0.7316
  548SOL     OW12332   2.420   9.507   4.975 -0.6838 -0.6518  0.6462
  548SOL    HW112333   2.414   9.488   5.073  0.3389  1.5578  1.1613
  548SOL    HW212334   2.467   9.594   4.961 -0.7042 -1.0197 -1.8223
  549SOL     OW12335   3.015   2.328   0.987  0.3731  0.1791 -0.5901
  549SOL    HW112336   3.004   2.384   1.069  1.0807  0.0986 -0.4401
  549SOL    HW212337   3.111   2.325   0.961  0.1371  0.2693 -1.4704
  550SOL     OW12338   8.520   0.327   3.178  0.3081 -0.4597  0.1694
  550SOL    HW112339   8.615   0.327   3.209  0.2500 -1.6718  0.3596
  550SOL    HW212340   8.463   0.281   3.246 -0.2686 -0.5613 -0.3845
  551SOL     OW12341   3.383   9.016   3.073  0.1177  0.4424 -0.0010
  551SOL    HW112342   3.323   8.960   3.017  0.7422 -1.1153  0.8594
  551SOL    HW212343   3.329   9.084   3.122 -0.8688 -0.5700  0.3260
  552SOL     OW12344   7.116   9.748   4.888 -0.5662 -0.1736 -0.2662
  552SOL    HW112345   7.026   9.713   4.859 -0.5500  0.5887 -1.2793
  552SOL    HW212346   7.104   9.833   4.938 -0.3173  0.7751 -1.7901
  553SOL     OW12347   5.180   8.044   2.880 -0.1866 -0.2521  0.5378
  553SOL    HW112348   5.118   8.121   2.871  0.6414  0.5057  1.1932
  553SOL    HW212349   5.128   7.962   2.906 -1.1177 -0.0184 -0.5712
  554SOL     OW12350   8.469   6.353   3.109  0.5054  0.0426  0.0830
  554SOL    HW112351   8.462   6.294   3.028  1.7402  1.8524 -1.3815
  554SOL    HW212352   8.561   6.347   3.146 -0.0877 -0.8564  1.4499
  555SOL     OW12353   8.890   8.881   4.464  0.0053 -0.1708 -0.1615
  555SOL    HW112354   8.870   8.883   4.562  0.1993 -1.9934 -0.0589
  555SOL    HW212355   8.811   8.916   4.413  0.3248  1.8392  0.6730
  556SOL     OW12356   2.057   9.721   2.898  0.1994 -0.4074  0.2441
  556SOL    HW112357   2.054   9.810   2.943  2.0310  0.2124 -0.8215
  556SOL    HW212358   1.998   9.657   2.947  0.6449  0.7681  2.3619
  559SOL     OW12359   9.968   8.038   0.439 -0.3887 -0.0358 -0.0225
  559SOL    HW112360  10.034   7.967   0.466 -0.2133 -0.0552 -0.5026
  559SOL    HW212361   9.894   8.042   0.506  0.3119  0.2576  0.7447
  561SOL     OW12362   1.879   5.543   4.294  0.1015  0.3315  0.5993
  561SOL    HW112363   1.917   5.469   4.239 -0.0114 -0.4599  1.5601
  561SOL    HW212364   1.954   5.594   4.338  0.1227 -0.2020  1.1884
  562SOL     OW12365   0.172   9.283   2.026 -0.0936  0.2469 -0.0661
  562SOL    HW112366   0.137   9.220   1.957  1.0392 -0.8717  0.3571
  562SOL    HW212367   0.132   9.262   2.114  0.3005  0.0896  0.0790
  563SOL     OW12368   9.648   2.896   3.385  0.5433 -0.1451  0.3216
  563SOL    HW112369   9.720   2.965   3.387  0.6427 -0.1870 -1.5874
  563SOL    HW212370   9.564   2.937   3.351  0.2994 -0.6837  0.2814
  564SOL     OW12371   1.292   4.388   1.378 -0.5981 -0.5731 -0.5405
  564SOL    HW112372   1.381   4.359   1.412 -1.0089  0.1214  1.1705
  564SOL    HW212373   1.285   4.366   1.280  1.2211 -1.1191 -0.5680
  565SOL     OW12374   4.101   7.437   2.751  0.3970 -0.2677 -0.3454
  565SOL    HW112375   4.180   7.498   2.746  0.9152 -0.9134 -0.0088
  565SOL    HW212376   4.073   7.412   2.659 -0.4207  1.2461 -0.5361
  566SOL     OW12377   3.133   5.452   2.820  0.1762 -1.0010 -0.0277
  566SOL    HW112378   3.156   5.398   2.902  0.7089  1.1824  1.3150
  566SOL    HW212379   3.218   5.487   2.780 -0.2054 -0.5782 -0.4573
  567SOL     OW12380   4.814   0.937   3.423 -0.1013 -0.1097  0.1145
  567SOL    HW112381   4.777   0.983   3.342 -0.7208 -0.7413  0.0342
  567SOL    HW212382   4.774   0.978   3.505 -0.5192 -0.3823  0.0493
  568SOL     OW12383   7.949   2.996   0.608  0.3631 -0.3842  0.0710
  568SOL    HW112384   7.921   2.911   0.651  1.0304 -1.1193 -0.9205
  568SOL    HW212385   7.870   3.058   0.601 -0.3590 -1.3204 -0.1248
  569SOL     OW12386   9.512   5.622   1.945  0.4473 -0.3199  0.2390
  569SOL    HW112387   9.513   5.581   1.854 -1.3230 -0.8850  0.4491
  569SOL    HW212388   9.567   5.566   2.007  0.4657 -0.7355 -0.1491
  571SOL     OW12389   5.897   1.399   4.256  0.3720 -0.1469  0.3815
  571SOL    HW112390   5.886   1.327   4.324  0.4082 -0.9800 -0.5006
  571SOL    HW212391   5.810   1.448   4.244 -0.8230 -2.7673 -2.1003
  572SOL     OW12392   9.085   0.621   1.251 -0.2693 -0.0002 -0.4690
  572SOL    HW112393   9.147   0.700   1.262 -1.7276  1.2482 -1.0615
  572SOL    HW212394   9.061   0.611   1.155  0.1959 -1.4246 -0.4536
  573SOL     OW12395   8.708   1.544   1.980  0.0994  0.0473  0.0131
  573SOL    HW112396   8.728   1.573   1.886 -1.1728 -0.9997 -0.5888
  573SOL    HW212397   8.770   1.592   2.042  0.3272  1.4882 -1.2621
  574SOL     OW12398   3.352   5.509   2.675  1.3756  0.1523 -0.0635
  574SOL    HW112399   3.431   5.469   2.720  0.5030 -0.5930  0.8397
  574SOL    HW212400   3.360   5.609   2.674  1.9225  0.1179  0.7755
  575SOL     OW12401   9.060   3.079   4.706 -0.2877  0.3231  0.6166
  575SOL    HW112402   9.009   3.165   4.709 -3.6356 -1.5922  1.3941
  575SOL    HW212403   9.055   3.035   4.796 -1.9753 -2.4971 -0.7882
  576SOL     OW12404   1.824   7.381   3.203 -0.2066 -0.2975  0.0575
  576SOL    HW112405   1.797   7.338   3.290 -0.7131  0.2072  0.1490
  576SOL    HW212406   1.866   7.470   3.222  0.5797 -0.6171 -0.1536
  577SOL     OW12407   0.738   4.796   5.284  0.2319  0.0531 -0.0960
  577SOL    HW112408   0.782   4.718   5.329 -1.0806 -0.2325  0.7331
  577SOL    HW212409   0.686   4.763   5.205 -0.9288 -0.0310  0.6877
  578SOL     OW12410   1.739   8.252   1.794  0.2906  0.5530  0.1455
  578SOL    HW112411   1.663   8.214   1.741 -1.2711  2.6517  0.8019
  578SOL    HW212412   1.762   8.190   1.869  1.1839 -1.4713 -1.7590
  579SOL     OW12413   3.827   5.732   0.517  0.2565  0.6968  0.3265
  579SOL    HW112414   3.763   5.777   0.580 -1.6071 -0.5425 -0.6359
  579SOL    HW212415   3.793   5.739   0.424  0.5185 -1.6814  0.0161
  581SOL     OW12416   6.900   0.421   1.851  0.0732 -0.2852 -0.0257
  581SOL    HW112417   6.879   0.383   1.761 -1.3500 -1.4085  0.7459
  581SOL    HW212418   6.818   0.418   1.908  1.1613 -0.3439  1.5634
  582SOL     OW12419   2.987   3.553   1.918  0.0130 -0.4727  0.2392
  582SOL    HW112420   2.976   3.534   2.016  0.4980 -0.1184  0.3654
  582SOL    HW212421   2.900   3.585   1.881 -0.0806 -0.2475  0.6411
  584SOL     OW12422   4.033   2.655   4.397  0.0889 -0.2679  0.0189
  584SOL    HW112423   4.080   2.593   4.459 -0.5917  0.2387  1.0660
  584SOL    HW212424   3.934   2.646   4.410 -0.0265  0.7194 -0.1118
  585SOL     OW12425   7.333   9.574   2.075 -0.3012  0.0992 -0.1876
  585SOL    HW112426   7.405   9.561   2.143  0.4594  0.9050 -0.8330
  585SOL    HW212427   7.374   9.598   1.987 -1.3726  0.9095 -0.4763
  586SOL     OW12428   2.804   2.459   4.572  0.0223  0.3077 -0.1166
  586SOL    HW112429   2.796   2.535   4.636 -1.4832  0.0569  0.0072
  586SOL    HW212430   2.846   2.381   4.620  0.3157  0.6099  0.1287
  587SOL     OW12431   7.854   7.244   4.599 -0.2433 -0.7752  0.1382
  587SOL    HW112432   7.885   7.233   4.505  0.0853 -1.1167  0.2879
  587SOL    HW212433   7.873   7.161   4.651 -0.6243 -0.6688  0.4507
  588SOL     OW12434   9.516   5.254   3.551  0.6901 -0.2060 -0.4723
  588SOL    HW112435   9.434   5.239   3.496  1.4933 -2.0290 -1.2318
  588SOL    HW212436   9.539   5.170   3.601  2.9059 -0.2229 -1.4373
  589SOL     OW12437   1.076   1.090   0.738 -0.2156 -0.5428 -0.1080
  589SOL    HW112438   1.133   1.072   0.818  0.9854  1.6169 -0.4352
  589SOL    HW212439   1.050   1.186   0.737 -0.3901 -0.5858 -2.2104
  590SOL     OW12440   9.735   3.813   1.545 -0.0910  0.6701  0.4162
  590SOL    HW112441   9.638   3.789   1.553 -0.3706  1.8720  0.7961
  590SOL    HW212442   9.787   3.769   1.618  0.0468 -1.9407 -1.2133
  591SOL     OW12443   3.485   1.538   0.868  0.4762 -0.4683  0.2738
  591SOL    HW112444   3.477   1.572   0.962 -0.7251 -1.9729  0.7291
  591SOL    HW212445   3.574   1.494   0.856  0.8146  0.1275  0.5650
  592SOL     OW12446   9.430   4.056   3.083  0.1343  0.4904  0.4404
  592SOL    HW112447   9.470   4.130   3.137  0.0483 -0.3423  1.6494
  592SOL    HW212448   9.466   3.969   3.114 -0.7365 -0.0781 -0.1309
  594SOL     OW12449   4.789   8.516   2.944 -0.0287  0.1285  0.9661
  594SOL    HW112450   4.696   8.524   2.978 -0.8325 -0.8198 -0.9212
  594SOL    HW212451   4.830   8.432   2.979 -0.5733 -0.4481  0.2281
  597SOL     OW12452   3.890   1.712   3.539 -0.3560  0.4421  0.7101
  597SOL    HW112453   3.903   1.697   3.637  0.6700  1.9879  0.8309
  597SOL    HW212454   3.881   1.624   3.492  2.4251 -0.4402  1.7512
  600SOL     OW12455   3.638   5.418   3.507  0.1224 -0.5442  0.1814
  600SOL    HW112456   3.611   5.463   3.592 -1.9310 -1.5251  0.0697
  600SOL    HW212457   3.556   5.398   3.452  1.1234 -3.1055 -0.4205
  601SOL     OW12458   6.615   0.743   3.795 -0.4916 -0.4063 -0.6311
  601SOL    HW112459   6.640   0.716   3.888 -0.1569  0.2782 -0.5199
  601SOL    HW212460   6.588   0.662   3.743 -0.1665 -0.8594 -0.0989
  602SOL     OW12461   2.748   7.683   2.602  0.0702  0.2788 -0.3460
  602SOL    HW112462   2.680   7.754   2.583 -0.5657 -0.2330  0.0023
  602SOL    HW212463   2.727   7.601   2.549 -1.2018 -0.8496  1.8502
  603SOL     OW12464   8.649   9.858   1.089  0.3418 -0.2970  0.3310
  603SOL    HW112465   8.744   9.885   1.072 -0.2468  2.1525  0.7808
  603SOL    HW212466   8.614   9.811   1.008  1.0407  1.4148 -1.0178
  605SOL     OW12467   7.843   5.358   0.550 -0.4703 -0.0238 -0.0508
  605SOL    HW112468   7.846   5.284   0.616 -0.3738  0.4532  0.4849
  605SOL    HW212469   7.832   5.445   0.598  2.0650  0.5782 -0.4910
  606SOL     OW12470   9.498   8.172   5.250 -0.0977  0.1908  0.1515
  606SOL    HW112471   9.399   8.174   5.264 -0.3213  0.1406 -1.3402
  606SOL    HW212472   9.518   8.144   5.156  1.3251  0.7351  0.2745
  607SOL     OW12473   8.241   8.681   4.676  0.1951 -0.0209 -0.5108
  607SOL    HW112474   8.169   8.749   4.661  0.9694  0.9291 -0.0004
  607SOL    HW212475   8.234   8.646   4.769 -0.3701 -0.8401 -0.8630
  608SOL     OW12476   1.233   5.365   4.147 -0.3966 -0.4984 -0.1499
  608SOL    HW112477   1.290   5.447   4.156 -1.6802  0.1657  2.5692
  608SOL    HW212478   1.290   5.283   4.149  0.6437  0.2249  0.1615
  609SOL     OW12479   1.937   3.151   2.445  0.1619  0.1939 -0.3915
  609SOL    HW112480   2.003   3.174   2.373  0.5106 -1.7659 -0.7346
  609SOL    HW212481   1.968   3.069   2.492 -1.0754  0.3614  0.7141
  610SOL     OW12482   0.418   1.677   1.471 -0.2463 -0.5888  0.1990
  610SOL    HW112483   0.429   1.614   1.547 -0.6820  1.1568  1.7380
  610SOL    HW212484   0.462   1.764   1.493  0.3719 -0.3355 -1.9004
  611SOL     OW12485   3.958   2.896   4.149  0.2193  0.0267 -0.2119
  611SOL    HW112486   3.984   2.881   4.244 -1.2873 -0.0254  0.2159
  611SOL    HW212487   3.936   2.808   4.107 -0.2512  0.1575 -0.2476
  613SOL     OW12488   8.000   5.649   0.171  0.1963 -0.5498 -0.1282
  613SOL    HW112489   8.071   5.597   0.219  0.1144 -0.5523 -0.0085
  613SOL    HW212490   7.975   5.601   0.087  0.9345 -0.1168 -0.5990
  614SOL     OW12491   3.965   8.106   4.478  0.1644  0.4592  0.1378
  614SOL    HW112492   3.974   8.205   4.473  1.0614  0.4450  1.1554
  614SOL    HW212493   3.868   8.081   4.474 -0.1207  1.4360  0.7529
  616SOL     OW12494   1.518   7.042   3.053  0.3720 -0.7090 -0.1081
  616SOL    HW112495   1.498   7.089   2.967  1.4254 -0.7018 -0.3538
  616SOL    HW212496   1.616   7.023   3.059  0.3307 -0.5601  1.1659
  618SOL     OW12497   2.520   8.549   1.213 -0.3293  0.2125  0.3658
  618SOL    HW112498   2.620   8.542   1.209 -0.4697 -1.4705 -0.7503
  618SOL    HW212499   2.484   8.476   1.271 -0.9311  0.8045  0.7506
  619SOL     OW12500   0.252   5.715   3.343 -0.0823 -0.3977  0.6252
  619SOL    HW112501   0.201   5.767   3.275 -0.2275 -0.0910  0.9658
  619SOL    HW212502   0.225   5.744   3.435  0.2263 -0.6959  0.8139
  620SOL     OW12503   7.984   7.613   2.282 -0.8545 -0.3004  0.5894
  620SOL    HW112504   7.985   7.625   2.183  0.5740  0.1616  0.6513
  620SOL    HW212505   8.002   7.517   2.305  0.1569 -0.1487  0.4361
  621SOL     OW12506   1.996   8.522   3.836 -0.2939  0.4938  0.1000
  621SOL    HW112507   1.942   8.569   3.766  2.2523  1.9161 -0.9470
  621SOL    HW212508   2.037   8.589   3.898  1.0051 -0.5087  0.3469
  622SOL     OW12509   9.731   4.531   4.707  0.0188  0.2628  0.8230
  622SOL    HW112510   9.803   4.503   4.644 -0.4098  0.3584  0.2878
  622SOL    HW212511   9.673   4.600   4.663 -2.0702 -1.8360  0.2321
  623SOL     OW12512   2.693   7.444   1.178  0.4823 -0.0663 -0.1641
  623SOL    HW112513   2.595   7.449   1.199  0.4158  1.3212 -0.7824
  623SOL    HW212514   2.707   7.388   1.097  0.2068 -0.2788 -0.0672
  624SOL     OW12515   5.190   9.697   5.290 -0.0107 -0.0180 -0.0828
  624SOL    HW112516   5.214   9.793   5.276  0.1570 -0.0271  0.1337
  624SOL    HW212517   5.114   9.690   5.355 -0.0109 -0.0306 -0.0843
  625SOL     OW12518   1.112   4.235   4.886 -0.5776 -0.4811  0.3315
  625SOL    HW112519   1.037   4.295   4.860 -0.1669  0.3697  1.0938
  625SOL    HW212520   1.116   4.157   4.823 -1.3720  0.0730 -0.4065
  626SOL     OW12521   5.382   7.420   4.966  0.3902 -0.7017 -0.8351
  626SOL    HW112522   5.384   7.366   4.882 -1.9551 -1.1636 -0.6264
  626SOL    HW212523   5.288   7.450   4.984  1.1981  1.1015  0.5521
  627SOL     OW12524   9.086   7.674   2.004 -0.2172 -0.6335  0.4991
  627SOL    HW112525   9.048   7.584   2.025 -1.3933 -0.1935  0.2722
  627SOL    HW212526   9.013   7.735   1.973  0.4667  0.6014  1.2863
  628SOL     OW12527   8.636   5.555   4.712 -0.4360  0.1817 -0.5575
  628SOL    HW112528   8.701   5.481   4.730  0.6185  2.0972  4.5951
  628SOL    HW212529   8.546   5.529   4.747 -0.5230  0.5895 -0.4751
  630SOL     OW12530   6.940   0.790   5.037  0.2324 -0.2133  0.5984
  630SOL    HW112531   6.938   0.848   5.118 -1.1906 -0.7579  0.9705
  630SOL    HW212532   6.853   0.740   5.029  0.0409  0.3999 -1.6787
  631SOL     OW12533   3.885   1.344   1.961 -0.1287  0.1401  0.0263
  631SOL    HW112534   3.825   1.332   2.039  2.5538 -1.6973  1.8872
  631SOL    HW212535   3.972   1.384   1.991  1.0807 -0.9128 -1.9368
  632SOL     OW12536   2.532   5.484   1.921  0.2158  0.0249 -0.1817
  632SOL    HW112537   2.530   5.384   1.919 -1.2924  0.0388 -0.4988
  632SOL    HW212538   2.596   5.517   1.851 -1.7897 -0.6954 -2.4461
  633SOL     OW12539   3.343   1.902   4.427 -0.2929 -0.5846 -0.2436
  633SOL    HW112540   3.370   1.888   4.331 -0.3388  0.1977 -0.3743
  633SOL    HW212541   3.249   1.935   4.431  0.6683  2.2654 -0.1050
  634SOL     OW12542   3.832   8.475   2.673 -0.2911 -0.1868 -0.0849
  634SOL    HW112543   3.850   8.383   2.709 -0.3253 -0.1918 -0.0816
  634SOL    HW212544   3.794   8.531   2.746 -1.6231 -0.5758 -0.4665
  635SOL     OW12545   3.958   8.459   3.447 -0.1458  0.0080  0.6081
  635SOL    HW112546   3.919   8.537   3.400  0.0009 -0.1218  0.2689
  635SOL    HW212547   3.900   8.433   3.525 -0.6025 -0.0348  0.2540
  636SOL     OW12548   2.774   6.702   0.470 -0.0027 -0.0632  0.7405
  636SOL    HW112549   2.809   6.616   0.509  1.7676  0.5531  0.5304
  636SOL    HW212550   2.682   6.686   0.435  0.4273 -1.9785  0.3884
  637SOL     OW12551   2.341   5.947   4.050  0.0238  0.6721  0.5956
  637SOL    HW112552   2.386   5.862   4.025  0.5820  1.1037  0.1207
  637SOL    HW212553   2.242   5.937   4.039 -0.0157 -0.3292  1.8028
  639SOL     OW12554   6.601   9.556   4.134 -0.1079  0.0044  0.0516
  639SOL    HW112555   6.566   9.537   4.042 -1.5382  0.6665  0.4501
  639SOL    HW212556   6.669   9.487   4.158  1.7841  0.9686 -2.3064
  640SOL     OW12557   4.372   5.537   3.043 -0.4655  0.1285  0.3170
  640SOL    HW112558   4.294   5.599   3.035  0.7878  1.8042  0.7290
  640SOL    HW212559   4.441   5.561   2.975 -0.1500 -1.1303  0.1705
  641SOL     OW12560   1.691   5.358   3.593 -0.2147  0.6996  0.4032
  641SOL    HW112561   1.749   5.295   3.542  0.1478  0.0939  1.5543
  641SOL    HW212562   1.640   5.415   3.529 -0.1148 -0.3634 -0.6383
  642SOL     OW12563   9.339   8.106   0.842  0.7475 -0.3229  0.0932
  642SOL    HW112564   9.266   8.139   0.782  0.4638 -0.1700  0.5223
  642SOL    HW212565   9.311   8.114   0.937  1.9293  1.2006  0.3298
  644SOL     OW12566   4.117   1.019   2.196 -0.4398  0.0496  0.0450
  644SOL    HW112567   4.071   1.011   2.284  0.5618 -0.1279  0.5691
  644SOL    HW212568   4.108   1.113   2.162 -0.2189  0.3135  0.6977
  645SOL     OW12569   3.526   9.395   4.886 -0.0262 -0.3297  0.4486
  645SOL    HW112570   3.470   9.329   4.935 -1.1236  0.8088  0.7531
  645SOL    HW212571   3.508   9.388   4.788 -1.0232  0.3235  0.5829
  647SOL     OW12572   2.923   5.512   2.632  0.0789  0.1497  0.0902
  647SOL    HW112573   2.892   5.605   2.609  0.9513  0.2621 -0.6550
  647SOL    HW212574   2.990   5.516   2.705  0.7466  0.1893 -0.5144
  651SOL     OW12575   8.429   1.429   2.722 -0.1437 -0.1170  0.1118
  651SOL    HW112576   8.436   1.337   2.683  1.7231  0.4325 -0.9515
  651SOL    HW212577   8.515   1.477   2.707 -0.5121  1.2243  2.1783
  652SOL     OW12578   1.524   7.150   2.406  0.8993  0.3540  0.1259
  652SOL    HW112579   1.585   7.085   2.360 -1.9598 -1.4894 -1.2424
  652SOL    HW212580   1.477   7.206   2.338  0.4926  1.2308  1.1116
  653SOL     OW12581   5.207   0.479   2.957  0.2285  0.1660  0.0314
  653SOL    HW112582   5.164   0.538   3.026  0.0861 -0.3748  0.4072
  653SOL    HW212583   5.290   0.438   2.995  0.5164  0.3906 -0.3460
  654SOL     OW12584   1.139   0.832   3.765  0.2572  0.3053 -0.1410
  654SOL    HW112585   1.124   0.876   3.677 -0.2397  0.3093 -0.0595
  654SOL    HW212586   1.202   0.887   3.820 -0.3041  0.8899 -0.0688
  655SOL     OW12587   0.637   0.253   0.437 -0.0296 -0.1760 -0.2912
  655SOL    HW112588   0.674   0.313   0.507 -1.8290 -0.6315  1.1096
  655SOL    HW212589   0.642   0.297   0.348  0.0336  1.4216  0.4951
  656SOL     OW12590   9.798   5.754   4.241  0.1844 -0.3304  0.1650
  656SOL    HW112591   9.852   5.676   4.210  0.1395  0.1781 -1.2574
  656SOL    HW212592   9.704   5.745   4.208  0.7969  1.5878 -2.3434
  657SOL     OW12593   3.549   9.746   2.411  0.0929 -0.4658  0.5141
  657SOL    HW112594   3.596   9.830   2.381  3.6176 -2.3942  0.3957
  657SOL    HW212595   3.528   9.753   2.508 -1.1727  1.2261  0.1419
  659SOL     OW12596   1.596   6.610   3.959  0.2596  0.2271  0.1592
  659SOL    HW112597   1.622   6.644   3.869  0.6417  0.3947  0.3282
  659SOL    HW212598   1.504   6.640   3.981  0.3168  0.5288 -0.0073
  660SOL     OW12599   6.757   0.851   3.287  0.0492 -0.2173 -0.3060
  660SOL    HW112600   6.742   0.791   3.209 -0.1424  0.5751 -0.8878
  660SOL    HW212601   6.737   0.802   3.372 -0.1147 -0.9635 -0.7754
  661SOL     OW12602   4.642   8.215   3.459 -0.2556 -0.4180 -0.5344
  661SOL    HW112603   4.675   8.307   3.480  1.7582 -1.1216 -0.5989
  661SOL    HW212604   4.589   8.180   3.537 -2.0113  1.2025 -0.9360
  662SOL     OW12605   9.850   6.106   2.929  0.1610 -0.6634 -0.3619
  662SOL    HW112606   9.897   6.168   2.992  1.7870 -2.0646 -0.1607
  662SOL    HW212607   9.819   6.025   2.980  1.0942 -1.5950 -1.2551
  663SOL     OW12608   0.683   6.225   3.633  0.2007 -0.1490  0.2637
  663SOL    HW112609   0.658   6.304   3.578 -1.0722  0.3352  1.4999
  663SOL    HW212610   0.619   6.150   3.615  1.0370 -0.7099 -0.4488
  664SOL     OW12611   0.261   8.210   1.821  0.1587  0.4860 -0.2923
  664SOL    HW112612   0.199   8.197   1.899 -1.0608 -0.9609 -1.4660
  664SOL    HW212613   0.208   8.233   1.740  1.1354 -0.9013 -1.3446
  665SOL     OW12614   0.784   2.820   2.339 -0.5304 -0.0609 -0.3638
  665SOL    HW112615   0.794   2.916   2.364 -0.7523 -0.6406  2.0893
  665SOL    HW212616   0.875   2.779   2.327 -0.4256  0.2113 -0.4995
  666SOL     OW12617   0.943   0.996   2.911  0.0166 -0.3612 -0.4368
  666SOL    HW112618   0.937   1.096   2.916  0.8960 -0.1213 -3.4228
  666SOL    HW212619   0.867   0.961   2.856  0.6592 -1.2009 -0.7858
  667SOL     OW12620   3.337   7.625   0.339  0.1757 -0.6524  0.0878
  667SOL    HW112621   3.281   7.545   0.357 -0.6799 -0.5544 -2.0484
  667SOL    HW212622   3.290   7.707   0.373 -0.0259 -0.7896  0.1385
  668SOL     OW12623   9.042   8.015   3.980 -0.4467 -0.1854  0.2636
  668SOL    HW112624   9.083   7.991   4.068 -0.0055 -0.2460  0.0428
  668SOL    HW212625   9.103   8.077   3.931 -1.1740  0.6989  0.4502
  669SOL     OW12626   4.515   0.533   4.736 -0.0817  0.1160 -0.2535
  669SOL    HW112627   4.545   0.476   4.660 -0.5160  0.3862 -0.6290
  669SOL    HW212628   4.486   0.474   4.812  0.5358 -0.1505 -0.2217
  670SOL     OW12629   0.321   4.093   3.044  0.8128 -0.4637  0.0523
  670SOL    HW112630   0.385   4.154   3.091  0.7434 -0.7414  0.5079
  670SOL    HW212631   0.228   4.126   3.055  0.8844  0.0149 -0.7249
  671SOL     OW12632   8.616   4.943   2.279  0.1137  0.4622 -0.0853
  671SOL    HW112633   8.529   4.901   2.307 -0.1985  0.7426 -0.6460
  671SOL    HW212634   8.602   5.000   2.199  0.6582  1.1783  0.3174
  672SOL     OW12635   7.772   0.412   3.563 -0.2937 -0.2311 -0.1515
  672SOL    HW112636   7.810   0.324   3.592 -1.0464 -0.3289  0.5449
  672SOL    HW212637   7.846   0.470   3.527  0.4802 -0.4998  0.9977
  675SOL     OW12638   0.470   3.538   3.795 -0.1231  0.3189 -0.0042
  675SOL    HW112639   0.413   3.481   3.854  0.6730 -0.8423 -0.3415
  675SOL    HW212640   0.450   3.517   3.699 -0.4264  1.2147 -0.1426
  676SOL     OW12641   1.247   2.658   2.252 -0.2123 -0.1713 -0.3268
  676SOL    HW112642   1.315   2.731   2.247  0.1639 -0.6017 -1.8587
  676SOL    HW212643   1.289   2.572   2.222 -1.3469 -0.5007 -1.0034
  677SOL     OW12644   9.506   7.718   3.393 -0.6507 -0.6472  0.2388
  677SOL    HW112645   9.516   7.793   3.458  0.6704  0.7124 -1.4604
  677SOL    HW212646   9.558   7.639   3.424 -0.2360 -0.1019  0.9432
  678SOL     OW12647   2.854   0.697   3.825  0.6149 -0.0694  0.0846
  678SOL    HW112648   2.923   0.657   3.765  0.2902  0.1082 -0.4154
  678SOL    HW212649   2.767   0.704   3.775  0.6241  1.0903  0.2177
  679SOL     OW12650   9.970   3.390   2.020 -0.7018  0.3842  0.9411
  679SOL    HW112651   9.934   3.437   1.939 -0.5470  2.6082  2.1106
  679SOL    HW212652  10.018   3.307   1.992  0.5329  1.8331 -1.3715
  680SOL     OW12653   5.046   3.697   4.592  0.2053 -0.0082 -0.2356
  680SOL    HW112654   4.973   3.704   4.660  0.2123 -0.8403 -0.1341
  680SOL    HW212655   5.122   3.756   4.619 -0.2934  0.6044 -0.1652
  683SOL     OW12656   4.063   0.964   2.871  0.2274  0.2769 -0.5664
  683SOL    HW112657   4.154   1.003   2.889 -0.3283  0.7437  1.3946
  683SOL    HW212658   4.050   0.883   2.929 -1.3715  1.4202  0.7325
  685SOL     OW12659   6.124   5.098   0.670  0.1404  0.0092  0.0223
  685SOL    HW112660   6.063   5.076   0.745 -0.3174  1.2597  0.0403
  685SOL    HW212661   6.133   5.019   0.609 -0.7547 -0.4819  0.5235
  686SOL     OW12662   2.916   6.735   4.638  0.4255 -0.2891  0.0214
  686SOL    HW112663   2.927   6.794   4.559 -1.4543  1.0189  0.7086
  686SOL    HW212664   3.006   6.707   4.672  1.2997  1.1592 -1.0637
  688SOL     OW12665   7.664   4.320   0.391 -0.0128 -0.0750  0.4221
  688SOL    HW112666   7.753   4.298   0.352  0.4695  0.2064  1.3504
  688SOL    HW212667   7.592   4.303   0.323  0.5902 -1.8546  0.2193
  689SOL     OW12668   9.601   7.124   1.076 -0.0096  0.4455 -0.3411
  689SOL    HW112669   9.630   7.048   1.134 -2.6891  0.3268  0.9018
  689SOL    HW212670   9.646   7.208   1.106 -1.2591  0.3588  1.8630
  690SOL     OW12671   8.023   3.640   2.845  0.0163  0.1414  0.1906
  690SOL    HW112672   7.931   3.632   2.883 -1.3017 -2.0879 -3.2246
  690SOL    HW212673   8.018   3.677   2.753  2.3341 -1.6637 -0.7191
  691SOL     OW12674   8.964   6.431   0.459  0.2333  0.0847 -0.2137
  691SOL    HW112675   9.012   6.346   0.481 -0.3504 -0.2521 -0.2042
  691SOL    HW212676   8.921   6.422   0.369  3.0713  1.6603 -1.7983
  692SOL     OW12677   4.263   2.230   0.290 -0.4374 -0.0277 -0.3813
  692SOL    HW112678   4.362   2.233   0.303 -0.6993 -3.2066  3.4632
  692SOL    HW212679   4.223   2.315   0.323  0.7130 -0.3261  1.8751
  696SOL     OW12680   2.432   4.234   1.801 -0.2520 -0.6767 -0.0629
  696SOL    HW112681   2.344   4.188   1.795 -1.2381  1.0601  0.6049
  696SOL    HW212682   2.419   4.333   1.793  1.5513 -0.3401  0.7126
  697SOL     OW12683   2.993   3.371   1.300 -0.1576 -0.1135 -0.4980
  697SOL    HW112684   2.962   3.362   1.395  0.7632 -0.1457 -0.1883
  697SOL    HW212685   3.084   3.331   1.291 -0.3682 -0.3883 -1.4730
  698SOL     OW12686   0.153   6.205   5.174 -0.4806 -0.2631  0.5364
  698SOL    HW112687   0.096   6.127   5.150  0.7904 -1.3054  0.8573
  698SOL    HW212688   0.135   6.232   5.269 -1.0598 -0.0402  0.3637
  699SOL     OW12689   1.487   7.940   1.983  0.1999  0.1618 -0.4380
  699SOL    HW112690   1.559   7.886   1.939 -0.4679 -0.5339 -0.6848
  699SOL    HW212691   1.509   7.949   2.081  0.8228  0.2882 -0.5848
  701SOL     OW12692   3.091   2.220   4.370 -0.0208 -0.3268  0.6148
  701SOL    HW112693   3.096   2.124   4.397 -0.7609 -0.2486  1.0673
  701SOL    HW212694   3.023   2.231   4.297  1.9311 -0.5246 -1.2650
  702SOL     OW12695   0.676   9.319   1.994  0.3134  0.0510  0.0341
  702SOL    HW112696   0.688   9.350   1.900  0.3712  0.4707  0.1822
  702SOL    HW212697   0.578   9.312   2.014  0.2812  1.9279  0.5953
  703SOL     OW12698   5.176   6.767   1.784  0.3391 -0.5709 -0.3313
  703SOL    HW112699   5.119   6.829   1.730 -2.2261 -0.4426  2.3584
  703SOL    HW212700   5.215   6.816   1.862 -0.5514 -1.9558  1.0232
  704SOL     OW12701   9.005   0.832   0.581 -0.2664  0.2502  0.3379
  704SOL    HW112702   9.072   0.797   0.515  1.2942  2.7960  0.4782
  704SOL    HW212703   8.974   0.758   0.640  2.7783 -0.9434  0.5276
  705SOL     OW12704   1.654   7.026   3.807  0.2706  0.5879 -1.0525
  705SOL    HW112705   1.588   7.056   3.738  0.3579  0.7743 -1.0552
  705SOL    HW212706   1.606   6.982   3.882  0.1351  0.7834 -1.0235
  706SOL     OW12707   0.199   0.593   4.504 -0.2055  0.3640  0.0573
  706SOL    HW112708   0.114   0.540   4.495  1.1314 -2.0636  1.2989
  706SOL    HW212709   0.207   0.627   4.598  0.8722 -0.6575  0.3491
  707SOL     OW12710   3.620   7.941   5.271 -0.0977 -0.0134 -0.0732
  707SOL    HW112711   3.544   7.906   5.216  0.3023  1.0984 -1.3834
  707SOL    HW212712   3.695   7.966   5.210 -0.0275  2.2124  0.8909
  708SOL     OW12713   0.101   5.250   1.539  0.8983 -0.2441 -0.3407
  708SOL    HW112714   0.163   5.279   1.466 -0.4553  0.0201 -1.4016
  708SOL    HW212715   0.138   5.168   1.583  2.9886  1.0391  0.3730
  709SOL     OW12716   3.324   9.062   0.064 -0.4605 -0.0828 -0.0746
  709SOL    HW112717   3.302   9.090   0.157 -0.3345 -1.4124  0.3661
  709SOL    HW212718   3.276   9.120  -0.001 -2.6630 -0.8394  0.8457
  711SOL     OW12719   2.182   2.262   3.387 -0.0941 -0.2218 -0.1949
  711SOL    HW112720   2.184   2.262   3.487 -0.6497  1.5958 -0.1588
  711SOL    HW212721   2.124   2.337   3.355 -0.7075 -1.3748 -1.8748
  712SOL     OW12722   1.005   6.926   1.792 -0.0672 -0.1455  0.2797
  712SOL    HW112723   0.975   6.939   1.886 -1.6951  1.1927 -0.4057
  712SOL    HW212724   0.997   7.012   1.742 -1.1895 -1.3296 -1.6240
  714SOL     OW12725   4.484   5.104   2.437 -0.0870  0.0366  0.1611
  714SOL    HW112726   4.420   5.170   2.399  0.1335  0.2343  0.1323
  714SOL    HW212727   4.510   5.132   2.530 -0.7521 -0.5336  0.5237
  715SOL     OW12728   1.985   0.168   0.336  0.2550  1.0946  0.5419
  715SOL    HW112729   2.020   0.160   0.243 -2.8611 -0.7788 -0.5152
  715SOL    HW212730   1.906   0.229   0.337  0.1298  0.9258  1.9136
  716SOL     OW12731   2.619   3.079   3.375  0.5383 -0.4711  0.0350
  716SOL    HW112732   2.644   3.000   3.431 -0.2659 -0.9595 -0.2811
  716SOL    HW212733   2.586   3.047   3.286 -0.0967  0.2081  0.0252
  718SOL     OW12734   9.981   6.983   3.892  0.2084 -0.2250 -0.1113
  718SOL    HW112735  10.022   6.929   3.819 -1.0841 -1.0716 -0.2249
  718SOL    HW212736   9.924   7.055   3.853 -1.0621 -1.1230  0.0305
  719SOL     OW12737   3.176   4.411   1.892 -0.4304 -0.2405  0.5382
  719SOL    HW112738   3.206   4.423   1.986 -0.3783 -1.0252  0.6305
  719SOL    HW212739   3.153   4.314   1.877 -0.6031 -0.0874 -0.2003
  721SOL     OW12740   5.519   4.759   1.424  0.0488  0.3654  0.0793
  721SOL    HW112741   5.451   4.829   1.447  0.7330  0.8227  0.7517
  721SOL    HW212742   5.606   4.804   1.402  0.2143 -0.2274 -0.4779
  723SOL     OW12743   4.583   3.007   4.101  0.1561 -0.5225 -0.7760
  723SOL    HW112744   4.606   2.963   4.014  0.2229 -0.5420 -0.7485
  723SOL    HW212745   4.601   2.944   4.176 -1.3290 -1.0674 -0.8539
  724SOL     OW12746   5.715   5.332   0.531 -0.4831  0.3626  0.3234
  724SOL    HW112747   5.780   5.293   0.466 -0.5934  0.1628  0.3310
  724SOL    HW212748   5.679   5.259   0.590 -1.5262  0.2798 -0.3952
  726SOL     OW12749   9.047   8.237   4.807  0.1639 -0.2142  0.0960
  726SOL    HW112750   9.012   8.213   4.897 -1.1860  2.8032  0.4451
  726SOL    HW212751   9.111   8.314   4.815 -0.1334  0.2253 -1.5333
  727SOL     OW12752   2.942   3.170   2.623  0.1785  0.2816 -0.1997
  727SOL    HW112753   2.960   3.075   2.595 -0.7528 -0.2439  0.9783
  727SOL    HW212754   2.884   3.214   2.554  0.4913 -0.0425 -0.6761
  728SOL     OW12755   8.971   2.893   2.486 -0.2012 -0.0721 -0.2386
  728SOL    HW112756   8.954   2.795   2.473  0.3398 -0.1485 -0.3890
  728SOL    HW212757   8.950   2.942   2.401  0.0981 -0.1340 -0.3479
  729SOL     OW12758   4.062   9.462   0.020  0.2478 -0.0032  0.5299
  729SOL    HW112759   3.987   9.517  -0.018 -0.5035 -0.9260  0.6585
  729SOL    HW212760   4.092   9.502   0.107 -0.5101  0.0240  0.7813
  730SOL     OW12761   4.075   0.492   1.783 -0.0302 -0.0006 -0.8072
  730SOL    HW112762   4.119   0.582   1.790  1.3517 -0.6580 -0.9083
  730SOL    HW212763   4.012   0.492   1.705 -0.4903  1.0634 -0.4497
  731SOL     OW12764   9.752   8.885   4.047 -0.1747 -0.0549  0.4318
  731SOL    HW112765   9.696   8.871   4.129  0.4189  0.0195  0.8534
  731SOL    HW212766   9.738   8.977   4.012  1.2548  0.7086  1.7618
  732SOL     OW12767   9.031   9.577   3.412 -0.2298 -0.2597  0.4006
  732SOL    HW112768   8.956   9.618   3.359  2.4739  0.3811 -3.0654
  732SOL    HW212769   9.089   9.649   3.449  1.5335 -0.7977 -1.2396
  733SOL     OW12770   7.800   0.247   4.963  0.9717 -0.4102 -0.3026
  733SOL    HW112771   7.874   0.218   4.902  1.2204 -2.0277  0.7385
  733SOL    HW212772   7.735   0.304   4.912  0.9199 -2.1127 -2.2058
  734SOL     OW12773   3.469   3.593   2.503  0.0079  0.0072  0.0401
  734SOL    HW112774   3.425   3.602   2.593  1.0984 -2.0114  0.8151
  734SOL    HW212775   3.561   3.557   2.515  0.2889  0.0615 -1.8855
  735SOL     OW12776   9.487   7.374   3.662 -0.0590 -0.1950 -0.0453
  735SOL    HW112777   9.405   7.317   3.670  0.0427 -0.3654 -0.2017
  735SOL    HW212778   9.475   7.458   3.714 -0.3579 -0.1910 -0.1213
  736SOL     OW12779   2.750   0.451   4.519  0.5126  0.3464  0.1002
  736SOL    HW112780   2.821   0.501   4.471 -0.4158  0.7582 -0.8701
  736SOL    HW212781   2.732   0.494   4.607  0.5940  0.9913 -0.1951
  737SOL     OW12782   8.360   3.384   4.206  0.2971 -0.1537 -0.9155
  737SOL    HW112783   8.306   3.380   4.291  1.4064 -1.0684 -0.2266
  737SOL    HW212784   8.457   3.388   4.229  0.5809  0.1689 -2.1477
  738SOL     OW12785   8.261   7.266   1.566  0.0772 -0.3207 -0.3566
  738SOL    HW112786   8.246   7.229   1.658 -1.1670 -0.0674 -0.4579
  738SOL    HW212787   8.222   7.204   1.498 -2.0338  1.1438 -0.5275
  739SOL     OW12788   6.394   4.752   0.251  0.4622  0.4379  0.0322
  739SOL    HW112789   6.362   4.689   0.181  0.4125 -0.2578  0.6684
  739SOL    HW212790   6.363   4.720   0.341 -0.4665  1.9477  0.2674
  740SOL     OW12791   1.978   1.057   4.697  0.1605  0.1295 -0.2666
  740SOL    HW112792   2.008   0.988   4.630  0.4780  0.8247 -0.8506
  740SOL    HW212793   2.014   1.035   4.787 -0.7151 -1.1227 -0.2008
  741SOL     OW12794   2.275   0.013   3.641  0.2388  0.0376  0.1645
  741SOL    HW112795   2.210  -0.046   3.594 -0.8204 -0.0406  1.6768
  741SOL    HW212796   2.345  -0.043   3.686  1.4077  0.1249 -1.5070
  742SOL     OW12797   8.794   4.184   2.283 -0.0477 -0.0207 -0.4486
  742SOL    HW112798   8.766   4.250   2.213  0.6230 -0.8454 -1.5124
  742SOL    HW212799   8.846   4.231   2.354  0.4905  0.6071 -1.2362
  743SOL     OW12800   0.535   3.851   0.107  0.2293 -0.5880 -0.5521
  743SOL    HW112801   0.500   3.927   0.162 -0.6249 -1.5754  0.2831
  743SOL    HW212802   0.582   3.785   0.166  0.3819 -1.0393 -1.1716
  744SOL     OW12803   3.318   4.234   2.570 -0.0691  0.2957  0.6481
  744SOL    HW112804   3.233   4.264   2.614 -0.7961 -1.0090  0.1664
  744SOL    HW212805   3.317   4.261   2.474  0.1398  0.4111  0.6770
  745SOL     OW12806   1.096   3.697   0.377  0.1212  0.1818  0.2854
  745SOL    HW112807   1.081   3.604   0.412 -0.3350 -0.1072 -0.6346
  745SOL    HW212808   1.143   3.691   0.288  0.5436  0.8569  0.4634
  746SOL     OW12809   4.840   1.239   0.641  0.8650 -0.2897  0.4535
  746SOL    HW112810   4.837   1.316   0.577 -2.5020 -0.1715  0.6787
  746SOL    HW212811   4.867   1.272   0.731 -1.8226  0.9402  0.8680
  747SOL     OW12812   9.915   0.450   0.255  0.7453 -0.1651 -0.8254
  747SOL    HW112813   9.953   0.361   0.278  0.3179 -0.1969 -0.2466
  747SOL    HW212814   9.971   0.522   0.295 -0.8740 -0.2477  1.6821
  748SOL     OW12815   8.917   2.423   4.685  0.1502 -0.0232 -0.2665
  748SOL    HW112816   8.959   2.504   4.643  0.8969  0.6350  1.6995
  748SOL    HW212817   8.932   2.344   4.626  0.6437  0.9916 -1.5319
  749SOL     OW12818   1.560   1.497   3.694  0.1367 -0.2919  0.3445
  749SOL    HW112819   1.565   1.418   3.633  0.5047  0.6609 -0.8497
  749SOL    HW212820   1.464   1.515   3.718  0.0162 -0.8018  0.2513
  750SOL     OW12821   9.406   1.337   5.068 -0.5576  0.3891 -0.4454
  750SOL    HW112822   9.360   1.330   4.979  2.3085 -0.3055 -1.9190
  750SOL    HW212823   9.476   1.408   5.064 -0.6193  0.5641  1.3683
  751SOL     OW12824   1.605   5.808   2.209  0.1141  0.3511  0.6031
  751SOL    HW112825   1.511   5.818   2.178 -0.4528 -1.0696  1.8098
  751SOL    HW212826   1.613   5.841   2.303  1.2483  2.1869 -0.0971
  752SOL     OW12827   2.914   9.454   1.736 -0.3940 -0.1761 -0.2223
  752SOL    HW112828   2.880   9.547   1.747  1.1464  0.2446  1.1824
  752SOL    HW212829   3.012   9.457   1.716 -0.4419 -1.4917 -0.7327
  753SOL     OW12830   6.867   8.499   3.018 -0.1779 -0.0650 -0.2281
  753SOL    HW112831   6.920   8.438   2.959  2.4249  1.3639  0.5415
  753SOL    HW212832   6.807   8.445   3.076 -1.5853 -1.5930 -2.9924
  755SOL     OW12833   0.811   0.937   4.882  0.4253 -0.1957  0.4571
  755SOL    HW112834   0.765   0.881   4.814  0.7567 -0.6192  0.5827
  755SOL    HW212835   0.896   0.972   4.844 -0.1541  0.8660  0.1057
  756SOL     OW12836   9.270   3.331   3.053  0.0107  0.2262  0.2139
  756SOL    HW112837   9.225   3.242   3.042  0.4678 -0.0429  0.5142
  756SOL    HW212838   9.353   3.333   2.996 -0.5219  0.8203 -0.5499
  757SOL     OW12839   2.284   9.514   4.137  0.5289  0.3466 -0.0223
  757SOL    HW112840   2.205   9.542   4.193  0.5426  0.0301  0.1550
  757SOL    HW212841   2.253   9.453   4.065  0.8587 -1.1191  1.0595
  758SOL     OW12842   5.203   8.609   4.357 -0.4154 -0.1307  0.1050
  758SOL    HW112843   5.290   8.658   4.366 -0.4029  0.1793 -1.5319
  758SOL    HW212844   5.143   8.659   4.295 -0.3791 -2.1876 -1.6773
  759SOL     OW12845   8.987   5.515   2.349 -0.1851  0.5458 -0.1040
  759SOL    HW112846   8.972   5.423   2.314 -2.7141  1.1417 -0.6991
  759SOL    HW212847   9.022   5.511   2.442 -0.2489 -0.9955 -0.1407
  760SOL     OW12848   8.567   0.861   5.181  0.4038  0.4737  0.0550
  760SOL    HW112849   8.584   0.953   5.216 -0.4008  0.6227  0.0827
  760SOL    HW212850   8.650   0.825   5.139  0.5931  1.4067 -0.3915
  762SOL     OW12851   9.010   1.943   2.991 -0.3971 -0.1514 -0.4076
  762SOL    HW112852   9.014   1.853   2.948 -1.8194  0.1630 -1.2217
  762SOL    HW212853   8.938   1.943   3.060  0.8432 -0.1828  0.9255
  764SOL     OW12854   6.855   1.408   0.744  0.0199  0.1957  0.0205
  764SOL    HW112855   6.953   1.403   0.761  0.0586 -1.7940 -0.5902
  764SOL    HW212856   6.805   1.369   0.821 -0.2365  0.1336 -0.1744
  766SOL     OW12857   0.737   0.911   3.908  0.2712 -0.5233 -0.4011
  766SOL    HW112858   0.642   0.915   3.939  0.2042 -2.0706 -0.3544
  766SOL    HW212859   0.793   0.973   3.963 -0.3847 -0.9757  0.7968
  767SOL     OW12860   0.263   2.901   1.230 -0.0210 -0.0393  0.6829
  767SOL    HW112861   0.286   2.805   1.212 -1.8685 -0.3450 -0.2285
  767SOL    HW212862   0.344   2.950   1.262  1.3174 -1.5468 -0.3262
  768SOL     OW12863   1.322   2.806   2.832 -0.7271 -0.3152 -0.0500
  768SOL    HW112864   1.407   2.857   2.819  0.0465 -1.1720  1.4895
  768SOL    HW212865   1.280   2.833   2.919 -2.2481  0.3963 -0.9948
  769SOL     OW12866   2.787   3.282   2.977  0.5289  0.1635  0.5213
  769SOL    HW112867   2.749   3.304   3.067  0.5092 -0.5137  0.6825
  769SOL    HW212868   2.796   3.366   2.924 -2.1846  0.2307  0.0784
  771SOL     OW12869   7.358   1.666   4.464  0.0154  0.1009 -0.0704
  771SOL    HW112870   7.370   1.584   4.409 -3.1727 -0.4311 -0.0361
  771SOL    HW212871   7.323   1.740   4.408 -0.0389  0.5404  0.5334
  772SOL     OW12872   2.492   8.043   3.030  0.1225 -0.1736  0.3718
  772SOL    HW112873   2.471   7.950   3.000  0.7112  0.0904 -0.8993
  772SOL    HW212874   2.433   8.067   3.107 -0.0328 -1.5976  0.7127
  773SOL     OW12875   6.658   7.439   4.526  0.3972 -0.2115  0.4476
  773SOL    HW112876   6.694   7.349   4.551 -0.2177 -0.1885  1.4260
  773SOL    HW212877   6.559   7.442   4.544  0.3203  0.4933 -0.0579
  775SOL     OW12878   5.148   7.442   3.636 -0.0574 -0.0347  0.7046
  775SOL    HW112879   5.246   7.450   3.616 -0.4652  1.1341 -0.9328
  775SOL    HW212880   5.127   7.347   3.658  1.2185 -0.5658 -0.2553
  776SOL     OW12881   0.158   7.492   2.168 -0.1387  0.1126  0.6041
  776SOL    HW112882   0.063   7.473   2.147  0.2108 -2.6488  1.3320
  776SOL    HW212883   0.186   7.577   2.123 -2.9519  1.0421  0.5174
  777SOL     OW12884   3.195   2.902   4.998  0.1612 -0.0834 -0.1842
  777SOL    HW112885   3.244   2.816   5.014 -0.4357 -0.2367  0.9099
  777SOL    HW212886   3.260   2.977   4.988  0.6431 -0.3245  1.0295
  779SOL     OW12887   2.899   6.788   2.616 -0.0098 -0.1264 -0.2900
  779SOL    HW112888   2.944   6.720   2.673  1.5737 -0.4171 -1.8604
  779SOL    HW212889   2.805   6.803   2.649  0.2465 -1.6990  1.1761
  780SOL     OW12890   8.744   6.240   4.998 -0.1387  0.2812  0.6344
  780SOL    HW112891   8.681   6.198   5.063 -0.7024  1.1301  0.6380
  780SOL    HW212892   8.810   6.171   4.968 -1.1939 -0.6791  0.4573
  782SOL     OW12893   5.853   9.515   4.055 -0.2484  0.4857  0.3581
  782SOL    HW112894   5.764   9.470   4.045  1.0676 -1.8137 -1.3501
  782SOL    HW212895   5.886   9.503   4.149 -0.7845 -0.4616  0.4265
  783SOL     OW12896   4.229   2.413   4.208 -0.5399 -0.3377  0.0970
  783SOL    HW112897   4.183   2.411   4.119 -0.1565 -1.1395 -0.0855
  783SOL    HW212898   4.269   2.504   4.222 -2.0322  0.3177  0.1963
  785SOL     OW12899   4.477   9.989   2.321 -0.2395 -0.1023  0.0117
  785SOL    HW112900   4.502   9.935   2.401 -3.2231  0.3907  1.3737
  785SOL    HW212901   4.459   9.929   2.243  1.3578 -0.6856  0.0912
  786SOL     OW12902   5.195   0.566   2.410 -0.1501  0.3972 -0.4886
  786SOL    HW112903   5.217   0.481   2.459  0.7477 -0.3791 -2.1715
  786SOL    HW212904   5.096   0.571   2.396 -0.0291 -1.5995 -2.4354
  788SOL     OW12905   4.100   3.896   3.054  0.2756 -0.2924  0.4305
  788SOL    HW112906   4.034   3.970   3.044 -0.4297 -0.7866  1.3868
  788SOL    HW212907   4.184   3.932   3.095 -0.4776 -0.2294  1.9520
  789SOL     OW12908   0.494   8.147   2.592  0.2366  0.0121  0.0480
  789SOL    HW112909   0.530   8.190   2.509  1.2778 -0.7369  0.1070
  789SOL    HW212910   0.395   8.158   2.594  0.2638  0.5673 -0.9927
  792SOL     OW12911   3.371   2.911   3.119  1.0110  0.7296  0.0134
  792SOL    HW112912   3.296   2.850   3.146  0.8492 -0.2769 -2.5780
  792SOL    HW212913   3.425   2.935   3.200 -1.0291  0.0395  1.6380
  793SOL     OW12914   6.003   8.510   4.893  0.2440  0.0359  0.1028
  793SOL    HW112915   5.959   8.556   4.970  0.4635 -0.1156  0.3205
  793SOL    HW212916   6.102   8.522   4.899  0.3819 -1.2143  0.6597
  794SOL     OW12917   2.046   1.948   1.067  0.0349 -0.2889  0.2391
  794SOL    HW112918   2.091   1.970   1.154 -1.0816  1.3003  0.4278
  794SOL    HW212919   1.951   1.980   1.069 -0.5785 -1.9675 -0.8493
  795SOL     OW12920   9.109   2.433   0.113 -0.0959 -0.0892 -0.6481
  795SOL    HW112921   9.016   2.398   0.124  0.1242 -1.1947 -2.0760
  795SOL    HW212922   9.160   2.419   0.197 -0.9209 -0.3872 -0.1878
  797SOL     OW12923   2.833   0.542   0.835  0.2926 -0.2298  0.0149
  797SOL    HW112924   2.815   0.640   0.846 -0.6710 -0.3447 -0.4750
  797SOL    HW212925   2.930   0.524   0.852  0.3521  0.7115  0.7555
  798SOL     OW12926   4.697   1.884   4.567  0.5962 -0.3943 -0.4894
  798SOL    HW112927   4.737   1.881   4.475  0.8295  0.4635 -0.4186
  798SOL    HW212928   4.768   1.866   4.635  0.3389 -1.4694 -0.4882
  799SOL     OW12929   8.037   3.018   1.085 -0.0711  0.5391  0.0738
  799SOL    HW112930   7.961   3.035   1.148 -1.0821  0.2212 -1.0398
  799SOL    HW212931   8.024   3.073   1.002  0.4600 -0.1678 -0.4862
  800SOL     OW12932   9.592   2.305   3.821 -0.8357  0.6519  0.2704
  800SOL    HW112933   9.505   2.261   3.800 -0.2434 -0.1377 -0.5731
  800SOL    HW212934   9.576   2.386   3.877 -2.1626  0.9231 -0.4891
  803SOL     OW12935   4.816   2.939   1.873  0.3410 -0.2769  0.1274
  803SOL    HW112936   4.805   2.850   1.918 -1.2865  0.4850  1.3129
  803SOL    HW212937   4.782   3.011   1.934  0.0279  0.9952 -1.5236
  804SOL     OW12938   2.342   2.822   0.352  0.5360  0.1007 -0.1583
  804SOL    HW112939   2.248   2.834   0.384  0.3103 -0.2942 -0.6574
  804SOL    HW212940   2.351   2.865   0.262  0.6845 -0.3454 -0.3547
  805SOL     OW12941   1.172   9.214   1.293 -0.3263  0.1469 -0.1932
  805SOL    HW112942   1.104   9.191   1.362  0.4141 -0.6974  0.2556
  805SOL    HW212943   1.226   9.134   1.270  1.1763  1.0348  0.1731
  806SOL     OW12944   7.409   2.092   4.898  0.1497 -0.0508  0.5539
  806SOL    HW112945   7.426   2.190   4.892 -0.7695  0.1069  0.4281
  806SOL    HW212946   7.459   2.054   4.976 -0.1526  0.6763  1.1092
  807SOL     OW12947   5.778   7.855   4.121  0.1253  0.4178  0.1360
  807SOL    HW112948   5.785   7.918   4.044 -0.4983 -0.8933 -0.9930
  807SOL    HW212949   5.844   7.781   4.110 -0.5948 -0.2674  0.4118
  808SOL     OW12950   6.198   0.230   2.963 -0.0912  0.3244 -0.1643
  808SOL    HW112951   6.164   0.291   3.034 -0.8832  1.7456 -1.7082
  808SOL    HW212952   6.298   0.224   2.968  0.1236  2.8896 -0.8360
  809SOL     OW12953   4.356   8.819   3.199 -0.4735 -0.2764  0.6690
  809SOL    HW112954   4.310   8.730   3.201 -0.7008 -0.1481  2.2685
  809SOL    HW212955   4.454   8.806   3.215 -0.1087 -0.4545 -1.6451
  810SOL     OW12956   4.273   8.564   1.771  0.1718 -0.6887  0.9670
  810SOL    HW112957   4.186   8.578   1.723 -1.0825 -1.9392  2.8227
  810SOL    HW212958   4.338   8.520   1.709 -1.1398 -1.4915  0.1403
  811SOL     OW12959   8.404   3.057   4.173  0.1451  0.3500  0.7380
  811SOL    HW112960   8.464   2.993   4.221  0.2607  1.0002  1.4689
  811SOL    HW212961   8.458   3.116   4.114  0.1788  0.6770  1.0982
  812SOL     OW12962   1.021   1.886   0.553  0.2658 -0.8214 -0.0970
  812SOL    HW112963   0.930   1.923   0.569  0.6591 -0.3306  1.0672
  812SOL    HW212964   1.054   1.841   0.637  1.4263 -0.2581 -0.2405
  813SOL     OW12965   2.374   3.528   5.094  0.0280  0.4867  0.5307
  813SOL    HW112966   2.346   3.555   5.186  1.3067 -0.6873  1.2976
  813SOL    HW212967   2.462   3.570   5.073  0.6944 -0.8299  0.6435
  815SOL     OW12968   3.826   8.863   4.627 -0.4640  0.0530 -0.0104
  815SOL    HW112969   3.865   8.950   4.598 -1.4964  0.1796 -1.0186
  815SOL    HW212970   3.738   8.848   4.583  0.9199 -2.7514 -2.0221
  816SOL     OW12971   7.445   3.929   0.493  0.0745  0.5203  0.2238
  816SOL    HW112972   7.393   3.866   0.434  0.0348  1.6366 -0.9576
  816SOL    HW212973   7.382   3.991   0.539  0.2344  0.8465  0.0074
  817SOL     OW12974   2.012   6.223   1.136  0.2121  0.1695  0.7514
  817SOL    HW112975   2.012   6.274   1.050  0.7196 -1.4153 -0.1938
  817SOL    HW212976   1.918   6.194   1.157  0.3584 -1.0407 -0.2312
  818SOL     OW12977   7.690   3.713   1.932  0.3819  0.0005  0.0474
  818SOL    HW112978   7.758   3.784   1.914  2.8563 -1.7453  1.9832
  818SOL    HW212979   7.665   3.668   1.847  2.0617  0.3716 -0.6647
  819SOL     OW12980   3.536   6.511   2.751 -0.3257 -0.9124  0.3700
  819SOL    HW112981   3.590   6.468   2.822 -0.2932 -1.2747  0.1262
  819SOL    HW212982   3.552   6.610   2.752 -2.2299 -0.5947  2.4951
  820SOL     OW12983   1.074   8.207   2.208  0.1557  0.4332 -0.0443
  820SOL    HW112984   1.171   8.182   2.204  0.4929  1.4562  1.5405
  820SOL    HW212985   1.023   8.137   2.258 -0.0392 -0.3816 -1.3494
  821SOL     OW12986   2.922   2.004   1.176  0.5846 -0.4253 -0.6190
  821SOL    HW112987   3.008   2.050   1.156  1.6800 -2.3195 -0.3689
  821SOL    HW212988   2.918   1.982   1.274 -0.1245 -0.4604 -0.6539
  822SOL     OW12989   8.097   6.183   4.785  0.3139  0.1398  0.4822
  822SOL    HW112990   8.094   6.156   4.689 -1.5544  1.4916  0.1425
  822SOL    HW212991   8.184   6.228   4.804  0.4959  0.2905 -0.6883
  824SOL     OW12992   9.317   1.304   0.705 -0.3000 -0.2682  0.3250
  824SOL    HW112993   9.284   1.221   0.661  1.1343 -1.6613  1.8127
  824SOL    HW212994   9.377   1.354   0.642 -1.2000 -0.3272 -0.5834
  825SOL     OW12995   6.882   7.954   3.945 -0.1017  0.2896 -0.8075
  825SOL    HW112996   6.832   7.973   4.030  0.1014  0.1942 -0.6658
  825SOL    HW212997   6.922   7.862   3.950  1.0664  0.8160 -0.4425
  826SOL     OW12998   9.300   7.866   0.092  0.1631 -0.6671  0.0814
  826SOL    HW112999   9.241   7.849   0.170 -0.0669 -1.1476 -0.1943
  826SOL    HW213000   9.320   7.964   0.085 -0.6978 -0.4860  0.1066
  827SOL     OW13001   4.553   7.719   3.175  0.1885 -0.1282  0.0538
  827SOL    HW113002   4.565   7.629   3.134  0.4419 -1.6344  3.3051
  827SOL    HW213003   4.457   7.745   3.171  0.0118 -0.8310 -0.2959
  829SOL     OW13004   2.427   8.816   2.848  0.5140  0.0091 -0.0663
  829SOL    HW113005   2.388   8.725   2.832  0.6028 -0.2401  1.1094
  829SOL    HW213006   2.354   8.882   2.859  0.4330 -0.2215  0.7898
  831SOL     OW13007   0.567   2.739   0.977 -0.0721 -0.0884  0.3856
  831SOL    HW113008   0.498   2.730   0.905  0.0581 -3.0056  0.5752
  831SOL    HW213009   0.658   2.744   0.937 -0.0529 -0.9964  0.3108
  832SOL     OW13010   0.928   5.235   0.919 -0.6060  0.1227  0.2886
  832SOL    HW113011   0.840   5.208   0.957 -0.7922  0.9545  0.4569
  832SOL    HW213012   0.956   5.169   0.848 -1.8493  0.4194 -0.4847
  833SOL     OW13013   0.642   5.927   1.686 -0.4739  0.0005 -0.0102
  833SOL    HW113014   0.731   5.938   1.644 -0.4841  0.6892  0.1322
  833SOL    HW213015   0.639   5.842   1.737  0.8923  1.0625  1.9033
  834SOL     OW13016   4.063   3.099   3.894  0.8119 -0.2864 -0.0054
  834SOL    HW113017   4.039   3.048   3.977  0.2435 -0.4157 -0.2524
  834SOL    HW213018   3.985   3.153   3.864  0.9895 -0.3101 -0.5164
  835SOL     OW13019   1.338   5.417   3.029 -0.1439 -0.4186  0.4577
  835SOL    HW113020   1.268   5.462   3.084 -2.1116 -0.9833 -1.5205
  835SOL    HW213021   1.329   5.318   3.040  0.3540 -0.4911  0.2114
  836SOL     OW13022   1.597   9.662   4.407 -0.2802 -0.2051  0.3258
  836SOL    HW113023   1.523   9.729   4.408 -0.5874 -0.5407 -0.0826
  836SOL    HW213024   1.599   9.614   4.495 -1.6416 -1.3969 -0.2780
  837SOL     OW13025   1.019   0.400   2.642 -0.4081 -0.3577 -0.5605
  837SOL    HW113026   1.034   0.496   2.618  1.6826 -0.8754 -1.4294
  837SOL    HW213027   1.007   0.392   2.741  0.2874  0.7231 -0.3755
  838SOL     OW13028   1.595   0.614   2.457 -0.0894  0.3466  0.0639
  838SOL    HW113029   1.610   0.559   2.539  0.6322  1.3319  0.5982
  838SOL    HW213030   1.504   0.593   2.420 -1.0303  0.9688  1.9538
  839SOL     OW13031   7.899   6.683   3.148 -0.0272 -0.4647 -0.3712
  839SOL    HW113032   7.961   6.756   3.120 -0.3503 -0.8429 -2.1254
  839SOL    HW213033   7.874   6.696   3.244  2.3697 -0.0510  0.2352
  840SOL     OW13034   9.097   2.215   1.109  0.5484 -0.5095  0.1163
  840SOL    HW113035   9.063   2.230   1.016  0.9193  0.6902  0.1690
  840SOL    HW213036   9.044   2.271   1.174  0.4850 -1.1153  0.5982
  841SOL     OW13037   9.948   1.618   2.768 -0.4169 -0.3947  0.1717
  841SOL    HW113038  10.042   1.650   2.775 -0.1186 -1.2208  0.0384
  841SOL    HW213039   9.909   1.607   2.859 -0.6123  0.6108  0.2078
  843SOL     OW13040   5.975   1.156   2.798 -0.3560  0.1486 -0.4631
  843SOL    HW113041   5.947   1.100   2.875 -1.2748 -0.3724 -1.1731
  843SOL    HW213042   6.075   1.162   2.796 -0.3274  0.1161  0.7214
  844SOL     OW13043   1.467   5.820   3.731 -0.3062  0.6016 -0.2188
  844SOL    HW113044   1.486   5.894   3.795 -0.1871  1.0873 -0.8091
  844SOL    HW213045   1.430   5.858   3.646 -1.7628 -0.1430  0.0650
  847SOL     OW13046   7.009   2.486   0.844  0.1110 -0.0557 -0.0433
  847SOL    HW113047   7.001   2.505   0.942  1.3618  0.3553 -0.0105
  847SOL    HW213048   7.023   2.388   0.831 -0.5186 -0.1758  0.1563
  849SOL     OW13049   0.884   8.329   0.600  0.3626  0.3532  0.5735
  849SOL    HW113050   0.968   8.375   0.568  0.1189 -1.6059 -3.1041
  849SOL    HW213051   0.909   8.248   0.652  0.7949  0.0505 -0.0876
  850SOL     OW13052   1.837   0.781   2.379  0.1764 -0.0779  0.5933
  850SOL    HW113053   1.913   0.740   2.428  0.1179  0.0511  0.7918
  850SOL    HW213054   1.752   0.735   2.405  0.2980 -0.8174 -0.2975
  851SOL     OW13055   4.354   5.444   1.104 -0.4278 -0.1115  0.4959
  851SOL    HW113056   4.424   5.475   1.040 -0.8364  1.0215  0.5858
  851SOL    HW213057   4.396   5.383   1.172  0.1087 -0.8651 -0.5123
  852SOL     OW13058   3.600   4.633   0.371 -0.0791  0.6160  0.4864
  852SOL    HW113059   3.505   4.613   0.347  0.6592 -2.2461 -0.2342
  852SOL    HW213060   3.616   4.606   0.466  1.0568 -2.8930 -0.6409
  853SOL     OW13061   7.137   2.289   2.666  0.0211 -0.2051  0.2489
  853SOL    HW113062   7.141   2.324   2.760 -1.6517 -2.0503  1.0626
  853SOL    HW213063   7.226   2.253   2.640  0.2940 -0.4296  1.4516
  854SOL     OW13064   1.277   8.840   0.462 -0.0664  0.4225 -0.4726
  854SOL    HW113065   1.190   8.817   0.418  0.1429  2.1520 -1.8469
  854SOL    HW213066   1.259   8.885   0.549 -0.5010 -1.2305  0.3187
  855SOL     OW13067   5.424   7.920   2.907  0.3928 -0.1084  0.2984
  855SOL    HW113068   5.420   7.859   2.987  2.0964 -1.5189 -0.6599
  855SOL    HW213069   5.333   7.958   2.891 -1.1057 -3.5089  0.0944
  856SOL     OW13070   9.776   0.413   1.611 -0.0422  0.4907  0.1018
  856SOL    HW113071   9.836   0.363   1.549 -0.6883 -0.8590  0.5367
  856SOL    HW213072   9.791   0.511   1.600  1.2455  0.2118 -0.7748
  861SOL     OW13073   6.942   9.216   1.898  0.0078 -0.1468  0.4534
  861SOL    HW113074   6.988   9.287   1.952  0.6392 -1.7412  2.0711
  861SOL    HW213075   7.005   9.139   1.884 -1.0682 -0.9146 -0.2212
  865SOL     OW13076   5.278   9.006   4.422 -0.0851 -0.3314  0.0468
  865SOL    HW113077   5.323   8.916   4.420 -1.0394 -0.8202  0.4583
  865SOL    HW213078   5.324   9.064   4.489  1.0032 -0.2572 -0.7507
  867SOL     OW13079   3.623   3.014   0.720 -0.7112  0.1666  0.3997
  867SOL    HW113080   3.658   2.935   0.771  0.1349  0.0811 -0.3115
  867SOL    HW213081   3.696   3.080   0.705 -0.7487 -0.1864 -1.4144
  868SOL     OW13082   1.411   2.282   2.914 -0.0669 -0.4159 -0.1405
  868SOL    HW113083   1.511   2.282   2.918 -0.0308  0.1394 -0.8255
  868SOL    HW213084   1.378   2.377   2.920 -0.4419 -0.3965 -2.2032
  869SOL     OW13085   7.816   2.312   0.514 -0.1726 -0.2594  0.6543
  869SOL    HW113086   7.892   2.373   0.492 -1.0810  0.7300  0.1621
  869SOL    HW213087   7.792   2.323   0.611 -1.1289  1.1077  0.2801
  870SOL     OW13088   4.413   9.113   4.166 -0.3692 -0.0371  0.2718
  870SOL    HW113089   4.382   9.203   4.134 -2.2019 -0.5664  0.4892
  870SOL    HW213090   4.367   9.042   4.112 -0.3408 -0.8683  1.3484
  871SOL     OW13091   1.738   0.261   1.890 -0.2201  0.3890  0.2011
  871SOL    HW113092   1.756   0.181   1.832 -1.5614  0.4990 -0.3905
  871SOL    HW213093   1.793   0.338   1.858 -0.0219  0.1004 -0.1577
  872SOL     OW13094   4.650   1.422   2.750  0.6781 -0.2336  0.2922
  872SOL    HW113095   4.698   1.368   2.681  1.6342  0.5131  0.3726
  872SOL    HW213096   4.638   1.368   2.832 -1.4658 -1.5337 -0.8206
  876SOL     OW13097   8.217   0.810   1.611 -0.2404  0.3154 -0.3646
  876SOL    HW113098   8.294   0.779   1.665 -2.2000 -0.1921  2.2322
  876SOL    HW213099   8.183   0.735   1.554 -2.2693 -1.1603  2.6720
  878SOL     OW13100   8.277   5.757   4.221 -0.4896 -0.1473 -0.0279
  878SOL    HW113101   8.307   5.703   4.299 -0.1159 -1.7343 -1.2200
  878SOL    HW213102   8.311   5.851   4.229  2.3079 -1.1272  0.1176
  879SOL     OW13103   3.882   6.839   1.431 -0.1356 -0.4950  0.2218
  879SOL    HW113104   3.977   6.862   1.408 -0.1176 -1.1335 -0.3487
  879SOL    HW213105   3.821   6.882   1.365 -0.0515 -2.8122 -1.4398
  880SOL     OW13106   0.161   6.308   4.914 -0.1785 -0.5974 -0.0651
  880SOL    HW113107   0.253   6.346   4.907 -0.9637  1.3173 -0.4829
  880SOL    HW213108   0.148   6.267   5.004  0.5248  0.7108  0.6453
  881SOL     OW13109   8.670   5.276   0.792  0.3873  0.0788 -0.4990
  881SOL    HW113110   8.633   5.191   0.754  1.2136 -0.0624 -0.9855
  881SOL    HW213111   8.732   5.255   0.868  0.3690  0.2671 -0.4289
  882SOL     OW13112   0.895   3.836   2.553 -0.7560 -0.1446  0.1380
  882SOL    HW113113   0.888   3.753   2.608 -0.9255  0.1641  0.5893
  882SOL    HW213114   0.861   3.819   2.461  1.2359 -1.1778 -0.4355
  883SOL     OW13115   4.408   9.605   4.260 -0.0684  0.3789 -0.8664
  883SOL    HW113116   4.498   9.569   4.236  1.1453  2.5877  0.2811
  883SOL    HW213117   4.346   9.528   4.278  2.0409 -1.1477  0.0901
  884SOL     OW13118   0.550   1.686   5.013  0.2848  0.2722  0.1267
  884SOL    HW113119   0.463   1.730   5.035 -0.3509 -0.6552 -0.5101
  884SOL    HW213120   0.586   1.641   5.095 -0.9906 -1.3034 -0.1524
  885SOL     OW13121   1.219   0.262   0.318  0.0184  0.2001  0.3813
  885SOL    HW113122   1.240   0.196   0.246  1.2280  1.1644 -0.1493
  885SOL    HW213123   1.267   0.236   0.402 -0.2615 -0.1218  0.4435
  886SOL     OW13124   7.963   6.199   3.413  0.0069 -0.5840  0.1560
  886SOL    HW113125   7.883   6.231   3.464  1.3509  1.8386  0.8418
  886SOL    HW213126   7.945   6.207   3.315 -0.6731 -0.2923  0.2996
  887SOL     OW13127   4.660   4.494   4.441 -0.4106  0.5538 -0.8393
  887SOL    HW113128   4.740   4.550   4.465 -2.2488  3.7292 -1.8492
  887SOL    HW213129   4.670   4.461   4.347  0.5722 -0.7187 -0.3145
  888SOL     OW13130   4.188   4.128   0.218 -0.0642 -0.0081 -0.5361
  888SOL    HW113131   4.249   4.150   0.142  0.5231  0.7573  0.1534
  888SOL    HW213132   4.240   4.087   0.292 -0.8082 -1.7707 -0.9559
  889SOL     OW13133   6.206   9.828   2.069  0.4037  0.7701 -0.0461
  889SOL    HW113134   6.168   9.757   2.011  1.6062  0.3971 -0.3931
  889SOL    HW213135   6.145   9.908   2.069 -0.4783  0.1002 -0.3935
  890SOL     OW13136   9.090   8.721   4.357  0.0760  0.0635  0.0724
  890SOL    HW113137   9.058   8.630   4.330 -0.8322  0.2691  0.4632
  890SOL    HW213138   9.016   8.772   4.400  0.8618  0.6045  0.8163
  891SOL     OW13139   0.856   0.438   4.191 -0.3610 -0.8319 -0.0601
  891SOL    HW113140   0.837   0.454   4.288 -0.8256  0.2005 -0.3100
  891SOL    HW213141   0.950   0.466   4.172 -0.6125  0.0034 -0.1233
  893SOL     OW13142   0.204   3.093   1.636  0.0912  0.3474  0.3638
  893SOL    HW113143   0.107   3.107   1.656 -0.2425  0.2733 -1.1190
  893SOL    HW213144   0.252   3.180   1.645 -0.3689  0.6661 -0.1859
  894SOL     OW13145   5.229   7.181   3.749  0.2264  0.0754  0.5446
  894SOL    HW113146   5.306   7.245   3.753  1.0739 -0.9887  2.0024
  894SOL    HW213147   5.254   7.103   3.690 -0.8455  1.1179 -1.3221
  895SOL     OW13148   3.304   1.377   1.127 -0.0059  0.1396  0.2860
  895SOL    HW113149   3.221   1.375   1.071  0.0957 -0.2893  0.1470
  895SOL    HW213150   3.343   1.470   1.125 -0.1788  0.2080 -0.0971
  897SOL     OW13151   2.167   8.326   0.245  0.1593 -0.3359  0.1431
  897SOL    HW113152   2.202   8.370   0.328 -1.3702 -1.4374  1.3792
  897SOL    HW213153   2.080   8.367   0.220  1.5641  1.4183 -2.1368
  898SOL     OW13154   0.834   2.463   5.308 -0.0440  0.1883  0.1605
  898SOL    HW113155   0.881   2.551   5.306 -0.0164  0.1809  0.6068
  898SOL    HW213156   0.813   2.435   5.214  1.1815  0.0156 -0.0764
  899SOL     OW13157   4.459   7.555   1.452  0.7543 -0.1345  0.5518
  899SOL    HW113158   4.387   7.611   1.410  1.1052 -0.1576 -0.0813
  899SOL    HW213159   4.528   7.615   1.493  0.0232 -0.1107  1.7804
  900SOL     OW13160   1.947   1.771   3.428 -0.1227 -0.2354 -0.2676
  900SOL    HW113161   1.942   1.734   3.521 -0.6626 -2.7467 -1.2581
  900SOL    HW213162   1.991   1.861   3.430 -0.7761  0.0582  2.4968
  901SOL     OW13163   0.292   9.336   3.788  0.1615 -0.2851 -0.9188
  901SOL    HW113164   0.383   9.318   3.752 -0.5211 -0.8419 -2.3742
  901SOL    HW213165   0.257   9.254   3.832  0.5288  0.0580  0.0359
  902SOL     OW13166   9.884   3.714   4.573 -0.0072 -0.2708  0.2179
  902SOL    HW113167   9.937   3.633   4.595 -2.5102 -2.5768 -1.8652
  902SOL    HW213168   9.946   3.790   4.553  2.4379 -2.2852 -0.1523
  903SOL     OW13169   8.852   8.066   0.722  0.7053  0.0289  0.0368
  903SOL    HW113170   8.782   8.000   0.747 -0.7204  1.1961 -0.7421
  903SOL    HW213171   8.885   8.113   0.803 -0.1349  0.1481  0.3191
  904SOL     OW13172   9.354   0.183   0.704  0.1829 -0.0868  0.1448
  904SOL    HW113173   9.434   0.126   0.721 -0.3245 -0.8419  0.0285
  904SOL    HW213174   9.271   0.126   0.704 -0.3198  0.6312 -0.0712
  905SOL     OW13175   8.867   7.892   2.605 -0.0389  0.1216 -0.4155
  905SOL    HW113176   8.934   7.898   2.679  0.4827  0.2097 -0.8870
  905SOL    HW213177   8.798   7.962   2.618 -0.8252 -0.8578  0.8372
  906SOL     OW13178   2.666   2.763   3.175  0.4379 -0.3642  0.5684
  906SOL    HW113179   2.726   2.823   3.122  0.0464  0.0848  0.6282
  906SOL    HW213180   2.595   2.818   3.219  0.5262 -0.7883  1.2335
  907SOL     OW13181   8.553   6.921   2.197 -0.5239  0.1931 -0.6026
  907SOL    HW113182   8.517   6.993   2.138  0.1008  0.8101 -0.2499
  907SOL    HW213183   8.532   6.943   2.293 -0.5583 -0.2251 -0.5136
  909SOL     OW13184   2.278   5.160   1.589  0.1955 -0.0850 -0.0449
  909SOL    HW113185   2.274   5.255   1.621  0.7945  0.3793 -1.3088
  909SOL    HW213186   2.338   5.108   1.648  1.1939  0.7358 -0.3231
  910SOL     OW13187   3.502   7.458   2.348  0.0047  0.3166 -0.0447
  910SOL    HW113188   3.435   7.530   2.361  0.0475  0.4691 -0.6486
  910SOL    HW213189   3.594   7.494   2.365 -0.1014 -0.0363  1.3448
  911SOL     OW13190   1.729   9.411   1.190 -0.1256  0.4527 -0.6469
  911SOL    HW113191   1.813   9.366   1.219 -1.0163 -0.0923  1.1642
  911SOL    HW213192   1.750   9.483   1.124  1.6954 -0.0274 -0.5988
  912SOL     OW13193   1.647   1.508   4.900 -0.0005 -0.3069  0.2461
  912SOL    HW113194   1.722   1.443   4.894  0.9924  0.5872  2.4489
  912SOL    HW213195   1.683   1.600   4.917 -1.5734  0.1076  1.5814
  913SOL     OW13196   4.325   5.303   0.545 -0.5530  0.5757  0.3793
  913SOL    HW113197   4.300   5.270   0.635 -0.1288  0.6622  0.5334
  913SOL    HW213198   4.360   5.397   0.553 -0.1312  0.4388  0.1874
  914SOL     OW13199   9.876   2.430   1.444  0.5342  0.2828 -0.8217
  914SOL    HW113200   9.859   2.495   1.371 -3.0348 -1.8576 -2.0346
  914SOL    HW213201   9.974   2.408   1.447  1.5365  4.3430 -1.4344
  915SOL     OW13202   8.996   5.197   2.297 -0.2159 -0.1476  0.7465
  915SOL    HW113203   8.996   5.172   2.394 -0.1400 -1.2264  0.4649
  915SOL    HW213204   8.978   5.117   2.241  0.9425  0.2405 -0.2001
  917SOL     OW13205   9.484   8.514   4.133 -0.4113  0.3388 -0.3453
  917SOL    HW113206   9.500   8.592   4.193 -0.6709  0.0735  0.0785
  917SOL    HW213207   9.566   8.457   4.130 -0.1243  0.7771 -0.8804
  918SOL     OW13208   7.879   4.153   2.231 -0.1413 -0.5386  0.1942
  918SOL    HW113209   7.889   4.056   2.210 -1.8804 -0.9184  1.0790
  918SOL    HW213210   7.860   4.203   2.147  1.0307 -0.9030 -0.3084
  919SOL     OW13211   3.303   1.201   0.300 -0.2600 -0.2002  0.5616
  919SOL    HW113212   3.392   1.159   0.313 -0.4373 -0.6342  0.3516
  919SOL    HW213213   3.252   1.198   0.387 -1.0093 -2.1137  0.0829
  921SOL     OW13214   4.229   5.067   3.943  0.1817 -0.2577  0.5916
  921SOL    HW113215   4.163   5.002   3.906 -0.6911  1.1417 -0.3888
  921SOL    HW213216   4.312   5.067   3.886 -0.0501 -0.1136  0.2492
  922SOL     OW13217   4.527   4.959   1.311 -0.4198 -0.6447  0.6883
  922SOL    HW113218   4.460   4.928   1.243 -0.5331  3.0629 -1.0049
  922SOL    HW213219   4.619   4.944   1.277 -0.4055 -2.1709  1.3517
  923SOL     OW13220   2.698   4.198   1.271  0.5553  0.2365 -0.1077
  923SOL    HW113221   2.795   4.205   1.250  0.2895  2.2833 -0.7807
  923SOL    HW213222   2.668   4.281   1.319 -0.5318 -1.0274  1.4340
  924SOL     OW13223   5.020   2.190   5.000 -0.2169  0.0563 -0.6444
  924SOL    HW113224   5.055   2.246   4.926  0.1138  1.4295  0.5368
  924SOL    HW213225   5.094   2.168   5.064  0.2524 -3.8768 -2.3688
  925SOL     OW13226   0.567   5.795   0.514  0.0845 -0.1955 -0.5560
  925SOL    HW113227   0.541   5.703   0.545  1.5450 -0.7094 -0.8334
  925SOL    HW213228   0.492   5.858   0.534  0.7725 -0.5570  3.8020
  927SOL     OW13229   9.346   7.039   1.633  0.4843 -0.5917  0.0519
  927SOL    HW113230   9.365   7.056   1.536  2.4151 -2.6290  0.0182
  927SOL    HW213231   9.261   6.987   1.641 -0.6023  1.0822 -0.4139
  928SOL     OW13232   3.276   1.886   1.236  0.1083  0.2417  0.0004
  928SOL    HW113233   3.246   1.961   1.177  0.7534  0.6660  0.2166
  928SOL    HW213234   3.375   1.890   1.249  0.3348 -1.3930 -1.0309
  929SOL     OW13235   0.770   6.755   1.200 -0.5887  0.1533 -0.2418
  929SOL    HW113236   0.786   6.740   1.298  0.7539  0.7584 -0.3565
  929SOL    HW213237   0.709   6.684   1.165 -1.0289 -0.1022  1.0204
  932SOL     OW13238   3.018   7.030   3.100 -0.0476 -0.4187 -0.2661
  932SOL    HW113239   3.100   7.076   3.065  0.1078  0.1373  0.8141
  932SOL    HW213240   2.991   6.958   3.037 -0.4696  1.3412 -2.1423
  933SOL     OW13241   9.939   1.178   4.168 -0.1114 -0.3125  0.1658
  933SOL    HW113242  10.027   1.223   4.182  0.3396 -1.3216  0.6286
  933SOL    HW213243   9.951   1.079   4.173 -1.0042 -0.5109 -1.3412
  935SOL     OW13244   5.744   7.757   5.066 -0.3400 -0.0535  0.0070
  935SOL    HW113245   5.688   7.675   5.068  0.4739 -0.6085  0.3094
  935SOL    HW213246   5.696   7.832   5.112 -1.2717 -0.2274 -0.6666
  936SOL     OW13247   4.268   8.757   2.171  0.1727  0.2208 -0.5719
  936SOL    HW113248   4.265   8.765   2.071  1.4109  0.5951 -0.5918
  936SOL    HW213249   4.283   8.848   2.211 -1.2057  0.2059  0.0050
  938SOL     OW13250   8.906   7.974   2.309 -0.2836 -0.1141 -0.1144
  938SOL    HW113251   8.879   7.977   2.406  0.4267  0.7150  0.0622
  938SOL    HW213252   8.985   8.033   2.295  0.2232 -0.9913 -1.0149
  939SOL     OW13253   4.411   4.927   2.784 -0.1434 -1.0015  0.2230
  939SOL    HW113254   4.450   5.017   2.763 -0.1714 -0.8765  0.7010
  939SOL    HW213255   4.329   4.939   2.839  0.0097 -1.3310  0.5199
  940SOL     OW13256   9.971   7.159   4.915 -0.2884  0.3863 -0.1361
  940SOL    HW113257  10.065   7.179   4.888 -0.7304  1.1912 -1.1088
  940SOL    HW213258   9.968   7.075   4.969  0.6141 -1.3281 -2.6590
  941SOL     OW13259   9.466   1.896   3.392  0.3993  0.1608  0.6432
  941SOL    HW113260   9.402   1.872   3.465 -0.0706 -0.1659  0.1333
  941SOL    HW213261   9.490   1.813   3.341 -2.2464  0.8746 -1.9408
  942SOL     OW13262   0.087   1.543   5.257 -0.4956 -0.0968 -0.0240
  942SOL    HW113263   0.038   1.543   5.344 -1.7119 -0.0648 -0.6916
  942SOL    HW213264   0.102   1.637   5.227 -0.4935 -0.1122 -0.0717
  943SOL     OW13265   9.283   1.299   3.351 -0.2133 -0.3951  0.0149
  943SOL    HW113266   9.204   1.335   3.400 -1.2122 -1.7515 -0.5472
  943SOL    HW213267   9.363   1.357   3.368 -1.4822  1.3900  0.0433
  945SOL     OW13268   5.803   8.395   4.305 -0.0271 -0.1236 -0.2604
  945SOL    HW113269   5.770   8.412   4.398 -1.6844 -2.7980 -0.3230
  945SOL    HW213270   5.821   8.298   4.293 -0.4893  0.0795 -2.9299
  946SOL     OW13271   8.867   2.553   2.877 -0.7702 -0.6881 -0.3894
  946SOL    HW113272   8.952   2.599   2.849 -1.0699  0.1609  0.0696
  946SOL    HW213273   8.860   2.555   2.977 -0.8286 -1.6796 -0.3637
  947SOL     OW13274   2.764   2.017   0.963  0.8845  0.0160  0.1221
  947SOL    HW113275   2.824   2.052   1.035  2.0328  0.3254 -0.9794
  947SOL    HW213276   2.669   2.022   0.994  1.2866  1.1559  1.2029
  948SOL     OW13277   1.392   0.718   3.503  0.6641  0.1378  1.0086
  948SOL    HW113278   1.393   0.804   3.554  1.2760 -0.6772  2.3958
  948SOL    HW213279   1.437   0.646   3.557  0.5939 -0.9402 -0.3336
  949SOL     OW13280   2.967   4.439   5.159  0.0224 -0.4248  0.6670
  949SOL    HW113281   2.970   4.368   5.089 -0.5790  0.4094 -0.2195
  949SOL    HW213282   2.894   4.417   5.224  1.6352 -2.0486  1.9840
  950SOL     OW13283   3.014   6.582   1.693 -0.1906 -0.4199  0.0946
  950SOL    HW113284   2.960   6.617   1.769 -1.0539 -1.5500  0.0195
  950SOL    HW213285   3.035   6.485   1.710 -2.0948 -1.2484 -2.0390
  951SOL     OW13286   2.471   1.323   2.612 -0.4044  0.3934 -0.0530
  951SOL    HW113287   2.519   1.407   2.591 -0.9618  0.8655  0.5231
  951SOL    HW213288   2.425   1.289   2.529 -0.8872  1.1221 -0.0912
  952SOL     OW13289   4.113   4.769   1.822 -0.1532  0.1684 -0.2704
  952SOL    HW113290   4.129   4.805   1.730  1.1871  1.2526  0.3652
  952SOL    HW213291   4.165   4.684   1.834  0.6170  0.6520 -0.1322
  953SOL     OW13292   0.335   0.888   2.393 -0.5954 -0.0156 -0.0213
  953SOL    HW113293   0.272   0.864   2.319 -1.4782  0.8541  0.4296
  953SOL    HW213294   0.349   0.987   2.394  0.7496 -0.2048 -0.0800
  956SOL     OW13295   2.318   1.012   4.135 -0.1514 -0.2658  0.4301
  956SOL    HW113296   2.242   1.060   4.090  0.5770 -1.8025 -2.5813
  956SOL    HW213297   2.289   0.980   4.225 -2.2383  1.3685  0.3766
  957SOL     OW13298   9.923   7.612   2.633  0.1662  0.4607 -0.2485
  957SOL    HW113299   9.969   7.561   2.562 -2.1569  0.0074 -1.4793
  957SOL    HW213300   9.836   7.648   2.598  0.0160  2.1020  1.6885
  959SOL     OW13301   3.474   2.492   1.817  0.2158  0.0802  0.3295
  959SOL    HW113302   3.447   2.396   1.815 -0.0115  0.1579 -0.9418
  959SOL    HW213303   3.571   2.500   1.792  0.0331  0.2346 -0.3562
  960SOL     OW13304   1.214   3.468   1.615  0.3479 -0.3400 -0.1768
  960SOL    HW113305   1.260   3.393   1.568 -1.1824 -0.4959 -1.4616
  960SOL    HW213306   1.128   3.436   1.654  0.5300  0.3234  0.7785
  961SOL     OW13307   9.230   5.031   2.649 -0.4017 -0.2157  0.0904
  961SOL    HW113308   9.140   5.058   2.613 -0.3296 -0.3149 -0.1653
  961SOL    HW213309   9.220   5.003   2.744 -0.6922 -0.4791 -0.0141
  962SOL     OW13310   2.880   0.894   3.456 -0.7934 -0.5859  0.0846
  962SOL    HW113311   2.843   0.974   3.409 -1.2866 -0.7374  0.2087
  962SOL    HW213312   2.934   0.840   3.392  0.4527  0.4141  0.2688
  963SOL     OW13313   9.860   6.805   2.385 -0.1882  0.8047 -0.3498
  963SOL    HW113314   9.863   6.902   2.363  0.8691  0.9063  0.2338
  963SOL    HW213315   9.860   6.792   2.484  1.6091  0.1702 -0.4089
  964SOL     OW13316   4.264   8.870   1.275 -0.3563  0.1582 -0.2192
  964SOL    HW113317   4.181   8.900   1.323 -0.2977  0.4026 -0.2679
  964SOL    HW213318   4.336   8.938   1.289 -0.4464  0.4043 -0.9395
  967SOL     OW13319   2.869   2.283   2.713  0.2728  0.2129 -0.1235
  967SOL    HW113320   2.907   2.348   2.780 -0.6770 -1.4798  2.1007
  967SOL    HW213321   2.943   2.251   2.653  1.3639  0.9237  0.8021
  968SOL     OW13322   3.262   0.107   1.824  0.1935  0.1868 -0.0200
  968SOL    HW113323   3.328   0.126   1.751  1.0867  0.0933  0.7590
  968SOL    HW213324   3.303   0.045   1.891 -1.0534 -0.7201 -0.0838
  969SOL     OW13325   4.456   0.995   2.180 -0.3992 -0.0082  0.3461
  969SOL    HW113326   4.420   0.955   2.095 -1.6557 -1.2571  1.4481
  969SOL    HW213327   4.492   0.922   2.238 -0.2126  0.7721  1.2105
  971SOL     OW13328   2.160   0.745   3.442  0.4420 -0.0699  0.2397
  971SOL    HW113329   2.224   0.733   3.366 -1.0282  0.2019 -1.0480
  971SOL    HW213330   2.182   0.679   3.514 -0.1905 -2.6106 -1.8019
  973SOL     OW13331   8.364   7.041   0.930  0.6416 -0.9204 -0.3179
  973SOL    HW113332   8.383   7.104   1.005  2.3703 -0.1947 -1.3247
  973SOL    HW213333   8.439   7.046   0.863 -1.3414 -0.8123 -2.5796
  974SOL     OW13334   6.757   8.018   4.207 -0.1024 -0.1349 -0.2010
  974SOL    HW113335   6.725   8.103   4.248  0.3717  0.2258 -0.5680
  974SOL    HW213336   6.681   7.954   4.198 -0.2682 -0.1019  0.9395
  978SOL     OW13337   5.824   0.454   1.806 -0.1101 -0.2655  0.1633
  978SOL    HW113338   5.818   0.465   1.707 -1.5063 -1.4225  0.0995
  978SOL    HW213339   5.772   0.526   1.851  2.2473  1.5221  0.1475
  979SOL     OW13340   8.754   8.627   5.272  0.1797  0.9326  0.4099
  979SOL    HW113341   8.789   8.624   5.365 -1.1552 -2.0072  0.8785
  979SOL    HW213342   8.823   8.589   5.210 -0.1913 -0.1849  0.6656
  980SOL     OW13343   8.442   7.924   3.805  0.1238  0.6097 -0.1127
  980SOL    HW113344   8.500   7.887   3.732  0.2129  0.0375  0.2412
  980SOL    HW213345   8.464   8.020   3.820  1.8563  0.1000  0.8469
  981SOL     OW13346   4.157   5.063   1.302  0.4004  0.1589 -0.5328
  981SOL    HW113347   4.220   5.035   1.230  1.2912 -1.0692  0.6911
  981SOL    HW213348   4.203   5.125   1.365  0.3519 -0.5684  0.2441
  983SOL     OW13349   2.418   7.265   1.137  0.1449  0.0853  0.9914
  983SOL    HW113350   2.351   7.253   1.064  0.0162 -0.3123  1.1748
  983SOL    HW213351   2.489   7.196   1.129  1.9363  2.0342 -0.7294
  984SOL     OW13352   4.570   8.004   3.876  0.0707 -0.0712  0.3631
  984SOL    HW113353   4.613   8.062   3.946 -0.1616 -1.5570  1.7846
  984SOL    HW213354   4.476   8.034   3.863  0.5585  1.1570 -0.4063
  986SOL     OW13355   2.529   7.587   1.976 -0.2039  0.2695  0.7853
  986SOL    HW113356   2.438   7.574   2.018 -0.0031  0.2804  1.2268
  986SOL    HW213357   2.540   7.521   1.902 -0.2534 -0.2898  1.2672
  988SOL     OW13358   4.004   3.919   0.974 -0.5513  0.0330  0.8781
  988SOL    HW113359   3.992   3.835   1.026 -0.3288 -0.3132  0.3670
  988SOL    HW213360   3.948   3.991   1.015  0.0424 -0.0867  1.9294
  989SOL     OW13361   4.183   5.524   2.271 -0.0275  0.0561 -0.1539
  989SOL    HW113362   4.186   5.569   2.181  0.4777 -1.5317 -0.9404
  989SOL    HW213363   4.092   5.538   2.311 -0.3810  0.4618 -1.0702
  990SOL     OW13364   1.549   9.459   1.628 -0.4119  0.5423  0.2271
  990SOL    HW113365   1.557   9.524   1.553 -0.3500  0.9351  0.5679
  990SOL    HW213366   1.542   9.509   1.715  1.4535  0.0788  0.6773
  993SOL     OW13367   2.260   4.989   2.600 -0.3418  0.4102  0.0463
  993SOL    HW113368   2.200   4.933   2.543 -0.7239  0.7229  0.1421
  993SOL    HW213369   2.355   4.963   2.583 -0.5448 -0.6494  0.4924
  994SOL     OW13370   3.535   2.991   1.519 -0.3882  0.3974  0.3821
  994SOL    HW113371   3.634   2.978   1.514 -0.2988  0.5053  1.6332
  994SOL    HW213372   3.501   2.947   1.602 -1.6121 -0.9893 -0.8275
  995SOL     OW13373   0.739   2.218   4.579 -0.7885 -0.2062  0.1272
  995SOL    HW113374   0.667   2.283   4.558 -0.9198 -0.4526 -0.1810
  995SOL    HW213375   0.777   2.181   4.494  0.7314  1.0483  0.2314
  996SOL     OW13376   3.781   8.147   4.781  0.2226  0.2495 -0.2587
  996SOL    HW113377   3.837   8.219   4.822 -0.1031  0.5925 -0.4184
  996SOL    HW213378   3.754   8.174   4.689  2.0940 -1.1146 -1.2466
  997SOL     OW13379   3.087   8.953   3.045 -0.1299 -0.5712  0.1728
  997SOL    HW113380   3.093   9.012   3.125  0.8762  0.5342 -0.7027
  997SOL    HW213381   2.991   8.943   3.017 -0.4491 -0.6895  1.2926
  998SOL     OW13382   5.904   2.017   4.604 -0.4236 -0.0313 -0.5963
  998SOL    HW113383   5.884   1.959   4.525  0.3534 -0.0673 -0.7731
  998SOL    HW213384   5.866   2.108   4.589 -2.0280 -0.5964 -0.1307
  999SOL     OW13385   0.938   2.058   2.349  0.3938 -0.3451 -0.0357
  999SOL    HW113386   0.841   2.046   2.332 -0.0406  0.2514  1.9265
  999SOL    HW213387   0.956   2.058   2.447  2.3219 -0.0646 -0.3518
 1000SOL     OW13388   8.789   3.612   1.293 -0.1395 -0.1042 -0.3806
 1000SOL    HW113389   8.709   3.658   1.254 -0.0744 -0.9733 -1.5671
 1000SOL    HW213390   8.851   3.586   1.219  0.0194 -1.7409  0.3081
 1001SOL     OW13391   5.187   0.471   0.629  0.2367 -0.0291 -0.0306
 1001SOL    HW113392   5.121   0.463   0.554  0.3631  0.3074 -0.1802
 1001SOL    HW213393   5.139   0.501   0.712 -0.4473 -3.3458  0.8473
 1002SOL     OW13394   8.857   4.999   0.600 -0.2927 -0.4636  0.4420
 1002SOL    HW113395   8.889   5.045   0.518  0.0327 -3.7703 -1.3777
 1002SOL    HW213396   8.759   5.018   0.614 -0.0451  1.1198  0.0112
 1004SOL     OW13397   5.116   3.753   1.395  0.7307 -0.3192 -0.3835
 1004SOL    HW113398   5.036   3.757   1.335  0.9665 -1.2735 -0.7632
 1004SOL    HW213399   5.148   3.846   1.413 -1.2305  0.1511  0.8096
 1006SOL     OW13400   2.205   0.394   0.525 -0.3097  0.2543  0.6748
 1006SOL    HW113401   2.164   0.321   0.470  0.0958  0.0615  0.6282
 1006SOL    HW213402   2.287   0.359   0.570 -0.6246  0.4146  1.3828
 1008SOL     OW13403   1.273   4.101   1.470  0.1337 -0.2362 -0.4971
 1008SOL    HW113404   1.317   4.036   1.533 -0.3951 -0.5344 -0.4324
 1008SOL    HW213405   1.335   4.178   1.454  0.9386 -0.9599 -0.9101
 1010SOL     OW13406   1.828   1.007   3.303 -0.5932 -0.3425  0.6131
 1010SOL    HW113407   1.912   1.048   3.267 -1.7066  1.0875 -0.4370
 1010SOL    HW213408   1.851   0.940   3.374  1.4623 -0.5875 -0.2448
 1012SOL     OW13409   3.141   6.281   3.295 -0.3417  0.4231 -0.3034
 1012SOL    HW113410   3.089   6.249   3.374  2.3521  0.7862  1.6883
 1012SOL    HW213411   3.152   6.206   3.230  1.8946 -1.4216  2.1382
 1013SOL     OW13412   9.570   5.196   3.057 -0.7081 -0.8585 -0.7569
 1013SOL    HW113413   9.647   5.250   3.023  0.4184 -1.8726  0.1423
 1013SOL    HW213414   9.520   5.155   2.980 -0.2010 -0.3974 -1.3276
 1014SOL     OW13415   7.752   8.855   4.648  0.5301  0.4329  0.4046
 1014SOL    HW113416   7.792   8.788   4.586  0.0660  1.3446 -0.8986
 1014SOL    HW213417   7.744   8.815   4.740  0.6083 -1.1537 -0.2618
 1016SOL     OW13418   9.488   3.480   1.628  0.6007 -0.2865 -0.4447
 1016SOL    HW113419   9.423   3.406   1.611 -0.3983  0.7477 -1.2269
 1016SOL    HW213420   9.467   3.557   1.567 -1.0211  2.3193  3.2083
 1018SOL     OW13421   8.615   4.064   2.697  0.3373 -0.7086 -0.0773
 1018SOL    HW113422   8.523   4.081   2.663  0.4603  0.4591  0.1518
 1018SOL    HW213423   8.664   4.004   2.634 -0.0883 -0.1290 -0.9582
 1019SOL     OW13424   6.853   0.321   0.791 -0.0142 -0.3706 -0.0089
 1019SOL    HW113425   6.890   0.414   0.791 -0.8713 -0.0077 -2.4649
 1019SOL    HW213426   6.925   0.255   0.769  0.6906 -0.3644  2.1481
 1020SOL     OW13427   0.411   6.385   1.515 -0.0373 -0.0150 -0.5144
 1020SOL    HW113428   0.316   6.415   1.502  0.2000  0.8695 -0.2810
 1020SOL    HW213429   0.466   6.463   1.546  0.2200 -1.1633  2.0273
 1021SOL     OW13430   3.376   8.579   4.264 -0.3214  0.6879  0.6707
 1021SOL    HW113431   3.429   8.515   4.319 -0.3149 -1.3454 -1.6438
 1021SOL    HW213432   3.281   8.547   4.258 -0.0791  0.3081 -1.3599
 1022SOL     OW13433   4.292   0.885   0.438 -0.4804  0.1136  0.2094
 1022SOL    HW113434   4.297   0.985   0.435 -0.5059  0.1353  0.8705
 1022SOL    HW213435   4.302   0.848   0.345 -0.3715  0.7247 -0.0217
 1024SOL     OW13436   3.030   2.437   1.269  0.5803  0.3037  0.3136
 1024SOL    HW113437   2.996   2.503   1.335 -0.7664  0.6365 -0.6882
 1024SOL    HW213438   3.046   2.349   1.314  2.0736  1.2127  1.5832
 1025SOL     OW13439   7.498   1.145   3.416 -0.4276 -0.3266  0.2116
 1025SOL    HW113440   7.490   1.109   3.509 -1.1249  0.8323  0.6067
 1025SOL    HW213441   7.414   1.194   3.392 -0.4592 -1.0694 -1.2229
 1027SOL     OW13442   5.759   2.913   4.129  0.1100 -0.2444  0.5019
 1027SOL    HW113443   5.764   2.991   4.191 -0.8827 -0.3531  0.7260
 1027SOL    HW213444   5.670   2.913   4.082  1.9232  1.5011 -3.1222
 1028SOL     OW13445   2.590   2.583   4.128 -0.5209 -0.0371  0.3364
 1028SOL    HW113446   2.596   2.682   4.120  0.0246 -0.1098 -0.2610
 1028SOL    HW213447   2.511   2.558   4.184  0.9138  0.8064  2.7918
 1029SOL     OW13448   1.108   6.302   0.051  0.0989  0.4829  0.8598
 1029SOL    HW113449   1.133   6.221  -0.002  0.7988  1.8787 -0.9973
 1029SOL    HW213450   1.096   6.277   0.146 -0.8043 -2.0193  0.1106
 1030SOL     OW13451   0.167   0.833   2.767  0.0015  0.0645  0.0762
 1030SOL    HW113452   0.258   0.798   2.745  0.6679  0.7497  1.6789
 1030SOL    HW213453   0.170   0.933   2.771 -0.7715  0.0793  0.3946
 1031SOL     OW13454   0.790   5.879   3.635 -0.2245 -0.4200 -0.0390
 1031SOL    HW113455   0.824   5.890   3.729 -0.0373  0.9926 -0.2611
 1031SOL    HW213456   0.773   5.782   3.617 -1.8183 -0.5568  2.0004
 1032SOL     OW13457   2.979   6.585   2.054 -0.6997  0.1919  0.0434
 1032SOL    HW113458   3.066   6.541   2.031 -1.1999 -1.7747  1.6878
 1032SOL    HW213459   2.974   6.674   2.010  2.1243  0.3259 -0.1289
 1033SOL     OW13460   0.987   8.735   4.870  0.2682  0.3240 -0.3794
 1033SOL    HW113461   1.086   8.730   4.884  0.1019  1.5219  1.3918
 1033SOL    HW213462   0.968   8.766   4.777  1.5478 -0.1866 -0.8196
 1034SOL     OW13463   9.230   5.660   0.339  0.6454 -0.1049  0.2722
 1034SOL    HW113464   9.291   5.626   0.411 -0.2846  0.6029  1.4213
 1034SOL    HW213465   9.164   5.589   0.316  0.8726 -0.2949  0.2033
 1035SOL     OW13466   1.128   9.738   0.869 -0.7330  0.6548 -0.3088
 1035SOL    HW113467   1.056   9.670   0.884 -0.4182  0.1057 -1.2700
 1035SOL    HW213468   1.203   9.697   0.818  0.7041  0.9478  1.5002
 1038SOL     OW13469   8.855   5.866   5.020  0.4736 -0.1819  0.7727
 1038SOL    HW113470   8.804   5.882   4.936  1.1314 -1.2084  0.1700
 1038SOL    HW213471   8.858   5.768   5.040  2.7501 -0.2191  0.4306
 1039SOL     OW13472   8.220   5.952   2.287 -0.3528 -0.1894  0.2524
 1039SOL    HW113473   8.228   5.899   2.372  0.0488 -1.5412 -0.5967
 1039SOL    HW213474   8.177   5.895   2.216  0.7095  0.3888 -0.8815
 1040SOL     OW13475   4.256   3.966   2.335  0.1999  0.0087  0.1576
 1040SOL    HW113476   4.254   4.066   2.343  1.4895 -0.0926  2.0660
 1040SOL    HW213477   4.232   3.926   2.423 -2.8036 -1.4059 -1.2559
 1041SOL     OW13478   1.925   2.154   1.317 -0.0015 -0.2213 -0.5221
 1041SOL    HW113479   1.983   2.227   1.282  3.0048 -2.3339 -0.1818
 1041SOL    HW213480   1.897   2.176   1.411  1.2354  0.3237 -0.2686
 1042SOL     OW13481   0.663   3.451   2.612 -0.0785  0.2762  0.6828
 1042SOL    HW113482   0.590   3.383   2.605 -0.5680  0.9822 -1.4363
 1042SOL    HW213483   0.719   3.450   2.530  1.9033  0.2498  1.9855
 1043SOL     OW13484   3.392   3.363   3.640  0.2969  0.4756 -0.0812
 1043SOL    HW113485   3.454   3.441   3.638  3.3245 -1.8459 -1.0867
 1043SOL    HW213486   3.419   3.300   3.713  0.3628 -1.4899 -1.7291
 1044SOL     OW13487   4.898   9.324   1.879 -0.3065  0.3430 -0.3673
 1044SOL    HW113488   4.931   9.245   1.931 -0.0344  1.9544  2.0150
 1044SOL    HW213489   4.968   9.395   1.881 -0.6578  0.7600 -2.2637
 1046SOL     OW13490   0.073   1.708   2.439  0.1691  0.5561  0.2337
 1046SOL    HW113491   0.028   1.779   2.494 -0.0277  1.7055 -1.3919
 1046SOL    HW213492   0.161   1.742   2.406 -0.1769  0.2703 -1.0168
 1047SOL     OW13493   4.147   9.671   5.277 -0.4331  0.1397  0.0832
 1047SOL    HW113494   4.102   9.612   5.210  0.7076 -0.0728 -0.5124
 1047SOL    HW213495   4.240   9.638   5.293  0.7507  2.6426 -1.3925
 1048SOL     OW13496   2.479   4.138   0.390 -0.0420 -0.1626  0.7474
 1048SOL    HW113497   2.402   4.174   0.442  0.1963  2.5512 -0.7220
 1048SOL    HW213498   2.485   4.039   0.405 -2.6136 -0.1244  2.3897
 1049SOL     OW13499   1.696   9.230   1.495  1.0200 -0.0931  0.1790
 1049SOL    HW113500   1.633   9.307   1.503  0.8238 -0.3245  0.9009
 1049SOL    HW213501   1.690   9.173   1.578 -0.1872 -1.8969 -1.0937
 1050SOL     OW13502   0.336   1.593   0.065  0.5611 -0.6989  0.0562
 1050SOL    HW113503   0.429   1.557   0.061  1.4523  1.4718  0.3150
 1050SOL    HW213504   0.333   1.669   0.129 -1.0560  0.2053 -1.0482
 1051SOL     OW13505   5.845   0.255   1.029  0.3787 -0.2548 -0.4020
 1051SOL    HW113506   5.920   0.313   1.063 -0.4366  0.1043  0.7897
 1051SOL    HW213507   5.805   0.298   0.948  2.1311 -0.9720 -1.6921
 1052SOL     OW13508   4.734   4.467   1.599 -0.0460  0.3128 -0.2936
 1052SOL    HW113509   4.671   4.513   1.537  0.9688  0.5716 -1.1435
 1052SOL    HW213510   4.683   4.402   1.656 -1.1560  0.9301 -0.5658
 1053SOL     OW13511   4.720   6.362   2.602  0.0790  0.2161 -0.0470
 1053SOL    HW113512   4.787   6.289   2.613  1.0661  1.1721  0.3769
 1053SOL    HW213513   4.670   6.375   2.688  0.2900  0.4229  0.0427
 1054SOL     OW13514   1.993   4.451   0.220  0.3452 -0.1477 -0.3899
 1054SOL    HW113515   2.005   4.415   0.128 -0.6937 -2.1644  0.2225
 1054SOL    HW213516   1.909   4.505   0.224  1.0861  1.0802 -0.9238
 1055SOL     OW13517   2.429   9.725   4.002 -0.2040 -0.2985  0.0851
 1055SOL    HW113518   2.412   9.627   4.002 -0.8356 -0.1908  1.0203
 1055SOL    HW213519   2.364   9.771   4.062 -0.5638  0.8090 -1.1129
 1056SOL     OW13520   2.525   6.096   0.833  0.3884  0.4383 -0.0696
 1056SOL    HW113521   2.434   6.130   0.856  0.7050  2.0117 -1.0661
 1056SOL    HW213522   2.594   6.148   0.884  0.7882  0.1530 -0.3201
 1057SOL     OW13523   9.964   1.755   1.334  0.0248 -0.6973  0.5799
 1057SOL    HW113524   9.898   1.783   1.404  1.9690 -0.5870  2.4088
 1057SOL    HW213525  10.012   1.836   1.299 -0.8736 -0.7631 -0.8309
 1060SOL     OW13526   3.284   6.434   2.992 -0.0067 -0.3268  0.2883
 1060SOL    HW113527   3.299   6.381   2.908 -1.7083 -1.4175  0.6639
 1060SOL    HW213528   3.329   6.389   3.069  3.2846  1.7132 -0.3146
 1061SOL     OW13529   3.698   5.697   3.991  0.2392  0.2014  0.0162
 1061SOL    HW113530   3.751   5.619   4.023 -1.3591 -1.6225 -1.6441
 1061SOL    HW213531   3.608   5.697   4.035 -1.3314 -1.3492 -3.0333
 1062SOL     OW13532   8.633   1.492   4.793  0.4998 -0.7373 -0.5670
 1062SOL    HW113533   8.697   1.416   4.805  0.4423 -0.5342  1.1273
 1062SOL    HW213534   8.684   1.575   4.771  0.9009 -0.4353  1.4183
 1063SOL     OW13535   8.589   7.757   0.045 -0.9016  0.4888  0.0948
 1063SOL    HW113536   8.621   7.839   0.093 -0.1762 -0.1927  0.8116
 1063SOL    HW213537   8.640   7.678   0.078 -1.3531 -0.2042 -0.8368
 1064SOL     OW13538   0.222   2.147   4.706 -0.2864 -0.3098  0.3759
 1064SOL    HW113539   0.145   2.148   4.770  0.0683 -3.1885  0.8782
 1064SOL    HW213540   0.242   2.053   4.679  2.0422  0.5559 -0.9958
 1065SOL     OW13541   9.170   4.914   1.528  0.5537  0.3848 -0.0585
 1065SOL    HW113542   9.234   4.969   1.581  0.6363 -0.2102  0.4730
 1065SOL    HW213543   9.077   4.948   1.543  0.3529 -0.9229  1.9970
 1066SOL     OW13544   8.606   0.241   4.461  0.6259 -0.0523 -0.0791
 1066SOL    HW113545   8.637   0.312   4.398  1.7071  0.2964  0.8536
 1066SOL    HW213546   8.540   0.279   4.525  0.9053  0.0168  0.1667
 1067SOL     OW13547   2.863   7.831   4.637  0.0226  0.0980  0.1515
 1067SOL    HW113548   2.791   7.830   4.706  0.1235  2.9179  0.3414
 1067SOL    HW213549   2.938   7.890   4.667  1.2509 -0.7353 -1.2099
 1070SOL     OW13550   7.079   3.434   1.035  0.2399  0.5035 -0.0103
 1070SOL    HW113551   7.054   3.339   1.055 -0.8912  0.5733 -0.9953
 1070SOL    HW213552   7.110   3.440   0.940  1.5492  0.8996  0.4350
 1071SOL     OW13553   9.282   4.881   4.699 -0.6550  0.4896 -0.2031
 1071SOL    HW113554   9.357   4.824   4.730 -0.0626 -0.2365 -2.7996
 1071SOL    HW213555   9.311   4.977   4.699 -0.1150  0.3300 -0.0906
 1075SOL     OW13556   3.204   9.493   1.700 -0.0445 -0.0991  0.2068
 1075SOL    HW113557   3.217   9.549   1.782  0.7799 -0.8707  0.6187
 1075SOL    HW213558   3.292   9.454   1.673 -1.0759 -3.6563  1.6921
 1078SOL     OW13559   8.440   9.598   3.115 -0.1543  0.0738  0.1328
 1078SOL    HW113560   8.486   9.510   3.114 -1.9821 -0.9056  0.8033
 1078SOL    HW213561   8.384   9.608   3.032 -0.9086  0.0925  0.6456
 1079SOL     OW13562   8.891   3.808   3.358  0.6393  0.0860  0.0162
 1079SOL    HW113563   8.924   3.900   3.380  0.9036  0.4255 -1.6515
 1079SOL    HW213564   8.819   3.781   3.422  2.5010  0.3029  2.2665
 1080SOL     OW13565   3.137   9.618   5.103  0.1594 -0.2980 -0.1909
 1080SOL    HW113566   3.050   9.668   5.100 -0.2094 -0.9914 -1.4780
 1080SOL    HW213567   3.130   9.535   5.048  1.4792 -0.6356  0.1188
 1081SOL     OW13568   2.639   2.751   1.335  0.2275 -0.5715  0.1153
 1081SOL    HW113569   2.627   2.847   1.358 -0.3878 -0.7113  0.3775
 1081SOL    HW213570   2.736   2.734   1.315  0.4351 -0.0223  0.6200
 1082SOL     OW13571   2.132   4.282   4.199  0.0493 -0.3689 -0.4466
 1082SOL    HW113572   2.051   4.282   4.140 -0.1821  0.3531 -0.1432
 1082SOL    HW213573   2.110   4.236   4.285 -0.4292  0.9162  0.1351
 1083SOL     OW13574   3.921   1.175   5.014 -0.5092 -0.7556  0.1792
 1083SOL    HW113575   3.823   1.195   5.008 -0.5870 -0.9475  0.7712
 1083SOL    HW213576   3.968   1.254   5.054 -0.4090 -0.6257 -0.1940
 1085SOL     OW13577   3.474   4.536   0.914 -0.0411 -0.7117 -0.1452
 1085SOL    HW113578   3.376   4.533   0.896  0.0698  0.7739 -1.0907
 1085SOL    HW213579   3.501   4.455   0.966 -1.7245 -1.2368 -0.0618
 1086SOL     OW13580   9.238   1.235   2.097 -0.2095  0.2103 -0.3740
 1086SOL    HW113581   9.256   1.332   2.114 -1.4059  0.5343 -0.9213
 1086SOL    HW213582   9.233   1.218   1.999 -3.4709  0.2796 -0.2714
 1087SOL     OW13583   1.020   6.685   1.978 -0.2017  0.0212  0.5793
 1087SOL    HW113584   1.112   6.671   2.014  0.1601  1.4672  0.2471
 1087SOL    HW213585   1.024   6.690   1.878 -0.7819 -0.9122  0.5045
 1088SOL     OW13586   0.712   3.893   0.550  0.4173  0.5859 -0.2548
 1088SOL    HW113587   0.753   3.862   0.464  0.3346  0.6063 -0.3005
 1088SOL    HW213588   0.773   3.868   0.625  0.0388 -0.2830 -0.2298
 1090SOL     OW13589   0.465   6.160   2.601 -0.6435  1.1377 -0.4424
 1090SOL    HW113590   0.489   6.118   2.513 -0.3394  1.0528 -0.3204
 1090SOL    HW213591   0.522   6.241   2.616 -0.4695  0.9666 -0.1748
 1091SOL     OW13592   4.350   1.944   0.713  0.0731 -0.1869  0.2373
 1091SOL    HW113593   4.356   2.018   0.645  0.5423 -0.0655  0.4074
 1091SOL    HW213594   4.342   1.984   0.804  1.6132 -0.3325  0.4477
 1092SOL     OW13595   2.339   8.386   1.388  0.2626 -0.1841 -0.5110
 1092SOL    HW113596   2.365   8.426   1.476 -0.7270 -0.0393 -0.2794
 1092SOL    HW213597   2.283   8.451   1.336 -0.4910 -0.8670 -0.5679
 1094SOL     OW13598   9.968   6.986   2.147  0.2478  0.3130 -0.2854
 1094SOL    HW113599   9.941   6.891   2.162  1.1718 -0.0698 -0.9542
 1094SOL    HW213600  10.060   6.988   2.107  0.8816  1.5383  1.1901
 1095SOL     OW13601   2.143   1.154   1.757 -0.1249 -0.0328 -0.3741
 1095SOL    HW113602   2.232   1.179   1.721 -0.9064  1.5896 -1.2665
 1095SOL    HW213603   2.154   1.097   1.839  1.7228  0.9069  0.0508
 1096SOL     OW13604   9.725   7.165   2.614  0.6568  0.6020  0.5062
 1096SOL    HW113605   9.760   7.244   2.665  1.0676  1.5464 -1.2062
 1096SOL    HW213606   9.787   7.144   2.539  0.0820 -0.8029  0.4112
 1097SOL     OW13607   1.903   4.885   0.723  0.2964 -0.2537 -0.1494
 1097SOL    HW113608   1.951   4.955   0.670 -0.1601 -0.4879 -0.8810
 1097SOL    HW213609   1.816   4.921   0.756 -0.6442 -0.9354 -1.8087
 1098SOL     OW13610   5.915   0.535   0.635 -0.1483 -0.7329  0.0715
 1098SOL    HW113611   5.972   0.496   0.563 -1.3498 -1.8972 -0.2779
 1098SOL    HW213612   5.963   0.532   0.722  0.2174 -1.9482 -0.1711
 1099SOL     OW13613   7.378   0.214   3.553  0.5705  0.2200 -0.1954
 1099SOL    HW113614   7.356   0.300   3.599  0.7285 -0.1648  0.6084
 1099SOL    HW213615   7.371   0.226   3.454 -0.1360  0.9557 -0.0590
 1101SOL     OW13616   5.823   9.448   3.763 -0.2612 -0.1668 -0.3699
 1101SOL    HW113617   5.770   9.377   3.717 -1.6164 -0.4010  1.4795
 1101SOL    HW213618   5.843   9.418   3.857  0.0622  1.4533  0.0810
 1102SOL     OW13619   2.334   2.893   1.933  0.4189 -0.2501 -0.0523
 1102SOL    HW113620   2.378   2.806   1.915 -0.4716 -0.7839  0.3032
 1102SOL    HW213621   2.345   2.918   2.030  2.5657  1.1163 -0.6245
 1103SOL     OW13622   1.555   0.140   0.114  0.0201 -0.2729  0.8002
 1103SOL    HW113623   1.455   0.141   0.101  0.2831 -0.6246 -1.3784
 1103SOL    HW213624   1.582   0.050   0.150 -0.2006 -1.0785 -0.9681
 1104SOL     OW13625   1.129   2.864   3.758 -0.9158  0.3686  0.3482
 1104SOL    HW113626   1.066   2.812   3.816  0.3884 -1.5937  0.0769
 1104SOL    HW213627   1.141   2.817   3.671  0.7460  0.7959  0.3211
 1105SOL     OW13628   7.218   5.101   1.317 -0.6747 -0.0108 -0.6074
 1105SOL    HW113629   7.127   5.073   1.284 -1.2009  1.4207 -0.3808
 1105SOL    HW213630   7.217   5.198   1.339  0.6218 -0.2246  0.4295
 1106SOL     OW13631   6.404   7.957   4.947  0.4081  0.2138 -0.0624
 1106SOL    HW113632   6.414   8.045   4.993 -0.5440  0.7333 -0.8343
 1106SOL    HW213633   6.442   7.884   5.004  0.7726  1.0690  0.7788
 1107SOL     OW13634   2.418   4.731   4.610  0.2099 -0.1226  0.0357
 1107SOL    HW113635   2.331   4.766   4.645 -0.2417 -0.1940 -0.9797
 1107SOL    HW213636   2.470   4.805   4.568 -0.9901 -0.7211 -2.6022
 1108SOL     OW13637   9.572   2.625   0.370  0.3848  0.1445  0.3154
 1108SOL    HW113638   9.659   2.647   0.325  1.8082  1.6686  3.6689
 1108SOL    HW213639   9.520   2.709   0.385 -0.9752 -0.5821 -0.2541
 1109SOL     OW13640   0.712   7.500   0.740 -0.1497 -0.3209  0.1452
 1109SOL    HW113641   0.752   7.567   0.676 -0.6727 -0.2529 -0.1118
 1109SOL    HW213642   0.687   7.417   0.690 -0.9251 -0.1172  0.1865
 1111SOL     OW13643   8.198   5.064   0.919  0.2665  0.1214 -0.1816
 1111SOL    HW113644   8.152   4.978   0.897  0.4431 -0.1750  0.6154
 1111SOL    HW213645   8.190   5.126   0.841  0.2413 -0.6548 -0.8108
 1112SOL     OW13646   4.509   7.006   3.785 -0.3647  0.2216 -0.4823
 1112SOL    HW113647   4.419   6.962   3.775 -0.0120 -0.8148  0.8836
 1112SOL    HW213648   4.569   6.949   3.840  0.6427  1.6614 -0.0506
 1114SOL     OW13649   5.777   2.687   3.963 -0.5328  0.1286 -0.0799
 1114SOL    HW113650   5.763   2.714   3.868 -1.3066  0.7463  0.2023
 1114SOL    HW213651   5.788   2.769   4.020 -2.8596 -0.1098  0.7802
 1115SOL     OW13652   7.354   4.072   0.758 -0.1383  0.2834 -0.7195
 1115SOL    HW113653   7.391   3.980   0.768 -0.2155  0.4269  1.0275
 1115SOL    HW213654   7.424   4.133   0.721  0.2322 -0.2328 -0.8731
 1116SOL     OW13655   5.879   1.452   2.208 -0.6399  0.0896  0.4217
 1116SOL    HW113656   5.919   1.430   2.297  1.2727 -0.2319 -0.5011
 1116SOL    HW213657   5.779   1.445   2.214 -0.4827 -0.8061  2.2978
 1117SOL     OW13658   2.774   6.483   1.894 -0.0405 -0.3625  0.0714
 1117SOL    HW113659   2.814   6.393   1.876 -0.2659 -0.5992  0.7507
 1117SOL    HW213660   2.816   6.522   1.975 -0.7758 -0.3631  0.4577
 1118SOL     OW13661   0.767   6.053   4.539 -0.3512  0.1118  0.1568
 1118SOL    HW113662   0.811   6.142   4.535  2.6728 -1.3063  0.7457
 1118SOL    HW213663   0.672   6.064   4.567 -1.0262  3.4383 -2.9699
 1119SOL     OW13664   3.593   2.405   2.139  0.2244 -0.1221 -0.5083
 1119SOL    HW113665   3.688   2.386   2.111  0.0181 -0.3945 -1.0366
 1119SOL    HW213666   3.545   2.318   2.152  0.2915  0.0008  0.6326
 1121SOL     OW13667   6.077   8.496   1.966 -0.2646  0.3330  0.2418
 1121SOL    HW113668   6.129   8.413   1.984 -1.0196 -0.0689  0.5807
 1121SOL    HW213669   6.122   8.574   2.010  1.0748  0.3022 -1.0433
 1123SOL     OW13670   0.840   8.354   2.871 -0.1695  0.4033 -0.8095
 1123SOL    HW113671   0.779   8.335   2.948  0.8319  0.1208 -0.0826
 1123SOL    HW213672   0.831   8.450   2.845 -0.4683  0.5152 -0.3106
 1124SOL     OW13673   0.971   4.635   2.452 -0.2249  0.3215 -0.3084
 1124SOL    HW113674   0.913   4.683   2.518  0.0095  1.0307 -0.6111
 1124SOL    HW213675   0.953   4.537   2.456 -1.6183  0.5569 -0.5580
 1125SOL     OW13676   2.456   3.090   3.071 -0.1387 -0.5022 -0.3259
 1125SOL    HW113677   2.368   3.049   3.048  0.4407 -1.9385 -0.0238
 1125SOL    HW213678   2.446   3.190   3.075 -2.3222 -0.7547  2.0644
 1126SOL     OW13679   9.226   2.482   4.776 -0.0227  0.3234  0.0630
 1126SOL    HW113680   9.257   2.417   4.846 -2.2655 -0.1249  0.7014
 1126SOL    HW213681   9.224   2.437   4.687  2.5939  0.8150 -0.2704
 1127SOL     OW13682   8.660   2.285   3.897  0.0940  0.2421 -0.7799
 1127SOL    HW113683   8.739   2.324   3.944  0.5933 -1.3531 -0.2794
 1127SOL    HW213684   8.619   2.354   3.838  1.1991  1.4057 -0.1983
 1128SOL     OW13685   9.596   0.021   5.004  0.0873 -0.4126  0.0751
 1128SOL    HW113686   9.506   0.033   4.963  0.3095 -0.8407 -0.5549
 1128SOL    HW213687   9.614  -0.077   5.017  0.7480 -0.3744 -0.4882
 1129SOL     OW13688   0.188   6.002   1.851  0.4968 -0.0911  0.3811
 1129SOL    HW113689   0.170   5.907   1.876  0.9594 -0.1340  0.5584
 1129SOL    HW213690   0.135   6.026   1.770  0.7759 -0.6573  0.0261
 1130SOL     OW13691   7.163   1.148   0.977 -0.1725 -0.0218 -0.1429
 1130SOL    HW113692   7.147   1.138   0.879  1.5089 -0.3011 -0.4097
 1130SOL    HW213693   7.246   1.097   1.003  0.4838  1.6161  1.0653
 1131SOL     OW13694   1.966   5.734   1.017  0.2611 -0.3717 -0.3726
 1131SOL    HW113695   1.961   5.638   0.990  1.2978 -0.5353 -0.0220
 1131SOL    HW213696   2.040   5.779   0.966  0.8246 -0.1605  0.6148
 1132SOL     OW13697   3.148   3.230   0.374  0.2003  0.0623 -0.3211
 1132SOL    HW113698   3.245   3.236   0.398 -0.1593 -2.1657  1.9066
 1132SOL    HW213699   3.097   3.302   0.421  0.4849  0.0359  0.0231
 1133SOL     OW13700   9.672   0.716   1.115  0.0719  0.0957  0.6208
 1133SOL    HW113701   9.681   0.720   1.015 -0.3343 -0.2375  0.5672
 1133SOL    HW213702   9.576   0.700   1.139  0.6625 -3.1845  0.9708
 1135SOL     OW13703   2.613   7.778   3.579 -0.3851  0.0414  0.1357
 1135SOL    HW113704   2.659   7.853   3.626 -1.5464 -0.2515  1.7756
 1135SOL    HW213705   2.634   7.782   3.481  1.5981  0.9969  0.5796
 1136SOL     OW13706   7.186   1.860   2.173  0.7781  0.9150 -0.0819
 1136SOL    HW113707   7.193   1.935   2.107  0.5821  0.1639 -0.9733
 1136SOL    HW213708   7.109   1.877   2.234 -0.2291  0.7016 -1.2570
 1137SOL     OW13709   9.065   0.650   3.759  0.0034  0.3620 -0.0263
 1137SOL    HW113710   9.006   0.715   3.711 -0.6308  0.5954  1.0758
 1137SOL    HW213711   9.128   0.609   3.693 -0.3450  1.2526 -0.9325
 1138SOL     OW13712   9.825   8.377   0.716  0.2148  0.2015  0.0827
 1138SOL    HW113713   9.808   8.388   0.814 -0.2287 -2.0869  0.2837
 1138SOL    HW213714   9.766   8.305   0.680  0.1993  1.1990 -1.9329
 1139SOL     OW13715   1.765   1.038   2.737  0.0023 -0.5342  0.3862
 1139SOL    HW113716   1.712   0.954   2.750  0.2004 -1.0275 -1.8046
 1139SOL    HW213717   1.835   1.023   2.668  2.4527  0.4002  2.6124
 1140SOL     OW13718   3.358   7.209   1.912  0.8030  0.1334  0.0343
 1140SOL    HW113719   3.414   7.237   1.990 -1.4690 -0.2206  1.8614
 1140SOL    HW213720   3.342   7.287   1.852  1.7308  0.6536  0.4590
 1141SOL     OW13721   4.283   3.446   3.152 -0.2074  0.0609  0.0206
 1141SOL    HW113722   4.300   3.528   3.207  3.2620 -0.4933 -0.1368
 1141SOL    HW213723   4.255   3.473   3.060 -0.4509  1.0250  0.3709
 1142SOL     OW13724   2.233   8.776   3.674  0.0096 -0.1347 -0.5916
 1142SOL    HW113725   2.327   8.747   3.688 -0.2018 -0.6686 -0.2656
 1142SOL    HW213726   2.214   8.856   3.731 -0.4670 -1.5354  1.2468
 1143SOL     OW13727   5.947   0.831   4.805  0.1275 -0.6129  0.0842
 1143SOL    HW113728   5.997   0.896   4.747 -2.9747  0.0268 -2.0249
 1143SOL    HW213729   5.962   0.738   4.770 -0.9179 -0.3285 -1.1521
 1144SOL     OW13730   5.617   7.726   4.371 -0.6253  0.0074  0.0528
 1144SOL    HW113731   5.616   7.780   4.455  1.7362 -0.4495  0.4022
 1144SOL    HW213732   5.675   7.770   4.303 -0.1680 -1.1126 -0.3021
 1146SOL     OW13733   2.040   5.803   1.270 -0.7356 -0.1488  0.0347
 1146SOL    HW113734   2.001   5.775   1.182 -0.9039  0.8237 -0.2126
 1146SOL    HW213735   2.012   5.897   1.289  0.1066 -0.0297  0.6666
 1147SOL     OW13736   9.844   9.532   4.726  0.2533  0.1409  0.1221
 1147SOL    HW113737   9.921   9.544   4.663 -0.2554  1.2291 -0.3094
 1147SOL    HW213738   9.787   9.615   4.725 -0.7482 -0.5324  0.6688
 1148SOL     OW13739   2.838   8.402   4.082 -0.4242  0.1355  0.2084
 1148SOL    HW113740   2.925   8.354   4.080 -0.3084  0.3062  0.9476
 1148SOL    HW213741   2.789   8.379   4.166 -0.7044  0.7201  0.2103
 1149SOL     OW13742   5.757   0.872   0.870  0.4667  0.2289  0.2522
 1149SOL    HW113743   5.850   0.881   0.835  0.4042  1.6299  0.4245
 1149SOL    HW213744   5.750   0.915   0.960  0.1739 -1.7673  1.2283
 1150SOL     OW13745   2.730   2.028   0.063  0.9200 -0.8527  0.4579
 1150SOL    HW113746   2.717   1.973  -0.019  2.0965 -0.6166  0.0997
 1150SOL    HW213747   2.669   2.108   0.059  0.9201 -0.8787 -0.1516
 1151SOL     OW13748   2.571   3.676   2.280 -0.0167  0.1096  0.1815
 1151SOL    HW113749   2.493   3.619   2.256  0.8901 -1.1641  0.1832
 1151SOL    HW213750   2.595   3.734   2.202  0.2182 -0.8782 -0.4883
 1152SOL     OW13751   1.052   1.588   0.274 -0.2841  1.0142  0.2321
 1152SOL    HW113752   1.057   1.497   0.316  0.1518  1.2436  0.6647
 1152SOL    HW213753   1.001   1.581   0.187 -1.3088  0.5740  0.8533
 1153SOL     OW13754   4.264   5.540   4.819 -0.4730  0.2585  0.7147
 1153SOL    HW113755   4.195   5.565   4.751 -0.4466 -0.2361  0.5025
 1153SOL    HW213756   4.265   5.607   4.892 -0.4695  0.8248  0.1981
 1154SOL     OW13757   1.266   6.508   4.101 -0.0008  0.0314 -0.2831
 1154SOL    HW113758   1.176   6.551   4.105  0.3369  0.6379  0.7910
 1154SOL    HW213759   1.265   6.422   4.152  0.1968  0.3505  0.2631
 1155SOL     OW13760   6.671   3.938   0.503 -0.2865  0.1125  0.0643
 1155SOL    HW113761   6.714   4.011   0.557  0.6591  1.6147 -2.6038
 1155SOL    HW213762   6.729   3.857   0.503 -0.0421  0.2855  0.8325
 1157SOL     OW13763   4.972   2.632   3.179  0.0699 -0.1908  0.2655
 1157SOL    HW113764   5.048   2.683   3.138 -0.1868  0.1693  0.2284
 1157SOL    HW213765   4.984   2.534   3.162  0.1341 -0.0718 -0.3936
 1158SOL     OW13766   8.887   1.865   3.226 -0.1690 -0.4913  0.4964
 1158SOL    HW113767   8.817   1.794   3.226  0.6839 -1.3614 -1.2859
 1158SOL    HW213768   8.977   1.823   3.220  0.5119  0.6443  2.2095
 1159SOL     OW13769   4.116   2.254   1.430  0.5052 -0.3701  0.6775
 1159SOL    HW113770   4.046   2.254   1.501 -0.7436 -1.9133 -0.5348
 1159SOL    HW213771   4.111   2.340   1.378  1.0564  0.5188  2.0402
 1160SOL     OW13772   9.093   7.767   2.428  0.1067  0.2829 -0.0089
 1160SOL    HW113773   9.021   7.819   2.473  0.2997  0.6701 -0.1513
 1160SOL    HW213774   9.166   7.746   2.494  0.7987  1.5923 -0.3530
 1161SOL     OW13775   0.733   6.186   0.006  0.4709  0.1333  0.0789
 1161SOL    HW113776   0.705   6.090   0.015  0.7047  0.1110  0.5734
 1161SOL    HW213777   0.808   6.205   0.069 -1.3637  1.3431  1.9566
 1162SOL     OW13778   4.905   8.688   5.324  0.0332  0.1270  0.0452
 1162SOL    HW113779   4.922   8.657   5.231  1.7140  0.9821  0.0499
 1162SOL    HW213780   4.828   8.636   5.363 -0.0012 -0.9665 -1.4330
 1164SOL     OW13781   2.459   6.473   3.558  0.1350 -0.1013  0.5868
 1164SOL    HW113782   2.418   6.554   3.518 -0.4188  0.0358  1.4226
 1164SOL    HW213783   2.509   6.422   3.488 -1.4571 -0.2613 -0.4444
 1166SOL     OW13784   3.077   2.978   1.095 -0.3666 -0.5538  0.0338
 1166SOL    HW113785   3.101   3.074   1.081 -0.6245 -0.7715 -2.0827
 1166SOL    HW213786   3.159   2.925   1.116 -0.1096  0.0044  0.4193
 1168SOL     OW13787   6.487   9.249   4.231 -0.2497 -0.3194  0.3966
 1168SOL    HW113788   6.428   9.329   4.236  0.5047  0.0906  3.4657
 1168SOL    HW213789   6.582   9.276   4.240  0.3015 -1.2136 -2.2964
 1169SOL     OW13790   3.260   7.845   0.476  0.4100 -0.0760 -0.0054
 1169SOL    HW113791   3.212   7.924   0.514 -0.4256  0.7863 -2.7210
 1169SOL    HW213792   3.289   7.785   0.550 -2.9798  0.4625  1.8889
 1170SOL     OW13793   3.983   4.862   3.900 -0.2227  0.1074  0.4105
 1170SOL    HW113794   3.995   4.833   3.995  1.4239 -0.5838  0.0097
 1170SOL    HW213795   3.910   4.808   3.858  0.1722 -0.7561  0.8147
 1171SOL     OW13796   6.351   0.813   4.409 -0.0093  0.1076  0.0956
 1171SOL    HW113797   6.365   0.856   4.320 -0.9463 -2.9943 -1.5913
 1171SOL    HW213798   6.254   0.820   4.435 -0.2845 -1.5000 -0.4757
 1172SOL     OW13799   2.793   7.913   1.136 -0.4449  0.1775  0.0876
 1172SOL    HW113800   2.698   7.894   1.159 -1.4468  1.7899 -2.4600
 1172SOL    HW213801   2.833   7.834   1.089 -1.7326  0.8060 -2.1740
 1173SOL     OW13802   7.647   1.472   0.399  0.6009 -0.0495  0.3380
 1173SOL    HW113803   7.625   1.442   0.492 -1.0236 -0.8075 -0.2676
 1173SOL    HW213804   7.653   1.571   0.396 -0.9072  0.0764  0.9422
 1174SOL     OW13805   4.737   3.514   0.588 -0.5240 -0.6682  0.4544
 1174SOL    HW113806   4.811   3.471   0.536  1.2637  0.5529  1.9177
 1174SOL    HW213807   4.739   3.480   0.682  0.7864  2.3302  1.5878
 1175SOL     OW13808   5.197   0.717   4.480  0.8696  0.1678  0.9999
 1175SOL    HW113809   5.277   0.657   4.485  1.4375  0.8340 -0.0635
 1175SOL    HW213810   5.213   0.800   4.533  1.0762  0.5190  0.3921
 1176SOL     OW13811   4.700   0.926   1.410  0.1201  0.0791 -0.5076
 1176SOL    HW113812   4.631   0.862   1.376  0.2924  0.0827 -0.8687
 1176SOL    HW213813   4.764   0.948   1.337  0.2718  0.3874 -0.2849
 1177SOL     OW13814   5.737   1.551   2.689  0.3705 -0.0012  0.0730
 1177SOL    HW113815   5.659   1.502   2.651 -0.6193  0.0998  1.8952
 1177SOL    HW213816   5.745   1.640   2.646  1.7941 -1.4622 -2.8041
 1178SOL     OW13817   5.772   4.962   0.235 -0.3347  0.2819 -0.0872
 1178SOL    HW113818   5.727   5.011   0.161  0.0675 -0.0351 -0.5406
 1178SOL    HW213819   5.702   4.925   0.297 -0.6321  1.7453  0.4793
 1179SOL     OW13820   7.498   2.094   4.468  0.0093 -0.3451 -0.1541
 1179SOL    HW113821   7.555   2.081   4.549 -0.8749  1.5630  0.8125
 1179SOL    HW213822   7.523   2.180   4.423 -1.7267  0.2717  0.0017
 1180SOL     OW13823   6.927   9.335   2.261 -0.0231 -0.4137  0.1196
 1180SOL    HW113824   6.923   9.237   2.281  0.1765 -0.6870 -1.1712
 1180SOL    HW213825   7.004   9.353   2.200 -1.5598  0.2115 -1.6406
 1182SOL     OW13826   5.059   6.170   1.067  0.0083 -0.0428  0.0715
 1182SOL    HW113827   5.140   6.210   1.109  0.7462 -2.4021  0.9842
 1182SOL    HW213828   5.083   6.132   0.977 -0.6263  1.3039 -0.6812
 1183SOL     OW13829   1.923   9.443   3.821 -0.7072 -0.4794 -0.3093
 1183SOL    HW113830   1.844   9.384   3.833 -0.5916 -0.5844 -0.0771
 1183SOL    HW213831   1.897   9.538   3.838 -0.4663 -0.6583  1.0814
 1184SOL     OW13832   5.260   9.952   5.256 -0.1204 -0.0710 -0.1570
 1184SOL    HW113833   5.335   9.975   5.193  0.3127 -0.9552  0.0316
 1184SOL    HW213834   5.283   9.986   5.347  0.1549 -0.5321 -0.0512
 1185SOL     OW13835   9.686   9.935   0.995  0.7571  0.7026 -0.2023
 1185SOL    HW113836   9.589   9.910   0.987  0.7965  1.0011 -1.8456
 1185SOL    HW213837   9.697  10.003   1.068 -0.3636  1.1136 -0.4063
 1186SOL     OW13838   8.749   3.501   3.238 -0.3978 -0.1537  0.7444
 1186SOL    HW113839   8.779   3.578   3.180  0.2455 -0.6031  0.4821
 1186SOL    HW213840   8.697   3.436   3.182 -1.8273  0.5917  1.1823
 1188SOL     OW13841   2.641   6.786   4.295  0.1250  0.8210  0.4455
 1188SOL    HW113842   2.575   6.743   4.233  0.4132 -1.3452  1.6211
 1188SOL    HW213843   2.607   6.783   4.389  0.7098  2.0926  0.7181
 1189SOL     OW13844   2.666   8.319   2.123 -0.7872 -0.3807  0.2301
 1189SOL    HW113845   2.727   8.276   2.189  0.7540  0.1347 -0.8404
 1189SOL    HW213846   2.618   8.248   2.071  0.4956 -0.8037 -0.3902
 1191SOL     OW13847   9.707   8.093   3.880  0.0686 -0.1637  0.3056
 1191SOL    HW113848   9.788   8.124   3.931  0.0296  0.6276 -0.1001
 1191SOL    HW213849   9.639   8.166   3.878 -0.5559 -0.7347  0.4215
 1192SOL     OW13850   6.865   9.323   2.932 -0.0597  0.1541  0.4620
 1192SOL    HW113851   6.796   9.284   2.873 -0.6479  0.8532  0.6820
 1192SOL    HW213852   6.923   9.385   2.880 -2.7419  3.4920  1.3005
 1193SOL     OW13853   9.714   9.795   1.621 -0.6855  0.1714  0.2487
 1193SOL    HW113854   9.694   9.710   1.572  3.1568 -1.1603  0.7843
 1193SOL    HW213855   9.677   9.791   1.713  2.3597 -2.4576  1.4431
 1194SOL     OW13856   1.654   6.712   3.165 -0.4887  0.3652 -0.0988
 1194SOL    HW113857   1.669   6.630   3.110 -0.7283  0.6939 -0.6591
 1194SOL    HW213858   1.682   6.793   3.113  0.4410  0.5803  0.7352
 1195SOL     OW13859   3.411   8.444   1.929  0.0983  0.0860 -0.2970
 1195SOL    HW113860   3.352   8.391   1.990  0.9747 -0.0155  0.4737
 1195SOL    HW213861   3.506   8.422   1.948  0.3893  0.3660 -1.4303
 1196SOL     OW13862   4.596   0.372   0.593  0.3625  0.0043 -0.0790
 1196SOL    HW113863   4.608   0.433   0.515  1.1004  0.4760  0.4038
 1196SOL    HW213864   4.557   0.285   0.562  1.6347 -0.1929 -1.1194
 1197SOL     OW13865   3.490   9.504   2.333 -0.1791  0.9530 -0.0812
 1197SOL    HW113866   3.578   9.462   2.312 -0.0418  0.4088  1.4965
 1197SOL    HW213867   3.503   9.599   2.362 -0.2193  1.2267 -0.9672
 1198SOL     OW13868   3.381   6.512   1.796 -0.8475  0.3921 -0.3605
 1198SOL    HW113869   3.468   6.516   1.845 -0.6573  2.7068 -0.8354
 1198SOL    HW213870   3.363   6.600   1.753 -2.7681 -0.4964 -1.4326
 1199SOL     OW13871   0.554   0.450   0.895  0.1814  0.4236 -0.2970
 1199SOL    HW113872   0.575   0.473   0.800  0.6689  0.4006 -0.1953
 1199SOL    HW213873   0.620   0.494   0.955 -1.0084  1.6384  0.1330
 1200SOL     OW13874   3.381   5.174   3.861 -0.5802 -0.4993  0.1133
 1200SOL    HW113875   3.455   5.187   3.927  1.3841 -1.0488 -1.9514
 1200SOL    HW213876   3.391   5.086   3.816  0.5489  1.6309 -3.9622
 1201SOL     OW13877   8.522   6.838   1.813  0.0419 -0.1039 -0.6478
 1201SOL    HW113878   8.445   6.837   1.749  0.0426 -1.1454 -0.6364
 1201SOL    HW213879   8.499   6.783   1.893  0.9414 -0.7172 -0.8099
 1202SOL     OW13880   8.934   5.848   3.762 -0.0732 -0.4397 -0.1786
 1202SOL    HW113881   8.972   5.819   3.674  2.5308  1.3947  0.2665
 1202SOL    HW213882   8.981   5.802   3.836 -0.1596  0.2847  0.3350
 1203SOL     OW13883   3.976   9.872   2.353 -0.0930  0.0781 -0.7006
 1203SOL    HW113884   3.990   9.967   2.379 -1.5550 -0.0355  0.5971
 1203SOL    HW213885   4.064   9.829   2.333  0.7444  1.1909  0.5327
 1204SOL     OW13886   8.691   5.465   1.668  0.0770 -0.6376 -0.0788
 1204SOL    HW113887   8.718   5.500   1.758 -0.3492  0.0043 -0.1930
 1204SOL    HW213888   8.724   5.527   1.597  1.0256 -1.5203 -0.4133
 1205SOL     OW13889   4.714   7.089   2.875  0.5767 -0.4769  0.0884
 1205SOL    HW113890   4.668   7.075   2.962  1.1987 -1.0440  0.3312
 1205SOL    HW213891   4.648   7.120   2.806  0.1297  0.1958  0.8200
 1207SOL     OW13892   4.659   9.093   3.382 -0.1184  0.3573  0.2811
 1207SOL    HW113893   4.601   9.085   3.301  1.9028  1.1308 -1.2824
 1207SOL    HW213894   4.614   9.049   3.460 -1.3636 -1.8498 -1.6390
 1209SOL     OW13895   2.109   3.647   0.928  0.1392 -0.1347  0.0336
 1209SOL    HW113896   2.018   3.689   0.928  0.0770 -0.2631  0.6642
 1209SOL    HW213897   2.175   3.710   0.885 -0.0799  0.3325  0.3708
 1210SOL     OW13898   2.942   8.011   2.794  1.4538 -0.3955  0.6018
 1210SOL    HW113899   2.873   8.057   2.737  1.9928 -0.4516 -0.0956
 1210SOL    HW213900   2.925   8.034   2.890 -0.3810 -1.5144  0.5724
 1211SOL     OW13901   0.610   7.981   3.245 -0.1165  0.1943  0.1481
 1211SOL    HW113902   0.563   7.985   3.158  1.1274 -1.4936 -0.6347
 1211SOL    HW213903   0.589   8.063   3.299 -2.3366  0.3756 -0.9678
 1212SOL     OW13904   6.046   1.676   4.091 -0.3447  0.0645  0.1644
 1212SOL    HW113905   5.973   1.723   4.042 -1.7706 -0.0923  2.1162
 1212SOL    HW213906   6.051   1.581   4.061 -1.0212  0.0406  0.1233
 1215SOL     OW13907   6.612   0.183   1.686 -0.0897 -0.2117  0.1782
 1215SOL    HW113908   6.619   0.174   1.785 -0.7953 -1.1798  0.1551
 1215SOL    HW213909   6.579   0.096   1.647  1.0594 -0.1410 -0.9917
 1217SOL     OW13910   2.352   4.593   2.163  0.0678  0.4189 -0.4995
 1217SOL    HW113911   2.430   4.600   2.100 -0.2235 -1.2515 -1.0977
 1217SOL    HW213912   2.293   4.672   2.152  1.8302  1.8620  0.1750
 1218SOL     OW13913   0.119   9.149   0.544 -0.2595 -0.4676  0.4368
 1218SOL    HW113914   0.117   9.098   0.630 -1.1963  0.0180  0.7167
 1218SOL    HW213915   0.037   9.128   0.491 -0.5488  0.5770  0.4600
 1219SOL     OW13916   3.093   0.892   3.659  0.0259  0.6566  0.0796
 1219SOL    HW113917   2.996   0.888   3.635 -0.1292 -0.9298  0.8743
 1219SOL    HW213918   3.103   0.924   3.754  0.3185  1.2568 -0.1454
 1220SOL     OW13919   3.954   8.626   3.893 -0.3280 -0.2981 -0.2950
 1220SOL    HW113920   3.892   8.569   3.948  0.3376  0.9302  1.7804
 1220SOL    HW213921   4.046   8.588   3.898  0.8544  2.7188  3.9464
 1222SOL     OW13922   0.457   1.938   1.053  0.0239 -0.3018  0.1253
 1222SOL    HW113923   0.501   1.980   1.133 -0.2787  2.2935 -1.0097
 1222SOL    HW213924   0.358   1.933   1.069  0.0141 -0.1809  0.1086
 1223SOL     OW13925   2.001   3.340   1.241  0.3468  0.4328 -0.3643
 1223SOL    HW113926   1.954   3.378   1.162 -1.4582  0.7686  0.8366
 1223SOL    HW213927   2.065   3.408   1.278 -1.1434  1.4694  0.3583
 1224SOL     OW13928   5.128   5.554   1.299  0.3951  0.1947 -0.0629
 1224SOL    HW113929   5.117   5.650   1.327  0.8152  1.1665 -3.0795
 1224SOL    HW213930   5.214   5.518   1.337  1.2145  1.6254 -0.5356
 1225SOL     OW13931   7.632   8.324   5.056 -0.2042 -0.1043  0.1919
 1225SOL    HW113932   7.610   8.322   4.958 -0.5372  0.7770  0.2484
 1225SOL    HW213933   7.658   8.416   5.083  0.4928 -0.4750  0.8088
 1226SOL     OW13934   3.195   8.395   4.482 -0.5610 -0.8998  0.0682
 1226SOL    HW113935   3.288   8.432   4.484  0.6507 -3.7728  0.7158
 1226SOL    HW213936   3.156   8.407   4.390 -0.1197  1.6097  0.1945
 1227SOL     OW13937   8.258   8.393   5.259  0.8042  0.1754 -0.2551
 1227SOL    HW113938   8.355   8.418   5.256  1.0746 -0.6580  1.3863
 1227SOL    HW213939   8.219   8.420   5.346 -0.2637 -0.1746 -0.6194
 1229SOL     OW13940   0.612   5.411   0.292 -0.7314  0.4546 -0.3317
 1229SOL    HW113941   0.627   5.312   0.298  1.3937  0.7302 -0.6398
 1229SOL    HW213942   0.518   5.432   0.321 -1.2099 -1.6359 -0.2482
 1230SOL     OW13943   4.819   0.489   2.715 -0.1017  0.2069  0.4521
 1230SOL    HW113944   4.754   0.564   2.702  0.1959  0.5003  0.6737
 1230SOL    HW213945   4.806   0.449   2.806  0.6134  0.8275  0.8313
 1231SOL     OW13946   2.354   8.215   2.599  0.6259  0.2064 -0.1326
 1231SOL    HW113947   2.276   8.198   2.540  1.1049 -0.3942 -0.6048
 1231SOL    HW213948   2.401   8.299   2.570  1.7435 -0.8924 -1.5769
 1232SOL     OW13949   3.732   9.539   2.964  0.3713 -0.4230 -0.0816
 1232SOL    HW113950   3.813   9.486   2.989  1.3388 -0.5685 -3.3731
 1232SOL    HW213951   3.740   9.632   3.000  2.4203 -0.1901 -1.1075
 1233SOL     OW13952   1.143   6.812   2.982 -0.2119  0.4858  0.0809
 1233SOL    HW113953   1.239   6.827   3.002  0.2315 -3.2106  1.1790
 1233SOL    HW213954   1.128   6.814   2.883  0.6429  2.7542 -0.0180
 1234SOL     OW13955   5.143   9.677   3.184  0.0793  0.1119 -0.6864
 1234SOL    HW113956   5.164   9.657   3.089 -0.7527 -3.2926 -0.2171
 1234SOL    HW213957   5.228   9.679   3.237  0.4028  0.4182 -1.2092
 1235SOL     OW13958   0.816   9.919   3.293 -0.0043  0.1466  0.6217
 1235SOL    HW113959   0.849  10.005   3.254 -2.0008 -0.4998 -2.6174
 1235SOL    HW213960   0.723   9.933   3.328 -0.7081 -0.9162 -0.8031
 1236SOL     OW13961   5.105   4.341   3.034 -0.2398 -0.9768  0.0155
 1236SOL    HW113962   5.028   4.356   3.096  0.7283 -1.2820  1.3196
 1236SOL    HW213963   5.131   4.428   2.992 -0.1136 -0.5326  0.9956
 1237SOL     OW13964   3.077   5.418   4.345 -0.1683 -0.0161  0.8761
 1237SOL    HW113965   3.130   5.491   4.387  0.9887  0.9624 -2.1713
 1237SOL    HW213966   3.138   5.345   4.314 -0.7510  0.1779 -0.8193
 1238SOL     OW13967   1.747   6.045   0.788 -1.1143  0.5335 -0.7149
 1238SOL    HW113968   1.740   6.020   0.885 -0.4112  0.4910 -0.6748
 1238SOL    HW213969   1.677   6.114   0.767 -1.1595  0.6691 -0.1385
 1239SOL     OW13970   9.498   2.822   4.397  0.1113 -0.3963 -0.2191
 1239SOL    HW113971   9.589   2.844   4.432  0.2936 -1.4181 -0.0197
 1239SOL    HW213972   9.497   2.834   4.298  0.9203 -1.8362 -0.4175
 1241SOL     OW13973   8.671   1.953   0.966 -0.6604 -0.3504  0.4613
 1241SOL    HW113974   8.682   1.864   0.922 -0.4543 -0.5662  0.9513
 1241SOL    HW213975   8.696   2.026   0.901 -3.3605 -0.5134 -0.8451
 1242SOL     OW13976   1.447   6.723   1.216  0.0896 -0.4219 -0.5708
 1242SOL    HW113977   1.411   6.772   1.295  0.6855 -0.2862 -0.3832
 1242SOL    HW213978   1.499   6.787   1.159 -1.2362 -0.2680 -1.6386
 1243SOL     OW13979   1.107   8.426   1.376  0.1017 -0.3329 -0.2407
 1243SOL    HW113980   1.121   8.333   1.342  1.0313 -0.1086 -0.4914
 1243SOL    HW213981   1.189   8.456   1.426 -0.2734  0.2667  0.0202
 1244SOL     OW13982   7.314   3.497   1.151  0.0997 -0.2665 -0.1747
 1244SOL    HW113983   7.229   3.492   1.097  1.0577  0.1292 -1.7541
 1244SOL    HW213984   7.323   3.589   1.190 -0.3049 -0.3797  0.1928
 1245SOL     OW13985   1.592   9.145   0.044 -0.5134  0.2185  0.1736
 1245SOL    HW113986   1.515   9.208   0.038 -0.8051 -0.3214 -1.9469
 1245SOL    HW213987   1.668   9.179  -0.010 -1.0380 -1.7118 -1.8594
 1246SOL     OW13988   3.577   0.284   4.465  0.5499  0.0854  0.0248
 1246SOL    HW113989   3.581   0.299   4.563 -2.7597  0.1043  0.2209
 1246SOL    HW213990   3.544   0.192   4.446  1.1904  0.0688 -1.0840
 1247SOL     OW13991   9.367   8.263   2.257 -0.0278  0.2352 -0.3404
 1247SOL    HW113992   9.403   8.282   2.166  1.3544 -1.2285 -0.1363
 1247SOL    HW213993   9.443   8.254   2.321 -0.7678 -2.1785  0.2636
 1248SOL     OW13994   0.214   8.264   2.850  0.0007  0.2458 -0.3779
 1248SOL    HW113995   0.279   8.205   2.802 -1.0223 -0.6998 -0.6070
 1248SOL    HW213996   0.260   8.350   2.875  1.7749 -0.9919  0.7852
 1249SOL     OW13997   0.210   5.844   4.137  0.1399 -0.7622  0.2299
 1249SOL    HW113998   0.164   5.928   4.109  1.0402 -0.0114  0.9550
 1249SOL    HW213999   0.194   5.772   4.068 -1.8624 -0.4548  0.3352
 1250SOL     OW14000   9.813   1.625   1.631  0.0169  0.1181 -0.2310
 1250SOL    HW114001   9.844   1.532   1.650  0.7309  0.2030 -0.9583
 1250SOL    HW214002   9.735   1.647   1.689 -1.4160 -1.6387 -1.4736
 1251SOL     OW14003   9.482   1.625   4.892 -0.5019  0.1223 -0.6298
 1251SOL    HW114004   9.507   1.677   4.974 -1.0935  1.8330 -1.5069
 1251SOL    HW214005   9.557   1.629   4.826  0.4634 -2.2725  0.2903
 1252SOL     OW14006   9.061   9.472   0.221 -0.2185  0.1876 -0.2127
 1252SOL    HW114007   8.979   9.510   0.178 -1.3111 -1.6324  0.1915
 1252SOL    HW214008   9.055   9.373   0.222  2.1932  0.0171 -0.4997
 1253SOL     OW14009   7.354   0.040   5.151  0.8330 -0.2951  0.3511
 1253SOL    HW114010   7.399   0.121   5.115  0.1928 -0.4313 -0.7776
 1253SOL    HW214011   7.408  -0.041   5.128  0.6199 -0.3462  0.0300
 1255SOL     OW14012   8.529   9.515   4.725 -0.4696 -0.1920 -0.1978
 1255SOL    HW114013   8.484   9.492   4.639 -0.7861 -1.2372  0.2433
 1255SOL    HW214014   8.460   9.549   4.790 -0.7694 -2.4957  0.7263
 1258SOL     OW14015   0.439   9.921   2.800  0.4468 -0.1132  0.1493
 1258SOL    HW114016   0.356   9.976   2.789  0.3214 -0.3236  0.0415
 1258SOL    HW214017   0.415   9.832   2.839  0.4027 -0.8183 -1.4713
 1259SOL     OW14018   0.920   1.687   4.481  0.5594  0.1614 -0.0639
 1259SOL    HW114019   1.003   1.645   4.519  0.0915  0.3894  1.2333
 1259SOL    HW214020   0.903   1.651   4.390  1.2118 -1.0704  0.2891
 1261SOL     OW14021   2.874   6.821   2.949 -0.2677  0.2323  0.5549
 1261SOL    HW114022   2.939   6.746   2.940  0.8421  1.2051  0.3518
 1261SOL    HW214023   2.790   6.799   2.899  1.0238  0.2035 -1.6915
 1262SOL     OW14024   0.611   5.417   3.450  0.4420 -0.4583  0.1669
 1262SOL    HW114025   0.603   5.501   3.396  1.6642 -0.9967 -0.8867
 1262SOL    HW214026   0.522   5.372   3.456  0.6337 -1.4123 -3.1128
 1263SOL     OW14027   2.128   1.385   5.254  0.0951 -0.1917  0.0657
 1263SOL    HW114028   2.186   1.344   5.184  0.6709 -2.3026  1.7134
 1263SOL    HW214029   2.034   1.388   5.223  0.7710  1.5177 -1.8955
 1264SOL     OW14030   8.777   8.491   1.562  0.2780 -0.4612 -0.0278
 1264SOL    HW114031   8.876   8.482   1.567  0.4496  1.0133 -0.4889
 1264SOL    HW214032   8.745   8.547   1.639  0.1986  1.8710 -1.7016
 1266SOL     OW14033   1.894   0.436   0.331  0.8954  0.4876 -0.3803
 1266SOL    HW114034   1.991   0.441   0.355  0.5342 -1.0319  1.4226
 1266SOL    HW214035   1.851   0.525   0.349  1.5043  0.5625  0.7631
 1267SOL     OW14036   1.581   7.338   0.501 -0.3496  0.1342  0.3878
 1267SOL    HW114037   1.604   7.253   0.547  0.9392  0.5222  0.4824
 1267SOL    HW214038   1.532   7.398   0.565 -0.8677 -0.3662  0.4550
 1269SOL     OW14039   0.513   1.851   0.110  0.2440  0.3539 -0.1708
 1269SOL    HW114040   0.604   1.811   0.118  0.4070  0.5843 -0.8796
 1269SOL    HW214041   0.497   1.913   0.187  0.1563 -0.7340  0.6894
 1270SOL     OW14042   3.572   8.268   5.055 -0.4859  0.5680  0.0393
 1270SOL    HW114043   3.574   8.186   4.997  0.6833 -0.4481  1.4690
 1270SOL    HW214044   3.491   8.266   5.113 -0.9085  0.8625 -0.5394
 1271SOL     OW14045   0.782   0.078   0.039  0.0327  0.0066  0.0658
 1271SOL    HW114046   0.687   0.106   0.020 -0.1393  0.3242  1.3481
 1271SOL    HW214047   0.799   0.085   0.137  1.4366  0.0816 -0.1830
 1272SOL     OW14048   4.364   7.354   3.337  0.0232  0.0030 -0.3647
 1272SOL    HW114049   4.310   7.423   3.289 -1.8726  1.5394  3.7502
 1272SOL    HW214050   4.433   7.399   3.393 -0.9667 -1.4238  2.0466
 1274SOL     OW14051   4.348   8.142   3.750 -0.7490 -0.1219 -0.2500
 1274SOL    HW114052   4.288   8.200   3.695 -2.4832 -2.4360 -0.8881
 1274SOL    HW214053   4.359   8.053   3.704  3.1300  0.2067 -0.1109
 1276SOL     OW14054   5.108   9.930   1.725  0.7295  0.0419 -0.1136
 1276SOL    HW114055   5.079   9.962   1.815 -1.2961  1.1812 -1.1502
 1276SOL    HW214056   5.035   9.945   1.659  2.8625  0.9136 -2.3445
 1278SOL     OW14057   1.091   6.310   2.004 -0.0191  0.3926 -0.5610
 1278SOL    HW114058   1.034   6.329   1.925 -1.3128 -1.6616 -0.1582
 1278SOL    HW214059   1.061   6.367   2.081 -0.9454 -0.0022 -0.6206
 1279SOL     OW14060   6.909   9.195   4.756 -0.4330 -0.0733  0.3859
 1279SOL    HW114061   6.906   9.291   4.787 -0.3141  0.2224 -0.5105
 1279SOL    HW214062   6.863   9.187   4.668 -0.9746 -0.9611  0.7472
 1280SOL     OW14063   3.443   1.299   1.955  0.1716  0.5490 -0.6149
 1280SOL    HW114064   3.481   1.210   1.929 -1.9491 -1.7546  3.7503
 1280SOL    HW214065   3.512   1.351   2.004 -0.3370 -1.2363  2.1217
 1281SOL     OW14066   0.316   3.548   1.026  0.0741  0.3793 -0.0163
 1281SOL    HW114067   0.349   3.640   1.004 -1.9252  1.2486  0.5790
 1281SOL    HW214068   0.246   3.521   0.961  0.3182 -0.5519  0.0951
 1282SOL     OW14069   7.499   1.578   4.964 -0.6216 -0.2814 -0.6270
 1282SOL    HW114070   7.548   1.665   4.972  2.4386 -1.9875 -0.3576
 1282SOL    HW214071   7.486   1.556   4.868 -1.1429  0.2931 -0.6964
 1283SOL     OW14072   9.270   3.466   2.150 -0.2324 -1.0068  0.4102
 1283SOL    HW114073   9.294   3.391   2.211  0.7833 -0.1203  1.1198
 1283SOL    HW214074   9.336   3.540   2.161 -0.4408 -0.5606 -1.2661
 1285SOL     OW14075   9.574   8.762   2.845  0.2870  0.0634 -0.1952
 1285SOL    HW114076   9.645   8.692   2.834  0.1952 -0.0935  0.2098
 1285SOL    HW214077   9.581   8.801   2.937  1.1304  1.4648 -0.8424
 1286SOL     OW14078   9.619   8.064   3.322 -0.0598  0.7177  0.4953
 1286SOL    HW114079   9.715   8.042   3.337  0.2863  0.9785 -1.1442
 1286SOL    HW214080   9.562   8.010   3.383  1.0292 -0.9566  0.0532
 1287SOL     OW14081   7.087   2.535   4.118 -0.2736 -0.1448  0.1429
 1287SOL    HW114082   7.140   2.560   4.199  1.5917 -0.7202 -0.8485
 1287SOL    HW214083   7.144   2.479   4.058 -0.9376  1.8382 -2.4479
 1288SOL     OW14084   8.203   8.067   4.502 -0.5817 -0.2822  0.0348
 1288SOL    HW114085   8.218   7.971   4.476  0.3024  0.5437 -2.6659
 1288SOL    HW214086   8.105   8.087   4.504 -0.7139 -0.7388 -1.3863
 1290SOL     OW14087   6.759   1.931   0.987  0.4502  0.6915  0.4135
 1290SOL    HW114088   6.782   1.842   0.947  0.0812  0.7000  0.1865
 1290SOL    HW214089   6.835   1.961   1.045 -0.4314 -0.9492  2.5084
 1291SOL     OW14090   4.722   6.534   1.810  0.4236 -0.2814 -0.0346
 1291SOL    HW114091   4.717   6.443   1.770 -1.1359  0.6629 -2.0354
 1291SOL    HW214092   4.818   6.562   1.816  0.8672 -1.7025 -0.1205
 1292SOL     OW14093   8.822   5.147   1.127 -0.0771  0.3822 -0.5977
 1292SOL    HW114094   8.893   5.081   1.154  1.2491  0.9582 -2.5375
 1292SOL    HW214095   8.845   5.185   1.037 -1.7965  2.1260 -0.3202
 1293SOL     OW14096   5.125   9.321   4.495  0.6723 -0.1952 -0.0688
 1293SOL    HW114097   5.053   9.256   4.471  1.3927 -1.3687  0.9194
 1293SOL    HW214098   5.098   9.413   4.466 -1.5081 -0.5192  0.8883
 1294SOL     OW14099   8.776   8.445   3.321 -0.6799 -0.1558 -0.3025
 1294SOL    HW114100   8.830   8.363   3.302 -0.7406 -0.1144 -0.6539
 1294SOL    HW214101   8.750   8.489   3.235 -0.1383  0.5731 -0.0934
 1295SOL     OW14102   3.371   7.531   2.657 -0.3944 -0.2072 -0.2113
 1295SOL    HW114103   3.356   7.489   2.568  0.4718 -0.3192 -0.3069
 1295SOL    HW214104   3.469   7.543   2.673 -0.5686  0.4018  0.4511
 1297SOL     OW14105   1.570   5.018   3.360  0.8614 -0.0510  0.3700
 1297SOL    HW114106   1.566   4.977   3.451  0.6113  0.1949  0.4714
 1297SOL    HW214107   1.588   4.947   3.292  0.9029 -0.2571  0.5955
 1298SOL     OW14108   9.256   1.490   2.211  0.4240 -0.0859 -0.3087
 1298SOL    HW114109   9.282   1.587   2.205 -0.5899  0.1113 -1.9269
 1298SOL    HW214110   9.158   1.484   2.228  0.3466 -0.8300 -1.0097
 1299SOL     OW14111   8.686   8.060   4.025  0.2796  0.5066 -0.2225
 1299SOL    HW114112   8.657   8.062   4.120  0.5970 -0.5528 -0.0971
 1299SOL    HW214113   8.711   7.966   3.999 -1.0403  0.5515 -1.7239
 1300SOL     OW14114   9.815   8.348   4.564  0.3289 -0.5028  0.2990
 1300SOL    HW114115   9.788   8.400   4.482 -1.0418  0.0707  1.0939
 1300SOL    HW214116   9.908   8.314   4.552  1.0735  1.7096 -0.4618
 1301SOL     OW14117   1.139   5.832   2.214 -0.4392 -0.0031  0.5419
 1301SOL    HW114118   1.058   5.815   2.157  1.3166  0.2053 -2.1212
 1301SOL    HW214119   1.219   5.794   2.168  1.4014  2.3917  1.7217
 1303SOL     OW14120   1.724   9.945   0.272  0.0376  0.0899  0.6467
 1303SOL    HW114121   1.758  10.035   0.245 -0.0147  0.7985  2.7923
 1303SOL    HW214122   1.795   9.876   0.256  0.2394  0.5790 -0.5967
 1305SOL     OW14123   8.314   5.351   1.752 -0.0417 -0.2598 -0.7228
 1305SOL    HW114124   8.235   5.293   1.733 -0.8257  0.5302  0.0267
 1305SOL    HW214125   8.359   5.319   1.836  0.8983 -1.1791 -1.5744
 1307SOL     OW14126   6.636   8.647   4.066  0.3236  0.1287  0.5512
 1307SOL    HW114127   6.726   8.606   4.058 -0.3594 -1.3180  0.1455
 1307SOL    HW214128   6.583   8.597   4.135 -0.3535  0.6220  0.3889
 1308SOL     OW14129   5.063   1.979   2.826 -0.1586 -0.0175  0.1713
 1308SOL    HW114130   5.115   2.065   2.832  0.5086 -0.3749 -0.4325
 1308SOL    HW214131   5.061   1.935   2.916  0.3795  0.1251  0.2540
 1310SOL     OW14132   9.770   3.971   1.218 -0.4275  0.3991 -0.2220
 1310SOL    HW114133   9.846   3.982   1.153  1.1150  0.5145  1.5761
 1310SOL    HW214134   9.789   4.023   1.301 -1.0323 -2.0377  1.4875
 1311SOL     OW14135   3.472   2.623   3.491  0.2446 -0.4342 -0.1692
 1311SOL    HW114136   3.515   2.546   3.537  0.0830  0.1550  0.9746
 1311SOL    HW214137   3.400   2.661   3.549 -0.6166 -0.2850 -1.3104
 1312SOL     OW14138   4.669   3.796   4.218 -0.5285 -0.2838  0.4033
 1312SOL    HW114139   4.739   3.840   4.162 -1.6830  0.3245 -0.6088
 1312SOL    HW214140   4.708   3.768   4.305  0.3003  2.5422  0.9937
 1313SOL     OW14141   4.022   1.286   4.312  0.4579  0.1091 -0.3373
 1313SOL    HW114142   4.102   1.306   4.368 -0.8931  0.7323  1.4210
 1313SOL    HW214143   3.978   1.371   4.284 -0.3244 -0.2359 -0.1893
 1314SOL     OW14144   8.098   9.542   4.573 -0.0185  0.2918  0.1463
 1314SOL    HW114145   8.069   9.625   4.621 -1.3968 -0.2232  0.2268
 1314SOL    HW214146   8.127   9.474   4.640  3.6685  1.5832 -0.0009
 1315SOL     OW14147   3.208   1.896   2.590  0.1089  0.8242 -0.4488
 1315SOL    HW114148   3.214   1.839   2.671 -1.5664  0.8689 -0.2691
 1315SOL    HW214149   3.212   1.993   2.616  2.7416  0.8137 -0.7336
 1316SOL     OW14150   8.146   3.326   3.359  0.2686 -0.1180 -0.2961
 1316SOL    HW114151   8.125   3.418   3.325 -1.0991  0.3624  1.7578
 1316SOL    HW214152   8.144   3.262   3.282 -0.2363  1.3394 -1.5350
 1317SOL     OW14153   4.861   2.739   5.184  0.3656  0.3803 -0.3695
 1317SOL    HW114154   4.775   2.781   5.154 -0.9722 -2.0854 -0.1245
 1317SOL    HW214155   4.866   2.741   5.284  0.4344  0.2471 -0.3698
 1320SOL     OW14156   1.656   7.995   5.234  0.0469  0.1010  0.1146
 1320SOL    HW114157   1.592   8.009   5.310  1.3869  0.8683  1.1319
 1320SOL    HW214158   1.711   8.078   5.221  0.1458 -0.1884 -1.3987
 1321SOL     OW14159   6.631   9.389   2.184 -0.3452 -0.0961 -0.0185
 1321SOL    HW114160   6.716   9.344   2.157 -0.7749 -2.2266  2.0609
 1321SOL    HW214161   6.628   9.400   2.283 -1.5886  1.8773 -0.2279
 1322SOL     OW14162   0.334   4.464   5.055 -0.2847 -0.0278  0.4874
 1322SOL    HW114163   0.234   4.465   5.058 -0.2759  0.6218  0.7657
 1322SOL    HW214164   0.369   4.442   5.146 -0.1685  0.6205  0.6009
 1323SOL     OW14165   9.399   4.288   2.906 -0.4038 -0.1244  0.1160
 1323SOL    HW114166   9.378   4.198   2.944 -0.8503  0.0744  0.3436
 1323SOL    HW214167   9.344   4.303   2.824  0.7196 -0.6413 -0.7430
 1324SOL     OW14168   0.221   6.410   3.112 -0.3198 -0.0577 -0.8189
 1324SOL    HW114169   0.232   6.315   3.140 -1.1934  0.3027  0.8085
 1324SOL    HW214170   0.305   6.461   3.133 -0.7985  0.1044  0.7649
 1325SOL     OW14171   7.524   0.917   3.090  0.3377  0.3187  0.1261
 1325SOL    HW114172   7.435   0.962   3.096  0.2312  0.1505 -0.2184
 1325SOL    HW214173   7.596   0.986   3.100  0.1832  0.7119 -1.3844
 1326SOL     OW14174   0.541   4.039   3.873 -0.5045 -0.1052  1.0180
 1326SOL    HW114175   0.600   4.116   3.848 -1.3220  1.0143  2.4128
 1326SOL    HW214176   0.581   3.954   3.841  1.1302  0.7746  0.6680
 1327SOL     OW14177   4.859   1.761   4.312  0.4220  0.0948  0.5371
 1327SOL    HW114178   4.942   1.815   4.326  1.4318 -0.8292 -1.6703
 1327SOL    HW214179   4.830   1.770   4.216 -0.0212 -2.3602  0.4221
 1329SOL     OW14180   2.463   1.539   3.057 -0.1767 -0.2461 -0.4119
 1329SOL    HW114181   2.509   1.452   3.075  0.3104 -0.2082 -1.4546
 1329SOL    HW214182   2.412   1.533   2.972 -1.8999 -0.1906  0.5918
 1330SOL     OW14183   7.873   5.934   3.394 -0.0288  0.6000 -0.1550
 1330SOL    HW114184   7.799   5.957   3.457 -0.0590  0.5536 -0.1733
 1330SOL    HW214185   7.921   6.017   3.368  0.9374  0.4506  1.1111
 1332SOL     OW14186   8.450   8.657   2.766  0.4010  0.1263 -0.3178
 1332SOL    HW114187   8.543   8.652   2.730  1.6103  0.3440  2.6016
 1332SOL    HW214188   8.450   8.711   2.850 -2.1250 -0.9609  0.4395
 1333SOL     OW14189   3.002   4.235   0.399 -0.3357 -0.1771  0.6644
 1333SOL    HW114190   2.944   4.156   0.418 -1.6624  1.0120  1.7842
 1333SOL    HW214191   3.097   4.214   0.424 -0.3187 -2.0338 -0.8685
 1334SOL     OW14192   0.893   6.916   0.244 -0.0635 -0.0573 -0.6169
 1334SOL    HW114193   0.961   6.973   0.290  1.9987 -1.6612 -1.6392
 1334SOL    HW214194   0.836   6.870   0.313  0.2333  0.8172  0.2351
 1335SOL     OW14195   0.824   7.083   2.278 -0.0487 -0.6332 -0.1558
 1335SOL    HW114196   0.777   7.171   2.282 -0.1728 -0.6578 -1.0622
 1335SOL    HW214197   0.836   7.048   2.371 -0.6176  0.0055  0.1651
 1336SOL     OW14198   8.571   2.298   4.237 -0.4369 -0.2111 -0.2854
 1336SOL    HW114199   8.496   2.233   4.248  1.4094 -2.2813  0.3519
 1336SOL    HW214200   8.542   2.371   4.174 -2.8419 -1.1370 -0.3189
 1337SOL     OW14201   8.498   0.898   4.457  0.1168  0.1676 -0.1459
 1337SOL    HW114202   8.433   0.939   4.521  0.6392  0.9438 -0.1052
 1337SOL    HW214203   8.591   0.908   4.493  0.3981  0.4548 -0.9397
 1339SOL     OW14204   4.068   8.147   2.979  0.5262 -0.4602 -0.0297
 1339SOL    HW114205   4.010   8.095   3.042 -1.2864  0.5638 -0.8111
 1339SOL    HW214206   4.112   8.084   2.915  0.3718 -1.2617  0.6423
 1341SOL     OW14207   6.600   1.530   3.497 -0.2708 -0.4272  0.3167
 1341SOL    HW114208   6.525   1.465   3.485  0.3125 -1.0251 -0.2146
 1341SOL    HW214209   6.668   1.515   3.425  1.1399 -0.9960  1.7349
 1342SOL     OW14210   4.514   8.357   2.093 -0.6040  0.4838 -0.0186
 1342SOL    HW114211   4.558   8.434   2.141 -0.3087  0.5876 -0.4517
 1342SOL    HW214212   4.415   8.365   2.103 -0.4971 -0.1792  1.6112
 1343SOL     OW14213   2.008   2.100   0.321  0.0961  0.5392  0.0080
 1343SOL    HW114214   2.051   2.084   0.232 -1.3351  0.9482 -0.7606
 1343SOL    HW214215   2.056   2.046   0.391  0.2810 -0.9522 -1.2500
 1344SOL     OW14216   4.341   8.804   1.033  0.3265  0.2074  0.0363
 1344SOL    HW114217   4.431   8.848   1.027  0.9050 -0.9733  0.0425
 1344SOL    HW214218   4.307   8.812   1.127  0.3336  0.8175 -0.0082
 1346SOL     OW14219   8.364   8.810   3.026 -0.0774  0.0041 -0.3754
 1346SOL    HW114220   8.394   8.898   2.990  0.6315  0.2079  0.6784
 1346SOL    HW214221   8.440   8.767   3.075 -0.0270 -1.8010 -2.0087
 1348SOL     OW14222   9.104   6.776   3.115  0.1949  0.1352 -0.1935
 1348SOL    HW114223   9.066   6.826   3.193  0.3022 -0.0128 -0.0439
 1348SOL    HW214224   9.034   6.763   3.045 -0.3194 -1.0651  0.5328
 1349SOL     OW14225   8.290   8.901   4.190  0.1797 -0.1650  0.0786
 1349SOL    HW114226   8.324   8.816   4.230 -0.3437 -1.0214 -1.2776
 1349SOL    HW214227   8.367   8.958   4.162  0.5299 -0.4297  0.5038
 1350SOL     OW14228   8.915   8.220   5.048 -0.7479  0.0965  0.1223
 1350SOL    HW114229   8.836   8.201   4.990 -0.7604  1.1072 -0.2122
 1350SOL    HW214230   8.895   8.193   5.142 -1.0757 -0.6791 -0.1691
 1351SOL     OW14231   3.400   6.061   2.857 -0.0338 -0.1158 -0.3720
 1351SOL    HW114232   3.380   6.154   2.826 -1.6515 -0.7814 -1.4160
 1351SOL    HW214233   3.315   6.009   2.860  1.0663 -2.0268 -1.3760
 1352SOL     OW14234   7.915   6.356   5.124  0.1432 -0.2506 -0.3187
 1352SOL    HW114235   7.980   6.399   5.062 -0.2257 -0.6676 -0.9953
 1352SOL    HW214236   7.939   6.380   5.219  1.0493 -0.0994 -0.5807
 1353SOL     OW14237   3.547   0.402   4.176 -0.0845  0.6057 -0.2268
 1353SOL    HW114238   3.606   0.342   4.231  1.3468  1.4586 -0.8192
 1353SOL    HW214239   3.566   0.388   4.079 -0.6534  1.1232 -0.4157
 1354SOL     OW14240   7.508   1.139   0.767 -0.1449  0.2054 -0.0979
 1354SOL    HW114241   7.438   1.107   0.831 -0.1512  1.0054  0.3049
 1354SOL    HW214242   7.492   1.099   0.677 -0.6776 -0.2056  0.1765
 1356SOL     OW14243   5.654   8.460   4.082  0.2483  0.2353 -0.1474
 1356SOL    HW114244   5.604   8.547   4.073 -0.7227 -0.2291  0.6198
 1356SOL    HW214245   5.698   8.456   4.172 -1.0231 -0.7205  0.4591
 1357SOL     OW14246   4.941   3.394   4.421  0.2562  0.4182  0.3402
 1357SOL    HW114247   4.893   3.409   4.334  0.0082  0.2273  0.4442
 1357SOL    HW214248   4.908   3.310   4.463  1.8057 -0.5492 -0.3527
 1358SOL     OW14249   1.455   9.774   1.605 -0.5473  0.5552 -0.0861
 1358SOL    HW114250   1.460   9.850   1.540  2.0401  0.8582  0.4066
 1358SOL    HW214251   1.387   9.708   1.575 -1.2032  1.9636 -1.7304
 1360SOL     OW14252   9.878   8.823   5.052  0.0912 -0.1306 -0.4832
 1360SOL    HW114253   9.796   8.794   5.100  0.5208  0.6651  0.7579
 1360SOL    HW214254   9.909   8.911   5.088  1.3246 -0.2868 -1.1223
 1361SOL     OW14255   8.360   3.921   1.635 -0.1029 -0.2748 -0.8781
 1361SOL    HW114256   8.438   3.932   1.574 -0.0437 -0.9271 -0.9283
 1361SOL    HW214257   8.307   3.841   1.606 -0.4015 -0.2403 -0.4289
 1362SOL     OW14258   1.176   0.097   1.453 -0.6846 -0.3588  0.2370
 1362SOL    HW114259   1.099   0.066   1.509  0.0568  1.0199  2.0617
 1362SOL    HW214260   1.253   0.033   1.464 -0.5046 -0.0322  0.8645
 1363SOL     OW14261   3.314   7.424   1.756  0.0013 -0.0495 -0.1483
 1363SOL    HW114262   3.295   7.521   1.772 -0.4861 -0.4120  1.6224
 1363SOL    HW214263   3.260   7.392   1.678 -2.2146  0.3763  1.1593
 1365SOL     OW14264   2.012   6.055   2.563 -0.1092  0.9581  0.0998
 1365SOL    HW114265   1.912   6.059   2.567 -0.0478  1.3228  1.6615
 1365SOL    HW214266   2.044   6.116   2.491 -1.1384 -1.4584 -2.4822
 1366SOL     OW14267   1.512   6.295   4.198  0.6282  0.3845  0.3477
 1366SOL    HW114268   1.460   6.215   4.230 -0.9258  1.6200  1.0042
 1366SOL    HW214269   1.529   6.287   4.100 -0.8766 -0.0423  0.1033
 1367SOL     OW14270   0.112   5.332   0.936  0.1418  0.5554  0.0279
 1367SOL    HW114271   0.209   5.308   0.924  0.0735  0.5646 -0.5252
 1367SOL    HW214272   0.104   5.431   0.947  0.2154  0.5351  0.2676
 1368SOL     OW14273   8.475   2.774   2.206 -0.0804 -0.9367  0.1169
 1368SOL    HW114274   8.531   2.779   2.123 -1.6386 -1.0448 -0.9541
 1368SOL    HW214275   8.434   2.683   2.214 -0.2040 -0.8226  0.8343
 1369SOL     OW14276   1.901   7.406   4.081  0.0108 -0.1085 -0.1784
 1369SOL    HW114277   1.803   7.391   4.081 -0.1068  0.6134  1.0892
 1369SOL    HW214278   1.948   7.325   4.116 -0.2411  0.1324  0.7330
 1370SOL     OW14279   8.262   2.651   5.075  0.2876 -0.5883  0.3053
 1370SOL    HW114280   8.282   2.673   5.171  0.3201 -2.8739  0.8546
 1370SOL    HW214281   8.264   2.552   5.063  2.6368 -0.2382 -2.5914
 1371SOL     OW14282   7.590   7.224   4.166  0.2127  0.4630  0.0842
 1371SOL    HW114283   7.583   7.157   4.240  1.0269  0.0385 -0.2153
 1371SOL    HW214284   7.643   7.185   4.090 -1.3554  0.5614 -1.0936
 1372SOL     OW14285   8.327   7.850   4.190  0.1630 -0.1526 -0.2553
 1372SOL    HW114286   8.382   7.776   4.150  3.1907  2.5959 -1.3529
 1372SOL    HW214287   8.277   7.898   4.118  0.1191  0.4036  0.1451
 1373SOL     OW14288   3.013   1.623   3.962  0.4388  0.4761  0.1509
 1373SOL    HW114289   3.000   1.525   3.954 -0.5497  0.5001  1.2434
 1373SOL    HW214290   2.955   1.670   3.895 -1.2015  0.3985  1.4967
 1374SOL     OW14291   2.965   6.848   2.370 -0.6175 -0.7548 -0.2092
 1374SOL    HW114292   2.945   6.829   2.466 -2.2439  0.2080 -0.3343
 1374SOL    HW214293   2.903   6.794   2.312  0.9329 -1.9844 -0.7438
 1376SOL     OW14294   6.484   1.156   3.740  0.0843  0.1066 -0.2125
 1376SOL    HW114295   6.433   1.088   3.792  0.9826  0.1721  0.7847
 1376SOL    HW214296   6.544   1.207   3.802  2.6140 -1.1201 -1.5678
 1378SOL     OW14297   3.244   2.315   2.217 -0.9906 -0.4275 -0.2102
 1378SOL    HW114298   3.205   2.286   2.130 -1.4544  0.7476 -0.4087
 1378SOL    HW214299   3.190   2.278   2.292 -2.3419  0.9297 -0.4806
 1379SOL     OW14300   6.926   7.584   3.632  0.1837  0.3852 -0.3601
 1379SOL    HW114301   6.861   7.564   3.706 -1.8853  0.6836 -2.0574
 1379SOL    HW214302   6.927   7.508   3.567  0.5247  0.9816 -1.0619
 1381SOL     OW14303   8.886   5.185   0.075 -0.0679  0.6128 -0.5212
 1381SOL    HW114304   8.862   5.280   0.093 -1.8119  0.1835 -0.4903
 1381SOL    HW214305   8.852   5.158  -0.015  0.7931  0.1364 -0.7083
 1382SOL     OW14306   4.128   5.150   4.465 -0.1161  1.0589 -0.7103
 1382SOL    HW114307   4.062   5.210   4.420 -1.1670 -0.9059 -1.8523
 1382SOL    HW214308   4.175   5.095   4.396 -1.6128 -1.8494  0.5051
 1384SOL     OW14309   9.697   5.540   4.735  0.0041  0.5209  0.1312
 1384SOL    HW114310   9.673   5.636   4.753  0.1148  0.1333  2.4899
 1384SOL    HW214311   9.786   5.536   4.690  0.7056  1.4765  1.4039
 1385SOL     OW14312   5.132   5.000   3.575 -0.5409  0.0737 -0.3482
 1385SOL    HW114313   5.075   5.064   3.626  1.6344  2.7918 -1.2048
 1385SOL    HW214314   5.229   5.025   3.586  0.4031 -3.2364 -0.5097
 1386SOL     OW14315   8.754   9.913   0.252  0.6568  0.0537 -0.0855
 1386SOL    HW114316   8.847   9.877   0.249  0.8650  0.5982 -0.3193
 1386SOL    HW214317   8.742   9.980   0.178  0.6090  1.2303  0.9747
 1387SOL     OW14318   0.958   8.893   4.040  0.3971  0.1945 -0.0809
 1387SOL    HW114319   1.041   8.924   3.994  0.5935  2.2435  1.5935
 1387SOL    HW214320   0.981   8.828   4.111  0.7299  1.6968  1.2152
 1388SOL     OW14321   8.800   5.797   0.322 -0.4286  0.2563  0.2365
 1388SOL    HW114322   8.893   5.830   0.305 -0.5255 -0.2982 -1.4839
 1388SOL    HW214323   8.804   5.708   0.369 -0.0611 -0.2758 -0.7863
 1389SOL     OW14324   3.154   0.425   1.566  0.0030  0.1154  0.0353
 1389SOL    HW114325   3.192   0.448   1.477  0.6156 -1.9788 -0.2867
 1389SOL    HW214326   3.130   0.508   1.616 -0.3459  1.3040 -2.0806
 1390SOL     OW14327   7.917   9.876   0.026 -0.2583  0.2242 -0.4324
 1390SOL    HW114328   7.986   9.804   0.018  0.7235  1.2899 -1.8956
 1390SOL    HW214329   7.895   9.891   0.122  1.8598  0.1428  0.0808
 1391SOL     OW14330   4.493   3.563   3.884 -0.0516 -0.1082  0.4644
 1391SOL    HW114331   4.489   3.536   3.788  1.7164 -0.4692  0.4803
 1391SOL    HW214332   4.585   3.546   3.920 -0.4396  0.8647  1.9687
 1392SOL     OW14333   9.360   7.419   0.645 -0.2292  0.0146 -1.1732
 1392SOL    HW114334   9.327   7.504   0.604  1.5132  0.6717 -1.2250
 1392SOL    HW214335   9.323   7.341   0.594 -1.5973  0.7346 -1.3030
 1393SOL     OW14336   1.887   3.820   1.810  0.4456 -0.6422 -0.5861
 1393SOL    HW114337   1.813   3.888   1.810  1.6718  0.7264 -1.1045
 1393SOL    HW214338   1.974   3.866   1.826  1.3446 -2.0680 -1.2632
 1394SOL     OW14339   0.196   4.868   1.870 -0.1128  0.6033 -0.3333
 1394SOL    HW114340   0.243   4.849   1.956 -0.4165  0.4791 -0.1948
 1394SOL    HW214341   0.112   4.814   1.865 -0.1304  0.6594 -0.6781
 1395SOL     OW14342   5.552   0.041   1.486  0.4291  0.3822  0.1047
 1395SOL    HW114343   5.453   0.032   1.483  0.4544  0.0576  0.2269
 1395SOL    HW214344   5.581   0.058   1.580  0.3364  2.3200 -0.1929
 1396SOL     OW14345   2.297   2.300   0.507  0.4374 -0.4170 -0.0929
 1396SOL    HW114346   2.307   2.281   0.605 -1.2785 -1.3482 -0.0911
 1396SOL    HW214347   2.314   2.217   0.455 -3.0733 -1.0403 -0.3143
 1397SOL     OW14348   1.976   4.335   3.768  0.1624  0.1541  0.4325
 1397SOL    HW114349   1.900   4.291   3.719  0.8185  1.5381 -1.8798
 1397SOL    HW214350   1.945   4.363   3.859 -2.8994  3.0579 -1.4050
 1398SOL     OW14351   0.707   0.941   1.637  0.7686 -0.4299 -0.1386
 1398SOL    HW114352   0.638   1.014   1.629  0.4870 -0.3866  2.2191
 1398SOL    HW214353   0.662   0.856   1.664  1.5878 -0.4474  1.2334
 1401SOL     OW14354   5.393   2.105   1.637 -0.0821  0.1302 -0.2233
 1401SOL    HW114355   5.432   2.018   1.607 -3.1472 -1.6454  0.6757
 1401SOL    HW214356   5.390   2.169   1.560  0.5051 -1.1871 -1.3641
 1402SOL     OW14357   4.815   4.324   3.137 -0.1076 -0.0985  0.2612
 1402SOL    HW114358   4.857   4.325   3.228  0.5582 -0.7258 -0.0391
 1402SOL    HW214359   4.796   4.418   3.109 -1.3293  0.0425  1.5103
 1403SOL     OW14360   9.708   1.440   0.756 -0.0636  0.5541  0.2211
 1403SOL    HW114361   9.687   1.428   0.853  2.1977  0.7487  0.7767
 1403SOL    HW214362   9.722   1.350   0.714  1.2968  0.5476  0.6564
 1404SOL     OW14363   2.303   8.533   1.011  0.1360  0.3650 -0.3365
 1404SOL    HW114364   2.326   8.442   1.045  0.2064  0.4521 -0.1532
 1404SOL    HW214365   2.335   8.542   0.916 -1.5781 -0.4806 -1.0133
 1405SOL     OW14366   8.481   4.517   3.532 -1.0936 -0.4477 -0.0987
 1405SOL    HW114367   8.576   4.517   3.499 -0.6068 -1.9397  1.1942
 1405SOL    HW214368   8.429   4.448   3.483 -0.5223 -2.2455  1.7262
 1406SOL     OW14369   7.101   2.586   0.581  0.3209 -0.6825  0.4307
 1406SOL    HW114370   7.077   2.559   0.674 -0.1676 -0.7399  0.2886
 1406SOL    HW214371   7.185   2.539   0.553  0.3561 -0.8181  0.7658
 1407SOL     OW14372   5.580   0.399   4.035 -0.3477  0.1535  0.2571
 1407SOL    HW114373   5.556   0.460   3.960 -2.0869 -1.9330 -0.9684
 1407SOL    HW214374   5.496   0.368   4.081  0.5723 -0.2274  1.7144
 1408SOL     OW14375   4.057   4.605   0.444 -0.5839 -0.0528  0.2305
 1408SOL    HW114376   4.062   4.604   0.544 -0.9491  1.1845  0.2728
 1408SOL    HW214377   4.109   4.528   0.407  0.1401 -0.1123  1.3514
 1409SOL     OW14378   2.714   5.848   2.916  0.5599 -0.3655  0.5239
 1409SOL    HW114379   2.665   5.926   2.877  0.3169  0.5446  2.5758
 1409SOL    HW214380   2.677   5.763   2.878 -1.5814  0.3668  0.8957
 1410SOL     OW14381   4.322   9.341   4.702 -0.0437 -0.2413  0.0861
 1410SOL    HW114382   4.250   9.383   4.757  0.8411 -0.5758  1.5107
 1410SOL    HW214383   4.380   9.285   4.760  1.4786  0.1675 -1.0210
 1411SOL     OW14384   1.075   5.687   1.596 -0.4323  0.3941  0.0905
 1411SOL    HW114385   1.111   5.627   1.668 -1.4650  0.8939  1.0298
 1411SOL    HW214386   1.063   5.633   1.512  0.4468 -0.2705  0.3752
 1412SOL     OW14387   0.229   1.451   0.850  0.5131 -0.3943 -0.5591
 1412SOL    HW114388   0.182   1.382   0.795 -0.1901 -0.0067 -0.4620
 1412SOL    HW214389   0.174   1.472   0.931 -0.6161  2.1900 -1.9357
 1413SOL     OW14390   7.444   8.552   4.125  0.3310  0.4391  0.5859
 1413SOL    HW114391   7.544   8.561   4.130  0.2966 -0.0190  2.2349
 1413SOL    HW214392   7.404   8.568   4.215 -0.8555 -1.9997  0.5408
 1414SOL     OW14393   2.042   3.287   0.176  0.2847 -0.2253  0.2253
 1414SOL    HW114394   2.039   3.207   0.236  2.3969 -0.6853 -0.2305
 1414SOL    HW214395   1.950   3.310   0.145 -0.2507 -2.9996 -0.3091
 1415SOL     OW14396   9.983   2.995   5.016 -0.1131  0.1101  0.3714
 1415SOL    HW114397   9.956   3.059   5.089 -1.1632 -0.7674  0.7653
 1415SOL    HW214398  10.072   3.021   4.980 -0.1639  1.3159  1.0967
 1416SOL     OW14399   2.231   3.435   3.256  0.0140 -0.3202 -0.9331
 1416SOL    HW114400   2.265   3.377   3.182 -0.3193 -0.6949 -0.7899
 1416SOL    HW214401   2.278   3.523   3.252  0.0443 -0.3577 -1.5530
 1417SOL     OW14402   3.338   1.389   1.694  0.0439 -0.3483  0.3872
 1417SOL    HW114403   3.351   1.310   1.634  1.6675  0.0249  0.2248
 1417SOL    HW214404   3.362   1.364   1.787  0.6573 -0.0246  0.3189
 1418SOL     OW14405   9.676   2.462   5.033 -0.0230  0.9558  0.5955
 1418SOL    HW114406   9.614   2.539   5.018 -0.8959  0.3665  1.0936
 1418SOL    HW214407   9.633   2.378   4.999  0.6909  0.6118  0.5436
 1419SOL     OW14408   1.626   2.717   5.314 -0.3215  0.2339 -0.3283
 1419SOL    HW114409   1.656   2.761   5.229  0.3195  0.3558 -0.0451
 1419SOL    HW214410   1.672   2.760   5.392 -2.1518  1.2340  0.2330
 1420SOL     OW14411   5.749   7.960   2.961  0.2963  0.4903 -0.8452
 1420SOL    HW114412   5.654   7.934   2.948  0.3920  0.3441 -1.2533
 1420SOL    HW214413   5.754   8.035   3.028 -0.2384  1.5125 -1.9193
 1421SOL     OW14414   9.925   7.933   1.176 -1.0016 -0.2107 -0.5659
 1421SOL    HW114415   9.921   7.833   1.188  1.5232 -0.6287 -2.6854
 1421SOL    HW214416  10.018   7.960   1.153 -1.3195  2.8695  1.4317
 1422SOL     OW14417   9.391   8.547   0.729  0.3825  0.3679 -0.0071
 1422SOL    HW114418   9.450   8.477   0.689  1.0450 -0.4117  2.3142
 1422SOL    HW214419   9.380   8.531   0.827 -1.7296  1.9056  0.0560
 1423SOL     OW14420   0.915   5.930   1.622 -0.2512  0.2008  0.5742
 1423SOL    HW114421   0.945   5.840   1.592 -0.1304  0.1222  0.9208
 1423SOL    HW214422   0.914   5.933   1.722  1.4886  1.1476  0.5886
 1424SOL     OW14423   8.371   8.260   3.445 -0.6329  0.3149  0.6124
 1424SOL    HW114424   8.458   8.214   3.428  0.4462  2.5106 -0.0729
 1424SOL    HW214425   8.305   8.234   3.374 -0.2984 -0.7353  0.6737
 1425SOL     OW14426   9.243   2.277   4.551  0.0293 -0.1014  0.1788
 1425SOL    HW114427   9.314   2.342   4.525  1.7981 -1.8613  0.5210
 1425SOL    HW214428   9.173   2.274   4.480  1.2266  0.2978 -1.0365
 1426SOL     OW14429   7.143   1.430   4.506  0.1273 -0.2322  0.2852
 1426SOL    HW114430   7.224   1.484   4.486 -0.3701 -0.2345 -1.8879
 1426SOL    HW214431   7.065   1.466   4.455 -0.2927 -2.7799 -0.9483
 1427SOL     OW14432   3.595   4.610   3.432 -0.1127  0.1004 -0.0640
 1427SOL    HW114433   3.623   4.706   3.430 -0.7226  0.2625 -1.4291
 1427SOL    HW214434   3.623   4.565   3.347  0.1244 -0.9156  0.5485
 1428SOL     OW14435   1.016   2.395   2.229  0.5214 -0.2986  0.3714
 1428SOL    HW114436   0.951   2.416   2.303 -1.2703  1.6786 -1.6747
 1428SOL    HW214437   1.097   2.452   2.240 -0.4652  1.2320 -0.1028
 1429SOL     OW14438   4.508   9.092   1.001 -0.6794 -0.1105  0.5461
 1429SOL    HW114439   4.414   9.100   0.969 -0.3798 -1.5831 -0.7636
 1429SOL    HW214440   4.567   9.150   0.946 -0.1838 -2.5457 -1.6239
 1430SOL     OW14441   9.127   5.479   2.593 -0.9577  0.8962  0.0319
 1430SOL    HW114442   9.078   5.415   2.653  1.6449  0.4981  1.8378
 1430SOL    HW214443   9.140   5.566   2.640  0.3622  0.8713 -0.2649
 1431SOL     OW14444   0.431   7.843   2.662 -0.4439  0.0784 -0.2785
 1431SOL    HW114445   0.478   7.928   2.637 -0.4692 -0.5037 -2.3751
 1431SOL    HW214446   0.385   7.855   2.750  1.8316  1.3471  0.7666
 1432SOL     OW14447   9.811   2.636   1.273  0.0654  0.0017 -0.7343
 1432SOL    HW114448   9.744   2.707   1.251  0.1169  0.0677 -0.6763
 1432SOL    HW214449   9.883   2.674   1.331 -0.5099 -0.3767  0.2333
 1434SOL     OW14450   8.550   2.070   1.537 -0.1014  0.1061 -0.3951
 1434SOL    HW114451   8.452   2.065   1.519 -0.0572 -2.5981  0.0213
 1434SOL    HW214452   8.565   2.101   1.631 -0.4851  2.7655 -1.1689
 1435SOL     OW14453   2.606   1.765   2.795  0.2309  0.4071 -0.4871
 1435SOL    HW114454   2.692   1.744   2.750  1.4259  1.6249  1.1686
 1435SOL    HW214455   2.542   1.806   2.730  0.5302 -1.4094 -1.9527
 1436SOL     OW14456   2.416   3.434   0.658  0.1087  0.3443 -1.0763
 1436SOL    HW114457   2.381   3.341   0.669  0.4775  0.1875 -1.2017
 1436SOL    HW214458   2.516   3.432   0.659  0.1190  0.7159 -1.2843
 1437SOL     OW14459   3.664   7.605   1.870 -0.1028 -0.1861  0.3494
 1437SOL    HW114460   3.579   7.602   1.923 -1.2829  0.4197 -1.4674
 1437SOL    HW214461   3.664   7.684   1.809  2.2099  0.3673  1.0050
 1438SOL     OW14462   9.423   0.743   3.655  0.5149  0.8424 -0.0319
 1438SOL    HW114463   9.355   0.673   3.633 -1.4815  3.4563 -2.5432
 1438SOL    HW214464   9.377   0.823   3.693  2.4133  1.9225  0.0535
 1439SOL     OW14465   9.548   3.805   3.642  0.2751  0.0915 -0.3423
 1439SOL    HW114466   9.600   3.767   3.718 -0.6981  1.8142  1.2262
 1439SOL    HW214467   9.460   3.759   3.635  1.2629 -1.6405 -1.9139
 1441SOL     OW14468   7.320   0.407   4.757  0.2807 -0.0140 -0.4830
 1441SOL    HW114469   7.256   0.434   4.828  0.7294 -1.0946  0.3419
 1441SOL    HW214470   7.295   0.451   4.671 -1.4857 -0.3317 -0.1419
 1442SOL     OW14471   1.404   3.843   3.459 -0.1195  0.7376  0.3754
 1442SOL    HW114472   1.418   3.756   3.412  1.7906 -0.2074  2.6057
 1442SOL    HW214473   1.464   3.912   3.420 -0.4876  0.6623 -0.3394
 1443SOL     OW14474   4.277   8.931   4.014  0.1113 -0.0033  0.3927
 1443SOL    HW114475   4.190   8.907   4.058  0.4707 -0.7038  0.7178
 1443SOL    HW214476   4.270   8.914   3.916 -0.4621  0.9198  0.2649
 1444SOL     OW14477   6.598   0.786   2.323 -0.2207 -0.4877 -1.1156
 1444SOL    HW114478   6.566   0.881   2.325 -0.5728 -0.5722 -2.0748
 1444SOL    HW214479   6.639   0.767   2.233  2.8340 -0.2832  0.1976
 1445SOL     OW14480   1.389   2.050   3.071  0.2680  0.1718  0.0268
 1445SOL    HW114481   1.361   2.060   3.166  1.6869 -0.5761  0.5381
 1445SOL    HW214482   1.422   2.138   3.037  1.5085  0.0221  0.8137
 1446SOL     OW14483   1.004   0.724   2.118  0.0842 -0.5215 -0.0917
 1446SOL    HW114484   0.994   0.793   2.047  0.0396  1.9066  2.1639
 1446SOL    HW214485   1.079   0.750   2.179  0.2049 -2.5864  0.6918
 1447SOL     OW14486   3.593   5.273   1.264  0.7075 -0.3893 -0.7510
 1447SOL    HW114487   3.658   5.233   1.328 -1.0161 -3.3761 -0.8118
 1447SOL    HW214488   3.568   5.365   1.296  2.7611 -0.3172  0.7718
 1449SOL     OW14489   5.447   0.821   3.041 -0.0770 -0.3169 -0.1576
 1449SOL    HW114490   5.368   0.868   3.079  0.9251  1.2841  0.0089
 1449SOL    HW214491   5.459   0.848   2.945  0.4228 -0.3568 -0.1079
 1450SOL     OW14492   2.950   5.633   0.860 -0.4309  0.3091 -0.4435
 1450SOL    HW114493   2.980   5.700   0.792 -1.1929 -1.1218 -2.2264
 1450SOL    HW214494   2.995   5.545   0.843  0.2694  0.2408  1.6307
 1451SOL     OW14495   7.757   0.054   1.427  0.3425 -0.3851  0.4373
 1451SOL    HW114496   7.845   0.077   1.385 -0.7473  0.7049 -1.3398
 1451SOL    HW214497   7.726   0.131   1.483 -0.1300 -0.2177 -0.0542
 1452SOL     OW14498   3.533   5.103   4.094 -0.4041 -0.1880 -0.2894
 1452SOL    HW114499   3.457   5.043   4.121  0.6319 -1.0610  0.7124
 1452SOL    HW214500   3.594   5.055   4.032  0.0713  0.0555 -0.0111
 1453SOL     OW14501   4.769   1.130   3.867 -0.0788  0.4521  0.0705
 1453SOL    HW114502   4.726   1.220   3.870 -0.6336  0.2114 -0.4502
 1453SOL    HW214503   4.729   1.071   3.937 -0.4770  0.2801 -0.3018
 1455SOL     OW14504   0.366   3.375   2.323 -0.6001  0.3903  0.2781
 1455SOL    HW114505   0.279   3.345   2.360 -0.6169  0.5597  0.3784
 1455SOL    HW214506   0.422   3.414   2.396  0.5562 -1.9712  0.7055
 1456SOL     OW14507   4.778   3.409   2.783  0.6970  0.2127 -0.4319
 1456SOL    HW114508   4.713   3.345   2.823 -1.4621  1.7629 -1.3641
 1456SOL    HW214509   4.833   3.450   2.856 -0.6734  0.2870  0.5700
 1457SOL     OW14510   1.678   2.997   4.406  0.3230  0.3693  0.4941
 1457SOL    HW114511   1.610   3.010   4.478  0.1236  0.2686  0.3239
 1457SOL    HW214512   1.748   2.933   4.437  1.5575  2.1352  1.5192
 1458SOL     OW14513   9.404   7.622   3.772 -0.6937 -0.1269  0.3602
 1458SOL    HW114514   9.486   7.647   3.823 -0.5918 -0.6499  0.4521
 1458SOL    HW214515   9.351   7.705   3.753 -0.3390  0.1666  0.6324
 1460SOL     OW14516   3.959   7.861   2.055 -0.2672  0.4760 -0.2609
 1460SOL    HW114517   3.966   7.944   1.999 -0.5070  0.3116 -0.5357
 1460SOL    HW214518   3.967   7.781   1.996 -0.1872  0.3026 -0.0141
 1461SOL     OW14519   9.037   0.005   4.343  0.5254 -0.1027 -0.3505
 1461SOL    HW114520   8.981  -0.057   4.287  0.2863  0.7056 -1.0221
 1461SOL    HW214521   8.991   0.022   4.430  0.2673 -0.3375 -0.4407
 1463SOL     OW14522   9.914   8.083   3.352 -0.2209  0.1356 -0.0710
 1463SOL    HW114523   9.942   8.027   3.275 -1.3973  0.1084 -0.4969
 1463SOL    HW214524   9.967   8.057   3.433 -1.0436 -1.9407 -0.1472
 1465SOL     OW14525   3.818   5.037   2.279  0.1040  0.3150  0.2426
 1465SOL    HW114526   3.833   5.132   2.306 -0.0862  0.5232 -0.3567
 1465SOL    HW214527   3.722   5.024   2.256  0.1684  0.0319  0.1286
 1466SOL     OW14528   9.233   2.588   2.372 -0.1756 -0.4314 -0.5347
 1466SOL    HW114529   9.149   2.603   2.425 -0.3907 -1.1546 -0.6591
 1466SOL    HW214530   9.259   2.491   2.378  0.9982 -0.0967  0.0162
 1467SOL     OW14531   8.717   9.040   4.271  0.1761 -0.0453 -0.1496
 1467SOL    HW114532   8.645   9.088   4.220 -2.2229 -2.0720  1.1999
 1467SOL    HW214533   8.732   8.950   4.230  1.4037  0.0700  0.0411
 1469SOL     OW14534   2.003   7.780   0.014 -0.1704 -1.0961  0.4991
 1469SOL    HW114535   2.068   7.779  -0.062 -0.7716 -1.2405 -0.0160
 1469SOL    HW214536   2.041   7.834   0.089  0.5846 -1.2589  0.2373
 1471SOL     OW14537   7.425   2.183   5.288 -0.0950  0.2224  0.1077
 1471SOL    HW114538   7.437   2.118   5.362  1.6372 -0.9164 -1.1396
 1471SOL    HW214539   7.328   2.200   5.274 -0.4379  1.0375  3.1009
 1472SOL     OW14540   3.922   6.181   0.879 -0.0446 -0.1969 -1.2380
 1472SOL    HW114541   3.985   6.242   0.832  0.2663  0.8162  0.4764
 1472SOL    HW214542   3.971   6.099   0.910  0.2627  0.2145 -0.6262
 1473SOL     OW14543   1.746   5.257   0.938  0.0738  0.2095 -0.1893
 1473SOL    HW114544   1.722   5.291   1.029 -1.8934 -1.6609  0.0364
 1473SOL    HW214545   1.704   5.315   0.869  0.6474  0.9917  0.1172
 1474SOL     OW14546   9.817   8.723   4.469 -0.2843  0.9962 -0.3162
 1474SOL    HW114547   9.841   8.642   4.415 -0.1935  0.2064  0.8704
 1474SOL    HW214548   9.736   8.767   4.429 -0.5075  0.1450 -0.8148
 1475SOL     OW14549   3.191   6.362   0.153 -0.1897 -0.2791  0.4153
 1475SOL    HW114550   3.164   6.426   0.224  1.0680 -0.1529  0.7876
 1475SOL    HW214551   3.287   6.336   0.166 -0.0517 -0.5324 -1.0093
 1476SOL     OW14552   3.939   4.568   2.995 -0.2086  0.0526  0.1688
 1476SOL    HW114553   3.978   4.659   2.986 -0.5747  0.1755 -0.1795
 1476SOL    HW214554   4.012   4.502   3.012  0.3350  0.0383 -2.0821
 1477SOL     OW14555   7.664   2.623   0.738  0.4352  0.4212 -0.1490
 1477SOL    HW114556   7.739   2.689   0.742  0.2937  0.5537  0.4203
 1477SOL    HW214557   7.637   2.608   0.643  0.0386  1.6800 -0.2475
 1478SOL     OW14558   4.907   1.100   2.377 -0.2580  0.0303  0.0812
 1478SOL    HW114559   4.965   1.021   2.400  1.1119  1.6479  2.3727
 1478SOL    HW214560   4.950   1.152   2.302  1.1826  1.1028  1.6261
 1479SOL     OW14561   7.728   0.714   1.994  0.3612  1.2436 -0.1427
 1479SOL    HW114562   7.731   0.770   1.911  1.9599  1.1783 -0.1379
 1479SOL    HW214563   7.746   0.619   1.970  0.0675  1.1080  0.1771
 1480SOL     OW14564   7.303   9.191   4.944 -0.1938 -0.4030  0.2270
 1480SOL    HW114565   7.381   9.245   4.912 -0.4432 -0.0437  0.2351
 1480SOL    HW214566   7.229   9.195   4.877  0.4164 -2.1118 -0.5849
 1482SOL     OW14567   7.264   2.106   3.040 -0.1901 -0.2512 -0.0998
 1482SOL    HW114568   7.255   2.206   3.038  0.3141 -0.2127 -2.7822
 1482SOL    HW214569   7.213   2.069   3.118 -2.8498  1.8822 -0.7363
 1483SOL     OW14570   5.143   1.961   1.783 -0.2204  0.0823  0.0004
 1483SOL    HW114571   5.063   2.006   1.743 -0.4845 -0.0709  0.3551
 1483SOL    HW214572   5.225   2.014   1.760 -0.4263  0.2645 -0.3278
 1485SOL     OW14573   5.350   6.519   1.792  0.2373 -0.6217 -0.1783
 1485SOL    HW114574   5.329   6.616   1.775  1.8951 -0.2765 -0.3653
 1485SOL    HW214575   5.429   6.512   1.853 -0.4668 -1.8758  0.6131
 1486SOL     OW14576   9.678   9.876   3.109 -0.6622 -0.1431 -0.2545
 1486SOL    HW114577   9.700   9.796   3.053  0.2354 -0.0300 -0.0813
 1486SOL    HW214578   9.755   9.940   3.106  0.0841 -0.8191  2.3210
 1487SOL     OW14579   8.905   2.806   4.428  0.4331 -0.1475  0.1538
 1487SOL    HW114580   8.807   2.798   4.411 -0.0694  2.1301  1.7944
 1487SOL    HW214581   8.941   2.718   4.460 -1.1992 -0.8093  0.1963
 1488SOL     OW14582   2.016   6.474   0.191 -0.3003 -0.3616  0.0231
 1488SOL    HW114583   2.067   6.561   0.193 -0.9010 -0.0292  0.9667
 1488SOL    HW214584   1.925   6.490   0.155 -0.4028 -0.6121  0.1733
 1491SOL     OW14585   9.779   2.863   1.879  1.1249  0.2584 -0.4648
 1491SOL    HW114586   9.699   2.902   1.832  0.4194 -0.5457  0.0556
 1491SOL    HW214587   9.842   2.826   1.811 -0.1732 -1.4449 -0.7862
 1492SOL     OW14588   5.158   0.880   3.758 -0.4652 -0.4749 -0.2003
 1492SOL    HW114589   5.197   0.810   3.818  1.2846  0.6370  0.0054
 1492SOL    HW214590   5.109   0.948   3.813 -0.9249 -0.7654 -0.2557
 1493SOL     OW14591   7.819   2.887   4.894 -0.1736  0.2316  0.2738
 1493SOL    HW114592   7.781   2.824   4.961  0.5641 -0.0580  0.4249
 1493SOL    HW214593   7.883   2.839   4.835  0.0139  0.7302  0.0667
 1494SOL     OW14594   3.597   0.332   4.760 -0.1388  0.1072  0.6396
 1494SOL    HW114595   3.694   0.351   4.744 -0.6391  1.6633 -0.6443
 1494SOL    HW214596   3.587   0.238   4.792  1.6369 -0.6458 -0.9041
 1495SOL     OW14597   1.792   6.088   4.421 -0.3444  0.4101  0.0034
 1495SOL    HW114598   1.703   6.129   4.439 -0.6114 -0.3479  0.4151
 1495SOL    HW214599   1.786   6.028   4.341  0.2633  1.8663 -1.1693
 1496SOL     OW14600   8.711   4.621   0.868  0.4508 -0.1154 -0.3062
 1496SOL    HW114601   8.772   4.672   0.807  0.7874 -0.3711 -0.1872
 1496SOL    HW214602   8.677   4.682   0.940 -0.2699  0.2839 -0.9843
 1497SOL     OW14603   1.668   6.130   3.554  0.4497 -0.3796  0.2191
 1497SOL    HW114604   1.701   6.223   3.565 -1.9101  0.4628  0.3600
 1497SOL    HW214605   1.717   6.069   3.616  0.0954  1.2412  2.1115
 1498SOL     OW14606   9.570   4.375   3.717  0.3987  0.4416  0.1724
 1498SOL    HW114607   9.607   4.447   3.657  2.4817  0.1811  1.1180
 1498SOL    HW214608   9.471   4.383   3.720  0.6258  3.9509  1.0702
 1499SOL     OW14609   2.392   9.315   0.654 -0.5056 -0.2276  0.2244
 1499SOL    HW114610   2.468   9.255   0.679 -1.6240 -1.9414 -0.3765
 1499SOL    HW214611   2.422   9.410   0.654  0.9863 -0.6853  2.3808
 1500SOL     OW14612   1.714   0.990   4.666 -0.0949  0.4227 -0.2076
 1500SOL    HW114613   1.809   1.018   4.672 -0.0698  0.2053  0.4011
 1500SOL    HW214614   1.667   1.046   4.598  0.2986  0.9793 -0.0230
 1501SOL     OW14615   3.883   0.860   2.006  0.2442  0.0309 -0.0368
 1501SOL    HW114616   3.919   0.908   2.086  0.6312  0.7488 -0.6433
 1501SOL    HW214617   3.811   0.797   2.035  1.9888 -1.4352  1.1826
 1502SOL     OW14618   3.243   3.732   5.163  0.3077  0.3098  0.1924
 1502SOL    HW114619   3.329   3.684   5.177 -0.6324 -1.6437 -0.5892
 1502SOL    HW214620   3.239   3.768   5.070 -0.8257 -1.9548 -0.6716
 1503SOL     OW14621   0.823   9.410   1.526  0.5128 -0.6961 -0.1503
 1503SOL    HW114622   0.793   9.332   1.471  0.8700 -1.4919  0.7671
 1503SOL    HW214623   0.905   9.385   1.577  0.0266 -0.0752  0.9633
 1504SOL     OW14624   0.010   5.324   3.993  0.2706  0.0282  0.2612
 1504SOL    HW114625   0.083   5.257   4.001 -0.1213 -0.3804  0.4316
 1504SOL    HW214626  -0.040   5.308   3.908 -0.3671 -0.4462  0.7207
 1505SOL     OW14627   0.498   6.726   2.640 -1.0069 -0.2695  0.4272
 1505SOL    HW114628   0.574   6.726   2.575 -0.2700  0.8948  1.2688
 1505SOL    HW214629   0.415   6.761   2.595 -0.1035  2.0886  0.5359
 1507SOL     OW14630   9.624   0.113   2.669  0.1482 -0.5013 -0.0929
 1507SOL    HW114631   9.667   0.203   2.664 -2.1260  0.5628 -1.0764
 1507SOL    HW214632   9.546   0.117   2.731 -0.1098 -1.7476 -0.3213
 1508SOL     OW14633   4.376   5.336   0.055 -0.0424 -0.3647 -0.6332
 1508SOL    HW114634   4.351   5.269   0.125 -0.2623  2.3514  1.9765
 1508SOL    HW214635   4.301   5.345  -0.011 -0.4758 -1.8146 -0.3517
 1509SOL     OW14636   4.286   0.499   4.537  0.1742 -0.3407 -0.0747
 1509SOL    HW114637   4.374   0.527   4.499  0.0668  0.2267  0.0935
 1509SOL    HW214638   4.279   0.530   4.631 -1.0023  1.3267 -0.6971
 1510SOL     OW14639   1.425   1.935   1.102 -0.0440  0.0321 -0.6810
 1510SOL    HW114640   1.389   1.845   1.076 -1.1039  0.1054  0.4815
 1510SOL    HW214641   1.509   1.924   1.155  0.1342 -0.2430 -1.0159
 1512SOL     OW14642   0.976   9.233   5.080  0.1478 -0.4211 -0.0276
 1512SOL    HW114643   0.951   9.140   5.108  1.9939 -0.6044  1.0420
 1512SOL    HW214644   1.011   9.231   4.987  1.2367 -0.9859  0.3809
 1513SOL     OW14645   4.124   3.996   4.068  0.1272  0.7709  0.2134
 1513SOL    HW114646   4.112   4.081   4.017  2.4995  1.1644  0.2411
 1513SOL    HW214647   4.163   3.926   4.009 -1.4038 -0.1989  0.3088
 1514SOL     OW14648   1.700   5.014   0.854 -0.4066 -0.2063 -0.0915
 1514SOL    HW114649   1.718   5.110   0.876 -0.7818 -0.6354  2.1883
 1514SOL    HW214650   1.614   4.986   0.895 -0.4310 -1.4668 -0.9671
 1515SOL     OW14651   1.805   8.481   2.048 -0.5880  0.4838 -0.0033
 1515SOL    HW114652   1.720   8.462   2.097 -0.3656 -0.2209  0.1216
 1515SOL    HW214653   1.795   8.453   1.952 -0.7281  1.0558 -0.1607
 1516SOL     OW14654   9.061   3.616   1.819 -0.0218  0.2527 -0.2883
 1516SOL    HW114655   8.972   3.659   1.835  0.4725  0.6891  1.3229
 1516SOL    HW214656   9.059   3.522   1.853 -0.2160 -0.1186 -1.2972
 1517SOL     OW14657   2.118   5.132   4.594  0.4529 -0.4577  0.0131
 1517SOL    HW114658   2.170   5.129   4.509  1.4405  1.2359  0.5358
 1517SOL    HW214659   2.095   5.226   4.616 -0.3234 -0.9314  1.3214
 1518SOL     OW14660   7.452   9.895   2.246  0.2765  0.3764 -0.4594
 1518SOL    HW114661   7.374   9.939   2.201 -0.1375  0.3495  0.2277
 1518SOL    HW214662   7.519   9.867   2.177 -0.6133 -0.1794 -1.0979
 1519SOL     OW14663   0.589   1.174   1.684  0.4473  0.5971  0.6960
 1519SOL    HW114664   0.677   1.166   1.731  2.2952  0.8829 -2.5736
 1519SOL    HW214665   0.568   1.271   1.670 -0.6059  0.5425  1.7486
 1520SOL     OW14666   1.210   9.258   2.423  0.2572 -0.8030  0.0865
 1520SOL    HW114667   1.133   9.318   2.445  0.5981  0.5564 -2.2660
 1520SOL    HW214668   1.176   9.166   2.403 -0.5540 -0.7088  0.9840
 1521SOL     OW14669   0.147   6.219   0.288  0.2192 -0.2767  0.1887
 1521SOL    HW114670   0.086   6.173   0.224  1.7517 -2.4024  0.2075
 1521SOL    HW214671   0.235   6.237   0.244  0.8270 -0.5285  1.2577
 1522SOL     OW14672   2.877   8.540   0.646 -0.1462 -0.1080  0.2669
 1522SOL    HW114673   2.949   8.527   0.578 -0.3822  1.7523 -0.3719
 1522SOL    HW214674   2.913   8.589   0.725 -0.1978 -1.0568  0.8751
 1523SOL     OW14675   3.042   3.694   4.861  0.4111 -0.1180 -0.0133
 1523SOL    HW114676   3.109   3.722   4.792  0.9097  3.1099  1.6667
 1523SOL    HW214677   2.950   3.717   4.829  0.5955  0.8172  0.0996
 1527SOL     OW14678   9.547   3.811   3.964 -0.0258  0.4351 -0.2470
 1527SOL    HW114679   9.635   3.859   3.962 -0.2021  0.7720  0.3111
 1527SOL    HW214680   9.472   3.876   3.961 -0.2607  0.1603 -0.3781
 1529SOL     OW14681   8.128   0.331   4.239  0.0844 -0.0022  0.4617
 1529SOL    HW114682   8.123   0.239   4.200  1.8494 -1.0172  2.4952
 1529SOL    HW214683   8.224   0.358   4.247 -0.2870  0.8224  2.5593
 1530SOL     OW14684   7.748   4.291   1.335 -0.2351  0.1806 -0.7685
 1530SOL    HW114685   7.686   4.357   1.292  0.8926  1.2096 -0.8413
 1530SOL    HW214686   7.695   4.213   1.369 -1.4425  0.5359 -1.7729
 1531SOL     OW14687   0.601   8.518   1.375 -0.0574 -0.3622  0.3079
 1531SOL    HW114688   0.639   8.430   1.403  2.0302 -0.2920 -2.1408
 1531SOL    HW214689   0.672   8.588   1.379 -0.9007  0.5710 -0.6753
 1532SOL     OW14690   6.511   1.206   2.863 -0.5631  0.1112 -0.4899
 1532SOL    HW114691   6.533   1.303   2.865 -1.0869  0.2635 -1.6650
 1532SOL    HW214692   6.542   1.163   2.948  2.2919  0.7424 -1.1442
 1533SOL     OW14693   9.989   1.178   4.859 -0.7010  0.3058  0.1326
 1533SOL    HW114694   9.985   1.274   4.887 -1.9999  0.1079  0.6716
 1533SOL    HW214695   9.939   1.165   4.773 -0.0214  0.2231 -0.2481
 1535SOL     OW14696   4.606   5.848   2.089 -0.4838 -0.4535 -0.3582
 1535SOL    HW114697   4.509   5.866   2.070 -0.2642  0.5630 -0.5416
 1535SOL    HW214698   4.620   5.750   2.099 -1.5732 -0.5995 -0.1424
 1536SOL     OW14699   1.170   8.297   3.680  0.1690 -0.6132 -0.0895
 1536SOL    HW114700   1.201   8.385   3.645 -1.6736 -0.4324 -1.3605
 1536SOL    HW214701   1.194   8.224   3.616 -1.0023 -0.6142 -0.5420
 1537SOL     OW14702   9.179   3.284   0.429  0.1235 -0.9642 -0.0653
 1537SOL    HW114703   9.227   3.361   0.386  2.2548 -1.3745  1.5473
 1537SOL    HW214704   9.236   3.202   0.425 -1.2373 -1.9456  0.1872
 1539SOL     OW14705   3.715   7.882   0.595 -0.1251 -0.4728  0.4029
 1539SOL    HW114706   3.675   7.800   0.555 -0.0422 -1.6961  2.7569
 1539SOL    HW214707   3.705   7.880   0.694  1.3566  1.5684  0.6445
 1541SOL     OW14708   4.842   0.711   1.111  0.2430 -0.0162 -0.2815
 1541SOL    HW114709   4.795   0.634   1.069  1.8895 -2.5701  2.3746
 1541SOL    HW214710   4.925   0.733   1.059  1.1065 -1.7199  0.3448
 1542SOL     OW14711   2.159   2.354   0.042  0.1479 -0.4768  0.3010
 1542SOL    HW114712   2.140   2.416  -0.034  1.6120 -1.1927 -0.6594
 1542SOL    HW214713   2.151   2.404   0.129  2.0194  1.2678 -0.4898
 1543SOL     OW14714   9.017   1.271   1.149  0.0741 -0.3950  0.0892
 1543SOL    HW114715   8.997   1.351   1.206 -1.4687 -0.6320 -0.1174
 1543SOL    HW214716   9.014   1.296   1.053  2.3074 -0.0874  0.0579
 1544SOL     OW14717   4.097   9.834   0.055  0.0469 -0.7068 -0.6236
 1544SOL    HW114718   4.136   9.923   0.076  0.8169 -0.7150 -1.9804
 1544SOL    HW214719   4.093   9.779   0.139 -0.9224  0.7755  0.3236
 1545SOL     OW14720   5.851   8.117   4.321 -1.1054 -0.0810  0.2487
 1545SOL    HW114721   5.813   8.055   4.252  1.7905 -0.1899 -1.3082
 1545SOL    HW214722   5.858   8.068   4.409 -0.8761 -1.2654 -0.4202
 1547SOL     OW14723   2.191   6.661   0.389  0.1442 -0.4713 -0.6718
 1547SOL    HW114724   2.157   6.736   0.447  1.3581 -0.7161  0.3791
 1547SOL    HW214725   2.176   6.684   0.293 -1.5485  0.1119 -0.2830
 1548SOL     OW14726   5.314   8.061   4.422  0.0592 -0.8387 -0.0424
 1548SOL    HW114727   5.264   8.001   4.359  1.0170  0.9854 -2.6072
 1548SOL    HW214728   5.280   8.155   4.411  3.6563  0.3568 -1.4981
 1549SOL     OW14729   8.889   5.782   4.143 -0.0661  0.3322  0.3453
 1549SOL    HW114730   8.796   5.783   4.180 -0.2038 -2.3886  0.1981
 1549SOL    HW214731   8.950   5.741   4.211  0.4755 -0.5703 -0.6762
 1550SOL     OW14732   8.926   8.285   4.071 -0.4131 -0.6277  0.3045
 1550SOL    HW114733   8.839   8.334   4.069 -0.2238 -0.3372 -0.9967
 1550SOL    HW214734   8.909   8.187   4.060 -0.6432 -0.6747  1.0328
 1551SOL     OW14735   7.469   2.008   1.347  0.0512  0.3500 -0.8466
 1551SOL    HW114736   7.551   2.002   1.290  0.5008  0.4276 -0.2216
 1551SOL    HW214737   7.421   2.094   1.330  0.6051  0.7197 -0.5489
 1552SOL     OW14738   4.140   1.969   1.528 -0.2148  0.0290  0.0746
 1552SOL    HW114739   4.119   2.057   1.484 -2.9419  0.4191  2.0200
 1552SOL    HW214740   4.214   1.982   1.594 -0.7388  0.9572  0.4998
 1554SOL     OW14741   7.021   0.116   2.747 -0.0644 -0.2707  0.0314
 1554SOL    HW114742   7.082   0.131   2.825  3.1860  1.4562 -2.7361
 1554SOL    HW214743   6.974   0.201   2.724 -0.2411 -0.5233 -0.5438
 1555SOL     OW14744   6.836   1.076   3.150 -0.2515  0.6188  0.1855
 1555SOL    HW114745   6.739   1.096   3.145 -0.3533  0.3882  1.0414
 1555SOL    HW214746   6.849   0.981   3.181  0.2271  0.0237 -1.8030
 1557SOL     OW14747   0.445   0.746   4.046 -0.5941 -0.1123 -0.3568
 1557SOL    HW114748   0.541   0.761   4.071 -0.6285  0.7584 -0.7230
 1557SOL    HW214749   0.395   0.713   4.126  0.1470 -1.2194 -0.3336
 1558SOL     OW14750   2.517   8.675   4.428  0.7104 -0.2722  0.5659
 1558SOL    HW114751   2.500   8.590   4.478 -0.8769 -0.0188  0.4752
 1558SOL    HW214752   2.584   8.659   4.356  0.0120 -1.5863  0.1982
 1559SOL     OW14753   0.096   7.812   2.675  0.3579 -0.3680 -0.2029
 1559SOL    HW114754   0.037   7.734   2.693  0.9491 -0.5793  0.8969
 1559SOL    HW214755   0.188   7.792   2.708  1.2327 -0.3251 -2.5792
 1561SOL     OW14756   2.260   0.830   4.971 -0.1485  0.1325 -0.2290
 1561SOL    HW114757   2.212   0.848   5.057  1.4970 -0.2167  0.7826
 1561SOL    HW214758   2.352   0.795   4.991  0.4382  0.5451 -2.1275
 1562SOL     OW14759   2.834   4.075   3.107 -0.1263  0.0103  0.2729
 1562SOL    HW114760   2.844   4.155   3.166 -1.1510  0.8149 -0.6204
 1562SOL    HW214761   2.920   4.059   3.059 -0.4547  1.7641 -0.9888
 1563SOL     OW14762   2.708   7.525   0.800  0.1174 -0.2598  0.0380
 1563SOL    HW114763   2.633   7.582   0.833 -0.6453 -1.2600  0.0661
 1563SOL    HW214764   2.767   7.579   0.740 -0.2129  0.7320  0.5990
 1564SOL     OW14765   9.531   6.069   3.291  0.2288 -0.1480  0.0366
 1564SOL    HW114766   9.447   6.112   3.324 -0.0649 -1.1992  0.6879
 1564SOL    HW214767   9.540   5.978   3.331  2.4588  0.5452  1.1903
 1565SOL     OW14768   3.744   5.205   1.489  0.0150  0.1527  0.4972
 1565SOL    HW114769   3.778   5.119   1.527  0.1929  0.0371  0.0843
 1565SOL    HW214770   3.822   5.266   1.473 -0.0928  0.3225  0.6211
 1566SOL     OW14771   5.310   0.754   0.811 -0.6853 -0.0874  0.3380
 1566SOL    HW114772   5.382   0.821   0.831 -0.4690 -0.3534  0.4700
 1566SOL    HW214773   5.262   0.780   0.727 -0.8237  0.4102  0.5685
 1567SOL     OW14774   1.220   1.177   4.149 -0.2457 -0.3864 -0.3265
 1567SOL    HW114775   1.221   1.266   4.104 -0.4796 -0.8047 -1.1879
 1567SOL    HW214776   1.224   1.189   4.248  1.8710  0.5086 -0.4996
 1568SOL     OW14777   2.730   6.882   1.654 -0.2641 -0.1255  0.2433
 1568SOL    HW114778   2.679   6.836   1.727  2.6195 -2.1371  1.0526
 1568SOL    HW214779   2.706   6.841   1.566 -0.9979 -0.1637  0.4520
 1569SOL     OW14780   0.034   9.643   1.086  0.3032 -0.2750  0.4555
 1569SOL    HW114781   0.116   9.586   1.081  0.5919  0.2531 -1.1211
 1569SOL    HW214782   0.060   9.739   1.069 -0.7129 -0.1714 -0.5268
 1570SOL     OW14783   4.539   8.599   2.234 -0.2103  0.2429 -0.3479
 1570SOL    HW114784   4.440   8.611   2.231 -0.4460 -1.1716  0.9455
 1570SOL    HW214785   4.575   8.637   2.320  0.1247 -0.8260 -0.0114
 1571SOL     OW14786   1.620   0.842   1.197 -1.2930 -0.3196 -0.2370
 1571SOL    HW114787   1.536   0.836   1.143 -1.4134  0.3118 -0.1240
 1571SOL    HW214788   1.621   0.928   1.248  0.7274  1.0359 -2.4299
 1574SOL     OW14789   4.557   0.481   0.205  0.3584 -0.1174 -0.5913
 1574SOL    HW114790   4.621   0.413   0.241  0.7741 -0.3081 -1.6957
 1574SOL    HW214791   4.480   0.434   0.162  0.1967  0.1139 -0.5513
 1575SOL     OW14792   2.911   3.171   3.320 -0.2652  0.6797 -0.4201
 1575SOL    HW114793   2.975   3.246   3.336  0.1809  0.4457 -1.0838
 1575SOL    HW214794   2.825   3.190   3.367  0.5789  0.5894  1.1913
 1576SOL     OW14795   2.196   1.813   4.743  0.0467  1.1345 -0.2553
 1576SOL    HW114796   2.100   1.788   4.731  0.2611  0.8258 -1.4019
 1576SOL    HW214797   2.225   1.790   4.836 -0.1280 -1.6970 -0.8449
 1577SOL     OW14798   2.159   3.814   2.366 -0.1950  0.2367  0.2761
 1577SOL    HW114799   2.259   3.822   2.358 -0.0382 -1.5161  0.1769
 1577SOL    HW214800   2.133   3.718   2.352 -2.2191  1.2020 -3.1784
 1578SOL     OW14801   3.777   0.159   0.874 -0.0410 -0.0219 -0.0299
 1578SOL    HW114802   3.709   0.086   0.886  1.3859 -1.6684 -1.7028
 1578SOL    HW214803   3.747   0.222   0.804  0.0900 -0.6987 -0.7020
 1579SOL     OW14804   4.002   0.628   1.506 -0.2200 -0.5079  0.2200
 1579SOL    HW114805   4.042   0.540   1.480  1.4669  0.2683  0.1235
 1579SOL    HW214806   4.064   0.702   1.480 -1.6802  0.7286  0.1977
 1581SOL     OW14807   0.429   9.062   4.103  0.4556  0.1041 -0.2075
 1581SOL    HW114808   0.340   9.071   4.057  0.1703  0.5895  0.4284
 1581SOL    HW214809   0.424   8.988   4.169  0.4785  0.2231 -0.0722
 1582SOL     OW14810   0.245   8.945   1.988  0.0842 -0.3080  0.2918
 1582SOL    HW114811   0.246   8.907   2.081 -0.6787  1.2409  0.9447
 1582SOL    HW214812   0.333   8.989   1.969 -0.7908  1.9828  1.3978
 1584SOL     OW14813   1.417   3.717   0.873 -0.3618 -0.0014 -0.4534
 1584SOL    HW114814   1.335   3.725   0.817  0.6421 -0.7400 -2.0514
 1584SOL    HW214815   1.413   3.631   0.925 -0.7692  0.1530 -0.2225
 1585SOL     OW14816   3.665   3.084   1.189 -0.1142  0.0223  0.7850
 1585SOL    HW114817   3.638   2.989   1.171 -1.4563  0.4983  0.3146
 1585SOL    HW214818   3.761   3.096   1.164 -0.4341 -0.7432 -0.8591
 1586SOL     OW14819   2.717   8.376   3.842 -0.5368 -0.8135  0.3450
 1586SOL    HW114820   2.778   8.376   3.922 -0.7817  1.0584  0.5416
 1586SOL    HW214821   2.744   8.302   3.781  0.2522 -1.6873  1.7079
 1588SOL     OW14822   2.885   9.663   4.994  0.1147  0.3857  0.2889
 1588SOL    HW114823   2.867   9.679   4.897  0.3260  1.6809  0.4570
 1588SOL    HW214824   2.842   9.736   5.048  0.1805 -0.2144  1.1495
 1589SOL     OW14825   0.024   8.502   3.442  0.5627 -0.2355 -0.4161
 1589SOL    HW114826   0.004   8.446   3.362  0.0132 -0.5507 -0.0592
 1589SOL    HW214827   0.110   8.551   3.427  0.8739 -0.9077 -0.8685
 1590SOL     OW14828   4.568   2.674   2.964  0.0271 -0.6065  0.1159
 1590SOL    HW114829   4.564   2.666   2.864  0.1516 -0.1713  0.0736
 1590SOL    HW214830   4.543   2.767   2.991 -3.3528 -1.6155  0.7285
 1591SOL     OW14831   3.887   2.722   3.274  0.4434  0.0933 -0.3184
 1591SOL    HW114832   3.900   2.674   3.361 -2.2531  0.2219  0.1979
 1591SOL    HW214833   3.976   2.749   3.237  1.7041 -1.1706  1.7116
 1592SOL     OW14834   6.937   7.979   4.684  0.0304  0.3632 -0.1681
 1592SOL    HW114835   6.903   7.894   4.725  2.4657 -0.8515 -0.5711
 1592SOL    HW214836   6.896   8.057   4.731  0.0467 -1.0191  2.2082
 1593SOL     OW14837   7.778   1.253   5.272  0.0760 -0.2534  0.5036
 1593SOL    HW114838   7.836   1.221   5.347 -1.1710 -3.9907 -0.0153
 1593SOL    HW214839   7.834   1.273   5.192  1.2069  1.8805  1.7830
 1594SOL     OW14840   0.112   9.201   1.027 -0.2348  0.5216  0.4299
 1594SOL    HW114841   0.139   9.131   1.093 -0.5188  0.0289  0.0174
 1594SOL    HW214842   0.132   9.171   0.934 -1.3175  0.5401  0.1788
 1596SOL     OW14843   4.862   6.166   1.987  0.1258  0.5048  0.5413
 1596SOL    HW114844   4.846   6.098   1.916  1.3255  1.4524 -0.6673
 1596SOL    HW214845   4.902   6.122   2.067  0.2096 -0.3313  0.0464
 1598SOL     OW14846   6.261   9.749   4.298 -0.6156 -0.0810 -0.3344
 1598SOL    HW114847   6.202   9.734   4.377 -0.2960 -0.2732 -0.1306
 1598SOL    HW214848   6.341   9.802   4.326 -1.4011  1.4447 -0.9033
 1599SOL     OW14849   1.987   0.087   1.961  0.1431 -0.5495  0.2391
 1599SOL    HW114850   2.029   0.177   1.960 -0.2947 -0.3332  0.8191
 1599SOL    HW214851   1.887   0.096   1.953 -0.1201 -0.8191  2.8514
 1600SOL     OW14852   1.439   8.706   5.281 -0.3535 -0.1111  0.3529
 1600SOL    HW114853   1.526   8.658   5.291  0.3010  1.0598  0.5070
 1600SOL    HW214854   1.430   8.739   5.187 -0.6994 -0.3597  0.2994
 1602SOL     OW14855   8.761   3.565   2.740 -0.0169 -0.1760  0.1118
 1602SOL    HW114856   8.693   3.592   2.809  1.2505 -2.1396  2.2161
 1602SOL    HW214857   8.726   3.488   2.688 -0.7087  0.8981 -1.0425
 1603SOL     OW14858   3.995   0.371   3.872  0.5422 -0.3522  0.3152
 1603SOL    HW114859   3.919   0.336   3.817  0.6147 -0.8308  0.5187
 1603SOL    HW214860   3.991   0.332   3.964  0.6553  0.1330  0.5292
 1604SOL     OW14861   8.113   9.307   0.465  0.0868  0.0710  0.1968
 1604SOL    HW114862   8.086   9.369   0.391 -0.8217  0.8556  1.1695
 1604SOL    HW214863   8.073   9.339   0.551  0.9616 -0.9524  0.9910
 1605SOL     OW14864   4.452   1.291   0.992 -0.2356  0.0813  0.4447
 1605SOL    HW114865   4.408   1.201   0.995  0.0357 -0.0478  0.5692
 1605SOL    HW214866   4.470   1.316   0.897 -0.9952  0.3365  0.3705
 1606SOL     OW14867   4.221   3.065   4.378 -0.4976 -0.2983  0.1166
 1606SOL    HW114868   4.239   3.115   4.463  1.8498  0.0400 -0.5305
 1606SOL    HW214869   4.272   3.107   4.303  0.0021 -2.4991 -0.8267
 1607SOL     OW14870   7.080   8.472   2.259  0.4279  0.3589  0.2012
 1607SOL    HW114871   7.049   8.550   2.204 -0.7468  1.6284  2.6065
 1607SOL    HW214872   7.180   8.471   2.260  0.4636  0.5924 -1.5587
 1609SOL     OW14873   0.702   6.581   3.239  0.0270 -0.3864 -0.2957
 1609SOL    HW114874   0.778   6.539   3.288  0.4935 -0.7211 -1.3005
 1609SOL    HW214875   0.714   6.680   3.237  0.7574 -0.4809 -0.9666
 1610SOL     OW14876   8.452   6.600   3.013 -0.4423  0.1810 -0.2689
 1610SOL    HW114877   8.460   6.511   3.057  1.1320  0.6851  0.4794
 1610SOL    HW214878   8.496   6.596   2.923  2.2291  0.9955  0.9642
 1611SOL     OW14879   5.125   8.583   2.746  0.1069  0.3826 -0.0252
 1611SOL    HW114880   5.217   8.543   2.744  0.2060  0.6525 -1.0269
 1611SOL    HW214881   5.057   8.512   2.730 -0.0437 -0.2969  3.1955
 1612SOL     OW14882   9.945   4.772   0.868  0.1088 -0.0765 -0.2123
 1612SOL    HW114883  10.015   4.723   0.920  0.5951 -1.1049 -1.7908
 1612SOL    HW214884   9.981   4.861   0.840 -0.6545  1.0993  2.3701
 1613SOL     OW14885   7.465   3.035   4.044 -0.3758 -0.1263  0.2550
 1613SOL    HW114886   7.454   2.938   4.022  1.4857 -0.4924  0.8210
 1613SOL    HW214887   7.421   3.090   3.973  0.8537 -1.3417 -1.5016
 1614SOL     OW14888   8.649   8.547   4.819 -0.0631 -0.1912  0.0662
 1614SOL    HW114889   8.601   8.617   4.766 -0.6363  0.0593  0.9143
 1614SOL    HW214890   8.629   8.559   4.916  1.5842 -0.1939  0.4086
 1615SOL     OW14891   9.023   8.702   3.991  0.4069  0.2417  0.4005
 1615SOL    HW114892   9.103   8.761   4.007  0.2144  0.4426  0.6248
 1615SOL    HW214893   8.994   8.661   4.077  1.1910 -1.0225  0.0642
 1616SOL     OW14894   5.621   2.117   4.413 -0.0537 -0.7825  0.6601
 1616SOL    HW114895   5.640   2.157   4.502  0.7427  1.2542 -0.3870
 1616SOL    HW214896   5.679   2.036   4.400  2.4785  0.9952  0.5748
 1618SOL     OW14897   8.591   3.012   1.919  0.7219 -0.4474  0.1775
 1618SOL    HW114898   8.590   2.917   1.951 -1.1737 -0.8711 -1.0508
 1618SOL    HW214899   8.679   3.054   1.943  1.4809 -2.4121  0.9957
 1619SOL     OW14900   9.007   4.097   2.988 -0.0389  0.2074  0.2935
 1619SOL    HW114901   9.070   4.124   2.915 -0.0392  2.1150  0.9672
 1619SOL    HW214902   8.916   4.083   2.950 -0.4463  2.9565  0.1757
 1620SOL     OW14903   2.765   0.884   5.285  0.2411  0.3712 -0.0193
 1620SOL    HW114904   2.724   0.954   5.227 -1.8769 -0.7776  0.0546
 1620SOL    HW214905   2.698   0.812   5.304  1.9439 -0.9838  1.0543
 1621SOL     OW14906   1.507   6.275   1.347 -0.0867 -0.0539  0.1221
 1621SOL    HW114907   1.421   6.316   1.380  0.3146 -0.1171  1.2621
 1621SOL    HW214908   1.545   6.216   1.419  0.3079 -0.9490 -0.8211
 1622SOL     OW14909   0.256   6.388   2.663  0.1386  0.0458  0.4988
 1622SOL    HW114910   0.258   6.290   2.643  0.3190  0.8119 -3.7042
 1622SOL    HW214911   0.347   6.427   2.649 -0.3256  1.1065  0.3723
 1623SOL     OW14912   9.659   4.066   4.379 -0.1121 -0.1049 -0.3906
 1623SOL    HW114913   9.577   4.009   4.393  1.3315 -1.7335  1.7015
 1623SOL    HW214914   9.735   4.009   4.351  1.0913  0.9341  0.6804
 1625SOL     OW14915   6.555   8.514   5.316  0.0171 -0.2596 -0.0145
 1625SOL    HW114916   6.461   8.510   5.349 -0.1116 -0.4151 -0.3971
 1625SOL    HW214917   6.589   8.608   5.321 -0.8910  0.1989 -1.9265
 1626SOL     OW14918   0.840   6.811   0.490  0.3190  0.4869 -0.1064
 1626SOL    HW114919   0.898   6.734   0.462 -0.7139  0.1208 -1.2955
 1626SOL    HW214920   0.892   6.871   0.551  1.7568 -0.1322 -0.6832
 1627SOL     OW14921   8.115   2.109   4.359 -0.1420 -0.1787  0.0362
 1627SOL    HW114922   8.127   2.206   4.334  1.3213 -0.5789 -0.9355
 1627SOL    HW214923   8.018   2.086   4.358 -0.7554  1.9768  3.0715
 1628SOL     OW14924   4.451   3.637   5.260  0.8002  0.6019 -0.0978
 1628SOL    HW114925   4.386   3.632   5.185  1.1596 -1.4978 -0.2983
 1628SOL    HW214926   4.404   3.622   5.347  0.9794 -0.8911 -0.2404
 1629SOL     OW14927   3.353   1.462   2.786  0.1298  0.2294  0.5946
 1629SOL    HW114928   3.288   1.429   2.854 -1.6936  1.2200 -0.6208
 1629SOL    HW214929   3.360   1.562   2.793  1.5659  0.1301  0.7391
 1630SOL     OW14930   2.875   7.667   0.571 -0.2362  0.1877 -0.0376
 1630SOL    HW114931   2.912   7.757   0.597  0.0676  0.6318 -1.9543
 1630SOL    HW214932   2.798   7.679   0.510 -0.4898 -0.8593  0.0657
 1631SOL     OW14933   7.450   9.724   2.796  0.9567 -0.7742 -0.4930
 1631SOL    HW114934   7.369   9.683   2.838  1.5352 -2.5224 -1.0196
 1631SOL    HW214935   7.432   9.743   2.700 -0.2308  2.8450  0.3968
 1632SOL     OW14936   8.327   2.386   0.094  0.3953 -0.0330 -0.0756
 1632SOL    HW114937   8.384   2.409   0.015  0.5659 -0.8335 -0.1911
 1632SOL    HW214938   8.286   2.469   0.131 -0.7006  0.2193 -1.7861
 1634SOL     OW14939   0.143   0.687   3.713  0.0645 -0.9546 -0.1596
 1634SOL    HW114940   0.145   0.784   3.736  0.7222 -1.1276  0.5035
 1634SOL    HW214941   0.089   0.674   3.630 -0.9573 -0.1509  0.3663
 1635SOL     OW14942   7.908   4.700   1.355  0.1908  0.4841  0.1179
 1635SOL    HW114943   7.891   4.798   1.357  1.9125  0.8139 -0.3706
 1635SOL    HW214944   7.822   4.651   1.362 -0.8515  2.0451 -1.4231
 1636SOL     OW14945   1.947   1.666   1.954 -0.2292  0.0016  0.0790
 1636SOL    HW114946   1.892   1.672   2.037 -0.9519 -1.7359 -0.2665
 1636SOL    HW214947   1.891   1.634   1.878  0.8287 -0.0515 -0.6952
 1637SOL     OW14948   0.098   6.160   2.053  0.2792 -0.2689 -0.2826
 1637SOL    HW114949   0.072   6.104   2.132  0.6560 -0.9295 -0.6160
 1637SOL    HW214950   0.122   6.099   1.976  1.7210  0.3396 -0.3286
 1638SOL     OW14951   9.948   0.946   3.309 -0.0047  0.0955  0.1172
 1638SOL    HW114952   9.869   1.006   3.321 -0.7401 -1.1346  1.5402
 1638SOL    HW214953   9.940   0.897   3.223 -0.3083  0.6943 -0.1975
 1639SOL     OW14954   7.428   1.749   0.701 -0.2553 -0.2752 -0.2888
 1639SOL    HW114955   7.383   1.810   0.635  1.1291 -0.1004 -1.1002
 1639SOL    HW214956   7.521   1.781   0.717 -1.0479  0.6207  3.0046
 1641SOL     OW14957   6.309   4.625   0.476 -0.6498  0.2979 -0.0008
 1641SOL    HW114958   6.349   4.533   0.472 -0.8531  0.2063  0.0879
 1641SOL    HW214959   6.277   4.644   0.569 -0.2654  0.6055  0.0670
 1642SOL     OW14960   7.946   9.680   3.423  0.1356 -0.1520  0.5188
 1642SOL    HW114961   7.858   9.666   3.468  0.0347  0.0778  0.3981
 1642SOL    HW214962   7.939   9.652   3.327  0.5254 -1.2130  0.7974
 1643SOL     OW14963   2.595   1.444   5.207  0.7966 -0.5703 -0.5658
 1643SOL    HW114964   2.692   1.459   5.191  0.9521  2.4576  2.8017
 1643SOL    HW214965   2.579   1.422   5.303 -2.0116  0.5164 -0.7199
 1644SOL     OW14966   1.629   0.561   1.810 -0.5835  0.2283 -0.1117
 1644SOL    HW114967   1.582   0.612   1.738 -1.6596  1.0625  1.1471
 1644SOL    HW214968   1.569   0.553   1.890  1.3511  1.1228  1.4745
 1645SOL     OW14969   1.335   2.993   0.872 -0.1691  0.1199  0.5467
 1645SOL    HW114970   1.412   2.982   0.935  0.1894  0.9516  0.2545
 1645SOL    HW214971   1.363   3.051   0.795 -0.5877 -0.9120 -0.3978
 1646SOL     OW14972   6.089   8.564   4.542 -0.3324  0.0784  0.3617
 1646SOL    HW114973   6.066   8.467   4.533 -3.6919  0.7573  0.9383
 1646SOL    HW214974   6.050   8.600   4.626  0.1074  2.1500 -0.2857
 1649SOL     OW14975   3.675   6.763   2.613 -0.5109 -0.2303  0.3996
 1649SOL    HW114976   3.724   6.678   2.597  1.1274  0.7514  0.1274
 1649SOL    HW214977   3.736   6.830   2.655 -1.7333  0.8708  0.4595
 1650SOL     OW14978   8.723   6.115   0.586  0.6581 -0.3144  0.4539
 1650SOL    HW114979   8.640   6.126   0.642  1.0215 -0.2796  0.9872
 1650SOL    HW214980   8.768   6.030   0.610  0.5569 -0.5324 -0.1304
 1651SOL     OW14981   0.657   3.846   1.112  0.2937 -0.1948 -0.0664
 1651SOL    HW114982   0.724   3.911   1.145  0.5541 -0.4553 -0.0829
 1651SOL    HW214983   0.587   3.894   1.059  0.2091  0.1375  0.3454
 1653SOL     OW14984   9.404   9.156   3.608 -0.1568 -0.5660  0.1716
 1653SOL    HW114985   9.398   9.113   3.518 -3.3099  0.2052 -0.0521
 1653SOL    HW214986   9.396   9.087   3.680  1.3548 -1.0626 -0.1266
 1654SOL     OW14987   3.162   1.382   2.085  0.1556 -0.0854 -0.3415
 1654SOL    HW114988   3.144   1.289   2.116 -1.7789 -0.0489 -1.2681
 1654SOL    HW214989   3.251   1.385   2.039  0.1701 -1.5154 -0.4389
 1655SOL     OW14990   1.951   1.425   4.826  0.0695  0.0344 -0.1807
 1655SOL    HW114991   2.049   1.445   4.833  0.1222 -0.4717  0.5401
 1655SOL    HW214992   1.934   1.369   4.745  0.2414  0.9403 -0.8523
 1656SOL     OW14993   7.212   8.898   4.921  0.0061  0.0252  0.0284
 1656SOL    HW114994   7.247   8.990   4.939 -0.2251 -0.0815  1.0595
 1656SOL    HW214995   7.284   8.830   4.936  0.3742  0.0762 -1.3985
 1657SOL     OW14996   0.472   6.014   2.914  0.2134 -0.8280 -0.3771
 1657SOL    HW114997   0.548   6.074   2.891  0.9139 -1.2677  0.7278
 1657SOL    HW214998   0.507   5.930   2.956 -0.8211 -1.4620 -0.7513
 1658SOL     OW14999   3.779   5.765   2.054  0.3088 -0.3241  0.6596
 1658SOL    HW115000   3.825   5.677   2.060 -1.1510 -1.1395  0.2166
 1658SOL    HW215001   3.689   5.753   2.012  1.0070  1.7211 -1.5758
 1659SOL     OW15002   3.880   3.239   2.387 -0.0592 -0.0361  0.3291
 1659SOL    HW115003   3.870   3.242   2.486  1.3077  1.3724  0.4557
 1659SOL    HW215004   3.924   3.154   2.360 -1.0461 -0.7254  0.8555
 1660SOL     OW15005   8.642   3.416   4.300 -0.3008 -0.3117  0.4351
 1660SOL    HW115006   8.685   3.349   4.240  0.9208 -0.1425  1.1009
 1660SOL    HW215007   8.638   3.380   4.393 -2.2030 -0.5832  0.2735
 1661SOL     OW15008   1.641   6.003   1.877  0.3082  0.6475  0.5302
 1661SOL    HW115009   1.572   6.076   1.882 -0.8823 -0.3194 -1.1882
 1661SOL    HW215010   1.732   6.043   1.884 -0.3211  2.3521 -0.5346
 1662SOL     OW15011   1.953   8.639   5.213  0.4839 -0.3843  0.0897
 1662SOL    HW115012   2.001   8.649   5.126 -1.0555  1.0755 -0.6046
 1662SOL    HW215013   1.935   8.729   5.252 -0.4405 -0.9626  1.0285
 1664SOL     OW15014   9.224   5.709   4.532 -0.1697 -0.6136 -0.1130
 1664SOL    HW115015   9.196   5.762   4.451 -0.9143 -0.6830  0.0882
 1664SOL    HW215016   9.192   5.615   4.523 -0.9712 -0.4178  0.6257
 1665SOL     OW15017   7.601   7.016   4.349 -0.0862  0.2962  0.5996
 1665SOL    HW115018   7.575   6.936   4.295  0.2724  0.0096  0.8591
 1665SOL    HW215019   7.645   6.988   4.434 -0.2837  0.7610  0.8589
 1668SOL     OW15020   9.944   4.139   3.111 -0.3547  0.1015  0.3127
 1668SOL    HW115021   9.877   4.094   3.170 -0.1511  1.3660  1.5322
 1668SOL    HW215022  10.011   4.187   3.167  0.6245  0.2291 -0.9340
 1669SOL     OW15023   3.153   9.372   1.035  0.4618 -0.2780  0.0334
 1669SOL    HW115024   3.181   9.462   1.004  2.4066 -0.6465  0.6465
 1669SOL    HW215025   3.058   9.375   1.067  0.4506  1.4826 -0.1470
 1670SOL     OW15026   5.113   5.064   3.225  0.2062 -0.5941  0.1348
 1670SOL    HW115027   5.143   4.978   3.183 -1.4205 -1.8865  1.5335
 1670SOL    HW215028   5.122   5.058   3.324  1.4786  1.4406  0.1719
 1672SOL     OW15029   1.883   2.060   2.850 -0.1367 -0.1202 -0.2513
 1672SOL    HW115030   1.981   2.077   2.853 -0.0862  0.2266 -2.6739
 1672SOL    HW215031   1.853   2.022   2.937  2.2214 -0.6317  0.3764
 1674SOL     OW15032   0.072   3.943   5.298 -0.3664 -0.6158  0.7074
 1674SOL    HW115033   0.079   3.854   5.343  0.3015 -0.8717  0.1138
 1674SOL    HW215034   0.007   3.938   5.223 -0.2063 -0.6502  0.5703
 1675SOL     OW15035   1.202   7.880   2.199  0.2314  0.1496 -0.2429
 1675SOL    HW115036   1.270   7.832   2.254 -0.2266  0.2412  0.4181
 1675SOL    HW215037   1.110   7.850   2.226 -0.0129  0.5493 -0.6243
 1676SOL     OW15038   7.622   1.505   1.480 -0.0282  0.2810  0.2847
 1676SOL    HW115039   7.547   1.456   1.523 -0.2425  0.4397  0.0912
 1676SOL    HW215040   7.701   1.507   1.542 -0.2628  0.3233  0.5816
 1677SOL     OW15041   9.212   6.770   4.296  0.3285 -0.3968  0.4190
 1677SOL    HW115042   9.264   6.813   4.221 -0.1950  0.1405  0.3591
 1677SOL    HW215043   9.219   6.827   4.377 -1.2744  0.3735  0.0292
 1678SOL     OW15044   8.850   9.147   2.655  0.0570 -0.2343 -0.4360
 1678SOL    HW115045   8.792   9.068   2.674 -0.1387 -0.1807 -0.8206
 1678SOL    HW215046   8.905   9.130   2.574 -0.2425  0.1636 -0.7264
 1680SOL     OW15047   7.507   5.196   0.102 -0.2600 -0.0961  0.6244
 1680SOL    HW115048   7.538   5.160   0.014 -0.0419  0.3677  0.5099
 1680SOL    HW215049   7.450   5.277   0.087  0.8241  0.7406  0.9686
 1681SOL     OW15050   8.251   4.895   3.980 -0.5217 -0.1237 -0.1605
 1681SOL    HW115051   8.276   4.802   3.955 -1.3318 -0.9636  2.0437
 1681SOL    HW215052   8.307   4.960   3.928 -0.0085 -1.8108 -1.7719
 1682SOL     OW15053   1.360   9.727   1.233 -0.1126  0.4685 -0.4221
 1682SOL    HW115054   1.367   9.646   1.292 -0.4381 -0.5820 -1.8042
 1682SOL    HW215055   1.451   9.754   1.202 -0.1499 -0.3273 -1.2314
 1683SOL     OW15056   1.457   7.521   3.039 -0.5330  0.4433 -0.0119
 1683SOL    HW115057   1.410   7.580   2.973 -0.9717  0.1130 -0.0001
 1683SOL    HW215058   1.389   7.471   3.093 -0.2027  1.5818  1.4958
 1684SOL     OW15059   0.426   5.972   4.905 -0.3426  0.4179  0.5589
 1684SOL    HW115060   0.466   6.062   4.923  0.7461 -0.1024  0.7631
 1684SOL    HW215061   0.389   5.934   4.990 -0.9674  0.7495  0.4370
 1685SOL     OW15062   8.861   1.076   1.300 -0.2444  0.2764  0.3144
 1685SOL    HW115063   8.931   1.109   1.237 -0.9502  1.1444 -0.0257
 1685SOL    HW215064   8.776   1.059   1.249 -0.3618 -0.5045  0.7680
 1686SOL     OW15065   9.995   1.444   4.958  0.2298  0.5135  0.3985
 1686SOL    HW115066  10.086   1.481   4.943  0.0621  0.8559  0.2180
 1686SOL    HW215067   9.938   1.512   5.005 -1.1515  1.9048 -3.0989
 1687SOL     OW15068   4.161   7.866   3.647  0.2761  0.0908  0.6879
 1687SOL    HW115069   4.176   7.811   3.729  0.7447 -1.6262 -0.5390
 1687SOL    HW215070   4.237   7.855   3.584 -0.7088  0.3564 -0.5674
 1688SOL     OW15071   1.362   2.704   0.196  0.6381 -0.0187 -0.1251
 1688SOL    HW115072   1.262   2.711   0.191  0.6465  1.4914  1.2303
 1688SOL    HW215073   1.387   2.631   0.260  0.4041 -0.6253 -0.7232
 1689SOL     OW15074   7.648   9.600   1.398 -0.0172 -0.2963  0.4410
 1689SOL    HW115075   7.617   9.685   1.440  0.3462 -0.5223  1.1711
 1689SOL    HW215076   7.717   9.557   1.456  0.9368 -0.3009 -0.6782
 1690SOL     OW15077   0.945   1.136   3.763  0.4498  0.2126  0.4519
 1690SOL    HW115078   0.973   1.081   3.842 -1.4966 -1.3994  0.0382
 1690SOL    HW215079   0.882   1.084   3.706 -2.5783  3.3168  0.7893
 1691SOL     OW15080   3.638   2.766   4.836  0.6447  0.4400  0.3306
 1691SOL    HW115081   3.727   2.740   4.798 -0.5162 -2.1871 -0.7364
 1691SOL    HW215082   3.593   2.831   4.774  0.5653 -0.5339 -0.6360
 1692SOL     OW15083   4.631   6.762   1.728  0.0155  0.0986 -0.1012
 1692SOL    HW115084   4.697   6.830   1.760  0.5792  0.4901 -2.0389
 1692SOL    HW215085   4.662   6.670   1.752  0.6663  0.3628  0.0630
 1693SOL     OW15086   3.485   6.349   0.164  0.3339 -0.0526 -0.0988
 1693SOL    HW115087   3.554   6.307   0.224 -1.3476 -0.4058  1.6334
 1693SOL    HW215088   3.484   6.448   0.179  1.7711  0.1949 -1.5255
 1694SOL     OW15089   7.770   2.354   3.516 -0.1843 -0.4426  0.2195
 1694SOL    HW115090   7.836   2.413   3.469 -0.7381 -0.0707 -0.1022
 1694SOL    HW215091   7.683   2.356   3.466 -0.2450 -1.4248  0.2905
 1695SOL     OW15092   0.289   4.867   3.312  0.3002  0.0894 -0.4058
 1695SOL    HW115093   0.305   4.800   3.384 -0.5221  1.2164  0.8468
 1695SOL    HW215094   0.365   4.933   3.311  0.0776  0.3477 -0.2544
 1696SOL     OW15095   9.128   6.363   1.985  0.1189 -0.2733 -0.1798
 1696SOL    HW115096   9.030   6.369   1.966  0.9685  1.1631 -4.7842
 1696SOL    HW215097   9.153   6.432   2.052 -1.8885 -0.2722  0.6247
 1698SOL     OW15098   4.401   3.123   3.469 -0.2287  0.5005 -0.2971
 1698SOL    HW115099   4.479   3.061   3.470  0.5566  1.4531  1.8434
 1698SOL    HW215100   4.318   3.074   3.495  0.0495 -0.0321 -0.4137
 1699SOL     OW15101   3.536   3.705   2.163 -0.5744 -0.8550  0.2737
 1699SOL    HW115102   3.621   3.676   2.207 -0.9999 -1.6065  0.6011
 1699SOL    HW215103   3.458   3.676   2.217 -1.0566 -0.3402 -0.1319
 1700SOL     OW15104   9.261   6.879   4.778  0.0600  0.0866 -0.7049
 1700SOL    HW115105   9.329   6.866   4.706 -0.1163 -2.7934 -0.4039
 1700SOL    HW215106   9.182   6.821   4.760 -0.0361 -0.5862  1.7272
 1701SOL     OW15107   2.818   8.194   2.329 -0.1557 -0.3594  0.6019
 1701SOL    HW115108   2.807   8.095   2.329  0.5135 -0.4387 -0.2191
 1701SOL    HW215109   2.811   8.229   2.422  0.5347 -1.2765  0.9982
 1703SOL     OW15110   0.208   0.054   2.743  0.3330 -0.3357 -0.3170
 1703SOL    HW115111   0.211   0.123   2.669 -1.2863  0.4800  0.3499
 1703SOL    HW215112   0.160  -0.027   2.711 -0.4928  0.0737 -0.1222
 1704SOL     OW15113   2.828   8.003   1.937  0.2450  0.4089 -0.3216
 1704SOL    HW115114   2.847   7.986   2.034  3.0773 -1.0446 -1.0608
 1704SOL    HW215115   2.874   8.088   1.908 -1.2101  1.2346 -0.2233
 1705SOL     OW15116   8.853   3.641   0.198  0.0439  0.1820  0.3082
 1705SOL    HW115117   8.820   3.570   0.135  0.3362 -0.2753  0.6626
 1705SOL    HW215118   8.919   3.699   0.152  0.3897 -0.2607  0.2457
 1706SOL     OW15119   0.782   3.622   1.954 -0.0199 -1.0632 -0.1733
 1706SOL    HW115120   0.873   3.665   1.961  0.4447 -1.9790 -0.5176
 1706SOL    HW215121   0.780   3.539   2.010 -1.5101  0.3636  1.9514
 1707SOL     OW15122   9.519   8.073   3.067  0.0836 -0.2747 -0.3321
 1707SOL    HW115123   9.556   8.164   3.049 -0.2065 -0.2603 -0.8417
 1707SOL    HW215124   9.543   8.046   3.161  0.4483  0.1890 -0.2896
 1708SOL     OW15125   8.225   2.577   3.369 -0.4775 -0.0228 -0.8367
 1708SOL    HW115126   8.260   2.622   3.286 -2.0649  1.8803 -0.4837
 1708SOL    HW215127   8.227   2.640   3.445 -0.0039 -1.4664  0.3780
 1709SOL     OW15128   7.658   0.790   0.923  0.1896  0.0850 -0.2503
 1709SOL    HW115129   7.706   0.703   0.935  0.4817  0.1693 -0.7964
 1709SOL    HW215130   7.606   0.788   0.837  0.5339  0.6018 -0.4753
 1710SOL     OW15131   3.874   1.779   1.048  0.1015  0.5684 -0.2307
 1710SOL    HW115132   3.872   1.736   0.958 -0.5953  1.2172 -0.5255
 1710SOL    HW215133   3.805   1.737   1.107  1.0421 -0.3518  0.2372
 1711SOL     OW15134   0.288   7.345   0.814  0.5483 -0.0191 -0.0391
 1711SOL    HW115135   0.199   7.349   0.858  0.9754  1.1781  0.7424
 1711SOL    HW215136   0.356   7.313   0.879  1.4668  3.2234  0.7026
 1712SOL     OW15137   6.188   8.852   4.955  0.2059 -0.3392  0.0764
 1712SOL    HW115138   6.252   8.812   4.890  2.2270  0.2777  1.6412
 1712SOL    HW215139   6.194   8.952   4.951 -0.5409 -0.2760  0.3607
 1713SOL     OW15140   9.246   1.160   5.227 -0.2722  0.4651 -0.1572
 1713SOL    HW115141   9.342   1.179   5.207 -0.3868  0.6660 -0.5360
 1713SOL    HW215142   9.190   1.237   5.194 -0.5984  0.1597 -0.3150
 1714SOL     OW15143   3.120   3.517   0.498 -0.1047  0.2679 -0.4481
 1714SOL    HW115144   3.062   3.533   0.578  0.9055  0.8067  0.1799
 1714SOL    HW215145   3.193   3.454   0.522 -0.0919  0.0373 -1.0897
 1715SOL     OW15146   5.835   9.546   4.883  0.0933  0.5834  0.3670
 1715SOL    HW115147   5.777   9.530   4.804 -1.0856  0.9334  1.1401
 1715SOL    HW215148   5.883   9.634   4.872 -0.8771  1.1394  0.5060
 1717SOL     OW15149   4.272   8.758   2.729 -0.5900  0.4267 -0.5240
 1717SOL    HW115150   4.179   8.731   2.753  0.4585 -3.0872 -0.1202
 1717SOL    HW215151   4.290   8.736   2.633 -0.9886  3.5937 -1.3809
 1718SOL     OW15152   4.238   3.542   5.046 -0.4162  0.6040  0.1154
 1718SOL    HW115153   4.315   3.479   5.036 -0.9763  0.1127 -1.2513
 1718SOL    HW215154   4.157   3.490   5.077 -0.0695  1.2174  2.1511
 1720SOL     OW15155   4.025   2.735   0.597  0.0365  0.0148  0.3240
 1720SOL    HW115156   4.021   2.649   0.546  1.6472  0.5522 -0.7802
 1720SOL    HW215157   4.027   2.716   0.695 -2.1015 -1.0892  0.1665
 1722SOL     OW15158   3.489   5.504   1.379 -0.0527 -0.1007 -0.5594
 1722SOL    HW115159   3.446   5.525   1.291  1.0271  0.0520 -1.0601
 1722SOL    HW215160   3.426   5.526   1.453 -0.8490  0.0777 -1.2800
 1723SOL     OW15161   8.977   5.279   4.991  0.2277 -0.5901 -0.7487
 1723SOL    HW115162   9.038   5.352   5.023 -0.5174  0.3280 -1.4160
 1723SOL    HW215163   8.955   5.218   5.068  0.1137  0.4117  0.0195
 1724SOL     OW15164   4.293   3.885   4.738 -0.2686 -0.2255 -0.0602
 1724SOL    HW115165   4.273   3.978   4.770  1.7650 -0.0617  0.8085
 1724SOL    HW215166   4.340   3.890   4.649  1.8089 -0.2952  1.0016
 1726SOL     OW15167   6.469   8.683   2.035  0.1051 -0.2275 -0.1901
 1726SOL    HW115168   6.401   8.748   2.000 -0.6664 -0.8764  0.1021
 1726SOL    HW215169   6.429   8.629   2.109  0.6125 -1.3126 -0.6972
 1728SOL     OW15170   9.533   2.185   1.277 -0.6320  0.6610 -0.3849
 1728SOL    HW115171   9.532   2.285   1.288 -2.0437  0.7878 -1.4042
 1728SOL    HW215172   9.625   2.156   1.249  0.2142  1.4757  1.4807
 1729SOL     OW15173   4.824   4.199   3.767 -0.1641  0.4494 -0.0087
 1729SOL    HW115174   4.905   4.222   3.713 -0.3452 -1.9350 -1.3812
 1729SOL    HW215175   4.852   4.176   3.860  0.9194 -1.6486 -0.8244
 1731SOL     OW15176   6.246   0.172   1.304 -0.4265  0.4945  0.6804
 1731SOL    HW115177   6.267   0.258   1.258 -0.7267  0.0719 -0.2574
 1731SOL    HW215178   6.171   0.126   1.257 -0.9342  0.1936  1.7702
 1732SOL     OW15179   7.798   3.335   3.606  0.6491  0.7916  0.3608
 1732SOL    HW115180   7.829   3.424   3.573  0.7346  0.6537  0.0626
 1732SOL    HW215181   7.715   3.346   3.659 -1.3547  0.6865 -2.6174
 1733SOL     OW15182   7.215   9.322   3.564 -0.9585 -0.2635 -0.2979
 1733SOL    HW115183   7.219   9.233   3.520 -2.0041 -0.1632 -0.6145
 1733SOL    HW215184   7.278   9.324   3.642  0.2035 -0.7484 -1.2171
 1734SOL     OW15185   9.114   9.754   1.008 -0.5636 -0.4699  0.6281
 1734SOL    HW115186   9.175   9.803   1.071 -2.0689  0.8414  1.1066
 1734SOL    HW215187   9.050   9.819   0.967 -1.2724 -1.7330 -0.2867
 1735SOL     OW15188   1.446   7.772   4.814  0.0341  0.3121 -0.3986
 1735SOL    HW115189   1.523   7.817   4.858 -0.3919  1.7699 -1.1058
 1735SOL    HW215190   1.427   7.686   4.860  0.9511  0.7876  0.9032
 1736SOL     OW15191   5.292   7.811   2.010 -0.4022 -0.0489 -0.1749
 1736SOL    HW115192   5.378   7.835   2.054 -0.3491 -0.6871  0.0834
 1736SOL    HW215193   5.262   7.721   2.043  0.0246 -0.8930 -1.9748
 1738SOL     OW15194   4.688   5.142   0.197 -0.2436 -0.7864  0.0883
 1738SOL    HW115195   4.755   5.116   0.126 -1.4634 -1.2775 -0.9008
 1738SOL    HW215196   4.617   5.072   0.202 -1.6012  0.5569 -0.0533
 1740SOL     OW15197   9.450   8.239   4.316  0.3084 -0.0863  0.1844
 1740SOL    HW115198   9.401   8.303   4.376  0.0697 -0.5174  0.4579
 1740SOL    HW215199   9.396   8.224   4.233 -0.5860 -1.4471  0.9954
 1742SOL     OW15200   9.999   4.113   2.846 -0.6972  0.7519 -0.3775
 1742SOL    HW115201   9.929   4.086   2.780 -1.0015  1.1607 -0.2224
 1742SOL    HW215202   9.970   4.088   2.938  0.4017 -1.2079 -0.5351
 1743SOL     OW15203   1.538   7.674   4.531  0.7376  0.3376 -0.5233
 1743SOL    HW115204   1.555   7.632   4.442 -0.1620  2.1422 -1.5937
 1743SOL    HW215205   1.498   7.607   4.593 -0.3318 -0.4750 -2.0600
 1744SOL     OW15206   4.497   3.554   1.029  0.1445 -0.1506  0.5400
 1744SOL    HW115207   4.461   3.640   1.065  0.1388 -0.0468  0.2864
 1744SOL    HW215208   4.421   3.490   1.013  0.2792 -0.7215  2.0886
 1745SOL     OW15209   4.604   2.314   3.525  0.6632  0.1020  0.3906
 1745SOL    HW115210   4.575   2.317   3.430 -1.8793  1.6096  1.1870
 1745SOL    HW215211   4.623   2.406   3.557  1.5234 -0.3996  1.3829
 1746SOL     OW15212   3.934   7.001   2.012  0.0275 -0.2104 -0.3500
 1746SOL    HW115213   3.953   7.074   1.946  1.2769 -0.1329  0.0908
 1746SOL    HW215214   3.885   6.926   1.966  0.3458  0.1122 -1.2164
 1748SOL     OW15215   6.159   7.731   3.724  0.1674  0.5542  0.3037
 1748SOL    HW115216   6.088   7.754   3.657  0.8052  3.3142  0.5100
 1748SOL    HW215217   6.167   7.632   3.731 -1.1969  0.2068 -2.3260
 1749SOL     OW15218   2.025   9.811   0.370  0.3907 -0.1762 -0.0897
 1749SOL    HW115219   1.991   9.770   0.285 -2.0065  0.5098  0.4792
 1749SOL    HW215220   2.056   9.904   0.352 -2.1013  0.7341  0.1199
 1750SOL     OW15221   4.848   1.465   1.377  0.2542 -0.0351  0.3635
 1750SOL    HW115222   4.754   1.452   1.409 -0.3825  0.8736 -1.0960
 1750SOL    HW215223   4.891   1.538   1.429 -0.7519  1.3861 -0.7792
 1752SOL     OW15224   1.961   2.824   2.217 -0.1361  0.1317 -0.2748
 1752SOL    HW115225   2.021   2.764   2.163 -1.3403  0.2592 -1.8055
 1752SOL    HW215226   1.935   2.777   2.301  1.1271 -0.4103 -0.1717
 1753SOL     OW15227   4.723   8.167   4.621  0.3937  0.0732  0.5614
 1753SOL    HW115228   4.808   8.136   4.663 -0.1209 -1.2794  0.6451
 1753SOL    HW215229   4.645   8.129   4.672 -0.2465 -1.3670 -1.4129
 1754SOL     OW15230   4.524   4.435   3.934 -0.1324 -0.3361  0.2995
 1754SOL    HW115231   4.471   4.517   3.958 -0.0487  0.0307 -0.7300
 1754SOL    HW215232   4.549   4.439   3.837 -0.9130 -2.0320  0.0117
 1755SOL     OW15233   5.904   5.160   1.473  0.3592  0.1495  0.1400
 1755SOL    HW115234   5.866   5.085   1.526 -0.5637  0.6892  0.2439
 1755SOL    HW215235   5.833   5.199   1.414  0.6885  1.3169  0.5069
 1756SOL     OW15236   9.267   8.491   3.029  1.2048 -0.5572 -0.1860
 1756SOL    HW115237   9.328   8.479   3.107 -0.8312  0.7973  1.6444
 1756SOL    HW215238   9.192   8.425   3.033  0.9621 -0.3355 -0.8684
 1757SOL     OW15239   8.569   9.402   3.413  0.2863 -0.7427  0.4829
 1757SOL    HW115240   8.567   9.327   3.480  0.3199  1.1377  2.6504
 1757SOL    HW215241   8.603   9.485   3.458 -0.0349  0.6532 -1.8059
 1758SOL     OW15242   2.575   6.026   4.130  0.0086  0.4541 -0.5300
 1758SOL    HW115243   2.478   6.005   4.116 -0.1765  0.1978  1.0020
 1758SOL    HW215244   2.631   5.969   4.070 -0.7099 -0.7012 -0.1272
 1759SOL     OW15245   3.428   3.886   3.077  0.5989  0.2730  0.0713
 1759SOL    HW115246   3.386   3.821   3.014  1.9498 -0.1055 -0.4510
 1759SOL    HW215247   3.494   3.839   3.135  3.7460  1.5975 -2.2729
 1760SOL     OW15248   8.999   6.929   3.333  0.5030 -0.0336 -0.1585
 1760SOL    HW115249   8.907   6.967   3.321  0.2376 -0.8151 -0.5984
 1760SOL    HW215250   9.056   6.996   3.382 -0.8984 -0.3956  2.0746
 1761SOL     OW15251   7.475   2.423   5.168  0.1169  0.3568  0.8036
 1761SOL    HW115252   7.454   2.413   5.071 -2.2149  0.8719  1.2237
 1761SOL    HW215253   7.453   2.337   5.215  1.3203  0.0799  0.8838
 1762SOL     OW15254   7.243   9.655   4.644  0.1260  0.3991  0.1674
 1762SOL    HW115255   7.233   9.696   4.735 -1.9340  1.9324 -0.6937
 1762SOL    HW215256   7.154   9.622   4.612  0.6379  0.6793 -1.6378
 1763SOL     OW15257   7.635   4.048   0.653  0.0668 -1.1495  0.2629
 1763SOL    HW115258   7.593   3.996   0.579  0.0924 -0.8321  0.0221
 1763SOL    HW215259   7.729   4.071   0.629  0.0669 -1.0230  0.3809
 1764SOL     OW15260   8.443   9.634   3.606  0.1962 -0.3619 -0.3314
 1764SOL    HW115261   8.453   9.574   3.685 -1.6829 -0.2402  0.0119
 1764SOL    HW215262   8.530   9.681   3.588  1.2883 -2.1604  0.2025
 1765SOL     OW15263   9.724   3.148   4.236  0.1481  0.3915  0.0793
 1765SOL    HW115264   9.696   3.227   4.290 -1.9232 -0.2207 -0.0503
 1765SOL    HW215265   9.659   3.134   4.161  2.2367  0.4391 -1.8131
 1767SOL     OW15266   8.897   3.076   4.452  0.2910  0.0990 -0.1630
 1767SOL    HW115267   8.961   3.109   4.522 -0.8564 -0.6795  1.2795
 1767SOL    HW215268   8.899   2.976   4.450 -1.0018  0.0668  0.0024
 1771SOL     OW15269   5.141   8.271   1.404  0.5327 -0.1025  0.6298
 1771SOL    HW115270   5.148   8.331   1.324 -1.3296  2.3916  2.2677
 1771SOL    HW215271   5.229   8.270   1.452  1.4138 -0.9516 -0.9513
 1772SOL     OW15272   2.886   9.666   4.224  0.4082  0.0872 -0.1965
 1772SOL    HW115273   2.934   9.754   4.223  0.7201 -0.0280  1.6220
 1772SOL    HW215274   2.788   9.682   4.229  0.1899  0.3234 -3.7682
 1773SOL     OW15275   1.960   1.034   0.352  0.2882  0.2614 -0.4724
 1773SOL    HW115276   1.871   0.996   0.327  0.1833  0.3474 -0.2294
 1773SOL    HW215277   1.948   1.104   0.423  0.7397 -1.0946  0.9565
 1774SOL     OW15278   2.235   0.142   3.084  0.3147  0.1930 -0.1726
 1774SOL    HW115279   2.204   0.200   3.159 -1.1580 -0.8375  0.0513
 1774SOL    HW215280   2.317   0.092   3.111  0.4754  0.7224  0.3140
 1775SOL     OW15281   4.402   0.477   5.167  0.0603 -0.0875  0.1338
 1775SOL    HW115282   4.322   0.530   5.194  0.2718  0.3531 -0.1001
 1775SOL    HW215283   4.466   0.473   5.244 -0.1112 -0.3005  0.2667
 1777SOL     OW15284   0.920   4.355   0.563 -0.0087 -0.1927 -0.7676
 1777SOL    HW115285   0.933   4.434   0.622 -1.5037  0.5864 -1.4475
 1777SOL    HW215286   0.908   4.272   0.618  0.5248  0.2205 -0.0350
 1778SOL     OW15287   3.521   0.860   2.292  0.4586 -0.6812  0.2087
 1778SOL    HW115288   3.489   0.926   2.360 -0.8425 -1.3587  0.2567
 1778SOL    HW215289   3.447   0.838   2.229  2.1905  1.5790 -2.8112
 1780SOL     OW15290   3.112   7.280   4.592  0.8697 -0.2881 -0.4624
 1780SOL    HW115291   3.093   7.182   4.590  2.3538 -0.5664 -1.2174
 1780SOL    HW215292   3.025   7.330   4.596  0.0553 -1.6003 -1.3178
 1781SOL     OW15293   7.911   5.686   1.833  0.1367 -0.0552  0.0469
 1781SOL    HW115294   7.950   5.765   1.785 -0.4248 -0.0484 -0.4078
 1781SOL    HW215295   7.932   5.602   1.782  1.4550 -0.2943  0.9747
 1782SOL     OW15296   6.622   0.448   0.869 -0.0771 -0.2009 -0.3562
 1782SOL    HW115297   6.709   0.413   0.836  0.2082 -0.0518  0.2335
 1782SOL    HW215298   6.631   0.545   0.892  0.1743 -0.6726  1.6792
 1783SOL     OW15299   3.520   1.202   1.175 -0.3743  0.4326  0.8602
 1783SOL    HW115300   3.431   1.244   1.158 -1.5728 -2.9206 -1.8590
 1783SOL    HW215301   3.507   1.110   1.211  2.0887  0.8740  3.0020
 1785SOL     OW15302   1.234   1.709   1.365  0.1012 -0.2426 -0.2349
 1785SOL    HW115303   1.332   1.704   1.348  0.4916  2.5721  0.8764
 1785SOL    HW215304   1.218   1.715   1.464 -1.2506 -1.5958 -0.3604
 1786SOL     OW15305   3.054   1.677   2.507  0.2007  0.2014  0.3557
 1786SOL    HW115306   3.116   1.753   2.527  1.3307 -0.5277 -0.3184
 1786SOL    HW215307   3.053   1.660   2.408 -1.0126  0.1487  0.3713
 1787SOL     OW15308   6.853   9.073   4.106  0.4697  0.0161 -0.2369
 1787SOL    HW115309   6.933   9.038   4.154  0.3877  0.3154  0.1229
 1787SOL    HW215310   6.779   9.007   4.112  0.2351  0.3486  0.6481
 1788SOL     OW15311   3.700   2.903   3.137 -0.3441  0.3704  0.2893
 1788SOL    HW115312   3.707   2.898   3.038 -1.0792  1.9904  0.1379
 1788SOL    HW215313   3.763   2.838   3.179 -1.5530 -1.8114 -1.2456
 1789SOL     OW15314   3.779   3.885   0.234  0.0504  0.1298  0.2697
 1789SOL    HW115315   3.690   3.901   0.193  0.4701  0.0181 -0.6837
 1789SOL    HW215316   3.819   3.973   0.261 -0.1879  0.2095  0.3643
 1790SOL     OW15317   9.065   7.847   0.678 -0.1035  0.0707 -0.4172
 1790SOL    HW115318   8.977   7.882   0.711 -0.7893 -0.5637 -1.5814
 1790SOL    HW215319   9.086   7.887   0.589  0.8647  0.3291 -0.0844
 1791SOL     OW15320   5.330   9.232   1.983 -0.1917 -0.0070  0.1285
 1791SOL    HW115321   5.303   9.140   2.012 -0.1544  0.5188  1.9274
 1791SOL    HW215322   5.407   9.227   1.920 -0.0009 -1.1981  0.4558
 1792SOL     OW15323   0.972   3.119   3.605 -0.2845  0.0162 -0.0829
 1792SOL    HW115324   0.982   3.034   3.657  0.2040 -0.8409 -1.5380
 1792SOL    HW215325   0.989   3.100   3.508 -1.5829  1.4922 -0.6149
 1793SOL     OW15326   0.559   0.474   5.317 -0.4654 -0.8077  0.6036
 1793SOL    HW115327   0.641   0.505   5.269 -1.2388  0.3526  0.0008
 1793SOL    HW215328   0.543   0.532   5.397 -1.0031 -0.7044  0.4183
 1794SOL     OW15329   2.962   7.066   2.805  0.2211 -0.4732  0.3576
 1794SOL    HW115330   2.892   7.117   2.855 -0.0292 -2.8067  2.5116
 1794SOL    HW215331   2.944   6.968   2.815  2.7488 -1.0627 -0.6282
 1795SOL     OW15332   1.558   5.654   4.564  0.3196 -0.5353  1.0638
 1795SOL    HW115333   1.518   5.571   4.525 -1.7633  0.6753  0.5209
 1795SOL    HW215334   1.610   5.703   4.494 -1.4187  0.4089  0.4056
 1796SOL     OW15335   7.359   8.100   3.970  0.1623 -0.4785 -0.3938
 1796SOL    HW115336   7.352   8.049   3.884  1.1983 -0.4304 -0.5171
 1796SOL    HW215337   7.288   8.069   4.033 -0.5646 -0.5650 -1.2377
 1797SOL     OW15338   0.044   7.985   3.597 -0.4648  0.0664  0.0579
 1797SOL    HW115339   0.062   8.082   3.609 -0.2633 -0.1687  1.7912
 1797SOL    HW215340   0.128   7.938   3.572 -0.4798  0.2820 -0.3947
 1798SOL     OW15341   8.110   0.513   4.579  0.4053 -0.1608 -0.2409
 1798SOL    HW115342   8.144   0.598   4.539  0.0573 -0.1227 -0.4534
 1798SOL    HW215343   8.011   0.510   4.572  0.4243 -0.6277 -0.3109
 1800SOL     OW15344   3.673   0.749   2.936 -0.3389  0.0874  0.1293
 1800SOL    HW115345   3.646   0.682   2.867  0.3096 -1.0174  0.9239
 1800SOL    HW215346   3.603   0.821   2.942 -2.7163 -2.2154  1.5036
 1801SOL     OW15347   1.520   8.718   2.939  0.0216  0.1381 -0.1659
 1801SOL    HW115348   1.435   8.768   2.923 -1.1871 -1.9896 -0.5939
 1801SOL    HW215349   1.551   8.677   2.853 -0.1195 -1.5529  0.5786
 1802SOL     OW15350   9.399   0.997   2.984  0.2579  0.2171 -0.0445
 1802SOL    HW115351   9.390   1.011   2.886  0.2741 -0.8629 -0.2026
 1802SOL    HW215352   9.418   1.085   3.029  0.1849  0.7181 -0.9919
 1803SOL     OW15353   8.100   0.286   1.087 -0.3208  0.3706  0.1755
 1803SOL    HW115354   8.108   0.384   1.105 -0.9533  0.6213 -0.8936
 1803SOL    HW215355   8.136   0.265   0.996 -1.7560 -0.1163 -0.2945
 1805SOL     OW15356   8.039   0.368   3.113  0.1735 -0.1581  0.2514
 1805SOL    HW115357   8.030   0.444   3.177 -0.9214 -1.5742  1.8460
 1805SOL    HW215358   8.032   0.282   3.163 -1.5133 -1.3177 -1.8783
 1806SOL     OW15359   1.881   6.806   3.449  0.4061  0.2735  0.1126
 1806SOL    HW115360   1.904   6.733   3.513 -4.1770  0.6426  2.4056
 1806SOL    HW215361   1.786   6.795   3.420  0.7797  3.2380 -2.4217
 1807SOL     OW15362   2.239   9.305   2.626 -0.5224  0.0186 -0.5388
 1807SOL    HW115363   2.232   9.383   2.563  0.4312 -0.3708 -1.1411
 1807SOL    HW215364   2.220   9.335   2.719  0.0628  1.0228 -0.7398
 1808SOL     OW15365   1.227   7.090   3.458 -0.4887  0.3284 -0.3935
 1808SOL    HW115366   1.235   7.004   3.509  0.0033  1.2476  1.1162
 1808SOL    HW215367   1.141   7.091   3.408 -0.1283 -1.3886 -1.0945
 1811SOL     OW15368   3.193   2.107   2.783  0.1774  0.0374  0.4727
 1811SOL    HW115369   3.151   2.062   2.861  1.7053 -0.7435  0.8682
 1811SOL    HW215370   3.174   2.205   2.786  0.6846  0.1008  2.1345
 1813SOL     OW15371   1.165   2.658   1.841  0.5373 -0.1179 -0.5786
 1813SOL    HW115372   1.138   2.700   1.928  1.9517  0.4914 -0.4237
 1813SOL    HW215373   1.091   2.667   1.775 -0.0471  0.5667  0.1630
 1814SOL     OW15374   3.325   9.116   3.966  0.6421  0.2246 -0.4641
 1814SOL    HW115375   3.390   9.050   3.929  1.0493  0.5435 -0.3215
 1814SOL    HW215376   3.326   9.199   3.910  0.2254  0.1644 -0.5675
 1815SOL     OW15377   2.664   0.239   1.315  0.1847 -0.4587 -0.3916
 1815SOL    HW115378   2.609   0.224   1.233  0.3968 -0.1668 -0.5894
 1815SOL    HW215379   2.744   0.179   1.312  0.5201 -0.0080 -0.7076
 1817SOL     OW15380   7.905   0.201   3.666  0.0866 -0.3180  0.2741
 1817SOL    HW115381   7.921   0.224   3.762  0.4111 -2.2031  0.7030
 1817SOL    HW215382   7.963   0.123   3.641 -1.0677 -0.7638 -1.0477
 1818SOL     OW15383   9.081   2.644   4.955  0.5912  0.1713 -0.6105
 1818SOL    HW115384   9.069   2.591   5.039 -3.3115  0.4526 -0.8964
 1818SOL    HW215385   9.129   2.589   4.887 -1.1335 -2.1029 -0.0361
 1819SOL     OW15386   9.977   6.063   2.677 -0.3358 -0.1736 -0.0777
 1819SOL    HW115387   9.927   6.048   2.763 -0.5215  0.3997 -0.0884
 1819SOL    HW215388  10.075   6.051   2.694 -0.3751 -0.1094  0.2065
 1820SOL     OW15389   2.709   2.976   0.554 -0.0670 -0.0788 -0.1265
 1820SOL    HW115390   2.726   2.916   0.476  3.5920 -1.7214  1.8257
 1820SOL    HW215391   2.783   2.968   0.620 -2.6166  1.8928  3.1826
 1821SOL     OW15392   9.814   4.298   3.827  0.2066 -0.1305 -0.3325
 1821SOL    HW115393   9.803   4.248   3.913  2.3752 -2.2734 -1.2372
 1821SOL    HW215394   9.732   4.285   3.770  0.1071 -1.4391  0.0810
 1822SOL     OW15395   8.426   1.425   1.412  0.2475  0.3593  0.1005
 1822SOL    HW115396   8.417   1.428   1.511 -1.1083 -1.0836  0.0282
 1822SOL    HW215397   8.385   1.342   1.376  0.4224  1.0151 -1.7192
 1823SOL     OW15398   1.980   4.952   2.306  0.1297 -0.2308 -0.0577
 1823SOL    HW115399   2.061   5.007   2.287  0.1137  0.1486  0.9368
 1823SOL    HW215400   2.006   4.871   2.357  0.1362 -1.1027 -1.4199
 1825SOL     OW15401   0.803   9.620   4.747 -0.5208 -0.1022  0.3042
 1825SOL    HW115402   0.836   9.615   4.841  1.1328  0.9778 -0.1980
 1825SOL    HW215403   0.747   9.540   4.727 -0.6058 -0.5102  2.0953
 1826SOL     OW15404   5.562   9.621   1.641 -0.3110 -0.3174  0.2736
 1826SOL    HW115405   5.637   9.645   1.578 -0.3198 -1.5808 -0.2317
 1826SOL    HW215406   5.549   9.695   1.707  1.8282 -0.3687  0.7921
 1828SOL     OW15407   1.231   1.908   1.599  0.1626 -0.1821  0.2503
 1828SOL    HW115408   1.261   1.979   1.663 -2.8340  1.0976  0.2848
 1828SOL    HW215409   1.201   1.950   1.514 -2.0198 -1.3297  0.4195
 1829SOL     OW15410   3.829   3.990   3.133 -0.3202 -0.6233 -0.5315
 1829SOL    HW115411   3.809   3.899   3.170  0.9327 -1.1361 -1.0666
 1829SOL    HW215412   3.804   3.993   3.036 -0.5236 -0.3436 -0.4705
 1830SOL     OW15413   0.487   4.491   1.423 -0.4707  0.7060  0.0744
 1830SOL    HW115414   0.566   4.547   1.447 -2.7216  3.7525  0.7750
 1830SOL    HW215415   0.456   4.515   1.331 -1.6766  0.9062  0.5222
 1832SOL     OW15416   3.034   4.894   2.632  0.3600  0.5750 -0.1611
 1832SOL    HW115417   3.113   4.851   2.675  0.6261  1.0014 -0.2231
 1832SOL    HW215418   2.988   4.954   2.698 -0.3323 -0.2226  0.0905
 1833SOL     OW15419   2.449   0.340   2.765  0.1206  0.7957 -0.1747
 1833SOL    HW115420   2.496   0.391   2.838  1.5095  0.7752 -1.0305
 1833SOL    HW215421   2.351   0.339   2.783  0.4370  0.7751  1.7106
 1834SOL     OW15422   4.834   1.919   1.101 -0.2414 -0.1201  0.2969
 1834SOL    HW115423   4.906   1.943   1.166 -0.0200  0.4239 -0.1405
 1834SOL    HW215424   4.782   1.842   1.136 -0.8200  0.8523  1.6362
 1835SOL     OW15425   9.708   2.598   2.044  0.4190 -0.2093  0.5269
 1835SOL    HW115426   9.723   2.680   1.990  0.2993 -0.3935  0.2148
 1835SOL    HW215427   9.676   2.623   2.136 -0.3009  0.0625  0.1995
 1836SOL     OW15428   9.176   1.872   3.198 -0.0384  0.1633 -0.4713
 1836SOL    HW115429   9.248   1.939   3.217  0.7219  0.1357 -3.0916
 1836SOL    HW215430   9.119   1.905   3.123 -1.1663 -1.0299 -0.1497
 1837SOL     OW15431   9.740   2.486   2.675 -0.0989 -0.1614 -0.1398
 1837SOL    HW115432   9.715   2.528   2.588  1.8200  0.1342 -0.5677
 1837SOL    HW215433   9.761   2.389   2.661 -0.2524 -0.2304  0.0930
 1838SOL     OW15434   3.363   5.586   2.327  0.1540 -0.2282  0.2484
 1838SOL    HW115435   3.372   5.626   2.418 -0.8967  0.2755  0.1438
 1838SOL    HW215436   3.269   5.598   2.295  0.5005 -0.4506 -0.8773
 1839SOL     OW15437   5.325   8.308   2.136 -0.0455 -0.5279 -0.3400
 1839SOL    HW115438   5.334   8.312   2.236 -0.0275  1.3288 -0.3959
 1839SOL    HW215439   5.269   8.385   2.105 -0.5850 -1.4634 -1.7122
 1840SOL     OW15440   1.572   3.995   2.635  0.5107 -0.0386  0.4445
 1840SOL    HW115441   1.540   3.992   2.541  2.1133  0.6647 -0.1328
 1840SOL    HW215442   1.604   4.087   2.656  1.4913 -0.5510  1.2307
 1841SOL     OW15443   3.236   0.685   3.538  0.2679 -0.2150  0.2779
 1841SOL    HW115444   3.196   0.775   3.555  3.4117  1.0246  1.3748
 1841SOL    HW215445   3.211   0.623   3.613 -0.8150  0.0857  0.1806
 1842SOL     OW15446   8.139   3.580   0.338  0.5117  0.8066  0.9681
 1842SOL    HW115447   8.148   3.663   0.282  0.0404  0.8325  0.9231
 1842SOL    HW215448   8.045   3.575   0.373  0.0012 -0.6693 -0.5506
 1843SOL     OW15449   4.037   2.360   2.232  0.2990 -0.2380  0.0379
 1843SOL    HW115450   4.120   2.359   2.176  1.6363  0.7530  1.9215
 1843SOL    HW215451   4.047   2.295   2.308 -0.7694 -0.3210  0.1173
 1844SOL     OW15452   1.152   5.037   4.262  0.0177 -0.0104 -0.2478
 1844SOL    HW115453   1.232   5.085   4.224  0.3282 -0.8588 -0.6911
 1844SOL    HW215454   1.174   5.006   4.355  0.7204 -1.4615 -0.8816
 1846SOL     OW15455   3.467   4.617   4.545 -0.5607  0.0884  0.1341
 1846SOL    HW115456   3.423   4.631   4.634  1.2640 -0.3801  1.1232
 1846SOL    HW215457   3.401   4.638   4.472 -2.3487 -0.3783  1.5769
 1848SOL     OW15458   3.647   5.745   1.316  0.5926  0.1809  0.9025
 1848SOL    HW115459   3.739   5.731   1.352  0.7837 -1.5396 -0.2270
 1848SOL    HW215460   3.592   5.663   1.334  0.1283  0.0730 -1.0002
 1849SOL     OW15461   9.462   8.552   1.272 -0.2948  0.1183  0.1268
 1849SOL    HW115462   9.547   8.568   1.321 -1.0542  1.6396  0.9686
 1849SOL    HW215463   9.385   8.563   1.334 -1.0928 -2.0166 -0.4363
 1850SOL     OW15464   0.543   2.340   5.003  0.5140 -0.3175  0.0734
 1850SOL    HW115465   0.498   2.367   5.088 -0.5035  1.2052 -0.9294
 1850SOL    HW215466   0.642   2.345   5.015  0.3868  3.4827  0.0869
 1851SOL     OW15467   1.004   9.192   2.941  0.3970 -0.3794  0.2225
 1851SOL    HW115468   1.087   9.169   2.889  0.2684  1.7784 -0.9934
 1851SOL    HW215469   0.990   9.291   2.939 -1.5751 -0.6122  1.4177
 1852SOL     OW15470   8.018   8.727   2.446 -0.0584 -0.0240 -0.1478
 1852SOL    HW115471   8.074   8.644   2.457 -1.4399 -1.1560 -1.4051
 1852SOL    HW215472   8.004   8.769   2.536  1.2502 -0.7406  0.4169
 1853SOL     OW15473   4.408   3.668   4.271 -0.1614 -0.1630  0.3715
 1853SOL    HW115474   4.401   3.663   4.171 -1.5826  0.4945  0.4222
 1853SOL    HW215475   4.503   3.686   4.297  0.4758 -1.7476 -0.7976
 1855SOL     OW15476   0.364   5.615   2.773 -0.2994  0.1351  0.2962
 1855SOL    HW115477   0.352   5.532   2.719  1.5913  0.1967 -0.2476
 1855SOL    HW215478   0.461   5.635   2.784 -0.7038  1.7413  1.2566
 1856SOL     OW15479   6.782   2.180   2.866  0.0279  0.0624 -0.4807
 1856SOL    HW115480   6.707   2.158   2.930 -0.2375 -0.0898 -0.8419
 1856SOL    HW215481   6.744   2.194   2.775  0.3408  0.8589 -0.4912
 1857SOL     OW15482   5.468   7.947   3.238 -0.7272 -0.3249 -0.3776
 1857SOL    HW115483   5.450   8.045   3.248 -2.0796 -0.7204  1.3185
 1857SOL    HW215484   5.478   7.906   3.328  0.5501 -1.6410 -1.0945
 1858SOL     OW15485   3.818   0.661   4.057  0.0543 -0.0483  0.2832
 1858SOL    HW115486   3.784   0.570   4.033  1.1589 -1.1244  2.6174
 1858SOL    HW215487   3.794   0.726   3.985 -1.2995 -2.0557 -1.1209
 1859SOL     OW15488   2.109   0.363   2.010  0.1793  0.0968 -0.2227
 1859SOL    HW115489   2.045   0.424   2.058  0.8499  1.3812 -0.9255
 1859SOL    HW215490   2.190   0.349   2.066 -0.1917 -0.5773  0.1576
 1860SOL     OW15491   8.233   4.290   0.562 -0.2420  0.1205  0.3754
 1860SOL    HW115492   8.185   4.235   0.631 -0.3283 -0.7406 -0.3527
 1860SOL    HW215493   8.246   4.235   0.480  2.1369  0.2928  0.6047
 1861SOL     OW15494   4.034   3.328   3.132  0.5927  0.2082  0.5150
 1861SOL    HW115495   4.127   3.363   3.122  1.3064 -1.7537 -0.0126
 1861SOL    HW215496   4.035   3.246   3.189 -0.8756  0.3967  0.8357
 1862SOL     OW15497   3.804   2.486   3.752  0.2620  0.1864  0.2917
 1862SOL    HW115498   3.779   2.583   3.752  1.0179  0.3904 -1.0719
 1862SOL    HW215499   3.729   2.432   3.714 -0.4848  0.1213  1.7833
 1863SOL     OW15500   2.783   0.236   3.955 -0.1006  0.1839 -0.5030
 1863SOL    HW115501   2.778   0.334   3.975 -2.3477 -0.1148  0.5763
 1863SOL    HW215502   2.737   0.218   3.868 -0.4922 -0.0189 -0.2573
 1866SOL     OW15503   3.512   1.956   3.308  0.2216  0.1863 -0.0412
 1866SOL    HW115504   3.512   1.885   3.238  1.2990  1.7604 -1.7066
 1866SOL    HW215505   3.550   2.040   3.270  0.6269  1.1623  2.3898
 1867SOL     OW15506   9.303   1.682   2.567  0.3935 -0.5795  0.5221
 1867SOL    HW115507   9.335   1.741   2.642 -0.5786 -0.4368  0.8376
 1867SOL    HW215508   9.302   1.734   2.482  1.6938 -0.8001  0.3661
 1868SOL     OW15509   8.110   3.382   2.875 -0.2655 -0.3646 -0.2869
 1868SOL    HW115510   8.074   3.464   2.832 -0.7325 -0.4876 -0.1296
 1868SOL    HW215511   8.035   3.323   2.903  0.0522 -0.5789  0.1260
 1869SOL     OW15512   5.498   9.825   4.637  0.3196  0.5372 -0.6661
 1869SOL    HW115513   5.533   9.916   4.661  0.0681  1.5308 -3.8316
 1869SOL    HW215514   5.502   9.813   4.538 -1.4596 -2.1886 -0.4567
 1871SOL     OW15515   0.783   6.964   4.190 -0.2456 -0.7342  0.1186
 1871SOL    HW115516   0.746   7.052   4.221  0.0631 -0.0002 -1.5566
 1871SOL    HW215517   0.862   6.940   4.246 -1.2629 -0.7342  1.6100
 1872SOL     OW15518   1.444   9.589   3.020 -0.0037 -0.1934  0.1872
 1872SOL    HW115519   1.500   9.586   3.103 -0.0713 -2.0649  0.1812
 1872SOL    HW215520   1.360   9.537   3.035 -0.6435  0.6087 -0.6053
 1873SOL     OW15521   5.740   9.828   4.950  0.5582 -0.0813  0.1377
 1873SOL    HW115522   5.727   9.925   4.929  0.9126  0.2039  1.1969
 1873SOL    HW215523   5.657   9.778   4.927  0.6257  0.3550 -1.0977
 1874SOL     OW15524   3.411   4.919   0.993 -0.0463 -0.3836 -0.1843
 1874SOL    HW115525   3.316   4.888   0.990 -1.1766  2.9600 -1.0434
 1874SOL    HW215526   3.463   4.873   0.920 -0.6949 -2.9739  0.9149
 1875SOL     OW15527   0.018   1.515   4.373 -0.1079 -0.5400 -0.0840
 1875SOL    HW115528  -0.029   1.455   4.438 -0.5833 -0.7248 -0.5991
 1875SOL    HW215529   0.052   1.461   4.296  2.1453 -0.6375  0.9300
 1876SOL     OW15530   2.396   5.086   0.367  0.0223  0.4339  0.6332
 1876SOL    HW115531   2.496   5.094   0.359  0.1927 -1.4104  0.5889
 1876SOL    HW215532   2.363   5.019   0.301 -0.9663 -0.5926  2.1216
 1877SOL     OW15533   2.886   6.272   0.719 -0.8809 -0.0243  0.0989
 1877SOL    HW115534   2.867   6.228   0.631  1.3686  1.0134 -0.9603
 1877SOL    HW215535   2.950   6.216   0.772 -1.2173 -0.0177  0.5135
 1878SOL     OW15536   7.965   4.238   2.845 -0.1036 -0.4648 -0.1998
 1878SOL    HW115537   7.875   4.275   2.819 -0.2272 -0.1876  0.6254
 1878SOL    HW215538   7.975   4.242   2.944  0.6698 -0.8580 -0.2643
 1879SOL     OW15539   1.080   3.952   2.032  0.1060 -0.5733 -0.1326
 1879SOL    HW115540   1.016   3.997   2.094 -1.6345 -1.5194 -1.2311
 1879SOL    HW215541   1.088   4.005   1.947  2.7353  0.8984  0.9547
 1881SOL     OW15542   4.334   1.021   4.408  0.7496 -0.3205 -0.0716
 1881SOL    HW115543   4.275   0.993   4.333  0.5576  1.5078 -0.6205
 1881SOL    HW215544   4.429   1.019   4.378  0.8539 -1.6659  0.3104
 1882SOL     OW15545   9.000   6.782   1.860 -0.5060 -0.8266 -0.5758
 1882SOL    HW115546   8.920   6.835   1.887  0.7285  0.2197  1.0865
 1882SOL    HW215547   8.999   6.694   1.908 -1.3479 -1.3797 -1.5857
 1883SOL     OW15548   4.988   8.727   2.222 -0.1393  0.2160  1.0119
 1883SOL    HW115549   5.070   8.784   2.218  0.4168 -0.7156 -2.8275
 1883SOL    HW215550   5.013   8.631   2.216 -1.3914 -0.2088  2.2871
 1884SOL     OW15551   8.306   7.941   5.091  0.5557 -0.1179 -0.3552
 1884SOL    HW115552   8.222   7.996   5.090 -0.4071 -1.3085  3.9713
 1884SOL    HW215553   8.291   7.857   5.038 -0.8997 -0.1747  0.1258
 1885SOL     OW15554   2.806   5.392   1.660 -0.4502  0.2114 -0.6718
 1885SOL    HW115555   2.787   5.377   1.563 -1.6156 -1.1420 -0.2447
 1885SOL    HW215556   2.800   5.306   1.709  0.7335  0.7861  0.5224
 1886SOL     OW15557   3.169   3.936   0.797 -0.7291 -0.0780  0.2574
 1886SOL    HW115558   3.076   3.966   0.780 -0.3340  1.7363  1.1554
 1886SOL    HW215559   3.214   4.000   0.859  1.0948 -0.9482 -0.1184
 1888SOL     OW15560   8.650   2.902   3.878  0.5802  0.1954 -0.2509
 1888SOL    HW115561   8.572   2.890   3.939  1.1175  1.2423  0.6549
 1888SOL    HW215562   8.735   2.897   3.931  1.2858 -3.4422 -1.5632
 1889SOL     OW15563   0.584   6.407   2.644  0.3556  0.1502  0.3229
 1889SOL    HW115564   0.673   6.438   2.677  1.2174 -1.2056 -0.6882
 1889SOL    HW215565   0.571   6.437   2.550 -0.4296  0.6761  0.5941
 1890SOL     OW15566   7.163   0.882   2.777  0.0340  0.3554  0.2278
 1890SOL    HW115567   7.253   0.837   2.785  0.9558  2.1514  0.1681
 1890SOL    HW215568   7.158   0.957   2.844 -1.6604 -0.1149  0.6376
 1891SOL     OW15569   2.184   4.141   1.535  0.2307  0.1233 -0.5017
 1891SOL    HW115570   2.176   4.227   1.586  1.2908 -0.8724  1.3912
 1891SOL    HW215571   2.279   4.108   1.540 -0.5152 -1.9853  0.1579
 1892SOL     OW15572   2.792   5.168   2.451 -0.6133 -0.5114  0.5508
 1892SOL    HW115573   2.762   5.215   2.533 -0.1903  1.4509 -0.3983
 1892SOL    HW215574   2.890   5.149   2.457 -0.9503 -2.0846  1.3092
 1894SOL     OW15575   2.096   6.202   0.034  0.2295  0.2413  0.3141
 1894SOL    HW115576   2.007   6.184   0.076 -0.2985  0.3190 -0.7501
 1894SOL    HW215577   2.151   6.258   0.096  0.2485 -1.3496  1.7834
 1895SOL     OW15578   9.661   8.756   5.197 -0.1264  0.2025 -0.4207
 1895SOL    HW115579   9.648   8.785   5.292 -2.3073 -0.0977 -0.6021
 1895SOL    HW215580   9.599   8.681   5.176  0.0710  0.5140 -2.2026
 1897SOL     OW15581   8.612   5.268   2.262 -0.6613 -0.1291  0.1170
 1897SOL    HW115582   8.687   5.216   2.221  0.5517  1.2312  0.5642
 1897SOL    HW215583   8.609   5.359   2.221 -1.0512  0.3706  1.2302
 1898SOL     OW15584   0.674   5.779   5.289 -0.1667 -0.5729  0.1159
 1898SOL    HW115585   0.691   5.696   5.341  1.1649 -0.1244  0.4059
 1898SOL    HW215586   0.582   5.813   5.309 -0.7673 -2.0412 -0.1065
 1899SOL     OW15587   1.224   9.604   3.807 -0.0578 -0.1719  0.1152
 1899SOL    HW115588   1.195   9.512   3.782 -0.6586  0.3599 -1.1535
 1899SOL    HW215589   1.154   9.645   3.866 -1.0430  0.4264 -1.4429
 1900SOL     OW15590   3.546   3.315   1.315 -0.1964  0.1155  0.8151
 1900SOL    HW115591   3.580   3.228   1.277 -0.3447  0.1419  0.6222
 1900SOL    HW215592   3.493   3.296   1.397 -1.1152 -0.0661  0.1821
 1901SOL     OW15593   4.192   6.633   1.468 -0.2212 -0.0166 -0.3954
 1901SOL    HW115594   4.173   6.713   1.411 -1.6816  0.9334  1.3721
 1901SOL    HW215595   4.269   6.654   1.529  0.5606 -0.6122 -1.1611
 1902SOL     OW15596   1.884   0.806   3.491 -0.0110  0.0642 -0.3496
 1902SOL    HW115597   1.820   0.736   3.460  0.1651  0.7266 -2.2306
 1902SOL    HW215598   1.976   0.782   3.463  0.0071  1.2069 -1.3251
 1904SOL     OW15599   1.910   2.172   3.998 -0.2040  0.3447  0.0138
 1904SOL    HW115600   1.982   2.119   3.952 -0.3907  0.6685 -0.6436
 1904SOL    HW215601   1.921   2.163   4.097 -0.1882 -0.8760 -0.0923
 1905SOL     OW15602   4.434   8.786   1.532  0.1402 -0.1998  0.2349
 1905SOL    HW115603   4.480   8.854   1.589 -0.5701  0.8147 -0.3915
 1905SOL    HW215604   4.335   8.796   1.541  0.0195 -0.0686 -1.1228
 1906SOL     OW15605   8.763   3.381   1.526 -0.4214  0.4785  0.5886
 1906SOL    HW115606   8.664   3.382   1.512 -0.4354  0.0994  0.6548
 1906SOL    HW215607   8.805   3.452   1.470 -0.5046 -0.8544 -1.2283
 1907SOL     OW15608   7.648   8.632   3.104  0.5751 -0.4538  0.3759
 1907SOL    HW115609   7.719   8.561   3.108  0.5594 -0.4618  0.5154
 1907SOL    HW215610   7.623   8.648   3.009  3.0397  1.8096  0.0616
 1909SOL     OW15611   6.276   9.796   3.426 -0.1278  0.4985  0.1278
 1909SOL    HW115612   6.211   9.837   3.490  0.0377  0.0029  0.6159
 1909SOL    HW215613   6.370   9.817   3.455 -0.0556  1.3659 -0.6733
 1910SOL     OW15614   2.167   0.622   3.761  0.2466  0.2176 -0.0567
 1910SOL    HW115615   2.243   0.559   3.744 -0.0743 -0.5576  1.2454
 1910SOL    HW215616   2.083   0.582   3.726  0.2958  0.6916 -0.7290
 1911SOL     OW15617   5.373   0.918   5.241  0.6315 -0.8269 -0.3026
 1911SOL    HW115618   5.276   0.940   5.227  0.3654 -1.7401  0.0875
 1911SOL    HW215619   5.404   0.857   5.168  1.2349  0.3806 -1.0877
 1913SOL     OW15620   6.061   0.422   4.252 -0.1763 -0.6573  0.4762
 1913SOL    HW115621   6.114   0.344   4.219 -1.2214 -1.1819  0.0257
 1913SOL    HW215622   6.110   0.507   4.231  1.0978 -1.1977  1.2277
 1914SOL     OW15623   1.136   3.086   1.638 -0.3122  0.3030  0.1285
 1914SOL    HW115624   1.214   3.148   1.630 -1.9437  2.5645  1.0147
 1914SOL    HW215625   1.136   3.022   1.561  1.4030  1.4285 -0.8415
 1915SOL     OW15626   3.986   4.132   2.926  0.2771  0.0877 -0.1196
 1915SOL    HW115627   3.963   4.202   2.994 -1.5837 -0.1910 -0.4355
 1915SOL    HW215628   3.905   4.112   2.870  1.0562 -1.6436 -0.6520
 1916SOL     OW15629   8.929   5.249   0.896  0.1113  0.0875  0.1626
 1916SOL    HW115630   8.957   5.171   0.839  0.6255 -0.2808  0.8983
 1916SOL    HW215631   8.977   5.331   0.865 -0.2831  0.0722 -0.4956
 1918SOL     OW15632   0.217   1.429   3.416  0.1238  0.5351 -0.5252
 1918SOL    HW115633   0.249   1.502   3.476 -0.5694 -1.0082  1.8138
 1918SOL    HW215634   0.273   1.347   3.430 -1.5020 -0.5575 -0.2234
 1919SOL     OW15635   2.026   9.949   5.172  0.4721 -0.2043 -0.0765
 1919SOL    HW115636   2.048   9.948   5.270 -2.3061  1.0313  0.6112
 1919SOL    HW215637   2.054  10.037   5.133  1.8948 -0.8289 -0.4915
 1920SOL     OW15638   5.444   8.749   4.343  0.0362 -0.1591 -0.3019
 1920SOL    HW115639   5.530   8.722   4.386  1.3809  1.6582 -1.7971
 1920SOL    HW215640   5.442   8.715   4.249 -0.5940  0.4069 -0.4950
 1921SOL     OW15641   0.897   7.081   5.007 -0.5785  0.1198  0.8093
 1921SOL    HW115642   0.969   7.106   5.072 -0.8856 -0.3770  1.3476
 1921SOL    HW215643   0.813   7.130   5.031 -0.6145  0.1472  0.6228
 1922SOL     OW15644   1.932   8.254   4.740 -0.1760 -0.3548  0.5277
 1922SOL    HW115645   2.027   8.255   4.709 -0.5679 -1.2646 -0.7534
 1922SOL    HW215646   1.903   8.159   4.753 -1.4927 -0.1719 -0.9663
 1923SOL     OW15647   2.957   7.363   4.996  0.1613 -0.2194  0.3998
 1923SOL    HW115648   2.924   7.428   4.928  0.5825  0.2811  0.6712
 1923SOL    HW215649   2.901   7.280   4.992  1.7433 -1.2090 -2.2487
 1924SOL     OW15650   0.464   5.548   0.606 -0.2099  0.5134  0.0471
 1924SOL    HW115651   0.510   5.468   0.644 -0.2796 -0.1181 -1.1768
 1924SOL    HW215652   0.405   5.520   0.530  0.6534  1.8572 -1.1609
 1925SOL     OW15653   9.905   7.114   0.871 -0.6638 -0.1909 -0.5323
 1925SOL    HW115654   9.806   7.108   0.855 -0.7643 -2.2426  0.6497
 1925SOL    HW215655   9.952   7.045   0.816 -0.1842 -1.1130  0.9840
 1927SOL     OW15656   1.140   2.029   3.626  0.0452 -0.1411  0.2291
 1927SOL    HW115657   1.126   2.104   3.561 -0.6265 -0.3573  0.1165
 1927SOL    HW215658   1.237   2.017   3.643  0.3430 -1.1709 -2.0103
 1928SOL     OW15659   1.595   9.527   4.711  0.1553  0.2055 -0.1161
 1928SOL    HW115660   1.568   9.447   4.764  2.2398 -0.8045 -0.5133
 1928SOL    HW215661   1.625   9.600   4.773  0.8865 -0.3278  0.1658
 1929SOL     OW15662   3.641   4.408   1.327 -0.1079  0.4495 -0.5361
 1929SOL    HW115663   3.657   4.466   1.247  1.6804  0.2635 -0.3392
 1929SOL    HW215664   3.609   4.318   1.297  0.6644  0.3431 -1.0562
 1930SOL     OW15665   0.243   2.677   3.942  0.2825 -0.5081 -0.1602
 1930SOL    HW115666   0.152   2.693   3.980  1.1233 -0.0609  1.6690
 1930SOL    HW215667   0.272   2.757   3.889 -0.6339 -0.9050 -1.2976
 1931SOL     OW15668   9.961   1.354   3.543  0.3276 -0.3312 -0.8440
 1931SOL    HW115669  10.042   1.373   3.487  0.4160 -1.0584 -0.9800
 1931SOL    HW215670   9.912   1.276   3.505  0.5756 -1.0493  0.2640
 1933SOL     OW15671   0.015   6.162   3.155 -0.1872 -0.4350 -0.4442
 1933SOL    HW115672   0.111   6.149   3.131  0.3615 -0.9760  1.8988
 1933SOL    HW215673   0.006   6.241   3.215 -1.1459 -0.6696 -0.2696
 1934SOL     OW15674   3.511   0.634   3.471  0.4762  0.3281  0.3219
 1934SOL    HW115675   3.562   0.717   3.490  1.5698 -0.3510  0.3739
 1934SOL    HW215676   3.424   0.637   3.520  0.0376  1.8982 -0.5014
 1935SOL     OW15677   3.751   0.213   3.540 -0.7427 -0.1634  0.0059
 1935SOL    HW115678   3.733   0.290   3.479  2.1465 -0.0249 -0.7480
 1935SOL    HW215679   3.814   0.149   3.496 -0.8373 -1.5160  1.7435
 1937SOL     OW15680   8.123   7.661   3.775  0.4098  0.6374  0.1849
 1937SOL    HW115681   8.130   7.679   3.677 -1.2730 -2.0093 -0.4728
 1937SOL    HW215682   8.037   7.614   3.794  1.4018 -0.2344  2.7168
 1938SOL     OW15683   0.353   4.454   3.381 -0.3844 -0.5529  0.1049
 1938SOL    HW115684   0.453   4.451   3.379 -0.3208  0.0421  1.7468
 1938SOL    HW215685   0.319   4.485   3.293  0.8916 -0.3738 -0.3363
 1939SOL     OW15686   9.699   5.462   3.555 -0.5512  0.6969  0.0218
 1939SOL    HW115687   9.643   5.381   3.569  0.1143 -0.0421 -1.4687
 1939SOL    HW215688   9.640   5.542   3.544 -1.3332 -0.0634 -1.4763
 1940SOL     OW15689   1.695   8.570   5.300 -0.5616 -0.6159 -0.1962
 1940SOL    HW115690   1.777   8.601   5.253 -1.0981  1.0339 -0.0810
 1940SOL    HW215691   1.717   8.547   5.395  0.1737 -2.2757 -0.7434
 1941SOL     OW15692   7.681   1.154   4.253 -0.0173  0.2081  0.3913
 1941SOL    HW115693   7.720   1.226   4.312 -0.6127 -0.6735  1.8854
 1941SOL    HW215694   7.753   1.091   4.225  0.3877  1.0060 -0.3640
 1942SOL     OW15695   2.950   2.872   0.682 -0.1863  0.2938  0.2350
 1942SOL    HW115696   2.912   2.786   0.718  1.3206 -0.3192  0.3749
 1942SOL    HW215697   3.031   2.897   0.735  0.5629  0.7371 -1.1133
 1943SOL     OW15698   5.994   0.014   4.863 -0.4591  0.0762  0.2735
 1943SOL    HW115699   6.034  -0.025   4.781 -0.1373 -0.4465  0.6717
 1943SOL    HW215700   5.974   0.110   4.848  0.8474  0.3179  0.0228
 1944SOL     OW15701   0.991   1.424   5.120 -0.2792 -1.3370  0.3096
 1944SOL    HW115702   1.026   1.353   5.059 -1.9960 -1.1638 -0.8901
 1944SOL    HW215703   0.974   1.508   5.068  0.0234 -0.6019  1.3791
 1945SOL     OW15704   2.787   9.481   2.497 -0.1907  0.1772 -0.2572
 1945SOL    HW115705   2.755   9.406   2.556  0.3422 -0.0460 -0.2515
 1945SOL    HW215706   2.866   9.451   2.444  1.2413  1.3200  1.1604
 1947SOL     OW15707   8.184   4.434   1.052  0.5152  0.1750  0.1423
 1947SOL    HW115708   8.151   4.501   1.119 -0.9315 -1.0494  0.6699
 1947SOL    HW215709   8.227   4.483   0.975  1.6042  1.6073  1.6290
 1948SOL     OW15710   6.686   8.866   2.581 -0.4648  0.8266  0.4252
 1948SOL    HW115711   6.785   8.863   2.566 -0.1783  3.8305  1.4892
 1948SOL    HW215712   6.660   8.797   2.649  0.7603 -0.5037 -0.4270
 1949SOL     OW15713   4.785   5.376   2.147 -0.6003 -0.3003 -0.3576
 1949SOL    HW115714   4.834   5.455   2.184 -1.0528  0.0350 -0.4687
 1949SOL    HW215715   4.820   5.355   2.055  0.0140 -0.6767 -0.0431
 1950SOL     OW15716   0.877   1.028   3.192 -0.1519 -0.1065 -0.2601
 1950SOL    HW115717   0.915   1.035   3.100  1.6855 -0.1715  0.4829
 1950SOL    HW215718   0.821   0.945   3.199  2.0045 -1.6089 -0.5058
 1951SOL     OW15719   4.788   8.452   3.543 -0.3887  0.3055  0.7121
 1951SOL    HW115720   4.791   8.465   3.643 -0.1597  0.3982  0.6931
 1951SOL    HW215721   4.856   8.510   3.500 -2.2202  2.2045  0.3009
 1952SOL     OW15722   2.724   9.177   3.384  0.0355 -0.0637 -0.1435
 1952SOL    HW115723   2.656   9.227   3.331  0.7123  0.5994 -0.4066
 1952SOL    HW215724   2.744   9.089   3.339 -1.7948 -0.9698  0.7926
 1953SOL     OW15725   8.556   5.852   1.092  0.6225 -0.1222 -0.5197
 1953SOL    HW115726   8.459   5.844   1.066  0.1840  0.1906  0.9761
 1953SOL    HW215727   8.594   5.760   1.104  0.8182 -0.2791 -2.1288
 1955SOL     OW15728   0.163   4.485   2.786 -0.2987 -0.0467 -0.2176
 1955SOL    HW115729   0.117   4.442   2.863  0.8291  1.3020  1.2524
 1955SOL    HW215730   0.097   4.500   2.712 -1.6833 -0.2664  0.9387
 1956SOL     OW15731   0.439   4.090   4.762 -0.0389 -0.5892  0.5000
 1956SOL    HW115732   0.493   4.056   4.839  1.9294 -0.8772 -0.9695
 1956SOL    HW215733   0.395   4.176   4.787  1.3431 -0.1970  1.6468
 1958SOL     OW15734   8.788   0.299   1.274  0.1203 -0.1506 -0.3787
 1958SOL    HW115735   8.842   0.308   1.357 -0.0935  0.0325 -0.2578
 1958SOL    HW215736   8.816   0.368   1.207 -0.6185  0.5798  0.0489
 1959SOL     OW15737   5.077   4.458   0.890 -0.1119 -0.8436  0.1921
 1959SOL    HW115738   5.079   4.557   0.901  0.4771 -0.6431 -1.6378
 1959SOL    HW215739   5.063   4.415   0.980 -1.7533  0.9127  0.7955
 1960SOL     OW15740   0.509   4.767   1.261 -0.2123 -0.1271  0.0400
 1960SOL    HW115741   0.517   4.859   1.222  0.3319  0.0242  0.4934
 1960SOL    HW215742   0.553   4.766   1.351  1.2621 -1.2595 -0.6816
 1962SOL     OW15743   7.607   0.905   5.266  0.0248  0.6408 -0.5524
 1962SOL    HW115744   7.646   0.997   5.271  0.1891  0.5563 -0.2624
 1962SOL    HW215745   7.534   0.904   5.198 -0.5113  1.1847  0.0094
 1963SOL     OW15746   2.418   3.931   2.334 -0.6046  0.6878 -0.4124
 1963SOL    HW115747   2.501   3.905   2.284 -0.0676  1.2589  0.1647
 1963SOL    HW215748   2.429   4.025   2.368 -0.0134 -0.4993  2.7658
 1964SOL     OW15749   9.362   2.068   2.791  0.1940 -0.7223 -0.6465
 1964SOL    HW115750   9.360   1.969   2.806 -1.3192 -0.7925 -1.2377
 1964SOL    HW215751   9.417   2.088   2.710 -0.3607 -1.1624 -1.1364
 1965SOL     OW15752   4.976   0.792   4.017 -0.4617 -0.0276  0.1186
 1965SOL    HW115753   5.052   0.804   4.080  0.5387  1.1719 -1.2845
 1965SOL    HW215754   4.954   0.694   4.010  0.6077 -0.3370  0.9043
 1966SOL     OW15755   9.873   1.759   4.401  0.5585 -0.2147 -0.3086
 1966SOL    HW115756   9.928   1.676   4.402 -0.5930 -1.0086 -1.0059
 1966SOL    HW215757   9.911   1.826   4.464 -0.2119 -2.4218  2.5993
 1967SOL     OW15758   2.177   5.617   4.075  0.1202  0.8607 -0.5831
 1967SOL    HW115759   2.139   5.697   4.029 -2.6103  0.4813  0.8671
 1967SOL    HW215760   2.231   5.647   4.154 -0.8716  1.3179 -0.0563
 1968SOL     OW15761   8.158   8.043   2.961 -0.0143  0.0694  0.1691
 1968SOL    HW115762   8.178   7.962   2.905  1.5192  0.3736  0.2834
 1968SOL    HW215763   8.233   8.059   3.025  0.5599  2.6809 -1.1180
 1969SOL     OW15764   8.177   7.701   4.990 -0.0103 -0.1592 -0.8511
 1969SOL    HW115765   8.100   7.729   5.047  1.3552  1.7538  0.1098
 1969SOL    HW215766   8.149   7.695   4.894 -1.7343 -1.0878 -0.3058
 1970SOL     OW15767   8.482   4.944   0.097  0.1522  0.2680  0.5894
 1970SOL    HW115768   8.438   4.858   0.121 -0.6430  0.7317  0.7984
 1970SOL    HW215769   8.546   4.971   0.169  0.5331 -0.2284  0.4425
 1971SOL     OW15770   4.943   0.663   3.727  0.5768  0.2017 -0.0844
 1971SOL    HW115771   5.001   0.743   3.743 -1.5303  1.4830  1.3954
 1971SOL    HW215772   4.900   0.670   3.637 -1.4893  1.9929  1.0010
 1972SOL     OW15773   3.906   0.474   5.214 -0.4912  0.3045  0.2143
 1972SOL    HW115774   4.001   0.500   5.229 -0.4451 -0.0252  0.4949
 1972SOL    HW215775   3.893   0.449   5.118  0.2947 -2.0694  0.6892
 1973SOL     OW15776   9.024   2.611   3.357  0.6194  0.1310  0.5002
 1973SOL    HW115777   9.057   2.600   3.264 -2.1949  2.8192 -0.8951
 1973SOL    HW215778   8.985   2.525   3.389 -0.3091 -0.2574 -1.6111
 1974SOL     OW15779   3.069   6.985   0.794  0.5062  0.0016 -0.2071
 1974SOL    HW115780   3.058   7.052   0.868 -1.2652  1.5857 -1.8326
 1974SOL    HW215781   3.009   7.010   0.718  2.4329 -1.4746 -2.2732
 1975SOL     OW15782   9.870   1.536   1.955 -0.3532  0.4375  0.0827
 1975SOL    HW115783   9.775   1.528   1.985  0.3999 -1.2037  2.0615
 1975SOL    HW215784   9.923   1.585   2.024  0.4618  0.4572 -0.5502
 1976SOL     OW15785   1.826   2.659   3.172 -0.0506  0.0533 -0.1927
 1976SOL    HW115786   1.825   2.560   3.182  1.0170  0.0742  0.2205
 1976SOL    HW215787   1.792   2.702   3.255  0.2149  0.0447 -0.0787
 1977SOL     OW15788   8.814   1.668   4.708 -0.3248 -0.0814  0.2359
 1977SOL    HW115789   8.834   1.766   4.704  2.2405 -0.5193  1.5030
 1977SOL    HW215790   8.805   1.632   4.615  0.1372  1.0883 -0.2674
 1978SOL     OW15791   0.073   8.359   4.458  0.5626 -0.1538 -0.3987
 1978SOL    HW115792   0.111   8.447   4.490  0.6900 -0.0681 -0.7754
 1978SOL    HW215793   0.145   8.290   4.457  0.1990 -0.5623  1.0094
 1979SOL     OW15794   5.605   8.364   4.745 -0.0699 -0.0540 -0.1417
 1979SOL    HW115795   5.556   8.351   4.659  0.1411 -2.3469  0.0363
 1979SOL    HW215796   5.703   8.365   4.727 -0.0761  1.1526 -0.1141
 1983SOL     OW15797   8.731   8.801   1.441  0.2250 -0.2692  0.2435
 1983SOL    HW115798   8.779   8.789   1.354 -1.1054  0.4087 -0.6053
 1983SOL    HW215799   8.686   8.890   1.442 -1.6953 -1.2072  0.6669
 1984SOL     OW15800   1.675   1.022   2.333  0.0374  0.4867  1.0947
 1984SOL    HW115801   1.705   0.930   2.356  0.8945  0.5338  0.1666
 1984SOL    HW215802   1.744   1.068   2.278 -1.4279  0.8313 -0.5052
 1985SOL     OW15803   9.881   2.543   1.764  0.1803  0.0505  0.0694
 1985SOL    HW115804   9.912   2.509   1.853 -0.7948 -1.0044  0.0136
 1985SOL    HW215805   9.903   2.476   1.693  0.4308  0.6291 -0.4039
 1986SOL     OW15806   8.388   2.332   0.561  0.4129  0.1336  0.8583
 1986SOL    HW115807   8.344   2.243   0.548  0.9189  0.1217 -0.8559
 1986SOL    HW215808   8.318   2.403   0.571  0.0105 -0.3497  1.5147
 1987SOL     OW15809   7.050   2.209   0.844  0.5872 -0.2566 -0.5497
 1987SOL    HW115810   7.134   2.154   0.849  0.1522 -0.9252 -0.6077
 1987SOL    HW215811   6.989   2.183   0.919 -0.7769 -1.7655 -2.1413
 1988SOL     OW15812   3.353   6.737   4.919  0.1588 -0.5379  0.4868
 1988SOL    HW115813   3.289   6.660   4.919 -0.2506 -0.2063  0.8400
 1988SOL    HW215814   3.366   6.769   5.013 -1.0896  0.9680  0.1693
 1990SOL     OW15815   9.607   5.357   0.482  0.0135  0.6835  0.2007
 1990SOL    HW115816   9.589   5.259   0.481  1.4307  0.4022  0.4032
 1990SOL    HW215817   9.642   5.385   0.392 -0.8682  1.0996 -0.0143
 1991SOL     OW15818   4.333   3.642   2.100 -0.0625  0.0770  0.0555
 1991SOL    HW115819   4.392   3.720   2.080  1.2585 -0.9811 -0.2786
 1991SOL    HW215820   4.298   3.604   2.014 -2.2481  1.4316  0.3013
 1992SOL     OW15821   3.301   6.627   1.385  0.1231 -0.8696 -0.0210
 1992SOL    HW115822   3.319   6.724   1.401  1.4922 -1.2963  1.1382
 1992SOL    HW215823   3.206   6.615   1.356  0.4608  0.9993 -2.0108
 1993SOL     OW15824   3.944   3.383   4.930  0.2320  0.3880 -0.5486
 1993SOL    HW115825   3.894   3.302   4.960  0.8517  0.2026 -0.0179
 1993SOL    HW215826   3.963   3.442   5.009 -1.8809  1.9868 -1.1951
 1994SOL     OW15827   3.516   9.396   3.992 -0.1608  0.7723 -0.1551
 1994SOL    HW115828   3.538   9.446   4.076 -0.5083 -0.7538  0.8520
 1994SOL    HW215829   3.601   9.371   3.945  0.0302  1.7006 -0.3177
 1995SOL     OW15830   6.035   9.694   3.032  0.3442  1.0067 -0.1626
 1995SOL    HW115831   6.034   9.712   3.130 -0.0711  0.2088 -0.0125
 1995SOL    HW215832   6.123   9.653   3.007 -0.4196 -1.0126  0.3138
 1996SOL     OW15833   1.698   3.232   4.256  0.4436 -0.4808 -0.2283
 1996SOL    HW115834   1.635   3.177   4.311  0.2601 -1.1586 -1.1224
 1996SOL    HW215835   1.650   3.268   4.176  1.4515 -1.8637 -1.4745
 1997SOL     OW15836   1.822   5.708   2.531 -0.8525 -0.3858 -0.0277
 1997SOL    HW115837   1.810   5.789   2.588 -0.4279 -0.0988 -0.3439
 1997SOL    HW215838   1.893   5.725   2.462 -0.7869 -1.0071 -0.1229
 1998SOL     OW15839   3.341  10.000   2.351  0.7548 -0.4395  0.0285
 1998SOL    HW115840   3.263  10.059   2.333  1.4129  0.2831 -0.4995
 1998SOL    HW215841   3.324   9.945   2.433  0.7819  1.6529  1.4759
 1999SOL     OW15842   8.841   5.624   2.145  0.7538  0.3186  0.4522
 1999SOL    HW115843   8.763   5.568   2.118 -0.2105  0.6939  2.3416
 1999SOL    HW215844   8.889   5.578   2.220  1.2078  1.0078  0.5824
 2000SOL     OW15845   1.629   9.375   0.274 -0.4508  0.3178  0.1832
 2000SOL    HW115846   1.574   9.454   0.303 -0.6097  0.7699 -1.3073
 2000SOL    HW215847   1.623   9.304   0.343 -1.7176  0.9490  0.7496
 2001SOL     OW15848   3.595   6.219   0.386 -0.6710  0.6484 -0.2506
 2001SOL    HW115849   3.666   6.249   0.449 -0.9606 -0.1915  0.4992
 2001SOL    HW215850   3.506   6.248   0.420 -0.7880  0.5957 -0.5122
 2002SOL     OW15851   9.327   5.182   0.746  0.4262 -0.5116 -0.7365
 2002SOL    HW115852   9.324   5.123   0.665  2.9514 -0.6320 -0.7958
 2002SOL    HW215853   9.421   5.184   0.781 -0.2084  1.2779  0.9068
 2004SOL     OW15854   9.213   4.915   4.418 -0.4129 -0.5937  0.4708
 2004SOL    HW115855   9.282   4.988   4.421 -0.9574  0.0565 -1.5468
 2004SOL    HW215856   9.216   4.862   4.502 -0.2120  1.9667  2.1306
 2005SOL     OW15857   2.732   3.253   2.457 -0.2250 -0.3771 -0.3767
 2005SOL    HW115858   2.679   3.200   2.390 -0.2158 -0.0617 -0.6374
 2005SOL    HW215859   2.679   3.333   2.485 -0.0430 -0.2656 -0.3521
 2006SOL     OW15860   2.760   6.590   4.466 -0.4729  0.1580  0.0027
 2006SOL    HW115861   2.728   6.652   4.394 -1.7689  1.1292  1.3764
 2006SOL    HW215862   2.810   6.643   4.535  1.0799 -0.8174 -0.3352
 2007SOL     OW15863   8.145   6.176   4.461  0.1169  0.4725  0.6004
 2007SOL    HW115864   8.230   6.123   4.461  0.0970  0.4308 -0.0052
 2007SOL    HW215865   8.069   6.119   4.490 -0.0590 -0.1010 -0.9381
 2010SOL     OW15866   1.260   4.601   4.714  0.1391 -0.1587 -0.4574
 2010SOL    HW115867   1.262   4.571   4.619 -2.2695 -1.5659 -0.1073
 2010SOL    HW215868   1.183   4.558   4.761  0.4420  1.6226  1.7645
 2012SOL     OW15869   4.751   0.303   0.264 -0.1760  0.0020  0.3028
 2012SOL    HW115870   4.814   0.265   0.332 -1.0718 -0.0761  1.0988
 2012SOL    HW215871   4.702   0.229   0.219  0.0967  0.0768 -0.1185
 2013SOL     OW15872   3.300   7.413   1.295 -0.5752 -0.5039 -0.5754
 2013SOL    HW115873   3.216   7.365   1.321 -0.5421 -0.8862 -1.1587
 2013SOL    HW215874   3.295   7.508   1.326 -1.8533 -0.1297 -1.8889
 2014SOL     OW15875   8.578   2.925   3.376  0.6060 -0.3872  0.0593
 2014SOL    HW115876   8.666   2.892   3.411  1.0145  0.8678  0.2263
 2014SOL    HW215877   8.518   2.946   3.453 -0.2212 -2.1980 -0.0564
 2015SOL     OW15878   0.836   3.801   0.320 -0.0609  0.6448 -0.0972
 2015SOL    HW115879   0.934   3.780   0.326  0.2950  2.1756 -0.3554
 2015SOL    HW215880   0.785   3.717   0.301  1.1288 -0.2844  0.7585
 2016SOL     OW15881   2.123   7.441   1.042 -0.2016  0.7215 -0.2437
 2016SOL    HW115882   2.165   7.351   1.032 -0.7947  0.4833 -0.6145
 2016SOL    HW215883   2.190   7.505   1.077  1.0476  0.7960 -2.6347
 2017SOL     OW15884   5.089   8.444   2.023 -0.3411 -0.9276  0.0456
 2017SOL    HW115885   5.032   8.384   1.968 -0.0482 -1.3233  0.1771
 2017SOL    HW215886   5.049   8.455   2.114 -0.4620 -0.8184 -0.0203
 2018SOL     OW15887   3.142   0.714   2.464 -0.0551 -0.2963  0.0727
 2018SOL    HW115888   3.165   0.644   2.396  0.6150 -1.8997  1.8906
 2018SOL    HW215889   3.178   0.687   2.553  2.3305  3.5755  0.3893
 2019SOL     OW15890   2.283   5.210   4.366  0.8119 -0.0337 -0.0649
 2019SOL    HW115891   2.265   5.293   4.418  3.0484  0.0025  0.6649
 2019SOL    HW215892   2.231   5.214   4.280  0.2967  1.7517  0.2987
 2020SOL     OW15893   2.669   9.337   3.892  0.1354 -0.3026 -0.1968
 2020SOL    HW115894   2.746   9.385   3.850 -0.6884  1.0661 -0.1776
 2020SOL    HW215895   2.684   9.328   3.990  0.2514  0.0395 -0.1816
 2021SOL     OW15896   0.774   4.581   2.912 -0.9054 -0.1248  0.5360
 2021SOL    HW115897   0.692   4.625   2.876  0.4946  1.1863 -1.1374
 2021SOL    HW215898   0.790   4.612   3.006 -0.4254  2.3457 -0.3170
 2022SOL     OW15899   1.346   5.490   4.851  0.3000 -0.3566  0.0830
 2022SOL    HW115900   1.419   5.558   4.845 -0.2150  0.4305  2.1309
 2022SOL    HW215901   1.351   5.443   4.940 -1.2631 -0.7567 -0.0170
 2023SOL     OW15902   7.635   1.755   0.370  0.3025 -0.2865 -0.3471
 2023SOL    HW115903   7.696   1.809   0.313  0.2144  0.2615  0.0766
 2023SOL    HW215904   7.541   1.784   0.354  0.5394  2.5179  2.8327
 2028SOL     OW15905   9.039   8.815   2.045 -0.1304  0.3620  0.2753
 2028SOL    HW115906   9.059   8.860   2.133  1.4642  0.3507 -0.0738
 2028SOL    HW215907   9.006   8.723   2.062 -1.5434  0.9625  0.9241
 2029SOL     OW15908   7.952   7.039   3.346 -0.3056  0.1473 -0.1864
 2029SOL    HW115909   8.024   7.039   3.415  1.3504  2.3408 -1.8475
 2029SOL    HW215910   7.980   6.981   3.269 -1.6792 -1.4251  0.4520
 2030SOL     OW15911   8.900   6.726   2.887  0.1393  0.0304 -0.6502
 2030SOL    HW115912   8.832   6.784   2.931  0.2739  0.4619 -1.0073
 2030SOL    HW215913   8.879   6.630   2.905 -0.8022  0.1495 -1.1041
 2031SOL     OW15914   0.469   5.101   2.941 -0.0803  0.0102  0.1813
 2031SOL    HW115915   0.546   5.149   2.898 -0.3116 -0.0288 -0.2892
 2031SOL    HW215916   0.436   5.154   3.019  1.3081 -0.6448  1.2471
 2032SOL     OW15917   7.809   1.947   5.178  0.3618 -0.5604 -0.6746
 2032SOL    HW115918   7.906   1.928   5.164  0.8676  1.2534  0.1375
 2032SOL    HW215919   7.791   1.959   5.276 -0.9087 -1.9617 -0.7100
 2034SOL     OW15920   3.819   5.441   0.637  0.5385  0.0421 -0.1753
 2034SOL    HW115921   3.753   5.448   0.711  0.0804  0.2739 -0.6026
 2034SOL    HW215922   3.809   5.519   0.576  0.7186 -0.2916 -0.6373
 2035SOL     OW15923   3.276   1.677   4.999 -0.5652 -0.0490 -0.0009
 2035SOL    HW115924   3.350   1.725   5.046  0.9353 -0.9166 -1.4181
 2035SOL    HW215925   3.242   1.735   4.925 -0.6515 -0.0332  0.0518
 2036SOL     OW15926   8.472   3.331   1.470  0.0118 -0.2285  0.2775
 2036SOL    HW115927   8.436   3.390   1.397  0.1299 -1.2756 -0.6410
 2036SOL    HW215928   8.479   3.237   1.437  1.0754 -0.5284  1.3072
 2037SOL     OW15929   7.610   9.316   1.761  0.1974 -0.4102 -0.1339
 2037SOL    HW115930   7.613   9.217   1.774  0.8392 -0.5141 -1.0095
 2037SOL    HW215931   7.534   9.339   1.699  1.8786 -0.6548 -2.3487
 2040SOL     OW15932   1.885   0.901   3.740 -0.4354  0.7289  0.4437
 2040SOL    HW115933   1.874   0.828   3.672  0.9734  0.2402  0.7258
 2040SOL    HW215934   1.910   0.986   3.694 -0.9808  0.7660  0.2138
 2041SOL     OW15935   1.982   8.212   3.712 -0.3599 -0.7705 -0.2700
 2041SOL    HW115936   1.966   8.119   3.680  1.3234  0.0687 -3.8205
 2041SOL    HW215937   2.048   8.211   3.787  0.7840 -2.3664 -1.2629
 2042SOL     OW15938   1.924   1.065   1.606 -0.2517 -0.5485 -0.5203
 2042SOL    HW115939   1.964   1.045   1.517 -0.7253 -1.5232 -0.5150
 2042SOL    HW215940   1.987   1.123   1.658 -0.5013  1.0624 -1.9392
 2043SOL     OW15941   9.855   0.974   3.665  0.1748  0.5707  0.1047
 2043SOL    HW115942   9.793   0.895   3.664 -0.9462  1.4388 -0.8890
 2043SOL    HW215943   9.812   1.051   3.618  1.8163  1.3511 -0.1764
 2046SOL     OW15944   5.838   7.353   4.489  0.3288  0.4093  0.0991
 2046SOL    HW115945   5.742   7.347   4.513  0.5114  0.3439  0.8019
 2046SOL    HW215946   5.846   7.376   4.392 -0.3888 -0.0105 -0.0616
 2047SOL     OW15947   2.043   9.186   4.526  0.0172  0.4411  0.0358
 2047SOL    HW115948   1.970   9.254   4.537 -1.7158 -1.3910  0.2103
 2047SOL    HW215949   2.025   9.131   4.445 -0.3375 -1.8416  1.6146
 2048SOL     OW15950   7.791   1.660   0.873 -0.0261 -0.0282 -0.1891
 2048SOL    HW115951   7.812   1.563   0.883 -0.5011 -0.0007  1.2942
 2048SOL    HW215952   7.726   1.673   0.798  0.0476 -0.8532 -0.3985
 2049SOL     OW15953   1.114   4.564   5.077 -0.8373  0.0007  0.2626
 2049SOL    HW115954   1.125   4.641   5.140  2.1523  0.3277 -0.5566
 2049SOL    HW215955   1.126   4.478   5.127  0.3176  0.2237  0.3877
 2050SOL     OW15956   8.652   7.074   1.823  0.5920  0.2394  0.7390
 2050SOL    HW115957   8.584   7.001   1.826  0.8664 -0.0115  0.8810
 2050SOL    HW215958   8.735   7.045   1.872  0.3185  1.0386  1.6914
 2051SOL     OW15959   2.364   2.510   2.084 -0.0593 -0.5414 -0.9671
 2051SOL    HW115960   2.269   2.539   2.073  0.1707  0.7072  0.1594
 2051SOL    HW215961   2.369   2.434   2.149 -0.1465  0.3890  0.1403
 2052SOL     OW15962   5.274   1.705   5.256  0.3377  0.0872  0.0888
 2052SOL    HW115963   5.287   1.735   5.351  1.0313 -1.4071  0.4971
 2052SOL    HW215964   5.201   1.637   5.252  1.5539 -1.2311 -0.1366
 2055SOL     OW15965   4.016   7.171   1.804  0.2774 -0.0522 -0.2971
 2055SOL    HW115966   3.978   7.232   1.734 -0.5708 -1.1978 -0.8370
 2055SOL    HW215967   4.087   7.114   1.763 -0.4014 -0.9071 -0.2791
 2056SOL     OW15968   5.900   0.850   1.590 -0.7284 -0.0955 -0.0570
 2056SOL    HW115969   5.959   0.924   1.622 -0.8467  0.7777 -1.8298
 2056SOL    HW215970   5.820   0.843   1.650 -0.1441  0.4407  0.8009
 2058SOL     OW15971   8.374   7.220   1.181  0.1715 -0.3267 -0.2986
 2058SOL    HW115972   8.326   7.162   1.246 -1.7252  1.2313 -0.2531
 2058SOL    HW215973   8.438   7.279   1.230  0.7811 -1.0872 -0.1618
 2059SOL     OW15974   3.169   6.781   3.694 -0.1030  0.2611  0.3079
 2059SOL    HW115975   3.206   6.867   3.660 -0.5024  0.9328  1.5291
 2059SOL    HW215976   3.094   6.751   3.634 -1.6947  2.1201  1.2814
 2061SOL     OW15977   7.984   9.254   3.717 -0.0856 -0.1557 -0.3063
 2061SOL    HW115978   8.029   9.339   3.690  0.4066 -0.4516 -0.4177
 2061SOL    HW215979   7.924   9.272   3.795 -0.0054  0.2997 -0.3449
 2062SOL     OW15980   5.617   2.355   3.603 -0.1497  0.1725  0.2016
 2062SOL    HW115981   5.619   2.293   3.525 -2.4135 -0.0162  0.2426
 2062SOL    HW215982   5.639   2.305   3.686  1.9953  0.3132 -0.2604
 2063SOL     OW15983   5.618   5.046   0.951  0.8359  0.5979  0.6051
 2063SOL    HW115984   5.708   5.072   0.916  1.5546 -0.8615  1.3376
 2063SOL    HW215985   5.627   5.012   1.045 -0.3993 -0.1407  0.4694
 2064SOL     OW15986   3.443   8.496   4.547 -0.6068  0.3104  0.4788
 2064SOL    HW115987   3.473   8.488   4.642 -1.1859 -0.4540  0.6079
 2064SOL    HW215988   3.468   8.412   4.497 -1.3870  0.2020  0.2674
 2066SOL     OW15989   4.981   1.257   1.201  0.0083 -0.7335 -0.0590
 2066SOL    HW115990   5.077   1.280   1.216 -0.2698 -1.1992  2.7583
 2066SOL    HW215991   4.924   1.316   1.260 -1.2622 -2.0956  0.0865
 2067SOL     OW15992   4.874   7.428   3.756  0.2401 -0.4598 -0.3018
 2067SOL    HW115993   4.885   7.354   3.689 -0.1667  0.2942 -1.2137
 2067SOL    HW215994   4.939   7.415   3.831  1.3521 -0.8143 -1.3033
 2069SOL     OW15995   9.109   5.418   4.466  0.5846 -0.6648 -0.1899
 2069SOL    HW115996   9.175   5.373   4.405 -0.8089 -1.4643 -1.1252
 2069SOL    HW215997   9.035   5.354   4.487 -0.8033  0.8049 -0.5601
 2070SOL     OW15998   0.714   2.136   2.677  0.0136 -0.3865  0.0934
 2070SOL    HW115999   0.797   2.117   2.625 -0.1437 -0.0089 -0.2927
 2070SOL    HW216000   0.665   2.212   2.635 -1.2213 -1.4838 -0.4722
 2071SOL     OW16001   1.542   3.850   1.516 -0.6283 -0.2545  0.1606
 2071SOL    HW116002   1.454   3.838   1.561 -0.7067 -0.4192 -0.0382
 2071SOL    HW216003   1.598   3.914   1.569 -1.5096  1.2143 -0.6386
 2072SOL     OW16004   1.235   7.698   1.968 -0.1570 -0.0100  0.0905
 2072SOL    HW116005   1.161   7.665   2.027 -1.0613  0.9615 -0.4659
 2072SOL    HW216006   1.236   7.798   1.969 -0.8573  0.0675 -2.3100
 2073SOL     OW16007   9.008   6.898   0.370  0.4930  0.2983 -0.4206
 2073SOL    HW116008   9.044   6.860   0.455 -0.6344 -0.3507 -0.2120
 2073SOL    HW216009   9.058   6.861   0.292  1.7876  1.1956 -0.0218
 2074SOL     OW16010   3.145   8.491   0.496  0.5832 -0.3205 -0.0979
 2074SOL    HW116011   3.149   8.518   0.400  1.1185 -0.2989 -0.0730
 2074SOL    HW216012   3.203   8.411   0.511 -0.7067 -1.2553 -0.0925
 2075SOL     OW16013   4.871   2.831   2.334 -0.6972  0.0445  0.2940
 2075SOL    HW116014   4.782   2.787   2.327 -1.8732  2.6915 -1.9856
 2075SOL    HW216015   4.933   2.792   2.267 -0.9309  0.0312  0.0860
 2077SOL     OW16016   7.983   5.147   5.155 -0.5307  0.4894 -0.7692
 2077SOL    HW116017   7.947   5.153   5.062 -1.3725 -1.1539 -0.5703
 2077SOL    HW216018   7.997   5.051   5.179 -0.6364  0.8866  0.9095
 2079SOL     OW16019   1.618   5.454   3.338 -0.4686 -0.3675  0.1820
 2079SOL    HW116020   1.575   5.510   3.266  0.1525 -0.6142 -0.3785
 2079SOL    HW216021   1.715   5.476   3.344 -0.2557 -1.2498  0.0835
 2080SOL     OW16022   8.639   2.901   4.559 -0.2052 -0.8057 -0.2201
 2080SOL    HW116023   8.545   2.928   4.579 -0.1421  0.1973 -1.1836
 2080SOL    HW216024   8.689   2.887   4.644 -0.4152  1.6032  0.3445
 2081SOL     OW16025   4.142   8.189   4.780  0.4846 -0.4121  0.0631
 2081SOL    HW116026   4.185   8.121   4.721 -0.2623 -0.2985 -0.6244
 2081SOL    HW216027   4.203   8.268   4.789  1.2188 -1.0335  0.6139
 2082SOL     OW16028   1.391   1.405   4.877  0.4521  0.2087 -0.1144
 2082SOL    HW116029   1.406   1.309   4.852  0.1087 -0.3717  1.7958
 2082SOL    HW216030   1.478   1.447   4.900  0.3950 -0.2065  0.9010
 2083SOL     OW16031   9.376   0.870   3.267 -0.4596  0.0056 -0.1494
 2083SOL    HW116032   9.424   0.909   3.188 -0.6412  0.9266  0.1928
 2083SOL    HW216033   9.346   0.777   3.245  1.4991 -0.6058 -0.3684
 2084SOL     OW16034   3.780   4.072   1.023 -0.0151 -0.0697 -0.3800
 2084SOL    HW116035   3.726   4.028   0.952 -2.2037  1.5390  0.2409
 2084SOL    HW216036   3.773   4.020   1.108 -0.0981 -0.1866 -0.4592
 2085SOL     OW16037   3.432   7.461   4.289  0.2309 -0.1891 -0.1167
 2085SOL    HW116038   3.393   7.419   4.371  0.8948 -0.0815  0.2551
 2085SOL    HW216039   3.421   7.560   4.294 -0.1208 -0.2126 -0.3665
 2086SOL     OW16040   1.317   4.327   0.544 -0.2121  0.2450  0.3686
 2086SOL    HW116041   1.337   4.395   0.474  0.4598 -0.5161 -0.1903
 2086SOL    HW216042   1.237   4.274   0.516  1.1393 -1.2712 -0.7322
 2087SOL     OW16043   3.540   3.967   2.403 -0.1646 -0.5540 -0.0229
 2087SOL    HW116044   3.579   3.880   2.375 -1.1393 -0.6916 -0.9756
 2087SOL    HW216045   3.499   3.958   2.494  1.1111 -0.6663  0.5534
 2088SOL     OW16046   0.875   5.019   4.292 -0.0692 -0.4953  0.6567
 2088SOL    HW116047   0.972   5.030   4.271 -0.3275 -0.1809 -0.4187
 2088SOL    HW216048   0.824   5.099   4.259 -1.1472 -2.1377 -1.8618
 2089SOL     OW16049   2.540   1.281   0.065 -0.3029 -0.1679  0.1814
 2089SOL    HW116050   2.570   1.362   0.015 -0.5344  0.1272  0.5230
 2089SOL    HW216051   2.493   1.218   0.003  0.5476 -0.3897 -0.2472
 2090SOL     OW16052   2.773   6.302   2.707 -0.2027 -0.7635 -0.1902
 2090SOL    HW116053   2.749   6.362   2.631  1.9874  0.6115  0.1731
 2090SOL    HW216054   2.833   6.229   2.674 -0.0470 -0.7420  0.0427
 2091SOL     OW16055   1.464   5.170   1.966 -0.2859  0.3699  0.1761
 2091SOL    HW116056   1.562   5.164   1.988 -0.1812 -0.2623 -0.4446
 2091SOL    HW216057   1.411   5.135   2.043  0.0849 -1.8255 -0.5325
 2093SOL     OW16058   5.148   7.891   2.410 -0.3969  0.1151  0.2867
 2093SOL    HW116059   5.132   7.891   2.509  2.8022  1.3910  0.8775
 2093SOL    HW216060   5.231   7.943   2.390 -1.3422  0.4080 -3.1666
 2094SOL     OW16061   0.404   0.909   3.791 -0.0336 -0.3427  0.7993
 2094SOL    HW116062   0.308   0.932   3.803  0.0348 -0.0779  0.8517
 2094SOL    HW216063   0.424   0.823   3.837 -0.8476 -1.7910 -1.4817
 2095SOL     OW16064   9.627   6.738   5.172 -0.2440 -0.4809  0.2992
 2095SOL    HW116065   9.543   6.720   5.122  0.0213 -1.2692  0.1360
 2095SOL    HW216066   9.702   6.752   5.108 -0.3359  0.7270  0.4280
 2096SOL     OW16067   2.928   2.619   1.504  0.4453  0.3551  0.2132
 2096SOL    HW116068   2.882   2.657   1.584 -0.4340 -1.2117  0.4665
 2096SOL    HW216069   2.883   2.650   1.421 -0.6769 -0.6377  0.4409
 2098SOL     OW16070   5.490   8.822   1.931 -0.3128 -0.1577  0.0557
 2098SOL    HW116071   5.412   8.840   1.873  0.1402 -0.4235 -0.6419
 2098SOL    HW216072   5.573   8.859   1.889 -0.0323 -0.0314  0.7020
 2099SOL     OW16073   9.919   8.607   0.068 -0.1232 -0.0156  0.4941
 2099SOL    HW116074  10.005   8.656   0.076  0.2056 -0.4571 -0.2365
 2099SOL    HW216075   9.898   8.592  -0.029 -1.4908  0.9070  0.6332
 2100SOL     OW16076   3.261   3.813   2.070 -0.2654 -0.1421 -0.0945
 2100SOL    HW116077   3.358   3.837   2.077 -0.4557  0.7189 -0.4039
 2100SOL    HW216078   3.253   3.720   2.035  0.4442 -0.1139 -0.3505
 2102SOL     OW16079   8.371   2.593   0.958 -0.3748  0.2797 -0.6180
 2102SOL    HW116080   8.442   2.586   0.888 -2.0993  1.5725 -2.5912
 2102SOL    HW216081   8.354   2.690   0.978 -1.5993  0.0023 -0.2442
 2104SOL     OW16082   9.497   1.653   3.263  0.1899  0.1410  0.0883
 2104SOL    HW116083   9.503   1.576   3.327 -0.2952  0.6508  0.7664
 2104SOL    HW216084   9.581   1.659   3.210  0.6835 -0.1775  0.8255
 2105SOL     OW16085   1.248   1.671   3.093  0.3162  0.9222 -0.0206
 2105SOL    HW116086   1.272   1.738   3.022 -0.5983 -0.3687 -1.5902
 2105SOL    HW216087   1.245   1.580   3.053 -1.3133  0.3076  1.4324
 2106SOL     OW16088   2.172   8.312   3.914 -0.4287 -0.5638 -0.6717
 2106SOL    HW116089   2.122   8.390   3.876 -0.4685  0.0755  0.6655
 2106SOL    HW216090   2.264   8.341   3.940  0.1287 -1.3746 -1.7151
 2107SOL     OW16091   1.450   9.742   4.152  0.0597  0.0030 -0.2934
 2107SOL    HW116092   1.486   9.788   4.233 -0.7197 -1.4361  0.8782
 2107SOL    HW216093   1.351   9.732   4.160  0.0972 -0.9878 -0.9929
 2109SOL     OW16094   5.801   8.975   4.537  0.1940 -0.0903  0.4365
 2109SOL    HW116095   5.898   8.994   4.554  0.2300 -0.8075  1.0648
 2109SOL    HW216096   5.772   8.899   4.594 -0.8983  0.4972  0.6807
 2110SOL     OW16097   9.213   0.219   4.292 -0.4154 -0.2194 -0.3119
 2110SOL    HW116098   9.140   0.252   4.232  0.8217  0.6000 -1.3974
 2110SOL    HW216099   9.186   0.131   4.332 -1.9190 -0.0105 -0.8203
 2111SOL     OW16100   7.024   3.841   1.130  0.1566  0.2754 -0.4795
 2111SOL    HW116101   6.962   3.897   1.185 -0.2734  0.5514 -1.2366
 2111SOL    HW216102   7.078   3.899   1.070 -0.7479 -0.1660 -1.7278
 2112SOL     OW16103   9.017   0.616   4.027 -0.1052  0.0344 -0.3229
 2112SOL    HW116104   8.961   0.694   4.057 -1.7839 -1.1948 -0.1636
 2112SOL    HW216105   9.040   0.626   3.931 -0.5581  0.6065 -0.3740
 2114SOL     OW16106   2.720   8.158   2.662 -0.1340  0.2968 -0.2530
 2114SOL    HW116107   2.633   8.170   2.709 -0.2768 -0.2991 -0.3650
 2114SOL    HW216108   2.772   8.244   2.666 -0.5652  0.5427  0.1329
 2115SOL     OW16109   4.424   7.511   5.041  0.3832  0.4825 -0.0514
 2115SOL    HW116110   4.380   7.421   5.044  0.4656  0.4452  0.0319
 2115SOL    HW216111   4.514   7.501   4.998  0.7266  0.3883  0.6929
 2116SOL     OW16112   4.072   2.693   5.286 -0.5378 -0.3041  0.2319
 2116SOL    HW116113   4.057   2.705   5.187 -0.0499 -1.6694 -0.0218
 2116SOL    HW216114   4.075   2.782   5.330 -2.1424  0.2644 -0.7835
 2118SOL     OW16115   8.072   1.248   0.057 -0.3265 -0.3239 -0.0517
 2118SOL    HW116116   8.041   1.307   0.131 -0.3137  0.8775 -0.9951
 2118SOL    HW216117   8.047   1.288  -0.031  2.2977 -0.2280 -0.8036
 2120SOL     OW16118   1.542   0.529   3.615  0.0486 -0.1114 -0.2114
 2120SOL    HW116119   1.575   0.442   3.580  0.9334  1.4636 -3.5078
 2120SOL    HW216120   1.574   0.542   3.709  0.7174 -2.8652 -0.0320
 2121SOL     OW16121   0.750   4.571   0.310  0.1330  0.2494 -0.0378
 2121SOL    HW116122   0.665   4.585   0.258 -1.0200 -0.7652  1.5220
 2121SOL    HW216123   0.761   4.646   0.376  0.0196 -0.0592  0.3312
 2122SOL     OW16124   7.231   3.042   3.027  0.3174  0.3172 -0.3507
 2122SOL    HW116125   7.152   2.990   2.994 -1.2048  0.8813  2.2568
 2122SOL    HW216126   7.285   3.075   2.949 -1.0068 -1.6163 -2.1169
 2123SOL     OW16127   8.166   3.212   4.081  0.6654 -0.2308 -0.1503
 2123SOL    HW116128   8.188   3.120   4.114  1.2863  0.2499  0.8197
 2123SOL    HW216129   8.238   3.276   4.110 -0.1648  0.7062 -0.1190
 2124SOL     OW16130   8.609   8.603   4.430  0.1007  0.3205 -0.5279
 2124SOL    HW116131   8.652   8.519   4.396 -2.4644 -0.8607 -1.0478
 2124SOL    HW216132   8.625   8.611   4.528  0.0414 -1.0112 -0.3977
 2125SOL     OW16133   8.670   3.308   4.629  0.1916  0.1230 -0.6793
 2125SOL    HW116134   8.586   3.271   4.667  1.2666 -1.0729  0.6091
 2125SOL    HW216135   8.732   3.233   4.606  1.9642  1.0503  0.9108
 2126SOL     OW16136   5.215   0.640   3.922 -0.4791  0.1299  0.5618
 2126SOL    HW116137   5.271   0.566   3.883 -1.3730  0.1312 -0.7473
 2126SOL    HW216138   5.243   0.656   4.017  1.1564 -0.4539  0.1985
 2127SOL     OW16139   2.349   9.006   1.997 -0.3231  0.3276 -0.8494
 2127SOL    HW116140   2.354   8.906   1.999  2.1797  0.4370 -0.6509
 2127SOL    HW216141   2.440   9.045   2.009 -1.2590  2.6536 -0.9563
 2128SOL     OW16142   5.365   9.318   3.336 -0.4779  0.1113  0.2749
 2128SOL    HW116143   5.369   9.360   3.427 -0.8720  0.4928  0.1181
 2128SOL    HW216144   5.436   9.248   3.328 -0.4636  0.0600  0.8861
 2129SOL     OW16145   2.523   5.466   1.056  0.2572  0.5624  0.4695
 2129SOL    HW116146   2.587   5.397   1.021 -0.9429 -0.2466 -0.1583
 2129SOL    HW216147   2.457   5.423   1.117 -1.2616  0.9176 -0.8950
 2130SOL     OW16148   5.135   1.852   2.552 -0.3165 -0.9598  0.4691
 2130SOL    HW116149   5.081   1.776   2.516 -0.3978  0.2022 -2.0148
 2130SOL    HW216150   5.086   1.897   2.626 -1.9650 -0.9904 -0.5910
 2131SOL     OW16151   5.224   2.076   3.605 -0.1435  0.4201 -0.1771
 2131SOL    HW116152   5.170   1.994   3.622  0.8648 -0.2349 -0.0813
 2131SOL    HW216153   5.203   2.145   3.674  1.5478 -1.0383  1.8915
 2133SOL     OW16154   5.037   7.934   2.130  0.3646 -0.4835  0.4193
 2133SOL    HW116155   5.085   7.941   2.218  1.8080  1.3003 -0.5007
 2133SOL    HW216156   5.102   7.906   2.059 -0.4998 -0.5526 -0.3458
 2134SOL     OW16157   1.043   2.192   0.815  0.1896 -0.2660  0.1756
 2134SOL    HW116158   0.957   2.140   0.809  1.0573 -1.6993 -0.1628
 2134SOL    HW216159   1.107   2.142   0.873  0.6116  1.0933  0.9044
 2139SOL     OW16160   0.211   2.266   5.310 -0.2813  0.2687 -0.5694
 2139SOL    HW116161   0.231   2.283   5.406  0.3064 -0.4294 -0.5647
 2139SOL    HW216162   0.222   2.351   5.258  3.4099 -0.2087 -0.6773
 2140SOL     OW16163   1.388   1.444   0.489  0.1830 -0.2847 -0.5877
 2140SOL    HW116164   1.447   1.474   0.414  0.1065  0.3997 -0.3699
 2140SOL    HW216165   1.300   1.491   0.484  0.9573  1.4149  1.2038
 2141SOL     OW16166   7.991   6.606   4.366  0.3239 -0.4058  0.1775
 2141SOL    HW116167   8.002   6.689   4.422  1.1721  0.3445 -1.0836
 2141SOL    HW216168   8.072   6.549   4.375  1.5401  0.8914 -2.1805
 2142SOL     OW16169   9.448   9.082   5.195 -0.3900  0.5498 -0.1277
 2142SOL    HW116170   9.422   9.013   5.128 -1.6146  0.1369  0.7570
 2142SOL    HW216171   9.544   9.069   5.221  0.4145  1.3988 -2.5979
 2143SOL     OW16172   3.616   2.683   2.534  0.6927 -0.0502 -0.5675
 2143SOL    HW116173   3.525   2.649   2.513  0.5099  0.6442 -0.9159
 2143SOL    HW216174   3.684   2.631   2.482  0.4541 -0.2241 -0.7057
 2144SOL     OW16175   3.286   4.578   4.336 -0.1790  0.0163  0.1515
 2144SOL    HW116176   3.188   4.561   4.331 -0.0164 -0.9801  0.3336
 2144SOL    HW216177   3.319   4.606   4.246 -0.0154 -3.0211 -0.7646
 2145SOL     OW16178   1.891   8.944   5.268 -0.2124 -0.1929 -0.0833
 2145SOL    HW116179   1.978   8.935   5.219  0.1686 -1.2042  0.7414
 2145SOL    HW216180   1.910   8.955   5.366 -1.0181 -0.4399  0.0990
 2146SOL     OW16181   6.788   0.117   3.115  0.1377  0.2272 -0.5219
 2146SOL    HW116182   6.812   0.184   3.185  0.2635 -0.9594  0.5638
 2146SOL    HW216183   6.862   0.051   3.105 -0.3979 -0.3127 -0.9393
 2147SOL     OW16184   4.558   9.797   2.964  0.5474  0.0268  0.0380
 2147SOL    HW116185   4.567   9.789   3.064  1.3021  1.3869  0.1029
 2147SOL    HW216186   4.581   9.710   2.921  1.1901 -0.2853  0.9981
 2148SOL     OW16187   4.154   6.922   1.786 -0.0705 -0.2890  0.1994
 2148SOL    HW116188   4.203   6.878   1.711  0.3760  0.2681  0.1589
 2148SOL    HW216189   4.154   6.861   1.866 -0.9716 -1.0862 -0.3963
 2149SOL     OW16190   8.977   6.360   1.402  0.1045  0.5607  0.0559
 2149SOL    HW116191   8.993   6.358   1.500  0.0094 -1.8912  0.0603
 2149SOL    HW216192   8.893   6.310   1.380  0.9443 -0.2721 -1.3951
 2150SOL     OW16193   4.460   3.246   3.217  0.3749 -0.4566  0.4406
 2150SOL    HW116194   4.431   3.200   3.300 -2.2502 -0.0681 -0.2150
 2150SOL    HW216195   4.415   3.335   3.210  1.0488 -0.2064 -1.0721
 2152SOL     OW16196   7.996   3.568   4.292  0.0821  0.2728 -0.1714
 2152SOL    HW116197   7.962   3.631   4.363  0.3805 -0.0407  0.2535
 2152SOL    HW216198   7.925   3.501   4.272  0.2908 -0.1277  0.4157
 2153SOL     OW16199   6.750   0.344   2.923  0.2193  0.0855  0.3435
 2153SOL    HW116200   6.777   0.281   2.996  1.1948  1.7398  1.4432
 2153SOL    HW216201   6.686   0.412   2.959 -1.9391 -1.0820 -1.1751
 2154SOL     OW16202   9.320   1.024   0.215  0.3356 -0.1876  0.8769
 2154SOL    HW116203   9.301   1.120   0.198  1.8528 -0.1438 -0.6935
 2154SOL    HW216204   9.244   0.984   0.267 -1.8415  1.0562 -1.2266
 2155SOL     OW16205   2.314   6.225   5.200  0.0137  0.3373  0.0589
 2155SOL    HW116206   2.276   6.317   5.197  0.9966  0.7518  0.3374
 2155SOL    HW216207   2.399   6.222   5.147  0.2659 -0.2726  0.4935
 2156SOL     OW16208   3.501   2.903   4.184  0.5256 -0.4430 -0.5799
 2156SOL    HW116209   3.550   2.926   4.268  0.5923 -0.2725 -0.6633
 2156SOL    HW216210   3.564   2.859   4.120  0.3815 -0.9313 -0.3928
 2157SOL     OW16211   3.934   2.118   4.667 -0.0603 -0.1536  0.3785
 2157SOL    HW116212   3.924   2.080   4.759  0.3085 -0.5934  0.2334
 2157SOL    HW216213   3.917   2.047   4.599 -1.0237  0.3347  0.0995
 2158SOL     OW16214   6.069   9.016   4.512 -0.1109 -0.2482 -0.3783
 2158SOL    HW116215   6.111   8.947   4.452  2.7304  2.2498 -1.4133
 2158SOL    HW216216   6.136   9.044   4.582 -0.5723  2.6728 -1.0419
 2159SOL     OW16217   7.298   0.209   2.546  0.0737  0.3868  0.1080
 2159SOL    HW116218   7.350   0.261   2.614 -0.6612  0.7885  0.3717
 2159SOL    HW216219   7.240   0.142   2.591  0.0539  0.2215 -0.1600
 2160SOL     OW16220   9.647   4.892   1.373 -0.2974  0.4052 -0.3133
 2160SOL    HW116221   9.610   4.799   1.373 -3.0400  1.4728  1.1664
 2160SOL    HW216222   9.652   4.925   1.279 -3.1454  0.2303 -0.5604
 2162SOL     OW16223   5.420   8.587   3.393 -0.3292  0.4355 -0.2103
 2162SOL    HW116224   5.451   8.655   3.459  2.6088 -1.7248  0.7356
 2162SOL    HW216225   5.485   8.582   3.317 -0.3064 -1.5215 -0.0998
 2163SOL     OW16226   4.080   5.082   4.972  0.2318  0.0238 -0.2356
 2163SOL    HW116227   4.000   5.064   5.028  0.8677  0.8512  0.9505
 2163SOL    HW216228   4.141   5.146   5.019  0.9150  0.5056 -1.7377
 2164SOL     OW16229   9.885   6.341   5.204 -0.3546  0.8210  0.0679
 2164SOL    HW116230   9.894   6.261   5.264  1.3772  0.8371 -0.1595
 2164SOL    HW216231   9.949   6.412   5.233  0.3809  0.9011 -1.7032
 2166SOL     OW16232   3.168   0.561   3.767  0.6900  0.1876  0.2921
 2166SOL    HW116233   3.102   0.486   3.761  1.0697 -0.0673 -1.0749
 2166SOL    HW216234   3.163   0.604   3.857 -1.0662 -0.0710  0.3308
 2167SOL     OW16235   3.761   0.829   3.830 -0.5953 -0.1692  0.2425
 2167SOL    HW116236   3.807   0.889   3.895 -1.5013  2.5236 -1.5180
 2167SOL    HW216237   3.672   0.803   3.866 -0.0564 -0.7430  1.1671
 2168SOL     OW16238   6.147   0.282   2.530 -0.0267 -0.0185  0.2889
 2168SOL    HW116239   6.228   0.331   2.497  0.2106 -0.7219 -0.1851
 2168SOL    HW216240   6.158   0.259   2.626 -0.4301  1.4552  0.6995
 2169SOL     OW16241   5.280   9.231   2.751  0.3135  0.3265 -0.3771
 2169SOL    HW116242   5.200   9.267   2.703  1.0064 -0.2605 -2.0220
 2169SOL    HW216243   5.363   9.265   2.706  0.9789 -0.3135  0.3630
 2170SOL     OW16244   0.423   1.167   0.717  0.2214 -0.0140  0.0461
 2170SOL    HW116245   0.430   1.165   0.817 -0.7356 -0.1497  0.1218
 2170SOL    HW216246   0.474   1.245   0.682  1.7831 -0.8064  0.5208
 2171SOL     OW16247   2.960   1.142   4.986  0.0071 -0.1584 -0.3859
 2171SOL    HW116248   2.874   1.173   4.945  0.5400  0.8226 -0.7963
 2171SOL    HW216249   2.968   1.181   5.078 -0.0762 -0.4121 -0.2709
 2172SOL     OW16250   5.576   7.206   2.826  0.2849  0.0723 -0.4449
 2172SOL    HW116251   5.535   7.145   2.894 -0.3381 -0.3269 -1.1673
 2172SOL    HW216252   5.524   7.201   2.741 -0.8296  2.9670  0.0342
 2173SOL     OW16253   3.989   5.142   4.082 -0.4480  0.1273 -0.0469
 2173SOL    HW116254   3.967   5.065   4.142 -0.7285  1.7144  1.9289
 2173SOL    HW216255   4.074   5.123   4.033 -0.3820 -1.3179  0.6025
 2175SOL     OW16256   7.650   2.049   4.729 -0.4852 -0.4344  0.3785
 2175SOL    HW116257   7.563   2.065   4.774 -0.6024 -0.7078  0.2529
 2175SOL    HW216258   7.714   2.123   4.752 -0.8436 -0.0784  0.2280
 2176SOL     OW16259   4.831   2.442   0.287 -0.5508  0.1328 -0.1375
 2176SOL    HW116260   4.736   2.460   0.312 -0.9501 -0.1193 -1.4108
 2176SOL    HW216261   4.887   2.523   0.307 -0.8290 -0.0697  1.5497
 2177SOL     OW16262   2.060   4.623   1.675  0.3845  0.5181 -0.8903
 2177SOL    HW116263   1.999   4.545   1.660 -0.1460  0.6347  0.5366
 2177SOL    HW216264   2.032   4.699   1.616 -0.6608  0.4601 -0.4839
 2178SOL     OW16265   8.375   2.110   4.241 -0.2780 -0.4405  0.3720
 2178SOL    HW116266   8.398   2.066   4.154  0.9171 -0.1006  0.5043
 2178SOL    HW216267   8.277   2.099   4.259 -1.1599  2.0453 -2.4441
 2179SOL     OW16268   3.137   6.305   2.319  0.2608  0.2019 -0.8732
 2179SOL    HW116269   3.070   6.376   2.299 -0.3511 -0.9962 -3.2739
 2179SOL    HW216270   3.208   6.306   2.247  2.3843  0.8855  1.1501
 2180SOL     OW16271   3.998   0.905   1.772 -0.4863 -0.1568 -0.2999
 2180SOL    HW116272   3.963   0.889   1.864  1.2289  0.2692  0.4585
 2180SOL    HW216273   4.076   0.845   1.754 -0.8063 -0.2364 -1.4683
 2182SOL     OW16274   9.959   4.852   4.268 -0.8680 -0.0072 -0.2919
 2182SOL    HW116275  10.035   4.890   4.216  0.2847 -0.1284  1.2520
 2182SOL    HW216276   9.982   4.759   4.298 -1.5782 -0.0085  0.2666
 2183SOL     OW16277   8.441   6.145   2.250 -0.3160  0.3816 -0.3436
 2183SOL    HW116278   8.356   6.096   2.271 -1.6906  2.6445 -0.4401
 2183SOL    HW216279   8.484   6.104   2.169 -1.5369 -0.4980 -0.5641
 2184SOL     OW16280   9.707   2.640   3.405 -0.6645 -0.4901 -0.1182
 2184SOL    HW116281   9.749   2.600   3.323  2.4674  1.0154  0.6738
 2184SOL    HW216282   9.677   2.734   3.385  1.9718  0.6388  0.9125
 2186SOL     OW16283   4.139   3.830   0.735  0.3135  0.3615  0.0710
 2186SOL    HW116284   4.112   3.885   0.656  0.9272  0.6647  0.0712
 2186SOL    HW216285   4.094   3.865   0.817  0.1320  0.4066 -0.0478
 2187SOL     OW16286   2.190   0.972   1.970  0.4311  0.1851  0.1079
 2187SOL    HW116287   2.185   0.885   1.921 -1.3178  1.3192 -1.7917
 2187SOL    HW216288   2.162   0.958   2.065 -1.3048 -1.0762 -0.5594
 2189SOL     OW16289   1.205   2.518   3.711 -0.9100  0.3523  0.4614
 2189SOL    HW116290   1.226   2.597   3.769  1.2840  0.4596 -0.4499
 2189SOL    HW216291   1.276   2.508   3.641 -1.5587 -2.0089  0.1086
 2190SOL     OW16292   1.410   8.325   4.935 -0.0681 -0.0924  0.7063
 2190SOL    HW116293   1.416   8.278   4.847  0.2214 -1.0322  1.2270
 2190SOL    HW216294   1.346   8.277   4.995  1.6115 -0.9011  1.8968
 2191SOL     OW16295   3.839   3.984   1.926  0.0018 -0.4567  0.2442
 2191SOL    HW116296   3.918   3.996   1.984  0.2860  0.8345 -0.3934
 2191SOL    HW216297   3.866   3.995   1.830 -0.7272 -1.1250 -0.0438
 2192SOL     OW16298   8.195   2.308   3.342  0.1212  0.3587  0.2820
 2192SOL    HW116299   8.207   2.408   3.344 -0.5373  0.4113  1.9849
 2192SOL    HW216300   8.208   2.271   3.433 -0.7432 -0.9980 -0.1385
 2193SOL     OW16301   9.548   8.390   0.544 -0.0554 -0.5570  0.3816
 2193SOL    HW116302   9.542   8.322   0.470  0.2203  0.5540 -0.6887
 2193SOL    HW216303   9.579   8.477   0.506  1.3649 -0.3171  2.0559
 2194SOL     OW16304   4.903   9.082   3.245 -0.5525 -0.1525  0.1466
 2194SOL    HW116305   4.977   9.130   3.292 -1.2730  0.4543  0.6827
 2194SOL    HW216306   4.816   9.107   3.287 -1.1190 -0.3872 -0.8765
 2195SOL     OW16307   2.595   7.456   1.711 -0.1801  0.2641 -0.2215
 2195SOL    HW116308   2.669   7.504   1.665  1.5127 -2.8118 -0.8574
 2195SOL    HW216309   2.554   7.389   1.649 -0.2693 -1.4134  1.5846
 2196SOL     OW16310   9.604   8.305   1.653 -0.3889 -0.5118  0.4033
 2196SOL    HW116311   9.525   8.364   1.666 -0.7622 -1.0799  0.7270
 2196SOL    HW216312   9.585   8.237   1.582  0.3575  0.3023 -0.5947
 2197SOL     OW16313   3.594   2.674   1.211  0.1242  1.0219  0.5368
 2197SOL    HW116314   3.523   2.625   1.263  1.0104  0.2208  0.9955
 2197SOL    HW216315   3.625   2.616   1.135  0.6708  1.1495  0.6614
 2198SOL     OW16316   6.812   4.083   0.671  0.1185 -0.2819 -0.2043
 2198SOL    HW116317   6.781   4.157   0.731  1.9890  0.3272  0.0217
 2198SOL    HW216318   6.871   4.021   0.722  2.9707  1.0813 -1.7722
 2200SOL     OW16319   1.632   0.392   0.622  0.2219 -0.2389  0.2082
 2200SOL    HW116320   1.724   0.415   0.654 -0.1893  1.1610  0.4208
 2200SOL    HW216321   1.600   0.461   0.558 -0.2164 -1.3671 -0.8188
 2201SOL     OW16322   0.745   9.369   2.446 -0.0817  0.0426  0.1160
 2201SOL    HW116323   0.698   9.331   2.526 -0.8664 -0.3080 -0.5080
 2201SOL    HW216324   0.727   9.468   2.440 -1.5787 -0.2716 -0.6930
 2202SOL     OW16325   2.351   0.701   3.226  0.4506 -0.6998 -0.0736
 2202SOL    HW116326   2.412   0.735   3.154 -0.1405 -0.4143 -0.4429
 2202SOL    HW216327   2.274   0.653   3.184 -0.6132  0.6395  0.3021
 2203SOL     OW16328   0.349   0.616   4.273  0.2289  0.2740  0.0963
 2203SOL    HW116329   0.373   0.523   4.244 -0.6322  0.4035 -1.0778
 2203SOL    HW216330   0.277   0.611   4.343 -2.0519  0.0988 -2.1663
 2204SOL     OW16331   0.901   3.622   5.111 -0.2845  0.3391 -0.3793
 2204SOL    HW116332   0.878   3.603   5.206  2.3094 -0.4744  0.1351
 2204SOL    HW216333   0.892   3.720   5.093 -0.4401  0.5501  0.8075
 2207SOL     OW16334   6.022   8.044   3.743 -0.6886  0.2440  0.7972
 2207SOL    HW116335   6.008   8.143   3.748 -2.3137  0.1013 -0.4751
 2207SOL    HW216336   6.117   8.023   3.766  0.4516  2.3773 -1.6805
 2209SOL     OW16337   6.056   7.747   4.388 -0.2995  0.0655  0.1792
 2209SOL    HW116338   6.023   7.654   4.372 -0.0354  0.0445 -0.2355
 2209SOL    HW216339   6.037   7.773   4.483  1.5497 -1.2009  0.9227
 2210SOL     OW16340   7.827   8.700   2.246  0.4075  0.0437 -0.3904
 2210SOL    HW116341   7.785   8.616   2.280  1.7499 -0.9641 -1.1871
 2210SOL    HW216342   7.907   8.722   2.302  3.0931 -2.0530 -3.2582
 2211SOL     OW16343   2.622   7.824   4.748 -0.4093 -0.0352  0.3380
 2211SOL    HW116344   2.539   7.786   4.709 -0.3716 -0.9853  1.1593
 2211SOL    HW216345   2.621   7.812   4.848  0.1223  1.1079  0.4924
 2212SOL     OW16346   7.758   0.853   1.725 -0.1630  0.7058  0.2968
 2212SOL    HW116347   7.805   0.921   1.669  1.3630 -1.1207 -0.6711
 2212SOL    HW216348   7.814   0.771   1.733 -2.6671 -1.0798  0.1506
 2213SOL     OW16349   9.551   1.478   3.866 -0.6250 -0.3639 -0.2073
 2213SOL    HW116350   9.609   1.499   3.944  0.0249 -1.8926 -0.2655
 2213SOL    HW216351   9.455   1.495   3.890 -0.4965 -1.4953  1.1628
 2214SOL     OW16352   8.748   9.504   0.150 -0.2242 -0.1502 -0.0173
 2214SOL    HW116353   8.686   9.545   0.217 -0.9615  0.6438 -1.1555
 2214SOL    HW216354   8.767   9.571   0.077 -1.3867 -1.7891 -1.8773
 2215SOL     OW16355   3.549   0.810   0.229 -0.2172  0.6172 -0.8827
 2215SOL    HW116356   3.468   0.772   0.184 -0.9955 -1.1114  1.8603
 2215SOL    HW216357   3.629   0.755   0.207 -0.6860 -0.5184  0.1845
 2216SOL     OW16358   1.358   6.877   1.950 -0.1242  0.2838 -0.5692
 2216SOL    HW116359   1.430   6.838   1.893  0.7170 -0.8316  1.1922
 2216SOL    HW216360   1.324   6.807   2.013 -4.0615  0.2592 -2.5819
 2217SOL     OW16361   8.786   1.261   2.059  0.1294 -0.4870 -0.4101
 2217SOL    HW116362   8.841   1.211   1.992 -0.5355  0.3823 -1.6212
 2217SOL    HW216363   8.736   1.334   2.013 -0.4466  0.0356  1.0214
 2219SOL     OW16364   4.259   1.055   3.371  0.0240 -0.3289 -0.0472
 2219SOL    HW116365   4.287   0.995   3.446  2.1402 -0.3651 -0.8332
 2219SOL    HW216366   4.256   1.002   3.286 -2.5193 -0.3252  0.0175
 2220SOL     OW16367   9.830   9.924   2.615  0.1480 -0.1713 -0.3706
 2220SOL    HW116368   9.759   9.978   2.659  0.6500 -0.2019  0.4821
 2220SOL    HW216369   9.883   9.875   2.684 -0.2180 -1.6507 -1.1219
 2221SOL     OW16370   9.069   3.158   0.915  0.4913 -0.5161 -0.0964
 2221SOL    HW116371   9.082   3.216   0.996 -4.1070  1.1704 -0.3997
 2221SOL    HW216372   9.070   3.215   0.833  0.3612 -1.5012 -0.7904
 2223SOL     OW16373   0.486   0.311   2.321  0.2089 -0.0734 -0.4271
 2223SOL    HW116374   0.393   0.302   2.284  0.2159  0.4820 -0.5957
 2223SOL    HW216375   0.547   0.344   2.249  0.2655  0.8344  0.0295
 2224SOL     OW16376   8.927   9.929   3.586  0.8854  0.2421  0.3815
 2224SOL    HW116377   8.972  10.017   3.599 -0.2585  0.8286  0.4142
 2224SOL    HW216378   8.862   9.936   3.511 -0.0822 -0.2398  1.1696
 2225SOL     OW16379   2.639   1.982   4.301 -0.0130 -0.4153  0.6204
 2225SOL    HW116380   2.705   1.913   4.270  0.9454  0.1552  1.3596
 2225SOL    HW216381   2.584   2.012   4.224  1.2206 -0.2217 -0.2061
 2226SOL     OW16382   1.962   3.712   1.188  0.0096 -0.5789 -0.1078
 2226SOL    HW116383   2.051   3.697   1.144  0.4230 -1.4423  0.9665
 2226SOL    HW216384   1.908   3.628   1.182 -1.3987  0.4354 -2.1682
 2227SOL     OW16385   0.329   5.311   1.919  0.0563 -0.4976  0.0260
 2227SOL    HW116386   0.364   5.224   1.885 -1.0515 -0.9587  0.0565
 2227SOL    HW216387   0.260   5.295   1.990 -0.4267  0.3956 -0.2280
 2228SOL     OW16388   5.269   8.180   1.887  0.8320  0.2113  0.6510
 2228SOL    HW116389   5.170   8.190   1.897  0.9501  0.3839  1.6651
 2228SOL    HW216390   5.315   8.250   1.941  1.4907  1.2782 -1.2505
 2229SOL     OW16391   8.535   8.690   5.082  0.3558 -0.0111 -0.0573
 2229SOL    HW116392   8.621   8.674   5.129 -0.0921 -1.0922  0.4116
 2229SOL    HW216393   8.535   8.782   5.043  1.3836  0.2923  0.6454
 2230SOL     OW16394   4.886   2.374   3.049  0.0388  0.5255 -0.2973
 2230SOL    HW116395   4.957   2.404   2.985 -0.3996  0.2887 -0.8918
 2230SOL    HW216396   4.797   2.379   3.005 -0.0769 -1.3975 -0.3167
 2231SOL     OW16397   5.493   1.787   1.853  1.0933 -1.0376 -0.9000
 2231SOL    HW116398   5.576   1.829   1.817  1.0120 -0.4660 -0.4161
 2231SOL    HW216399   5.518   1.711   1.913  1.3606  0.8232  1.4126
 2232SOL     OW16400   3.129   2.244   5.109  0.8563 -0.1013 -0.0633
 2232SOL    HW116401   3.204   2.235   5.174  0.8518 -1.1663 -0.1874
 2232SOL    HW216402   3.167   2.257   5.017  0.9025 -0.6423 -0.1261
 2233SOL     OW16403   4.281   6.020   2.292 -0.0416  0.3257  0.2813
 2233SOL    HW116404   4.355   6.076   2.254 -0.5188  0.6934 -0.1003
 2233SOL    HW216405   4.193   6.053   2.259 -0.2557 -1.4619 -0.9933
 2234SOL     OW16406   4.126   8.785   5.251  0.0708 -0.3355  0.1572
 2234SOL    HW116407   4.066   8.716   5.292 -0.4217 -1.6821 -2.7159
 2234SOL    HW216408   4.085   8.875   5.261 -1.3730 -0.9819  0.1885
 2235SOL     OW16409   3.867   5.284   3.649  0.0785 -0.0413 -0.3103
 2235SOL    HW116410   3.940   5.351   3.637  1.2308 -1.5553 -2.0273
 2235SOL    HW216411   3.796   5.299   3.580 -0.2795  0.2105  0.1140
 2236SOL     OW16412   2.039   6.843   1.249 -0.5011  0.2531 -0.1609
 2236SOL    HW116413   1.970   6.889   1.192  0.4062  1.3466 -0.3978
 2236SOL    HW216414   2.130   6.877   1.225 -0.0426  0.1954  1.4524
 2237SOL     OW16415   2.196   4.961   5.257 -0.3066 -0.3497 -0.1500
 2237SOL    HW116416   2.271   4.915   5.210  0.0320 -0.4897  0.5215
 2237SOL    HW216417   2.186   5.053   5.221 -0.7276 -0.8150 -1.2221
 2238SOL     OW16418   1.435   5.251   3.392  0.3444  0.1693  0.4740
 2238SOL    HW116419   1.470   5.159   3.375 -0.1599  0.4385 -2.2056
 2238SOL    HW216420   1.511   5.316   3.393  0.4077  0.1192 -0.6377
 2240SOL     OW16421   8.878   4.040   4.901  0.4703 -0.2152  0.3156
 2240SOL    HW116422   8.870   4.047   5.000  0.4482  0.5622  0.2670
 2240SOL    HW216423   8.798   3.994   4.863  0.5072 -0.5622  0.6657
 2241SOL     OW16424   6.616   1.401   0.105  0.7247  0.0134 -0.1523
 2241SOL    HW116425   6.576   1.437   0.190 -0.4343  0.2020 -0.7681
 2241SOL    HW216426   6.554   1.420   0.029 -0.7590 -4.7595 -0.2750
 2242SOL     OW16427   2.556   6.613   3.133  0.0119  0.7304 -0.6132
 2242SOL    HW116428   2.641   6.638   3.179 -1.0204  1.7890  0.7592
 2242SOL    HW216429   2.555   6.515   3.114  1.4892  0.6990 -0.5647
 2243SOL     OW16430   2.941   4.609   0.599  0.3234  0.8786  0.0839
 2243SOL    HW116431   2.965   4.597   0.502  1.6147 -0.8150  0.5912
 2243SOL    HW216432   2.994   4.684   0.638  0.3109  1.1136 -0.3476
 2248SOL     OW16433   7.974   2.811   0.311 -0.2680 -0.1578 -0.0136
 2248SOL    HW116434   8.058   2.865   0.305 -0.7963  0.5841 -0.8556
 2248SOL    HW216435   7.903   2.865   0.357 -1.0303  0.1719 -1.5512
 2249SOL     OW16436   2.132   9.375   1.077  0.5659  0.0586 -0.5893
 2249SOL    HW116437   2.166   9.417   1.161  0.1730 -0.3820 -0.2092
 2249SOL    HW216438   2.156   9.433   0.999  0.4959  0.7187 -0.1256
 2251SOL     OW16439   0.291   3.542   5.026  0.7131 -0.4961  0.1571
 2251SOL    HW116440   0.309   3.524   4.930 -1.0549 -1.7862  0.0535
 2251SOL    HW216441   0.312   3.638   5.046 -0.1019  0.1120 -1.7959
 2252SOL     OW16442   1.445   3.598   0.497 -0.3187 -0.1278  0.1563
 2252SOL    HW116443   1.477   3.544   0.419  0.2293  0.7172 -0.2086
 2252SOL    HW216444   1.503   3.679   0.508 -0.1912 -0.4035  1.6348
 2254SOL     OW16445   2.720   2.688   1.688  0.1890  0.0918 -0.0136
 2254SOL    HW116446   2.651   2.615   1.690 -0.8391  1.0692  0.9889
 2254SOL    HW216447   2.714   2.742   1.772  1.5087  0.8168 -0.3697
 2255SOL     OW16448   8.376   9.534   0.532 -0.6035 -0.3635  0.4581
 2255SOL    HW116449   8.406   9.628   0.518 -0.6272 -0.2318  1.2830
 2255SOL    HW216450   8.382   9.511   0.629 -1.3534 -0.9497  0.3701
 2256SOL     OW16451   8.278   3.607   0.812 -0.0130 -0.1423 -0.2047
 2256SOL    HW116452   8.345   3.554   0.865 -0.8072 -0.4220  0.5277
 2256SOL    HW216453   8.200   3.629   0.870 -0.2267  0.8257 -0.8484
 2257SOL     OW16454   0.889   6.486   4.164 -0.5666 -0.0198  0.3013
 2257SOL    HW116455   0.859   6.571   4.120 -0.2067  0.5578  1.1788
 2257SOL    HW216456   0.839   6.474   4.250  1.1081  0.5354  1.3782
 2258SOL     OW16457   9.689   9.819   1.915  0.3391 -0.3538 -0.0021
 2258SOL    HW116458   9.638   9.903   1.932  1.1175  0.3078 -0.9214
 2258SOL    HW216459   9.644   9.743   1.963 -0.1055  0.6520  1.2049
 2259SOL     OW16460   8.229   0.352   4.767  0.1713 -0.0529  0.2834
 2259SOL    HW116461   8.164   0.278   4.783 -0.5709  0.4531 -0.3351
 2259SOL    HW216462   8.183   0.427   4.719  1.0145  0.6416  0.5429
 2260SOL     OW16463   1.504   3.203   0.293 -0.0987  0.1739  0.0944
 2260SOL    HW116464   1.497   3.103   0.287 -0.6990  0.1342  1.3850
 2260SOL    HW216465   1.434   3.245   0.236 -0.1333 -0.1448 -0.0973
 2262SOL     OW16466   9.271   9.836   4.441 -0.3995 -0.0879 -0.0085
 2262SOL    HW116467   9.273   9.774   4.519 -1.3299  0.3486  0.3752
 2262SOL    HW216468   9.255   9.929   4.473  3.0537  0.7174 -0.3692
 2264SOL     OW16469   2.653   1.046   0.251  0.1485 -0.1287  0.1299
 2264SOL    HW116470   2.660   1.123   0.188 -0.6651  0.0257  0.2169
 2264SOL    HW216471   2.740   1.034   0.298  0.9059 -0.5523 -1.3610
 2265SOL     OW16472   8.198   3.256   1.285 -0.1093 -0.0059  0.0939
 2265SOL    HW116473   8.123   3.258   1.352 -0.1905 -1.3396  0.0464
 2265SOL    HW216474   8.239   3.165   1.284  0.0204  0.0630 -1.5434
 2266SOL     OW16475   8.911   4.436   4.198  0.1017  0.0319  0.2161
 2266SOL    HW116476   8.895   4.489   4.115  1.3845  0.0858 -0.0141
 2266SOL    HW216477   8.824   4.411   4.239 -0.5345  0.8624 -0.6017
 2267SOL     OW16478   8.719   4.319   2.773  0.1684  1.0300  0.1329
 2267SOL    HW116479   8.685   4.240   2.723  0.7104  0.6269  0.3933
 2267SOL    HW216480   8.695   4.311   2.870 -0.5416  1.6171  0.0094
 2268SOL     OW16481   9.044   4.839   0.360  0.1588 -0.2104  0.4946
 2268SOL    HW116482   9.076   4.799   0.445  0.4261 -1.1002 -0.0113
 2268SOL    HW216483   9.112   4.824   0.288 -0.0991  0.4548  0.0999
 2270SOL     OW16484   0.967   6.365   1.413 -0.3902  0.0251 -0.7619
 2270SOL    HW116485   0.927   6.455   1.431  1.4239  0.6917  0.0420
 2270SOL    HW216486   0.921   6.297   1.470  2.3402  1.4441  3.4156
 2271SOL     OW16487   1.260   4.392   3.638 -0.1122  0.1112  1.0662
 2271SOL    HW116488   1.165   4.422   3.634  0.1460  0.7087 -1.8701
 2271SOL    HW216489   1.316   4.462   3.683 -0.6216  0.9761  0.3573
 2272SOL     OW16490   9.378   8.449   1.701  0.1377  0.4750  0.2518
 2272SOL    HW116491   9.366   8.472   1.604  0.7495  0.5019  0.1789
 2272SOL    HW216492   9.396   8.533   1.752 -3.0469  0.8606  0.8650
 2275SOL     OW16493   4.306   9.637   4.691  0.4776 -0.2170  0.4855
 2275SOL    HW116494   4.224   9.639   4.749 -0.9030  0.5542 -1.4187
 2275SOL    HW216495   4.291   9.571   4.616  2.0553 -0.9004  0.7672
 2276SOL     OW16496   2.167   6.860   2.038  0.2915  0.3059  0.4246
 2276SOL    HW116497   2.210   6.913   1.965 -2.0006 -1.3756 -2.3052
 2276SOL    HW216498   2.206   6.768   2.040 -1.6411 -0.5739 -0.6993
 2278SOL     OW16499   9.540   1.500   2.512  0.8864 -0.1180 -0.2683
 2278SOL    HW116500   9.444   1.516   2.487  0.2865 -0.8856  1.4742
 2278SOL    HW216501   9.586   1.450   2.439 -0.8592 -2.4719  0.2115
 2280SOL     OW16502   9.750   3.168   3.188  0.2111 -0.1911 -0.1196
 2280SOL    HW116503   9.762   3.152   3.090  0.7549 -0.8134  0.0411
 2280SOL    HW216504   9.823   3.121   3.239  0.0025  0.2236  0.5766
 2281SOL     OW16505   2.779   9.468   0.499 -0.4078 -0.5916 -0.1834
 2281SOL    HW116506   2.843   9.544   0.486 -0.3606 -0.2506  1.7902
 2281SOL    HW216507   2.705   9.498   0.559 -0.2359 -2.1844  0.8344
 2282SOL     OW16508   0.127   0.936   3.860 -0.1754 -0.5271  0.3005
 2282SOL    HW116509   0.114   1.029   3.827  0.7123  0.1305  1.7983
 2282SOL    HW216510   0.058   0.915   3.929  0.4413 -0.5309  0.9165
 2283SOL     OW16511   9.725   8.129   2.634 -0.5776 -0.3551 -0.2193
 2283SOL    HW116512   9.792   8.089   2.697  0.6479  3.3241  0.9535
 2283SOL    HW216513   9.771   8.154   2.548 -0.6429  1.1181  0.1521
 2284SOL     OW16514   8.547   3.645   1.134 -0.9098 -0.2545 -0.3278
 2284SOL    HW116515   8.493   3.567   1.166 -0.2020 -0.6272 -0.0250
 2284SOL    HW216516   8.616   3.613   1.069 -1.0296  0.2101 -0.6788
 2285SOL     OW16517   4.947   4.323   4.715  0.1590  0.5118  0.2986
 2285SOL    HW116518   4.905   4.247   4.763 -2.5443  1.1182 -1.0282
 2285SOL    HW216519   4.944   4.307   4.617  0.7289  1.7435  0.0653
 2286SOL     OW16520   9.746   6.986   2.815 -0.3652 -0.2669  0.7934
 2286SOL    HW116521   9.738   7.055   2.743 -0.4050 -0.8821  0.2025
 2286SOL    HW216522   9.657   6.944   2.831 -0.4337  0.1381  1.4713
 2287SOL     OW16523   8.085   5.956   2.671 -0.1891 -0.5260  0.2265
 2287SOL    HW116524   8.023   5.986   2.743 -1.7497 -1.2755 -0.7976
 2287SOL    HW216525   8.077   5.858   2.658 -0.1492 -0.3570 -1.1917
 2288SOL     OW16526   8.206   0.269   0.546 -0.0202 -0.5370 -0.3698
 2288SOL    HW116527   8.200   0.253   0.644  2.6653  1.5803  0.1785
 2288SOL    HW216528   8.293   0.234   0.511 -0.3039  0.0687 -1.7237
 2292SOL     OW16529   8.572   2.828   1.252 -0.6373 -0.4872  0.0405
 2292SOL    HW116530   8.499   2.761   1.268 -1.0794 -0.1338 -0.4630
 2292SOL    HW216531   8.596   2.872   1.339  0.6847 -2.3267  0.6430
 2293SOL     OW16532   2.609   0.125   3.764  0.1645  0.2336  0.1180
 2293SOL    HW116533   2.537   0.137   3.833 -0.5054  1.2122 -0.7414
 2293SOL    HW216534   2.614   0.029   3.737  1.3804 -0.4345  2.5460
 2294SOL     OW16535   1.854   9.071   4.327  0.3451  0.0947 -0.0359
 2294SOL    HW116536   1.798   9.131   4.269  1.2393  0.3566 -0.6283
 2294SOL    HW216537   1.818   8.978   4.323  0.3326  0.1402 -0.8985
 2295SOL     OW16538   0.539   5.195   4.607  0.3470  0.5957 -0.0046
 2295SOL    HW116539   0.511   5.247   4.687 -0.6117  1.9084 -1.1626
 2295SOL    HW216540   0.552   5.099   4.632 -3.6319  0.2257  0.9573
 2296SOL     OW16541   4.952   8.707   3.185 -0.2921  0.2342 -0.1201
 2296SOL    HW116542   4.892   8.727   3.108 -0.3155  0.1145 -0.1339
 2296SOL    HW216543   5.004   8.788   3.210 -1.5232  0.7448  0.8272
 2297SOL     OW16544   3.455   9.857   4.818  0.0989  0.8993 -0.0706
 2297SOL    HW116545   3.360   9.833   4.835  0.1023  0.4331 -0.6656
 2297SOL    HW216546   3.515   9.789   4.861  0.1460  0.8167 -0.2645
 2298SOL     OW16547   7.060   8.999   4.283 -0.1487 -0.3790  0.1959
 2298SOL    HW116548   7.061   9.073   4.350 -1.0781 -0.7238  0.6026
 2298SOL    HW216549   7.146   8.947   4.289 -0.7884 -1.2861  2.1200
 2299SOL     OW16550   4.686   9.230   4.275 -0.0776 -0.1182  0.6202
 2299SOL    HW116551   4.612   9.174   4.240  0.5188 -0.5751  0.0811
 2299SOL    HW216552   4.658   9.326   4.278 -0.6668 -0.2846  0.3815
 2300SOL     OW16553   8.265   4.054   1.275  0.5076  0.1695  0.2259
 2300SOL    HW116554   8.213   4.050   1.190  0.4014  2.9122  0.1413
 2300SOL    HW216555   8.357   4.017   1.260  0.6488  1.0722 -1.1954
 2301SOL     OW16556   6.115   7.816   5.280 -0.3598  0.0597  0.2543
 2301SOL    HW116557   6.172   7.810   5.362 -0.1513 -2.2233 -0.0186
 2301SOL    HW216558   6.159   7.875   5.212  1.0364 -0.6274  0.5518
 2302SOL     OW16559   4.042   2.903   3.120  0.1765  0.6242 -0.2626
 2302SOL    HW116560   4.141   2.898   3.127 -0.0737 -2.0846  2.4519
 2302SOL    HW216561   4.008   2.978   3.177  0.6830  1.9776 -1.7215
 2303SOL     OW16562   5.896   8.146   4.920 -0.5766 -0.6886  0.1580
 2303SOL    HW116563   5.873   8.222   4.859 -0.8276 -1.5445 -0.8243
 2303SOL    HW216564   5.896   8.179   5.014  1.8133  1.1538 -0.4201
 2304SOL     OW16565   8.157   0.023   2.702  0.4409 -0.3648  0.5478
 2304SOL    HW116566   8.147   0.006   2.604  0.4682  1.0750  0.2831
 2304SOL    HW216567   8.106   0.105   2.727  0.0876 -0.9519  1.8265
 2305SOL     OW16568   8.858   0.927   2.698  0.4643 -0.4473 -0.2390
 2305SOL    HW116569   8.925   0.929   2.624  2.3218  0.8395  1.4093
 2305SOL    HW216570   8.814   1.017   2.705  0.6603 -0.4086  0.5217
 2306SOL     OW16571   2.390   5.221   2.754 -0.4634  0.3093  0.0249
 2306SOL    HW116572   2.416   5.307   2.709  0.7604 -0.7945 -1.4580
 2306SOL    HW216573   2.364   5.154   2.684 -2.7015 -0.1365  1.2417
 2307SOL     OW16574   3.269   7.691   1.848  0.3130 -0.5556 -0.0584
 2307SOL    HW116575   3.324   7.716   1.927  0.5813  1.0486 -0.7247
 2307SOL    HW216576   3.173   7.682   1.875  0.4383 -0.2280  0.4989
 2310SOL     OW16577   6.547   1.925   3.656 -0.2130  0.1090 -0.3690
 2310SOL    HW116578   6.619   1.859   3.679 -0.6082  0.2634  1.3546
 2310SOL    HW216579   6.459   1.889   3.686 -0.6721  0.6074 -1.1069
 2311SOL     OW16580   5.316   2.186   1.888  0.1485  0.4324  0.2374
 2311SOL    HW116581   5.342   2.173   1.792  0.9232 -0.6445  0.5838
 2311SOL    HW216582   5.377   2.133   1.946 -1.6573 -0.6408  1.2039
 2312SOL     OW16583   8.142   1.600   0.975  0.4159  0.4016 -0.3949
 2312SOL    HW116584   8.119   1.688   1.016 -1.9887  0.3696 -1.6509
 2312SOL    HW216585   8.062   1.561   0.930  2.1610 -1.1320 -2.2781
 2313SOL     OW16586   3.291   2.141   3.607  0.8896 -0.1995 -0.1736
 2313SOL    HW116587   3.336   2.093   3.683 -1.1449 -2.6259 -0.4337
 2313SOL    HW216588   3.345   2.130   3.524  1.5266 -0.2013  0.2334
 2315SOL     OW16589   8.652   6.063   0.056  0.3501  0.4164 -0.2083
 2315SOL    HW116590   8.671   6.105   0.145 -0.8933 -0.4693  0.4960
 2315SOL    HW216591   8.678   5.966   0.059  1.5218  0.6796 -1.2432
 2316SOL     OW16592   7.145   2.427   4.644 -0.6636  0.3552 -0.7339
 2316SOL    HW116593   7.106   2.353   4.700 -0.5751  0.4004 -0.6131
 2316SOL    HW216594   7.083   2.447   4.569 -0.5601 -0.0260 -0.9220
 2317SOL     OW16595   8.954   1.370   2.238  0.1515  0.1439 -0.0711
 2317SOL    HW116596   8.891   1.319   2.179  0.8536  0.8404 -1.4340
 2317SOL    HW216597   8.952   1.330   2.330 -2.2903  0.1930 -0.0834
 2318SOL     OW16598   7.330   3.461   4.484  0.4859 -0.0160 -0.2576
 2318SOL    HW116599   7.348   3.490   4.578  1.4734 -0.3485 -0.3356
 2318SOL    HW216600   7.298   3.366   4.484  1.1796 -0.2531 -0.3062
 2320SOL     OW16601   2.651   2.606   3.400 -0.1505  0.1297  0.0270
 2320SOL    HW116602   2.688   2.652   3.480  1.5214 -0.0277 -0.6275
 2320SOL    HW216603   2.637   2.672   3.326 -1.1554  0.1794  0.2537
 2321SOL     OW16604   1.787   9.701   1.635 -0.4198  0.3562 -0.5208
 2321SOL    HW116605   1.722   9.685   1.560 -2.0165  0.2955  0.8600
 2321SOL    HW216606   1.820   9.613   1.670 -0.1233  0.3704 -0.7651
 2322SOL     OW16607   1.617   1.054   4.139  0.2624  0.0330 -0.0398
 2322SOL    HW116608   1.691   1.056   4.206  1.1046 -2.0327 -0.8693
 2322SOL    HW216609   1.553   0.981   4.161  1.1149 -1.3697 -2.0063
 2323SOL     OW16610   1.082   5.123   1.272  0.2508  0.4980  0.9344
 2323SOL    HW116611   1.119   5.109   1.364 -0.6636 -1.4250  1.0414
 2323SOL    HW216612   1.079   5.035   1.224 -2.2409  0.9481  0.2056
 2324SOL     OW16613   0.345   0.516   3.017  0.8686 -0.0968 -0.3817
 2324SOL    HW116614   0.307   0.439   3.068  0.0861  0.3521 -0.2783
 2324SOL    HW216615   0.278   0.589   3.012  1.4439  0.4071 -0.8708
 2326SOL     OW16616   9.339   3.516   0.297 -0.1778 -0.1110 -0.3429
 2326SOL    HW116617   9.332   3.595   0.358  1.3338  1.9866 -2.7581
 2326SOL    HW216618   9.427   3.470   0.311  0.9943  1.4976 -2.1581
 2327SOL     OW16619   7.972   5.602   3.050 -0.1944  0.2095  0.0250
 2327SOL    HW116620   7.992   5.590   3.147 -0.3580 -1.3171 -0.1179
 2327SOL    HW216621   7.984   5.698   3.025  1.6435  0.2941  1.1546
 2328SOL     OW16622   0.627   5.692   1.838  0.6137  0.2547 -0.0846
 2328SOL    HW116623   0.670   5.615   1.791 -1.3006  0.1618 -1.7779
 2328SOL    HW216624   0.567   5.659   1.910  0.8572  0.2249  0.1034
 2329SOL     OW16625   9.446   5.294   4.994 -0.2252  0.0002 -0.0682
 2329SOL    HW116626   9.428   5.201   5.028 -2.3342  0.0669 -0.8901
 2329SOL    HW216627   9.361   5.333   4.960  0.9080  1.7722 -0.9167
 2330SOL     OW16628   3.247   3.783   0.061 -0.2209 -0.4542  0.6359
 2330SOL    HW116629   3.194   3.851   0.112 -0.0486  1.0203 -1.1197
 2330SOL    HW216630   3.201   3.763  -0.025  0.6637 -1.2486  0.3424
 2331SOL     OW16631   1.041   0.917   3.518 -0.2611  0.4900  0.1790
 2331SOL    HW116632   1.076   0.920   3.425  0.1304  2.3739  0.3686
 2331SOL    HW216633   0.956   0.865   3.521  0.5196 -0.8639 -0.9526
 2332SOL     OW16634   4.815   8.100   2.070 -0.9708 -0.6457  0.3145
 2332SOL    HW116635   4.752   8.092   2.147 -1.9164 -3.5647 -0.7067
 2332SOL    HW216636   4.894   8.040   2.085  1.3076  2.4526  1.2555
 2333SOL     OW16637   2.584   7.079   0.806  0.1605 -0.3380 -0.1712
 2333SOL    HW116638   2.500   7.117   0.767  0.4569 -0.3970 -0.8844
 2333SOL    HW216639   2.562   6.996   0.857 -0.2401 -0.2454 -0.1869
 2334SOL     OW16640   2.953   2.275   4.146 -0.5450 -0.3293  0.2825
 2334SOL    HW116641   2.871   2.310   4.102 -1.0681  0.3345  1.7620
 2334SOL    HW216642   2.959   2.176   4.133 -1.2274 -0.2787 -0.3940
 2335SOL     OW16643   3.141   8.725   1.811  0.7467 -0.4567  0.6044
 2335SOL    HW116644   3.069   8.780   1.854  1.4764  0.9257  0.1112
 2335SOL    HW216645   3.221   8.723   1.870  0.9330 -0.4839  0.3510
 2336SOL     OW16646   7.611   2.942   4.288 -0.0501 -0.0977 -1.0935
 2336SOL    HW116647   7.690   2.999   4.265 -1.1336  1.7844 -0.3328
 2336SOL    HW216648   7.545   2.945   4.213  0.1059 -0.7548 -1.2569
 2337SOL     OW16649   1.065   0.501   0.311  0.6926  0.1504 -0.0866
 2337SOL    HW116650   1.111   0.413   0.317 -0.1438 -0.2715  0.1555
 2337SOL    HW216651   1.111   0.558   0.242  0.1036 -1.1503 -1.5807
 2338SOL     OW16652   2.451   3.222   4.005 -0.2367  0.3991  0.0525
 2338SOL    HW116653   2.394   3.234   3.924 -0.1727  0.9608  0.0823
 2338SOL    HW216654   2.428   3.137   4.051 -1.4441  0.8868  0.3688
 2339SOL     OW16655   2.239   8.332   5.153 -0.0413 -0.6906 -0.4845
 2339SOL    HW116656   2.307   8.263   5.174  0.2693 -0.1349  0.3454
 2339SOL    HW216657   2.176   8.342   5.230  0.6681  0.8299 -0.0719
 2341SOL     OW16658   2.179   9.034   3.823 -0.2062 -0.0178 -0.0279
 2341SOL    HW116659   2.101   9.064   3.879 -0.3771  0.2628 -0.4091
 2341SOL    HW216660   2.262   9.034   3.879  0.1460  2.9378 -0.4282
 2342SOL     OW16661   8.291   2.020   0.528 -0.1958 -0.2903 -0.2037
 2342SOL    HW116662   8.306   1.977   0.616  1.8765  1.0909  0.1573
 2342SOL    HW216663   8.360   1.990   0.463 -1.2426 -0.7078 -1.1535
 2343SOL     OW16664   2.584   5.721   4.675  0.0074 -0.2544 -0.1989
 2343SOL    HW116665   2.597   5.802   4.618 -0.7824 -0.1266 -0.2064
 2343SOL    HW216666   2.505   5.735   4.735  0.2898 -0.7439  0.2894
 2344SOL     OW16667   4.404   8.593   1.365 -0.4118  0.1085 -0.2286
 2344SOL    HW116668   4.331   8.629   1.305 -1.4720  1.2841  1.6917
 2344SOL    HW216669   4.438   8.667   1.423  1.0331 -0.8662  0.1877
 2345SOL     OW16670   3.562   1.419   4.408  0.8022 -0.1359  0.4055
 2345SOL    HW116671   3.467   1.427   4.437  0.2721  0.5500 -1.4687
 2345SOL    HW216672   3.618   1.390   4.486 -1.2074 -2.3474  1.0845
 2346SOL     OW16673   4.526   2.782   5.326  0.0597 -0.3344 -0.2770
 2346SOL    HW116674   4.587   2.703   5.327  2.0845  1.1943  0.2423
 2346SOL    HW216675   4.522   2.820   5.234  0.4879  0.0122 -0.1531
 2347SOL     OW16676   0.253   0.116   1.858 -0.4042  0.5331  0.0460
 2347SOL    HW116677   0.189   0.073   1.921 -0.8751  3.5119  1.6804
 2347SOL    HW216678   0.331   0.153   1.908  0.1768  1.2553 -1.3506
 2348SOL     OW16679   3.361   7.671   3.555 -0.4217  0.2691  0.5941
 2348SOL    HW116680   3.309   7.692   3.472  0.9595  0.8563 -0.1412
 2348SOL    HW216681   3.392   7.756   3.597 -1.8189  0.0248  2.2100
 2349SOL     OW16682   9.098   7.142   1.909 -0.0298  0.2557 -0.0736
 2349SOL    HW116683   9.070   7.142   1.813 -1.1816  1.6293  0.2460
 2349SOL    HW216684   9.167   7.212   1.924  1.1209 -0.8396 -0.1541
 2350SOL     OW16685   1.239   0.886   0.900  0.4948  0.2856 -0.2843
 2350SOL    HW116686   1.185   0.820   0.848  0.1200  0.1811  0.2327
 2350SOL    HW216687   1.300   0.838   0.962  1.1534  0.4052 -0.8319
 2351SOL     OW16688   9.435   7.570   3.162 -0.0543  0.0166  0.6540
 2351SOL    HW116689   9.476   7.614   3.242  1.2732  1.4062 -0.7431
 2351SOL    HW216690   9.504   7.515   3.115  0.1273  1.8761 -1.3729
 2352SOL     OW16691   7.120   8.821   5.187 -0.0971 -0.0264 -0.2238
 2352SOL    HW116692   7.161   8.829   5.096  0.4018 -1.3885 -0.1191
 2352SOL    HW216693   7.173   8.875   5.252  1.0648 -1.1255 -0.2497
 2353SOL     OW16694   5.892   1.020   4.321  0.2378 -0.3922 -0.1361
 2353SOL    HW116695   5.882   1.105   4.372  0.7444 -1.5669  1.9641
 2353SOL    HW216696   5.805   0.970   4.321  0.9432 -1.6927  1.9962
 2354SOL     OW16697   7.809   7.875   2.878 -0.2234  0.1356  0.3114
 2354SOL    HW116698   7.843   7.945   2.942 -1.3049  1.1771 -0.2200
 2354SOL    HW216699   7.808   7.913   2.785  0.2675 -0.9856 -0.1527
 2355SOL     OW16700   8.971   1.791   1.053 -0.0867 -0.2524 -0.7824
 2355SOL    HW116701   8.940   1.869   0.998  0.7219  1.4805  1.1251
 2355SOL    HW216702   9.023   1.825   1.132  0.0592 -2.7292  0.2347
 2356SOL     OW16703   0.138   6.589   0.545  0.3543  0.1214  0.1943
 2356SOL    HW116704   0.215   6.543   0.501  0.3923  0.5900 -0.2454
 2356SOL    HW216705   0.082   6.634   0.475 -0.4131 -0.3515  0.4930
 2357SOL     OW16706   3.557   5.653   0.923  0.3793 -0.1553  0.4731
 2357SOL    HW116707   3.626   5.724   0.935  0.4343 -0.2704  0.8237
 2357SOL    HW216708   3.601   5.567   0.899  0.2171  0.2792 -1.4771
 2358SOL     OW16709   8.522   2.563   3.440 -0.6525  0.7248  0.5252
 2358SOL    HW116710   8.556   2.508   3.364  0.0250  1.7917  0.0505
 2358SOL    HW216711   8.425   2.583   3.426 -1.3632 -1.7814  1.5670
 2359SOL     OW16712   5.759   7.966   2.198  0.1606 -0.4260  0.5670
 2359SOL    HW116713   5.842   7.922   2.232 -0.0865 -0.3448  1.3079
 2359SOL    HW216714   5.749   8.056   2.241  0.6185  0.3247 -0.8821
 2362SOL     OW16715   6.331   0.608   2.992 -0.1829  0.0926 -0.0017
 2362SOL    HW116716   6.329   0.573   2.898 -0.9502  1.0137 -0.3456
 2362SOL    HW216717   6.325   0.708   2.990  1.2283  0.2089  0.9857
 2363SOL     OW16718   7.923   8.636   4.562  0.3531 -0.4275  0.2070
 2363SOL    HW116719   7.983   8.715   4.573 -0.5706  0.4210 -0.7091
 2363SOL    HW216720   7.957   8.579   4.488 -0.0312  0.1106 -0.3851
 2365SOL     OW16721   9.450   5.008   2.461  0.2053 -0.0333 -0.2054
 2365SOL    HW116722   9.359   5.025   2.500 -0.3986 -0.1735 -1.5286
 2365SOL    HW216723   9.499   4.942   2.518 -0.6243 -0.1694  0.3637
 2366SOL     OW16724   5.144   3.624   0.473  0.0127  0.1165  0.1075
 2366SOL    HW116725   5.223   3.609   0.413 -0.7023 -0.2392 -0.7691
 2366SOL    HW216726   5.109   3.535   0.503 -0.4550  0.2480 -0.0499
 2367SOL     OW16727   3.983   8.091   1.903 -0.0181 -0.3083 -0.6903
 2367SOL    HW116728   3.896   8.139   1.889 -0.3899 -1.0246 -0.8954
 2367SOL    HW216729   4.058   8.148   1.871 -0.5586 -0.4012 -2.1515
 2368SOL     OW16730   2.674   7.339   0.113  0.0704 -0.6008  0.2280
 2368SOL    HW116731   2.731   7.264   0.145 -1.7058 -1.8265  0.6319
 2368SOL    HW216732   2.618   7.307   0.036  0.7069  0.8918 -0.8834
 2369SOL     OW16733   3.111   0.967   3.923  0.0940  0.0554  0.5373
 2369SOL    HW116734   3.126   1.056   3.966  0.6084  0.4793 -0.5034
 2369SOL    HW216735   3.141   0.895   3.986 -0.0327  0.6242  1.2616
 2370SOL     OW16736   1.190   4.961   1.790  0.6154 -0.3259  0.2238
 2370SOL    HW116737   1.149   5.005   1.869  0.5275  1.8145 -0.9857
 2370SOL    HW216738   1.290   4.960   1.801  0.6719  0.9583 -0.1338
 2371SOL     OW16739   2.674   4.446   1.428  1.0814 -0.1358 -0.0320
 2371SOL    HW116740   2.772   4.450   1.408  1.1341 -0.3569  0.1863
 2371SOL    HW216741   2.656   4.371   1.491  0.6312 -0.7619 -0.8875
 2372SOL     OW16742   1.566   1.569   0.327  0.0771 -0.4868 -0.4657
 2372SOL    HW116743   1.544   1.663   0.300  0.2107 -0.9931 -2.3892
 2372SOL    HW216744   1.663   1.551   0.307 -0.3795 -1.5822 -1.7153
 2373SOL     OW16745   7.303   8.250   5.103  0.7464  0.1316 -0.1872
 2373SOL    HW116746   7.338   8.293   5.019  1.4495  0.2343  0.1572
 2373SOL    HW216747   7.259   8.320   5.159  2.0206  0.4426  0.4414
 2375SOL     OW16748   4.876   2.439   2.301  0.0885  0.4431  0.3497
 2375SOL    HW116749   4.910   2.353   2.340 -1.3761  0.0916  0.9017
 2375SOL    HW216750   4.946   2.479   2.242  0.4656 -1.5742 -0.6197
 2376SOL     OW16751   2.407   7.379   0.512  0.9293 -0.1947 -0.2550
 2376SOL    HW116752   2.378   7.330   0.430 -0.4820 -0.0510  0.1385
 2376SOL    HW216753   2.378   7.474   0.506 -0.5054 -0.5356  1.0591
 2377SOL     OW16754   0.470   6.227   4.466 -0.4826 -0.3740 -0.0595
 2377SOL    HW116755   0.493   6.148   4.523 -3.0495 -0.8421  0.3689
 2377SOL    HW216756   0.440   6.196   4.376  1.1320  0.2583 -0.8301
 2378SOL     OW16757   6.217   8.272   2.771  0.8314  0.1301  0.5441
 2378SOL    HW116758   6.130   8.280   2.722 -0.1736  0.7747  2.3545
 2378SOL    HW216759   6.292   8.301   2.711 -0.0656 -1.4680 -1.3930
 2379SOL     OW16760   5.533   2.913   3.969 -0.2809  0.3334 -0.6823
 2379SOL    HW116761   5.587   2.896   3.887  0.4664  1.4578 -0.4197
 2379SOL    HW216762   5.440   2.878   3.955 -0.4682  1.4704 -2.4025
 2380SOL     OW16763   5.911   0.187   2.394 -0.1301 -0.4122  1.0676
 2380SOL    HW116764   6.000   0.227   2.415 -0.1197  0.7436 -0.9944
 2380SOL    HW216765   5.916   0.088   2.405  1.7075 -0.4586  0.0975
 2381SOL     OW16766   4.414   3.729   3.002 -0.2260 -0.2444 -0.3850
 2381SOL    HW116767   4.351   3.676   2.946 -3.8340 -0.2408  3.4463
 2381SOL    HW216768   4.493   3.672   3.025 -0.9772 -1.8026 -1.5377
 2382SOL     OW16769   1.962   8.012   1.048 -0.1307  0.2847  0.3179
 2382SOL    HW116770   1.946   7.975   0.957 -1.8577  2.2663 -0.2143
 2382SOL    HW216771   1.890   7.981   1.110  0.9349 -0.9073  0.9981
 2383SOL     OW16772   4.932   9.109   2.063  0.4492 -0.7313  0.1836
 2383SOL    HW116773   4.889   9.019   2.050  3.1296 -1.9005 -0.9743
 2383SOL    HW216774   5.031   9.097   2.074  1.0008  2.1852 -1.2633
 2384SOL     OW16775   0.314   3.750   2.080 -0.5743 -0.4864  0.1535
 2384SOL    HW116776   0.393   3.768   2.139 -0.8390 -1.7449  0.9134
 2384SOL    HW216777   0.343   3.752   1.984  0.9763 -3.5483  0.4926
 2388SOL     OW16778   9.374   7.096   1.334  0.6267  0.6037  0.4891
 2388SOL    HW116779   9.449   7.033   1.313  0.0631 -0.2448  1.0303
 2388SOL    HW216780   9.410   7.174   1.386  1.2679  0.5700  0.0981
 2389SOL     OW16781   4.666   3.806   5.145 -0.0427  0.4961 -0.9158
 2389SOL    HW116782   4.722   3.855   5.212  1.7422 -2.5120 -0.0783
 2389SOL    HW216783   4.592   3.758   5.192  0.0052  0.0159 -1.3187
 2390SOL     OW16784   3.260   0.571   1.347 -0.5798  0.2507 -1.3231
 2390SOL    HW116785   3.321   0.597   1.422 -0.7786  0.6901 -1.3101
 2390SOL    HW216786   3.230   0.653   1.298 -2.6265  0.2168 -0.1841
 2391SOL     OW16787   3.762   5.690   3.379  0.0844 -0.9737 -0.3764
 2391SOL    HW116788   3.715   5.606   3.404  1.9201 -1.8931  0.1289
 2391SOL    HW216789   3.831   5.670   3.309 -0.7466  0.4602 -1.6313
 2392SOL     OW16790   8.350   3.837   3.141 -0.2621 -0.2701  0.1766
 2392SOL    HW116791   8.397   3.797   3.219 -0.4112 -0.4057  0.1991
 2392SOL    HW216792   8.331   3.765   3.074 -0.2902 -0.1859  0.0943
 2393SOL     OW16793   8.318   4.855   5.113 -0.1736  0.6409  0.3780
 2393SOL    HW116794   8.311   4.907   5.028  0.2112  0.7846  0.4302
 2393SOL    HW216795   8.340   4.918   5.188 -0.3327  0.4884  0.5515
 2394SOL     OW16796   7.221   3.394   0.785 -0.7576  0.3384 -0.0708
 2394SOL    HW116797   7.262   3.454   0.715 -0.3818 -0.8419 -0.8709
 2394SOL    HW216798   7.274   3.310   0.792 -1.4027  0.0109  0.9143
 2397SOL     OW16799   0.597   5.800   3.046 -0.3739  0.1759 -0.0940
 2397SOL    HW116800   0.593   5.757   2.956 -0.7852 -1.0026  0.4843
 2397SOL    HW216801   0.691   5.825   3.067 -0.3737  1.1030 -1.1453
 2399SOL     OW16802   8.233   7.525   1.499  0.6525  0.0231 -0.1606
 2399SOL    HW116803   8.234   7.425   1.508 -0.0175 -0.1680 -1.9460
 2399SOL    HW216804   8.316   7.563   1.539  1.4059 -1.3340 -0.3845
 2400SOL     OW16805   6.912   2.353   3.231 -0.3150  0.7205 -0.0149
 2400SOL    HW116806   6.845   2.405   3.178 -0.8428  0.3156  0.2654
 2400SOL    HW216807   6.952   2.281   3.173 -2.4463 -1.1121  0.7620
 2402SOL     OW16808   8.606   9.111   4.562 -0.2194 -0.3941 -0.6084
 2402SOL    HW116809   8.658   9.032   4.531 -3.0067 -1.7933 -1.8820
 2402SOL    HW216810   8.620   9.187   4.498  1.5248 -0.2215 -0.0355
 2403SOL     OW16811   2.232   8.782   1.763  0.0381  0.5192  0.0633
 2403SOL    HW116812   2.221   8.773   1.664 -1.3032  0.2141  0.2299
 2403SOL    HW216813   2.171   8.854   1.797 -1.8514 -1.5092  1.0931
 2404SOL     OW16814   7.257   4.194   0.400 -0.0906 -0.6489 -0.0897
 2404SOL    HW116815   7.223   4.117   0.344 -0.2079 -1.1202  0.6176
 2404SOL    HW216816   7.226   4.280   0.360  0.0458 -0.9695 -0.8989
 2405SOL     OW16817   3.631   0.433   1.415  0.0870  0.6560 -0.0056
 2405SOL    HW116818   3.542   0.478   1.417  0.8325  2.1592  0.8178
 2405SOL    HW216819   3.622   0.339   1.448 -1.7537 -0.3127 -3.1217
 2406SOL     OW16820   2.344   3.153   3.681  0.4171  0.0541 -0.0188
 2406SOL    HW116821   2.422   3.108   3.638 -1.0976 -0.1376 -2.6563
 2406SOL    HW216822   2.355   3.252   3.674 -1.0326  0.0627 -3.3285
 2407SOL     OW16823   1.722   1.037   5.316 -0.2261 -0.1657 -1.2214
 2407SOL    HW116824   1.721   0.941   5.346 -1.0912  0.5159  0.9980
 2407SOL    HW216825   1.651   1.088   5.364  2.1848  2.2542 -0.1285
 2408SOL     OW16826   0.390   9.113   2.623  0.1521  0.0226 -0.6343
 2408SOL    HW116827   0.298   9.119   2.662  1.2227  0.0807  2.0463
 2408SOL    HW216828   0.414   9.017   2.608 -0.2063 -0.0096 -1.0013
 2409SOL     OW16829   2.917   5.705   0.174  0.0517 -0.3566  0.2590
 2409SOL    HW116830   2.824   5.671   0.189  0.3422 -1.5375 -0.5178
 2409SOL    HW216831   2.980   5.660   0.237  0.0892  0.4789  0.8188
 2410SOL     OW16832   2.869   9.409   1.017 -0.1708  0.2411 -0.3023
 2410SOL    HW116833   2.806   9.462   1.075 -0.9918 -1.2703  0.2026
 2410SOL    HW216834   2.834   9.317   1.005  1.8311 -0.5550 -0.2336
 2411SOL     OW16835   0.131   7.004   3.236 -0.3318  0.2031  0.5666
 2411SOL    HW116836   0.055   6.956   3.282 -0.6077  0.7745  0.7122
 2411SOL    HW216837   0.154   6.956   3.152 -0.2839 -0.4661  0.9536
 2412SOL     OW16838   8.443   7.676   4.001 -0.3082  1.2020  0.1678
 2412SOL    HW116839   8.541   7.691   4.014  0.1821 -0.6538 -1.1947
 2412SOL    HW216840   8.414   7.718   3.914 -0.4808  0.7209 -0.0074
 2413SOL     OW16841   5.544   1.582   2.012 -0.3040  0.1618 -0.2487
 2413SOL    HW116842   5.545   1.570   2.111 -0.2281  1.0295 -0.1351
 2413SOL    HW216843   5.599   1.511   1.969  1.2848  0.9313  0.4759
 2414SOL     OW16844   1.716   0.741   2.879 -0.1208  0.1183 -0.2313
 2414SOL    HW116845   1.766   0.658   2.852 -1.6800 -0.2375 -2.1651
 2414SOL    HW216846   1.647   0.762   2.810  0.2282  3.0499  0.2458
 2416SOL     OW16847   3.762   7.211   4.412  0.2718 -0.5863 -0.5109
 2416SOL    HW116848   3.765   7.302   4.372 -0.3340  0.3476  1.5094
 2416SOL    HW216849   3.848   7.164   4.394  1.9507  1.6664  1.3234
 2417SOL     OW16850   0.516   9.119   3.117 -0.1137  0.3078 -0.3602
 2417SOL    HW116851   0.581   9.184   3.077  1.9844 -1.0591  0.7326
 2417SOL    HW216852   0.484   9.057   3.045 -0.0401  0.8536 -0.8718
 2418SOL     OW16853   8.316   3.104   5.033  0.3761  0.2275  0.0055
 2418SOL    HW116854   8.235   3.138   5.080  1.0170 -2.1489  3.0217
 2418SOL    HW216855   8.392   3.097   5.099  1.9350 -1.1468 -1.8835
 2419SOL     OW16856   0.905   0.340   0.653  0.4172  0.1023 -0.1005
 2419SOL    HW116857   0.888   0.248   0.616  0.0150 -0.3741  1.2552
 2419SOL    HW216858   0.970   0.388   0.593  1.5319 -1.4807 -0.2023
 2420SOL     OW16859   5.873   2.328   4.163 -0.5888  0.4592 -0.6032
 2420SOL    HW116860   5.913   2.383   4.236  1.2442 -1.1351 -0.3528
 2420SOL    HW216861   5.878   2.379   4.077 -1.0832  1.6037  0.0307
 2421SOL     OW16862   4.113   8.331   1.271 -0.2657  0.2305  0.0275
 2421SOL    HW116863   4.187   8.274   1.235 -0.3704  0.5629 -0.7220
 2421SOL    HW216864   4.138   8.427   1.261  0.4760  0.3193  2.4686
 2423SOL     OW16865   1.369   7.007   4.222  0.6143 -0.0018  0.2372
 2423SOL    HW116866   1.397   6.961   4.306  2.6658 -1.3137 -1.1369
 2423SOL    HW216867   1.425   7.089   4.209 -0.3875  0.7580  0.6584
 2424SOL     OW16868   4.771   4.941   1.204 -0.0989 -0.2316 -0.4467
 2424SOL    HW116869   4.781   4.877   1.128  0.4523 -2.9451  1.8403
 2424SOL    HW216870   4.861   4.962   1.242 -0.4525  0.2717  0.1247
 2425SOL     OW16871   4.369   7.831   4.744  0.3671  0.6074 -0.2176
 2425SOL    HW116872   4.274   7.802   4.751  0.5356 -0.3862 -1.8266
 2425SOL    HW216873   4.414   7.820   4.833 -0.0777 -2.3182 -0.3339
 2426SOL     OW16874   1.986   6.535   3.622 -0.2933 -0.6210  0.4790
 2426SOL    HW116875   2.077   6.496   3.635 -0.1828 -0.2847  0.7259
 2426SOL    HW216876   1.983   6.626   3.662 -1.0145 -0.9962  1.2747
 2427SOL     OW16877   1.777   3.420   3.354  0.1671  0.3560 -0.6815
 2427SOL    HW116878   1.791   3.399   3.451  0.1515  1.0762 -0.5236
 2427SOL    HW216879   1.712   3.354   3.315  0.2969 -0.0341 -0.2436
 2428SOL     OW16880   4.191   1.847   5.216  0.3321 -0.1182  0.2046
 2428SOL    HW116881   4.277   1.897   5.208 -0.8237  1.7300 -0.7950
 2428SOL    HW216882   4.195   1.766   5.157  1.1564  0.2757 -0.3010
 2429SOL     OW16883   8.948   9.140   1.497  0.1166  0.3093  0.3268
 2429SOL    HW116884   8.863   9.150   1.550  0.5415 -1.0109  1.2795
 2429SOL    HW216885   8.927   9.145   1.400 -0.9702  0.6239  0.5686
 2430SOL     OW16886   4.929   8.433   2.657  0.6248 -0.2228  0.6566
 2430SOL    HW116887   4.945   8.491   2.578  0.4882  0.0367  0.8198
 2430SOL    HW216888   4.838   8.392   2.651  1.0033 -1.0118  0.1668
 2432SOL     OW16889   1.652   4.589   1.072 -0.4720  0.3888 -0.2247
 2432SOL    HW116890   1.690   4.499   1.095  0.7308  1.1433  0.8250
 2432SOL    HW216891   1.698   4.625   0.992 -0.3903  0.4190 -0.1643
 2433SOL     OW16892   8.017   6.581   3.521  0.1573 -0.2833  0.4753
 2433SOL    HW116893   8.100   6.551   3.474 -0.6749 -2.2195  0.1869
 2433SOL    HW216894   8.008   6.532   3.608 -1.5290 -1.3536 -0.2760
 2434SOL     OW16895   1.120   9.302   3.521 -0.4597 -0.3534  0.0433
 2434SOL    HW116896   1.075   9.333   3.605 -0.5657  1.3945 -0.6396
 2434SOL    HW216897   1.105   9.203   3.510 -0.6221 -0.5666  1.9559
 2435SOL     OW16898   0.823   9.197   2.239 -0.1107 -0.4889  0.0337
 2435SOL    HW116899   0.798   9.241   2.153 -2.0640 -0.1597  0.7419
 2435SOL    HW216900   0.797   9.256   2.316  2.7286 -0.2344  0.8456
 2436SOL     OW16901   2.207   0.358   2.894  0.5237 -0.5080  0.4523
 2436SOL    HW116902   2.141   0.323   2.828 -0.4131  2.6306 -0.3330
 2436SOL    HW216903   2.191   0.313   2.983 -2.8661  0.3218  0.3495
 2437SOL     OW16904   1.922   1.183   2.249 -0.1257  0.2489 -0.3570
 2437SOL    HW116905   1.954   1.196   2.155 -0.3516 -0.2426 -0.5042
 2437SOL    HW216906   1.959   1.255   2.307  0.4418  0.2518 -0.7208
 2439SOL     OW16907   0.284   6.141   3.107 -0.0559  0.3087  0.0115
 2439SOL    HW116908   0.351   6.106   3.042 -0.3113  0.1454 -0.1640
 2439SOL    HW216909   0.306   6.108   3.199 -0.2558 -0.2530 -0.1417
 2440SOL     OW16910   8.232   1.711   4.036  0.3006 -0.1278 -0.2041
 2440SOL    HW116911   8.231   1.615   4.006  0.8331 -0.9702  2.3366
 2440SOL    HW216912   8.176   1.720   4.119  1.4947  1.4742  0.4467
 2441SOL     OW16913   3.768   8.866   2.825  0.2625  0.2524  0.6405
 2441SOL    HW116914   3.738   8.885   2.731 -0.3155 -3.1833  0.0745
 2441SOL    HW216915   3.747   8.771   2.849  1.3745  0.7457  3.8997
 2442SOL     OW16916   8.956   9.035   4.941 -0.4936  0.7012  0.6053
 2442SOL    HW116917   8.998   9.123   4.919 -0.7666  1.1631  1.9123
 2442SOL    HW216918   8.995   9.000   5.026  0.3763 -0.9496 -0.4332
 2444SOL     OW16919   4.452   4.277   3.252 -0.1489 -0.2411 -0.1909
 2444SOL    HW116920   4.380   4.256   3.186 -0.9418  0.7637  0.3467
 2444SOL    HW216921   4.513   4.347   3.214  0.3481 -0.8314 -0.5001
 2445SOL     OW16922   2.946   3.845   3.226 -0.0175 -0.0046 -0.2054
 2445SOL    HW116923   3.040   3.819   3.247 -0.1376 -0.0004  0.3448
 2445SOL    HW216924   2.946   3.935   3.182  0.2458 -0.0683 -0.3398
 2448SOL     OW16925   3.028   2.668   3.418  0.4200  0.3454 -0.0502
 2448SOL    HW116926   2.947   2.725   3.406 -0.0101 -0.4151 -0.8339
 2448SOL    HW216927   3.095   2.689   3.347 -0.3546 -1.1492 -1.2541
 2450SOL     OW16928   3.799   7.167   3.490  0.4725  0.1521  0.6947
 2450SOL    HW116929   3.788   7.266   3.493 -0.2480  0.0969 -0.1435
 2450SOL    HW216930   3.821   7.138   3.397 -1.5317 -0.7056  0.4711
 2451SOL     OW16931   1.242   5.025   4.555  0.1685 -0.1986  0.5289
 2451SOL    HW116932   1.206   4.970   4.630 -0.1566 -1.9474 -0.8486
 2451SOL    HW216933   1.326   4.982   4.520  0.4833  0.7551  0.0897
 2452SOL     OW16934   2.924   5.188   0.934  0.0202  0.7253 -0.6193
 2452SOL    HW116935   2.962   5.168   0.844  1.8621  0.2012  0.2528
 2452SOL    HW216936   2.882   5.106   0.971  1.5203  0.2418  0.0579
 2453SOL     OW16937   2.519   9.485   3.439  0.0684 -0.0841 -0.1174
 2453SOL    HW116938   2.488   9.437   3.522  0.4961 -0.6145 -0.2634
 2453SOL    HW216939   2.514   9.423   3.361 -1.4023  0.7519 -0.7051
 2454SOL     OW16940   2.948   8.983   1.079 -0.0794 -0.8256  1.1047
 2454SOL    HW116941   2.888   8.905   1.060 -0.6307  0.2946 -2.0819
 2454SOL    HW216942   2.892   9.066   1.089  0.8473  0.1288 -1.3290
 2455SOL     OW16943   8.904   4.465   5.200 -0.4477 -0.4228 -0.0246
 2455SOL    HW116944   8.831   4.477   5.132  0.7931 -0.6073 -1.4232
 2455SOL    HW216945   8.948   4.553   5.217 -1.9446 -0.0172  1.9540
 2457SOL     OW16946   0.368   8.695   5.123 -0.0129 -0.3783  0.7080
 2457SOL    HW116947   0.344   8.687   5.027  1.3374  0.7984  0.2685
 2457SOL    HW216948   0.454   8.745   5.133 -1.2706  1.4818  2.6329
 2459SOL     OW16949   4.895   3.296   3.368 -0.2035  0.0734  0.1309
 2459SOL    HW116950   4.926   3.388   3.345  1.2014  0.1863  2.3936
 2459SOL    HW216951   4.951   3.229   3.319  0.1816  0.3892  0.1337
 2460SOL     OW16952   2.414   9.094   1.511 -0.0567  0.5764 -0.7782
 2460SOL    HW116953   2.492   9.041   1.476  0.4618  0.3922  0.6256
 2460SOL    HW216954   2.439   9.191   1.516 -0.2335  0.6450 -1.2028
 2461SOL     OW16955   8.116   2.960   3.094 -0.1983 -0.5088 -0.6817
 2461SOL    HW116956   8.099   3.020   3.172 -1.0136 -1.6578  0.0533
 2461SOL    HW216957   8.187   2.999   3.036 -1.2992  1.5839 -0.6900
 2462SOL     OW16958   3.449   8.558   1.365  0.8809 -0.4713 -0.1657
 2462SOL    HW116959   3.373   8.583   1.425 -0.0023  2.1576 -2.3032
 2462SOL    HW216960   3.417   8.491   1.297  0.2504  1.1396 -1.4876
 2463SOL     OW16961   1.598   2.311   3.731  0.2302  0.3867  0.0394
 2463SOL    HW116962   1.683   2.317   3.783  1.7426 -0.1872 -2.2683
 2463SOL    HW216963   1.595   2.224   3.682 -2.1457  0.0029  0.8313
 2465SOL     OW16964   2.851   7.123   3.981  0.0124 -0.4573  0.0724
 2465SOL    HW116965   2.944   7.088   3.976  0.1783  0.0316 -0.3829
 2465SOL    HW216966   2.854   7.223   3.990 -0.4683 -0.3855 -0.5223
 2466SOL     OW16967   7.190   0.481   1.203  0.5834  0.2317 -0.0868
 2466SOL    HW116968   7.095   0.468   1.174  0.4901 -0.1356  0.3828
 2466SOL    HW216969   7.249   0.485   1.122  0.4716 -1.9843 -0.2966
 2467SOL     OW16970   4.693   7.966   1.408  0.9617 -0.2643  0.6422
 2467SOL    HW116971   4.723   8.036   1.342  0.0865 -2.1579 -1.8519
 2467SOL    HW216972   4.763   7.895   1.415 -0.6281 -2.0695 -1.2849
 2468SOL     OW16973   5.600   7.499   4.210 -0.3324 -0.0506  0.6720
 2468SOL    HW116974   5.595   7.579   4.270 -0.0115 -0.4129  1.1877
 2468SOL    HW216975   5.695   7.465   4.208 -0.2988  0.0622 -0.1781
 2469SOL     OW16976   7.008   9.056   3.885  0.1541  0.0051 -0.3727
 2469SOL    HW116977   6.960   9.083   3.969 -0.1447 -2.8139  0.3927
 2469SOL    HW216978   6.964   8.977   3.845  2.2353 -0.6664 -1.4333
 2470SOL     OW16979   2.212   1.873   3.636 -0.1008  0.2530  0.0624
 2470SOL    HW116980   2.263   1.848   3.553  1.9743  0.5484  1.2193
 2470SOL    HW216981   2.205   1.793   3.695 -1.5482  0.0539 -0.3533
 2472SOL     OW16982   2.825   9.834   1.040  0.2328 -0.6479 -0.9204
 2472SOL    HW116983   2.845   9.843   0.943 -1.6458  0.3125 -1.2451
 2472SOL    HW216984   2.742   9.779   1.052  0.8866 -1.4225  0.1900
 2473SOL     OW16985   0.294   9.616   3.711 -0.1854  0.1920  0.2653
 2473SOL    HW116986   0.211   9.656   3.750 -2.2246 -0.8213 -2.8996
 2473SOL    HW216987   0.303   9.522   3.743 -1.4973 -0.4291 -1.1792
 2474SOL     OW16988   6.511   0.382   3.966 -0.5003  0.1045  0.0933
 2474SOL    HW116989   6.565   0.308   4.006  0.2826 -0.2137 -1.5247
 2474SOL    HW216990   6.527   0.467   4.017  0.0177 -0.4194  0.8095
 2475SOL     OW16991   5.859   9.650   1.451  0.0195  0.1756  0.9693
 2475SOL    HW116992   5.914   9.719   1.497 -1.9550  1.2115  1.8419
 2475SOL    HW216993   5.772   9.690   1.422 -0.9249 -1.8011  0.9822
 2476SOL     OW16994   2.654   9.086   2.244 -0.1695 -0.1846 -0.5149
 2476SOL    HW116995   2.684   8.991   2.240  0.7398  0.1244 -1.3019
 2476SOL    HW216996   2.595   9.099   2.323 -1.2755 -1.6705 -1.0822
 2478SOL     OW16997   4.910   3.316   1.941  0.5169  0.1216  0.1615
 2478SOL    HW116998   4.991   3.375   1.947  1.9570 -1.7181 -0.7931
 2478SOL    HW216999   4.914   3.248   2.013  0.7320 -1.0688 -0.9587
 2479SOL     OW17000   5.052   9.832   3.789 -0.1226 -0.0809 -0.2292
 2479SOL    HW117001   5.066   9.848   3.691  2.2405  3.0663  0.5542
 2479SOL    HW217002   5.131   9.867   3.840 -1.0491 -2.2093  2.7902
 2480SOL     OW17003   1.276   2.290   4.656 -0.1792  0.2655  0.1025
 2480SOL    HW117004   1.198   2.228   4.650 -0.3499  0.4074  0.7667
 2480SOL    HW217005   1.296   2.309   4.753  2.5109 -2.1079  0.0960
 2481SOL     OW17006   4.110   9.004   3.625 -0.2051 -0.6645 -0.0794
 2481SOL    HW117007   4.089   9.087   3.572 -1.0948 -0.9125 -0.1271
 2481SOL    HW217008   4.025   8.962   3.656  0.2893 -0.9338  0.9240
 2482SOL     OW17009   3.003   5.024   2.981 -0.8870 -0.1933 -0.6741
 2482SOL    HW117010   2.948   5.068   2.910 -0.5869  0.7825 -0.3138
 2482SOL    HW217011   2.943   4.975   3.044 -1.1526 -1.0714 -1.6047
 2483SOL     OW17012   9.812   8.083   1.698 -0.1652 -0.1905 -0.0318
 2483SOL    HW117013   9.888   8.095   1.633  0.3742 -0.2879  0.5779
 2483SOL    HW217014   9.755   8.165   1.696  0.1774  0.0505 -0.2077
 2484SOL     OW17015   7.973   1.057   0.284 -0.1251 -0.1091  0.4297
 2484SOL    HW117016   7.965   1.072   0.186 -2.6541 -1.6388  0.3603
 2484SOL    HW217017   8.059   1.009   0.304  1.2128  1.7327 -0.8222
 2485SOL     OW17018   1.908   3.227   3.935  0.0215 -0.3925  0.2676
 2485SOL    HW117019   1.967   3.271   3.868  1.3060  0.3726  1.8916
 2485SOL    HW217020   1.831   3.183   3.888  0.6163  0.5942 -1.6447
 2486SOL     OW17021   2.949   6.780   3.497 -0.1344  0.1654 -0.3284
 2486SOL    HW117022   2.899   6.865   3.513 -0.0443  0.4045 -1.2591
 2486SOL    HW217023   3.015   6.795   3.423  0.6574 -0.4063  0.2456
 2488SOL     OW17024   3.123   3.975   0.217  0.9028  0.1156 -0.3617
 2488SOL    HW117025   3.045   3.918   0.241 -0.5856  2.0183 -0.5268
 2488SOL    HW217026   3.157   4.021   0.299  2.3283 -1.2840 -0.1627
 2490SOL     OW17027   4.279   7.272   2.289  0.0008 -0.7474 -0.4077
 2490SOL    HW117028   4.323   7.257   2.201  0.6354 -1.1953 -0.0238
 2490SOL    HW217029   4.211   7.201   2.306  0.5889 -1.2395 -0.0961
 2491SOL     OW17030   9.973   6.855   0.796 -0.2773 -0.4013 -0.0589
 2491SOL    HW117031  10.049   6.841   0.733  0.3368  0.9001  0.3791
 2491SOL    HW217032   9.997   6.820   0.886 -0.2170 -0.0205  0.0723
 2492SOL     OW17033   3.151   9.743   2.409  0.2312  0.2023 -0.1443
 2492SOL    HW117034   3.153   9.692   2.324 -0.0968 -0.1427  0.0533
 2492SOL    HW217035   3.192   9.688   2.482 -1.2785 -0.3028  0.3461
 2493SOL     OW17036   0.852   9.567   0.656 -0.1545 -0.4047  0.3869
 2493SOL    HW117037   0.803   9.484   0.629 -0.7799 -0.1245  0.6594
 2493SOL    HW217038   0.789   9.630   0.701  0.4058  0.0570  0.5329
 2494SOL     OW17039   6.850   9.600   2.329 -0.3038 -0.2590 -0.4892
 2494SOL    HW117040   6.888   9.532   2.267  1.2808 -0.9047  1.1383
 2494SOL    HW217041   6.802   9.670   2.277  2.2130  0.0038 -2.5746
 2495SOL     OW17042   8.327   2.504   2.301 -0.2815 -0.4917 -0.4908
 2495SOL    HW117043   8.255   2.563   2.337 -0.5359 -0.8825 -0.3596
 2495SOL    HW217044   8.287   2.427   2.252  0.0907  1.3716 -3.8019
 2497SOL     OW17045   0.064   9.752   0.246 -0.0821  0.0742  0.5365
 2497SOL    HW117046  -0.004   9.786   0.181  0.3698 -1.3613 -0.7371
 2497SOL    HW217047   0.133   9.823   0.262 -1.7877  1.4852  1.7500
 2498SOL     OW17048   8.627   6.715   3.208 -0.1332 -0.1390 -0.6084
 2498SOL    HW117049   8.564   6.787   3.236  0.3506  0.3156 -0.6897
 2498SOL    HW217050   8.579   6.649   3.151 -1.0000 -0.7789  0.8274
 2500SOL     OW17051   0.670   3.594   0.886 -0.3098 -0.5393 -0.2451
 2500SOL    HW117052   0.663   3.505   0.841 -0.6221 -0.9151  0.5376
 2500SOL    HW217053   0.649   3.584   0.983  0.8764  0.1689  0.0919
 2501SOL     OW17054   4.198   0.426   1.446  0.3765 -0.6582 -0.0771
 2501SOL    HW117055   4.224   0.396   1.537 -1.8777 -1.2224  0.4276
 2501SOL    HW217056   4.139   0.357   1.404  1.1889 -0.2932 -1.8608
 2502SOL     OW17057   1.622   7.124   4.465 -0.3317  0.2796 -0.2710
 2502SOL    HW117058   1.656   7.211   4.501 -1.6254  0.7457 -0.1794
 2502SOL    HW217059   1.655   7.049   4.522  2.2874  0.5227 -1.3633
 2503SOL     OW17060   2.001   0.269   3.540  0.9531 -0.5693 -0.6221
 2503SOL    HW117061   2.040   0.207   3.609  0.5128 -0.1122  0.0403
 2503SOL    HW217062   1.913   0.304   3.572  1.4222  0.7888 -0.7593
 2504SOL     OW17063   3.329   4.773   2.133  0.1617  0.3326  0.2946
 2504SOL    HW117064   3.248   4.789   2.189 -1.4774  2.2620 -2.5019
 2504SOL    HW217065   3.386   4.855   2.131 -0.1849  0.5540 -1.4234
 2505SOL     OW17066   1.112   9.639   3.248  0.0458 -0.2860 -0.0348
 2505SOL    HW117067   1.191   9.621   3.307 -0.6665 -1.2886  0.6288
 2505SOL    HW217068   1.041   9.685   3.300  0.3701  1.0696 -0.7621
 2506SOL     OW17069   3.916   2.623   3.537 -0.0165  0.0291  0.2073
 2506SOL    HW117070   3.883   2.557   3.606 -0.0655 -0.4101 -0.2353
 2506SOL    HW217071   3.871   2.711   3.552 -1.1353 -0.4601 -0.1581
 2509SOL     OW17072   8.353   4.342   4.653 -0.2468  0.1083  0.2007
 2509SOL    HW117073   8.341   4.293   4.566  0.0170  0.1767  0.1248
 2509SOL    HW217074   8.335   4.439   4.639 -0.5669  0.0624  0.3047
 2510SOL     OW17075   4.373   4.178   4.529  0.2188  0.0525 -0.4493
 2510SOL    HW117076   4.404   4.097   4.480 -0.9772 -0.1008 -0.9702
 2510SOL    HW217077   4.287   4.210   4.490 -0.7378 -0.0242  1.4970
 2512SOL     OW17078   0.296   8.502   1.472  0.0274  0.0005 -0.3207
 2512SOL    HW117079   0.297   8.491   1.572  0.8052  1.5095 -0.1599
 2512SOL    HW217080   0.384   8.537   1.441 -1.7112  4.0486 -0.9896
 2513SOL     OW17081   0.079   0.688   4.030  0.4749 -0.2282  0.6057
 2513SOL    HW117082  -0.017   0.716   4.025  0.9005  1.2760  0.7186
 2513SOL    HW217083   0.127   0.744   4.098  1.9675  0.5770 -1.0813
 2514SOL     OW17084   8.818   3.942   2.431 -0.3103 -0.2798  0.5289
 2514SOL    HW117085   8.908   3.909   2.403 -1.5246 -2.7168 -0.6714
 2514SOL    HW217086   8.792   4.021   2.376  0.4136 -0.5662 -0.2352
 2515SOL     OW17087   9.363   3.924   0.188 -0.5138 -0.1499  0.0385
 2515SOL    HW117088   9.352   3.844   0.129 -1.9508  0.0237  0.0409
 2515SOL    HW217089   9.413   3.995   0.138 -0.3392 -0.5855 -0.4135
 2516SOL     OW17090   0.509   5.634   3.634 -0.1268  0.5962 -0.1673
 2516SOL    HW117091   0.438   5.700   3.659 -1.6328 -0.2578 -2.0432
 2516SOL    HW217092   0.538   5.650   3.540 -0.1530 -1.1034 -0.4806
 2517SOL     OW17093   9.071   6.425   1.643 -0.1370  0.0267 -0.8737
 2517SOL    HW117094   9.006   6.495   1.672 -1.0337 -0.3527 -1.9542
 2517SOL    HW217095   9.148   6.468   1.595  0.7148  0.5302  0.9081
 2518SOL     OW17096   3.398   7.040   3.757 -0.4359 -0.1850 -0.3344
 2518SOL    HW117097   3.375   7.017   3.663  1.5637 -0.9847 -0.6660
 2518SOL    HW217098   3.470   7.110   3.757 -1.2247  0.6322  0.6128
 2519SOL     OW17099   9.185   3.231   1.716  0.3706  0.0261  0.1817
 2519SOL    HW117100   9.098   3.188   1.693  0.1727 -0.0970  1.1161
 2519SOL    HW217101   9.176   3.278   1.805  1.5029 -0.6975  0.6863
 2520SOL     OW17102   9.892   7.404   2.150 -0.3097  0.1302  0.3238
 2520SOL    HW117103   9.817   7.355   2.195  1.7452 -1.6916  1.8921
 2520SOL    HW217104   9.920   7.355   2.068 -1.0669  1.0086 -0.4660
 2521SOL     OW17105   6.889   8.508   2.449  0.3961  0.6387 -0.4513
 2521SOL    HW117106   6.812   8.540   2.394 -0.2955 -3.0466 -1.7376
 2521SOL    HW217107   6.966   8.486   2.389  0.0646 -2.2330  0.1310
 2522SOL     OW17108   0.071   6.520   1.218  0.7960 -0.3188  0.8435
 2522SOL    HW117109   0.060   6.550   1.313  0.8779 -1.1721  1.1282
 2522SOL    HW217110   0.015   6.439   1.202  0.6266 -0.0609  0.1004
 2524SOL     OW17111   8.337   2.276   3.572  0.1428  0.0161 -0.1985
 2524SOL    HW117112   8.374   2.353   3.623  0.9759 -1.3618  1.3234
 2524SOL    HW217113   8.247   2.252   3.610  0.3053 -0.3691 -0.0641
 2525SOL     OW17114   9.986   1.407   2.561 -0.1359 -0.8877 -0.2969
 2525SOL    HW117115   9.990   1.329   2.623  0.6783  0.9843  2.0570
 2525SOL    HW217116  10.000   1.492   2.612  1.5367  0.6427 -3.1684
 2527SOL     OW17117   1.301   1.584   5.204 -0.1464 -0.9119 -0.7339
 2527SOL    HW117118   1.275   1.537   5.120  0.9987  0.2223 -1.7564
 2527SOL    HW217119   1.327   1.679   5.183  1.3902 -0.9806  0.6937
 2528SOL     OW17120   0.794   7.452   2.611  0.7861  0.1564 -0.3834
 2528SOL    HW117121   0.710   7.496   2.582  0.9811  0.6434 -0.2220
 2528SOL    HW217122   0.867   7.471   2.545  0.8120 -0.1158 -0.4330
 2531SOL     OW17123   3.255   6.747   1.675  0.4996 -0.0614  0.0540
 2531SOL    HW117124   3.236   6.834   1.721  1.9799 -0.5484  1.6633
 2531SOL    HW217125   3.174   6.689   1.678  0.2670  0.3121  1.1871
 2533SOL     OW17126   1.387   5.129   4.161 -0.5348  0.0783  0.0645
 2533SOL    HW117127   1.457   5.117   4.232 -1.0113  1.7769  0.8489
 2533SOL    HW217128   1.428   5.116   4.071  0.2979 -1.1003  0.6035
 2534SOL     OW17129   8.458   6.827   4.025  0.0547  0.6103  0.5301
 2534SOL    HW117130   8.457   6.741   4.076 -0.0315  0.3722  0.1252
 2534SOL    HW217131   8.377   6.832   3.966  0.2599  0.7967  0.2652
 2535SOL     OW17132   9.049   9.266   4.849  0.1374 -0.0331  0.2378
 2535SOL    HW117133   9.036   9.353   4.896 -1.2697  0.7611 -1.5628
 2535SOL    HW217134   9.146   9.241   4.852  0.5590  1.5755  0.7894
 2536SOL     OW17135   4.606   8.982   1.660 -0.1565  0.7009  0.2820
 2536SOL    HW117136   4.604   9.067   1.713  3.1760  0.9862  0.0708
 2536SOL    HW217137   4.645   9.000   1.570 -0.6654 -0.8243 -0.2620
 2537SOL     OW17138   4.642   1.114   4.703 -0.2086 -0.1494 -0.9098
 2537SOL    HW117139   4.704   1.038   4.685  0.0772 -0.4177  1.0799
 2537SOL    HW217140   4.690   1.201   4.692 -0.1121 -0.2893 -1.6214
 2538SOL     OW17141   2.596   7.748   1.694  0.1267  0.4563 -0.2845
 2538SOL    HW117142   2.611   7.683   1.769 -1.0305  1.7764  1.1127
 2538SOL    HW217143   2.575   7.697   1.611 -1.8842 -0.9663  1.0398
 2539SOL     OW17144   4.266   6.324   2.643 -0.6240  0.5003  0.6717
 2539SOL    HW117145   4.198   6.251   2.652  0.8415 -0.8939  0.8849
 2539SOL    HW217146   4.309   6.317   2.553  0.4684  0.2308  1.2043
 2540SOL     OW17147   4.974   0.713   0.076 -0.2471 -0.4196 -0.1132
 2540SOL    HW117148   5.033   0.781   0.031 -0.8639 -1.3741 -2.4210
 2540SOL    HW217149   4.886   0.755   0.097 -0.2925 -0.2356 -0.6688
 2541SOL     OW17150   5.137   7.840   2.686  0.1116  0.2202  0.2538
 2541SOL    HW117151   5.061   7.809   2.744 -1.0477  2.5466  0.0502
 2541SOL    HW217152   5.173   7.926   2.723 -0.1872  1.3682 -2.0870
 2542SOL     OW17153   3.287   5.950   4.513  0.2976 -0.7086 -0.3819
 2542SOL    HW117154   3.205   6.007   4.504 -0.2101 -1.4407 -0.4811
 2542SOL    HW217155   3.322   5.958   4.606  0.6461  0.3118 -0.5942
 2543SOL     OW17156   0.554   6.594   0.011  0.2870 -0.3607 -0.6578
 2543SOL    HW117157   0.652   6.584  -0.006  0.5990 -0.7743  1.2568
 2543SOL    HW217158   0.526   6.687  -0.012  1.1821 -0.1598 -0.9662
 2545SOL     OW17159   4.675   9.292   5.199 -0.6994 -1.2796 -0.3108
 2545SOL    HW117160   4.626   9.373   5.233 -0.2711 -1.1218 -0.0710
 2545SOL    HW217161   4.659   9.284   5.100  0.5913  0.0644 -0.6642
 2547SOL     OW17162   3.238   7.899   4.482 -0.3789  0.5068 -0.0016
 2547SOL    HW117163   3.296   7.879   4.561  0.8522 -0.8098 -1.2162
 2547SOL    HW217164   3.198   7.814   4.448  0.4043  0.8220 -1.7836
 2548SOL     OW17165   0.071   6.150   0.544 -0.0033  0.0150 -0.0008
 2548SOL    HW117166   0.090   6.185   0.452 -0.9596  0.3259 -0.0940
 2548SOL    HW217167   0.009   6.072   0.537  1.6156 -1.3041  0.2477
 2549SOL     OW17168   8.813   6.912   1.511 -0.2591 -0.1905 -0.1274
 2549SOL    HW117169   8.858   6.832   1.473  0.4359  0.2025 -0.1506
 2549SOL    HW217170   8.718   6.890   1.535  0.7138 -1.7900  2.4159
 2550SOL     OW17171   2.376   9.551   0.868  0.2513 -0.3109 -0.1510
 2550SOL    HW117172   2.420   9.471   0.908 -2.2494 -1.2179  0.8608
 2550SOL    HW217173   2.419   9.634   0.903  0.3726 -1.1449  1.7156
 2552SOL     OW17174   1.460   0.434   1.402 -0.0992  0.3565 -0.1279
 2552SOL    HW117175   1.554   0.465   1.385  0.0282  0.7102  1.1761
 2552SOL    HW217176   1.453   0.399   1.496 -1.0875 -0.3789 -0.4690
 2553SOL     OW17177   2.893   5.446   3.708 -0.4319  0.2609 -0.1447
 2553SOL    HW117178   2.921   5.514   3.776  0.1290 -0.3547  0.2425
 2553SOL    HW217179   2.810   5.477   3.662  1.1070  2.3594 -1.6376
 2554SOL     OW17180   8.428   2.054   2.536 -0.0944 -0.0225  0.5448
 2554SOL    HW117181   8.462   2.050   2.442 -1.0644 -1.0212  0.2210
 2554SOL    HW217182   8.328   2.053   2.535 -0.1042 -1.0563  1.6228
 2555SOL     OW17183   4.014   1.354   5.186 -0.0420 -0.1029  0.1210
 2555SOL    HW117184   4.099   1.358   5.237 -0.7150 -1.7957  1.4188
 2555SOL    HW217185   3.937   1.353   5.249 -0.9756 -0.0479 -0.9867
 2556SOL     OW17186   5.392   7.954   3.829  0.2006 -0.2769 -0.6876
 2556SOL    HW117187   5.465   7.901   3.788 -0.2733 -0.9323 -0.6845
 2556SOL    HW217188   5.347   7.901   3.901  0.7989  0.7294  0.4528
 2557SOL     OW17189   8.513   4.624   1.097 -0.0443 -0.4118 -0.4694
 2557SOL    HW117190   8.447   4.630   1.172  2.6865  3.2199  1.8738
 2557SOL    HW217191   8.596   4.579   1.130  0.0676 -1.5243 -2.2356
 2559SOL     OW17192   3.295   7.862   2.781 -0.2009 -0.3560 -0.3047
 2559SOL    HW117193   3.289   7.953   2.740 -0.7789 -0.1522  0.2182
 2559SOL    HW217194   3.382   7.853   2.830 -0.0601 -0.1537 -0.5171
 2560SOL     OW17195   8.931   1.541   1.090  0.1665 -0.2573 -0.1279
 2560SOL    HW117196   8.903   1.527   0.995 -0.4016 -1.8492  0.2702
 2560SOL    HW217197   8.945   1.639   1.106 -1.2990  0.1929 -1.4223
 2561SOL     OW17198   9.578   8.195   0.728 -0.7246 -0.1822 -0.4454
 2561SOL    HW117199   9.505   8.193   0.796 -0.6965  1.7485 -0.3196
 2561SOL    HW217200   9.559   8.267   0.661  0.8604  0.0728 -0.6342
 2562SOL     OW17201   8.147   2.314   1.340 -0.5221  0.0714 -0.4145
 2562SOL    HW117202   8.117   2.275   1.427 -2.0129  0.2581 -0.8280
 2562SOL    HW217203   8.242   2.289   1.323 -0.0052  0.6138  1.5884
 2563SOL     OW17204   2.212   5.186   3.093 -0.6732  0.5127 -0.5357
 2563SOL    HW117205   2.139   5.248   3.064 -1.5841 -0.3312 -0.0740
 2563SOL    HW217206   2.172   5.099   3.124  0.5025  0.1834  0.0813
 2564SOL     OW17207   0.893   0.451   1.328 -0.2920  0.4658  0.2441
 2564SOL    HW117208   0.892   0.428   1.426  1.9304  0.0841  0.2067
 2564SOL    HW217209   0.911   0.549   1.317  1.1876  0.1953  0.1948
 2565SOL     OW17210   2.768   0.509   4.001 -0.7850  0.6087  0.4719
 2565SOL    HW117211   2.801   0.579   3.938 -0.3064 -0.4756 -0.5002
 2565SOL    HW217212   2.668   0.509   4.002 -0.7944  1.6791  0.9254
 2566SOL     OW17213   5.223   2.322   4.355 -0.3124 -1.0868 -0.3140
 2566SOL    HW117214   5.170   2.241   4.330 -1.2898 -0.0595 -1.6140
 2566SOL    HW217215   5.275   2.353   4.275 -0.6861  0.1337 -0.0872
 2568SOL     OW17216   9.031   8.145   4.384 -0.2460 -0.1570  0.7168
 2568SOL    HW117217   8.961   8.125   4.452 -0.7799  0.9169  0.4963
 2568SOL    HW217218   9.079   8.230   4.409 -1.9888  1.5083 -1.4251
 2572SOL     OW17219   8.305   6.011   0.258 -0.3573  0.1371 -0.1809
 2572SOL    HW117220   8.377   5.950   0.290 -0.1626  0.4305 -0.0507
 2572SOL    HW217221   8.249   5.965   0.189 -0.3043 -0.2344  0.0304
 2575SOL     OW17222   0.306   9.923   5.090  0.3607 -0.4650 -0.2230
 2575SOL    HW117223   0.311   9.864   5.010  0.5155  0.5913 -1.0069
 2575SOL    HW217224   0.212   9.930   5.122  0.4645 -1.8046  0.3858
 2576SOL     OW17225   0.321   9.069   0.114  0.3599  0.4071 -0.5661
 2576SOL    HW117226   0.396   9.130   0.136  0.2968  0.3213 -0.1113
 2576SOL    HW217227   0.235   9.106   0.150  0.5080 -0.5671  0.8263
 2577SOL     OW17228   7.550   0.399   2.292  0.2350 -0.1840 -0.1739
 2577SOL    HW117229   7.473   0.460   2.275  0.4113 -0.4095 -1.7896
 2577SOL    HW217230   7.518   0.304   2.290  0.5436 -0.2719 -0.7161
 2578SOL     OW17231   2.974   9.047   3.779  0.2967 -0.2246 -0.0354
 2578SOL    HW117232   2.951   9.118   3.845 -0.1589  0.6099 -1.0673
 2578SOL    HW217233   3.073   9.035   3.776  0.3456  0.0684  0.4565
 2579SOL     OW17234   2.872   6.575   1.424  0.1907  0.1597 -0.0419
 2579SOL    HW117235   2.931   6.571   1.505  0.1081 -0.5997 -0.0109
 2579SOL    HW217236   2.927   6.596   1.344  0.2939  0.7847  0.1908
 2580SOL     OW17237   4.507   0.684   2.729  0.3350 -0.0901 -0.3236
 2580SOL    HW117238   4.415   0.720   2.713  1.1519  1.7138 -1.1375
 2580SOL    HW217239   4.515   0.594   2.687 -0.7539  0.1841 -1.1424
 2581SOL     OW17240   3.905   9.556   2.468  0.0396  0.4316  0.1403
 2581SOL    HW117241   3.853   9.538   2.551 -0.4660  1.4365  0.0577
 2581SOL    HW217242   4.001   9.533   2.483 -0.0647  0.5169  0.9682
 2582SOL     OW17243   0.136   7.833   0.565 -0.2163  0.1223  0.0903
 2582SOL    HW117244   0.102   7.812   0.657  1.0387  2.0993  1.0240
 2582SOL    HW217245   0.226   7.792   0.552  0.2333  1.0370  0.2715
 2583SOL     OW17246   7.723   6.856   5.132 -0.4556  0.5997 -0.4474
 2583SOL    HW117247   7.726   6.831   5.229 -4.1016 -0.0751 -0.4242
 2583SOL    HW217248   7.747   6.776   5.076 -0.2081  0.4601 -0.1414
 2587SOL     OW17249   2.245   1.190   0.682 -0.0369 -0.0688  0.2922
 2587SOL    HW117250   2.289   1.196   0.772 -1.6149  1.4807  0.9892
 2587SOL    HW217251   2.169   1.126   0.686  1.0141 -1.3998 -0.4522
 2588SOL     OW17252   8.995   4.337   4.985 -0.0883  0.3414  0.0239
 2588SOL    HW117253   8.959   4.363   5.074  1.8184 -0.3846  1.0447
 2588SOL    HW217254   8.952   4.252   4.955  1.0565 -0.7633  1.4393
 2589SOL     OW17255   9.316   6.715   3.614  0.4521 -0.4683  0.4722
 2589SOL    HW117256   9.292   6.619   3.597  1.5292 -0.4786 -1.1132
 2589SOL    HW217257   9.376   6.722   3.693 -0.2129 -1.0248  1.0297
 2590SOL     OW17258   8.890   4.296   1.275 -0.4443 -0.4249 -0.3252
 2590SOL    HW117259   8.983   4.326   1.296 -0.2656 -0.5454 -0.9202
 2590SOL    HW217260   8.886   4.268   1.179 -1.0136 -0.7368 -0.2068
 2591SOL     OW17261   0.242   3.820   3.363 -0.0250 -0.1512 -0.5426
 2591SOL    HW117262   0.193   3.751   3.417  0.8581 -0.2618  0.1324
 2591SOL    HW217263   0.304   3.774   3.299 -0.6987 -0.0083 -1.3088
 2592SOL     OW17264   8.268   3.978   1.008  0.1789 -0.4320  0.5287
 2592SOL    HW117265   8.349   3.977   0.949  1.7403  0.5426  2.5837
 2592SOL    HW217266   8.203   4.045   0.974  1.2797  0.4791  0.1900
 2593SOL     OW17267   7.990   1.719   4.467 -0.2616 -0.0334  0.2266
 2593SOL    HW117268   8.044   1.686   4.391 -0.4429 -0.9661  0.4945
 2593SOL    HW217269   8.049   1.765   4.534  0.5392 -2.8316  1.5078
 2594SOL     OW17270   3.406   1.573   1.372 -0.0524 -0.3020 -0.4871
 2594SOL    HW117271   3.491   1.520   1.378 -0.0154 -0.1223  0.6694
 2594SOL    HW217272   3.412   1.652   1.432 -1.9668 -1.5952  1.4811
 2595SOL     OW17273   3.463   7.266   0.604  0.0402 -0.2199  0.2885
 2595SOL    HW117274   3.485   7.214   0.520  1.7597  0.3366  0.3730
 2595SOL    HW217275   3.434   7.202   0.675  1.1107 -0.9878  0.0604
 2596SOL     OW17276   1.680   3.681   3.295  0.1281 -0.6534 -0.3291
 2596SOL    HW117277   1.584   3.655   3.303 -0.2096  0.6930 -0.0224
 2596SOL    HW217278   1.735   3.599   3.280 -0.9008 -1.5886  0.9156
 2597SOL     OW17279   4.038   9.624   4.785 -0.5276  0.1010  0.6308
 2597SOL    HW117280   3.991   9.633   4.873 -1.8267 -0.1692 -0.0265
 2597SOL    HW217281   3.985   9.565   4.725  0.2779  0.4120 -0.3987
 2600SOL     OW17282   7.974   0.148   4.791 -0.5409 -0.4497  0.3210
 2600SOL    HW117283   7.984   0.168   4.694 -1.5687 -0.3917  0.2224
 2600SOL    HW217284   7.994   0.051   4.807 -2.0518 -0.8816 -0.2337
 2601SOL     OW17285   2.684   8.267   3.106 -0.6890 -0.1896  0.0430
 2601SOL    HW117286   2.610   8.200   3.098 -0.1576 -1.0133  1.6998
 2601SOL    HW217287   2.672   8.321   3.189  1.2289 -1.2095  1.0298
 2604SOL     OW17288   0.248   4.106   3.430 -0.3955  0.0952 -0.2243
 2604SOL    HW117289   0.233   4.007   3.422  0.3007 -0.1594  1.2367
 2604SOL    HW217290   0.346   4.125   3.420 -0.3713  0.4857  0.7157
 2605SOL     OW17291   2.896   3.796   4.395  0.0554  0.3854 -0.0017
 2605SOL    HW117292   2.834   3.846   4.455 -0.0507 -0.6348  0.7570
 2605SOL    HW217293   2.895   3.699   4.419 -0.4898 -0.1557 -2.0848
 2606SOL     OW17294   7.259   0.761   0.921 -0.3385  0.4832  0.1502
 2606SOL    HW117295   7.167   0.790   0.947  0.1232  2.7754 -0.6354
 2606SOL    HW217296   7.278   0.671   0.960 -2.0608  0.9656  2.2064
 2607SOL     OW17297   1.453   8.101   0.019  0.4079 -0.2384  0.1614
 2607SOL    HW117298   1.472   8.191   0.059 -1.0295  0.7138 -1.2144
 2607SOL    HW217299   1.430   8.113  -0.078  0.9280 -2.1775 -0.2040
 2609SOL     OW17300   3.093   3.109   4.540  0.4199  0.4013 -0.6769
 2609SOL    HW117301   3.087   3.166   4.622  2.0369  2.3321 -1.8398
 2609SOL    HW217302   3.011   3.054   4.532 -1.5295  3.0562  0.1679
 2610SOL     OW17303   8.733   0.520   3.788 -0.0515 -0.4429  0.3024
 2610SOL    HW117304   8.675   0.501   3.709  0.0179  1.4430 -0.2200
 2610SOL    HW217305   8.769   0.613   3.781 -0.9495  0.1531  3.1263
 2611SOL     OW17306   2.652   6.811   2.777 -0.7522 -0.3280  0.2044
 2611SOL    HW117307   2.588   6.878   2.815 -1.8078  0.4864 -2.8099
 2611SOL    HW217308   2.603   6.750   2.715  1.3339  0.3897 -2.2554
 2612SOL     OW17309   7.830   1.479   3.038  0.3486 -0.0128 -0.0487
 2612SOL    HW117310   7.905   1.427   2.996 -0.2851 -0.0655 -1.1109
 2612SOL    HW217311   7.779   1.419   3.100 -0.0695 -0.5332 -0.8884
 2613SOL     OW17312   0.726   9.016   4.910  0.0001 -0.2384 -0.2870
 2613SOL    HW117313   0.815   9.006   4.865 -0.6700 -0.5771 -1.5357
 2613SOL    HW217314   0.691   9.108   4.894  1.6558  1.0782  3.0475
 2615SOL     OW17315   6.962   9.525   2.778  0.0363  0.4016  0.4693
 2615SOL    HW117316   7.002   9.484   2.695  0.9904 -1.3745  1.7828
 2615SOL    HW217317   6.903   9.601   2.751 -1.4366 -1.5066 -2.0292
 2616SOL     OW17318   3.355   0.732   3.202 -0.9221 -0.1716 -0.0675
 2616SOL    HW117319   3.333   0.827   3.227  1.1575  0.4771 -0.5770
 2616SOL    HW217320   3.409   0.690   3.275  2.3363  0.6590 -1.8755
 2617SOL     OW17321   0.951   3.063   1.836  0.1457  0.3065 -0.2571
 2617SOL    HW117322   1.037   3.041   1.790  0.5155 -0.5004  0.8061
 2617SOL    HW217323   0.874   3.037   1.777  0.6157  0.1251 -0.7962
 2620SOL     OW17324   4.200   6.111   3.342  0.4393  0.6593 -0.3105
 2620SOL    HW117325   4.106   6.102   3.374  0.2773  0.6258 -0.7816
 2620SOL    HW217326   4.231   6.024   3.302  1.0273  0.3693  0.7677
 2621SOL     OW17327   1.509   9.988   0.832 -0.2327  0.0289  0.2797
 2621SOL    HW117328   1.520  10.073   0.884 -2.2886 -0.0934  0.9984
 2621SOL    HW217329   1.431   9.997   0.770  2.1692  0.1373 -2.7965
 2622SOL     OW17330   9.044   2.242   2.219  0.0159  0.7723  0.6649
 2622SOL    HW117331   8.949   2.212   2.215 -0.3851  1.9814  0.8535
 2622SOL    HW217332   9.086   2.208   2.303 -0.7514  1.6293  1.4134
 2625SOL     OW17333   3.189   9.002   4.685  0.0834  0.4074 -0.5466
 2625SOL    HW117334   3.231   8.912   4.669 -0.9905  0.0536 -1.4742
 2625SOL    HW217335   3.094   8.989   4.712 -0.1761  1.2875 -1.0368
 2626SOL     OW17336   9.816   0.866   3.042  0.0765 -0.0134  0.5662
 2626SOL    HW117337   9.718   0.861   3.061 -0.1291 -1.6477 -0.7975
 2626SOL    HW217338   9.855   0.774   3.041  1.2452  0.4689 -0.8115
 2627SOL     OW17339   4.790   3.184   0.941  0.1210 -0.0603 -0.2594
 2627SOL    HW117340   4.754   3.277   0.939 -0.1466 -0.1240  0.9401
 2627SOL    HW217341   4.752   3.132   0.865 -1.4815  0.1923  0.3335
 2628SOL     OW17342   0.308   4.726   2.882  0.0341 -0.2795  0.1106
 2628SOL    HW117343   0.261   4.745   2.968 -0.9246  0.2650 -0.5214
 2628SOL    HW217344   0.271   4.642   2.841 -0.1425 -0.0467 -0.2097
 2629SOL     OW17345   2.539   1.062   2.387 -0.1913 -0.0804  0.5773
 2629SOL    HW117346   2.532   0.972   2.344 -0.1253 -0.0819  0.5699
 2629SOL    HW217347   2.627   1.070   2.434  0.6918  0.7374 -1.1639
 2630SOL     OW17348   0.667   2.482   0.838 -0.0503  0.5362  0.2675
 2630SOL    HW117349   0.742   2.431   0.881 -1.7885 -0.9250  1.6054
 2630SOL    HW217350   0.685   2.491   0.740  1.8335  0.1653  0.5470
 2631SOL     OW17351   8.585   7.212   2.734 -0.0577  0.5126  0.3337
 2631SOL    HW117352   8.632   7.184   2.650 -1.6730  1.1858 -0.8122
 2631SOL    HW217353   8.630   7.293   2.772 -0.4159  1.2733 -0.8613
 2632SOL     OW17354   3.534   6.109   5.107  0.8559 -0.7438 -0.8047
 2632SOL    HW117355   3.513   6.150   5.196 -1.9124  0.3452 -1.8886
 2632SOL    HW217356   3.560   6.181   5.043  2.2793 -1.4646 -1.0477
 2633SOL     OW17357   9.026   0.450   3.386 -0.0158 -0.1528  0.4622
 2633SOL    HW117358   8.945   0.419   3.437 -0.3309 -0.4439 -0.2026
 2633SOL    HW217359   9.001   0.462   3.289 -0.3953  3.9566  0.9823
 2634SOL     OW17360   0.410   3.292   1.041 -0.4894  0.4622  0.1069
 2634SOL    HW117361   0.509   3.292   1.027  0.0389  1.3427  3.3802
 2634SOL    HW217362   0.376   3.386   1.037 -1.1594  0.1800 -0.8356
 2636SOL     OW17363   4.540   4.303   4.154 -0.6418 -0.0491  0.1960
 2636SOL    HW117364   4.540   4.353   4.067 -1.2270 -0.6840 -0.1714
 2636SOL    HW217365   4.503   4.211   4.140 -1.3241  0.0574  1.2375
 2637SOL     OW17366   9.176   1.189   1.417  0.3241  0.1966  0.5976
 2637SOL    HW117367   9.201   1.136   1.337  1.1606  1.3677  0.0651
 2637SOL    HW217368   9.256   1.240   1.450 -0.5711  1.5276  0.7748
 2638SOL     OW17369   1.551   5.880   4.223 -0.3106 -0.1540 -0.5560
 2638SOL    HW117370   1.621   5.871   4.294 -2.1265 -1.5009  1.0820
 2638SOL    HW217371   1.588   5.846   4.136  1.3333 -0.1380  0.1214
 2639SOL     OW17372   1.722   1.446   3.900  0.1429 -0.0380  0.5158
 2639SOL    HW117373   1.730   1.347   3.888 -1.7755 -0.3668  1.7549
 2639SOL    HW217374   1.670   1.485   3.825 -0.4876 -0.2055  0.8638
 2641SOL     OW17375   4.542   9.929   2.583 -0.4169  0.1578  0.3666
 2641SOL    HW117376   4.546   9.830   2.593 -1.8666 -0.1501 -1.5735
 2641SOL    HW217377   4.446   9.958   2.579 -0.0094  1.4797 -0.3364
 2642SOL     OW17378   9.302   3.495   4.309  0.3021 -0.3640 -0.4200
 2642SOL    HW117379   9.284   3.406   4.267 -0.4703 -0.0126 -0.8308
 2642SOL    HW217380   9.220   3.552   4.304  0.6631  0.2216  0.2211
 2643SOL     OW17381   7.769   0.117   2.442  0.0617  0.5611 -0.6121
 2643SOL    HW117382   7.673   0.128   2.413  0.3335 -0.2746 -1.8805
 2643SOL    HW217383   7.772   0.104   2.541 -1.0755  1.3549 -0.4508
 2644SOL     OW17384   2.916   0.367   4.207 -0.3375 -0.1091 -0.5905
 2644SOL    HW117385   2.991   0.319   4.163 -2.1019 -1.7365 -1.9488
 2644SOL    HW217386   2.866   0.421   4.139  1.3021  3.3795  0.8180
 2645SOL     OW17387   4.197   0.485   4.267  0.5235 -0.1540  0.2395
 2645SOL    HW117388   4.239   0.474   4.357 -0.2618  0.7072  0.7145
 2645SOL    HW217389   4.238   0.564   4.220  1.2642 -0.8819 -0.3576
 2646SOL     OW17390   9.528   9.849   4.272 -0.2470  0.1024 -0.6527
 2646SOL    HW117391   9.472   9.893   4.343 -0.3240 -2.7427  1.1004
 2646SOL    HW217392   9.468   9.815   4.200 -0.4892  0.0650 -0.4371
 2647SOL     OW17393   1.051   4.141   0.422  0.7505  0.5812  0.2672
 2647SOL    HW117394   1.008   4.205   0.486 -0.2179  0.6622 -0.4668
 2647SOL    HW217395   0.985   4.114   0.352  1.3021 -0.8337  0.2793
 2649SOL     OW17396   4.423   0.760   0.788  0.0604 -0.5039  0.4514
 2649SOL    HW117397   4.444   0.819   0.711 -0.6564 -0.7571  0.0516
 2649SOL    HW217398   4.335   0.787   0.827  0.8475  0.2012  1.7514
 2651SOL     OW17399   0.951   2.575   3.081 -0.5392 -0.7155 -0.6290
 2651SOL    HW117400   0.875   2.622   3.124 -0.2453 -1.2824  0.5226
 2651SOL    HW217401   0.969   2.616   2.991 -1.2724  0.3474 -0.2971
 2652SOL     OW17402   9.730   1.655   4.722  0.1858  0.0771 -0.7347
 2652SOL    HW117403   9.657   1.670   4.655  1.3799  1.3713 -1.7714
 2652SOL    HW217404   9.742   1.557   4.737 -1.7115 -0.1504 -0.6003
 2653SOL     OW17405   7.714   7.696   3.079  0.3029  0.3986  0.6494
 2653SOL    HW117406   7.730   7.603   3.046 -0.5041  0.3244  0.4504
 2653SOL    HW217407   7.738   7.762   3.008 -2.3811  0.2017 -0.5088
 2655SOL     OW17408   6.902   2.080   2.584  0.1228  0.0350  0.6272
 2655SOL    HW117409   6.910   1.981   2.572  1.1336  0.3626 -1.7075
 2655SOL    HW217410   6.992   2.120   2.602 -0.1182  0.6576  0.4733
 2656SOL     OW17411   3.635   9.836   2.958  0.7155 -0.1520 -0.2792
 2656SOL    HW117412   3.610   9.932   2.961 -1.3799 -0.6856 -0.0694
 2656SOL    HW217413   3.634   9.797   3.050 -1.3857 -1.0760 -0.6565
 2657SOL     OW17414   8.424   4.253   4.106  0.4448  0.2990 -0.3268
 2657SOL    HW117415   8.410   4.349   4.131  1.2293  0.9408 -2.2726
 2657SOL    HW217416   8.466   4.204   4.183 -0.2515  1.4360  0.7860
 2658SOL     OW17417   7.944   0.918   4.577  0.2848  0.6471 -0.5212
 2658SOL    HW117418   7.858   0.930   4.528  0.3744 -0.1141 -0.8576
 2658SOL    HW217419   7.931   0.946   4.673 -0.9989 -1.7458  0.0379
 2660SOL     OW17420   2.316   5.929   4.399  0.4238  0.5677  0.3204
 2660SOL    HW117421   2.372   5.990   4.342 -0.0369  1.3275  0.6742
 2660SOL    HW217422   2.305   5.969   4.490 -0.1240  0.0928  0.4657
 2661SOL     OW17423   0.670   7.551   4.217 -0.1768  0.0730  0.6174
 2661SOL    HW117424   0.766   7.557   4.189 -0.0575  0.1710  1.0391
 2661SOL    HW217425   0.631   7.643   4.222  0.2836  0.1895  2.4062
 2662SOL     OW17426   8.923   3.723   4.568  0.9694  0.3422 -0.3784
 2662SOL    HW117427   8.830   3.698   4.598  0.3276  3.5180  0.5025
 2662SOL    HW217428   8.931   3.708   4.470 -0.3765 -0.3357 -0.4014
 2665SOL     OW17429   8.062   4.514   0.258 -0.1746 -0.2805  0.0808
 2665SOL    HW117430   7.993   4.587   0.256  0.5708  0.4078 -1.1759
 2665SOL    HW217431   8.016   4.426   0.245 -0.8169  0.2011 -1.1161
 2666SOL     OW17432   5.517   7.397   3.316  0.2434  0.5515  0.3441
 2666SOL    HW117433   5.615   7.376   3.326 -0.3072 -1.0873  2.5237
 2666SOL    HW217434   5.489   7.378   3.222  1.6188 -0.7605  0.1793
 2667SOL     OW17435   0.457   3.593   2.746 -0.0320  0.3007 -0.0532
 2667SOL    HW117436   0.384   3.535   2.780 -1.3701  1.0966 -1.4841
 2667SOL    HW217437   0.528   3.536   2.703  0.0842 -0.4545  1.1284
 2668SOL     OW17438   4.893   3.645   1.901  0.0384 -0.2404 -0.2793
 2668SOL    HW117439   4.965   3.650   1.831  0.0827  0.5938 -0.1885
 2668SOL    HW217440   4.931   3.676   1.988 -0.0609 -1.1287  0.0775
 2669SOL     OW17441   9.367   5.396   2.368 -0.4781 -0.3387  0.1415
 2669SOL    HW117442   9.290   5.369   2.426 -0.1223 -1.3881  0.1424
 2669SOL    HW217443   9.449   5.347   2.397 -0.1204 -0.2786 -0.7451
 2670SOL     OW17444   7.323   0.249   3.285  0.1573 -0.3756  0.0330
 2670SOL    HW117445   7.365   0.160   3.268  0.5665 -0.2280  0.2743
 2670SOL    HW217446   7.327   0.305   3.203  2.4460  0.4678  0.6948
 2673SOL     OW17447   6.151   9.298   1.797 -0.3862  0.0237  0.0546
 2673SOL    HW117448   6.228   9.360   1.811 -1.7791  1.5925  0.9673
 2673SOL    HW217449   6.119   9.306   1.703 -0.0474  0.0940 -0.0549
 2674SOL     OW17450   6.953   9.125   2.741  0.6387  0.3871 -0.0583
 2674SOL    HW117451   6.981   9.201   2.683  0.4419 -0.4412 -1.2594
 2674SOL    HW217452   7.000   9.042   2.712 -1.0365 -0.4751 -0.3857
 2677SOL     OW17453   1.528   4.712   2.293  0.5241 -0.4659  0.0260
 2677SOL    HW117454   1.573   4.642   2.238  1.2363 -1.4928  1.8826
 2677SOL    HW217455   1.437   4.680   2.320  0.5689 -0.3740  0.2863
 2679SOL     OW17456   9.735   8.818   2.421  0.5075  0.0617 -0.2161
 2679SOL    HW117457   9.723   8.719   2.424  2.0105 -0.1981 -1.7446
 2679SOL    HW217458   9.691   8.860   2.500  1.5513 -1.9979  1.5154
 2681SOL     OW17459   3.114   5.901   2.625  0.3860 -0.2727 -0.0521
 2681SOL    HW117460   3.150   5.970   2.563 -1.2007  0.5033 -0.1568
 2681SOL    HW217461   3.066   5.830   2.573  1.3526 -1.0610  0.1093
 2682SOL     OW17462   2.355   7.002   3.471  0.2581  0.1733 -0.1527
 2682SOL    HW117463   2.262   6.981   3.503  0.4714 -1.3733 -0.5086
 2682SOL    HW217464   2.421   6.976   3.541  0.5095 -0.1312 -0.4975
 2684SOL     OW17465   4.503   5.634   2.822  0.2430 -0.0637 -0.3075
 2684SOL    HW117466   4.496   5.595   2.730 -1.4877 -2.0079  0.6254
 2684SOL    HW217467   4.526   5.731   2.815  1.3265 -0.4622 -2.7532
 2685SOL     OW17468   7.477   0.810   0.722  0.8309  0.2476 -0.2642
 2685SOL    HW117469   7.392   0.823   0.772  1.7139  2.0933  0.8363
 2685SOL    HW217470   7.473   0.859   0.635  0.0226 -1.3716 -1.1678
 2686SOL     OW17471   4.629   0.893   1.100  0.0627  0.0004  0.0807
 2686SOL    HW117472   4.683   0.817   1.136 -0.8578 -0.3024  0.8265
 2686SOL    HW217473   4.535   0.863   1.085  0.0020  0.6321 -0.8684
 2687SOL     OW17474   3.065   6.608   1.239 -0.3091  0.0469  0.3712
 2687SOL    HW117475   3.143   6.663   1.209  0.9545 -1.2826  1.1664
 2687SOL    HW217476   3.076   6.514   1.207 -1.9198 -0.0114 -0.0595
 2688SOL     OW17477   8.302   1.044   2.423  0.1042 -0.4558  0.3378
 2688SOL    HW117478   8.374   0.984   2.457 -0.7230 -1.1618  0.8520
 2688SOL    HW217479   8.279   1.018   2.329  0.4516 -0.2863  0.2041
 2689SOL     OW17480   2.908   6.967   0.455 -0.6926 -0.0737  0.1988
 2689SOL    HW117481   2.876   6.877   0.485 -1.6840 -0.0921 -0.8550
 2689SOL    HW217482   2.889   7.035   0.526  1.4267 -0.9307  1.6360
 2690SOL     OW17483   3.361   1.389   5.206 -0.0742  0.2444 -0.3300
 2690SOL    HW117484   3.345   1.291   5.203  1.2718 -0.0527  1.6005
 2690SOL    HW217485   3.309   1.430   5.281  1.2134  0.6338  0.3599
 2691SOL     OW17486   7.759   1.889   3.319 -0.4494 -0.1039 -0.2710
 2691SOL    HW117487   7.758   1.796   3.355  0.9975 -0.0633 -0.0989
 2691SOL    HW217488   7.802   1.889   3.228 -0.2043  0.4362 -0.1576
 2692SOL     OW17489   6.093   2.709   3.991  0.2359 -0.1974 -0.2777
 2692SOL    HW117490   6.046   2.728   4.077  1.0621  1.4969 -0.1745
 2692SOL    HW217491   6.103   2.610   3.979 -2.3472 -0.5386  0.2116
 2694SOL     OW17492   2.358   2.017   3.058  0.0897  0.8996  0.0403
 2694SOL    HW117493   2.328   1.925   3.083 -0.2475  0.7127 -1.0258
 2694SOL    HW217494   2.451   2.012   3.021  1.3233  1.4211  2.9376
 2697SOL     OW17495   9.777   0.521   3.296  0.6900 -0.1541 -0.5006
 2697SOL    HW117496   9.706   0.577   3.339 -0.3646  1.7984 -4.5932
 2697SOL    HW217497   9.740   0.431   3.275  0.4860 -0.2780  0.3402
 2698SOL     OW17498   1.678   9.397   2.555  0.3148  0.3906 -0.5958
 2698SOL    HW117499   1.713   9.454   2.480  1.8901  2.8583  1.9119
 2698SOL    HW217500   1.591   9.433   2.587  0.1543 -0.0271 -0.5566
 2699SOL     OW17501   8.172   1.580   4.935  0.3501 -0.9177  0.4150
 2699SOL    HW117502   8.089   1.588   4.989  1.5591  0.8146  2.0432
 2699SOL    HW217503   8.244   1.638   4.973  1.4297 -0.1110 -2.6842
 2700SOL     OW17504   8.812   2.931   3.669 -0.0511  0.4445  0.2599
 2700SOL    HW117505   8.749   2.957   3.743 -0.3416 -0.3432  0.2916
 2700SOL    HW217506   8.772   2.856   3.616  0.4050  0.6359 -0.3587
 2703SOL     OW17507   3.119   8.671   3.062 -0.0782 -0.1518 -0.1165
 2703SOL    HW117508   3.034   8.623   3.039 -0.0902 -0.2567  0.1481
 2703SOL    HW217509   3.103   8.770   3.056 -0.3173 -0.1640  0.2755
 2704SOL     OW17510   2.526   2.778   3.901  0.3849 -0.8031 -0.9515
 2704SOL    HW117511   2.443   2.817   3.861  0.1913 -1.0736 -0.8187
 2704SOL    HW217512   2.542   2.687   3.862  0.0598 -1.1713 -0.2411
 2705SOL     OW17513   9.866   8.259   5.164  0.2908  0.1056  0.1158
 2705SOL    HW117514   9.875   8.294   5.257 -0.3647  0.9711 -0.1324
 2705SOL    HW217515   9.925   8.312   5.103 -1.2298  1.2752 -0.3773
 2709SOL     OW17516   9.069   6.723   4.592 -0.4469  0.4549  0.5423
 2709SOL    HW117517   8.976   6.692   4.612 -0.2383 -0.2009  0.5164
 2709SOL    HW217518   9.066   6.801   4.530 -0.9180 -0.6201 -0.7932
 2712SOL     OW17519   3.330   1.664   0.476  0.0252 -0.5948  0.3244
 2712SOL    HW117520   3.262   1.734   0.498 -0.4765 -1.2764  0.9428
 2712SOL    HW217521   3.408   1.707   0.430 -1.2290  0.0508 -1.2292
 2713SOL     OW17522   4.119   5.054   2.365 -0.0758  0.6416  0.5300
 2713SOL    HW117523   4.079   5.031   2.454  0.2532  2.6119  1.2089
 2713SOL    HW217524   4.048   5.092   2.305 -0.3482 -0.9003 -0.1464
 2714SOL     OW17525   6.941   7.706   4.007 -0.8907  0.0942  0.5363
 2714SOL    HW117526   6.898   7.629   3.960  0.1157 -0.1834  0.0493
 2714SOL    HW217527   7.038   7.687   4.020 -0.5955  1.3460  0.2757
 2716SOL     OW17528   1.520   7.204   2.835 -0.4023  0.2557 -0.2359
 2716SOL    HW117529   1.472   7.249   2.759 -2.9952  2.4517  2.5768
 2716SOL    HW217530   1.600   7.258   2.861 -0.3777  0.3137 -0.4343
 2718SOL     OW17531   9.597   4.396   0.841  0.3114  0.1542 -0.2928
 2718SOL    HW117532   9.523   4.454   0.808  1.1890  0.4480 -1.8137
 2718SOL    HW217533   9.602   4.313   0.786  0.0465 -0.6444  0.8795
 2719SOL     OW17534   0.822   8.773   1.092  0.0974  0.9610  0.0294
 2719SOL    HW117535   0.900   8.794   1.033 -0.5024  3.5589  0.1054
 2719SOL    HW217536   0.851   8.709   1.163  1.8219  0.8627 -0.7257
 2720SOL     OW17537   2.942   8.744   2.394 -0.4184  0.7883  0.2847
 2720SOL    HW117538   2.955   8.821   2.457 -0.2919 -0.6712  2.0537
 2720SOL    HW217539   2.942   8.658   2.444 -1.4292 -0.3428 -1.5800
 2721SOL     OW17540   9.522   3.678   4.207  0.4183  0.0289 -0.0702
 2721SOL    HW117541   9.458   3.602   4.199  1.2216 -0.7606  0.8940
 2721SOL    HW217542   9.496   3.750   4.143 -0.3329 -1.0545 -0.9987
 2722SOL     OW17543   1.886   0.444   0.017 -0.2819  0.1456  0.5625
 2722SOL    HW117544   1.884   0.381  -0.061 -0.5199  0.8822 -0.0334
 2722SOL    HW217545   1.844   0.400   0.096 -1.5520  0.0003 -0.1820
 2723SOL     OW17546   5.691   0.971   3.158 -0.1128 -0.0548 -0.7186
 2723SOL    HW117547   5.616   0.949   3.096 -2.2535  1.8721  1.0887
 2723SOL    HW217548   5.672   0.935   3.249  2.7117 -2.3316 -0.9606
 2724SOL     OW17549   4.307   7.172   3.977  0.1020 -0.6089  0.3528
 2724SOL    HW117550   4.223   7.119   3.991 -0.1676 -0.4092 -0.4593
 2724SOL    HW217551   4.368   7.122   3.916 -0.7804  0.6449 -1.6198
 2725SOL     OW17552   5.803   9.065   3.611 -0.0466  0.2595  0.1909
 2725SOL    HW117553   5.848   9.073   3.700 -0.9389  0.4527  0.6317
 2725SOL    HW217554   5.858   9.111   3.542  0.7887 -0.1220  0.5953
 2728SOL     OW17555   5.341   7.837   4.914  0.0914 -0.3790  0.2557
 2728SOL    HW117556   5.305   7.893   4.840  0.0084 -1.3429 -0.4420
 2728SOL    HW217557   5.414   7.778   4.879 -0.2681 -1.1773  0.8394
 2729SOL     OW17558   9.723   2.156   0.520  0.7721  0.6797 -0.5313
 2729SOL    HW117559   9.654   2.193   0.583 -0.2625 -0.2188 -1.1141
 2729SOL    HW217560   9.698   2.178   0.426 -1.7858 -4.2994 -1.2001
 2730SOL     OW17561   3.940   1.312   0.683 -0.2597 -0.1973  0.4944
 2730SOL    HW117562   3.932   1.225   0.635 -1.1727 -0.8452  1.7958
 2730SOL    HW217563   4.035   1.327   0.710 -0.5338 -2.0728  2.6205
 2731SOL     OW17564   5.613   1.066   2.748 -0.7425  0.1632  0.2173
 2731SOL    HW117565   5.526   1.063   2.798 -0.7892  0.7584  0.1707
 2731SOL    HW217566   5.652   0.974   2.745 -0.9427  0.0448  0.9951
 2732SOL     OW17567   6.991   0.252   4.919  0.2136 -0.1680  0.7930
 2732SOL    HW117568   6.994   0.276   5.016  2.8979 -0.6044  0.8527
 2732SOL    HW217569   6.995   0.336   4.864 -2.8461  0.1912  1.0006
 2733SOL     OW17570   0.453   2.689   1.216 -0.0473 -0.4080  0.0383
 2733SOL    HW117571   0.489   2.719   1.127  1.4852  1.8434  1.3746
 2733SOL    HW217572   0.445   2.589   1.217 -1.6176 -0.3809 -3.1837
 2734SOL     OW17573   4.978   9.631   1.352  0.7651  0.4030  0.5038
 2734SOL    HW117574   4.916   9.692   1.400 -0.0698 -0.3341  0.3801
 2734SOL    HW217575   5.071   9.644   1.386  0.2982  0.3961  1.8093
 2736SOL     OW17576   9.873   4.592   1.149  0.4008 -0.0271 -0.3783
 2736SOL    HW117577   9.892   4.499   1.180  2.0157 -0.2135 -1.8273
 2736SOL    HW217578   9.955   4.630   1.106 -0.8151  1.3637 -1.5134
 2737SOL     OW17579   4.227   7.691   5.068  0.1957 -0.2711  0.5923
 2737SOL    HW117580   4.230   7.725   5.161  3.1146 -0.7625  0.7148
 2737SOL    HW217581   4.309   7.636   5.049 -1.2400 -1.7542 -1.6548
 2741SOL     OW17582   8.431   9.499   3.834  0.1072  0.5211 -0.0582
 2741SOL    HW117583   8.484   9.426   3.878  1.0596 -0.1009 -2.1921
 2741SOL    HW217584   8.433   9.580   3.892  0.1638 -0.7038  1.7101
 2742SOL     OW17585   6.480   3.792   0.385 -0.2674 -0.2550 -0.4636
 2742SOL    HW117586   6.549   3.828   0.448 -0.8049  0.8758 -0.5059
 2742SOL    HW217587   6.404   3.857   0.378 -1.2755 -1.4263 -0.5344
 2743SOL     OW17588   7.974   8.022   4.974 -0.3884 -0.2667 -0.1459
 2743SOL    HW117589   7.903   8.004   4.906 -0.2612 -0.7863 -0.1416
 2743SOL    HW217590   8.023   8.106   4.950 -2.3367  1.2430  0.9420
 2745SOL     OW17591   6.053   8.810   2.364  0.2654  0.3819  0.0282
 2745SOL    HW117592   6.095   8.893   2.328  1.4374  0.1065  0.7451
 2745SOL    HW217593   6.078   8.798   2.460 -1.1629  0.0128  0.3749
 2746SOL     OW17594   9.579   4.877   5.198  0.3502  0.2199 -0.6015
 2746SOL    HW117595   9.646   4.835   5.138  0.6539 -0.9522  0.5327
 2746SOL    HW217596   9.507   4.811   5.220 -1.2320  1.4846 -1.8565
 2747SOL     OW17597   1.245   4.692   2.811  0.1724 -0.3707 -0.4575
 2747SOL    HW117598   1.330   4.744   2.816 -0.3433  0.3667  1.0742
 2747SOL    HW217599   1.265   4.597   2.789  1.3596 -0.1128 -0.5307
 2748SOL     OW17600   8.045   0.949   3.913  0.6407  0.0552 -0.2162
 2748SOL    HW117601   8.097   0.922   3.994 -0.5901 -1.0695  0.2051
 2748SOL    HW217602   8.107   0.954   3.835  1.7038  0.4323  0.6399
 2749SOL     OW17603   4.502   9.486   0.196 -0.4674 -0.1948 -0.5479
 2749SOL    HW117604   4.427   9.428   0.165 -1.5243  0.9171 -0.1558
 2749SOL    HW217605   4.495   9.499   0.295  0.4931 -0.4279 -0.4494
 2750SOL     OW17606   7.135   0.883   3.829 -0.3258 -0.2656 -0.1068
 2750SOL    HW117607   7.045   0.892   3.872 -0.0132  1.3815  0.2023
 2750SOL    HW217608   7.187   0.811   3.875 -0.8155  0.0013  0.8714
 2751SOL     OW17609   1.183   0.490   3.532  0.0283 -0.1363 -1.1731
 2751SOL    HW117610   1.178   0.469   3.629  0.5627 -1.6608 -1.4490
 2751SOL    HW217611   1.244   0.567   3.516  0.1723 -0.0780 -0.3204
 2752SOL     OW17612   9.883   2.366   2.012 -0.2761 -0.6812  0.5926
 2752SOL    HW117613   9.974   2.388   2.046 -0.1194  1.6887 -1.2280
 2752SOL    HW217614   9.817   2.433   2.047 -0.5105  0.3472 -1.7187
 2753SOL     OW17615   8.221   2.568   0.612  0.1659 -0.0791  0.5714
 2753SOL    HW117616   8.237   2.665   0.596 -0.8627 -0.3247 -2.1610
 2753SOL    HW217617   8.123   2.550   0.619  0.4245 -0.5905  3.5732
 2754SOL     OW17618   3.580   2.422   3.087 -0.0896  0.6064 -0.0643
 2754SOL    HW117619   3.660   2.482   3.078  0.6240 -0.5554 -1.6033
 2754SOL    HW217620   3.525   2.427   3.004  0.1278 -1.0758 -0.3320
 2755SOL     OW17621   5.886   0.154   3.572 -0.0936 -0.5594 -0.3104
 2755SOL    HW117622   5.815   0.130   3.638 -0.0196 -1.5766 -0.5903
 2755SOL    HW217623   5.971   0.106   3.595 -0.4377 -1.9850 -1.8920
 2757SOL     OW17624   7.971   2.936   5.202 -0.1974  0.4511  0.1893
 2757SOL    HW117625   7.975   2.883   5.287 -0.9505  0.7471  0.4151
 2757SOL    HW217626   7.967   2.873   5.124 -1.9537  0.1378  0.4942
 2758SOL     OW17627   5.110   3.155   2.885  0.7450  0.1447 -0.6398
 2758SOL    HW117628   5.157   3.078   2.841  0.8326  0.5629 -1.2936
 2758SOL    HW217629   5.014   3.131   2.900  0.9763 -0.4094 -0.0555
 2761SOL     OW17630   2.489   7.759   2.920 -0.1647 -0.1966 -0.7706
 2761SOL    HW117631   2.448   7.768   3.011  2.3214  0.8495  0.2949
 2761SOL    HW217632   2.487   7.664   2.891 -1.5018 -0.4485  0.1130
 2762SOL     OW17633   3.978   3.503   5.191 -0.1894 -0.0051 -0.4083
 2762SOL    HW117634   3.905   3.569   5.209 -0.0362 -0.2199  1.1386
 2762SOL    HW217635   4.047   3.509   5.264  1.0543 -0.1971 -1.5483
 2763SOL     OW17636   7.998   3.173   3.549  0.5058 -0.0194  0.9540
 2763SOL    HW117637   8.055   3.237   3.497  0.6217  0.1379  1.2723
 2763SOL    HW217638   7.911   3.217   3.571 -0.8762 -1.2119 -1.9257
 2764SOL     OW17639   2.764   0.906   1.663  0.3409  0.6734  0.5215
 2764SOL    HW117640   2.802   0.824   1.621 -0.4330  0.0762  0.9758
 2764SOL    HW217641   2.836   0.973   1.677  0.7498  0.5969 -1.0759
 2765SOL     OW17642   8.328   7.163   2.533  0.3205 -0.3366 -0.4739
 2765SOL    HW117643   8.417   7.122   2.516  0.9679  0.0249  1.8779
 2765SOL    HW217644   8.340   7.258   2.565 -0.6359 -1.4639  3.5688
 2766SOL     OW17645   9.699   3.230   1.501  0.4671  0.1021 -0.3229
 2766SOL    HW117646   9.719   3.328   1.494 -0.0511  0.3098  0.9358
 2766SOL    HW217647   9.780   3.177   1.476  0.8232  0.8591 -0.7702
 2767SOL     OW17648   4.627   5.395   0.099  0.6172 -0.2115 -0.2845
 2767SOL    HW117649   4.530   5.390   0.074  1.0748 -0.6339 -2.0156
 2767SOL    HW217650   4.657   5.306   0.133  0.9664 -0.7016 -1.8788
 2768SOL     OW17651   6.413   2.719   3.486  0.6457  0.5475 -0.4987
 2768SOL    HW117652   6.419   2.651   3.559  0.5136 -1.7250 -2.5199
 2768SOL    HW217653   6.377   2.805   3.522  1.1256 -0.3574  2.1935
 2769SOL     OW17654   2.592   7.199   2.181 -0.1980 -0.3981 -0.1870
 2769SOL    HW117655   2.673   7.156   2.222  1.0728  0.7623 -1.4419
 2769SOL    HW217656   2.620   7.256   2.105 -2.0713  1.2311  0.3201
 2770SOL     OW17657   1.883   1.638   2.456 -0.0879  0.0828  0.7714
 2770SOL    HW117658   1.881   1.589   2.543 -0.4160  1.9579  1.8390
 2770SOL    HW217659   1.871   1.736   2.472  0.4582  0.5231 -1.3395
 2771SOL     OW17660   4.171   4.116   5.183 -0.2774  0.1597  0.4511
 2771SOL    HW117661   4.098   4.174   5.147 -0.4375 -1.0288 -1.2012
 2771SOL    HW217662   4.215   4.068   5.108 -0.1313 -1.8333  1.7737
 2772SOL     OW17663   9.433   7.062   2.660 -0.3634  0.9304 -0.5978
 2772SOL    HW117664   9.524   7.097   2.641 -0.0645  0.9927  0.8865
 2772SOL    HW217665   9.439   6.989   2.728 -1.4004  0.8019 -0.6336
 2773SOL     OW17666   0.341   6.591   3.449 -0.6588  0.3831  0.0533
 2773SOL    HW117667   0.245   6.580   3.476 -0.5588  1.0191  0.6999
 2773SOL    HW217668   0.388   6.648   3.517 -0.0275  0.7648 -0.6936
 2774SOL     OW17669   0.846   8.110   4.572  0.2629 -0.2569  0.5349
 2774SOL    HW117670   0.865   8.058   4.656  0.4497  0.5188  0.9766
 2774SOL    HW217671   0.874   8.056   4.493  0.5876 -0.7770  0.9990
 2775SOL     OW17672   6.375   8.484   2.250 -0.3240  0.0245 -0.2159
 2775SOL    HW117673   6.345   8.389   2.253 -0.0207 -0.0902 -0.7650
 2775SOL    HW217674   6.333   8.534   2.325  0.6751 -0.8689  0.9594
 2776SOL     OW17675   7.567   0.532   2.526 -0.5328  0.8347  0.2833
 2776SOL    HW117676   7.627   0.612   2.530  0.1002  0.3341  1.1307
 2776SOL    HW217677   7.580   0.484   2.439  0.3900  0.6725  0.4995
 2777SOL     OW17678   4.677   6.973   3.538 -1.1368  0.0592  0.1773
 2777SOL    HW117679   4.758   7.028   3.559 -0.1652 -0.8280 -1.1782
 2777SOL    HW217680   4.614   6.976   3.615 -0.1367  1.3483  0.9624
 2778SOL     OW17681   8.453   7.720   2.619  0.3562  0.3873  0.0347
 2778SOL    HW117682   8.424   7.786   2.549  2.5189  1.6419  0.2668
 2778SOL    HW217683   8.550   7.699   2.606  0.2019 -1.1646  1.2565
 2781SOL     OW17684   4.404   5.997   1.433  0.1869 -0.8326  0.8746
 2781SOL    HW117685   4.405   5.978   1.335 -0.9204 -0.7628  0.8435
 2781SOL    HW217686   4.413   6.095   1.448  1.8503 -0.9745  0.9021
 2782SOL     OW17687   1.437   7.128   3.661  0.3982  0.0372  0.1364
 2782SOL    HW117688   1.373   7.113   3.587 -0.6474 -0.5051  1.1356
 2782SOL    HW217689   1.414   7.213   3.709  0.7839  0.1413  0.1452
 2783SOL     OW17690   1.067   0.054   3.546 -0.2105  0.2560  0.3443
 2783SOL    HW117691   1.104   0.074   3.455  0.8506  0.2172  0.7619
 2783SOL    HW217692   1.105  -0.033   3.579  1.3849  1.5022  1.8759
 2785SOL     OW17693   3.670   8.243   3.013  0.3451 -0.2701  0.0730
 2785SOL    HW117694   3.725   8.301   3.073  0.1004  0.7500 -0.6874
 2785SOL    HW217695   3.641   8.162   3.063  1.7676 -0.3721  0.7621
 2786SOL     OW17696   5.735   0.380   2.329  0.5582  0.2310 -0.1866
 2786SOL    HW117697   5.652   0.361   2.276  0.6903 -1.6076  0.2168
 2786SOL    HW217698   5.794   0.299   2.329  1.9501  1.2224  0.2712
 2787SOL     OW17699   8.276   6.160   2.652  0.5853  0.1284 -0.5555
 2787SOL    HW117700   8.344   6.122   2.714  1.9741  2.4853 -0.5660
 2787SOL    HW217701   8.191   6.107   2.659  1.5340 -1.2073  1.4294
 2789SOL     OW17702   3.116   4.781   2.317 -0.6184  0.0739 -0.5495
 2789SOL    HW117703   3.037   4.720   2.316 -0.2829 -0.3615 -2.2821
 2789SOL    HW217704   3.088   4.871   2.351 -0.9716 -1.1842  2.6562
 2790SOL     OW17705   8.443   4.456   1.496 -0.7700 -0.6330  0.0993
 2790SOL    HW117706   8.409   4.534   1.444 -0.5220 -0.2863  0.4478
 2790SOL    HW217707   8.375   4.383   1.495 -1.2603 -0.1837  0.2671
 2792SOL     OW17708   7.578   0.250   3.902 -0.1770  0.3424 -0.0455
 2792SOL    HW117709   7.609   0.155   3.910 -1.2708  0.0936  1.5260
 2792SOL    HW217710   7.485   0.258   3.939  0.2632  2.1995  0.7114
 2793SOL     OW17711   7.207   1.741   0.878  0.1621 -0.5819 -0.1885
 2793SOL    HW117712   7.283   1.764   0.818  0.4619 -3.1339 -0.8508
 2793SOL    HW217713   7.236   1.751   0.973  1.0133 -0.6258 -0.4395
 2794SOL     OW17714   1.237   6.895   1.642  0.1353  0.3301  0.5460
 2794SOL    HW117715   1.161   6.902   1.708 -0.1156  1.1832  0.1732
 2794SOL    HW217716   1.323   6.887   1.692 -0.2159 -0.9486  0.9754
 2797SOL     OW17717   9.684   4.465   0.460 -0.8189 -0.6753  0.3358
 2797SOL    HW117718   9.784   4.463   0.469 -0.9642  0.6729  2.6462
 2797SOL    HW217719   9.649   4.372   0.467  0.2794 -1.1510 -0.4026
 2798SOL     OW17720   0.036   0.220   0.315  0.2230  0.1536  0.1246
 2798SOL    HW117721   0.076   0.169   0.239 -0.1713 -2.0840  1.3790
 2798SOL    HW217722  -0.039   0.168   0.355  0.5323  1.1980  2.1706
 2801SOL     OW17723   4.481   4.557   1.485  0.0631  0.4920 -0.2129
 2801SOL    HW117724   4.410   4.532   1.552  0.9283 -0.1392  0.4797
 2801SOL    HW217725   4.442   4.552   1.393 -0.2656 -1.8424  0.0078
 2802SOL     OW17726   4.031   6.907   4.610 -0.1970  0.0933  0.4085
 2802SOL    HW117727   3.977   6.829   4.581  1.3567 -0.6584 -0.4767
 2802SOL    HW217728   4.053   6.898   4.707 -1.4957  0.3264  0.7392
 2803SOL     OW17729   2.241   8.681   2.506 -0.1134 -0.3366  0.2622
 2803SOL    HW117730   2.146   8.668   2.481 -0.2196  0.9568 -0.0597
 2803SOL    HW217731   2.253   8.772   2.546  0.7946 -0.8660  1.2553
 2804SOL     OW17732   6.597   1.836   1.777 -0.1808 -0.0909  0.8377
 2804SOL    HW117733   6.678   1.844   1.835  0.2200  2.2447  0.0257
 2804SOL    HW217734   6.615   1.882   1.689 -2.5120  0.8059  0.8082
 2805SOL     OW17735   2.364   0.091   0.860  0.0280  0.2487  0.2149
 2805SOL    HW117736   2.392   0.146   0.781 -0.8197  2.6256  1.5070
 2805SOL    HW217737   2.264   0.090   0.866  0.0794 -0.2443  1.0386
 2806SOL     OW17738   0.950   4.989   2.513  0.4080  0.2462 -0.4160
 2806SOL    HW117739   1.028   5.043   2.546  0.4998  0.4340 -0.9369
 2806SOL    HW217740   0.866   5.041   2.526  0.2447 -0.3400  1.0415
 2807SOL     OW17741   9.274   4.325   4.089  0.1361  0.2858  0.1160
 2807SOL    HW117742   9.321   4.246   4.128  0.7196 -0.6745 -2.4758
 2807SOL    HW217743   9.214   4.365   4.159  1.1031 -1.4045  1.9699
 2808SOL     OW17744   8.500   1.813   2.670 -0.1893 -0.5779  0.0022
 2808SOL    HW117745   8.526   1.785   2.577  1.3282 -1.3268  0.6424
 2808SOL    HW217746   8.438   1.891   2.664  1.1012  0.3758 -1.6264
 2809SOL     OW17747   5.829   0.627   2.122 -0.5716  0.2044  0.5115
 2809SOL    HW117748   5.821   0.544   2.177 -1.6278  0.8766  1.3803
 2809SOL    HW217749   5.764   0.623   2.046 -1.0493  0.5115  0.9051
 2810SOL     OW17750   6.869   8.834   3.191 -0.2735  0.3375  0.4327
 2810SOL    HW117751   6.905   8.816   3.100  0.0145  1.1949  0.3713
 2810SOL    HW217752   6.770   8.816   3.192 -0.3768  0.8529 -0.1982
 2811SOL     OW17753   2.060   7.256   5.114  0.5148  0.1857  0.8561
 2811SOL    HW117754   2.092   7.251   5.020 -0.0771  0.9720  0.6075
 2811SOL    HW217755   1.980   7.198   5.125  0.8807 -0.2952  1.0033
 2813SOL     OW17756   1.561   8.375   2.848 -0.2074  0.2989 -0.4360
 2813SOL    HW117757   1.608   8.463   2.836 -0.3883  0.1951 -1.9486
 2813SOL    HW217758   1.624   8.310   2.891 -0.0317  1.1281  0.5817
 2814SOL     OW17759   3.887   5.247   3.259  0.2883 -0.1676  0.3469
 2814SOL    HW117760   3.859   5.338   3.229  1.5941  0.1793  0.1589
 2814SOL    HW217761   3.983   5.248   3.284  0.1808 -1.3796  0.8476
 2815SOL     OW17762   7.817   0.204   4.183 -0.7275  0.1785  0.1643
 2815SOL    HW117763   7.760   0.279   4.216 -1.4418  1.0405 -2.8858
 2815SOL    HW217764   7.912   0.221   4.208 -0.8971  2.0325 -0.4023
 2817SOL     OW17765   3.731   2.508   0.493  0.2561 -0.0289 -0.3849
 2817SOL    HW117766   3.698   2.514   0.398 -0.0359 -1.0908 -0.3586
 2817SOL    HW217767   3.831   2.500   0.493  0.2715  0.1519 -0.5927
 2818SOL     OW17768   4.487   4.944   0.145 -0.2305 -0.3278  0.2659
 2818SOL    HW117769   4.444   4.894   0.220 -0.9032 -0.8090 -0.4447
 2818SOL    HW217770   4.459   4.905   0.058 -1.9249  2.1890 -0.3562
 2819SOL     OW17771   8.890   8.732   1.238  0.2266 -0.2918 -0.2982
 2819SOL    HW117772   8.899   8.758   1.142 -1.3937 -1.4362 -0.7831
 2819SOL    HW217773   8.846   8.642   1.245 -0.7662  0.2969  1.5476
 2821SOL     OW17774   0.400   9.764   1.162  0.0019  0.2984 -0.1109
 2821SOL    HW117775   0.368   9.682   1.210  0.0823  1.0645  1.2834
 2821SOL    HW217776   0.343   9.842   1.189  0.5868  0.9038 -0.6230
 2822SOL     OW17777   6.016   0.263   4.690  0.3860 -0.3801  0.0608
 2822SOL    HW117778   5.919   0.289   4.682  0.4718 -0.0417  0.1018
 2822SOL    HW217779   6.049   0.230   4.602  0.1504 -0.7722  0.1213
 2823SOL     OW17780   9.463   2.548   3.171 -0.5441  0.0156  0.4526
 2823SOL    HW117781   9.461   2.515   3.076  1.9683  0.6776  0.1327
 2823SOL    HW217782   9.461   2.470   3.233 -0.1080 -0.5126 -0.1865
 2824SOL     OW17783   9.587   2.556   0.080 -0.3028 -0.2088 -0.0045
 2824SOL    HW117784   9.646   2.597   0.149 -0.6481  0.0044  0.1680
 2824SOL    HW217785   9.492   2.555   0.114 -0.1338 -2.2000  0.4672
 2825SOL     OW17786   2.197   4.813   4.286 -0.1380  0.0894 -0.3388
 2825SOL    HW117787   2.260   4.794   4.211 -1.1347  1.6882 -1.6196
 2825SOL    HW217788   2.131   4.738   4.294  1.6005 -1.3628  0.7092
 2826SOL     OW17789   1.575   1.124   1.030 -0.0287  0.3618 -0.5244
 2826SOL    HW117790   1.580   1.087   0.937  0.1164 -0.4541 -0.1945
 2826SOL    HW217791   1.490   1.094   1.073 -0.7423  1.8656 -0.8649
 2827SOL     OW17792   8.933   7.895   1.962 -0.1998  0.3634 -0.1188
 2827SOL    HW117793   8.881   7.939   1.889  1.5905  1.0139 -1.0147
 2827SOL    HW217794   8.878   7.894   2.045 -1.4266  1.5629 -0.8918
 2828SOL     OW17795   0.748   9.688   1.519 -1.0341 -0.3779  0.0143
 2828SOL    HW117796   0.661   9.726   1.553 -0.3772  0.4628  0.7906
 2828SOL    HW217797   0.758   9.594   1.552 -1.4876 -0.3512  0.2297
 2829SOL     OW17798   3.309   1.122   5.215  0.4638 -0.4286 -0.3326
 2829SOL    HW117799   3.249   1.107   5.136 -0.1562 -0.8255  0.2017
 2829SOL    HW217800   3.404   1.119   5.186  0.3225 -3.1683 -0.6474
 2830SOL     OW17801   1.288   3.168   5.019  0.1953  0.4252  0.5028
 2830SOL    HW117802   1.347   3.241   4.985  0.8816 -0.7042 -0.8169
 2830SOL    HW217803   1.281   3.096   4.949 -1.0074 -0.4509  1.5044
 2831SOL     OW17804   4.231   7.469   2.028  0.1859 -0.5741 -0.1277
 2831SOL    HW117805   4.158   7.406   2.002  0.4317 -1.8604  2.2395
 2831SOL    HW217806   4.316   7.419   2.041  0.9288  0.5804 -0.4446
 2833SOL     OW17807   3.868   5.124   1.078  0.2275 -0.2666  0.0275
 2833SOL    HW117808   3.878   5.196   1.148 -0.0865 -0.8583  0.6884
 2833SOL    HW217809   3.821   5.162   0.998 -1.8287 -0.2459  1.2089
 2834SOL     OW17810   9.585   5.245   2.476  0.2740  0.3302  0.1266
 2834SOL    HW117811   9.653   5.254   2.549  0.8866  1.6335 -0.5856
 2834SOL    HW217812   9.537   5.158   2.486  0.5715  0.3358  1.8885
 2836SOL     OW17813   9.537   6.910   4.287 -0.2671  0.0367  0.3757
 2836SOL    HW117814   9.517   6.942   4.194  0.3372  2.1976  0.9735
 2836SOL    HW217815   9.623   6.858   4.286  1.1045  2.2623  0.1505
 2837SOL     OW17816   0.529   6.861   2.211  0.6079 -0.4838 -0.4564
 2837SOL    HW117817   0.612   6.826   2.253  1.7784 -1.2643 -3.3030
 2837SOL    HW217818   0.552   6.915   2.130 -1.4843  2.4026  0.7802
 2838SOL     OW17819   3.660   9.908   1.732  0.1942 -0.0764 -0.3172
 2838SOL    HW117820   3.562   9.899   1.746 -0.1070  2.0463 -0.8929
 2838SOL    HW217821   3.706   9.916   1.821 -0.4108  1.1965 -0.1097
 2839SOL     OW17822   2.862   3.843   1.985 -0.0610 -0.1700  0.4105
 2839SOL    HW117823   2.948   3.855   1.936 -0.0036  0.6518  0.7098
 2839SOL    HW217824   2.812   3.765   1.947  0.8192 -0.6594  0.2464
 2841SOL     OW17825   4.236   0.454   3.752 -0.3195  0.2412 -0.4476
 2841SOL    HW117826   4.153   0.415   3.791  0.1225 -0.0301  0.2477
 2841SOL    HW217827   4.254   0.414   3.662  0.0238 -1.0359  0.1771
 2842SOL     OW17828   2.180   3.253   2.189  0.0003  0.5676 -0.3691
 2842SOL    HW117829   2.212   3.159   2.181 -2.3093 -0.4038  1.2819
 2842SOL    HW217830   2.212   3.291   2.276  0.0231  0.9504 -0.5459
 2843SOL     OW17831   5.584   0.647   0.920  0.2031  0.5315 -0.1723
 2843SOL    HW117832   5.486   0.663   0.907  0.0682  0.3879  0.6166
 2843SOL    HW217833   5.636   0.725   0.886 -0.1839  0.6000 -0.6092
 2844SOL     OW17834   9.727   7.731   2.524  0.0354  0.0157  0.3674
 2844SOL    HW117835   9.660   7.805   2.529  2.0616  2.1174 -1.9772
 2844SOL    HW217836   9.731   7.695   2.431  0.5128 -1.7059  1.0250
 2845SOL     OW17837   3.859   7.605   1.181 -0.6864 -0.6632 -0.0392
 2845SOL    HW117838   3.855   7.689   1.127 -1.0075  0.0053  1.0070
 2845SOL    HW217839   3.954   7.583   1.202 -0.6422 -0.1493  0.3098
 2846SOL     OW17840   3.170   4.929   1.209 -0.2163  0.2683 -0.1347
 2846SOL    HW117841   3.085   4.954   1.254 -0.1973 -0.9701  0.6207
 2846SOL    HW217842   3.247   4.973   1.256 -0.2517 -0.4849  0.6351
 2847SOL     OW17843   2.328   7.742   3.654  0.1386  0.5670 -0.1605
 2847SOL    HW117844   2.424   7.768   3.655  0.9089 -2.0286 -1.1147
 2847SOL    HW217845   2.320   7.644   3.675 -2.2257  0.5812 -0.8391
 2848SOL     OW17846   7.906   3.541   0.443 -0.2561 -0.0113  0.0865
 2848SOL    HW117847   7.918   3.442   0.450  0.6614 -0.1036 -2.1961
 2848SOL    HW217848   7.809   3.563   0.450 -0.6458 -1.2602 -1.0641
 2849SOL     OW17849   3.488   1.268   3.666  0.8739 -0.5466 -0.8938
 2849SOL    HW117850   3.574   1.299   3.708  0.2010  0.3982 -0.2124
 2849SOL    HW217851   3.509   1.206   3.590  2.1095 -2.0371  0.6294
 2850SOL     OW17852   0.700   8.020   1.257 -0.4383  0.4138  0.1301
 2850SOL    HW117853   0.654   8.014   1.345  1.0845  0.9685  0.9814
 2850SOL    HW217854   0.790   7.976   1.262 -0.7078 -0.3604 -1.4058
 2851SOL     OW17855   8.281   4.539   2.154  0.1989  0.0685 -0.2341
 2851SOL    HW117856   8.257   4.518   2.059  0.0902  3.4366 -1.0335
 2851SOL    HW217857   8.379   4.522   2.168  0.6614  1.5117 -1.5755
 2852SOL     OW17858   3.500   6.940   4.018 -1.0957  0.3070  0.0079
 2852SOL    HW117859   3.486   6.971   3.924  1.9180 -1.2213 -1.0068
 2852SOL    HW217860   3.507   7.019   4.078  0.1173  1.4397 -1.5600
 2853SOL     OW17861   1.308   4.903   0.363  0.1849 -0.0800 -0.0276
 2853SOL    HW117862   1.271   4.959   0.289 -0.9494 -2.0308 -0.9943
 2853SOL    HW217863   1.403   4.927   0.379 -0.2744  2.0821 -0.4280
 2854SOL     OW17864   0.858   7.658   0.524  0.0698  0.4843 -0.0006
 2854SOL    HW117865   0.851   7.605   0.439 -1.0451  0.0108  0.3731
 2854SOL    HW217866   0.834   7.753   0.506 -0.0565  0.4078 -0.2401
 2855SOL     OW17867   1.909   3.539   1.478  0.7627 -0.0027  0.2296
 2855SOL    HW117868   1.899   3.506   1.572  1.3900  0.2727  0.3939
 2855SOL    HW217869   1.913   3.639   1.478  1.8377 -0.0458  0.0095
 2857SOL     OW17870   0.437   1.686   3.362  0.4420 -0.4661 -0.6728
 2857SOL    HW117871   0.520   1.635   3.342  1.0143 -0.8342  2.3625
 2857SOL    HW217872   0.400   1.657   3.450 -2.3875  0.3785 -1.5137
 2858SOL     OW17873   1.210   6.524   3.023  0.1572  0.3277 -0.0989
 2858SOL    HW117874   1.288   6.509   2.963  1.8705  0.5796  2.0247
 2858SOL    HW217875   1.180   6.619   3.016  1.0733  0.6480  0.2866
 2859SOL     OW17876   1.230   5.865   1.779 -0.0685  0.8126 -0.9092
 2859SOL    HW117877   1.199   5.946   1.829 -0.6661  0.2939 -0.4300
 2859SOL    HW217878   1.159   5.836   1.715 -0.2971  0.0442 -0.3217
 2860SOL     OW17879   7.474   7.644   3.665 -0.0860  0.2511  0.1975
 2860SOL    HW117880   7.554   7.688   3.626 -0.2423  1.2149  0.9464
 2860SOL    HW217881   7.447   7.691   3.749 -0.8144 -0.6998  0.5158
 2861SOL     OW17882   0.358   5.495   0.359 -0.7069  0.2597 -0.9420
 2861SOL    HW117883   0.301   5.438   0.300 -0.8327  0.2540 -0.8154
 2861SOL    HW217884   0.353   5.590   0.329  0.2962  0.0554 -1.7736
 2862SOL     OW17885   8.226   2.772   3.565 -0.1238 -0.7705 -0.0838
 2862SOL    HW117886   8.303   2.833   3.583 -0.4356 -0.8781  1.6590
 2862SOL    HW217887   8.148   2.824   3.531 -0.1178 -0.3087  0.6033
 2863SOL     OW17888   8.989   1.222   0.563  0.1677 -0.1749  0.1694
 2863SOL    HW117889   9.054   1.173   0.621  1.1554 -0.2986 -1.0447
 2863SOL    HW217890   9.037   1.287   0.505 -0.6014 -1.3362 -1.8288
 2864SOL     OW17891   7.705   2.530   0.335 -0.2967  0.1130 -0.6486
 2864SOL    HW117892   7.746   2.549   0.246  1.4269 -0.0935  0.0842
 2864SOL    HW217893   7.734   2.440   0.368 -0.4252  0.4306  0.3756
 2866SOL     OW17894   3.181   9.819   4.790 -0.1330  0.0253  0.0241
 2866SOL    HW117895   3.210   9.822   4.694  0.0220 -0.7644  0.0490
 2866SOL    HW217896   3.090   9.778   4.797 -0.9602  1.7848  0.0327
 2869SOL     OW17897   8.904   5.519   3.780  0.1320  0.2364  0.0787
 2869SOL    HW117898   8.821   5.574   3.789  0.0821  0.2892 -0.6825
 2869SOL    HW217899   8.880   5.429   3.744  0.2868 -0.0950  0.7919
 2870SOL     OW17900   4.112   1.469   0.936  0.4848 -0.4152 -0.1631
 2870SOL    HW117901   4.012   1.465   0.929  0.4772  0.3328 -0.5036
 2870SOL    HW217902   4.140   1.439   1.027 -0.1465  0.7665  0.4296
 2871SOL     OW17903   5.790   7.365   2.788  0.1591 -0.0100 -0.3438
 2871SOL    HW117904   5.770   7.458   2.819  0.7656  0.8676 -2.5298
 2871SOL    HW217905   5.705   7.313   2.783 -0.3315  0.7781 -0.2735
 2872SOL     OW17906   1.012   7.267   0.643  0.1744  0.0151 -0.1787
 2872SOL    HW117907   1.099   7.277   0.691 -0.1859 -0.9307  0.6928
 2872SOL    HW217908   0.956   7.348   0.660  0.8497  0.5950 -0.6840
 2874SOL     OW17909   9.564   7.793   0.033 -0.5087 -0.0003 -0.1671
 2874SOL    HW117910   9.465   7.791   0.047 -0.4647 -1.3595  0.0580
 2874SOL    HW217911   9.605   7.864   0.090 -1.2546 -0.0791  0.4685
 2875SOL     OW17912   8.626   0.708   3.242  0.4321  0.0002 -0.0159
 2875SOL    HW117913   8.640   0.797   3.199  0.6564 -0.5626 -1.1179
 2875SOL    HW217914   8.546   0.663   3.202  1.4286 -1.0946 -0.7832
 2876SOL     OW17915   2.089   0.353   4.218  0.3356  0.2223 -0.0708
 2876SOL    HW117916   2.084   0.305   4.130  1.0655 -1.5263  0.8179
 2876SOL    HW217917   2.116   0.448   4.202  1.1949 -0.2681 -1.6902
 2877SOL     OW17918   2.167   1.891   1.309  0.2753  0.3490  0.2108
 2877SOL    HW117919   2.078   1.877   1.353  0.1300 -0.6494 -0.3903
 2877SOL    HW217920   2.232   1.824   1.345  0.1279 -0.5486 -1.1739
 2878SOL     OW17921   4.558   0.126   2.762 -0.3574  0.0836 -0.6452
 2878SOL    HW117922   4.618   0.088   2.832  0.1409 -0.5694 -1.4136
 2878SOL    HW217923   4.565   0.071   2.679 -0.6446  1.0777 -1.3372
 2879SOL     OW17924   1.203   3.398   3.263  0.2155 -0.0946 -0.1749
 2879SOL    HW117925   1.198   3.408   3.362 -0.1489  0.7750 -0.2773
 2879SOL    HW217926   1.205   3.488   3.220  0.5217 -0.4630 -0.9540
 2880SOL     OW17927   4.657   7.510   2.984  0.0179 -0.3092  0.4030
 2880SOL    HW117928   4.588   7.439   2.967 -0.7688  0.6475 -0.4840
 2880SOL    HW217929   4.747   7.468   2.986 -0.4539 -1.3727  0.1130
 2881SOL     OW17930   8.102   1.239   2.491 -0.1183 -0.7017  0.1903
 2881SOL    HW117931   8.125   1.315   2.553 -0.9070  0.0073 -0.3861
 2881SOL    HW217932   8.177   1.173   2.491  0.8643  0.3974  0.2009
 2882SOL     OW17933   7.750   2.916   0.960  0.5179 -0.5795 -0.3419
 2882SOL    HW117934   7.689   2.996   0.956 -0.5523 -1.4059 -0.9201
 2882SOL    HW217935   7.722   2.857   1.035  0.3599 -1.1456 -0.8392
 2883SOL     OW17936   1.217   8.972   3.924  0.1742 -0.1981 -0.3949
 2883SOL    HW117937   1.215   9.053   3.982 -1.4148 -0.8481  0.4970
 2883SOL    HW217938   1.294   8.914   3.951 -0.2550 -0.2545  0.7616
 2884SOL     OW17939   4.162   8.408   4.333  0.3334 -0.0074 -0.0970
 2884SOL    HW117940   4.249   8.364   4.355  0.2871 -0.1371 -0.1718
 2884SOL    HW217941   4.179   8.504   4.310  0.8513 -0.8106 -3.2157
 2885SOL     OW17942   6.621   9.296   2.779 -0.1767 -0.2086  0.1629
 2885SOL    HW117943   6.685   9.328   2.709 -1.9443  1.8234 -0.5769
 2885SOL    HW217944   6.535   9.268   2.737 -0.0350 -2.3175  1.2104
 2886SOL     OW17945   9.002   8.488   2.220  0.1956  0.1640 -0.1152
 2886SOL    HW117946   8.941   8.430   2.275  0.8493 -0.7899 -0.3820
 2886SOL    HW217947   9.047   8.554   2.280 -0.8581  0.6778  0.1330
 2887SOL     OW17948   3.930   3.362   0.345 -0.4396 -0.4911 -0.8666
 2887SOL    HW117949   3.870   3.433   0.382  0.2376 -0.0328 -0.6183
 2887SOL    HW217950   3.932   3.368   0.246  0.3821  0.4846 -0.7980
 2888SOL     OW17951   2.134   9.795   3.533 -0.0043  0.0108  0.0439
 2888SOL    HW117952   2.191   9.792   3.451 -0.2048 -3.3406 -0.0660
 2888SOL    HW217953   2.042   9.824   3.509 -0.0123 -0.7748 -0.9158
 2890SOL     OW17954   0.219   3.087   1.011  0.0750  0.7437 -0.4023
 2890SOL    HW117955   0.212   3.014   1.079  3.8622 -1.6753 -2.4480
 2890SOL    HW217956   0.278   3.160   1.046  0.5728  0.3296 -0.3627
 2892SOL     OW17957   9.150   8.561   4.631  0.2827  0.4561  0.5326
 2892SOL    HW117958   9.187   8.645   4.592  0.3366  0.6789  1.0531
 2892SOL    HW217959   9.185   8.549   4.724 -1.3105  0.9170  1.2211
 2893SOL     OW17960   8.812   5.354   1.319  0.4563 -0.4741 -0.1303
 2893SOL    HW117961   8.713   5.342   1.324 -0.1115  2.6669 -2.1070
 2893SOL    HW217962   8.849   5.293   1.249  0.0312 -2.1584  1.0987
 2897SOL     OW17963   2.179   3.906   4.505 -0.0774  0.0765  0.0498
 2897SOL    HW117964   2.229   3.957   4.575  1.2192 -0.2052 -0.6350
 2897SOL    HW217965   2.154   3.816   4.540 -0.3728  0.3382  0.5102
 2898SOL     OW17966   3.279   9.494   0.762  0.3501  0.5940 -0.5651
 2898SOL    HW117967   3.185   9.507   0.793  0.3998 -0.1497 -0.0811
 2898SOL    HW217968   3.321   9.583   0.743 -0.2642  0.9561 -0.2365
 2899SOL     OW17969   3.706   5.877   5.131  0.3401 -0.2841 -0.2481
 2899SOL    HW117970   3.643   5.945   5.167 -0.2908 -0.9704 -0.0440
 2899SOL    HW217971   3.779   5.860   5.197  1.3364  1.2599 -0.9046
 2900SOL     OW17972   4.758   8.189   2.771  0.3597 -0.2197  0.4356
 2900SOL    HW117973   4.774   8.108   2.828  1.2357 -0.8726 -0.7157
 2900SOL    HW217974   4.745   8.161   2.676  1.5885  1.0568 -0.1252
 2902SOL     OW17975   4.138   6.673   3.330  0.6028  0.0587 -0.7748
 2902SOL    HW117976   4.166   6.579   3.351 -0.1141  0.1151  0.4927
 2902SOL    HW217977   4.099   6.676   3.238 -0.7721 -1.1875 -0.2509
 2903SOL     OW17978   7.558   9.991   1.233 -0.2018  0.2007  0.5473
 2903SOL    HW117979   7.583  10.019   1.140  0.4509 -2.9504 -0.3075
 2903SOL    HW217980   7.637  10.002   1.294  0.0487  0.2492  0.2162
 2904SOL     OW17981   5.151   0.169   2.869  0.3941  0.4620 -0.1051
 2904SOL    HW117982   5.194   0.085   2.836 -0.1661 -0.0168  0.3801
 2904SOL    HW217983   5.100   0.212   2.794 -1.3000 -0.8928  0.2451
 2905SOL     OW17984   3.396   6.046   0.298  0.1553  0.3393  0.2788
 2905SOL    HW117985   3.486   6.019   0.263 -0.2794  0.4711 -0.9733
 2905SOL    HW217986   3.391   6.145   0.305  0.4247  0.2916  1.2499
 2907SOL     OW17987   2.701   8.945   3.936 -0.3110  0.4157  0.3514
 2907SOL    HW117988   2.649   9.019   3.895 -0.4750  0.3638  0.4663
 2907SOL    HW217989   2.780   8.982   3.984 -0.5107  0.5308  0.5892
 2908SOL     OW17990   6.329   1.526   4.860 -0.7455  0.1754 -0.7397
 2908SOL    HW117991   6.278   1.583   4.796  1.7079  2.5227 -0.7040
 2908SOL    HW217992   6.265   1.472   4.915 -2.9528 -0.3884 -3.7560
 2909SOL     OW17993   1.834   4.730   4.053 -0.2509 -0.1205 -0.4898
 2909SOL    HW117994   1.861   4.826   4.045  0.4374 -0.1635  1.0037
 2909SOL    HW217995   1.913   4.671   4.034 -0.3551 -0.3539 -0.2119
 2910SOL     OW17996   3.653   9.018   4.411 -0.2478 -0.0478  0.3475
 2910SOL    HW117997   3.579   9.084   4.393 -0.2475  0.3400  1.7255
 2910SOL    HW217998   3.614   8.934   4.449 -0.0017  0.1227  0.9898
 2911SOL     OW17999   1.943   8.473   4.909  1.1385 -0.5708  0.2987
 2911SOL    HW118000   1.856   8.471   4.960  1.3916 -0.7082  0.7279
 2911SOL    HW218001   1.966   8.380   4.880  1.2027 -0.5505  0.2850
 2912SOL     OW18002   6.966   0.708   2.742  0.5045  0.5478  0.2393
 2912SOL    HW118003   7.030   0.781   2.767  0.3617  0.1923  1.6778
 2912SOL    HW218004   7.012   0.620   2.748 -0.3681  0.2020  2.2746
 2914SOL     OW18005   4.307   1.285   5.278 -0.2287 -0.1582  0.1463
 2914SOL    HW118006   4.342   1.292   5.185  0.4727 -0.0389  0.4112
 2914SOL    HW218007   4.368   1.226   5.332  0.0235  0.7187  0.8366
 2916SOL     OW18008   8.120   8.985   2.506  0.0558  0.0577  0.1334
 2916SOL    HW118009   8.097   8.929   2.426  3.1774  1.0607 -1.5503
 2916SOL    HW218010   8.102   9.081   2.485  1.6705  0.4118  0.3232
 2917SOL     OW18011   3.029   9.759   4.485 -0.1007  0.6865  0.1176
 2917SOL    HW118012   3.023   9.720   4.393  1.0782 -0.4545  0.5175
 2917SOL    HW218013   2.985   9.849   4.485 -2.2283 -0.2965 -0.9932
 2918SOL     OW18014   0.018   9.674   4.484 -0.3268 -0.0147 -0.4405
 2918SOL    HW118015  -0.019   9.764   4.461  0.1520  0.5822  1.1000
 2918SOL    HW218016   0.003   9.612   4.407 -2.0088  0.9661 -0.9371
 2919SOL     OW18017   9.245   6.524   2.165  0.4356  0.0811 -0.4705
 2919SOL    HW118018   9.238   6.584   2.244  1.9724  0.8160 -0.8815
 2919SOL    HW218019   9.300   6.443   2.189 -2.0005 -1.4245  0.2176
 2920SOL     OW18020   9.374   1.674   3.555  0.3020 -0.0037 -0.3769
 2920SOL    HW118021   9.341   1.748   3.614 -1.8759 -1.3984  0.2235
 2920SOL    HW218022   9.336   1.587   3.587 -0.2825 -0.8879 -3.3601
 2921SOL     OW18023   1.393   1.692   0.988  0.6318 -0.2040  0.2098
 2921SOL    HW118024   1.487   1.659   1.004  0.0918 -0.4489  3.1980
 2921SOL    HW218025   1.336   1.615   0.959  1.6062  0.2066 -2.9670
 2923SOL     OW18026   4.102   8.596   1.551 -0.5907 -0.6082  0.5090
 2923SOL    HW118027   4.097   8.615   1.452 -0.7296  0.8352  0.7840
 2923SOL    HW218028   4.077   8.501   1.567  0.0216 -1.0367 -0.9175
 2925SOL     OW18029   0.694   6.722   4.094 -0.1293  0.0477 -0.6621
 2925SOL    HW118030   0.601   6.712   4.127  0.8216 -0.2878  1.9705
 2925SOL    HW218031   0.733   6.808   4.128  1.4634 -1.1457  0.6430
 2926SOL     OW18032   3.668   6.512   4.124  0.0831  0.2889 -0.0438
 2926SOL    HW118033   3.703   6.579   4.058 -0.3482 -0.8311 -1.4382
 2926SOL    HW218034   3.579   6.478   4.094 -0.2275 -0.0608  1.2436
 2928SOL     OW18035   3.744   9.368   2.296  0.2802  0.1722  0.1627
 2928SOL    HW118036   3.793   9.451   2.326  1.2958  0.1436 -1.3736
 2928SOL    HW218037   3.774   9.290   2.351  1.9297  0.1692 -0.7275
 2929SOL     OW18038   4.113   4.606   4.234  0.3013  0.7746  0.1780
 2929SOL    HW118039   4.172   4.533   4.201 -1.5670 -0.9987  0.6853
 2929SOL    HW218040   4.154   4.648   4.315  0.2082 -1.3609  1.3509
 2930SOL     OW18041   7.311   0.781   3.344 -0.3533  0.1777 -0.3191
 2930SOL    HW118042   7.246   0.801   3.271 -0.0851  2.4493  0.0333
 2930SOL    HW218043   7.295   0.688   3.378 -1.4958 -0.3427 -2.1842
 2931SOL     OW18044   0.078   1.531   3.787 -0.1385  0.0584 -0.7601
 2931SOL    HW118045   0.047   1.475   3.710 -0.4903  0.5169 -0.9583
 2931SOL    HW218046  -0.002   1.565   3.837  0.0878 -0.1440 -0.2624
 2932SOL     OW18047   4.334   4.703   2.652  0.5974  0.1090  0.1355
 2932SOL    HW118048   4.384   4.618   2.670  0.1750  0.1803  1.6315
 2932SOL    HW218049   4.383   4.780   2.694  0.5034  0.4933 -0.4522
 2933SOL     OW18050   7.867   4.303   3.592  0.0898 -0.3177 -0.0046
 2933SOL    HW118051   7.929   4.274   3.665  0.0123 -1.2696 -0.3038
 2933SOL    HW218052   7.782   4.335   3.632  0.2939 -0.2160  0.3542
 2934SOL     OW18053   2.634   3.021   2.157 -0.3062  0.1031  0.3510
 2934SOL    HW118054   2.683   2.961   2.219 -2.3930 -1.7715  0.2456
 2934SOL    HW218055   2.698   3.062   2.092  1.5474  0.2723  2.2362
 2935SOL     OW18056   3.345   7.078   5.257 -0.7203  0.2698 -0.2478
 2935SOL    HW118057   3.365   7.073   5.355  1.3232  0.6471 -0.6249
 2935SOL    HW218058   3.349   6.987   5.217 -0.7227  0.2218 -0.1374
 2937SOL     OW18059   7.585   1.371   2.228  0.6224  0.8639  0.2101
 2937SOL    HW118060   7.668   1.382   2.173  2.1451  0.5040  2.3853
 2937SOL    HW218061   7.566   1.274   2.241 -0.5557  0.9374 -0.8602
 2938SOL     OW18062   8.894   1.115   5.195  0.2251 -0.3940 -0.2571
 2938SOL    HW118063   8.881   1.057   5.114  1.7832 -0.8034 -0.2283
 2938SOL    HW218064   8.809   1.119   5.248 -1.0222  0.4104 -2.2534
 2939SOL     OW18065   8.495   8.195   0.593  0.5033  0.0029 -0.3231
 2939SOL    HW118066   8.406   8.201   0.548  0.2653  0.6718  0.2315
 2939SOL    HW218067   8.515   8.281   0.640  1.2450 -0.2994 -0.0738
 2940SOL     OW18068   5.608   0.219   5.206  0.1234 -0.6171 -0.4328
 2940SOL    HW118069   5.655   0.143   5.251 -0.5556 -0.1583  1.0866
 2940SOL    HW218070   5.640   0.306   5.245  0.2496 -0.1495 -1.5437
 2941SOL     OW18071   1.391   7.049   1.143  0.0908  0.2096 -0.2610
 2941SOL    HW118072   1.329   6.994   1.088  0.4813  0.0351 -0.5248
 2941SOL    HW218073   1.393   7.013   1.237  0.9766 -0.7404 -0.6348
 2942SOL     OW18074   1.767   2.652   4.370 -0.2213  0.2887 -0.4923
 2942SOL    HW118075   1.813   2.607   4.293 -1.4693 -1.7328 -0.0801
 2942SOL    HW218076   1.833   2.710   4.418  1.8627 -2.2934 -0.1036
 2943SOL     OW18077   1.792   5.023   2.836 -0.0363 -0.0408 -0.1505
 2943SOL    HW118078   1.876   5.038   2.786  0.9973 -1.8470  0.9710
 2943SOL    HW218079   1.718   5.075   2.794  1.6809  1.7748 -0.9805
 2944SOL     OW18080   0.886   2.263   2.846  0.5018 -0.1862  0.0324
 2944SOL    HW118081   0.807   2.229   2.795  0.0414 -0.3925  0.8587
 2944SOL    HW218082   0.890   2.362   2.841 -0.9830 -0.0144  1.6299
 2947SOL     OW18083   9.330   0.380   0.378  0.0673  0.1636 -0.1376
 2947SOL    HW118084   9.384   0.354   0.458 -0.1701  2.8901  0.9425
 2947SOL    HW218085   9.391   0.391   0.299  0.8441  1.4236  0.6318
 2948SOL     OW18086   2.587   2.346   2.680 -0.2898  0.1527  0.4984
 2948SOL    HW118087   2.682   2.329   2.656 -0.1082  1.1583  0.4717
 2948SOL    HW218088   2.545   2.405   2.610 -0.6431  0.5412  1.0313
 2949SOL     OW18089   9.147   1.855   4.790 -0.6545  0.4322 -0.1849
 2949SOL    HW118090   9.224   1.872   4.850  0.1606  2.1310 -1.6536
 2949SOL    HW218091   9.163   1.771   4.737 -0.5243 -0.0377  0.5947
 2952SOL     OW18092   3.004   5.172   0.301 -0.6303 -0.2562  0.6217
 2952SOL    HW118093   3.078   5.117   0.262  0.2322  0.0737  1.7766
 2952SOL    HW218094   2.956   5.219   0.227  1.3920  0.8619 -0.0300
 2954SOL     OW18095   8.896   5.242   3.445  0.4628 -0.0062 -0.6646
 2954SOL    HW118096   8.841   5.284   3.373 -0.8184 -2.4843 -1.2031
 2954SOL    HW218097   8.911   5.145   3.423  0.9375 -0.5455  1.8742
 2955SOL     OW18098   0.662   2.695   4.792  0.2352 -0.0807  0.0100
 2955SOL    HW118099   0.693   2.706   4.886  2.4008  0.3436 -0.7196
 2955SOL    HW218100   0.693   2.606   4.758 -0.7017 -0.3112 -0.2508
 2956SOL     OW18101   2.073   3.055   4.422 -0.7332 -0.0818 -0.7128
 2956SOL    HW118102   2.046   3.094   4.334  0.7525  1.0576 -0.6901
 2956SOL    HW218103   2.166   3.019   4.415 -0.4481  0.3857  0.5002
 2957SOL     OW18104   0.126   1.575   1.500 -0.5348  0.3924  0.3954
 2957SOL    HW118105   0.221   1.603   1.490 -0.4603  0.2893  0.7856
 2957SOL    HW218106   0.068   1.629   1.439  0.2479 -2.3154 -2.8638
 2959SOL     OW18107   4.785   8.460   3.820 -0.7394 -0.3224 -0.3427
 2959SOL    HW118108   4.849   8.405   3.874 -0.5334 -0.6202 -0.8822
 2959SOL    HW218109   4.723   8.508   3.881 -0.3380 -0.4449  0.1703
 2960SOL     OW18110   1.491   4.076   3.783 -0.0622  0.0172 -0.2112
 2960SOL    HW118111   1.447   4.133   3.713 -1.1958 -0.3795  0.1730
 2960SOL    HW218112   1.458   4.102   3.873 -1.3973 -1.9403 -0.1071
 2962SOL     OW18113   9.022   1.411   3.295 -0.3845 -0.3061 -0.3551
 2962SOL    HW118114   9.105   1.450   3.256  0.4989 -0.2871  1.4877
 2962SOL    HW218115   8.958   1.484   3.317 -0.3569 -0.2179 -0.5675
 2963SOL     OW18116   3.724   2.368   4.086  0.1158 -0.2846  0.0722
 2963SOL    HW118117   3.713   2.387   4.183  2.8520  0.8733  0.1855
 2963SOL    HW218118   3.684   2.442   4.032  1.0624  0.4591  0.3762
 2964SOL     OW18119   9.301   1.668   1.754  0.1831 -0.7392 -0.6160
 2964SOL    HW118120   9.261   1.578   1.776 -0.4597  0.2354  2.4198
 2964SOL    HW218121   9.390   1.677   1.798 -0.4802  0.7235  0.4699
 2965SOL     OW18122   5.151   2.303   2.367  0.9230 -0.4619  0.3741
 2965SOL    HW118123   5.179   2.325   2.274 -0.7887 -0.8902 -0.2430
 2965SOL    HW218124   5.161   2.205   2.383  1.9653 -0.2825  0.9148
 2967SOL     OW18125   1.503   1.825   2.740  0.0223 -0.1655  0.0294
 2967SOL    HW118126   1.499   1.837   2.640 -0.2714 -3.1997 -0.3846
 2967SOL    HW218127   1.411   1.830   2.778 -0.5908 -4.2062 -0.6342
 2969SOL     OW18128   0.178   7.934   2.227  0.0871  0.0242 -0.4069
 2969SOL    HW118129   0.262   7.931   2.281 -0.7633  2.4271  1.1379
 2969SOL    HW218130   0.099   7.931   2.288 -0.9206  0.8104 -1.6515
 2970SOL     OW18131   1.856   1.863   1.421 -0.0558  0.0896 -0.0046
 2970SOL    HW118132   1.921   1.913   1.479  0.3168 -0.1329 -0.2247
 2970SOL    HW218133   1.845   1.770   1.457 -0.3621  0.1697  0.1129
 2971SOL     OW18134   3.279   8.349   2.688  0.2655 -0.3623 -0.5362
 2971SOL    HW118135   3.285   8.265   2.635 -0.4104  0.2089 -1.5327
 2971SOL    HW218136   3.270   8.427   2.627 -0.9310  0.2725  0.4159
 2972SOL     OW18137   0.028   0.409   2.951  0.3173  0.3017  0.0022
 2972SOL    HW118138   0.060   0.385   3.043 -0.5202 -1.0075 -0.0240
 2972SOL    HW218139   0.107   0.432   2.893  1.0564 -1.0280  0.4492
 2973SOL     OW18140   1.761   5.048   1.339  0.0925 -0.5689 -0.2056
 2973SOL    HW118141   1.702   4.983   1.291 -0.3564 -1.1890  1.1594
 2973SOL    HW218142   1.846   5.002   1.365  0.1560 -0.3556 -0.0353
 2974SOL     OW18143   9.669   8.812   3.335 -0.1214  0.0298 -0.0026
 2974SOL    HW118144   9.621   8.853   3.413  0.7375  1.0322  0.0114
 2974SOL    HW218145   9.659   8.712   3.339  0.5618  0.0109  1.8408
 2975SOL     OW18146   9.719   6.360   4.191 -0.2817 -0.0439 -0.3627
 2975SOL    HW118147   9.723   6.318   4.101 -2.9865 -0.6164 -0.2516
 2975SOL    HW218148   9.805   6.342   4.240  0.6976 -0.8227 -2.3043
 2976SOL     OW18149   5.383   9.647   3.318  0.3206 -0.1569  0.3326
 2976SOL    HW118150   5.425   9.733   3.290 -0.3714 -0.0357 -0.3222
 2976SOL    HW218151   5.453   9.589   3.361  0.7630  0.7677  0.8883
 2977SOL     OW18152   8.859   4.380   1.860  0.5108 -0.4178  0.1257
 2977SOL    HW118153   8.853   4.476   1.832 -0.1657  0.0185  1.6891
 2977SOL    HW218154   8.822   4.321   1.788  0.1314  0.5652 -0.4885
 2978SOL     OW18155   8.354   9.283   0.682  0.0705 -0.6152 -0.5152
 2978SOL    HW118156   8.376   9.187   0.665  2.1654 -0.3274  0.3994
 2978SOL    HW218157   8.279   9.311   0.623 -0.2181 -2.6735 -1.1680
 2979SOL     OW18158   3.613   5.233   2.385 -0.5166 -0.2990 -0.3264
 2979SOL    HW118159   3.592   5.272   2.475  1.6863 -1.1382  0.6149
 2979SOL    HW218160   3.589   5.136   2.385 -0.5805 -0.2834 -0.6714
 2980SOL     OW18161   7.393   9.790   4.441 -0.1061  0.1986 -0.4180
 2980SOL    HW118162   7.338   9.745   4.512  0.8185  1.0563  0.8789
 2980SOL    HW218163   7.475   9.735   4.424  0.2593  0.5908  0.0510
 2981SOL     OW18164   0.076   6.171   2.443  0.6200  0.0738  0.2818
 2981SOL    HW118165   0.036   6.260   2.421  0.5440  0.0442  0.2981
 2981SOL    HW218166   0.053   6.147   2.537  1.1784  0.3250  0.4800
 2984SOL     OW18167   5.345   0.105   3.485 -0.0639  0.0360 -0.2125
 2984SOL    HW118168   5.389   0.044   3.419 -0.2125 -0.4039  0.1000
 2984SOL    HW218169   5.266   0.060   3.525 -0.8805  0.8771 -0.8682
 2985SOL     OW18170   1.861   1.576   3.092  0.3043  0.2337 -0.1723
 2985SOL    HW118171   1.786   1.619   3.041  0.2856 -0.6230 -0.8746
 2985SOL    HW218172   1.936   1.642   3.100 -0.2378  0.8541 -0.0889
 2986SOL     OW18173   5.235   7.983   4.718 -0.8404  0.0342 -0.0129
 2986SOL    HW118174   5.137   7.994   4.732 -0.5190  1.5335  1.2564
 2986SOL    HW218175   5.264   8.042   4.643 -0.5110  1.5262  1.2628
 2987SOL     OW18176   0.673   1.932   2.268  0.3631 -0.2921  0.5237
 2987SOL    HW118177   0.617   2.015   2.274 -0.2345 -0.7557  1.5041
 2987SOL    HW218178   0.682   1.905   2.173 -0.0581  0.4810  0.2544
 2988SOL     OW18179   2.846   0.178   0.852  0.3160  0.1415  0.0572
 2988SOL    HW118180   2.803   0.256   0.897  0.6619 -0.4793  1.5087
 2988SOL    HW218181   2.906   0.132   0.917 -1.0268 -2.2133 -0.3095
 2989SOL     OW18182   4.170   5.695   2.923  0.6990  0.1834 -0.3114
 2989SOL    HW118183   4.169   5.792   2.947  2.0540  0.4093 -1.0913
 2989SOL    HW218184   4.077   5.662   2.913  0.2302  1.5675 -0.6226
 2990SOL     OW18185   8.625   3.339   2.679 -0.1856  0.2422  0.4684
 2990SOL    HW118186   8.698   3.292   2.729  1.5993  1.5703 -0.8572
 2990SOL    HW218187   8.564   3.384   2.744  1.5320  1.1017  1.5044
 2991SOL     OW18188   1.916   7.096   3.855  0.1119 -0.3539 -0.2189
 2991SOL    HW118189   1.821   7.080   3.828  0.6273 -0.0453 -2.3087
 2991SOL    HW218190   1.926   7.077   3.952 -2.1600 -0.0867  0.1103
 2992SOL     OW18191   3.559   1.637   3.889  0.2363  0.2072  0.0602
 2992SOL    HW118192   3.530   1.610   3.797 -0.8681 -1.6814  0.9322
 2992SOL    HW218193   3.621   1.715   3.882 -1.3319  1.3282 -2.1571
 2993SOL     OW18194   9.617   4.440   3.029 -0.2991 -0.0944 -0.5345
 2993SOL    HW118195   9.698   4.463   2.975  0.2499 -1.8398 -0.4922
 2993SOL    HW218196   9.560   4.375   2.978 -0.1042 -1.2561  0.6719
 2994SOL     OW18197   3.685   8.541   0.052 -0.1378 -0.4238 -0.0594
 2994SOL    HW118198   3.636   8.627   0.066 -1.5954 -1.2225 -0.1245
 2994SOL    HW218199   3.732   8.543  -0.036  1.1160  0.8881  0.6117
 2995SOL     OW18200   4.194   4.780   3.542  0.0266  0.1461  0.3018
 2995SOL    HW118201   4.224   4.865   3.498 -0.6529 -0.0285 -0.5108
 2995SOL    HW218202   4.268   4.713   3.537  0.2631  0.4111  0.1870
 2997SOL     OW18203   4.538   9.476   0.882 -0.8289 -0.2515 -0.8301
 2997SOL    HW118204   4.634   9.456   0.861 -0.4133  0.3360  0.4881
 2997SOL    HW218205   4.480   9.405   0.842  0.3629 -2.1567  0.7309
 2998SOL     OW18206   4.213   7.771   1.508 -0.4579  0.0504 -0.0772
 2998SOL    HW118207   4.225   7.736   1.600 -2.4995 -1.8788 -0.4868
 2998SOL    HW218208   4.161   7.857   1.511 -2.1248 -0.9574  0.4711
 2999SOL     OW18209   7.983   2.342   3.017  0.0737  0.0796  0.0558
 2999SOL    HW118210   7.893   2.333   3.060 -0.1772  2.1351  0.0053
 2999SOL    HW218211   8.027   2.252   3.012 -2.0316 -0.9601 -0.0476
 3000SOL     OW18212   8.803   5.584   1.452  0.0304  0.0876 -0.0597
 3000SOL    HW118213   8.869   5.652   1.423  0.1440  0.5373  1.2122
 3000SOL    HW218214   8.800   5.509   1.386 -0.7980  1.7771 -1.9706
 3001SOL     OW18215   8.660   8.225   5.302  0.7440 -0.2828  0.4310
 3001SOL    HW118216   8.610   8.312   5.297  0.2968 -0.5228  0.8194
 3001SOL    HW218217   8.758   8.244   5.299  0.6549  0.2698  1.0085
 3002SOL     OW18218   1.002   9.898   4.784 -0.0832 -0.1676  0.2932
 3002SOL    HW118219   0.942   9.955   4.728 -1.5810 -1.6178  0.3907
 3002SOL    HW218220   0.948   9.852   4.854  1.6347  0.9621  2.4219
 3003SOL     OW18221   6.090   4.854   1.045 -0.4291  0.2848 -0.0479
 3003SOL    HW118222   6.093   4.775   0.983  1.2599  0.4922 -0.2402
 3003SOL    HW218223   6.181   4.871   1.082 -1.0394  1.3734  0.9798
 3004SOL     OW18224   3.213   3.164   0.694  0.3945 -1.0622 -0.5974
 3004SOL    HW118225   3.257   3.243   0.651 -2.6429  0.4168 -1.1707
 3004SOL    HW218226   3.256   3.080   0.661  1.8729  0.2461 -2.1418
 3005SOL     OW18227   6.476   9.979   2.865 -0.2455 -0.0106  0.2343
 3005SOL    HW118228   6.465   9.895   2.812  0.0275  0.6585 -0.9088
 3005SOL    HW218229   6.414   9.978   2.943 -0.3952 -1.1779  0.1074
 3006SOL     OW18230   9.064   9.009   1.075  0.2932 -0.2031  0.2880
 3006SOL    HW118231   9.023   9.074   1.139  0.7522  0.5582 -0.1908
 3006SOL    HW218232   9.115   8.940   1.126 -0.7810 -0.6035  0.8404
 3007SOL     OW18233   6.527   4.110   0.329  0.1317  0.0596 -0.3143
 3007SOL    HW118234   6.573   4.084   0.414  0.9814  0.2778 -0.7037
 3007SOL    HW218235   6.446   4.053   0.316  1.2611 -1.5274 -0.5088
 3008SOL     OW18236   4.731   1.425   3.867  0.3469 -0.7239 -0.5900
 3008SOL    HW118237   4.813   1.476   3.892 -0.1893 -0.5624  0.8490
 3008SOL    HW218238   4.721   1.426   3.767  2.4957 -1.3699 -0.8506
 3009SOL     OW18239   2.827   8.008   1.417 -0.1455  0.0916  0.2465
 3009SOL    HW118240   2.851   7.964   1.330 -0.3585 -1.6706  1.0507
 3009SOL    HW218241   2.891   7.978   1.488 -0.3686  1.0004  0.8349
 3011SOL     OW18242   3.109   2.666   4.237  0.7440 -1.2453 -0.3560
 3011SOL    HW118243   3.018   2.635   4.267  0.7920 -1.8187 -0.7900
 3011SOL    HW218244   3.150   2.723   4.308 -0.4812  0.0605 -0.6863
 3012SOL     OW18245   0.122   5.011   4.812  0.1777 -0.3664 -0.0482
 3012SOL    HW118246   0.060   5.019   4.734 -1.2448 -0.8200  1.0015
 3012SOL    HW218247   0.103   5.083   4.878  1.3822  0.0252 -0.1175
 3013SOL     OW18248   8.218   6.756   2.513  0.0125  0.1059  0.0159
 3013SOL    HW118249   8.219   6.836   2.572  1.9984 -0.7864  1.2179
 3013SOL    HW218250   8.143   6.696   2.539 -0.9976  1.1714 -0.3854
 3014SOL     OW18251   3.480   1.817   0.327 -0.8772 -0.0228 -0.1140
 3014SOL    HW118252   3.403   1.870   0.291 -2.0161 -0.2440  1.9381
 3014SOL    HW218253   3.542   1.795   0.252 -3.2577 -0.6476 -1.9815
 3015SOL     OW18254   0.012   9.452   4.943  0.5192 -0.0954  0.0533
 3015SOL    HW118255   0.028   9.353   4.943  1.1453  0.0061 -0.5532
 3015SOL    HW218256  -0.068   9.472   4.886  0.0859 -0.2992  0.5843
 3016SOL     OW18257   3.481   6.725   4.692 -0.4111  0.1533 -0.1923
 3016SOL    HW118258   3.472   6.813   4.644 -1.9990  0.0704 -0.0959
 3016SOL    HW218259   3.440   6.733   4.783 -0.1354 -0.5494 -0.0058
 3018SOL     OW18260   3.546   4.959   2.147 -0.0287  0.0310  0.0726
 3018SOL    HW118261   3.545   4.928   2.052 -2.3399  0.5415 -0.0915
 3018SOL    HW218262   3.492   5.042   2.156  0.2087  0.0197  1.8346
 3019SOL     OW18263   3.977   4.859   1.354  0.0742 -0.0840 -0.4106
 3019SOL    HW118264   4.049   4.924   1.329 -0.7437  1.2318  0.5549
 3019SOL    HW218265   3.888   4.895   1.324 -0.2260 -1.5323 -1.3095
 3020SOL     OW18266   4.251   7.021   3.010 -0.3948 -0.6201  0.2564
 3020SOL    HW118267   4.246   7.015   3.109  2.2116  0.2483  0.4943
 3020SOL    HW218268   4.182   7.086   2.977  1.5290  2.4265  1.9647
 3021SOL     OW18269   3.390   3.423   4.435 -0.0272  0.3822 -0.2658
 3021SOL    HW118270   3.385   3.382   4.343  0.9390  0.1891 -0.2395
 3021SOL    HW218271   3.397   3.523   4.426  0.6876  0.3216 -0.4259
 3022SOL     OW18272   7.832   9.805   0.973 -0.0910  0.9683  0.5618
 3022SOL    HW118273   7.821   9.713   0.935 -1.5589  1.1994  0.4023
 3022SOL    HW218274   7.899   9.802   1.047 -0.2553 -0.2519  0.6815
 3023SOL     OW18275   4.403   5.034   5.000  0.1703 -0.1954  0.0718
 3023SOL    HW118276   4.456   5.040   4.915 -1.1937  0.0416 -0.7738
 3023SOL    HW218277   4.308   5.055   4.981 -0.2789 -0.8584  1.5481
 3025SOL     OW18278   9.813   7.221   3.156  0.1761  0.3099 -0.3242
 3025SOL    HW118279   9.913   7.227   3.151  0.1307  0.1144 -1.6469
 3025SOL    HW218280   9.787   7.135   3.200  0.5700 -0.6484 -1.9496
 3026SOL     OW18281   4.020   7.498   4.739 -0.2503 -0.5348  0.1441
 3026SOL    HW118282   3.925   7.471   4.723 -0.4340  1.0132 -1.5273
 3026SOL    HW218283   4.081   7.432   4.695 -0.5738 -0.9509  0.3147
 3028SOL     OW18284   0.117   4.285   3.234 -0.1766 -0.2962  0.5373
 3028SOL    HW118285   0.165   4.241   3.310  0.7214 -0.3897 -0.0745
 3028SOL    HW218286   0.160   4.373   3.214 -1.2630  0.3645  1.0155
 3030SOL     OW18287   1.784   4.643   0.534  0.0153 -0.2023 -0.4210
 3030SOL    HW118288   1.796   4.710   0.460  2.1846 -0.9574 -0.7978
 3030SOL    HW218289   1.701   4.664   0.585 -1.2705  0.5982 -2.7883
 3031SOL     OW18290   6.268   2.825   4.200 -0.2736 -1.0685 -0.0497
 3031SOL    HW118291   6.297   2.859   4.111  0.0031  0.2486  0.5314
 3031SOL    HW218292   6.347   2.820   4.261 -1.1104  2.1464  1.4212
 3032SOL     OW18293   1.212   2.892   3.070  0.1286 -0.4766 -0.3014
 3032SOL    HW118294   1.247   2.835   3.144  1.3629 -1.8494 -1.9073
 3032SOL    HW218295   1.194   2.985   3.105  1.6808 -0.8152  1.4522
 3033SOL     OW18296   0.441   8.853   3.281  0.2742  0.3770  0.1414
 3033SOL    HW118297   0.409   8.937   3.238  1.2811  0.8982  0.4068
 3033SOL    HW218298   0.540   8.857   3.294  0.5107 -1.3453 -0.9595
 3034SOL     OW18299   2.421   1.544   4.137 -0.4375 -0.0943  0.2173
 3034SOL    HW118300   2.439   1.489   4.219 -0.6883  1.0656  1.0521
 3034SOL    HW218301   2.497   1.532   4.072 -0.1772 -0.9166  0.6591
 3035SOL     OW18302   9.452   3.471   3.647  0.0047 -0.3564 -0.0640
 3035SOL    HW118303   9.552   3.470   3.658 -0.1941  3.1729  3.1310
 3035SOL    HW218304   9.409   3.463   3.736 -2.6874 -2.2691 -1.4477
 3036SOL     OW18305   9.762   7.688   1.476  0.2582  0.0626  0.3490
 3036SOL    HW118306   9.731   7.738   1.556 -0.4754 -0.7849  0.6053
 3036SOL    HW218307   9.787   7.594   1.503 -1.3278 -0.6682 -0.6390
 3037SOL     OW18308   5.195   9.010   5.066 -0.2180  0.1755  0.1687
 3037SOL    HW118309   5.135   9.007   5.146 -0.3093  1.0639  0.1490
 3037SOL    HW218310   5.272   8.948   5.079 -1.1105 -0.9372  0.2148
 3038SOL     OW18311   2.076   5.749   0.725  0.6238 -0.0647 -0.2469
 3038SOL    HW118312   2.060   5.652   0.745 -0.5753  0.1392 -0.1617
 3038SOL    HW218313   2.171   5.772   0.746  0.3574 -0.7168  1.7756
 3039SOL     OW18314   3.535   4.267   0.247 -0.3600  0.0553 -0.2390
 3039SOL    HW118315   3.480   4.241   0.167 -0.3690 -1.5456  0.2723
 3039SOL    HW218316   3.612   4.323   0.218 -0.0495 -0.9792 -1.4466
 3040SOL     OW18317   6.172   5.303   0.833 -0.3363  0.2135  0.5128
 3040SOL    HW118318   6.146   5.247   0.755 -1.5542 -1.3454  1.9929
 3040SOL    HW218319   6.272   5.309   0.838 -0.1331 -2.4986  0.7304
 3041SOL     OW18320   8.046   0.537   2.898 -0.2864  0.1620  0.2339
 3041SOL    HW118321   7.973   0.511   2.835 -0.7553  1.1049  0.3803
 3041SOL    HW218322   8.034   0.489   2.984 -1.5176  1.3287  0.7269
 3042SOL     OW18323   3.987   8.364   0.346  0.0527 -0.0787 -0.3030
 3042SOL    HW118324   3.989   8.444   0.286  1.8573  0.4342  0.4053
 3042SOL    HW218325   4.020   8.284   0.296  1.0861  0.2462 -0.1583
 3043SOL     OW18326   8.232   0.732   4.428  0.0597  0.1081 -0.5817
 3043SOL    HW118327   8.286   0.729   4.344 -0.8060 -0.8470 -1.1126
 3043SOL    HW218328   8.275   0.794   4.493  1.5238 -0.2616 -1.1869
 3044SOL     OW18329   3.175   4.287   3.047 -0.0925 -0.5941  0.3858
 3044SOL    HW118330   3.142   4.318   2.958 -0.0792  1.0377  0.9209
 3044SOL    HW218331   3.190   4.367   3.106  0.0520 -1.6410  1.7912
 3046SOL     OW18332   4.251   5.045   4.236  0.3993  0.2786  0.0428
 3046SOL    HW118333   4.204   4.958   4.217  0.4472  0.1785  0.3821
 3046SOL    HW218334   4.260   5.097   4.151  1.8381 -0.7663 -0.4680
 3047SOL     OW18335   9.569   6.426   0.628 -0.0899  0.1831  0.6915
 3047SOL    HW118336   9.658   6.392   0.597 -0.0244 -0.1168  1.1940
 3047SOL    HW218337   9.582   6.493   0.701 -0.2896 -0.2168  1.0976
 3048SOL     OW18338   8.851   5.310   2.060 -0.3478  0.3236  0.9201
 3048SOL    HW118339   8.902   5.249   2.121  0.3763  0.5271  0.5287
 3048SOL    HW218340   8.915   5.356   1.998 -1.2389 -1.2784 -1.2471
 3049SOL     OW18341   9.281   8.085   1.103 -0.1809  0.3186  0.0685
 3049SOL    HW118342   9.184   8.062   1.114  0.1761 -1.0493  0.4058
 3049SOL    HW218343   9.305   8.160   1.166 -0.7898  0.0206  0.6619
 3050SOL     OW18344   2.838   4.002   0.464  0.0682  0.1371  0.3661
 3050SOL    HW118345   2.868   3.910   0.442 -0.4567 -0.1131  0.6968
 3050SOL    HW218346   2.750   3.999   0.512 -0.8910  0.8846 -1.2823
 3051SOL     OW18347   0.595   5.336   0.690 -0.0755 -0.1719 -0.3157
 3051SOL    HW118348   0.590   5.272   0.767 -0.6024  1.1691  0.8021
 3051SOL    HW218349   0.676   5.317   0.636  0.1722 -1.3091  0.4289
 3052SOL     OW18350   1.116   0.765   4.633  0.3090 -0.0713  0.0243
 3052SOL    HW118351   1.082   0.835   4.695  0.7640 -1.3634  1.7979
 3052SOL    HW218352   1.050   0.691   4.626  0.0140  0.3225 -1.5009
 3053SOL     OW18353   9.201   1.510   4.373 -0.4374  0.2581 -0.0702
 3053SOL    HW118354   9.165   1.423   4.406 -0.8034  0.0922 -0.9042
 3053SOL    HW218355   9.281   1.493   4.315 -0.6512  0.4670 -0.4232
 3054SOL     OW18356   9.266   7.789   1.816  0.2139  0.3065 -0.6823
 3054SOL    HW118357   9.322   7.855   1.867  0.4600 -0.5343  0.1496
 3054SOL    HW218358   9.200   7.747   1.878  1.1101 -1.3775 -0.8527
 3055SOL     OW18359   0.144   6.434   3.689  0.0698 -0.0606  0.0451
 3055SOL    HW118360   0.214   6.475   3.747  0.6209 -0.5154 -0.3013
 3055SOL    HW218361   0.102   6.505   3.632 -1.3574  0.6078  1.9064
 3056SOL     OW18362   1.005   4.841   4.965  0.6834 -0.4895  0.5334
 3056SOL    HW118363   0.959   4.930   4.974  1.6594  0.0682  0.0772
 3056SOL    HW218364   1.045   4.815   5.052  1.4566  0.1024  0.3530
 3057SOL     OW18365   3.638   5.177   4.349 -0.4233 -0.0316 -0.6019
 3057SOL    HW118366   3.570   5.152   4.279 -1.4184  2.1610 -0.4400
 3057SOL    HW218367   3.592   5.192   4.436  0.5926 -0.8518  0.0925
 3058SOL     OW18368   0.614   5.240   1.251 -0.1658  0.8074  0.7722
 3058SOL    HW118369   0.563   5.326   1.243  0.3512  1.0467 -0.0166
 3058SOL    HW218370   0.711   5.261   1.262 -0.3425  0.3898  3.4712
 3059SOL     OW18371   1.708   7.391   4.528 -0.4401 -0.0911  0.0457
 3059SOL    HW118372   1.669   7.435   4.447  0.0969 -1.4586 -0.9770
 3059SOL    HW218373   1.793   7.437   4.553 -0.9440  0.7472  0.2256
 3060SOL     OW18374   8.979   6.956   4.019  0.0141 -0.5250 -0.0605
 3060SOL    HW118375   8.979   7.056   4.028 -0.7343 -0.6239  1.0270
 3060SOL    HW218376   8.911   6.917   4.081 -1.0399 -1.5960 -1.8672
 3061SOL     OW18377   6.246   4.977   0.172  0.2447 -0.5187  0.1253
 3061SOL    HW118378   6.303   4.908   0.217 -0.3952  1.3379  4.0452
 3061SOL    HW218379   6.292   5.066   0.174 -0.3228 -0.1525 -1.9277
 3062SOL     OW18380   4.476   5.171   5.238 -0.3153  0.2053 -0.3127
 3062SOL    HW118381   4.416   5.138   5.310 -1.5018  1.5200 -0.6842
 3062SOL    HW218382   4.459   5.118   5.154  0.3962 -0.6846  0.0916
 3063SOL     OW18383   2.186   6.087   1.817  0.4816 -0.3177  0.6719
 3063SOL    HW118384   2.120   6.156   1.789  0.9492 -0.6794 -1.4176
 3063SOL    HW218385   2.138   6.003   1.841 -0.0005  0.3299  2.0026
 3064SOL     OW18386   4.584   2.137   0.614  0.3186 -0.4784  0.1544
 3064SOL    HW118387   4.621   2.203   0.679 -2.3622 -0.4206  1.6852
 3064SOL    HW218388   4.588   2.045   0.654 -2.7642 -0.2457  1.0827
 3065SOL     OW18389   9.026   0.379   4.473  0.5220  0.1307  0.1287
 3065SOL    HW118390   8.983   0.305   4.422 -0.0499  0.5838 -0.0405
 3065SOL    HW218391   8.975   0.397   4.557  1.4469 -0.5938  0.8601
 3066SOL     OW18392   6.930   7.289   3.608 -0.1858 -0.5571 -0.3207
 3066SOL    HW118393   6.875   7.281   3.691 -0.0093  0.1587 -0.1279
 3066SOL    HW218394   7.010   7.230   3.615  1.2199  1.4616  1.1672
 3067SOL     OW18395   9.609   7.390   3.052  0.0901 -0.1471 -0.1207
 3067SOL    HW118396   9.689   7.347   3.095 -0.0171  0.6608  0.9222
 3067SOL    HW218397   9.542   7.320   3.029  0.9100 -0.7854 -0.5943
 3068SOL     OW18398   8.785   2.640   3.132  0.2801 -0.1132  0.2031
 3068SOL    HW118399   8.789   2.556   3.187  0.0146 -2.0651 -2.6241
 3068SOL    HW218400   8.690   2.670   3.124  0.3015  0.0785  0.6575
 3069SOL     OW18401   0.430   8.807   3.563  0.5321  0.0702 -0.3976
 3069SOL    HW118402   0.456   8.712   3.546 -1.1040 -0.4491 -0.1253
 3069SOL    HW218403   0.405   8.850   3.476 -1.6528 -0.6815 -0.1830
 3070SOL     OW18404   0.009   4.338   1.212  0.4516  0.1424 -0.1862
 3070SOL    HW118405  -0.004   4.255   1.266  1.1773  0.2385  0.1437
 3070SOL    HW218406  -0.015   4.320   1.117  0.8893 -0.5353 -0.1759
 3071SOL     OW18407   4.818   4.800   0.965  0.0923  0.5911  0.4361
 3071SOL    HW118408   4.719   4.791   0.958  0.3712 -2.2939 -0.4900
 3071SOL    HW218409   4.861   4.767   0.880  1.8549  1.7349  0.8476
 3072SOL     OW18410   6.402   8.305   2.534 -0.0656 -0.3963 -0.1888
 3072SOL    HW118411   6.474   8.243   2.566 -0.0219  0.7482  2.0072
 3072SOL    HW218412   6.343   8.256   2.469  0.1065 -2.6965  1.3243
 3074SOL     OW18413   2.312   7.784   3.132 -0.3962 -0.6510  0.3580
 3074SOL    HW118414   2.298   7.862   3.192 -1.3842 -1.4821  1.2355
 3074SOL    HW218415   2.351   7.708   3.184 -0.6701 -1.1708 -0.1829
 3075SOL     OW18416   1.032   0.048   4.227  0.7834 -0.3651 -0.5956
 3075SOL    HW118417   1.031   0.036   4.127  0.9724 -0.7124 -0.5562
 3075SOL    HW218418   1.126   0.050   4.260  0.7623  1.3706 -0.6073
 3076SOL     OW18419   6.517   1.460   4.122 -0.2015  0.5260 -0.2064
 3076SOL    HW118420   6.426   1.418   4.124 -0.0898  0.1199 -2.3132
 3076SOL    HW218421   6.582   1.395   4.082  1.1500  0.5957  1.8208
 3078SOL     OW18422   5.569   0.573   3.381  0.3057  0.0063 -0.2322
 3078SOL    HW118423   5.494   0.639   3.380  0.6726  0.4926  1.6385
 3078SOL    HW218424   5.542   0.494   3.437  0.8929 -0.1676 -0.1923
 3080SOL     OW18425   9.336   2.617   0.146 -0.2585  0.5572  0.3974
 3080SOL    HW118426   9.258   2.642   0.087  0.1989 -0.4761 -0.6736
 3080SOL    HW218427   9.305   2.610   0.241 -1.1312  1.6891  0.2184
 3081SOL     OW18428   4.209   1.487   3.465  0.2764  0.1509 -0.3876
 3081SOL    HW118429   4.139   1.470   3.396  1.2036 -0.5824 -1.1654
 3081SOL    HW218430   4.190   1.433   3.546 -0.8372  1.0414 -0.0381
 3085SOL     OW18431   9.585   2.625   2.492 -0.0912 -0.2128  0.4267
 3085SOL    HW118432   9.531   2.686   2.433  0.9517  0.3430  0.0243
 3085SOL    HW218433   9.535   2.608   2.577 -0.7882  0.4857  0.1691
 3087SOL     OW18434   2.580   1.672   0.862  0.0160 -0.3051 -0.3680
 3087SOL    HW118435   2.666   1.683   0.913  0.2226  1.2372 -1.0219
 3087SOL    HW218436   2.558   1.757   0.815 -1.4310 -0.9660 -0.9199
 3088SOL     OW18437   0.567   5.887   2.116 -0.4115  0.9280  0.2119
 3088SOL    HW118438   0.547   5.789   2.125 -2.2989  1.3373  0.8397
 3088SOL    HW218439   0.529   5.920   2.030 -0.0295  1.1684  0.1363
 3091SOL     OW18440   9.683   2.342   1.656  0.2133  0.7616 -0.1449
 3091SOL    HW118441   9.732   2.367   1.573 -0.3322 -1.2038 -1.0951
 3091SOL    HW218442   9.736   2.273   1.706 -1.6270 -1.6064 -1.3355
 3092SOL     OW18443   1.923   6.539   0.581  0.1459  0.0573 -0.0596
 3092SOL    HW118444   1.990   6.472   0.549  1.2494  0.8399  0.5618
 3092SOL    HW218445   1.960   6.631   0.569 -1.0000  0.5157 -0.1116
 3095SOL     OW18446   4.507   0.505   3.985 -0.1721  0.2821  0.3067
 3095SOL    HW118447   4.552   0.492   3.897 -0.0251  1.7922  0.1574
 3095SOL    HW218448   4.508   0.418   4.035  1.2130 -0.1721 -0.4785
 3096SOL     OW18449   2.132   2.442   0.306  0.4483 -0.1610 -0.5538
 3096SOL    HW118450   2.184   2.393   0.377  1.4681  2.0868  0.2876
 3096SOL    HW218451   2.034   2.431   0.324  0.6741 -1.1044  0.1535
 3097SOL     OW18452   1.735   5.148   2.007  0.8263 -0.3365  0.0926
 3097SOL    HW118453   1.729   5.135   2.106  1.1463  0.4550  0.2244
 3097SOL    HW218454   1.751   5.060   1.962 -0.7045 -0.8979  0.6314
 3098SOL     OW18455   9.236   9.438   4.419 -1.3526 -0.1148  0.1783
 3098SOL    HW118456   9.177   9.369   4.461 -1.3567 -0.0295  0.3080
 3098SOL    HW218457   9.188   9.481   4.343 -0.8353 -1.2737 -0.8347
 3099SOL     OW18458   7.330   2.699   3.737  0.4071  0.0768 -0.1410
 3099SOL    HW118459   7.350   2.607   3.771 -1.4758 -1.0406 -1.9390
 3099SOL    HW218460   7.246   2.697   3.684  0.7326  2.7207 -0.8104
 3101SOL     OW18461   4.336   6.260   1.502  0.0687  0.4033  0.4136
 3101SOL    HW118462   4.236   6.266   1.492  0.0202 -2.0863 -0.9824
 3101SOL    HW218463   4.358   6.212   1.587  0.0711  0.4382  0.4330
 3102SOL     OW18464   9.488   6.194   0.165  0.4443  0.1690  0.1408
 3102SOL    HW118465   9.471   6.257   0.241  0.5155 -0.5301  0.7483
 3102SOL    HW218466   9.402   6.152   0.137  0.5814 -0.4751  0.6494
 3103SOL     OW18467   3.139   4.121   4.771  0.1533 -0.3905 -0.2423
 3103SOL    HW118468   3.200   4.068   4.711  1.3994  0.1577  0.5139
 3103SOL    HW218469   3.149   4.219   4.750 -1.9343 -0.3916 -1.4466
 3104SOL     OW18470   8.475   9.268   2.486 -0.1021  0.4400  0.1712
 3104SOL    HW118471   8.509   9.320   2.408  1.8604  0.2796  0.9036
 3104SOL    HW218472   8.454   9.175   2.457  0.8644  0.3077 -0.1180
 3105SOL     OW18473   4.453   9.123   5.034 -0.4568  0.3358  0.2756
 3105SOL    HW118474   4.449   9.214   4.992  2.0267  0.4939  0.3160
 3105SOL    HW218475   4.473   9.055   4.963  2.6229  0.4652  0.9538
 3106SOL     OW18476   8.731   8.374   4.330  0.1966 -0.0790 -0.2754
 3106SOL    HW118477   8.791   8.318   4.386  0.7232  0.5938 -0.1596
 3106SOL    HW218478   8.639   8.333   4.328  0.3671 -0.4978  0.4617
 3107SOL     OW18479   2.599   0.165   0.057 -0.0434  0.1533 -0.3209
 3107SOL    HW118480   2.679   0.222   0.039 -0.5358  0.4427 -1.6546
 3107SOL    HW218481   2.526   0.221   0.097 -0.6554  0.5494 -1.9705
 3108SOL     OW18482   1.123   8.115   4.173  0.1927  0.3661  0.3711
 3108SOL    HW118483   1.186   8.183   4.212  0.9749  0.1124 -0.4436
 3108SOL    HW218484   1.137   8.108   4.075 -0.2861 -0.5663  0.3585
 3109SOL     OW18485   4.038   0.548   2.641 -0.1099 -0.1111 -0.7772
 3109SOL    HW118486   3.963   0.534   2.576 -1.3051 -0.6378  0.6957
 3109SOL    HW218487   4.023   0.491   2.722  0.3506  2.0010  0.8334
 3110SOL     OW18488   7.370   3.783   0.208  0.0539 -0.2833  0.0663
 3110SOL    HW118489   7.404   3.836   0.131 -2.2363  2.7604  1.0704
 3110SOL    HW218490   7.279   3.748   0.187 -0.1101 -0.4035  0.9610
 3112SOL     OW18491   9.683   7.860   1.652 -0.5165  0.1510  0.0820
 3112SOL    HW118492   9.729   7.945   1.678 -0.1108  0.4583 -1.5995
 3112SOL    HW218493   9.588   7.879   1.627 -0.3939  0.1221 -0.4013
 3113SOL     OW18494   3.352   8.279   1.698  0.0826  0.3071  0.0443
 3113SOL    HW118495   3.257   8.251   1.690  0.3406 -0.6078  0.1867
 3113SOL    HW218496   3.361   8.346   1.772 -0.0861 -1.2918  1.5281
 3114SOL     OW18497   2.893   8.929   2.612 -0.3403 -0.7559 -0.8103
 3114SOL    HW118498   2.795   8.928   2.629 -0.1783  2.6605  0.6773
 3114SOL    HW218499   2.940   8.872   2.680 -0.9840  0.8405  1.0134
 3116SOL     OW18500   0.417   2.163   3.409 -0.0154  0.7524  0.4876
 3116SOL    HW118501   0.465   2.077   3.430 -1.3091  0.4088  2.1203
 3116SOL    HW218502   0.326   2.142   3.371  0.1735  1.4111 -0.3510
 3117SOL     OW18503   3.051   4.262   2.342 -0.0779 -0.6147 -0.2612
 3117SOL    HW118504   3.150   4.254   2.333 -0.1008 -0.6805 -0.4608
 3117SOL    HW218505   3.007   4.194   2.284 -0.2565  0.0609 -0.9259
 3118SOL     OW18506   7.643   7.459   4.612  0.0358  0.0112  0.2619
 3118SOL    HW118507   7.664   7.514   4.532 -0.7986 -0.3905 -0.2341
 3118SOL    HW218508   7.685   7.369   4.603 -1.6443 -0.6995 -0.6073
 3119SOL     OW18509   9.979   8.151   3.927 -0.5272  0.0117  0.0711
 3119SOL    HW118510   9.942   8.180   3.839  2.5023  1.2426 -0.8943
 3119SOL    HW218511  10.041   8.221   3.961  0.3591 -1.6164  1.9134
 3120SOL     OW18512   3.052   4.669   4.533  0.4146 -0.0900 -0.4618
 3120SOL    HW118513   3.079   4.618   4.615  3.1774  2.5011  0.3582
 3120SOL    HW218514   2.971   4.724   4.553 -0.3378 -1.2649 -0.2226
 3121SOL     OW18515   3.945   1.864   4.548 -0.4055 -1.5312  0.4874
 3121SOL    HW118516   4.024   1.806   4.529 -0.8323 -2.3722  1.2446
 3121SOL    HW218517   3.870   1.838   4.488 -0.4124 -1.3748  0.4282
 3122SOL     OW18518   9.019   8.253   2.666 -0.3117  0.1404  0.3434
 3122SOL    HW118519   9.117   8.263   2.646 -0.3875  1.6257  0.6409
 3122SOL    HW218520   9.006   8.181   2.734  0.4683 -0.8353 -0.5275
 3123SOL     OW18521   8.397   7.167   4.955  0.4708  0.3784 -0.6410
 3123SOL    HW118522   8.326   7.133   5.017  2.2182 -1.7425  0.2644
 3123SOL    HW218523   8.363   7.165   4.861 -0.9942  0.3152 -0.1291
 3124SOL     OW18524   1.411   9.407   4.534 -0.3695 -0.1548  0.7646
 3124SOL    HW118525   1.366   9.480   4.484  1.4951  0.4432 -0.0906
 3124SOL    HW218526   1.481   9.445   4.594  0.2248 -1.1831  0.7437
 3125SOL     OW18527   4.942   4.021   2.513 -0.6216 -0.6960  0.6178
 3125SOL    HW118528   5.021   4.072   2.479 -0.0437 -1.5600  0.6490
 3125SOL    HW218529   4.880   3.999   2.438 -0.7478 -0.1731  0.5670
 3126SOL     OW18530   8.117   7.042   3.576  0.0695 -0.4582  0.6620
 3126SOL    HW118531   8.166   7.094   3.506 -0.4904  0.0434  0.6493
 3126SOL    HW218532   8.148   7.071   3.667 -1.0331  0.6753  0.6847
 3127SOL     OW18533   1.634   6.503   5.185 -1.1639  0.2869 -0.4691
 3127SOL    HW118534   1.555   6.473   5.132 -0.7360 -0.2020 -0.8352
 3127SOL    HW218535   1.670   6.587   5.145  1.6296 -2.2185 -3.4915
 3128SOL     OW18536   2.331   1.566   0.914  0.6421  1.1026 -0.2208
 3128SOL    HW118537   2.300   1.541   0.822  0.4777  1.3672 -0.2390
 3128SOL    HW218538   2.423   1.602   0.909  2.0331 -2.2033  0.1765
 3129SOL     OW18539   9.455   3.176   0.176 -0.7524  0.8431  0.1405
 3129SOL    HW118540   9.510   3.127   0.109 -2.1765 -0.2937 -0.2138
 3129SOL    HW218541   9.490   3.269   0.186  0.6196  0.4430 -0.7918
 3130SOL     OW18542   2.277   9.593   0.473  0.4075  0.4286  0.3313
 3130SOL    HW118543   2.211   9.518   0.477 -0.5623  1.2637  0.3368
 3130SOL    HW218544   2.306   9.607   0.378  0.8070 -0.1426  0.3722
 3131SOL     OW18545   3.566   7.216   0.085  1.1224 -0.1118  0.1747
 3131SOL    HW118546   3.480   7.261   0.108  0.1119 -1.2152 -1.3339
 3131SOL    HW218547   3.640   7.283   0.083 -0.0311  1.1476 -0.2879
 3132SOL     OW18548   4.314   7.087   3.287  0.4213  0.4656 -1.0846
 3132SOL    HW118549   4.404   7.045   3.298  0.0786  0.1958  0.8876
 3132SOL    HW218550   4.322   7.186   3.298  0.2510  0.2959  0.8137
 3133SOL     OW18551   0.064   4.756   0.573  0.3571 -0.4399  0.4481
 3133SOL    HW118552   0.161   4.744   0.598  0.4062  1.2035  1.0988
 3133SOL    HW218553   0.012   4.779   0.655 -0.3818 -0.0904 -0.1216
 3135SOL     OW18554   8.887   2.221   0.208  0.1978  0.1520  0.2717
 3135SOL    HW118555   8.876   2.143   0.147  0.0076 -0.5827  1.2171
 3135SOL    HW218556   8.972   2.209   0.260  0.6271  1.0339 -0.2300
 3136SOL     OW18557   7.192   3.406   0.042  0.3835  0.0571  0.2640
 3136SOL    HW118558   7.260   3.461  -0.007 -0.4028 -0.0129 -0.9277
 3136SOL    HW218559   7.188   3.315   0.000  0.9932 -0.6050  1.6192
 3137SOL     OW18560   1.587   3.586   5.034 -0.1838 -0.4451  0.3735
 3137SOL    HW118561   1.630   3.674   5.014 -0.3708 -0.4191  0.0907
 3137SOL    HW218562   1.520   3.597   5.107  1.2539 -0.7366  1.7727
 3138SOL     OW18563   2.730   5.636   1.343 -0.2948  0.1903 -0.2291
 3138SOL    HW118564   2.740   5.633   1.244 -1.0748 -0.7128 -0.2982
 3138SOL    HW218565   2.801   5.694   1.383 -1.7215  2.9322 -1.5441
 3140SOL     OW18566   2.093   9.984   2.640 -0.1333  0.3414 -0.0799
 3140SOL    HW118567   2.026   9.929   2.589 -0.3480  0.0189  0.5472
 3140SOL    HW218568   2.142   9.926   2.704 -0.8961  1.0041  1.1375
 3141SOL     OW18569   4.728   8.676   0.970 -0.0301 -0.7788  0.3503
 3141SOL    HW118570   4.688   8.616   1.040 -2.4807 -1.4717 -1.5813
 3141SOL    HW218571   4.691   8.651   0.880  2.6370  0.4704 -1.1300
 3142SOL     OW18572   2.455   9.288   3.245  0.4635  0.2149 -0.1427
 3142SOL    HW118573   2.472   9.340   3.161  1.8259  0.6179  0.3586
 3142SOL    HW218574   2.448   9.191   3.224 -3.1884  0.6364 -1.2493
 3144SOL     OW18575   2.735   3.479   2.803  0.1577  0.4404 -0.7153
 3144SOL    HW118576   2.724   3.537   2.884  1.6240  1.5692 -1.3089
 3144SOL    HW218577   2.815   3.509   2.751 -0.4380 -0.6324 -2.2864
 3145SOL     OW18578   2.582   1.609   1.285 -0.7054 -0.5130 -0.8355
 3145SOL    HW118579   2.671   1.562   1.283 -1.1606 -1.3614 -1.5742
 3145SOL    HW218580   2.597   1.708   1.284  0.2626 -0.6362  0.6581
 3148SOL     OW18581   4.404   8.410   1.592 -0.1619 -0.1203  0.2313
 3148SOL    HW118582   4.385   8.479   1.522  0.5695 -0.6822 -0.5232
 3148SOL    HW218583   4.399   8.319   1.552  1.2654 -0.4082  0.6750
 3149SOL     OW18584   0.778  -0.002   4.070  0.4241  0.1297  0.0123
 3149SOL    HW118585   0.857   0.022   4.126  0.2845 -0.8913  0.6733
 3149SOL    HW218586   0.718   0.077   4.061  2.2025  1.3297 -1.6842
 3150SOL     OW18587   3.152   8.411   1.219  0.0535 -0.2711  0.4472
 3150SOL    HW118588   3.101   8.491   1.251  0.3774 -0.2743  0.9882
 3150SOL    HW218589   3.167   8.349   1.296 -0.6087 -1.0808 -0.0604
 3151SOL     OW18590   3.176   3.713   3.292 -0.7790  0.0468  0.0046
 3151SOL    HW118591   3.168   3.666   3.380 -1.3197 -1.8102 -0.9923
 3151SOL    HW218592   3.192   3.645   3.220  0.0236  1.5730 -1.2768
 3152SOL     OW18593   7.576   8.107   4.155 -0.3981 -0.0654  0.1898
 3152SOL    HW118594   7.503   8.080   4.092 -0.9935  2.4832 -0.2311
 3152SOL    HW218595   7.536   8.151   4.236  0.6489  1.2542  0.0021
 3153SOL     OW18596   8.725   6.249   1.376 -0.3162 -0.0207  0.4053
 3153SOL    HW118597   8.645   6.297   1.411 -0.5290 -0.0027 -0.0913
 3153SOL    HW218598   8.703   6.153   1.361 -0.9049  0.4132 -1.7455
 3154SOL     OW18599   9.958   5.054   2.026 -0.1383  0.5738  0.1790
 3154SOL    HW118600   9.976   4.964   2.067 -2.6174  0.0121  0.1099
 3154SOL    HW218601   9.860   5.073   2.030  0.2364  2.8205 -0.7940
 3156SOL     OW18602   3.593   7.605   5.003  0.7244 -0.3011  0.1587
 3156SOL    HW118603   3.640   7.661   4.935  1.4355 -1.2050 -0.0985
 3156SOL    HW218604   3.659   7.549   5.053  0.1258 -0.1695  1.1017
 3157SOL     OW18605   4.652   0.857   2.937 -1.0689 -0.1358  0.1567
 3157SOL    HW118606   4.676   0.945   2.895 -0.1932 -0.4904 -0.0973
 3157SOL    HW218607   4.613   0.797   2.867  0.6117 -0.8109 -0.2111
 3158SOL     OW18608   4.797   1.169   1.688  0.0580  0.5327 -0.3404
 3158SOL    HW118609   4.727   1.228   1.727 -2.2958  0.9020 -4.7937
 3158SOL    HW218610   4.779   1.074   1.714 -0.7369  0.8991  0.4688
 3159SOL     OW18611   7.887   4.284   1.589 -0.2928 -0.1144 -0.1221
 3159SOL    HW118612   7.836   4.290   1.503  1.2666 -0.5651 -1.0925
 3159SOL    HW218613   7.952   4.209   1.584  1.4050  1.2745  0.6038
 3160SOL     OW18614   0.225   5.029   1.160 -0.0411 -0.0196 -0.2164
 3160SOL    HW118615   0.245   5.116   1.204 -2.0132  1.1028 -1.4365
 3160SOL    HW218616   0.248   4.953   1.221  0.9816  1.3894  1.1492
 3162SOL     OW18617   6.910   3.636   1.008  0.3913  0.7731  0.4801
 3162SOL    HW118618   6.957   3.720   1.037  1.0283  0.2617  0.9404
 3162SOL    HW218619   6.974   3.559   1.013  0.5023  0.6562 -2.2456
 3163SOL     OW18620   5.805   1.917   4.370 -0.0265 -0.0052  0.2317
 3163SOL    HW118621   5.856   1.831   4.370 -0.2643 -0.1431  0.4766
 3163SOL    HW218622   5.819   1.963   4.282  0.3683 -0.1353  0.2249
 3165SOL     OW18623   9.137   1.521   0.765 -0.3895  0.2081 -0.1879
 3165SOL    HW118624   9.142   1.572   0.679  2.0878 -1.6223 -1.1731
 3165SOL    HW218625   9.173   1.428   0.751 -2.0898 -0.8731  2.2767
 3167SOL     OW18626   2.630   8.073   4.483 -0.1338 -0.0199  0.4186
 3167SOL    HW118627   2.712   8.117   4.448 -0.2375 -0.0377  0.1548
 3167SOL    HW218628   2.635   7.975   4.466 -0.3697  0.0239  0.0836
 3168SOL     OW18629   4.985   2.967   3.747  0.1751  0.0758 -0.1229
 3168SOL    HW118630   5.021   3.002   3.833 -1.3481 -1.1969  1.0586
 3168SOL    HW218631   4.894   3.005   3.730  0.2267 -0.1152 -0.8787
 3169SOL     OW18632   7.994   2.816   4.464 -0.0509 -0.1811  0.1776
 3169SOL    HW118633   8.057   2.883   4.426 -0.2799  0.8295  1.5570
 3169SOL    HW218634   7.923   2.795   4.397  0.6804  0.0742 -0.6871
 3172SOL     OW18635   2.911   3.060   2.916 -0.4934 -0.4713  0.3011
 3172SOL    HW118636   2.963   3.083   2.833 -0.9711  0.2939  0.2061
 3172SOL    HW218637   2.876   3.144   2.957  0.3785 -0.7742  1.7107
 3173SOL     OW18638   2.578   8.076   1.521 -0.7905 -0.1626 -0.4577
 3173SOL    HW118639   2.585   8.137   1.600  0.1212 -2.8509  1.6220
 3173SOL    HW218640   2.669   8.041   1.497 -1.3486 -1.0665 -1.3219
 3176SOL     OW18641   1.081   5.072   2.005  0.6107 -0.3171  0.5204
 3176SOL    HW118642   1.018   5.012   2.055 -0.5916  1.2197  0.8762
 3176SOL    HW218643   1.155   5.101   2.066 -0.1204  0.4778  1.0386
 3177SOL     OW18644   1.043   5.746   4.983  0.3959 -0.8427  0.2660
 3177SOL    HW118645   0.949   5.754   5.016 -0.4818 -1.0775 -2.0818
 3177SOL    HW218646   1.088   5.835   4.989 -0.5162 -0.3427 -0.1925
 3178SOL     OW18647   0.399   7.612   5.258  0.3640 -0.3926 -0.0900
 3178SOL    HW118648   0.340   7.616   5.338  0.0611 -1.2890 -0.2562
 3178SOL    HW218649   0.463   7.536   5.267 -0.4702 -1.2629 -1.2200
 3179SOL     OW18650   1.891   1.298   1.422  0.2319 -0.0147  0.0132
 3179SOL    HW118651   1.845   1.296   1.334 -1.8298  0.7672  1.0282
 3179SOL    HW218652   1.838   1.245   1.488  0.4273  1.4256  1.3681
 3182SOL     OW18653   8.587   3.510   2.396 -0.7378  0.2897 -0.1350
 3182SOL    HW118654   8.557   3.445   2.466  1.5898 -0.2427  0.4222
 3182SOL    HW218655   8.621   3.593   2.439 -1.4355  0.9028 -0.7457
 3184SOL     OW18656   4.244   2.130   0.004 -0.4908  0.4438  0.3841
 3184SOL    HW118657   4.179   2.059  -0.022  0.0944  0.4209 -1.0451
 3184SOL    HW218658   4.206   2.183   0.081 -2.0940  0.2902 -0.2807
 3186SOL     OW18659   6.802   9.898   3.953  0.1525  0.1346  0.4330
 3186SOL    HW118660   6.843   9.807   3.943  0.4274  0.2242  0.7362
 3186SOL    HW218661   6.843   9.960   3.886  0.8778  0.3472  1.0595
 3188SOL     OW18662   9.652   6.025   3.955 -0.1233 -0.4038  0.2706
 3188SOL    HW118663   9.711   6.007   4.034 -0.5352  1.3201  0.9944
 3188SOL    HW218664   9.657   6.122   3.931 -2.3569 -0.3120  0.1025
 3189SOL     OW18665   0.857   9.150   4.083 -0.0013  0.5195 -0.6979
 3189SOL    HW118666   0.919   9.072   4.070  1.4210  1.6838 -1.0002
 3189SOL    HW218667   0.765   9.125   4.052  0.0844 -1.5431  0.6205
 3190SOL     OW18668   6.960   2.390   2.882 -0.1705 -0.1824  0.2249
 3190SOL    HW118669   6.891   2.318   2.871  1.0409 -1.2718 -0.3575
 3190SOL    HW218670   6.928   2.474   2.838 -1.0419 -0.7284 -0.2006
 3191SOL     OW18671   3.401   6.377   1.426  0.2521 -0.2911  0.1337
 3191SOL    HW118672   3.499   6.396   1.426  0.3650 -0.7259 -1.5737
 3191SOL    HW218673   3.350   6.463   1.425  0.6333 -0.0683  0.0492
 3192SOL     OW18674   2.806   2.860   0.059  0.0973 -0.1134 -0.5178
 3192SOL    HW118675   2.888   2.811   0.029 -0.2862 -2.2544  1.7735
 3192SOL    HW218676   2.727   2.827   0.007  0.0029 -1.2284  0.3179
 3193SOL     OW18677   2.941   7.520   3.378  0.8125 -0.4541  0.4321
 3193SOL    HW118678   3.002   7.441   3.374  0.4016 -0.7210 -0.7813
 3193SOL    HW218679   2.887   7.517   3.463  0.5228 -1.6850  0.2096
 3196SOL     OW18680   1.515   8.913   2.147  0.2406 -0.6638 -0.3421
 3196SOL    HW118681   1.507   8.872   2.238 -1.5290 -0.3200 -0.3242
 3196SOL    HW218682   1.456   8.994   2.142  1.2824  0.0368 -1.3995
 3198SOL     OW18683   1.573   1.847   0.376  0.5022  0.1178 -0.2786
 3198SOL    HW118684   1.606   1.930   0.332  0.0258  1.0706  1.1144
 3198SOL    HW218685   1.488   1.866   0.424  0.4478 -1.1462  0.1435
 3199SOL     OW18686   8.067   0.539   3.711  0.2659  0.0359 -0.2776
 3199SOL    HW118687   8.024   0.564   3.798  0.3193 -0.3893 -0.1284
 3199SOL    HW218688   8.008   0.568   3.635 -0.4031 -0.7535 -0.0676
 3200SOL     OW18689   2.405   3.434   3.613  0.4147 -0.0806 -0.2733
 3200SOL    HW118690   2.349   3.514   3.592 -0.9458 -0.6380  1.1520
 3200SOL    HW218691   2.449   3.447   3.702  0.7656 -0.6047 -0.3718
 3202SOL     OW18692   1.388   7.578   0.945  0.0949  0.1038 -0.7732
 3202SOL    HW118693   1.307   7.629   0.920  1.0205  1.2062 -1.5773
 3202SOL    HW218694   1.362   7.487   0.979 -1.3643 -0.2284 -2.7213
 3203SOL     OW18695   7.664   9.726   0.371 -0.0133 -0.0017 -0.4593
 3203SOL    HW118696   7.628   9.814   0.341 -0.8391 -0.3813 -0.5916
 3203SOL    HW218697   7.667   9.724   0.471  2.5432  1.1823 -0.4885
 3204SOL     OW18698   3.996   9.163   0.763  0.4949  0.5443  0.1061
 3204SOL    HW118699   4.015   9.246   0.815  0.3443  0.7059 -0.0945
 3204SOL    HW218700   3.928   9.183   0.693 -0.4043 -0.0252  0.8033
 3205SOL     OW18701   8.287   4.190   2.215  0.6004 -0.0188  0.0369
 3205SOL    HW118702   8.274   4.140   2.301  1.6350 -0.0516  0.1776
 3205SOL    HW218703   8.236   4.276   2.218  0.6949  0.0163  0.7174
 3206SOL     OW18704   3.573   0.228   0.642 -0.3118  0.7296 -0.3812
 3206SOL    HW118705   3.536   0.190   0.557 -0.8555  1.5862 -0.5285
 3206SOL    HW218706   3.586   0.327   0.632  0.0608  0.7624  0.3760
 3207SOL     OW18707   1.609   2.949   4.760  0.2484 -0.1006 -0.1346
 3207SOL    HW118708   1.590   2.869   4.703  0.0577  0.1170 -0.3747
 3207SOL    HW218709   1.705   2.975   4.749  0.7830 -1.3783  1.2998
 3208SOL     OW18710   2.174   0.257   1.513  0.6197  0.3955 -0.0859
 3208SOL    HW118711   2.197   0.175   1.564  1.2771  1.0552  0.6992
 3208SOL    HW218712   2.180   0.239   1.414  0.5019 -0.5565  0.0839
 3209SOL     OW18713   9.985   2.599   4.550  0.3141 -0.2213 -0.2595
 3209SOL    HW118714  10.071   2.595   4.601  0.0104  0.1992  0.2887
 3209SOL    HW218715   9.950   2.507   4.537  0.7169 -0.3757 -0.2510
 3210SOL     OW18716   8.852   9.573   2.972  0.2939  0.1128 -0.1263
 3210SOL    HW118717   8.879   9.490   2.924  0.3974  0.9318 -1.4938
 3210SOL    HW218718   8.931   9.613   3.018  0.5439  0.2339 -0.6590
 3211SOL     OW18719   1.223   0.497   4.487  0.5813  0.1670 -0.5372
 3211SOL    HW118720   1.262   0.532   4.573  0.7109 -0.9231 -0.1486
 3211SOL    HW218721   1.200   0.400   4.498  1.1237 -0.1196 -1.9224
 3212SOL     OW18722   0.313   8.146   1.412  0.0681 -0.5378  0.4886
 3212SOL    HW118723   0.390   8.184   1.463 -1.9509  2.3509  1.5093
 3212SOL    HW218724   0.334   8.148   1.314  2.0718 -1.6701  0.8724
 3213SOL     OW18725   3.546   1.877   1.264  0.1118  0.4690  0.7054
 3213SOL    HW118726   3.531   1.829   1.178 -0.1372 -0.6573  1.3689
 3213SOL    HW218727   3.617   1.946   1.252  0.0373  0.3586 -0.4121
 3214SOL     OW18728   2.150   0.269   3.301 -0.3603 -0.1071  0.7187
 3214SOL    HW118729   2.062   0.251   3.346 -0.3259  0.8945  1.2125
 3214SOL    HW218730   2.223   0.268   3.369 -0.5707  3.4854  1.0904
 3215SOL     OW18731   9.130   3.115   3.017  0.0421 -0.1567 -0.2323
 3215SOL    HW118732   9.081   3.088   3.101 -1.1505  0.6567 -0.6437
 3215SOL    HW218733   9.063   3.141   2.947  1.0365 -0.7006 -1.3946
 3216SOL     OW18734   1.606   7.964   0.209 -0.3929 -0.1284  0.1062
 3216SOL    HW118735   1.585   8.016   0.126 -0.0750  2.2320  1.4442
 3216SOL    HW218736   1.532   7.900   0.229 -0.6949 -0.3631 -1.7229
 3217SOL     OW18737   4.475   3.898   2.805 -0.3996 -0.4811 -0.3341
 3217SOL    HW118738   4.458   3.836   2.881  0.2741 -0.5441 -0.2378
 3217SOL    HW218739   4.502   3.987   2.840  1.9836 -1.1048 -0.5237
 3219SOL     OW18740   9.276   6.003   3.974  0.0376 -0.2001  0.6224
 3219SOL    HW118741   9.307   6.073   4.039  1.7352  0.4496 -0.8596
 3219SOL    HW218742   9.287   5.912   4.016 -0.5768  0.3071  1.9130
 3220SOL     OW18743   1.461   3.797   5.220 -0.3790 -0.2503 -0.1765
 3220SOL    HW118744   1.371   3.805   5.177 -1.0581 -1.1195  1.0266
 3220SOL    HW218745   1.480   3.879   5.274  0.8819  1.2470 -2.8340
 3221SOL     OW18746   9.427   2.452   4.471 -0.3307  0.0462 -0.0998
 3221SOL    HW118747   9.488   2.400   4.410 -2.0100  0.2226 -1.9766
 3221SOL    HW218748   9.478   2.528   4.512  0.9554 -0.3667 -0.9024
 3223SOL     OW18749   3.627   7.472   0.714 -0.4297  0.4341 -0.0165
 3223SOL    HW118750   3.605   7.541   0.645 -1.0851  0.8093  0.5643
 3223SOL    HW218751   3.606   7.381   0.678 -0.8471  0.6360 -0.2832
 3225SOL     OW18752   1.681   1.227   4.512  0.1326 -0.2599  0.2672
 3225SOL    HW118753   1.609   1.295   4.497  0.6261  0.0357 -0.7953
 3225SOL    HW218754   1.761   1.272   4.552  1.0938  0.1415 -2.0220
 3226SOL     OW18755   1.761   9.203   3.336 -0.4149 -0.1998 -0.1399
 3226SOL    HW118756   1.674   9.195   3.384 -0.9889 -0.5491 -1.2230
 3226SOL    HW218757   1.828   9.248   3.395 -1.7886  1.5590  0.1211
 3227SOL     OW18758   1.977   9.000   0.194 -0.1128 -0.5374  0.1781
 3227SOL    HW118759   1.920   8.985   0.114  0.1340 -1.7463  0.2238
 3227SOL    HW218760   1.919   9.016   0.274 -0.3671 -0.0574 -0.1051
 3228SOL     OW18761   7.456   0.183   3.038  0.1347  0.9867 -0.5051
 3228SOL    HW118762   7.483   0.102   2.984  0.1985  0.1433  0.7680
 3228SOL    HW218763   7.537   0.237   3.059  0.0477  1.5959 -1.6682
 3230SOL     OW18764   0.080   7.265   3.172 -0.4346  0.5470 -0.0551
 3230SOL    HW118765   0.116   7.176   3.202  2.0257  1.1100 -1.2142
 3230SOL    HW218766   0.122   7.337   3.226  2.2052  1.3974 -3.0757
 3231SOL     OW18767   6.152   0.056   2.730 -0.2242  0.4766  0.2693
 3231SOL    HW118768   6.158   0.081   2.827 -1.1629 -0.0205  0.4658
 3231SOL    HW218769   6.056   0.060   2.701  0.1729  1.6632 -0.9203
 3233SOL     OW18770   8.854   8.871   4.730  0.1144 -0.2102  0.6444
 3233SOL    HW118771   8.897   8.786   4.759 -1.3100 -1.0872  0.2688
 3233SOL    HW218772   8.880   8.944   4.792  1.4630 -0.8839  0.8963
 3234SOL     OW18773   8.995   7.411   1.278 -0.7264  0.0288  0.0271
 3234SOL    HW118774   9.085   7.416   1.235 -0.7991  2.5478  0.1043
 3234SOL    HW218775   9.005   7.387   1.374 -0.1723 -0.2507 -0.0992
 3235SOL     OW18776   9.188   8.360   4.397  0.1620 -0.3428 -0.0657
 3235SOL    HW118777   9.164   8.406   4.482 -1.3407 -1.1087 -0.0602
 3235SOL    HW218778   9.142   8.405   4.320  1.3237  0.2046 -0.4462
 3236SOL     OW18779   1.840   3.454   5.016 -0.0387  0.3395 -0.0937
 3236SOL    HW118780   1.920   3.509   4.993 -1.1205  2.4457  1.0829
 3236SOL    HW218781   1.756   3.507   5.000 -1.0962 -0.8579  1.2937
 3237SOL     OW18782   0.702   6.978   0.008  0.0860  0.0636  0.4732
 3237SOL    HW118783   0.710   7.032   0.092 -1.9096  1.1917 -0.0255
 3237SOL    HW218784   0.766   6.901   0.012  1.0255  0.9000  2.3976
 3239SOL     OW18785   2.542   4.981   4.749  0.2442 -0.0765  0.0592
 3239SOL    HW118786   2.519   5.055   4.811  1.6397 -0.3495  0.9317
 3239SOL    HW218787   2.581   4.905   4.801  0.6094 -0.6556 -1.0435
 3240SOL     OW18788   0.695   7.722   3.009  0.2490  0.2567 -0.1755
 3240SOL    HW118789   0.605   7.723   3.052  0.6539  2.6101  0.6782
 3240SOL    HW218790   0.712   7.810   2.966  1.4667 -0.7537 -1.7961
 3241SOL     OW18791   1.760   1.698   2.173  0.2226  0.3835 -0.4518
 3241SOL    HW118792   1.808   1.665   2.254 -1.8168  1.2491  1.1542
 3241SOL    HW218793   1.697   1.627   2.142  0.2700  0.4354 -0.6636
 3242SOL     OW18794   2.931   9.876   1.973  0.0521  0.2554  0.0331
 3242SOL    HW118795   3.028   9.869   1.951  0.1285  1.3712  0.0219
 3242SOL    HW218796   2.919   9.876   2.072 -0.1038 -2.0681  0.0451
 3243SOL     OW18797   1.515   8.955   0.381 -0.2768 -0.3958  0.0062
 3243SOL    HW118798   1.533   8.922   0.289 -0.1716 -1.8314  0.5375
 3243SOL    HW218799   1.429   8.918   0.415 -0.3968  0.2502  0.4226
 3245SOL     OW18800   9.878   0.765   1.275  0.4501  0.4954 -0.2772
 3245SOL    HW118801   9.798   0.719   1.239  2.2320 -2.1507 -1.0351
 3245SOL    HW218802   9.946   0.777   1.202  0.5362  3.2579  0.1996
 3246SOL     OW18803   2.454   0.674   1.928  0.4929 -0.2419  0.4716
 3246SOL    HW118804   2.516   0.653   1.853  0.5511  1.0679  0.1436
 3246SOL    HW218805   2.441   0.773   1.934 -1.0735 -0.4733  0.9397
 3249SOL     OW18806   3.864   9.100   4.133 -0.0198  0.3122 -0.4249
 3249SOL    HW118807   3.913   9.091   4.046  0.9593 -0.6484  0.2174
 3249SOL    HW218808   3.767   9.083   4.118  0.0667  0.6406 -1.4208
 3250SOL     OW18809   0.164   5.178   2.374 -0.6409 -0.4859  0.8357
 3250SOL    HW118810   0.078   5.228   2.373 -0.9491 -0.9767  1.9598
 3250SOL    HW218811   0.170   5.123   2.458  1.1202  0.1626  1.1618
 3251SOL     OW18812   3.677   5.491   0.177 -0.2389 -0.2634 -0.3005
 3251SOL    HW118813   3.649   5.414   0.234  1.0154 -0.3711  0.2004
 3251SOL    HW218814   3.680   5.575   0.232 -1.6204  0.1630 -0.8478
 3253SOL     OW18815   1.134   9.454   4.154 -0.0492  0.1704 -0.8128
 3253SOL    HW118816   1.086   9.422   4.073  1.2382  1.7344 -2.2309
 3253SOL    HW218817   1.156   9.551   4.145 -0.0771  0.4413  1.5203
 3254SOL     OW18818   2.328   6.873   0.955  0.3597 -0.4216  0.1987
 3254SOL    HW118819   2.425   6.858   0.934  0.7948  2.2745  0.1459
 3254SOL    HW218820   2.313   6.865   1.054  0.7917 -0.0128  0.2968
 3257SOL     OW18821   4.745   8.201   1.294  0.3004 -0.5095  0.0188
 3257SOL    HW118822   4.830   8.213   1.244  0.5130 -1.1278  0.2207
 3257SOL    HW218823   4.735   8.273   1.362 -0.0202  0.3727 -0.9518
 3258SOL     OW18824   0.163   0.504   2.698 -0.3121 -0.3306 -0.0076
 3258SOL    HW118825   0.186   0.588   2.648  0.2073 -0.7722 -0.5036
 3258SOL    HW218826   0.094   0.453   2.647 -1.1165  0.1212  0.6205
 3259SOL     OW18827   2.743   9.568   2.221  0.0395  0.1021 -0.0750
 3259SOL    HW118828   2.725   9.514   2.303  1.5772  0.4404  0.5000
 3259SOL    HW218829   2.683   9.648   2.219  0.6805  0.6215  1.2186
 3260SOL     OW18830   1.156   3.758   1.547  0.4797 -0.1933 -0.2167
 3260SOL    HW118831   1.092   3.739   1.473  1.0086  0.1761 -0.7752
 3260SOL    HW218832   1.192   3.673   1.582 -1.2667 -0.4791  0.9562
 3262SOL     OW18833   6.246   1.118   2.802  0.6671 -0.0062 -0.5615
 3262SOL    HW118834   6.329   1.162   2.837  1.1459  0.3113 -2.0357
 3262SOL    HW218835   6.246   1.124   2.702 -1.6339  0.8885 -0.5396
 3263SOL     OW18836   0.130   9.872   1.728  0.4419  0.2579 -0.2246
 3263SOL    HW118837   0.086   9.914   1.648 -2.1047 -1.3601  0.2733
 3263SOL    HW218838   0.060   9.845   1.794  2.2170 -2.0596  0.7643
 3264SOL     OW18839   2.627   1.988   2.588 -0.2553 -0.4973 -0.1191
 3264SOL    HW118840   2.669   2.011   2.676 -0.6160 -1.5646  0.3446
 3264SOL    HW218841   2.648   2.059   2.521  0.8833 -0.1842  0.5607
 3266SOL     OW18842   9.938   1.552   2.261 -0.2009 -0.9874  0.0433
 3266SOL    HW118843  10.006   1.496   2.215 -0.4785 -0.6644 -0.7644
 3266SOL    HW218844   9.984   1.619   2.320  0.2348  0.0880 -1.4815
 3267SOL     OW18845   1.522   9.243   1.994 -0.0136  0.0123 -0.2357
 3267SOL    HW118846   1.443   9.182   2.008 -0.5438  0.5200 -0.9517
 3267SOL    HW218847   1.586   9.233   2.070 -0.7677 -0.4170  0.3529
 3268SOL     OW18848   9.779   2.511   3.167  0.7554 -0.0802  1.0142
 3268SOL    HW118849   9.695   2.463   3.192 -0.2455  1.2535  0.2607
 3268SOL    HW218850   9.803   2.489   3.072  1.2807 -0.4696  1.2308
 3270SOL     OW18851   3.521   9.071   4.790 -0.3230  0.0315 -0.0631
 3270SOL    HW118852   3.578   9.113   4.721  0.3832 -1.8622 -0.6515
 3270SOL    HW218853   3.430   9.053   4.752 -0.1224 -0.4500 -0.3222
 3271SOL     OW18854   7.269   8.669   3.167  0.0952  0.4508 -0.1016
 3271SOL    HW118855   7.209   8.718   3.231 -0.9819 -1.3634  0.3194
 3271SOL    HW218856   7.361   8.661   3.206 -0.6951 -1.1255  1.4979
 3272SOL     OW18857   4.187   6.322   2.980 -0.7225  0.4642  0.0968
 3272SOL    HW118858   4.202   6.414   2.945 -1.8901  1.2055  1.5407
 3272SOL    HW218859   4.248   6.259   2.932 -0.9344  1.7376 -1.9490
 3274SOL     OW18860   7.392   1.690   2.327  0.6301 -0.1938  0.0952
 3274SOL    HW118861   7.485   1.727   2.320  1.1218 -1.6051 -1.0392
 3274SOL    HW218862   7.331   1.742   2.268  1.1950 -0.7550 -1.0020
 3275SOL     OW18863   7.529   8.596   5.287  0.2503 -0.4277 -0.0508
 3275SOL    HW118864   7.462   8.523   5.298  0.2105 -0.5381 -0.9748
 3275SOL    HW218865   7.493   8.681   5.326 -1.1668 -0.0573 -2.0895
 3276SOL     OW18866   3.598   3.875   4.353  0.3337  0.1900  1.0414
 3276SOL    HW118867   3.627   3.881   4.258 -1.4497 -1.7124  0.3160
 3276SOL    HW218868   3.523   3.940   4.369 -0.2690 -0.4205  0.7538
 3277SOL     OW18869   0.484   2.920   3.222 -0.2276 -0.1636 -0.3398
 3277SOL    HW118870   0.545   2.962   3.155 -0.3029 -0.8769 -0.8520
 3277SOL    HW218871   0.499   2.963   3.311 -1.7116  2.3815 -1.2466
 3278SOL     OW18872   0.923   4.343   2.512  0.4573  0.3095  0.4244
 3278SOL    HW118873   0.884   4.364   2.602  1.2877  0.2305  0.8126
 3278SOL    HW218874   0.969   4.255   2.516  3.5121  1.8375  0.9248
 3279SOL     OW18875   4.317   9.220   3.697 -0.4044  0.7962  0.2902
 3279SOL    HW118876   4.237   9.223   3.756  0.0924  1.3989  0.9421
 3279SOL    HW218877   4.291   9.242   3.603 -0.9414  1.3314  0.5659
 3280SOL     OW18878   4.158   3.059   1.275  0.0650 -0.4319  0.3325
 3280SOL    HW118879   4.244   3.010   1.268 -0.3321 -1.2044  0.7218
 3280SOL    HW218880   4.174   3.157   1.265  0.8373 -0.6552 -0.6879
 3281SOL     OW18881   1.171   6.534   0.626 -0.1763  0.3174 -0.2779
 3281SOL    HW118882   1.085   6.571   0.660 -1.2181 -0.5116 -1.9220
 3281SOL    HW218883   1.216   6.482   0.698 -0.9462  0.9224  0.6506
 3282SOL     OW18884   3.490   8.062   1.812  0.1757  0.4408 -0.3039
 3282SOL    HW118885   3.485   8.096   1.906  2.2065  0.3065 -0.1057
 3282SOL    HW218886   3.476   8.137   1.748 -1.7764  0.4285  0.0884
 3283SOL     OW18887   4.766   2.259   4.748  0.4054 -0.1799  0.0452
 3283SOL    HW118888   4.822   2.341   4.744  1.7668 -1.0855  0.1166
 3283SOL    HW218889   4.753   2.232   4.843  0.5064 -0.4051 -0.0038
 3284SOL     OW18890   9.011   9.170   2.398 -0.3416 -0.5382  0.2461
 3284SOL    HW118891   9.039   9.235   2.327  0.6899 -0.8006  0.4165
 3284SOL    HW218892   9.039   9.078   2.372 -1.9357 -0.9508 -0.0632
 3286SOL     OW18893   4.515   6.507   1.220  0.3713  0.1317  0.3076
 3286SOL    HW118894   4.561   6.441   1.161 -0.0941 -0.1070  0.2125
 3286SOL    HW218895   4.522   6.477   1.316 -0.3376 -0.3482  0.2074
 3287SOL     OW18896   5.268   1.781   3.841  0.0819 -0.2531 -0.1123
 3287SOL    HW118897   5.345   1.811   3.785 -0.9171  0.7818 -0.9479
 3287SOL    HW218898   5.268   1.681   3.846  0.4123 -0.3419 -1.6212
 3288SOL     OW18899   4.071   6.990   2.596 -0.1974 -0.6107  0.5092
 3288SOL    HW118900   4.108   6.916   2.540 -0.1163 -0.8343  0.8592
 3288SOL    HW218901   3.971   6.983   2.599 -0.2520 -0.1588 -0.2238
 3289SOL     OW18902   3.179   6.683   2.964  0.0045 -0.3361 -0.8798
 3289SOL    HW118903   3.215   6.591   2.950  1.6791  0.2404 -0.4582
 3289SOL    HW218904   3.197   6.739   2.883  0.8248  0.1890 -0.3454
 3291SOL     OW18905   8.851   2.792   0.653  0.9528  0.0917 -0.6067
 3291SOL    HW118906   8.753   2.770   0.657  0.8902  0.3704 -0.6253
 3291SOL    HW218907   8.884   2.813   0.745  1.6630 -2.9376 -0.1186
 3292SOL     OW18908   2.626   3.194   5.147  0.1106  0.1183 -0.0258
 3292SOL    HW118909   2.651   3.276   5.197  0.2256 -0.1016  0.2810
 3292SOL    HW218910   2.531   3.201   5.116 -0.1170  0.0443  0.6479
 3293SOL     OW18911   9.478   6.367   0.367  0.6283 -0.3640 -0.2424
 3293SOL    HW118912   9.448   6.449   0.318  1.1328  0.3326  0.6034
 3293SOL    HW218913   9.491   6.388   0.464  0.8389 -1.4246 -0.0313
 3294SOL     OW18914   7.905   1.746   2.285 -0.3146  0.2576  0.7806
 3294SOL    HW118915   7.819   1.793   2.302 -0.8462 -0.5916  0.4511
 3294SOL    HW218916   7.975   1.812   2.259 -1.7024  0.6149 -2.2305
 3295SOL     OW18917   1.203   5.294   4.525  0.1231 -0.5951 -0.1820
 3295SOL    HW118918   1.206   5.195   4.533 -0.0752 -0.5205  0.8854
 3295SOL    HW218919   1.135   5.320   4.457 -0.1701 -1.1747 -0.1123
 3296SOL     OW18920   3.250   3.292   1.219 -0.0415  0.3562 -0.1885
 3296SOL    HW118921   3.214   3.298   1.126  0.4078 -0.0257 -0.3885
 3296SOL    HW218922   3.327   3.229   1.221  0.9958  1.6175  0.1154
 3298SOL     OW18923   9.720   5.755   2.953  0.4977  0.1652  0.1819
 3298SOL    HW118924   9.797   5.696   2.978  1.6171  1.0660 -1.0814
 3298SOL    HW218925   9.715   5.833   3.015 -0.3323 -0.6723  1.1915
 3299SOL     OW18926   6.841   7.242   4.658 -0.1707 -0.7252 -0.2851
 3299SOL    HW118927   6.876   7.273   4.747 -0.6866  1.3378 -0.7714
 3299SOL    HW218928   6.791   7.156   4.670  0.6645 -1.0249  1.2422
 3300SOL     OW18929   4.843   7.682   4.865  0.3782  0.2865  0.8223
 3300SOL    HW118930   4.923   7.714   4.916  0.5964  0.2067  0.5328
 3300SOL    HW218931   4.868   7.670   4.769 -0.3699  1.6092  0.4654
 3301SOL     OW18932   7.556   2.167   0.735  0.4423  0.4709  0.4978
 3301SOL    HW118933   7.633   2.230   0.744  1.7275 -1.0556  0.4538
 3301SOL    HW218934   7.565   2.114   0.651  0.0846 -0.6741  1.1624
 3302SOL     OW18935   0.559   5.907   2.615  0.1432  0.2485 -0.3855
 3302SOL    HW118936   0.604   5.986   2.655 -1.1733  0.3639  0.9180
 3302SOL    HW218937   0.491   5.871   2.679  0.4554 -1.7098 -1.1004
 3303SOL     OW18938   7.538   8.345   3.088  0.4412  0.2305 -0.1620
 3303SOL    HW118939   7.519   8.258   3.041  1.1278  0.7132 -1.3555
 3303SOL    HW218940   7.614   8.391   3.043  0.9160  0.8570  1.2647
 3304SOL     OW18941   9.383   7.214   2.963  0.0524  0.1791  0.3173
 3304SOL    HW118942   9.352   7.120   2.954 -1.6985  0.8125 -0.5768
 3304SOL    HW218943   9.360   7.265   2.880  0.5084  1.5292  0.9933
 3305SOL     OW18944   1.164   9.232   4.587 -0.3353  0.7785 -0.5853
 3305SOL    HW118945   1.256   9.251   4.551 -0.7472  1.9447 -1.0384
 3305SOL    HW218946   1.113   9.318   4.594 -1.7101  0.0131 -1.2061
 3307SOL     OW18947   8.889   0.438   0.570  0.0400 -0.3307 -0.0571
 3307SOL    HW118948   8.863   0.362   0.630 -0.7558  0.6260  0.8387
 3307SOL    HW218949   8.811   0.462   0.512 -0.0179  0.3622  0.2907
 3308SOL     OW18950   8.888   6.929   0.734 -0.1921  0.6306 -0.5517
 3308SOL    HW118951   8.866   6.887   0.823  1.4167  0.8275 -0.0539
 3308SOL    HW218952   8.942   6.865   0.680 -0.3033  0.9139 -0.9949
 3309SOL     OW18953   6.476   7.807   2.941 -0.4623 -0.2508  0.2104
 3309SOL    HW118954   6.467   7.709   2.924 -1.5404  0.3299 -3.0670
 3309SOL    HW218955   6.385   7.848   2.950 -0.1914  0.9250 -1.9430
 3311SOL     OW18956   3.138   8.538   0.233  0.0265 -0.2117  0.3132
 3311SOL    HW118957   3.232   8.544   0.199 -0.5973  0.8395 -1.2447
 3311SOL    HW218958   3.081   8.494   0.164 -0.6895 -0.5908  1.1429
 3314SOL     OW18959   9.541   8.768   4.866  0.7344 -0.2888 -0.2670
 3314SOL    HW118960   9.577   8.683   4.903  1.2016  1.1266  2.6508
 3314SOL    HW218961   9.609   8.808   4.804  0.5606 -1.9240 -1.5586
 3315SOL     OW18962   0.653   4.983   4.895 -0.4635 -0.2987  0.1709
 3315SOL    HW118963   0.700   5.043   4.960 -1.1961 -0.2493  0.6627
 3315SOL    HW218964   0.554   4.987   4.911 -0.7586  0.6832 -1.7852
 3317SOL     OW18965   8.464   0.710   1.725 -0.8069  0.3045 -0.3379
 3317SOL    HW118966   8.512   0.796   1.708 -0.8739  0.4003 -0.0397
 3317SOL    HW218967   8.436   0.706   1.821  2.1805 -1.5582  0.5141
 3318SOL     OW18968   7.089   2.077   4.513 -0.3915  0.1042 -0.2058
 3318SOL    HW118969   7.070   2.059   4.609 -0.7172 -0.0726 -0.3030
 3318SOL    HW218970   7.018   2.035   4.456  0.9619 -1.6993 -0.6410
 3319SOL     OW18971   9.385   2.761   3.330 -0.4661 -0.0803  0.5596
 3319SOL    HW118972   9.391   2.690   3.259  0.7601  1.3336 -0.7757
 3319SOL    HW218973   9.303   2.817   3.315 -0.2998  0.1113  0.3777
 3320SOL     OW18974   3.695   9.155   1.512 -0.2633 -0.4610 -0.6748
 3320SOL    HW118975   3.642   9.239   1.525  0.2516  0.1784 -2.5286
 3320SOL    HW218976   3.639   9.089   1.461 -0.8962 -1.5181  1.3080
 3322SOL     OW18977   3.894   9.043   1.642  0.1907  0.4090  0.2710
 3322SOL    HW118978   3.881   8.949   1.611  0.6114 -0.1976  1.8614
 3322SOL    HW218979   3.820   9.100   1.608 -0.8186 -0.7874  0.4300
 3324SOL     OW18980   9.145   3.695   3.271 -0.2086  0.4595  0.0015
 3324SOL    HW118981   9.220   3.761   3.265 -0.2769  0.6711  1.4071
 3324SOL    HW218982   9.057   3.744   3.272 -0.4378  0.1847 -2.4257
 3325SOL     OW18983   4.633   2.510   0.462  0.1984  0.5198 -0.6174
 3325SOL    HW118984   4.602   2.416   0.471  0.3923  0.4996 -0.1189
 3325SOL    HW218985   4.600   2.564   0.540  0.6821  0.6960 -0.5303
 3326SOL     OW18986   1.008   5.618   4.468  0.2541  0.0269 -0.1994
 3326SOL    HW118987   1.087   5.639   4.409 -0.7796  2.2055 -0.8387
 3326SOL    HW218988   1.038   5.617   4.563  1.1902  0.1832 -0.4797
 3328SOL     OW18989   1.361   4.931   2.521 -1.0451 -0.1253  0.1868
 3328SOL    HW118990   1.345   4.875   2.439  0.4752  1.4889 -1.2633
 3328SOL    HW218991   1.398   4.874   2.594  0.2789 -1.0597 -1.1887
 3329SOL     OW18992   0.913   5.472   4.905 -0.8614  0.0153 -0.2213
 3329SOL    HW118993   0.979   5.417   4.852 -2.2311 -2.4955  0.6251
 3329SOL    HW218994   0.963   5.530   4.969  0.6631  0.5649 -1.8479
 3331SOL     OW18995   3.543   8.418   4.783  0.1311  0.0181 -0.3122
 3331SOL    HW118996   3.565   8.511   4.811 -2.3016  0.6763 -0.5255
 3331SOL    HW218997   3.538   8.359   4.864 -0.8581  0.6289  0.0815
 3334SOL     OW18998   8.040   9.799   1.179 -0.2249  0.0847 -0.0100
 3334SOL    HW118999   8.078   9.842   1.261 -1.7866  0.3246  0.6029
 3334SOL    HW219000   8.093   9.826   1.099  0.7928  0.5316  0.8069
 3337SOL     OW19001   0.453   6.264   2.033  0.5698  0.2410  0.3216
 3337SOL    HW119002   0.462   6.174   1.990  1.2073 -0.1235  1.2009
 3337SOL    HW219003   0.545   6.301   2.052  0.3230  1.3910 -0.6899
 3339SOL     OW19004   4.908   4.833   2.241  0.0431 -0.6561  0.5337
 3339SOL    HW119005   4.818   4.828   2.198 -0.2334  0.2571  0.9857
 3339SOL    HW219006   4.947   4.924   2.227 -0.2672 -0.1706  2.6117
 3340SOL     OW19007   4.033   6.809   3.995 -0.6102 -0.2967 -0.1799
 3340SOL    HW119008   4.087   6.739   3.948 -0.7260  0.4530 -1.4624
 3340SOL    HW219009   3.977   6.766   4.066  0.0239 -1.3730 -0.3199
 3341SOL     OW19010   4.206   4.167   3.736  0.2576 -0.6487 -0.5828
 3341SOL    HW119011   4.149   4.226   3.794 -0.6984 -1.9964 -0.1311
 3341SOL    HW219012   4.271   4.118   3.794  0.2439 -0.9418 -0.8156
 3343SOL     OW19013   1.869   8.358   1.183 -0.5917 -0.2212 -0.1192
 3343SOL    HW119014   1.924   8.342   1.266  1.3166  2.6944 -0.7471
 3343SOL    HW219015   1.910   8.309   1.106 -0.3097 -0.0532 -0.0758
 3344SOL     OW19016   4.657   9.969   4.913  0.3132 -0.3653  0.2499
 3344SOL    HW119017   4.630  10.045   4.974 -0.0207 -0.4450  0.2020
 3344SOL    HW219018   4.582   9.903   4.908  1.2365 -1.5482  1.6363
 3345SOL     OW19019   8.745   8.735   1.714  0.3455 -0.1292  0.1401
 3345SOL    HW119020   8.799   8.808   1.756  0.1921 -0.6194  1.2051
 3345SOL    HW219021   8.763   8.733   1.616  0.7168  1.0282  0.1766
 3346SOL     OW19022   7.711   1.409   2.463 -0.0629  0.0558  0.7163
 3346SOL    HW119023   7.660   1.401   2.377  1.9075  0.2704 -0.5120
 3346SOL    HW219024   7.765   1.326   2.477  2.2093  1.3673  0.0007
 3348SOL     OW19025   1.078   7.071   1.228 -0.7844  0.9472  0.1015
 3348SOL    HW119026   1.113   7.004   1.163 -2.0945  0.0201  0.3331
 3348SOL    HW219027   1.107   7.163   1.200 -1.4780  0.5918 -1.8970
 3349SOL     OW19028   9.255   2.999   1.180  0.2397  0.0385 -0.5498
 3349SOL    HW119029   9.307   3.076   1.141  0.6926 -0.3967 -0.8039
 3349SOL    HW219030   9.220   2.942   1.106 -1.4775  0.8972 -0.4211
 3350SOL     OW19031   8.593   5.538   1.052 -0.7359  0.0152 -0.1473
 3350SOL    HW119032   8.519   5.494   1.000 -0.9297 -1.2432  1.1783
 3350SOL    HW219033   8.581   5.520   1.149  0.2431  1.4468  0.2576
 3353SOL     OW19034   3.664   4.900   0.459 -0.6079  0.1998 -0.4248
 3353SOL    HW119035   3.762   4.903   0.477 -1.0813  1.4638  2.1605
 3353SOL    HW219036   3.638   4.808   0.431  1.0650 -0.5377  0.3976
 3354SOL     OW19037   3.179   5.798   4.149 -0.0923 -0.2457  0.0649
 3354SOL    HW119038   3.092   5.755   4.124 -0.4740  0.1471  0.7190
 3354SOL    HW219039   3.163   5.892   4.177  0.4819 -0.3155  0.6390
 3355SOL     OW19040   2.331   9.021   4.048 -0.2315  0.5632 -0.1905
 3355SOL    HW119041   2.388   9.088   4.095 -1.6914  1.2144  0.6798
 3355SOL    HW219042   2.251   9.000   4.105 -0.0792 -1.4848 -0.7056
 3356SOL     OW19043   2.951   8.439   5.268 -0.6828  0.2948 -0.0107
 3356SOL    HW119044   2.904   8.412   5.184 -1.1578  1.0033  0.0139
 3356SOL    HW219045   2.947   8.539   5.277 -1.1268  0.1892  1.1194
 3357SOL     OW19046   7.273   2.560   4.848 -0.2540 -0.5332  0.4270
 3357SOL    HW119047   7.200   2.540   4.782 -0.6784  1.4286  0.2756
 3357SOL    HW219048   7.236   2.616   4.922  1.2804  1.1888 -0.0937
 3358SOL     OW19049   8.550   4.396   0.281 -0.4945 -0.8653  0.0744
 3358SOL    HW119050   8.636   4.421   0.236  0.6668 -0.4861  2.4371
 3358SOL    HW219051   8.565   4.389   0.380 -3.6165  1.0342  0.7436
 3359SOL     OW19052   3.524   6.437   0.958  0.2015 -0.2421  0.1960
 3359SOL    HW119053   3.596   6.371   0.980 -0.6914 -1.0327  0.7440
 3359SOL    HW219054   3.532   6.464   0.862 -0.2297 -2.1392 -0.3881
 3360SOL     OW19055   2.048   8.850   1.241  0.9228 -0.5574  0.6652
 3360SOL    HW119056   2.086   8.825   1.152  1.7475  1.5251  0.4083
 3360SOL    HW219057   2.100   8.927   1.279 -1.6994  1.0008  1.2452
 3361SOL     OW19058   9.509   9.637   2.032  0.3500 -0.4311  0.3236
 3361SOL    HW119059   9.493   9.550   2.078  2.1840 -1.5922 -1.1740
 3361SOL    HW219060   9.422   9.674   2.000 -0.6017 -1.0458  2.1182
 3362SOL     OW19061   3.441   7.133   0.370 -0.2113 -0.3152  0.6021
 3362SOL    HW119062   3.465   7.050   0.320 -3.0584 -2.4878  2.6585
 3362SOL    HW219063   3.345   7.129   0.396 -0.6305  4.0132  0.1512
 3363SOL     OW19064   0.876   0.112   3.084  0.4266  0.4139 -0.4203
 3363SOL    HW119065   0.781   0.087   3.064  0.2340  0.4557  0.4279
 3363SOL    HW219066   0.937   0.057   3.027 -0.0883  0.0135 -0.5941
 3364SOL     OW19067   8.548   2.347   5.008 -0.5245 -0.3920  0.3185
 3364SOL    HW119068   8.463   2.327   4.959 -0.5513  1.4699 -0.4719
 3364SOL    HW219069   8.585   2.434   4.975  1.1678 -0.6934  1.3617
 3365SOL     OW19070   0.783   2.931   1.665 -0.4742  0.3688 -0.5771
 3365SOL    HW119071   0.789   2.952   1.567 -1.3365  1.2908 -0.4406
 3365SOL    HW219072   0.691   2.954   1.698 -0.9667 -2.1749 -0.0786
 3368SOL     OW19073   1.076   4.532   2.982  0.3223  0.0979 -0.2041
 3368SOL    HW119074   1.156   4.579   2.945  0.7179 -0.5701 -0.1992
 3368SOL    HW219075   1.004   4.531   2.913 -0.3632  2.3165  0.4160
 3369SOL     OW19076   9.315   7.971   1.587  0.3269  0.1082  0.1503
 3369SOL    HW119077   9.278   7.879   1.571  0.7593 -0.4441  2.1971
 3369SOL    HW219078   9.289   8.002   1.678 -0.1382  2.2026 -0.6673
 3370SOL     OW19079   5.405   5.286   0.327 -0.2381 -0.0241  0.3533
 3370SOL    HW119080   5.459   5.362   0.363 -1.8645  1.1776  0.2823
 3370SOL    HW219081   5.318   5.281   0.376 -1.1136 -0.4113 -1.2295
 3372SOL     OW19082   9.924   2.191   3.897  0.2442  1.0996  0.2477
 3372SOL    HW119083   9.864   2.266   3.927 -0.8646  0.3390 -0.0380
 3372SOL    HW219084  10.006   2.189   3.953  0.5120  2.8370 -0.0372
 3373SOL     OW19085   5.790   1.490   4.601 -0.1236  0.1030  0.0280
 3373SOL    HW119086   5.740   1.535   4.527  1.7208  1.7618 -0.2777
 3373SOL    HW219087   5.779   1.542   4.686 -0.8946 -0.8773  0.5361
 3374SOL     OW19088   0.980   7.535   3.697  0.0751 -0.2257 -0.2421
 3374SOL    HW119089   0.933   7.574   3.776  1.2120 -0.2177  0.4368
 3374SOL    HW219090   0.935   7.450   3.670 -0.7524  0.1440 -0.0404
 3375SOL     OW19091   8.416   6.320   4.633 -0.1063 -0.3284 -0.5657
 3375SOL    HW119092   8.374   6.303   4.722  2.1393  0.9239  0.7722
 3375SOL    HW219093   8.405   6.416   4.608  2.1714  0.1059 -0.0367
 3376SOL     OW19094   0.533   4.249   3.192 -0.5627 -0.1635  0.0868
 3376SOL    HW119095   0.572   4.308   3.264 -2.5330 -1.2261  2.0967
 3376SOL    HW219096   0.571   4.157   3.201 -1.6640 -0.5841  0.4988
 3377SOL     OW19097   0.565   1.505   2.330 -0.5274 -0.3254  0.4763
 3377SOL    HW119098   0.591   1.408   2.323 -1.7297 -0.8798  2.9761
 3377SOL    HW219099   0.646   1.560   2.347 -0.0597 -1.1532  1.0014
 3378SOL     OW19100   7.901   0.589   3.916  0.1782  0.8420 -0.2797
 3378SOL    HW119101   7.947   0.584   4.004 -2.2904 -3.5249  0.8805
 3378SOL    HW219102   7.815   0.640   3.925 -0.2789  0.0390 -0.0267
 3379SOL     OW19103   3.119   5.027   4.571 -0.2435 -0.1900 -0.0818
 3379SOL    HW119104   3.151   4.988   4.485  0.0105  2.7212 -1.3498
 3379SOL    HW219105   3.188   5.012   4.642 -0.5273 -2.7371 -0.3128
 3381SOL     OW19106   8.370   8.248   4.612  0.3895 -0.2572 -0.4003
 3381SOL    HW119107   8.423   8.236   4.528  0.7213 -0.7476 -0.1291
 3381SOL    HW219108   8.292   8.186   4.611 -0.1723  0.4603 -0.7957
 3383SOL     OW19109   1.727   7.875   4.605  0.0884 -0.2333 -0.2348
 3383SOL    HW119110   1.694   7.969   4.604  1.6612  0.3269 -2.1399
 3383SOL    HW219111   1.649   7.813   4.603 -0.9382  1.0620 -3.1280
 3384SOL     OW19112   1.133   1.800   0.779  0.8589 -0.6606  0.1620
 3384SOL    HW119113   1.071   1.759   0.846 -2.9747 -0.8072 -3.2281
 3384SOL    HW219114   1.200   1.857   0.825 -1.1971 -1.2777  4.1175
 3386SOL     OW19115   0.827   1.254   1.812 -0.2448 -0.2935  0.2931
 3386SOL    HW119116   0.798   1.344   1.844  0.3798  0.2114 -0.5483
 3386SOL    HW219117   0.905   1.223   1.867  0.0645  0.0423  0.0443
 3387SOL     OW19118   2.305   8.529   4.168  0.3965  0.0900 -0.3787
 3387SOL    HW119119   2.338   8.606   4.114  0.5695  1.3011  1.4016
 3387SOL    HW219120   2.214   8.550   4.205  0.0004 -0.9821 -0.7141
 3388SOL     OW19121   5.468   6.414   2.449 -0.6714 -0.4672  0.1434
 3388SOL    HW119122   5.496   6.325   2.484  0.1401  0.2202  1.2966
 3388SOL    HW219123   5.540   6.450   2.388 -0.4748 -0.1011  0.5868
 3389SOL     OW19124   8.676   1.892   1.888  0.0493 -0.3203 -0.3372
 3389SOL    HW119125   8.680   1.814   1.825  3.0177 -1.6975  1.4360
 3389SOL    HW219126   8.724   1.970   1.847 -0.1668 -0.4233 -0.7950
 3391SOL     OW19127   3.348   6.825   5.183 -0.0741 -0.4873  0.2638
 3391SOL    HW119128   3.420   6.783   5.238  0.4166  1.1296  0.9019
 3391SOL    HW219129   3.259   6.799   5.219  0.2267 -0.7367  0.8371
 3392SOL     OW19130   2.921   3.968   4.789  0.1788 -0.1030  0.2490
 3392SOL    HW119131   2.874   4.008   4.868 -0.6442  0.9316 -0.7369
 3392SOL    HW219132   3.002   4.023   4.766  0.8516 -0.8487  0.8520
 3395SOL     OW19133   1.732   6.039   2.521 -0.0126 -0.2041  0.2814
 3395SOL    HW119134   1.674   6.083   2.589 -0.6913  1.9712 -1.6492
 3395SOL    HW219135   1.681   5.968   2.473 -0.0077 -0.6512  0.9312
 3396SOL     OW19136   1.256   6.346   0.453 -0.6573 -0.1324 -0.1186
 3396SOL    HW119137   1.351   6.323   0.475  0.2610  1.4739 -2.2901
 3396SOL    HW219138   1.223   6.416   0.515  0.1781  0.5937 -0.4932
 3397SOL     OW19139   5.660   9.964   2.919 -0.6992  0.2002  0.0880
 3397SOL    HW119140   5.694   9.890   2.978  0.9828  1.7464  1.1039
 3397SOL    HW219141   5.647  10.047   2.974 -1.0249  1.1165 -1.3498
 3398SOL     OW19142   8.105   9.534   4.305  0.5525 -0.3698 -0.6011
 3398SOL    HW119143   8.031   9.467   4.300  0.5824 -0.4310 -0.2089
 3398SOL    HW219144   8.118   9.563   4.400  1.0644 -0.3973 -0.6628
 3399SOL     OW19145   4.054   2.369   3.735 -0.1338  0.1335  0.2636
 3399SOL    HW119146   3.971   2.425   3.739  0.5056  1.1046  0.1791
 3399SOL    HW219147   4.032   2.275   3.759 -1.3354  0.2984 -0.1537
 3400SOL     OW19148   1.167   6.128   0.718  0.3318  0.6571  0.2112
 3400SOL    HW119149   1.113   6.208   0.742 -0.3948 -0.2603  1.7184
 3400SOL    HW219150   1.124   6.081   0.640 -2.5567 -1.4593  2.9441
 3403SOL     OW19151   1.357   1.328   0.743  0.0153 -0.2847  0.3955
 3403SOL    HW119152   1.399   1.238   0.727 -1.8363 -1.0772 -0.1616
 3403SOL    HW219153   1.350   1.377   0.656  0.3494  0.0948  0.5828
 3404SOL     OW19154   3.392   5.211   1.779  0.1453  0.0663  0.4917
 3404SOL    HW119155   3.332   5.163   1.715 -0.0611 -0.1822  0.8688
 3404SOL    HW219156   3.471   5.154   1.801 -1.0805 -0.9392  2.4630
 3405SOL     OW19157   0.928   8.118   2.628  0.1390 -0.1275  0.0094
 3405SOL    HW119158   1.018   8.148   2.662  1.2711 -0.4704 -2.5667
 3405SOL    HW219159   0.880   8.069   2.701  3.1461 -2.2197  0.6878
 3409SOL     OW19160   9.268   8.524   3.487  0.1658 -0.0808 -0.0027
 3409SOL    HW119161   9.188   8.583   3.483  1.2762  1.4790  0.2148
 3409SOL    HW219162   9.277   8.486   3.579 -0.7683 -0.9175 -0.2483
 3410SOL     OW19163   8.649   7.109   3.760  0.5872  0.2321  0.3295
 3410SOL    HW119164   8.655   7.009   3.766 -4.4889 -0.3510 -1.8781
 3410SOL    HW219165   8.584   7.142   3.827  0.6021  1.8117 -0.4239
 3411SOL     OW19166   3.273   8.629   4.969 -0.3333 -0.1257  0.3156
 3411SOL    HW119167   3.282   8.531   4.956 -1.8928 -0.3073  0.4164
 3411SOL    HW219168   3.325   8.657   5.050  1.5428 -0.5588 -0.7181
 3412SOL     OW19169   4.778   7.180   2.190  0.5859  0.1400  0.0132
 3412SOL    HW119170   4.838   7.101   2.178  2.1184  0.8451  2.7048
 3412SOL    HW219171   4.828   7.254   2.235 -2.3954  0.5763  2.7897
 3413SOL     OW19172   6.966   9.625   5.254 -0.0611 -0.0396  0.7590
 3413SOL    HW119173   7.014   9.538   5.251 -0.7349 -0.4576  1.7222
 3413SOL    HW219174   6.901   9.624   5.330  0.8165  1.7605  1.5681
 3414SOL     OW19175   3.653   9.545   1.201 -0.1813  0.0732  0.2996
 3414SOL    HW119176   3.712   9.554   1.121  0.9098 -2.6457  0.7476
 3414SOL    HW219177   3.672   9.619   1.265  1.3326  0.3370 -0.4453
 3415SOL     OW19178   1.643   4.382   2.475  0.8892  0.1700  0.3156
 3415SOL    HW119179   1.667   4.454   2.541 -0.8969 -0.8805  2.2007
 3415SOL    HW219180   1.560   4.336   2.506 -0.0828 -0.2699 -2.8017
 3416SOL     OW19181   0.216   6.562   1.670  0.5345  0.1278 -0.0111
 3416SOL    HW119182   0.215   6.653   1.712  3.5827  0.6521 -0.9379
 3416SOL    HW219183   0.209   6.492   1.742 -0.7239  1.0510  0.7959
 3417SOL     OW19184   8.931   5.601   4.358  0.1887 -0.5002 -0.5754
 3417SOL    HW119185   8.897   5.665   4.427  0.5498 -0.8484 -0.0692
 3417SOL    HW219186   9.007   5.548   4.397  0.1925 -0.9107 -1.1427
 3418SOL     OW19187   4.241   0.309   1.145  0.6562 -0.2733  0.1907
 3418SOL    HW119188   4.180   0.275   1.217  1.6347  0.6424  1.4742
 3418SOL    HW219189   4.321   0.351   1.187  1.3437  0.0823 -1.4562
 3419SOL     OW19190   2.216   9.217   2.162 -0.4961 -0.1781 -0.5729
 3419SOL    HW119191   2.259   9.177   2.081  0.9452  0.9274 -0.3919
 3419SOL    HW219192   2.227   9.155   2.239  1.1504  0.2445 -0.4447
 3420SOL     OW19193   7.509   1.109   0.217 -0.1467  0.0166 -0.2743
 3420SOL    HW119194   7.577   1.044   0.183  1.2682  1.5576 -0.4863
 3420SOL    HW219195   7.481   1.170   0.143 -1.7988 -0.6162 -0.1898
 3422SOL     OW19196   4.680   5.913   3.131 -0.2094  0.3041  0.6003
 3422SOL    HW119197   4.587   5.931   3.163 -0.6056 -2.5183  1.1290
 3422SOL    HW219198   4.718   5.836   3.182  0.9075 -1.2228 -2.4353
 3423SOL     OW19199   0.818   7.049   3.122 -0.5195 -0.3521 -0.2268
 3423SOL    HW119200   0.856   7.035   3.213  0.5627 -1.7690 -0.8667
 3423SOL    HW219201   0.789   7.144   3.112  0.1163  0.0210  1.3039
 3424SOL     OW19202   3.264   0.703   4.746  0.4091  0.2432 -0.2874
 3424SOL    HW119203   3.197   0.691   4.673  0.3461 -0.6680 -0.0861
 3424SOL    HW219204   3.355   0.681   4.712  0.3396 -0.4808 -0.0107
 3425SOL     OW19205   8.902   4.172   3.226  0.0012 -0.1814 -0.1739
 3425SOL    HW119206   8.811   4.214   3.219  0.4498  0.4759 -2.8082
 3425SOL    HW219207   8.925   4.127   3.139  1.9421 -0.8286  0.6440
 3427SOL     OW19208   4.724   1.462   4.653  0.4688 -0.0099  0.1975
 3427SOL    HW119209   4.723   1.482   4.555  0.5060  0.3526  0.2708
 3427SOL    HW219210   4.636   1.485   4.693  0.9791  1.3823  0.5556
 3428SOL     OW19211   0.175   0.331   3.178 -0.3547 -0.5419 -0.3370
 3428SOL    HW119212   0.173   0.241   3.220 -0.1106  0.2052  1.3192
 3428SOL    HW219213   0.196   0.400   3.248  1.3252  0.5910 -1.9039
 3431SOL     OW19214   0.305   5.878   3.651  0.5461 -0.0401  0.0836
 3431SOL    HW119215   0.313   5.830   3.738  1.2482 -4.2174 -2.1410
 3431SOL    HW219216   0.210   5.874   3.619  0.5577  0.2264  0.0191
 3432SOL     OW19217   9.467   0.075   2.132  0.5038 -0.1903 -0.3086
 3432SOL    HW119218   9.533   0.091   2.206  0.6744  1.1849 -0.7367
 3432SOL    HW219219   9.507   0.106   2.045 -0.4726  0.0915 -0.6615
 3433SOL     OW19220   8.598   8.471   0.566 -0.5333  0.5100 -0.5805
 3433SOL    HW119221   8.589   8.567   0.594 -3.0020  0.0326  0.3581
 3433SOL    HW219222   8.678   8.461   0.506  0.5754  2.8837  0.4360
 3436SOL     OW19223   4.367   9.938   1.795  0.0599 -0.5349  0.1946
 3436SOL    HW119224   4.457   9.899   1.816  0.2263 -0.1992  0.1059
 3436SOL    HW219225   4.359   9.950   1.696  0.0086 -0.3411  0.2241
 3437SOL     OW19226   4.845   3.184   4.565 -0.4294  0.0318  0.3090
 3437SOL    HW119227   4.757   3.223   4.591 -0.9027 -0.0753 -1.0984
 3437SOL    HW219228   4.844   3.085   4.579 -0.3717  0.0936  0.7413
 3438SOL     OW19229   0.997   5.482   1.021  0.0821  0.2246  0.2760
 3438SOL    HW119230   0.907   5.475   1.063 -0.6105 -2.0163 -1.4659
 3438SOL    HW219231   1.026   5.392   0.989  2.4559  1.1166 -0.2198
 3439SOL     OW19232   4.816   2.146   3.451  0.2136 -0.0042 -0.6098
 3439SOL    HW119233   4.724   2.176   3.476 -0.5111 -1.3307 -1.5669
 3439SOL    HW219234   4.881   2.220   3.466 -1.0520  1.0407 -0.1608
 3441SOL     OW19235   8.469   1.603   1.214 -0.3537 -0.0787  0.0739
 3441SOL    HW119236   8.454   1.546   1.295 -1.9370 -0.6288 -0.5896
 3441SOL    HW219237   8.458   1.548   1.131 -1.8825  1.1501 -0.5757
 3442SOL     OW19238   9.483   0.365   2.016  0.5087 -0.2253 -0.1698
 3442SOL    HW119239   9.404   0.414   2.052 -0.1380 -0.3106 -1.4351
 3442SOL    HW219240   9.470   0.347   1.918  1.5053 -1.3993 -0.1071
 3443SOL     OW19241   3.758   9.787   4.335  0.0940 -0.2743  0.4200
 3443SOL    HW119242   3.748   9.810   4.432  0.4082  1.5403  0.0471
 3443SOL    HW219243   3.738   9.869   4.280 -2.0726 -1.7884 -1.1382
 3444SOL     OW19244   8.437   7.558   2.135  0.0225  0.7033  0.7125
 3444SOL    HW119245   8.456   7.515   2.223  0.0146 -2.1453 -0.6083
 3444SOL    HW219246   8.367   7.505   2.086  0.0637  2.1963 -1.0232
 3445SOL     OW19247   8.638   4.134   1.092  0.3313 -0.0749 -0.1309
 3445SOL    HW119248   8.567   4.191   1.052 -1.0484 -1.9498 -0.4210
 3445SOL    HW219249   8.596   4.059   1.144  2.0653 -1.1152 -0.1839
 3446SOL     OW19250   8.281   3.751   4.639  0.1224 -0.3669  0.2814
 3446SOL    HW119251   8.354   3.726   4.702 -0.5483 -0.3443  1.0814
 3446SOL    HW219252   8.298   3.711   4.549  1.6210  0.4507  0.1892
 3448SOL     OW19253   7.538   3.357   1.158 -0.1774 -0.2251  0.0239
 3448SOL    HW119254   7.623   3.406   1.177  0.2094 -0.1588 -1.7602
 3448SOL    HW219255   7.462   3.421   1.156  0.1029  0.0844 -0.8058
 3449SOL     OW19256   5.515   8.230   3.295 -0.2969  0.1361 -0.7662
 3449SOL    HW119257   5.418   8.209   3.311 -0.1668  0.3406  0.3456
 3449SOL    HW219258   5.526   8.329   3.283 -0.2394  0.0997 -1.0201
 3451SOL     OW19259   9.741   5.233   0.988 -0.0203  0.6223 -0.5648
 3451SOL    HW119260   9.816   5.209   1.050  0.0134  0.6631 -0.5903
 3451SOL    HW219261   9.779   5.271   0.903 -0.0280 -0.2831 -0.9791
 3452SOL     OW19262   1.912   6.612   1.044  0.2429  0.1528 -0.0283
 3452SOL    HW119263   1.967   6.625   0.961  0.0612 -0.9615 -0.3227
 3452SOL    HW219264   1.867   6.523   1.041 -0.8112  0.6574  0.6678
 3453SOL     OW19265   4.032   5.348   0.367  0.5063  0.1262  0.4154
 3453SOL    HW119266   4.056   5.379   0.275  0.8274  0.0480  0.4717
 3453SOL    HW219267   3.941   5.306   0.365  0.0224  1.1679  0.3605
 3454SOL     OW19268   6.846   8.005   3.010 -0.5971 -0.1741 -0.6274
 3454SOL    HW119269   6.893   7.923   3.042  0.1819 -0.2313 -1.8756
 3454SOL    HW219270   6.904   8.085   3.025 -0.0534 -0.2500 -2.2115
 3455SOL     OW19271   7.089   0.271   3.421 -0.2748 -0.3506 -0.3564
 3455SOL    HW119272   7.168   0.291   3.364 -0.5594 -1.6145 -1.2176
 3455SOL    HW219273   7.092   0.175   3.451 -1.2962 -0.3231 -0.1293
 3456SOL     OW19274   9.200   6.083   2.662 -0.0957 -0.1294  0.3343
 3456SOL    HW119275   9.227   6.176   2.686 -2.0772  0.5855 -0.1676
 3456SOL    HW219276   9.205   6.071   2.563  0.0580 -0.5412  0.3887
 3457SOL     OW19277   5.472   9.794   4.365  0.0105  0.1138 -0.7241
 3457SOL    HW119278   5.420   9.876   4.340  0.3663 -0.1359 -2.3506
 3457SOL    HW219279   5.456   9.723   4.297 -0.1325 -1.1100  0.5701
 3458SOL     OW19280   5.457   8.564   4.846 -0.0227  0.5028 -0.0518
 3458SOL    HW119281   5.498   8.495   4.787 -0.1799 -0.9179  1.4635
 3458SOL    HW219282   5.397   8.623   4.792 -0.5150 -1.0408 -1.2216
 3459SOL     OW19283   0.553   9.262   3.735 -0.6069  0.3125 -0.2687
 3459SOL    HW119284   0.582   9.262   3.639 -0.2551  0.3968 -0.1629
 3459SOL    HW219285   0.597   9.185   3.783  0.8694  1.4852  0.3160
 3460SOL     OW19286   4.682   0.051   4.670 -0.3068  0.3957 -0.5440
 3460SOL    HW119287   4.677   0.012   4.762 -0.5304  1.5605 -0.0488
 3460SOL    HW219288   4.732  -0.011   4.610 -1.2352 -0.9477  0.0558
 3461SOL     OW19289   1.230   0.721   2.295 -0.0407  0.2699  0.2490
 3461SOL    HW119290   1.307   0.718   2.231 -0.3628 -1.9385 -0.0743
 3461SOL    HW219291   1.231   0.640   2.353 -0.6145  1.5199  2.0692
 3462SOL     OW19292   3.624   6.916   0.781 -0.6324 -0.6384  0.3578
 3462SOL    HW119293   3.688   6.993   0.778  0.0545 -1.2155 -0.0757
 3462SOL    HW219294   3.676   6.830   0.792 -1.2291 -1.2301 -1.2478
 3465SOL     OW19295   9.563   1.775   5.090  0.1860 -0.4450  0.2283
 3465SOL    HW119296   9.535   1.869   5.105  3.6281  0.6658  0.2043
 3465SOL    HW219297   9.557   1.724   5.176 -3.9953 -0.9306 -0.2707
 3466SOL     OW19298   1.519   9.692   2.331 -0.0252  0.3051 -0.4292
 3466SOL    HW119299   1.447   9.734   2.275 -0.5014  1.9085  1.3500
 3466SOL    HW219300   1.488   9.603   2.363 -1.4857  1.2401  0.8226
 3467SOL     OW19301   0.343   9.692   2.990 -0.5925  0.5702  0.1793
 3467SOL    HW119302   0.403   9.623   3.031 -0.6784  1.2895  1.5352
 3467SOL    HW219303   0.250   9.656   2.983 -0.4744  0.2675  0.1474
 3468SOL     OW19304   6.635   0.021   4.573  0.1857  0.0756  0.1832
 3468SOL    HW119305   6.562  -0.047   4.579  0.3447 -0.2137 -1.0656
 3468SOL    HW219306   6.682   0.026   4.661  0.6953 -2.0445  0.0624
 3469SOL     OW19307   0.241   0.921   4.143  0.4317 -0.1083 -0.2961
 3469SOL    HW119308   0.241   1.004   4.088  0.0331 -0.1998 -0.4406
 3469SOL    HW219309   0.315   0.861   4.114  1.0531  0.4300  0.1704
 3470SOL     OW19310   4.366   1.295   3.199 -0.6007 -0.2068  0.3924
 3470SOL    HW119311   4.332   1.232   3.270 -0.0415 -0.6455  0.2774
 3470SOL    HW219312   4.294   1.359   3.174 -0.8432 -0.1279  1.2732
 3471SOL     OW19313   2.659   3.335   1.332  0.2328 -0.3472  0.3086
 3471SOL    HW119314   2.623   3.410   1.276  1.6367 -0.1601 -0.3562
 3471SOL    HW219315   2.759   3.343   1.339  0.4720 -2.5278 -0.3231
 3472SOL     OW19316   7.853   0.056   2.091 -0.2636  0.1074 -0.0368
 3472SOL    HW119317   7.838  -0.028   2.143 -2.2733  1.1770  1.1633
 3472SOL    HW219318   7.930   0.106   2.131 -1.6518  0.8094  1.8251
 3473SOL     OW19319   2.228   7.201   4.050 -0.0777 -0.3090 -0.4815
 3473SOL    HW119320   2.263   7.293   4.036 -1.7866  0.5927  1.0328
 3473SOL    HW219321   2.201   7.162   3.963  0.3984  0.7178 -1.0960
 3474SOL     OW19322   4.635   6.777   2.272 -0.1501  0.4550  0.0097
 3474SOL    HW119323   4.640   6.833   2.354  0.2010 -0.7495  0.8207
 3474SOL    HW219324   4.611   6.835   2.194 -0.5837  1.5914  0.9649
 3475SOL     OW19325   9.825   7.339   0.461 -0.5392 -0.3529 -0.5530
 3475SOL    HW119326   9.903   7.397   0.486 -0.4143  0.0168 -1.7793
 3475SOL    HW219327   9.760   7.336   0.537  0.0330  0.3951 -0.0236
 3477SOL     OW19328   3.722   9.570   3.537 -0.1212  0.0390  0.0540
 3477SOL    HW119329   3.664   9.554   3.457  0.0199  0.0335 -0.0468
 3477SOL    HW219330   3.812   9.527   3.523 -1.1575 -2.7821  1.5644
 3478SOL     OW19331   6.722   1.860   3.205  0.3071  0.0181 -0.0227
 3478SOL    HW119332   6.676   1.925   3.265 -0.2533 -0.2881 -0.1049
 3478SOL    HW219333   6.788   1.907   3.147  0.4686  0.3900  0.4717
 3479SOL     OW19334   9.417   5.998   4.727  0.5172 -0.5030  0.1720
 3479SOL    HW119335   9.435   5.921   4.665 -1.7965  0.7667 -2.1962
 3479SOL    HW219336   9.484   6.070   4.710 -0.1540 -0.1299 -0.9321
 3480SOL     OW19337   8.505   4.986   4.570  0.1689  0.1376  0.0182
 3480SOL    HW119338   8.559   4.982   4.486  1.5357 -0.9766  0.9385
 3480SOL    HW219339   8.475   5.080   4.586 -0.9505  0.1838 -2.2408
 3481SOL     OW19340   1.809   3.668   0.920 -0.0888  0.4527 -0.6146
 3481SOL    HW119341   1.806   3.668   0.820  0.8611 -0.2633 -0.6521
 3481SOL    HW219342   1.777   3.756   0.955  0.4886  1.0430 -1.5774
 3482SOL     OW19343   0.065   5.192   3.601 -0.5777 -0.1929 -0.2118
 3482SOL    HW119344   0.002   5.152   3.534 -2.9626  0.2103  1.7259
 3482SOL    HW219345   0.118   5.119   3.644 -0.2039 -0.6081 -1.3466
 3483SOL     OW19346   3.780   7.717   4.849  0.3116 -0.1214  0.4139
 3483SOL    HW119347   3.816   7.789   4.909  1.2540 -0.6443  0.4751
 3483SOL    HW219348   3.791   7.743   4.754 -1.1477  0.6924  0.4455
 3484SOL     OW19349   1.342   5.420   5.113  0.2961 -0.7950  0.2087
 3484SOL    HW119350   1.282   5.481   5.164  0.5008  0.0246 -0.5015
 3484SOL    HW219351   1.315   5.325   5.128  0.7371 -0.6165  2.2980
 3485SOL     OW19352   8.213   0.266   3.867  0.0547  0.8644  0.2039
 3485SOL    HW119353   8.116   0.288   3.881 -0.0232  0.1573  0.8584
 3485SOL    HW219354   8.269   0.341   3.901 -0.2418  0.7857  0.8791
 3486SOL     OW19355   9.076   1.718   1.938 -0.5716 -0.0503 -0.0295
 3486SOL    HW119356   9.136   1.797   1.931  1.6511 -1.7802 -0.9514
 3486SOL    HW219357   9.093   1.656   1.862 -3.1167 -0.8807  0.0206
 3487SOL     OW19358   2.166   8.177   0.015 -0.0344 -0.3561 -0.4624
 3487SOL    HW119359   2.148   8.263  -0.033 -3.1613 -0.8451 -0.2298
 3487SOL    HW219360   2.168   8.194   0.113  2.7154 -0.0106 -0.5296
 3489SOL     OW19361   5.130   9.149   4.775  0.0000 -0.3602 -0.2620
 3489SOL    HW119362   5.214   9.129   4.725  1.5407  0.2566  2.0251
 3489SOL    HW219363   5.131   9.101   4.863 -1.8062  0.0794  0.0215
 3490SOL     OW19364   4.584   1.708   4.753 -0.3563  0.2705 -0.1661
 3490SOL    HW119365   4.596   1.763   4.670  0.6505 -0.0261 -0.2241
 3490SOL    HW219366   4.512   1.640   4.738  3.0008 -2.9988 -2.5291
 3491SOL     OW19367   2.881   9.068   4.120  0.3359  0.3398 -0.0570
 3491SOL    HW119368   2.905   9.160   4.089  0.2658  0.3830  0.0188
 3491SOL    HW219369   2.867   9.069   4.219  2.2529 -0.1342  0.2518
 3492SOL     OW19370   1.296   0.955   4.536  0.2978 -0.6637  0.4793
 3492SOL    HW119371   1.365   0.943   4.608 -0.4035 -2.6898  0.8194
 3492SOL    HW219372   1.232   0.879   4.538 -1.6955  0.9642 -0.1581
 3493SOL     OW19373   4.285   2.804   3.288  0.3912 -0.4123 -0.3376
 3493SOL    HW119374   4.382   2.823   3.269  0.6015 -1.7964 -0.6842
 3493SOL    HW219375   4.266   2.708   3.272 -0.9079 -0.2859  0.3663
 3495SOL     OW19376   3.674   5.749   0.306 -0.4064  0.2951  0.4594
 3495SOL    HW119377   3.582   5.754   0.343 -1.6544 -0.4932 -2.3769
 3495SOL    HW219378   3.691   5.827   0.246  0.0463 -0.5034 -0.4901
 3496SOL     OW19379   9.400   1.636   0.385  0.2111  0.0277  0.1365
 3496SOL    HW119380   9.398   1.580   0.469  0.3050  1.0058  0.7939
 3496SOL    HW219381   9.413   1.732   0.409 -1.0117  0.4739 -0.9205
 3497SOL     OW19382   4.819   8.773   4.300  0.6511  0.2133 -0.6740
 3497SOL    HW119383   4.723   8.794   4.281  0.4259 -0.2489 -0.0753
 3497SOL    HW219384   4.858   8.844   4.359  0.0975 -0.6290  0.7465
 3498SOL     OW19385   8.966   6.538   1.160 -0.3833  0.0332  0.5063
 3498SOL    HW119386   8.878   6.499   1.134 -0.7395  0.1901  1.4673
 3498SOL    HW219387   9.012   6.477   1.225 -0.4776  0.6955  1.2051
 3499SOL     OW19388   1.951   2.947   0.699  0.0834  0.0768  0.1185
 3499SOL    HW119389   1.852   2.947   0.689 -0.0282  0.8938  1.0579
 3499SOL    HW219390   1.981   2.861   0.740 -0.1761 -0.4004 -0.6915
 3500SOL     OW19391   8.454   1.362   4.111 -0.1432  0.4048  0.1613
 3500SOL    HW119392   8.362   1.340   4.080 -1.4730  3.0645  2.0799
 3500SOL    HW219393   8.469   1.321   4.202  1.6520 -2.4388 -1.3342
 3501SOL     OW19394   1.524   6.268   0.564 -0.4293  0.3284  0.1960
 3501SOL    HW119395   1.504   6.237   0.657  2.3829 -0.8550  0.4795
 3501SOL    HW219396   1.570   6.357   0.568  0.8790 -0.3242  0.0642
 3502SOL     OW19397   2.653   5.176   0.645  0.4648 -0.2422  0.4600
 3502SOL    HW119398   2.740   5.178   0.595  1.0957 -0.1287  1.5533
 3502SOL    HW219399   2.661   5.231   0.728 -1.3930  1.7175 -0.6170
 3505SOL     OW19400   9.088   8.103   1.423  0.2180 -0.5552 -0.2498
 3505SOL    HW119401   9.172   8.149   1.394  2.6894 -3.9733  1.1038
 3505SOL    HW219402   9.077   8.113   1.522  0.4544 -2.2345 -0.0348
 3507SOL     OW19403   8.447   6.270   5.186  0.2238 -0.5879  0.3014
 3507SOL    HW119404   8.498   6.260   5.272  3.5706  0.0044 -1.5458
 3507SOL    HW219405   8.425   6.180   5.149  2.5204 -0.9038 -0.3425
 3508SOL     OW19406   7.280   7.924   2.735 -0.0067 -0.1744  0.2043
 3508SOL    HW119407   7.245   8.011   2.769  0.5038 -0.0252  0.3419
 3508SOL    HW219408   7.347   7.887   2.800  0.1978 -0.3950 -0.1310
 3509SOL     OW19409   5.480   0.443   1.685  0.0035 -0.7874  0.1783
 3509SOL    HW119410   5.566   0.483   1.653 -0.4218 -0.1423 -0.1815
 3509SOL    HW219411   5.405   0.472   1.625 -0.7837  0.3130  1.6383
 3510SOL     OW19412   2.659   9.603   2.854 -0.7118 -0.4752  0.0933
 3510SOL    HW119413   2.691   9.521   2.806 -1.2074  0.2579 -1.5420
 3510SOL    HW219414   2.689   9.684   2.804 -0.5635  0.3447  1.4860
 3512SOL     OW19415   0.003   8.845   4.092 -0.4038  0.6369 -0.0746
 3512SOL    HW119416  -0.088   8.864   4.056 -0.5944  1.1226  0.6591
 3512SOL    HW219417   0.071   8.897   4.041 -0.3604 -0.9488 -1.6831
 3513SOL     OW19418   3.982   1.922   4.172  0.5307  0.1028 -0.2060
 3513SOL    HW119419   4.029   2.003   4.208  0.5215  0.0165  0.0021
 3513SOL    HW219420   3.887   1.923   4.202  0.7681 -0.4676  0.5837
 3514SOL     OW19421   9.408   3.994   1.185  0.6189 -0.2868  0.3992
 3514SOL    HW119422   9.418   4.030   1.278 -0.7307  2.2977 -0.4120
 3514SOL    HW219423   9.478   4.034   1.126 -0.3188  0.3268 -0.3153
 3515SOL     OW19424   2.024   1.563   1.271  0.4153  0.0265 -0.0387
 3515SOL    HW119425   2.095   1.535   1.335 -0.0458 -0.1931  0.3827
 3515SOL    HW219426   2.063   1.622   1.200  0.9904 -0.0111  0.2502
 3516SOL     OW19427   7.499   4.287   0.158 -0.0633 -0.3314  0.3426
 3516SOL    HW119428   7.456   4.214   0.105 -0.1541  0.3013 -0.4506
 3516SOL    HW219429   7.574   4.327   0.106 -1.1704  1.3810  0.0064
 3517SOL     OW19430   3.777   1.359   3.119  0.7349  0.5588  0.4998
 3517SOL    HW119431   3.808   1.283   3.062  1.0692  2.0269 -1.3123
 3517SOL    HW219432   3.804   1.446   3.078 -0.6397  1.7132  1.9402
 3518SOL     OW19433   1.684   8.631   2.748 -0.3854 -0.5608 -0.1518
 3518SOL    HW119434   1.677   8.625   2.649 -0.4059  1.7826 -0.3047
 3518SOL    HW219435   1.776   8.603   2.776  0.3894  1.0289 -1.0448
 3519SOL     OW19436   9.290   2.893   0.459 -0.2043  0.1747 -0.1431
 3519SOL    HW119437   9.350   2.890   0.380 -0.6822  0.9736 -0.5430
 3519SOL    HW219438   9.313   2.973   0.514  0.9813 -1.0581  1.2216
 3520SOL     OW19439   8.786   3.623   4.999  0.1297 -0.4612  0.1919
 3520SOL    HW119440   8.778   3.673   4.913  2.0380  0.5520  0.5741
 3520SOL    HW219441   8.737   3.672   5.071  2.7614  1.4496  0.7764
 3521SOL     OW19442   8.339   3.829   0.637 -0.1684 -0.2272  0.1002
 3521SOL    HW119443   8.299   3.774   0.710  2.0181 -0.6696  1.0091
 3521SOL    HW219444   8.409   3.889   0.675  1.0041 -0.4655 -1.6048
 3522SOL     OW19445   0.482   4.430   4.611  0.5008  0.0595 -0.2535
 3522SOL    HW119446   0.495   4.474   4.700  0.4763  0.2304 -0.3340
 3522SOL    HW219447   0.484   4.499   4.539 -3.1567  0.4163 -0.1008
 3523SOL     OW19448   8.458   2.944   0.378  0.2257 -0.1047 -0.0998
 3523SOL    HW119449   8.417   2.896   0.300 -1.4446  1.5918 -0.2946
 3523SOL    HW219450   8.557   2.952   0.365  0.2830 -1.9078 -0.9047
 3524SOL     OW19451   9.676   3.076   1.112  0.1258  0.3631  0.0174
 3524SOL    HW119452   9.688   3.070   1.013 -0.7798 -1.0779 -0.0153
 3524SOL    HW219453   9.579   3.083   1.134  0.2247 -0.7452  0.8623
 3525SOL     OW19454   4.479   3.134   0.229 -1.1346 -0.3846 -0.1460
 3525SOL    HW119455   4.444   3.147   0.136 -1.2562 -0.3156 -0.0908
 3525SOL    HW219456   4.562   3.188   0.241 -2.9111  2.2445  0.8254
 3526SOL     OW19457   0.374   5.153   0.082  0.0684  0.1628  0.5666
 3526SOL    HW119458   0.467   5.156   0.120  0.1560  0.8544  0.2990
 3526SOL    HW219459   0.369   5.080   0.014  0.8571  1.1352 -0.5536
 3527SOL     OW19460   8.335   5.083   4.301  0.1268  0.0463  0.3949
 3527SOL    HW119461   8.310   4.987   4.284 -1.0265  0.5356 -0.7125
 3527SOL    HW219462   8.398   5.115   4.230 -0.0612  0.3283  0.3537
 3528SOL     OW19463   3.935   9.233   4.353  0.4560 -0.1070  0.0825
 3528SOL    HW119464   4.019   9.282   4.327  0.3647 -0.8390 -1.6270
 3528SOL    HW219465   3.904   9.177   4.277 -1.4128 -0.1222  0.8289
 3531SOL     OW19466   9.666   9.117   1.546  0.6484 -0.0699 -0.1269
 3531SOL    HW119467   9.641   9.070   1.631 -1.5271  0.2802 -0.5456
 3531SOL    HW219468   9.583   9.147   1.499  1.8736  0.6407 -1.8791
 3533SOL     OW19469   2.631   8.503   4.665  0.2870  0.6432 -0.3929
 3533SOL    HW119470   2.729   8.523   4.672  0.2834  0.2931  0.8643
 3533SOL    HW219471   2.581   8.566   4.725 -0.1045 -0.2528  0.2285
 3534SOL     OW19472   3.520   0.367   5.209  0.7740 -0.3391 -0.2168
 3534SOL    HW119473   3.603   0.356   5.154  0.2846  0.1493 -1.0775
 3534SOL    HW219474   3.466   0.283   5.207  0.0364  0.1435 -1.7250
 3535SOL     OW19475   4.092   2.549   3.969 -0.8637  0.7324 -0.0508
 3535SOL    HW119476   4.166   2.615   3.957 -1.3191  1.3851  0.6093
 3535SOL    HW219477   4.076   2.499   3.884  0.4824  0.4271 -0.1271
 3538SOL     OW19478   4.072   7.530   3.585  0.3925  0.1525  0.1338
 3538SOL    HW119479   4.060   7.558   3.680 -1.0084  0.3026 -0.0870
 3538SOL    HW219480   3.985   7.536   3.536  0.5151 -2.4284 -0.4861
 3539SOL     OW19481   7.392   1.756   1.623  0.4209  0.1344 -0.0391
 3539SOL    HW119482   7.355   1.670   1.658  2.2473 -1.0234 -0.8660
 3539SOL    HW219483   7.387   1.756   1.523  0.8510  0.7778 -0.0598
 3540SOL     OW19484   4.245   9.426   3.165  0.7237 -0.0114  0.2077
 3540SOL    HW119485   4.281   9.404   3.075  1.7302 -0.5194  0.7209
 3540SOL    HW219486   4.152   9.461   3.156  0.0663 -1.9061 -0.8737
 3541SOL     OW19487   9.506   3.689   1.803  0.0075  0.6561  0.3403
 3541SOL    HW119488   9.484   3.604   1.756  0.4330  0.0031  1.3151
 3541SOL    HW219489   9.427   3.750   1.801  0.4632  1.2322 -2.4668
 3542SOL     OW19490   3.159   4.692   3.426 -0.0237 -0.3043  0.0119
 3542SOL    HW119491   3.223   4.649   3.489 -1.0245  1.6816  2.4434
 3542SOL    HW219492   3.068   4.651   3.436  0.0213 -0.6028 -0.7855
 3544SOL     OW19493   3.838   6.665   0.805  0.2438 -0.0025  0.4211
 3544SOL    HW119494   3.908   6.672   0.877  1.2019  1.1476 -0.5890
 3544SOL    HW219495   3.872   6.609   0.730 -0.6274 -0.9262  0.7092
 3545SOL     OW19496   8.049   8.270   4.873  0.0225 -0.1570  0.0503
 3545SOL    HW119497   7.980   8.343   4.874  1.3767  1.1523  0.5993
 3545SOL    HW219498   8.136   8.306   4.838  1.5042 -0.7324  2.9581
 3546SOL     OW19499   1.473   0.317   3.303 -0.2301  0.0252 -0.6152
 3546SOL    HW119500   1.383   0.359   3.289  0.1215  0.5230 -1.4317
 3546SOL    HW219501   1.488   0.246   3.235 -0.0368 -0.1102 -0.4328
 3549SOL     OW19502   1.659   3.751   2.755  0.1095  0.2637 -0.0015
 3549SOL    HW119503   1.646   3.828   2.692 -1.4249 -0.2933 -0.3911
 3549SOL    HW219504   1.755   3.725   2.758  0.5013  1.6218 -0.5467
 3550SOL     OW19505   9.199   1.276   0.219  0.1791  0.6420  0.8178
 3550SOL    HW119506   9.153   1.337   0.284  2.3793  1.1696  1.9130
 3550SOL    HW219507   9.283   1.318   0.187 -0.7853  0.3221 -2.3389
 3551SOL     OW19508   8.695   5.004   4.386 -0.3322 -0.7621 -0.5058
 3551SOL    HW119509   8.783   5.027   4.428 -1.0658 -0.6352  0.9798
 3551SOL    HW219510   8.711   4.943   4.308  1.1652  0.2102 -0.9824
 3552SOL     OW19511   7.009   4.747   1.492  0.3366 -0.2533 -0.3777
 3552SOL    HW119512   6.956   4.669   1.457  1.6816 -1.0914 -0.6018
 3552SOL    HW219513   7.032   4.732   1.588  1.1324 -0.4433 -0.5910
 3553SOL     OW19514   7.269   7.484   4.538 -0.8309  0.2368 -0.3404
 3553SOL    HW119515   7.258   7.412   4.470 -1.1970 -0.0396  0.0060
 3553SOL    HW219516   7.366   7.494   4.562 -0.6995  0.3564 -0.9200
 3554SOL     OW19517   2.493   3.951   4.928 -0.4262 -0.1977  0.2942
 3554SOL    HW119518   2.448   3.985   4.846 -0.1936 -1.7394 -0.4997
 3554SOL    HW219519   2.562   3.883   4.902 -0.5469 -0.9011  1.7720
 3555SOL     OW19520   8.361   5.145   2.311 -0.5493  0.4386  0.5578
 3555SOL    HW119521   8.456   5.174   2.307  0.0860 -1.7361 -0.8990
 3555SOL    HW219522   8.356   5.047   2.328 -2.5268  0.5346  0.6771
 3556SOL     OW19523   4.774   4.774   1.801  0.4398 -0.3857 -0.3767
 3556SOL    HW119524   4.705   4.744   1.735  0.2744  0.2792 -0.5081
 3556SOL    HW219525   4.858   4.721   1.787 -0.2570 -1.6891  0.2433
 3557SOL     OW19526   9.495   9.122   4.699  0.0379  0.0103  0.4806
 3557SOL    HW119527   9.534   9.056   4.634  1.7424 -0.3846  1.8528
 3557SOL    HW219528   9.547   9.207   4.696 -0.2733  0.2191  0.8689
 3558SOL     OW19529   3.732   7.824   3.960  0.3008  0.3318 -0.0524
 3558SOL    HW119530   3.825   7.844   3.991  0.5104 -1.7711  0.7584
 3558SOL    HW219531   3.736   7.762   3.882 -0.4601 -0.5084  0.5803
 3560SOL     OW19532   2.592   9.821   0.331  0.5109  0.1075 -0.8633
 3560SOL    HW119533   2.512   9.823   0.391  1.9185  1.1189  1.0218
 3560SOL    HW219534   2.598   9.731   0.287  0.1797 -1.0935  1.4983
 3561SOL     OW19535   9.522   9.424   2.221 -0.1660  0.1921 -0.1416
 3561SOL    HW119536   9.471   9.339   2.229 -0.0973  0.1901  0.2489
 3561SOL    HW219537   9.564   9.447   2.309 -2.4320  2.0394  0.5043
 3562SOL     OW19538   6.482   7.384   4.820 -0.5040  0.1676 -0.0946
 3562SOL    HW119539   6.553   7.449   4.845 -1.0895  0.4886  0.7558
 3562SOL    HW219540   6.399   7.433   4.793  0.4634 -0.1088 -3.9505
 3563SOL     OW19541   1.329   3.227   5.306 -0.2450 -0.0488 -0.3392
 3563SOL    HW119542   1.311   3.210   5.209 -1.6937  0.0219 -0.0901
 3563SOL    HW219543   1.399   3.163   5.339  1.1563  0.7293 -1.7213
 3564SOL     OW19544   3.671   4.392   2.624 -0.0227  0.4221  0.5813
 3564SOL    HW119545   3.617   4.323   2.673  0.9708  0.1306  1.2629
 3564SOL    HW219546   3.681   4.473   2.681  0.2267  0.4957  0.4319
 3566SOL     OW19547   9.359   8.941   2.328  0.6754  0.5659 -0.1888
 3566SOL    HW119548   9.343   9.017   2.391  1.1991  0.5241 -0.0049
 3566SOL    HW219549   9.397   8.863   2.378  0.8910  0.4600 -0.5145
 3567SOL     OW19550   8.827   7.176   3.365 -0.0956 -0.3351  0.1100
 3567SOL    HW119551   8.890   7.248   3.335 -1.2423 -0.0803 -1.7775
 3567SOL    HW219552   8.792   7.199   3.456 -0.2015  1.3335 -0.3360
 3568SOL     OW19553   4.148   9.831   0.551  0.0844  0.1457 -0.2704
 3568SOL    HW119554   4.117   9.912   0.500  0.5260 -0.3206 -1.2999
 3568SOL    HW219555   4.070   9.792   0.601 -0.4332  0.4380 -0.8332
 3571SOL     OW19556   1.033   1.463   1.371 -0.0112 -0.5157 -0.1229
 3571SOL    HW119557   0.999   1.439   1.462 -0.5437  0.9185  0.0705
 3571SOL    HW219558   0.982   1.541   1.335  2.5224  1.2300 -0.1413
 3572SOL     OW19559   0.217   7.483   4.338  0.1842 -0.0020 -0.0502
 3572SOL    HW119560   0.129   7.437   4.352  0.4252  0.2227  2.3537
 3572SOL    HW219561   0.206   7.581   4.352  0.7800  0.0435  0.1145
 3573SOL     OW19562   4.354   0.404   2.140 -0.1168 -0.1171  0.4088
 3573SOL    HW119563   4.374   0.476   2.073  1.4388  0.0105  0.9892
 3573SOL    HW219564   4.258   0.409   2.167 -0.5629  0.3490 -1.2010
 3575SOL     OW19565   2.751   2.858   1.043 -0.5857  0.3295 -0.4667
 3575SOL    HW119566   2.843   2.849   1.081 -0.8846 -1.2081 -0.0660
 3575SOL    HW219567   2.749   2.815   0.952 -0.5217  1.7413 -1.1489
 3576SOL     OW19568   2.205   0.197   1.224 -0.6842  0.0420  0.0582
 3576SOL    HW119569   2.137   0.139   1.180  1.8992 -1.8767 -1.5390
 3576SOL    HW219570   2.296   0.157   1.212  0.8069  2.7653  1.7442
 3577SOL     OW19571   5.715   8.732   4.745 -0.0644  0.5920 -0.1690
 3577SOL    HW119572   5.676   8.647   4.779 -0.5265  1.2433  0.9418
 3577SOL    HW219573   5.744   8.789   4.822 -0.1728  1.6379 -0.8906
 3578SOL     OW19574   9.876   3.217   2.629  0.0872  0.1175  0.0639
 3578SOL    HW119575   9.863   3.126   2.590 -0.7927 -0.8753  2.5638
 3578SOL    HW219576   9.799   3.275   2.601 -1.5589 -1.1383  1.7864
 3579SOL     OW19577   8.666   5.942   5.184 -0.0798  0.2590 -0.4697
 3579SOL    HW119578   8.748   5.926   5.129 -1.1877  1.4650 -2.5184
 3579SOL    HW219579   8.687   6.006   5.257  1.3071 -1.0612  0.3339
 3582SOL     OW19580   2.299   9.085   4.617 -0.3739 -0.5575  0.9593
 3582SOL    HW119581   2.353   9.138   4.682 -1.0514 -0.1211  1.1632
 3582SOL    HW219582   2.206   9.122   4.611 -0.6392 -1.2662  0.5624
 3583SOL     OW19583   3.398   6.276   2.182  0.4370 -0.1161  0.0172
 3583SOL    HW119584   3.439   6.271   2.273  2.2044 -1.7138 -0.8402
 3583SOL    HW219585   3.417   6.192   2.131  0.1459  1.0446 -2.1091
 3584SOL     OW19586   7.819   7.834   3.304 -0.3727 -0.1588 -0.1748
 3584SOL    HW119587   7.755   7.879   3.366 -0.4368 -0.9219  0.3146
 3584SOL    HW219588   7.769   7.782   3.235 -0.2774 -1.1327  0.4882
 3585SOL     OW19589   0.651   9.190   2.657  0.1934  0.0013 -0.1799
 3585SOL    HW119590   0.707   9.111   2.684 -0.1925 -0.2714 -0.1666
 3585SOL    HW219591   0.559   9.159   2.632  0.2188  0.3818 -0.7504
 3586SOL     OW19592   5.792   8.982   2.201  0.0028  0.0217 -0.2729
 3586SOL    HW119593   5.830   8.957   2.290 -0.0820 -0.2869 -0.3205
 3586SOL    HW219594   5.699   8.946   2.194 -0.8680  2.0669  0.4511
 3587SOL     OW19595   3.176   1.275   4.275  0.2142  0.1375  0.2205
 3587SOL    HW119596   3.204   1.370   4.290  1.6759 -0.2946  0.2779
 3587SOL    HW219597   3.103   1.253   4.339  1.0532  0.7086  1.4037
 3588SOL     OW19598   5.524   7.805   2.217  0.0824  0.8340  0.2824
 3588SOL    HW119599   5.570   7.717   2.223 -0.1713  0.6271 -0.8099
 3588SOL    HW219600   5.591   7.879   2.220  0.3711  0.5748  0.1435
 3589SOL     OW19601   8.559   9.074   0.642 -0.4128  0.0186  0.6156
 3589SOL    HW119602   8.643   9.125   0.655 -2.7391  3.9231  1.2449
 3589SOL    HW219603   8.534   9.075   0.545 -0.1805 -0.4283  0.5489
 3590SOL     OW19604   2.631   7.471   2.463  0.0536  0.2579 -0.0201
 3590SOL    HW119605   2.557   7.436   2.404  0.0829 -1.0965  0.7304
 3590SOL    HW219606   2.666   7.397   2.519  1.2863  1.1457  0.3863
 3591SOL     OW19607   0.277   7.148   3.680  0.3518 -0.6616  0.5583
 3591SOL    HW119608   0.318   7.155   3.589  0.3074  2.5735  0.7199
 3591SOL    HW219609   0.183   7.181   3.676  0.6423  0.3756  1.9497
 3592SOL     OW19610   0.223   4.244   4.852  0.2857 -0.2449  0.4121
 3592SOL    HW119611   0.219   4.344   4.842 -0.6137 -0.5725 -2.9976
 3592SOL    HW219612   0.139   4.213   4.897  0.7030  0.5258  1.7759
 3594SOL     OW19613   8.712   8.797   4.171 -0.1498 -0.0099 -0.0810
 3594SOL    HW119614   8.656   8.775   4.091  0.1778 -0.8410 -0.0887
 3594SOL    HW219615   8.686   8.738   4.248 -0.8078  1.1323  0.5875
 3595SOL     OW19616   2.866   5.494   2.108 -0.2834 -0.7308 -0.2552
 3595SOL    HW119617   2.818   5.527   2.027 -0.5157  0.4409  0.3442
 3595SOL    HW219618   2.836   5.401   2.129 -2.7762  0.1808  0.4464
 3596SOL     OW19619   4.814   3.222   5.254  0.4522  0.3393  0.1604
 3596SOL    HW119620   4.847   3.250   5.344  0.5700  1.8337 -0.3446
 3596SOL    HW219621   4.858   3.276   5.183 -0.2111 -0.3038 -0.7605
 3597SOL     OW19622   1.217   5.713   2.482 -0.3744  0.4367  0.7257
 3597SOL    HW119623   1.224   5.788   2.417  2.6223 -0.1052  0.3526
 3597SOL    HW219624   1.122   5.706   2.515 -1.5061  1.9762 -2.0327
 3598SOL     OW19625   0.444   1.589   4.245 -0.2914  0.0987  0.1139
 3598SOL    HW119626   0.410   1.615   4.335 -1.7049 -0.2411 -0.3139
 3598SOL    HW219627   0.368   1.555   4.189  0.4774  0.7572 -1.3670
 3599SOL     OW19628   3.093   7.181   1.953 -0.0100  0.0309 -0.0606
 3599SOL    HW119629   3.088   7.132   2.040  1.2531 -0.9778 -0.5556
 3599SOL    HW219630   3.188   7.195   1.927 -0.3491  1.9422 -0.3896
 3600SOL     OW19631   9.481   8.896   1.277  0.4710 -0.3640  0.3582
 3600SOL    HW119632   9.418   8.934   1.344 -0.2375  0.3393 -0.6955
 3600SOL    HW219633   9.568   8.874   1.322 -0.3895 -1.0389  1.7551
 3602SOL     OW19634   8.093   1.206   3.687 -0.1155 -0.6910  0.3959
 3602SOL    HW119635   8.072   1.116   3.650  0.9268 -1.4273  1.5588
 3602SOL    HW219636   8.043   1.220   3.773 -0.1316 -0.2363  0.3154
 3603SOL     OW19637   8.597   2.645   1.641 -0.2706  0.6323  0.0848
 3603SOL    HW119638   8.594   2.739   1.608 -2.9935  0.7237  0.4622
 3603SOL    HW219639   8.540   2.587   1.582 -3.5144  0.4222  3.2422
 3604SOL     OW19640   4.012   4.415   4.563 -0.2089 -0.9543  0.3393
 3604SOL    HW119641   3.921   4.377   4.580 -0.4733 -0.2024  0.6395
 3604SOL    HW219642   4.007   4.515   4.562  0.1659 -0.9281 -2.1906
 3605SOL     OW19643   3.320   0.294   3.476  0.1115  0.0087 -0.1100
 3605SOL    HW119644   3.270   0.230   3.417 -0.9173  1.1404 -0.4750
 3605SOL    HW219645   3.410   0.312   3.435 -0.2057  0.0041 -0.8214
 3606SOL     OW19646   8.803   9.884   4.261  0.1905  0.2395  0.0939
 3606SOL    HW119647   8.719   9.918   4.303 -0.8439 -1.5894 -0.4068
 3606SOL    HW219648   8.796   9.785   4.249  1.0100  0.4982 -3.0484
 3608SOL     OW19649   8.206   6.845   0.833 -0.2971  0.8220  0.5353
 3608SOL    HW119650   8.212   6.847   0.733 -0.6752  0.8413  0.5107
 3608SOL    HW219651   8.236   6.932   0.870 -1.5264  1.3306  0.3581
 3609SOL     OW19652   2.901   2.571   2.279 -0.6390  0.3365  0.1214
 3609SOL    HW119653   2.816   2.527   2.250  0.3224 -0.2144 -1.9029
 3609SOL    HW219654   2.972   2.557   2.210  1.2465  0.3868  1.9894
 3610SOL     OW19655   7.209   8.212   2.807  0.0337  0.5939  0.1993
 3610SOL    HW119656   7.152   8.214   2.889 -1.3633 -0.0042 -0.7398
 3610SOL    HW219657   7.214   8.303   2.767 -0.7638  0.5386 -0.0371
 3611SOL     OW19658   3.912   8.833   2.385 -0.5196  0.6251  0.2313
 3611SOL    HW119659   3.983   8.868   2.447  1.0528 -1.5121 -0.2749
 3611SOL    HW219660   3.823   8.871   2.410  0.0143 -0.4646  4.0410
 3612SOL     OW19661   2.265   1.373   0.474 -0.3606  0.0718 -0.3423
 3612SOL    HW119662   2.263   1.286   0.524 -0.7590  1.1661  1.6195
 3612SOL    HW219663   2.332   1.367   0.400  0.6187 -1.4700  0.6238
 3613SOL     OW19664   2.630   8.630   0.582  0.1218 -0.1895 -0.1742
 3613SOL    HW119665   2.713   8.579   0.603 -0.1045 -0.0907  1.0052
 3613SOL    HW219666   2.651   8.703   0.517  1.5090  1.4924  2.0987
 3614SOL     OW19667   2.238   8.801   4.704  0.2259  0.4513 -0.7993
 3614SOL    HW119668   2.334   8.778   4.723 -0.0406 -0.6127 -0.6803
 3614SOL    HW219669   2.233   8.891   4.662  1.1977  0.9687  0.1578
 3615SOL     OW19670   1.527   3.323   3.259 -0.3315 -0.5086 -0.0936
 3615SOL    HW119671   1.515   3.376   3.175 -0.3751  0.5367  0.5602
 3615SOL    HW219672   1.538   3.226   3.237 -1.4266 -0.3777 -1.2234
 3617SOL     OW19673   2.556   5.833   2.393 -0.3919 -0.0420 -0.1475
 3617SOL    HW119674   2.538   5.914   2.337 -0.5167 -0.6135 -0.9561
 3617SOL    HW219675   2.557   5.858   2.489 -1.0109  0.8163 -0.3586
 3618SOL     OW19676   7.728   0.948   2.423  0.1853  0.2073 -0.8060
 3618SOL    HW119677   7.694   0.950   2.517  0.7352  0.3462 -0.6093
 3618SOL    HW219678   7.701   0.862   2.379  0.4955 -0.1407 -0.3104
 3619SOL     OW19679   3.656   3.240   4.521 -0.4644 -0.2292  0.1694
 3619SOL    HW119680   3.697   3.320   4.563 -2.4050  0.5982  0.5377
 3619SOL    HW219681   3.568   3.264   4.481  0.1196 -1.5868 -2.0685
 3620SOL     OW19682   7.248   4.285   0.958  0.2343  0.7126  0.5701
 3620SOL    HW119683   7.254   4.207   0.897  2.3623 -0.0528  1.7017
 3620SOL    HW219684   7.336   4.332   0.962 -0.3852  1.8257  1.6337
 3621SOL     OW19685   2.100   4.453   0.831 -0.2882  0.7459 -0.1495
 3621SOL    HW119686   2.194   4.417   0.834 -0.1103  1.1854 -0.3990
 3621SOL    HW219687   2.101   4.551   0.853 -0.8492  0.4690  1.1659
 3622SOL     OW19688   6.687   8.267   2.412 -0.3478 -0.0563  0.7125
 3622SOL    HW119689   6.700   8.355   2.367  0.5605 -0.2023  0.6764
 3622SOL    HW219690   6.706   8.276   2.510 -0.6437 -0.1259  0.7785
 3623SOL     OW19691   3.004   3.602   1.127 -0.2115 -0.2125 -0.0549
 3623SOL    HW119692   3.012   3.529   1.194 -0.8324  0.7843  1.1360
 3623SOL    HW219693   2.913   3.598   1.084 -0.8478  0.7993  1.1592
 3624SOL     OW19694   0.777   6.700   4.701  0.3718  0.2445 -0.7849
 3624SOL    HW119695   0.682   6.724   4.678  0.5319  0.6673 -1.0145
 3624SOL    HW219696   0.803   6.745   4.786 -0.1715 -1.2011  0.1665
 3625SOL     OW19697   1.441   6.052   3.850  0.4188 -0.0457  0.2311
 3625SOL    HW119698   1.503   6.123   3.817 -0.7381  1.1919  0.6993
 3625SOL    HW219699   1.361   6.094   3.892  0.1602 -1.6178  1.3684
 3626SOL     OW19700   2.008   3.265   0.623  0.4873 -0.0645 -0.1938
 3626SOL    HW119701   1.989   3.168   0.639  0.5626 -0.1546 -0.6504
 3626SOL    HW219702   2.107   3.278   0.618  0.6930  0.6757  3.9694
 3627SOL     OW19703   0.606   7.474   0.119  0.6079 -0.3871 -0.0245
 3627SOL    HW119704   0.569   7.567   0.126 -0.8562 -0.8493 -1.2139
 3627SOL    HW219705   0.690   7.476   0.065  0.8777  0.3255  0.4184
 3628SOL     OW19706   0.802   0.667   0.059  0.5251  0.1516 -0.4462
 3628SOL    HW119707   0.709   0.663   0.023  0.9432  0.9688 -1.6324
 3628SOL    HW219708   0.848   0.580   0.039 -0.5917 -1.0041  1.8654
 3629SOL     OW19709   2.275   2.541   0.842 -0.5117  0.0240 -0.6164
 3629SOL    HW119710   2.339   2.565   0.769  0.7486  1.7488  0.9790
 3629SOL    HW219711   2.194   2.599   0.835  0.4179  1.4989  0.3899
 3630SOL     OW19712   2.071   1.081   3.114 -0.3343  0.0796  0.0146
 3630SOL    HW119713   2.044   1.008   3.051 -0.6655 -1.0509  1.4342
 3630SOL    HW219714   2.030   1.168   3.084  2.5279  0.3397 -3.4047
 3632SOL     OW19715   0.670   1.522   3.327  0.1873  0.7455 -0.4130
 3632SOL    HW119716   0.691   1.425   3.316  0.7613  0.9225 -0.9763
 3632SOL    HW219717   0.713   1.557   3.410 -2.0129 -0.0252  1.0555
 3633SOL     OW19718   9.789   4.241   4.085  0.5922  0.8147 -0.2062
 3633SOL    HW119719   9.807   4.161   4.142 -0.0354  0.2984 -0.7276
 3633SOL    HW219720   9.729   4.304   4.135  2.6062  1.8582  0.9490
 3636SOL     OW19721   9.708   1.911   1.196 -0.3415  0.3422 -0.2863
 3636SOL    HW119722   9.638   1.857   1.150 -0.1549  2.2678 -2.9130
 3636SOL    HW219723   9.721   1.997   1.148  2.3277  0.9520  1.4200
 3637SOL     OW19724   3.346   5.077   0.587  0.4615  0.1361  0.0920
 3637SOL    HW119725   3.402   5.023   0.650 -0.6162  0.2008  1.1170
 3637SOL    HW219726   3.260   5.029   0.570  0.3244  0.6029 -0.5642
 3638SOL     OW19727   4.707   0.228   0.838  0.3288 -0.4074 -0.6059
 3638SOL    HW119728   4.693   0.134   0.806  1.1541 -0.6181 -0.3631
 3638SOL    HW219729   4.633   0.286   0.804 -0.7315 -1.3412  0.0470
 3639SOL     OW19730   7.741   1.601   4.294  0.1618  0.2859 -0.3740
 3639SOL    HW119731   7.695   1.562   4.214  2.8406 -0.7099 -1.4808
 3639SOL    HW219732   7.734   1.701   4.291 -4.1837  0.1275  0.9141
 3640SOL     OW19733   6.480   1.607   4.334  0.3440 -0.2279 -0.5651
 3640SOL    HW119734   6.388   1.642   4.350  0.8114 -0.1508  2.0601
 3640SOL    HW219735   6.482   1.560   4.245 -2.5415 -1.3218 -0.1078
 3641SOL     OW19736   9.510   4.569   2.610  0.2049 -0.4372 -0.6260
 3641SOL    HW119737   9.601   4.536   2.635 -0.1625 -0.4894  0.7062
 3641SOL    HW219738   9.486   4.537   2.519  0.3235 -2.8742  0.1679
 3642SOL     OW19739   8.923   6.406   4.621 -0.1557 -0.2550 -0.2378
 3642SOL    HW119740   8.858   6.361   4.681 -2.5753  1.3104 -1.5953
 3642SOL    HW219741   8.928   6.356   4.534 -0.4255  0.2564 -0.5521
 3643SOL     OW19742   8.060   9.388   1.464 -0.1119 -0.0945 -0.3497
 3643SOL    HW119743   8.150   9.404   1.502 -0.2078 -1.5215  0.4963
 3643SOL    HW219744   8.030   9.469   1.413  1.5302  0.4634 -0.4340
 3644SOL     OW19745   4.506   4.430   0.531 -0.3176  0.0050 -0.2818
 3644SOL    HW119746   4.424   4.425   0.474 -0.0580 -1.5691 -0.5292
 3644SOL    HW219747   4.496   4.369   0.610 -1.5222  3.6188  2.5269
 3645SOL     OW19748   9.496   9.877   0.547  0.0853  0.1738 -0.1378
 3645SOL    HW119749   9.579   9.824   0.530  0.6001  0.8519  0.2169
 3645SOL    HW219750   9.467   9.921   0.462  0.8232  0.9680  0.0197
 3646SOL     OW19751   0.555   0.487   3.523  0.0365  0.7583 -0.0608
 3646SOL    HW119752   0.590   0.501   3.615  0.6152  0.8020 -0.2873
 3646SOL    HW219753   0.604   0.413   3.478 -0.6752  0.3110 -0.1123
 3648SOL     OW19754   0.772   5.214   2.930 -0.2325  0.1209 -0.0964
 3648SOL    HW119755   0.840   5.247   2.995 -2.0360  1.9780  0.9065
 3648SOL    HW219756   0.786   5.116   2.913  0.6321 -0.2597  2.6292
 3649SOL     OW19757   3.018   3.525   2.959  0.4186 -0.9226  0.2885
 3649SOL    HW119758   3.041   3.453   2.894 -1.3400  0.1739 -1.6334
 3649SOL    HW219759   3.087   3.529   3.031  3.9452 -0.4470 -2.9666
 3651SOL     OW19760   0.038   3.942   4.504  0.3840 -0.3272 -0.1756
 3651SOL    HW119761   0.059   4.039   4.513 -1.5394  0.1679 -0.6352
 3651SOL    HW219762   0.108   3.897   4.449  0.6063  1.0756 -1.0629
 3652SOL     OW19763   4.234   3.528   2.903 -0.1466  0.0412  0.4162
 3652SOL    HW119764   4.179   3.592   2.849 -0.7263  0.6972  1.7405
 3652SOL    HW219765   4.260   3.450   2.847  0.0239  1.1228 -1.0555
 3654SOL     OW19766   0.193   0.474   2.116  0.7719  0.0593 -0.1006
 3654SOL    HW119767   0.142   0.512   2.193 -3.0376  0.2963 -2.6463
 3654SOL    HW219768   0.178   0.531   2.035  2.8696 -1.4692 -1.6122
 3655SOL     OW19769   8.917   7.503   1.694  0.0237  0.0004  0.2095
 3655SOL    HW119770   8.969   7.588   1.696  0.2012 -0.1288  1.4032
 3655SOL    HW219771   8.851   7.502   1.770 -0.8374 -0.3808 -0.5350
 3656SOL     OW19772   9.474   3.861   0.799  0.2779 -0.7384 -0.3481
 3656SOL    HW119773   9.418   3.799   0.855  1.6321 -3.1097 -1.5273
 3656SOL    HW219774   9.571   3.841   0.815  0.7060  0.3614 -1.5521
 3657SOL     OW19775   4.938   8.517   4.925  0.3177 -0.2492  0.4319
 3657SOL    HW119776   4.892   8.594   4.969 -0.7604 -0.8785  0.4085
 3657SOL    HW219777   4.936   8.528   4.826  0.3036 -0.2333  0.4342
 3658SOL     OW19778   2.556   3.546   1.179 -0.1661  0.3995  0.4386
 3658SOL    HW119779   2.476   3.587   1.135 -0.1476  0.3064  0.3144
 3658SOL    HW219780   2.573   3.589   1.267  0.5473  1.4525 -0.2015
 3659SOL     OW19781   9.824   2.137   1.761 -0.7296  0.4384 -0.1829
 3659SOL    HW119782   9.816   2.142   1.860 -2.4823 -0.4445 -0.2592
 3659SOL    HW219783   9.836   2.041   1.733 -0.1215  0.6946 -0.8107
 3660SOL     OW19784   4.315   9.034   5.251  0.2243  0.2530 -0.1555
 3660SOL    HW119785   4.373   9.032   5.332  0.6203  1.9188 -0.3634
 3660SOL    HW219786   4.370   9.065   5.172 -0.9327  1.9311 -0.3388
 3661SOL     OW19787   5.492   6.958   2.470 -0.2347  0.3857 -0.5000
 3661SOL    HW119788   5.483   7.027   2.542  0.3060  0.6360 -0.6678
 3661SOL    HW219789   5.485   6.867   2.510  0.4091  0.5194 -0.0783
 3662SOL     OW19790   1.589   0.006   2.661  0.3319 -0.3287  0.0370
 3662SOL    HW119791   1.629  -0.079   2.628 -0.4492  0.0331 -1.9567
 3662SOL    HW219792   1.490  -0.004   2.667  0.1151  0.7519 -1.3235
 3663SOL     OW19793   4.478   4.952   2.064 -0.4118  0.6616 -0.1662
 3663SOL    HW119794   4.440   4.970   1.973  0.5709 -0.4682 -0.8052
 3663SOL    HW219795   4.529   5.032   2.095  1.1127  0.2396 -1.5508
 3664SOL     OW19796   0.322   1.719   1.734  0.2599  0.0904 -0.3999
 3664SOL    HW119797   0.292   1.802   1.687  0.7485  1.3849  1.5102
 3664SOL    HW219798   0.242   1.664   1.759 -0.1459  0.5717 -0.6299
 3665SOL     OW19799   1.957   6.675   2.643  0.3621  0.1044 -0.3024
 3665SOL    HW119800   1.867   6.713   2.664  0.1664  2.0606 -4.2093
 3665SOL    HW219801   2.021   6.699   2.716 -2.4632 -2.4301  3.2076
 3666SOL     OW19802   9.289   9.813   0.740 -0.0729  0.0762  0.1828
 3666SOL    HW119803   9.222   9.887   0.749  0.1887  0.3173  0.1555
 3666SOL    HW219804   9.346   9.829   0.659  0.2501  0.0629  0.4057
 3668SOL     OW19805   3.972   5.881   1.363 -0.2107  0.0355 -0.0725
 3668SOL    HW119806   3.945   5.801   1.416  1.8291 -0.4029  0.3320
 3668SOL    HW219807   3.949   5.964   1.414 -1.0064 -0.3211  0.1468
 3671SOL     OW19808   4.492   2.963   4.634  0.3365  0.4549  0.0477
 3671SOL    HW119809   4.514   2.935   4.541  0.5291  1.1342 -0.1132
 3671SOL    HW219810   4.576   2.974   4.686  0.2705  0.8808  0.0663
 3672SOL     OW19811   3.835   2.273   2.068  0.3566  0.1180 -0.3817
 3672SOL    HW119812   3.822   2.176   2.088 -0.2606  0.4434  0.8522
 3672SOL    HW219813   3.912   2.308   2.121 -0.7028  0.7677  0.7757
 3673SOL     OW19814   0.164   5.676   4.572  0.4157  0.1652 -0.1314
 3673SOL    HW119815   0.111   5.756   4.544 -2.4810 -2.2862 -2.1427
 3673SOL    HW219816   0.122   5.635   4.653  1.5466  0.4019  0.5665
 3674SOL     OW19817   5.227   9.708   1.045  0.4698  0.2238  0.1209
 3674SOL    HW119818   5.146   9.701   1.103 -0.7771  1.4550 -1.4127
 3674SOL    HW219819   5.220   9.642   0.970  0.9890  0.1865  0.1065
 3675SOL     OW19820   7.654   1.498   5.295  0.0690 -0.6135 -0.4979
 3675SOL    HW119821   7.702   1.579   5.328  0.0420  0.4090 -2.8098
 3675SOL    HW219822   7.720   1.426   5.273 -0.0550 -2.1153  3.7118
 3676SOL     OW19823   0.376   3.519   1.410  0.4133 -0.5289  0.2748
 3676SOL    HW119824   0.406   3.580   1.484 -0.0012  0.1725 -0.1280
 3676SOL    HW219825   0.283   3.488   1.429  0.1657 -0.0469 -0.1375
 3678SOL     OW19826   1.894   4.550   3.285 -0.0631  0.0325 -0.6894
 3678SOL    HW119827   1.990   4.563   3.309  0.1330 -0.7879 -1.0085
 3678SOL    HW219828   1.842   4.527   3.368 -0.6117  3.6576  0.0835
 3679SOL     OW19829   1.665   4.460   0.736  0.6625  0.0317  0.2088
 3679SOL    HW119830   1.602   4.388   0.765  0.4678 -0.5474 -1.6103
 3679SOL    HW219831   1.679   4.455   0.637  1.7377  1.6251  0.2556
 3680SOL     OW19832   0.276   0.419   0.796 -0.5469  0.1488 -0.1939
 3680SOL    HW119833   0.367   0.413   0.835 -0.3211 -1.3287 -0.8789
 3680SOL    HW219834   0.281   0.401   0.697 -1.6232 -0.3938 -0.1575
 3681SOL     OW19835   7.505   1.988   1.760  0.5050  0.2430 -0.7148
 3681SOL    HW119836   7.596   1.985   1.720 -0.1175  0.1298 -2.1522
 3681SOL    HW219837   7.444   1.926   1.710 -0.2597 -0.0163  0.5011
 3682SOL     OW19838   2.179   4.362   1.323 -0.2513  0.5402  0.1980
 3682SOL    HW119839   2.198   4.327   1.414 -2.3340  1.0529  0.8721
 3682SOL    HW219840   2.242   4.321   1.257  0.8667 -0.3052  1.7664
 3683SOL     OW19841   8.982   8.569   3.466 -0.0695  0.3616 -0.2883
 3683SOL    HW119842   8.913   8.504   3.434  0.6563 -0.1331 -0.8707
 3683SOL    HW219843   8.996   8.558   3.564 -0.7454  0.4031 -0.1810
 3684SOL     OW19844   9.221   4.090   1.963  0.3627  0.0204  0.5125
 3684SOL    HW119845   9.176   4.087   1.873 -1.6445 -0.5194  1.5021
 3684SOL    HW219846   9.271   4.005   1.978 -0.9544 -0.7302  0.7164
 3686SOL     OW19847   0.078   5.557   4.831 -0.0385 -0.3625  0.3045
 3686SOL    HW119848   0.119   5.580   4.920  0.3340 -0.1454  0.0781
 3686SOL    HW219849   0.022   5.475   4.841 -0.9838  0.3541  1.0152
 3687SOL     OW19850   9.820   8.733   3.789 -0.1877 -0.1421 -0.4319
 3687SOL    HW119851   9.794   8.776   3.876  2.9297 -0.4437  0.7383
 3687SOL    HW219852   9.761   8.654   3.772 -1.1738  0.2173  1.1778
 3688SOL     OW19853   8.460   7.195   3.968  0.4482  0.5885 -0.1068
 3688SOL    HW119854   8.536   7.173   4.029  0.1952 -0.3335 -0.1125
 3688SOL    HW219855   8.398   7.259   4.015  1.4269  1.6475 -0.2589
 3689SOL     OW19856   7.993   3.030   0.027 -0.3585  0.1770  0.7186
 3689SOL    HW119857   7.909   3.068   0.066  0.0802 -0.2048  2.0564
 3689SOL    HW219858   8.062   3.021   0.099  0.9537  0.8255 -0.4415
 3690SOL     OW19859   9.781   3.752   1.859  0.3262 -0.1559  0.1077
 3690SOL    HW119860   9.827   3.829   1.903  0.7350 -0.0182 -0.5599
 3690SOL    HW219861   9.682   3.760   1.872  0.3683  0.4715  0.0512
 3694SOL     OW19862   8.924   2.800   1.353 -0.3022 -0.1978 -0.6333
 3694SOL    HW119863   8.878   2.711   1.359 -2.4813  0.9249 -0.2065
 3694SOL    HW219864   8.933   2.839   1.444 -1.9466  1.2875 -1.0898
 3695SOL     OW19865   8.527   4.053   3.153  0.0241  0.4320  0.0848
 3695SOL    HW119866   8.468   3.973   3.168 -0.6252  0.9120  0.0877
 3695SOL    HW219867   8.471   4.133   3.134  0.5947  1.2796  1.8415
 3696SOL     OW19868   0.871   9.079   3.717  0.1071 -0.6364  0.0605
 3696SOL    HW119869   0.907   9.153   3.775 -1.0659  0.1878 -0.2644
 3696SOL    HW219870   0.944   9.013   3.699  1.7813  1.5414 -1.4307
 3697SOL     OW19871   4.588   7.802   1.984  0.1320 -0.3289 -0.4249
 3697SOL    HW119872   4.507   7.859   1.972  0.3237 -0.0345 -0.3299
 3697SOL    HW219873   4.598   7.740   1.905  0.4647  0.4422 -0.9884
 3698SOL     OW19874   5.112   1.267   2.762  0.2106 -0.0951  0.0770
 3698SOL    HW119875   5.141   1.172   2.765 -0.3364 -0.2758 -0.2433
 3698SOL    HW219876   5.012   1.272   2.760  0.1810  0.5381  1.9071
 3699SOL     OW19877   7.824   3.769   0.938  0.4428 -0.4544 -0.1674
 3699SOL    HW119878   7.812   3.775   1.037  1.3621 -1.1630 -0.0002
 3699SOL    HW219879   7.778   3.846   0.894 -0.0995 -0.2169  0.7968
 3700SOL     OW19880   3.692   3.027   4.353 -0.3827  0.1991 -0.0582
 3700SOL    HW119881   3.683   3.091   4.430  0.1166 -0.2494  0.3785
 3700SOL    HW219882   3.763   3.060   4.291  0.2578 -0.2019  0.4487
 3702SOL     OW19883   8.156   7.683   3.502 -0.1533  0.5154  0.1114
 3702SOL    HW119884   8.143   7.622   3.424  0.8474  2.9341 -2.0334
 3702SOL    HW219885   8.162   7.778   3.470  0.4155  1.5738  3.1291
 3703SOL     OW19886   3.965   7.498   3.864  0.4023  0.3406 -0.3623
 3703SOL    HW119887   3.914   7.544   3.937  1.4473  0.1854  0.4751
 3703SOL    HW219888   4.061   7.490   3.890  0.5628 -0.7692 -1.2518
 3704SOL     OW19889   6.173   0.835   3.189  0.3099 -0.4578  0.6080
 3704SOL    HW119890   6.128   0.874   3.109 -1.1333 -1.3838  0.9518
 3704SOL    HW219891   6.152   0.890   3.270 -1.2982 -1.5868  0.9982
 3705SOL     OW19892   0.764   8.444   2.278 -0.5512  0.0383  0.0481
 3705SOL    HW119893   0.863   8.447   2.262 -0.5650 -0.1543 -0.0879
 3705SOL    HW219894   0.717   8.470   2.194 -0.6157  0.2345  0.1454
 3706SOL     OW19895   9.642   6.147   4.965  0.0731  0.5660 -0.1097
 3706SOL    HW119896   9.603   6.080   5.028  1.4639 -1.1506 -0.9876
 3706SOL    HW219897   9.596   6.141   4.876  2.2627 -1.5542 -1.1878
 3707SOL     OW19898   1.804   1.973   2.598  0.2700  0.9169 -0.4652
 3707SOL    HW119899   1.829   2.006   2.689 -2.4116  1.4604  0.1250
 3707SOL    HW219900   1.719   1.921   2.604  1.3418 -1.1188 -2.3085
 3709SOL     OW19901   4.188   2.248   5.310 -0.2644 -0.4443 -0.1493
 3709SOL    HW119902   4.215   2.231   5.216  0.0932  0.1034 -0.1510
 3709SOL    HW219903   4.131   2.173   5.343 -0.6297 -0.4990 -0.8935
 3711SOL     OW19904   6.938   8.143   3.723 -0.3118  0.7737  0.1295
 3711SOL    HW119905   6.938   8.075   3.796  1.1999  1.8255  1.1292
 3711SOL    HW219906   6.874   8.115   3.652 -0.1916 -1.3531  0.8304
 3712SOL     OW19907   7.519   1.097   0.486  0.0553 -0.7808  0.1842
 3712SOL    HW119908   7.525   1.058   0.394  1.4961  1.4184 -0.6995
 3712SOL    HW219909   7.447   1.167   0.487 -1.6166 -2.4838  1.4031
 3714SOL     OW19910   3.268   9.921   3.229  0.0340 -0.3618 -0.0870
 3714SOL    HW119911   3.226   9.997   3.279 -1.7193 -2.4277  1.6947
 3714SOL    HW219912   3.282   9.948   3.134 -0.8725  2.0639  0.4146
 3715SOL     OW19913   0.732   2.449   0.531 -0.1983  0.2490 -0.2098
 3715SOL    HW119914   0.781   2.536   0.527 -0.3729  0.3415 -0.3924
 3715SOL    HW219915   0.789   2.377   0.492  0.0137  0.2509  0.1014
 3717SOL     OW19916   8.337   6.262   0.164  0.0232  0.3834  0.0410
 3717SOL    HW119917   8.322   6.175   0.209 -0.8726  0.5637  0.1007
 3717SOL    HW219918   8.369   6.246   0.070 -0.7717 -0.0232 -0.1669
 3718SOL     OW19919   2.413   0.279   0.649  0.1337 -0.1715 -0.2734
 3718SOL    HW119920   2.487   0.344   0.665 -0.9298  1.4845 -1.7726
 3718SOL    HW219921   2.439   0.216   0.575  0.1358  0.3070 -0.6879
 3719SOL     OW19922   9.003   6.517   3.628 -0.5392  0.2764 -0.2038
 3719SOL    HW119923   8.952   6.584   3.575 -2.0094 -1.2567 -0.7713
 3719SOL    HW219924   8.977   6.523   3.724 -0.5927  0.5818 -0.2382
 3720SOL     OW19925   3.210   2.222   3.099 -0.3752 -0.2583 -0.1960
 3720SOL    HW119926   3.140   2.282   3.137 -0.2082 -0.4401  0.4084
 3720SOL    HW219927   3.213   2.137   3.151  0.2029 -0.3018 -0.2917
 3722SOL     OW19928   0.480   0.139   5.019  0.0002 -0.2759  0.3507
 3722SOL    HW119929   0.481   0.133   4.919 -1.9621 -2.0770  0.3967
 3722SOL    HW219930   0.436   0.057   5.056 -0.7581  1.1312  2.6241
 3723SOL     OW19931   3.442   7.729   1.034  0.5427  0.1523 -0.0325
 3723SOL    HW119932   3.480   7.728   1.127  1.6085  1.5821 -0.4277
 3723SOL    HW219933   3.430   7.635   1.002  0.9995 -0.3469  1.2209
 3724SOL     OW19934   0.443   5.190   2.307  0.8580  0.6022 -0.4118
 3724SOL    HW119935   0.344   5.208   2.304  1.0176  1.7249  0.8704
 3724SOL    HW219936   0.459   5.091   2.301 -0.4670  0.2129  2.0959
 3725SOL     OW19937   2.694   9.347   0.253 -0.1684 -0.4894 -0.2182
 3725SOL    HW119938   2.670   9.378   0.345 -1.6298  0.6706 -0.9783
 3725SOL    HW219939   2.740   9.259   0.259 -0.0704 -0.3308  1.6398
 3726SOL     OW19940   3.069   6.332   1.783 -0.2786  0.1480  0.4564
 3726SOL    HW119941   3.099   6.350   1.877  2.4141  3.0009 -0.8419
 3726SOL    HW219942   3.120   6.254   1.747  0.2988  0.4393  0.6363
 3727SOL     OW19943   3.077   5.390   1.212  0.1708 -0.0216  0.1040
 3727SOL    HW119944   3.053   5.304   1.166  0.7981  0.4172 -1.0482
 3727SOL    HW219945   3.009   5.460   1.190  0.5585  0.2336 -0.2903
 3728SOL     OW19946   9.832   2.961   0.337  0.1920 -0.2128  0.9767
 3728SOL    HW119947   9.903   3.004   0.394 -0.0398  1.5830 -0.0363
 3728SOL    HW219948   9.876   2.907   0.266  0.5419  0.1291  0.9278
 3729SOL     OW19949   8.005   6.075   2.415 -0.5617 -0.0366 -0.0620
 3729SOL    HW119950   8.007   6.016   2.496 -1.8362  0.1375  0.0919
 3729SOL    HW219951   8.075   6.044   2.350  0.8192  0.1202  1.3000
 3730SOL     OW19952   3.822   8.267   3.296  0.1201 -0.0492  0.4996
 3730SOL    HW119953   3.776   8.212   3.366 -0.2634  0.6082  0.7810
 3730SOL    HW219954   3.894   8.322   3.339  0.6996 -0.5532  0.1740
 3731SOL     OW19955   0.955   4.470   4.563 -0.2131 -0.7276  0.0613
 3731SOL    HW119956   0.903   4.384   4.558 -0.3436 -0.7236  1.3138
 3731SOL    HW219957   0.965   4.498   4.658  2.1533 -0.7488 -0.1514
 3732SOL     OW19958   3.383   9.294   3.749  1.4708 -0.2370  0.4580
 3732SOL    HW119959   3.296   9.298   3.699  1.8822  0.3479 -0.2246
 3732SOL    HW219960   3.407   9.386   3.782  0.9720 -0.6916  2.1445
 3733SOL     OW19961   8.814   5.854   4.455  1.1337  0.2692 -0.9193
 3733SOL    HW119962   8.789   5.941   4.497 -0.8052 -1.2191  1.1014
 3733SOL    HW219963   8.755   5.837   4.376  0.2945 -0.0342 -0.2374
 3734SOL     OW19964   8.908   1.268   2.814 -0.1793  0.0214 -0.0804
 3734SOL    HW119965   9.000   1.242   2.843  0.5620  1.4441 -1.1181
 3734SOL    HW219966   8.906   1.281   2.715 -1.6139 -0.4690 -0.1317
 3735SOL     OW19967   9.141   3.817   3.793  0.1150  0.0991 -0.3499
 3735SOL    HW119968   9.223   3.870   3.771  0.3230  0.0480  0.2782
 3735SOL    HW219969   9.153   3.774   3.883  0.0085 -1.1307 -0.9213
 3737SOL     OW19970   4.069   5.903   2.531  0.6151 -0.2449 -0.1475
 3737SOL    HW119971   4.163   5.891   2.499  0.3657 -0.2276 -0.8883
 3737SOL    HW219972   4.009   5.919   2.453 -0.2779 -2.0049  0.1517
 3738SOL     OW19973   6.349   6.977   4.356 -0.0901 -0.2237  0.4520
 3738SOL    HW119974   6.425   6.919   4.387  0.0996 -0.0016  0.4026
 3738SOL    HW219975   6.345   6.975   4.256  0.0002 -0.0414  0.4459
 3739SOL     OW19976   6.400   7.988   3.509  0.1359  0.2222  0.7123
 3739SOL    HW119977   6.406   8.064   3.444  0.1791  0.2308  0.7265
 3739SOL    HW219978   6.395   8.023   3.602 -1.6357  0.2637  0.6136
 3741SOL     OW19979   0.427   8.914   2.903  0.2889 -0.0803  0.3806
 3741SOL    HW119980   0.367   8.979   2.856  0.2596  0.1081  0.6748
 3741SOL    HW219981   0.395   8.821   2.886  0.6304 -0.0461 -0.4537
 3742SOL     OW19982   0.778   1.616   1.625  1.0400  0.3120  0.1164
 3742SOL    HW119983   0.864   1.663   1.643  1.3258 -0.1679  0.0158
 3742SOL    HW219984   0.797   1.521   1.599  0.4598  0.0947  0.4883
 3743SOL     OW19985   5.849   9.923   3.286  0.8510  0.2985 -0.5390
 3743SOL    HW119986   5.803   9.890   3.203  0.2798 -0.1405 -0.0500
 3743SOL    HW219987   5.926   9.863   3.307 -1.4920 -2.0916  1.5891
 3746SOL     OW19988   0.004   6.630   3.248 -0.8103  0.6638 -0.4717
 3746SOL    HW119989   0.048   6.630   3.158  0.1127 -0.9468 -0.0325
 3746SOL    HW219990  -0.095   6.639   3.237 -0.5712  2.0855 -1.5689
 3747SOL     OW19991   8.480   3.662   4.810 -0.2828 -0.7168  0.1336
 3747SOL    HW119992   8.478   3.592   4.882  1.3662 -0.2692  0.6518
 3747SOL    HW219993   8.507   3.750   4.849  0.3908 -0.4100 -0.9761
 3748SOL     OW19994   9.653   3.170   3.639  0.3061  0.4539 -0.1232
 3748SOL    HW119995   9.617   3.186   3.547 -0.3466  0.1716  0.0812
 3748SOL    HW219996   9.603   3.226   3.705 -0.0334 -0.2433  0.2160
 3749SOL     OW19997   9.559   0.319   4.961 -0.4384  0.5213 -0.0367
 3749SOL    HW119998   9.581   0.223   4.979 -1.0306  0.7166  1.8007
 3749SOL    HW219999   9.474   0.324   4.909  0.0416  0.0326 -0.8893
 3750SOL     OW20000   0.046   2.931   3.654 -0.4615 -0.3299  0.2475
 3750SOL    HW120001   0.123   2.920   3.717  0.5664 -0.6036 -1.0373
 3750SOL    HW220002   0.044   2.855   3.589  0.2453  1.4049 -1.8755
 3751SOL     OW20003   9.834   6.732   4.960  0.2785 -0.3751 -0.0414
 3751SOL    HW120004   9.922   6.690   4.935 -0.8417 -2.8221  0.0039
 3751SOL    HW220005   9.772   6.728   4.882  0.1926  1.3721 -0.0786
 3752SOL     OW20006   5.748   1.681   3.371  0.2890 -0.5620  0.7095
 3752SOL    HW120007   5.813   1.755   3.383 -1.1708  1.2155 -1.9355
 3752SOL    HW220008   5.794   1.601   3.333  1.0771  0.3793 -0.3114
 3754SOL     OW20009   4.709   5.189   3.520 -0.0824 -0.9503 -0.0342
 3754SOL    HW120010   4.732   5.102   3.565 -1.5842 -0.7998  1.0626
 3754SOL    HW220011   4.755   5.194   3.431  1.2808 -2.1650  0.5862
 3756SOL     OW20012   6.775   2.661   3.648  0.2304  0.2633 -0.2414
 3756SOL    HW120013   6.807   2.575   3.609 -1.8644 -0.3531 -0.7000
 3756SOL    HW220014   6.771   2.653   3.748  0.4818  0.0004 -0.2526
 3757SOL     OW20015   7.583   4.915   0.699 -0.2061  0.2045 -0.4659
 3757SOL    HW120016   7.598   4.936   0.603  2.1353 -2.2402 -0.6858
 3757SOL    HW220017   7.519   4.838   0.707 -0.5945  0.5669 -0.0663
 3758SOL     OW20018   5.190   8.795   5.238 -0.3301  0.1866  0.2786
 3758SOL    HW120019   5.169   8.705   5.201  0.6533  0.0513  0.0455
 3758SOL    HW220020   5.107   8.850   5.241 -0.9892 -0.8152  0.6693
 3759SOL     OW20021   8.835   3.209   4.068  0.1867  0.4390 -0.4782
 3759SOL    HW120022   8.806   3.133   4.126  1.2922 -0.4211 -1.0209
 3759SOL    HW220023   8.904   3.176   4.003  1.1314  2.0333 -0.3111
 3760SOL     OW20024   2.703   2.051   1.414 -0.1816  1.2096 -0.0220
 3760SOL    HW120025   2.758   2.111   1.355  0.8005  0.8814  0.5417
 3760SOL    HW220026   2.764   1.998   1.472 -1.0939  0.4293  0.2252
 3761SOL     OW20027   2.796   9.711   3.907 -0.7130 -0.1400  0.2429
 3761SOL    HW120028   2.774   9.639   3.841 -0.6919  0.0234  0.0578
 3761SOL    HW220029   2.813   9.670   3.997  0.3520 -0.4663 -0.1000
 3762SOL     OW20030   0.887   6.787   5.194  0.3747  0.4166 -0.4636
 3762SOL    HW120031   0.812   6.725   5.215  1.1240 -0.4389 -0.3022
 3762SOL    HW220032   0.873   6.874   5.241 -0.9448  0.5595 -1.1136
 3763SOL     OW20033   5.113   9.766   4.960  0.1696  0.3958  0.3771
 3763SOL    HW120034   5.204   9.778   4.920  0.6173 -1.0179  0.9391
 3763SOL    HW220035   5.090   9.848   5.013  0.3029  1.5516 -1.2980
 3764SOL     OW20036   3.675   8.161   0.739  0.3622 -0.0788 -0.4974
 3764SOL    HW120037   3.608   8.125   0.804 -1.4852 -1.1197 -2.8676
 3764SOL    HW220038   3.627   8.204   0.663  2.4793  1.5687 -0.9428
 3766SOL     OW20039   6.436   0.036   3.734 -0.2211  0.0039  0.7356
 3766SOL    HW120040   6.455   0.134   3.727 -0.1220 -0.0412  0.3389
 3766SOL    HW220041   6.469  -0.010   3.652  0.0427 -0.4115  1.0707
 3768SOL     OW20042   9.200   6.646   1.443 -1.2392  0.6646 -0.4349
 3768SOL    HW120043   9.236   6.653   1.536  1.1083 -1.4653 -1.1329
 3768SOL    HW220044   9.101   6.658   1.444 -0.9040  3.7048  1.9282
 3769SOL     OW20045   1.652   1.004   1.953 -0.4052  0.3535 -0.3403
 3769SOL    HW120046   1.702   1.088   1.932  1.0057 -0.5412 -0.6460
 3769SOL    HW220047   1.624   0.960   1.868  0.2493 -0.2929 -0.2285
 3770SOL     OW20048   2.230   0.454   4.741  1.0571 -0.0601  0.6354
 3770SOL    HW120049   2.196   0.415   4.655  2.7064 -0.6504  0.2352
 3770SOL    HW220050   2.171   0.531   4.768 -0.5994 -1.0554 -0.0152
 3771SOL     OW20051   1.445   4.113   2.029  0.1231  0.2418  0.1240
 3771SOL    HW120052   1.492   4.178   2.088 -0.8084  0.9303  0.1051
 3771SOL    HW220053   1.491   4.024   2.034  0.8369  0.6506  0.8547
 3772SOL     OW20054   5.038   1.695   2.205  0.1772  0.4431 -0.3477
 3772SOL    HW120055   4.949   1.740   2.203 -1.2604 -2.2616 -0.3777
 3772SOL    HW220056   5.081   1.701   2.115 -1.4627 -1.0057 -1.2577
 3774SOL     OW20057   4.304   2.555   1.772  0.3014 -0.1608  0.0956
 3774SOL    HW120058   4.291   2.459   1.796  1.3106 -0.9369 -2.2821
 3774SOL    HW220059   4.349   2.562   1.683  2.1374  2.5281  1.1452
 3775SOL     OW20060   9.125   9.048   4.198  0.3015 -0.2890 -0.2727
 3775SOL    HW120061   9.215   9.085   4.176 -0.5592  0.4618 -2.5884
 3775SOL    HW220062   9.089   9.095   4.279  0.1816  2.4413 -1.8556
 3776SOL     OW20063   6.414   1.437   0.988  0.4987 -0.3307  0.6327
 3776SOL    HW120064   6.444   1.347   1.021 -2.0690 -1.3245  0.3502
 3776SOL    HW220065   6.379   1.429   0.895  0.6415  1.0461  0.4540
 3777SOL     OW20066   9.238   9.158   3.859  0.0160 -0.8182  0.2947
 3777SOL    HW120067   9.148   9.115   3.856 -0.5256  0.3152 -0.3337
 3777SOL    HW220068   9.249   9.218   3.779  0.4787  0.6911  1.4531
 3778SOL     OW20069   2.787   5.355   1.396  0.4372  0.7999 -0.0158
 3778SOL    HW120070   2.743   5.440   1.368  1.0140  1.2270  0.3810
 3778SOL    HW220071   2.881   5.373   1.424  1.0110 -0.1753 -1.2661
 3781SOL     OW20072   2.099   0.077   0.849  0.0510 -0.0910  0.3420
 3781SOL    HW120073   2.010   0.034   0.833 -0.7935  1.9947 -0.7387
 3781SOL    HW220074   2.085   0.170   0.885  1.7188  0.9906 -1.6715
 3782SOL     OW20075   6.187   9.136   4.913 -0.2336 -0.0628 -0.3059
 3782SOL    HW120076   6.247   9.176   4.982 -0.5916 -0.8836  0.4853
 3782SOL    HW220077   6.093   9.165   4.929 -0.0790  1.1546 -1.4957
 3783SOL     OW20078   9.206   6.349   4.559  0.0083 -0.1297 -0.6815
 3783SOL    HW120079   9.113   6.379   4.579 -0.0697 -0.5061 -0.4745
 3783SOL    HW220080   9.270   6.424   4.578 -0.1128 -0.3173  0.5275
 3784SOL     OW20081   4.449   4.862   4.257 -0.1207  0.4998  0.2860
 3784SOL    HW120082   4.411   4.805   4.330  2.0871  2.5332  3.1379
 3784SOL    HW220083   4.405   4.952   4.259 -2.3520 -0.4092 -3.0696
 3785SOL     OW20084   2.826   7.535   1.601 -0.0993  0.1855  0.1984
 3785SOL    HW120085   2.866   7.477   1.672  0.5597  1.2429  0.6936
 3785SOL    HW220086   2.866   7.512   1.513 -0.7384 -0.9588  0.1940
 3786SOL     OW20087   4.692   1.089   3.252  0.3611 -0.6589  0.1267
 3786SOL    HW120088   4.659   1.176   3.288  0.0063 -0.4323 -0.7378
 3786SOL    HW220089   4.620   1.045   3.197  1.2170 -0.5202 -1.1409
 3787SOL     OW20090   9.189   1.282   4.513  0.0840  0.1529  0.4846
 3787SOL    HW120091   9.255   1.307   4.583  0.1414 -1.2605  0.9512
 3787SOL    HW220092   9.232   1.223   4.445 -0.3554  0.3033  0.0690
 3788SOL     OW20093   7.869   9.830   3.826  0.1395 -0.0293 -0.4732
 3788SOL    HW120094   7.941   9.764   3.848  1.1597  0.6241 -1.7900
 3788SOL    HW220095   7.898   9.886   3.749 -1.3289  0.9911 -0.2972
 3789SOL     OW20096   2.337   5.855   0.803 -0.5744  0.4915  0.4948
 3789SOL    HW120097   2.383   5.805   0.877  1.9417  0.5251 -1.0008
 3789SOL    HW220098   2.363   5.952   0.808 -1.7785  0.8169  0.5884
 3790SOL     OW20099   2.536   2.067   4.800 -0.2718  0.5875  0.1108
 3790SOL    HW120100   2.569   2.158   4.826  0.8264  0.2432 -0.0677
 3790SOL    HW220101   2.506   2.018   4.881  1.9358 -0.0016  0.5900
 3791SOL     OW20102   0.398   6.458   4.865 -0.1464 -0.4259 -0.3320
 3791SOL    HW120103   0.482   6.442   4.814  0.3337 -1.6942  0.8256
 3791SOL    HW220104   0.396   6.553   4.898  0.4168 -0.1441 -1.1064
 3792SOL     OW20105   1.855   7.338   0.551  0.1647 -0.0311  0.1135
 3792SOL    HW120106   1.761   7.363   0.527  0.3236  0.4231 -0.0549
 3792SOL    HW220107   1.919   7.394   0.497  0.5465 -1.6125 -1.1054
 3793SOL     OW20108   6.707   2.282   3.437  0.6561  0.1048  0.5260
 3793SOL    HW120109   6.750   2.273   3.527  0.3279  3.4617  1.1068
 3793SOL    HW220110   6.777   2.304   3.369  0.6145 -0.1559  0.4013
 3795SOL     OW20111   6.087   2.158   3.978  0.0135 -0.5812 -0.4595
 3795SOL    HW120112   6.016   2.101   4.020  1.0658 -1.1049  0.6235
 3795SOL    HW220113   6.058   2.185   3.886 -2.3075  0.5524  0.5578
 3796SOL     OW20114   9.976   7.923   3.149 -0.3866 -0.4031 -0.4303
 3796SOL    HW120115   9.904   7.896   3.085 -0.2546 -2.7694  0.3664
 3796SOL    HW220116  10.066   7.904   3.108 -0.1905  1.7201 -1.0665
 3799SOL     OW20117   8.983   7.505   3.588 -0.0639  0.2270 -0.0159
 3799SOL    HW120118   8.909   7.438   3.600  1.0459 -0.9358  0.3990
 3799SOL    HW220119   9.044   7.502   3.667 -0.3143  2.1498  0.2812
 3800SOL     OW20120   1.483   1.139   4.836  0.1357 -0.3304 -0.1419
 3800SOL    HW120121   1.563   1.111   4.889 -0.7822 -2.0866  0.3741
 3800SOL    HW220122   1.464   1.069   4.767  0.8501  1.5530 -2.3109
 3801SOL     OW20123   4.380   3.168   4.176  0.1073 -0.8967  0.0197
 3801SOL    HW120124   4.351   3.224   4.099 -0.4985  0.4209  1.1916
 3801SOL    HW220125   4.450   3.103   4.145  0.2607 -0.0320 -1.5103
 3802SOL     OW20126   9.916   5.437   2.068  0.5553 -0.1210 -0.3177
 3802SOL    HW120127   9.926   5.520   2.123  0.7067  0.0667 -0.6278
 3802SOL    HW220128  10.000   5.382   2.074 -0.0729 -0.9540  1.0345
 3803SOL     OW20129   8.134   5.854   3.025 -0.2158 -0.1422 -0.7200
 3803SOL    HW120130   8.213   5.822   2.974  0.6201 -0.5897  0.8034
 3803SOL    HW220131   8.155   5.940   3.070 -0.8844  0.1712 -0.9990
 3804SOL     OW20132   2.820   5.214   2.154 -0.4504  0.1382  0.1220
 3804SOL    HW120133   2.807   5.211   2.254  1.2030 -0.1074  0.3439
 3804SOL    HW220134   2.882   5.140   2.127 -0.6924  0.3686 -1.0586
 3805SOL     OW20135   0.019   2.190   4.945  0.2342 -0.3296 -0.1080
 3805SOL    HW120136   0.104   2.165   4.990  0.9133 -1.1466 -1.8047
 3805SOL    HW220137  -0.027   2.262   4.998  2.9072  1.5015 -0.1894
 3806SOL     OW20138   2.206   9.978   2.340  0.0010 -0.6592 -0.5931
 3806SOL    HW120139   2.224   9.998   2.244 -0.8722  0.6204 -0.5028
 3806SOL    HW220140   2.118   9.932   2.349  1.0160 -2.6769 -0.5836
 3807SOL     OW20141   6.082   0.851   5.289 -0.1310 -0.2819  0.1670
 3807SOL    HW120142   6.160   0.873   5.348 -1.8383  1.5509  1.8088
 3807SOL    HW220143   6.107   0.865   5.194  1.0786  1.9432  0.7706
 3808SOL     OW20144   9.208   8.917   3.052 -0.1438 -0.0752  0.0941
 3808SOL    HW120145   9.246   8.856   2.983  1.0557  1.1101 -0.3209
 3808SOL    HW220146   9.143   8.867   3.109  0.8759 -1.7580 -0.1841
 3809SOL     OW20147   9.310   9.111   1.682 -0.6813 -0.1010  0.3557
 3809SOL    HW120148   9.251   9.174   1.632 -0.3299  0.9651  1.2589
 3809SOL    HW220149   9.369   9.163   1.744 -0.2434 -1.3144  0.9684
 3811SOL     OW20150   4.718   8.121   4.105  0.7008 -0.5937 -0.4528
 3811SOL    HW120151   4.686   8.086   4.193  1.6792 -0.9423 -0.2338
 3811SOL    HW220152   4.812   8.155   4.115  0.7777 -0.5406 -1.3396
 3812SOL     OW20153   7.274   0.405   1.880 -0.2116 -0.1862 -0.1749
 3812SOL    HW120154   7.196   0.399   1.818 -0.0391 -2.6376 -0.1826
 3812SOL    HW220155   7.354   0.438   1.830 -0.9374  1.2915 -0.4078
 3813SOL     OW20156   7.859   7.550   3.783 -0.5521  0.1393 -0.2142
 3813SOL    HW120157   7.803   7.577   3.706  0.7890  1.0904 -0.8804
 3813SOL    HW220158   7.806   7.557   3.868 -0.8601  2.9012 -0.6058
 3814SOL     OW20159   2.368   9.861   1.863 -0.2541 -0.0250  0.2606
 3814SOL    HW120160   2.384   9.885   1.767  2.3559 -0.7783  0.4652
 3814SOL    HW220161   2.274   9.830   1.874  0.0879 -2.3742 -2.5760
 3815SOL     OW20162   9.418   2.596   2.699  0.4613  0.2486  0.3401
 3815SOL    HW120163   9.323   2.583   2.726  1.0050  0.2387  2.2935
 3815SOL    HW220164   9.449   2.687   2.726  0.3209  1.1814 -2.4412
 3816SOL     OW20165   0.492   3.072   1.267 -0.3060 -0.1496 -0.0606
 3816SOL    HW120166   0.535   3.156   1.299  1.4348 -1.5505  1.4094
 3816SOL    HW220167   0.527   3.048   1.176 -3.7993  2.7914 -2.3052
 3817SOL     OW20168   5.231   8.549   3.153  0.2214 -0.4221 -0.6797
 3817SOL    HW120169   5.147   8.598   3.129  0.0647 -1.2827 -1.9790
 3817SOL    HW220170   5.262   8.578   3.243 -1.7765 -0.5074  0.0589
 3818SOL     OW20171   0.024   7.451   2.427 -0.3128  0.8362 -0.1174
 3818SOL    HW120172   0.018   7.414   2.334  0.2640 -0.4713  0.3531
 3818SOL    HW220173   0.085   7.394   2.481 -0.3522  1.8118  0.9695
 3819SOL     OW20174   7.592   0.113   4.363  0.3185 -0.7009  0.2086
 3819SOL    HW120175   7.676   0.116   4.309 -0.1734  1.0655 -0.5118
 3819SOL    HW220176   7.588   0.028   4.415  3.8450  0.3108  2.3204
 3820SOL     OW20177   8.887   0.854   4.085  0.0021 -0.6301 -0.4676
 3820SOL    HW120178   8.847   0.926   4.141  0.9426  0.1560 -0.7910
 3820SOL    HW220179   8.868   0.872   3.988 -1.4085 -1.8497 -0.4379
 3823SOL     OW20180   9.600   8.928   2.634 -0.3754 -0.3362  0.5567
 3823SOL    HW120181   9.561   9.018   2.654 -0.1703 -0.0208 -0.4330
 3823SOL    HW220182   9.588   8.868   2.713 -0.1031  0.7001  1.3956
 3824SOL     OW20183   9.538   5.983   0.378  0.3162 -0.3097  0.6976
 3824SOL    HW120184   9.567   6.037   0.300  1.3506  0.6627  1.7387
 3824SOL    HW220185   9.549   6.036   0.462 -0.7449 -1.3452  1.5231
 3825SOL     OW20186   0.776   7.762   4.475  0.0288 -0.3421 -0.2098
 3825SOL    HW120187   0.811   7.837   4.418 -1.0964  0.8323  0.6283
 3825SOL    HW220188   0.832   7.680   4.460  2.4428  1.1871  0.2816
 3826SOL     OW20189   1.712   5.895   5.184  0.3291 -0.0204  0.0337
 3826SOL    HW120190   1.652   5.973   5.172 -0.3353 -0.7258 -1.2893
 3826SOL    HW220191   1.705   5.862   5.278 -1.0659  0.1267 -0.0133
 3827SOL     OW20192   3.257   7.877   2.064  0.5687  0.3050 -0.4564
 3827SOL    HW120193   3.238   7.880   2.163  0.8398  1.5587 -0.4281
 3827SOL    HW220194   3.229   7.964   2.023 -1.5432 -0.9933 -1.8640
 3829SOL     OW20195   2.634   3.724   4.493 -0.0135  0.0568  0.2041
 3829SOL    HW120196   2.685   3.674   4.423  0.6812 -0.7562  1.2795
 3829SOL    HW220197   2.547   3.677   4.510  0.2226 -0.2529  0.5447
 3830SOL     OW20198   3.221   3.663   4.651  0.2008  0.0328  0.4405
 3830SOL    HW120199   3.191   3.571   4.626  0.8026 -0.1395  0.3293
 3830SOL    HW220200   3.319   3.661   4.671 -0.2616  0.1792  2.7794
 3833SOL     OW20201   4.448   2.298   2.770 -0.0268  0.4888 -0.2428
 3833SOL    HW120202   4.519   2.358   2.805  0.3496 -0.8745  1.4118
 3833SOL    HW220203   4.448   2.212   2.822 -0.8976 -0.7323 -2.1847
 3834SOL     OW20204   2.371   3.701   0.721 -0.0993  0.2007 -0.1549
 3834SOL    HW120205   2.384   3.604   0.702 -0.0871 -0.0101  0.9217
 3834SOL    HW220206   2.390   3.719   0.818 -0.9209  1.1270 -0.1646
 3835SOL     OW20207   3.591   4.124   1.264  0.1776 -0.2705  0.1222
 3835SOL    HW120208   3.512   4.086   1.312 -0.6688  0.6994 -0.5032
 3835SOL    HW220209   3.669   4.061   1.274 -1.0248 -1.8549 -0.3431
 3836SOL     OW20210   6.936   1.191   4.257  0.1802  0.9148  0.2092
 3836SOL    HW120211   7.005   1.135   4.210  0.1966 -0.9302  2.3277
 3836SOL    HW220212   6.977   1.277   4.287  0.5788  1.4153 -1.7152
 3837SOL     OW20213   6.719   9.058   2.073 -0.1096 -0.3552  0.2466
 3837SOL    HW120214   6.795   9.045   2.136  0.4792  0.4775 -0.2810
 3837SOL    HW220215   6.749   9.112   1.994 -1.3875  0.4925  0.3236
 3838SOL     OW20216   5.186   5.088   4.679  0.2209  0.4924  0.2314
 3838SOL    HW120217   5.267   5.132   4.719 -0.8017  0.1997  2.7372
 3838SOL    HW220218   5.143   5.029   4.747 -1.1144 -0.7510 -1.6319
 3840SOL     OW20219   1.726   2.051   0.267  0.1899  0.3120 -0.0594
 3840SOL    HW120220   1.733   1.972   0.206  0.7934 -0.4515  0.9914
 3840SOL    HW220221   1.814   2.068   0.311 -0.2961  0.7096  0.7807
 3842SOL     OW20222   1.210   8.117   5.070  0.0853 -0.1490 -0.0655
 3842SOL    HW120223   1.203   8.157   5.161  0.5239 -0.1171 -0.0476
 3842SOL    HW220224   1.242   8.023   5.077  1.2269  0.2219 -0.2656
 3843SOL     OW20225   3.185   0.787   1.212 -0.1982  0.1258 -0.2064
 3843SOL    HW120226   3.154   0.775   1.118 -0.5329 -1.3829  0.0798
 3843SOL    HW220227   3.108   0.814   1.269  0.6201  4.2360 -0.9102
 3844SOL     OW20228   6.650   2.178   3.118  0.1178 -0.6608  0.2997
 3844SOL    HW120229   6.650   2.277   3.112 -0.7937 -0.7481 -1.4945
 3844SOL    HW220230   6.622   2.150   3.210 -0.6796  0.7254  0.4835
 3845SOL     OW20231   4.068   5.616   0.453 -0.2820 -0.3743  0.6790
 3845SOL    HW120232   4.054   5.518   0.443 -1.8641  0.0001 -0.9836
 3845SOL    HW220233   3.982   5.660   0.477 -0.6715  1.1519 -3.1354
 3848SOL     OW20234   1.663   9.776   0.808  0.8494  0.4548 -0.2847
 3848SOL    HW120235   1.594   9.846   0.828  1.1413  0.4801  0.6351
 3848SOL    HW220236   1.618   9.697   0.766  0.4966  1.1269 -1.2004
 3849SOL     OW20237   3.364   6.951   4.528  0.7627 -0.4273 -0.4770
 3849SOL    HW120238   3.448   7.005   4.535  0.2811  0.4362 -1.2060
 3849SOL    HW220239   3.354   6.916   4.435  0.0472 -0.0652 -0.5445
 3850SOL     OW20240   1.492   9.547   3.914 -0.0668  0.2270  0.0932
 3850SOL    HW120241   1.393   9.541   3.907  0.0341 -1.3004 -0.2005
 3850SOL    HW220242   1.517   9.595   3.998 -1.0322 -0.7297  0.9317
 3852SOL     OW20243   6.467   1.110   2.336  0.0361 -0.1715  0.5160
 3852SOL    HW120244   6.442   1.132   2.242  1.0799 -0.5240  0.1441
 3852SOL    HW220245   6.516   1.188   2.376 -0.9272  0.2036  0.9635
 3853SOL     OW20246   7.378   9.358   2.882  0.1751 -0.7235  0.2636
 3853SOL    HW120247   7.325   9.274   2.876  0.0659 -0.4822 -3.5613
 3853SOL    HW220248   7.323   9.430   2.924 -0.7461 -1.7697  0.8729
 3854SOL     OW20249   7.689   8.204   2.452 -0.2746  0.1279  0.2145
 3854SOL    HW120250   7.609   8.202   2.513 -0.1081  0.8600  0.4681
 3854SOL    HW220251   7.721   8.111   2.436  0.3288 -0.0255  2.1216
 3855SOL     OW20252   9.004   0.892   0.133 -0.4064 -0.2753 -0.2963
 3855SOL    HW120253   9.044   0.800   0.144  0.6218  0.0593 -1.1534
 3855SOL    HW220254   9.036   0.951   0.207 -0.1212 -0.2830 -0.4136
 3856SOL     OW20255   3.503   8.776   3.456 -0.7294  0.2513 -0.4030
 3856SOL    HW120256   3.526   8.740   3.366  0.1833  0.3562 -0.2195
 3856SOL    HW220257   3.431   8.845   3.447  0.5706  1.5267 -1.2756
 3857SOL     OW20258   1.617   5.690   1.951  0.5629 -0.2021  1.3402
 3857SOL    HW120259   1.633   5.785   1.926 -1.4284  0.0404  0.9169
 3857SOL    HW220260   1.705   5.645   1.968  1.8750  0.4377 -3.0667
 3859SOL     OW20261   8.068   4.835   0.812  0.1582 -0.5880 -0.4384
 3859SOL    HW120262   7.990   4.845   0.873  0.6653 -0.6498  0.2226
 3859SOL    HW220263   8.037   4.798   0.724 -0.3412 -2.0298  0.3324
 3864SOL     OW20264   9.447   0.732   2.155  0.1510  0.4259  0.7363
 3864SOL    HW120265   9.537   0.706   2.121 -0.4157  0.8008 -1.1454
 3864SOL    HW220266   9.389   0.651   2.160  0.2621  0.3547  0.8674
 3865SOL     OW20267   2.242   5.441   4.489  0.2330 -0.1512  0.4153
 3865SOL    HW120268   2.339   5.461   4.475 -0.0859  0.5917 -0.8858
 3865SOL    HW220269   2.195   5.526   4.514 -0.1298 -0.4351  0.6797
 3866SOL     OW20270   0.331   1.728   0.317  0.1249  0.0773 -0.1122
 3866SOL    HW120271   0.258   1.713   0.384  1.7454 -2.1649  1.2129
 3866SOL    HW220272   0.367   1.820   0.329 -1.2007  0.5408  0.4895
 3867SOL     OW20273   5.043   4.981   4.870  0.3926  0.2152 -0.7460
 3867SOL    HW120274   5.006   4.891   4.894  0.6574  0.3019 -0.0115
 3867SOL    HW220275   4.985   5.052   4.911  1.5913  0.3476  0.7630
 3869SOL     OW20276   0.337   1.602   3.612  0.5302  0.3546  0.1126
 3869SOL    HW120277   0.284   1.620   3.695 -0.3879  0.0566 -0.4007
 3869SOL    HW220278   0.424   1.560   3.636  0.0211 -0.2679  0.8826
 3870SOL     OW20279   7.537   8.991   4.373 -0.0509  0.1929  0.2696
 3870SOL    HW120280   7.600   8.969   4.299 -1.3176  0.7402 -0.9745
 3870SOL    HW220281   7.589   9.031   4.450  0.9879  1.4913 -1.0799
 3871SOL     OW20282   1.060   8.342   2.454  0.4712 -0.1236  0.6194
 3871SOL    HW120283   1.059   8.283   2.373  2.9911  0.4082  0.1549
 3871SOL    HW220284   1.101   8.292   2.531  1.6814  0.6486  0.4940
 3872SOL     OW20285   5.308   0.277   2.297  0.1108 -0.1745  0.2325
 3872SOL    HW120286   5.369   0.306   2.370  0.8928 -1.3098  0.0416
 3872SOL    HW220287   5.213   0.279   2.330  0.4764 -0.8938  1.3355
 3874SOL     OW20288   8.358   9.126   3.467  0.0341  0.2801  0.0616
 3874SOL    HW120289   8.347   9.197   3.536 -0.0619  2.1686 -1.8398
 3874SOL    HW220290   8.272   9.076   3.457 -0.8926  1.9519 -0.7284
 3875SOL     OW20291   2.711   0.506   0.161 -0.0065 -0.5487 -0.0747
 3875SOL    HW120292   2.621   0.513   0.117 -0.7566 -0.8411  1.3730
 3875SOL    HW220293   2.772   0.451   0.104 -0.7696 -0.4084 -1.0388
 3876SOL     OW20294   4.696   3.272   1.240  0.4830 -0.3257  0.1591
 3876SOL    HW120295   4.600   3.281   1.268  0.4808 -0.1528  0.0945
 3876SOL    HW220296   4.736   3.192   1.285  0.2604 -0.5000  0.0539
 3877SOL     OW20297   5.303   6.314   1.593 -0.0001 -0.0522 -0.5377
 3877SOL    HW120298   5.234   6.354   1.533 -0.0756 -0.6074 -0.8236
 3877SOL    HW220299   5.352   6.387   1.640 -0.3345  0.3681 -0.8305
 3878SOL     OW20300   8.239   9.375   4.749  0.0570  0.4299 -0.3250
 3878SOL    HW120301   8.296   9.297   4.725  0.7510  1.0833 -0.8237
 3878SOL    HW220302   8.278   9.422   4.829 -0.0739  0.5670 -0.3407
 3879SOL     OW20303   5.469   1.468   2.528 -0.1523  0.3453 -0.4528
 3879SOL    HW120304   5.518   1.381   2.533  0.8095  0.9997  2.4245
 3879SOL    HW220305   5.372   1.453   2.547 -0.0844 -0.1701 -0.4979
 3880SOL     OW20306   1.882   0.828   2.011 -0.6326  0.0411  0.8111
 3880SOL    HW120307   1.794   0.875   2.007 -0.8996 -0.5273 -0.2613
 3880SOL    HW220308   1.919   0.819   1.919  1.1392  1.3482  1.3586
 3882SOL     OW20309   8.459   7.853   3.441 -0.1275  0.1303 -0.1959
 3882SOL    HW120310   8.454   7.773   3.382  1.1780 -1.4243  1.7135
 3882SOL    HW220311   8.368   7.895   3.449 -0.7392 -0.9180 -1.5339
 3884SOL     OW20312   8.150   2.549   0.225  0.0797  0.0224  0.1396
 3884SOL    HW120313   8.103   2.598   0.299 -0.4452  0.5310 -0.5258
 3884SOL    HW220314   8.104   2.462   0.208 -0.7300  0.5797 -0.6039
 3885SOL     OW20315   3.765   3.330   4.204  0.1999 -0.0582  0.1187
 3885SOL    HW120316   3.765   3.403   4.274  0.9944 -1.2277  1.3640
 3885SOL    HW220317   3.841   3.268   4.221 -1.5662 -2.2657  0.2278
 3886SOL     OW20318   2.643   0.417   0.679 -0.4108  0.0678 -0.6789
 3886SOL    HW120319   2.715   0.461   0.733 -1.3895 -0.5014  1.1162
 3886SOL    HW220320   2.683   0.378   0.597  0.9125  2.0015 -0.9961
 3888SOL     OW20321   0.929   7.190   1.425  0.8894  0.0804 -0.5766
 3888SOL    HW120322   0.986   7.166   1.347  1.1377  0.3609 -0.4827
 3888SOL    HW220323   0.834   7.164   1.407  0.5226  2.2337 -1.9091
 3889SOL     OW20324   2.583   1.393   4.321  0.0740  0.4938  0.0566
 3889SOL    HW120325   2.669   1.409   4.273 -0.2381  1.6551 -0.1229
 3889SOL    HW220326   2.602   1.352   4.410  0.7416 -0.2799 -0.4307
 3890SOL     OW20327   4.173   3.065   2.074  0.6173 -0.0105 -0.0794
 3890SOL    HW120328   4.252   3.072   2.135  0.7775  2.5320 -0.5146
 3890SOL    HW220329   4.152   3.156   2.036 -0.5142 -1.2298 -2.4757
 3891SOL     OW20330   4.810   0.659   4.719  0.0853  0.4458  0.1958
 3891SOL    HW120331   4.716   0.626   4.714  0.9470 -2.1644  0.5202
 3891SOL    HW220332   4.849   0.637   4.809  1.6947 -0.5453 -0.7125
 3893SOL     OW20333   9.716   0.512   0.450 -0.6973 -0.0047 -0.2069
 3893SOL    HW120334   9.791   0.490   0.388 -0.1087  0.1029  0.4499
 3893SOL    HW220335   9.655   0.434   0.459 -1.3852  0.3311 -1.7410
 3894SOL     OW20336   4.787   8.831   0.395 -0.7723 -0.2001  0.4264
 3894SOL    HW120337   4.803   8.757   0.329 -1.0896  1.0582 -1.0871
 3894SOL    HW220338   4.688   8.847   0.404 -0.6637  0.8963 -0.2327
 3895SOL     OW20339   0.194   5.563   1.371 -0.1863 -0.4374 -0.2263
 3895SOL    HW120340   0.110   5.569   1.427 -0.1880 -1.8644 -0.0481
 3895SOL    HW220341   0.183   5.617   1.288 -0.5822  0.8789  0.6729
 3896SOL     OW20342   3.432   8.604   5.180 -0.5121 -0.4546  0.3982
 3896SOL    HW120343   3.495   8.649   5.243  1.9655 -2.8171 -0.2729
 3896SOL    HW220344   3.418   8.509   5.209 -1.6365 -0.7387 -1.0132
 3898SOL     OW20345   3.685   6.983   3.149  0.0049 -0.0588 -0.3000
 3898SOL    HW120346   3.778   7.005   3.117  0.1297  2.1828  1.4918
 3898SOL    HW220347   3.691   6.910   3.217  0.6425  1.0015  0.8177
 3899SOL     OW20348   1.334   3.069   4.556  0.6395 -0.3224 -0.2985
 3899SOL    HW120349   1.349   2.972   4.574 -1.7311 -0.8248 -0.8906
 3899SOL    HW220350   1.261   3.079   4.489  2.5122  1.8079 -2.1059
 3900SOL     OW20351   1.416   3.092   3.985 -0.3608 -0.2789  0.9313
 3900SOL    HW120352   1.330   3.082   4.034  0.5727 -1.9003  2.2829
 3900SOL    HW220353   1.483   3.028   4.021  1.9723  2.1543  1.1190
 3901SOL     OW20354   4.802   8.807   4.734  0.1639 -0.1424 -0.0018
 3901SOL    HW120355   4.878   8.790   4.671  0.0841 -0.0374 -0.1273
 3901SOL    HW220356   4.837   8.850   4.818  0.1460  0.5484 -0.3471
 3902SOL     OW20357   2.270   1.461   2.223  0.0338  0.0600 -0.1361
 3902SOL    HW120358   2.272   1.442   2.125 -1.4060  0.8996 -0.3448
 3902SOL    HW220359   2.342   1.409   2.269 -0.7204 -2.1040 -1.3414
 3903SOL     OW20360   3.566   7.666   1.268 -0.7360  0.3675  0.1995
 3903SOL    HW120361   3.533   7.618   1.349 -0.4700 -1.1866 -0.6002
 3903SOL    HW220362   3.640   7.615   1.225  0.6326  2.2765  0.1906
 3904SOL     OW20363   1.812   8.863   0.021 -0.3805  0.1399  0.1037
 3904SOL    HW120364   1.810   8.795  -0.052 -1.2739  0.1512  0.1123
 3904SOL    HW220365   1.719   8.886   0.047 -0.0818  1.1949  0.2628
 3905SOL     OW20366   6.430   7.935   2.377 -0.6004  0.4866 -0.3686
 3905SOL    HW120367   6.513   7.955   2.428 -0.3709  1.4194 -1.0880
 3905SOL    HW220368   6.350   7.957   2.433 -0.3537  1.2051 -0.3024
 3906SOL     OW20369   0.147   4.400   0.059 -0.3721 -0.6842 -0.5427
 3906SOL    HW120370   0.077   4.435   0.121 -0.1317 -0.5706 -0.3323
 3906SOL    HW220371   0.218   4.469   0.046 -0.2593 -0.8274 -0.6935
 3907SOL     OW20372   7.185   2.029   3.304  0.3780 -0.3697 -0.0612
 3907SOL    HW120373   7.123   2.056   3.378  1.4745 -1.7737  1.4322
 3907SOL    HW220374   7.165   1.935   3.277  0.0460  0.1112 -1.5086
 3908SOL     OW20375   3.860   2.272   2.501  0.2482 -0.1964 -0.2107
 3908SOL    HW120376   3.953   2.239   2.516 -0.4343 -1.0749  2.5256
 3908SOL    HW220377   3.853   2.366   2.533  0.3534  0.1069 -1.0674
 3909SOL     OW20378   8.955   5.049   4.046  0.4137 -0.7135 -0.0209
 3909SOL    HW120379   8.857   5.038   4.029  0.4239 -0.2100 -0.4161
 3909SOL    HW220380   8.969   5.119   4.117  0.4493 -1.4250  0.6709
 3910SOL     OW20381   2.494   5.981   3.133  0.1436  0.1069 -0.0790
 3910SOL    HW120382   2.421   6.013   3.193  1.0443  0.5026  0.8176
 3910SOL    HW220383   2.457   5.965   3.042 -1.0216  0.4833  0.3146
 3911SOL     OW20384   2.050   0.196   5.053  0.0664  0.0416  0.9263
 3911SOL    HW120385   2.124   0.206   4.987 -0.1908 -0.2852  0.5870
 3911SOL    HW220386   1.964   0.227   5.012  0.5537  3.5172  2.4002
 3912SOL     OW20387   4.207   1.696   2.188 -0.1673 -0.1195 -0.0923
 3912SOL    HW120388   4.288   1.660   2.141  1.4598  2.2930  0.7647
 3912SOL    HW220389   4.160   1.761   2.128  0.6442  1.2633  0.7397
 3913SOL     OW20390   2.369   4.525   5.218 -0.3901  0.2865  0.5217
 3913SOL    HW120391   2.373   4.462   5.141  0.1123 -1.2126  1.7527
 3913SOL    HW220392   2.273   4.542   5.242 -0.5094 -0.7112  0.7561
 3914SOL     OW20393   8.857   5.596   1.002  0.0845 -0.3641 -0.1865
 3914SOL    HW120394   8.893   5.683   1.037  1.0398 -1.0938  0.6841
 3914SOL    HW220395   8.768   5.578   1.042  0.1290 -0.0429  0.0531
 3916SOL     OW20396   4.524   1.601   3.782  0.0421 -0.9331  0.1720
 3916SOL    HW120397   4.540   1.536   3.856 -0.3750 -0.7348  0.4351
 3916SOL    HW220398   4.470   1.678   3.816 -0.9823 -1.3129 -0.5781
 3918SOL     OW20399   7.669   1.767   1.434  0.2099  0.5403  0.0420
 3918SOL    HW120400   7.675   1.668   1.446  2.3476  0.8191  1.5486
 3918SOL    HW220401   7.574   1.792   1.413 -0.2033 -1.8786 -1.1182
 3919SOL     OW20402   7.267   0.613   2.516 -0.4208 -0.4309  0.0905
 3919SOL    HW120403   7.246   0.606   2.614 -1.4550  0.0598 -0.0903
 3919SOL    HW220404   7.359   0.576   2.499  0.1280  0.2986  1.3843
 3920SOL     OW20405   0.042   8.428   2.426  0.4500  0.4960 -0.1256
 3920SOL    HW120406   0.128   8.399   2.383 -0.7110  0.0897 -2.2059
 3920SOL    HW220407   0.035   8.528   2.422  1.4312  0.6415  1.2668
 3921SOL     OW20408   7.401   1.431   0.306  0.4240  0.4591 -0.5968
 3921SOL    HW120409   7.407   1.531   0.300  0.9285  0.3450 -2.2936
 3921SOL    HW220410   7.491   1.393   0.328  0.5693  0.2921 -1.4569
 3922SOL     OW20411   2.623   3.966   0.622  0.2816 -0.3796  0.9054
 3922SOL    HW120412   2.550   3.898   0.634 -0.2417 -0.4462 -2.3358
 3922SOL    HW220413   2.593   4.054   0.659 -0.9695 -0.6980  0.6726
 3923SOL     OW20414   7.807   5.842   4.760  0.9960 -0.1303 -0.2768
 3923SOL    HW120415   7.824   5.744   4.763 -0.7650 -0.4385 -0.0251
 3923SOL    HW220416   7.729   5.864   4.818 -0.9182  0.9034 -3.1102
 3925SOL     OW20417   3.503   6.501   0.694 -0.0324  0.0075  0.2988
 3925SOL    HW120418   3.403   6.497   0.691 -0.0102 -0.7845  0.5177
 3925SOL    HW220419   3.533   6.593   0.668 -0.7753  0.0004 -0.6334
 3926SOL     OW20420   8.254   6.598   3.691 -0.0691  0.1828 -0.3745
 3926SOL    HW120421   8.336   6.556   3.730 -1.5784  1.1725  4.1137
 3926SOL    HW220422   8.173   6.546   3.719 -1.2263  0.7544 -2.5457
 3927SOL     OW20423   8.549   8.448   3.829 -0.3715  0.1307 -0.2463
 3927SOL    HW120424   8.462   8.463   3.781 -0.2252 -0.6834 -0.7715
 3927SOL    HW220425   8.548   8.498   3.916 -0.4589  1.9878 -1.2885
 3928SOL     OW20426   2.867   8.245   4.456  0.2128 -0.2161 -0.6993
 3928SOL    HW120427   2.913   8.196   4.382 -1.2027 -0.1267 -1.6669
 3928SOL    HW220428   2.927   8.317   4.491  1.4993 -1.2720 -0.6864
 3929SOL     OW20429   6.393   1.230   1.459  0.1955 -0.2605 -0.0949
 3929SOL    HW120430   6.367   1.165   1.387 -0.0921  0.2401 -0.4432
 3929SOL    HW220431   6.347   1.205   1.544 -2.2539  1.1968 -0.9386
 3930SOL     OW20432   0.787   1.986   4.212 -0.3462 -0.3816  0.0458
 3930SOL    HW120433   0.742   1.901   4.185 -0.9984  0.2766 -0.9550
 3930SOL    HW220434   0.729   2.064   4.189  0.6519  0.3968  0.1087
 3931SOL     OW20435   9.860   3.720   5.118  1.1372  0.7573  0.5267
 3931SOL    HW120436   9.924   3.649   5.145  1.2115  0.3792 -0.6085
 3931SOL    HW220437   9.781   3.719   5.180  1.0323 -0.4643  0.3893
 3932SOL     OW20438   3.408   5.784   2.611 -0.3394  0.2831 -0.3001
 3932SOL    HW120439   3.506   5.796   2.592 -0.2482  0.5695  0.3369
 3932SOL    HW220440   3.361   5.871   2.597 -0.1095  0.7475  1.7518
 3933SOL     OW20441   9.812   7.174   4.698  0.0987 -0.0915  0.0718
 3933SOL    HW120442   9.742   7.107   4.722  1.5075 -0.8956  2.0946
 3933SOL    HW220443   9.878   7.181   4.773 -0.4050  4.1055  0.2540
 3934SOL     OW20444   3.648   1.275   4.952 -0.0191 -0.2831  0.1733
 3934SOL    HW120445   3.595   1.257   4.868  1.3966  0.4253 -0.8914
 3934SOL    HW220446   3.636   1.370   4.978 -1.1687 -0.7263  1.2982
 3935SOL     OW20447   6.078   0.376   3.462  0.1116  0.6139 -0.1566
 3935SOL    HW120448   6.039   0.437   3.394 -1.4493  1.4755  1.4570
 3935SOL    HW220449   6.005   0.319   3.502  0.7287  1.1570  1.8074
 3936SOL     OW20450   9.182   3.599   4.698 -0.6635  0.4223 -0.2315
 3936SOL    HW120451   9.108   3.652   4.658 -0.6578 -0.5525 -1.5626
 3936SOL    HW220452   9.257   3.591   4.632 -0.2687 -0.4079  0.3060
 3937SOL     OW20453   3.708   7.747   0.233 -0.3370 -0.1312  0.2068
 3937SOL    HW120454   3.772   7.824   0.227  0.2577 -0.5269  1.3746
 3937SOL    HW220455   3.688   7.714   0.141  1.9438 -0.6366 -0.1540
 3939SOL     OW20456   2.914   2.650   0.822 -0.3924 -0.0347  0.2554
 3939SOL    HW120457   2.978   2.636   0.897 -0.1126  0.6638  0.1511
 3939SOL    HW220458   2.837   2.587   0.832 -1.6360  1.7734  2.5638
 3940SOL     OW20459   8.496   9.779   4.550  0.2302 -0.2768  0.0799
 3940SOL    HW120460   8.463   9.698   4.501  0.8006 -1.0045  0.8596
 3940SOL    HW220461   8.582   9.756   4.596 -0.7053  0.1160  2.0756
 3941SOL     OW20462   0.675   0.767   4.720 -0.1886  0.5902  0.1766
 3941SOL    HW120463   0.600   0.769   4.653  0.7469 -1.0833 -0.9500
 3941SOL    HW220464   0.667   0.686   4.777  0.8745  0.2929 -0.0844
 3942SOL     OW20465   2.715   4.856   1.851  0.5859  0.8106 -0.5757
 3942SOL    HW120466   2.807   4.821   1.832 -0.3356 -2.3551  0.4464
 3942SOL    HW220467   2.650   4.815   1.787 -0.7825 -0.8496  1.7724
 3943SOL     OW20468   4.410   2.225   4.327 -0.0776 -0.1543  0.2606
 3943SOL    HW120469   4.351   2.300   4.297  0.3501  0.1330  0.1239
 3943SOL    HW220470   4.479   2.208   4.256  0.8837  0.4579  1.0239
 3944SOL     OW20471   3.354   6.291   0.475  0.3864 -0.2598 -0.3105
 3944SOL    HW120472   3.339   6.388   0.493 -0.1363 -0.2104 -0.9725
 3944SOL    HW220473   3.269   6.240   0.490  0.5938 -0.5749 -0.2036
 3945SOL     OW20474   2.622   1.235   4.554 -0.3321  0.3763  0.2963
 3945SOL    HW120475   2.665   1.200   4.637  1.4509 -0.0177 -0.7631
 3945SOL    HW220476   2.524   1.210   4.554  0.1781 -1.7737  1.1204
 3946SOL     OW20477   3.336   4.620   0.624  0.1169  0.1897  0.6814
 3946SOL    HW120478   3.385   4.700   0.658 -0.9538  0.1620  2.3725
 3946SOL    HW220479   3.243   4.619   0.663  0.4901 -2.4659  1.6292
 3947SOL     OW20480   9.763   3.454   3.190 -0.7229  0.5062 -0.3202
 3947SOL    HW120481   9.862   3.459   3.175 -0.7690 -1.3386 -1.3985
 3947SOL    HW220482   9.735   3.358   3.201 -2.4960  0.9460 -0.7522
 3948SOL     OW20483   0.799   0.168   3.641  0.1588 -0.2314  0.1510
 3948SOL    HW120484   0.810   0.247   3.701 -2.1946  0.4133 -0.2382
 3948SOL    HW220485   0.881   0.159   3.584  0.4936  1.9254  0.2218
 3950SOL     OW20486   9.510   0.935   0.719 -0.4990  0.0424 -0.4221
 3950SOL    HW120487   9.561   0.949   0.634 -0.4880 -0.1149 -0.4407
 3950SOL    HW220488   9.490   1.024   0.760  0.6343  0.0716  0.0901
 3951SOL     OW20489   1.933   0.560   2.092  0.7311 -0.0274 -0.0277
 3951SOL    HW120490   1.901   0.555   2.187  0.0907  0.1866 -0.2380
 3951SOL    HW220491   1.918   0.652   2.056  0.3356 -0.3014 -0.5666
 3952SOL     OW20492   6.769   0.074   4.792 -0.2705  0.5588 -0.0079
 3952SOL    HW120493   6.824   0.036   4.867 -0.7121  0.9725  0.5228
 3952SOL    HW220494   6.695   0.129   4.829 -0.8241  0.3136 -0.7398
 3953SOL     OW20495   9.378   9.947   3.058  0.7336  0.4693 -0.0105
 3953SOL    HW120496   9.386  10.010   2.981  1.3177  0.7522  0.2808
 3953SOL    HW220497   9.469   9.918   3.087  0.4918 -0.1578  0.1492
 3954SOL     OW20498   4.634   0.637   1.360  0.0837 -0.4933  0.0011
 3954SOL    HW120499   4.636   0.538   1.375  1.2268 -0.7410 -1.6434
 3954SOL    HW220500   4.694   0.660   1.283 -0.9799  1.3628 -0.2980
 3955SOL     OW20501   0.355   2.655   2.547 -0.0248  0.1101  0.6757
 3955SOL    HW120502   0.427   2.709   2.502  0.9605 -0.3131  1.7087
 3955SOL    HW220503   0.266   2.682   2.512  0.6249  0.8281 -0.4474
 3956SOL     OW20504   0.328   4.657   0.335 -0.0592 -0.5712 -0.1871
 3956SOL    HW120505   0.256   4.693   0.277  1.2813  0.1993 -1.4018
 3956SOL    HW220506   0.346   4.561   0.311  0.3927 -0.2979 -0.9690
 3958SOL     OW20507   1.282   7.094   0.203 -0.0825  0.1810  0.6613
 3958SOL    HW120508   1.379   7.100   0.226  0.0561  1.4923 -0.1968
 3958SOL    HW220509   1.227   7.104   0.286  0.4960  0.1256  1.0548
 3959SOL     OW20510   1.796   7.473   4.899  0.0464 -0.5490 -0.3559
 3959SOL    HW120511   1.872   7.435   4.847 -0.5233 -0.1618 -1.4798
 3959SOL    HW220512   1.829   7.505   4.988  0.8305 -2.1575 -0.0505
 3960SOL     OW20513   2.854   1.763   0.244 -0.6083 -0.3397 -0.5001
 3960SOL    HW120514   2.837   1.813   0.329 -1.3114  0.1645 -0.9368
 3960SOL    HW220515   2.943   1.717   0.250  0.5301  1.8160 -0.5173
 3961SOL     OW20516   2.995   8.507   4.869  0.4778 -0.7691 -0.3871
 3961SOL    HW120517   3.083   8.462   4.888  0.0066 -1.8403 -0.7238
 3961SOL    HW220518   3.000   8.602   4.898  2.3052 -0.3812 -1.8776
 3963SOL     OW20519   2.349   1.507   5.074 -0.1241 -0.2772  0.1662
 3963SOL    HW120520   2.352   1.421   5.024  0.6171 -0.0731 -0.1470
 3963SOL    HW220521   2.381   1.491   5.168  1.8447  0.0089 -0.4269
 3964SOL     OW20522   3.353   9.382   4.644 -0.1256  0.2649  0.1148
 3964SOL    HW120523   3.433   9.423   4.598  0.2133  0.3430  0.7716
 3964SOL    HW220524   3.271   9.401   4.590  0.5149 -1.2504 -1.4511
 3965SOL     OW20525   6.913   1.378   2.746  0.0291 -0.3167 -0.3062
 3965SOL    HW120526   6.871   1.328   2.822 -0.7253  0.7718 -0.0077
 3965SOL    HW220527   6.984   1.321   2.705  0.5117 -0.8927  1.2762
 3966SOL     OW20528   7.871   3.719   2.395 -0.3621 -0.1553 -0.0533
 3966SOL    HW120529   7.963   3.759   2.390 -0.4798  0.1760  0.3762
 3966SOL    HW220530   7.861   3.650   2.324 -0.0856  0.4427 -0.6874
 3967SOL     OW20531   2.385   5.713   0.458 -0.3464 -0.0754  0.1139
 3967SOL    HW120532   2.372   5.782   0.530  0.9559  1.6350 -1.2709
 3967SOL    HW220533   2.324   5.733   0.381  0.2107 -0.3274 -0.3953
 3968SOL     OW20534   6.721   0.065   3.424 -0.0853  0.2303  0.5706
 3968SOL    HW120535   6.712   0.154   3.469 -0.7910  1.5953 -2.1155
 3968SOL    HW220536   6.816   0.053   3.393 -0.3398  0.7744 -0.4459
 3969SOL     OW20537   4.300   1.930   2.354  0.2518 -0.0160  0.4953
 3969SOL    HW120538   4.399   1.926   2.369  0.5560  0.9857 -1.1073
 3969SOL    HW220539   4.270   1.849   2.304  0.4878  0.3064 -0.1779
 3972SOL     OW20540   8.442   1.467   4.566 -0.3154 -0.4088  0.3179
 3972SOL    HW120541   8.531   1.465   4.612  0.1791 -0.6823 -0.6377
 3972SOL    HW220542   8.409   1.561   4.561  1.1690  0.0387 -1.6708
 3973SOL     OW20543   5.398   1.027   4.417  0.2887 -0.0503  0.5527
 3973SOL    HW120544   5.335   1.096   4.381  0.2427 -0.0492  0.6361
 3973SOL    HW220545   5.462   1.000   4.345  0.4112  0.1986  0.5661
 3974SOL     OW20546   8.970   8.592   0.825 -0.2370  0.1003 -0.5860
 3974SOL    HW120547   8.926   8.587   0.735 -2.2116 -0.5983  0.3944
 3974SOL    HW220548   8.949   8.680   0.867 -0.8780 -0.3097 -0.0357
 3975SOL     OW20549   0.593   5.064   2.031  0.1041 -0.3264  0.1721
 3975SOL    HW120550   0.596   5.126   2.109 -0.7442 -1.3681  1.0361
 3975SOL    HW220551   0.642   4.980   2.052 -0.4302 -0.7575 -0.2907
 3976SOL     OW20552   4.204   6.794   2.488 -0.2184  0.7294 -0.4851
 3976SOL    HW120553   4.268   6.722   2.513 -0.5753  0.9490  1.1172
 3976SOL    HW220554   4.230   6.833   2.399  0.9168 -0.2552 -0.5950
 3977SOL     OW20555   1.049   7.347   1.134  0.3398  0.2112  0.5451
 3977SOL    HW120556   1.011   7.361   1.042 -0.2763  1.0345  0.9246
 3977SOL    HW220557   0.994   7.396   1.201  2.4434  2.0163  1.0337
 3980SOL     OW20558   9.702   6.463   3.777 -0.0519  0.4483  0.2841
 3980SOL    HW120559   9.777   6.529   3.790 -0.3484  1.1100 -1.2853
 3980SOL    HW220560   9.693   6.441   3.680 -1.1790 -0.4836  0.5896
 3981SOL     OW20561   4.277   8.040   3.321 -0.5375 -0.1179  0.6714
 3981SOL    HW120562   4.264   8.107   3.393 -1.3143 -0.3119  0.7147
 3981SOL    HW220563   4.256   8.082   3.232  2.1351  0.6535  0.3528
 3982SOL     OW20564   9.726   3.689   1.282 -0.1630  0.5365  0.2983
 3982SOL    HW120565   9.762   3.764   1.226 -0.0001  0.5295  0.3904
 3982SOL    HW220566   9.719   3.720   1.377  0.9268  0.1015  0.5343
 3983SOL     OW20567   2.401   6.755   1.517 -0.2310  0.0432 -0.8316
 3983SOL    HW120568   2.493   6.773   1.481 -0.2683 -1.2278 -1.5947
 3983SOL    HW220569   2.369   6.666   1.484 -1.0722 -0.2675  0.7695
 3984SOL     OW20570   2.019   8.833   0.750  0.1891  0.1143  0.1724
 3984SOL    HW120571   1.936   8.881   0.722 -0.2869 -0.0912  1.2004
 3984SOL    HW220572   2.025   8.746   0.703 -1.5520 -1.0481  2.0333
 3985SOL     OW20573   3.235   7.384   3.943  0.0912  0.0288  0.0609
 3985SOL    HW120574   3.253   7.482   3.950  1.2193 -0.1818  0.2112
 3985SOL    HW220575   3.146   7.363   3.985 -0.6743  1.1379 -0.9946
 3986SOL     OW20576   3.131   6.992   4.871  0.2576 -0.4374  1.0110
 3986SOL    HW120577   3.095   7.005   4.778 -0.9923  0.0154  1.5362
 3986SOL    HW220578   3.141   6.894   4.889 -1.0264 -0.5901  0.9494
 3987SOL     OW20579   8.466   6.164   0.705 -0.3123 -0.1510  0.3944
 3987SOL    HW120580   8.439   6.190   0.797 -1.6665  0.9003 -0.2757
 3987SOL    HW220581   8.417   6.221   0.639 -0.7508 -2.1390 -1.0370
 3988SOL     OW20582   4.174   5.951   1.591  0.2285  0.7987 -0.3423
 3988SOL    HW120583   4.265   5.979   1.561  0.7409 -0.0363  0.4395
 3988SOL    HW220584   4.108   6.022   1.566  1.0557  1.3174 -1.0826
 3989SOL     OW20585   1.455   3.500   1.065 -0.0687  0.1816 -0.4059
 3989SOL    HW120586   1.499   3.558   1.133 -0.3548  0.3290 -0.3455
 3989SOL    HW220587   1.451   3.406   1.098  2.2709 -0.2923 -1.3646
 3990SOL     OW20588   8.727   1.145   2.489  0.7107  0.3659  0.0988
 3990SOL    HW120589   8.747   1.100   2.402  0.3741  0.9491 -0.2803
 3990SOL    HW220590   8.792   1.220   2.503 -0.7604  1.8505 -0.8287
 3991SOL     OW20591   1.322   3.397   1.972  0.0164  0.3516  0.1150
 3991SOL    HW120592   1.254   3.326   1.952  2.9368 -2.4789 -0.2484
 3991SOL    HW220593   1.351   3.390   2.067  0.9839  0.4215 -0.1648
 3992SOL     OW20594   4.372   4.266   2.733  0.0474  0.7173  0.5646
 3992SOL    HW120595   4.415   4.222   2.654  0.3048  1.2540  0.4013
 3992SOL    HW220596   4.306   4.203   2.775 -1.3861  1.0433 -1.1253
 3993SOL     OW20597   4.512   3.252   2.141 -0.2863  0.6402 -0.1146
 3993SOL    HW120598   4.477   3.345   2.153  0.3782  0.9519 -0.5583
 3993SOL    HW220599   4.530   3.212   2.231 -0.2884  1.0527  0.0732
 3994SOL     OW20600   3.934   3.604   2.473  0.4338  0.0803 -0.0617
 3994SOL    HW120601   3.942   3.699   2.504  1.3314 -0.4635  1.4382
 3994SOL    HW220602   4.021   3.575   2.433  0.5465 -0.4586  0.5529
 3995SOL     OW20603   0.819   1.001   0.666  0.1865  0.3089 -0.1631
 3995SOL    HW120604   0.756   1.048   0.728  0.7383  1.2926 -0.3262
 3995SOL    HW220605   0.913   1.022   0.693  0.5167 -2.6552  1.2680
 3996SOL     OW20606   9.972   7.599   4.182  0.6119 -0.2734  0.1772
 3996SOL    HW120607   9.949   7.528   4.248 -1.6213  0.8107  0.6398
 3996SOL    HW220608   9.995   7.557   4.094 -1.6028 -1.5669  0.1729
 3997SOL     OW20609   1.830   9.379   2.802  0.3104 -0.1599  0.0160
 3997SOL    HW120610   1.826   9.299   2.861 -2.6690  1.7407  2.5367
 3997SOL    HW220611   1.786   9.359   2.714 -1.1562 -1.0206  0.9444
 3998SOL     OW20612   5.145   2.732   4.628  0.0334  0.3123  0.0074
 3998SOL    HW120613   5.199   2.708   4.547 -0.2867 -0.9453  0.1518
 3998SOL    HW220614   5.185   2.687   4.708 -0.8688 -0.1282  0.2152
 3999SOL     OW20615   8.138   3.669   2.577  0.2263 -0.9534 -0.3511
 3999SOL    HW120616   8.233   3.678   2.606  0.6978  0.2171 -2.1610
 3999SOL    HW220617   8.130   3.598   2.508  0.1986  0.5388 -1.9030
 4000SOL     OW20618   9.444   0.224   0.069 -0.4691 -0.4597 -0.3111
 4000SOL    HW120619   9.484   0.162   0.138 -0.2010  0.2930  0.2199
 4000SOL    HW220620   9.423   0.172  -0.014  0.1769 -1.1763 -0.0360
 4002SOL     OW20621   4.935   9.525   1.114  0.3084 -0.1715  0.5133
 4002SOL    HW120622   4.840   9.503   1.092  0.8502 -2.0925  0.0268
 4002SOL    HW220623   4.939   9.566   1.206 -0.9137 -0.5295  0.7396
 4003SOL     OW20624   4.746   1.427   2.421 -0.2551 -0.1629 -0.0206
 4003SOL    HW120625   4.654   1.465   2.430  0.5702  2.3245 -1.5000
 4003SOL    HW220626   4.749   1.336   2.463 -3.1651  0.0299  0.7203
 4005SOL     OW20627   0.770   7.797   2.549  0.3001 -0.1407 -0.8701
 4005SOL    HW120628   0.747   7.826   2.456  2.1357 -1.2077 -1.6679
 4005SOL    HW220629   0.689   7.759   2.593 -0.8558  1.3787 -1.6328
 4006SOL     OW20630   3.605   4.880   4.747  0.1436 -0.1276  0.0999
 4006SOL    HW120631   3.647   4.797   4.709 -0.0612 -0.8234  1.3508
 4006SOL    HW220632   3.588   4.866   4.845  2.6333  2.3971  0.9568
 4007SOL     OW20633   9.279   1.585   5.213  0.2243  0.7950  0.3345
 4007SOL    HW120634   9.370   1.606   5.250  0.2458  0.7470  0.3072
 4007SOL    HW220635   9.285   1.501   5.159 -0.0533  0.2459  1.1489
 4008SOL     OW20636   9.101   6.799   0.628 -0.3930 -0.6355  0.0262
 4008SOL    HW120637   9.177   6.854   0.663 -0.2553 -0.7873 -0.0324
 4008SOL    HW220638   9.134   6.708   0.605 -0.3424 -0.3237 -1.1508
 4009SOL     OW20639   0.978   9.848   1.472 -0.3955 -0.2000  0.0818
 4009SOL    HW120640   0.894   9.797   1.486 -0.4285 -0.3683 -0.7478
 4009SOL    HW220641   1.021   9.821   1.386 -0.0149  0.6126  0.0061
 4011SOL     OW20642   5.810   1.957   3.862  0.7137  0.5896  0.0984
 4011SOL    HW120643   5.789   1.991   3.770  3.1572  1.8665 -0.0393
 4011SOL    HW220644   5.857   1.869   3.855  0.9115  0.6927  0.1063
 4013SOL     OW20645   8.281   1.492   0.103  0.6983 -0.6715 -0.3662
 4013SOL    HW120646   8.328   1.407   0.080  2.4409  0.1967 -0.1107
 4013SOL    HW220647   8.203   1.472   0.161  0.9713 -2.1178 -0.4650
 4014SOL     OW20648   4.476   9.543   0.453  0.3207  0.0736  0.2296
 4014SOL    HW120649   4.560   9.593   0.472 -0.6661  0.8370  2.9017
 4014SOL    HW220650   4.482   9.451   0.492  0.4222 -0.3251 -0.7268
 4015SOL     OW20651   1.614   9.228   5.170  0.3233  0.4306  0.0292
 4015SOL    HW120652   1.586   9.132   5.165  0.2094  0.5489 -2.4029
 4015SOL    HW220653   1.713   9.235   5.164  0.1700  0.5923 -3.5911
 4017SOL     OW20654   1.729   2.235   0.018 -1.0268  0.4408 -0.0870
 4017SOL    HW120655   1.666   2.311   0.034  0.4673  1.7675 -0.2870
 4017SOL    HW220656   1.699   2.155   0.069 -1.5348  1.7758  1.7700
 4018SOL     OW20657   2.037   6.776   2.390  0.7119  0.2678 -0.2136
 4018SOL    HW120658   2.074   6.715   2.320  0.1288  0.3927 -0.6321
 4018SOL    HW220659   2.013   6.723   2.471  0.7069  0.0160 -0.3769
 4020SOL     OW20660   9.891   9.874   0.819 -0.1783 -0.1454 -0.2309
 4020SOL    HW120661   9.816   9.882   0.885  0.0962  2.2945 -0.1823
 4020SOL    HW220662   9.977   9.863   0.868 -0.3571 -1.8190 -0.2679
 4022SOL     OW20663   3.604   3.252   2.970 -1.0496  0.0685  0.6081
 4022SOL    HW120664   3.699   3.280   2.987 -1.4540  0.4992  2.2679
 4022SOL    HW220665   3.550   3.266   3.053 -2.0262 -2.5244  0.4477
 4023SOL     OW20666   3.947   5.799   0.786  0.1783  0.0978  0.1318
 4023SOL    HW120667   3.988   5.710   0.768 -0.7890  0.0269 -1.9460
 4023SOL    HW220668   3.848   5.793   0.774  0.1744  1.6063 -0.7982
 4024SOL     OW20669   5.356   2.648   4.457 -0.0791 -0.2399  0.3335
 4024SOL    HW120670   5.409   2.564   4.446  2.7354  1.8367 -2.4411
 4024SOL    HW220671   5.330   2.684   4.367 -2.0591  1.3982  1.5060
 4026SOL     OW20672   1.482   1.292   4.217  0.1188 -0.2314 -0.1787
 4026SOL    HW120673   1.513   1.211   4.166 -0.7833  0.4925 -1.9137
 4026SOL    HW220674   1.411   1.265   4.282 -0.2766 -0.8126 -0.8498
 4027SOL     OW20675   7.950   7.666   2.542 -0.4330  0.3185  0.2019
 4027SOL    HW120676   7.920   7.758   2.566  0.0798 -0.0763  2.4950
 4027SOL    HW220677   7.965   7.660   2.443 -0.6595  2.6233  0.0049
 4028SOL     OW20678   0.660   1.615   5.261 -0.1323 -0.5950  0.2483
 4028SOL    HW120679   0.729   1.679   5.296  0.4553 -0.8107 -0.4806
 4028SOL    HW220680   0.703   1.526   5.244 -0.8049 -1.0030  0.6613
 4029SOL     OW20681   5.266   1.841   4.236  0.2862 -0.1168  0.1691
 4029SOL    HW120682   5.247   1.887   4.150 -0.4132 -0.1274  0.3117
 4029SOL    HW220683   5.188   1.854   4.298 -0.2799 -2.1553 -0.0710
 4030SOL     OW20684   3.665   3.930   0.818  0.1523  0.0241 -0.4318
 4030SOL    HW120685   3.572   3.894   0.826  0.0577  0.0465 -1.3358
 4030SOL    HW220686   3.697   3.918   0.724  0.4229  1.5266 -0.5516
 4032SOL     OW20687   2.246   5.550   2.995 -0.2759  0.8041  0.0698
 4032SOL    HW120688   2.156   5.519   3.025  0.0607 -0.9940 -0.6933
 4032SOL    HW220689   2.315   5.486   3.028  0.6025  1.5617 -0.2941
 4033SOL     OW20690   6.223   1.641   2.003  0.5642 -0.1259 -0.8275
 4033SOL    HW120691   6.285   1.580   2.052  1.0888  1.0602  0.0156
 4033SOL    HW220692   6.146   1.665   2.061  0.6342  0.4302 -0.9556
 4036SOL     OW20693   0.216   1.920   1.585 -0.0797  0.0428 -0.7770
 4036SOL    HW120694   0.221   2.015   1.614  0.3233  0.1565 -1.2120
 4036SOL    HW220695   0.279   1.905   1.509 -2.3240  0.1321 -2.7021
 4038SOL     OW20696   8.296   1.288   3.494 -0.0507  0.2613  0.2191
 4038SOL    HW120697   8.219   1.250   3.546  0.0793  0.2299  0.3917
 4038SOL    HW220698   8.263   1.358   3.431 -0.4905 -1.1763 -1.1704
 4039SOL     OW20699   3.629   8.117   0.466 -0.4578  0.1929  0.5181
 4039SOL    HW120700   3.585   8.064   0.394  1.6608 -0.5616 -0.2314
 4039SOL    HW220701   3.664   8.055   0.537 -0.6350  0.7884  1.1300
 4041SOL     OW20702   8.204   2.112   3.157 -0.3726  0.4734  0.1758
 4041SOL    HW120703   8.205   2.166   3.241 -0.1899  2.5778 -1.1399
 4041SOL    HW220704   8.163   2.022   3.176 -1.6227  1.4146  2.1859
 4042SOL     OW20705   4.400   9.018   2.240  0.0041 -0.4087 -0.0815
 4042SOL    HW120706   4.494   8.984   2.237  0.5435  1.0193  0.2615
 4042SOL    HW220707   4.379   9.064   2.153 -0.5129 -1.0687 -0.3091
 4043SOL     OW20708   6.280   0.510   3.595  0.1749  0.2161 -0.4292
 4043SOL    HW120709   6.321   0.572   3.528  1.5736 -0.9085 -0.6378
 4043SOL    HW220710   6.198   0.467   3.555  0.5111  0.1982 -1.1014
 4044SOL     OW20711   4.152   7.290   4.586 -0.3735 -0.6594  0.0511
 4044SOL    HW120712   4.214   7.212   4.599  1.2344  0.2410 -2.0128
 4044SOL    HW220713   4.140   7.307   4.488  1.3644  3.2855  0.4365
 4047SOL     OW20714   3.063   2.044   4.872  0.2849  0.1209  0.1355
 4047SOL    HW120715   2.990   2.051   4.941  0.9307  2.1349  0.6594
 4047SOL    HW220716   3.152   2.044   4.918  0.6806 -0.0742 -0.6213
 4048SOL     OW20717   0.224   4.817   2.537 -0.9997 -0.0772 -0.3398
 4048SOL    HW120718   0.128   4.794   2.554 -0.6825  0.2671  2.0172
 4048SOL    HW220719   0.254   4.885   2.603  1.0964 -0.7601 -0.5610
 4052SOL     OW20720   2.366   7.182   0.111 -0.1799 -0.2390  0.5653
 4052SOL    HW120721   2.466   7.174   0.111 -0.0818  0.8257 -0.3721
 4052SOL    HW220722   2.328   7.116   0.047 -0.1664 -1.4938  1.8304
 4053SOL     OW20723   8.483   8.224   5.015 -0.1001  0.0572 -0.4715
 4053SOL    HW120724   8.406   8.181   5.062  0.5379 -0.0407  0.5076
 4053SOL    HW220725   8.567   8.174   5.036  0.1661 -0.1257 -1.9185
 4054SOL     OW20726   8.369   7.468   2.605  0.6179 -0.1239  0.2259
 4054SOL    HW120727   8.278   7.453   2.644  0.4188  1.3306  0.3734
 4054SOL    HW220728   8.394   7.564   2.617  2.5320 -0.6893  0.9394
 4055SOL     OW20729   5.183   3.576   0.129  0.7055  0.0254  0.2475
 4055SOL    HW120730   5.115   3.503   0.140  0.1609  0.7338  1.7275
 4055SOL    HW220731   5.137   3.660   0.102  0.9287  0.6040  1.6339
 4059SOL     OW20732   8.847   1.866   3.844  0.7358  0.0638  0.2133
 4059SOL    HW120733   8.847   1.824   3.935 -0.4358 -1.6170 -0.5608
 4059SOL    HW220734   8.773   1.933   3.838 -0.3412 -1.1381 -0.0926
 4060SOL     OW20735   8.791   1.061   2.236 -0.0535  0.1064  0.3631
 4060SOL    HW120736   8.779   0.976   2.185 -0.7245 -0.0770  0.8179
 4060SOL    HW220737   8.803   1.137   2.172  1.2973 -0.4327 -0.0392
 4061SOL     OW20738   9.251   8.671   5.122  0.3661  0.0537  0.4209
 4061SOL    HW120739   9.342   8.630   5.119  0.5384  0.3096  2.0710
 4061SOL    HW220740   9.222   8.682   5.217 -0.9363  0.9806 -0.0718
 4062SOL     OW20741   0.528   6.928   5.164  0.0627 -0.6612  0.6388
 4062SOL    HW120742   0.463   6.917   5.239 -3.2900  1.4991 -1.8049
 4062SOL    HW220743   0.563   7.021   5.163 -0.1757 -0.5774 -0.6576
 4063SOL     OW20744   5.477   5.344   1.055 -0.7637 -0.0292  0.0693
 4063SOL    HW120745   5.574   5.361   1.073 -0.9172  2.0479 -0.8167
 4063SOL    HW220746   5.464   5.327   0.957 -1.5008  1.5077 -0.1124
 4064SOL     OW20747   7.492   9.029   3.293 -0.0534 -0.7134 -0.2017
 4064SOL    HW120748   7.533   9.042   3.203  0.2564 -1.6301 -0.1968
 4064SOL    HW220749   7.493   8.932   3.317 -1.4997 -0.6644  0.1387
 4065SOL     OW20750   1.466   7.540   2.123  0.6863 -0.1619 -0.5189
 4065SOL    HW120751   1.420   7.591   2.051 -0.2972 -0.4194 -0.0872
 4065SOL    HW220752   1.541   7.486   2.084 -0.6069 -1.2542 -1.5474
 4066SOL     OW20753   8.132   3.942   2.541  0.1806 -0.2262 -0.8576
 4066SOL    HW120754   8.121   3.846   2.567  2.2465  0.1154  1.3909
 4066SOL    HW220755   8.045   3.989   2.551 -0.6473 -1.6459 -1.1462
 4067SOL     OW20756   1.531   9.083   3.501  0.4765  0.9781 -0.1073
 4067SOL    HW120757   1.541   8.999   3.447  0.2605  1.5173 -0.9935
 4067SOL    HW220758   1.457   9.138   3.464 -0.2860  0.9330  1.3138
 4068SOL     OW20759   6.318   0.390   1.162 -0.4391 -0.2245 -0.2274
 4068SOL    HW120760   6.376   0.447   1.220 -0.6222 -0.4627  0.1987
 4068SOL    HW220761   6.296   0.439   1.078  0.9400 -0.3998 -0.7070
 4069SOL     OW20762   5.976   7.516   4.656  0.5620 -0.4871 -0.1501
 4069SOL    HW120763   5.962   7.489   4.751 -0.6426  0.4855 -0.0448
 4069SOL    HW220764   5.933   7.450   4.595  1.5375 -1.2377 -0.0364
 4070SOL     OW20765   3.500   0.680   0.859 -0.5006 -0.2527 -0.2720
 4070SOL    HW120766   3.570   0.647   0.923 -0.6516  1.7573  1.0124
 4070SOL    HW220767   3.507   0.780   0.852 -2.1903 -0.1953 -1.3822
 4071SOL     OW20768   3.064   5.492   1.865  0.4310  0.1705  0.4567
 4071SOL    HW120769   3.054   5.447   1.776 -0.0370  0.1565  0.5145
 4071SOL    HW220770   2.973   5.505   1.906  0.5424  1.3615  0.3379
 4073SOL     OW20771   9.266   6.441   4.280 -0.3097  0.2171 -0.3049
 4073SOL    HW120772   9.277   6.422   4.377  0.0799 -1.2666 -0.6219
 4073SOL    HW220773   9.207   6.520   4.267  0.9647  1.4400  1.1781
 4074SOL     OW20774   2.574   5.127   2.302  0.6160  0.2067  0.0138
 4074SOL    HW120775   2.594   5.055   2.235 -1.5124 -1.6128  1.2774
 4074SOL    HW220776   2.655   5.141   2.360  1.3007 -0.6344 -0.7188
 4075SOL     OW20777   0.488   2.512   3.491 -0.1064 -0.4201 -0.7715
 4075SOL    HW120778   0.392   2.509   3.461 -0.0872 -0.1929 -0.8549
 4075SOL    HW220779   0.546   2.471   3.421 -0.2248 -1.2565 -0.3877
 4076SOL     OW20780   0.195   9.036   1.462  0.2792  0.5790 -0.7747
 4076SOL    HW120781   0.106   9.041   1.509  1.0989  0.2766  0.8467
 4076SOL    HW220782   0.220   9.126   1.427  0.9854  1.4417  1.8867
 4077SOL     OW20783   2.286   1.750   3.015  0.2166  0.0744 -0.1691
 4077SOL    HW120784   2.257   1.708   2.929 -2.0506  1.1128  0.0437
 4077SOL    HW220785   2.348   1.689   3.063 -0.1547 -1.4261 -1.5676
 4078SOL     OW20786   9.368   0.943   4.600 -0.9194  0.5121  0.6312
 4078SOL    HW120787   9.397   0.980   4.688 -0.4090 -1.0297  1.1411
 4078SOL    HW220788   9.305   0.867   4.615 -0.9052  0.3004 -0.3422
 4082SOL     OW20789   0.095   6.619   3.963 -0.2027  0.0275 -0.1272
 4082SOL    HW120790   0.113   6.698   4.022  0.3051 -0.9982  1.1015
 4082SOL    HW220791   0.181   6.591   3.919 -0.3264 -0.0235 -0.3361
 4083SOL     OW20792   3.406   8.406   1.130 -0.0341 -0.1349 -0.5952
 4083SOL    HW120793   3.310   8.392   1.157  0.2542 -2.0865 -0.4982
 4083SOL    HW220794   3.414   8.493   1.081 -1.9515 -0.1962 -1.0734
 4084SOL     OW20795   4.398   9.036   4.482 -0.1270  0.0374 -0.4364
 4084SOL    HW120796   4.403   8.937   4.465 -0.1116  0.0510 -0.5090
 4084SOL    HW220797   4.411   9.085   4.396 -0.4175  0.0955 -0.4462
 4085SOL     OW20798   5.935   1.885   3.337 -0.5002  0.2707  0.8906
 4085SOL    HW120799   6.016   1.832   3.313 -0.0086  1.0269  0.8642
 4085SOL    HW220800   5.912   1.947   3.262 -0.2153  1.1222  1.4978
 4086SOL     OW20801   1.762   6.814   1.147 -0.1049  0.3127  0.2352
 4086SOL    HW120802   1.701   6.838   1.071  0.5748  0.2767 -0.3193
 4086SOL    HW220803   1.823   6.740   1.119  0.6391  0.7949  0.5700
 4087SOL     OW20804   1.013   2.789   4.430  0.5094  0.3430  0.1403
 4087SOL    HW120805   0.974   2.774   4.340 -0.0879 -0.5067  0.5290
 4087SOL    HW220806   0.941   2.818   4.493  0.9448  1.0553  0.3147
 4088SOL     OW20807   8.703   3.464   0.009  0.7295  0.8087  0.1793
 4088SOL    HW120808   8.732   3.372  -0.017  0.6167  0.6564  0.5882
 4088SOL    HW220809   8.619   3.459   0.062 -1.6333  1.4139 -3.3083
 4091SOL     OW20810   3.866   0.218   3.181 -0.2539  0.9673 -0.0330
 4091SOL    HW120811   3.870   0.318   3.193 -1.4565  0.9461  0.6268
 4091SOL    HW220812   3.770   0.188   3.186  0.0174 -0.1129 -1.1708
 4092SOL     OW20813   4.171   4.252   4.376  0.2364  0.4758 -0.5080
 4092SOL    HW120814   4.113   4.171   4.384  0.2759  0.5138  0.1817
 4092SOL    HW220815   4.131   4.327   4.429  1.0617  0.4192  0.1949
 4093SOL     OW20816   9.782   2.777   4.445 -0.1288  0.2275 -0.4846
 4093SOL    HW120817   9.833   2.863   4.446 -0.2374  0.3082 -1.6659
 4093SOL    HW220818   9.827   2.711   4.504  0.9071  0.5512 -0.9085
 4094SOL     OW20819   0.835   6.808   4.932 -0.3976 -0.1029  0.3498
 4094SOL    HW120820   0.862   6.773   5.021  1.7603 -3.0026 -1.3647
 4094SOL    HW220821   0.872   6.901   4.920  1.4013 -0.6452  1.5282
 4096SOL     OW20822   9.400   0.468   0.917 -0.2086  0.4019  0.6475
 4096SOL    HW120823   9.361   0.381   0.887  0.5250  0.4301 -0.4130
 4096SOL    HW220824   9.357   0.543   0.867 -1.6180  0.7396  2.3456
 4097SOL     OW20825   3.856   4.309   4.258  0.3315 -0.0072  0.3285
 4097SOL    HW120826   3.767   4.345   4.288  0.7363  1.2921  0.0194
 4097SOL    HW220827   3.904   4.269   4.336 -1.0055 -1.7854  0.2803
 4098SOL     OW20828   9.722   9.540   1.506  0.2456  0.0685 -0.2694
 4098SOL    HW120829   9.813   9.534   1.546  0.5195 -0.9591 -1.0437
 4098SOL    HW220830   9.656   9.497   1.568  0.3351  0.5069  0.1315
 4099SOL     OW20831   5.170   1.637   1.283 -0.4191  0.1714  0.1452
 4099SOL    HW120832   5.129   1.580   1.211  0.8558 -1.0242  0.3611
 4099SOL    HW220833   5.269   1.639   1.272 -0.1204 -0.7639  2.3907
 4100SOL     OW20834   3.553   0.659   2.691  0.1613 -0.3424 -0.0028
 4100SOL    HW120835   3.547   0.666   2.591 -2.2730  0.0489  0.1384
 4100SOL    HW220836   3.563   0.563   2.717 -1.8391 -0.7102 -0.5313
 4101SOL     OW20837   0.003   4.584   4.326 -0.5029 -0.0318  0.0560
 4101SOL    HW120838  -0.007   4.501   4.381 -0.0272  0.3484  0.7305
 4101SOL    HW220839   0.099   4.595   4.300 -0.5006  0.4892  0.2682
 4102SOL     OW20840   4.517   4.763   3.014  0.0816 -0.2893 -0.1261
 4102SOL    HW120841   4.453   4.729   3.083  0.0634 -1.7019 -0.8117
 4102SOL    HW220842   4.469   4.819   2.947  0.1385  1.2965  1.1198
 4103SOL     OW20843   3.110   8.872   0.001 -0.6107  0.1373 -0.0073
 4103SOL    HW120844   3.189   8.923  -0.032 -0.4503  1.0536  1.7278
 4103SOL    HW220845   3.130   8.834   0.091 -1.5845 -0.9713 -0.2538
 4104SOL     OW20846   0.663   0.181   5.235 -0.4644 -0.9890  0.8199
 4104SOL    HW120847   0.608   0.156   5.155  1.5032 -1.9571 -0.2799
 4104SOL    HW220848   0.666   0.280   5.244  0.2248 -0.8186 -1.0106
 4105SOL     OW20849   3.703   6.199   1.288 -0.6096  0.4733  0.2260
 4105SOL    HW120850   3.689   6.253   1.205  3.1888  1.7297  0.3526
 4105SOL    HW220851   3.708   6.260   1.367 -1.6878 -0.5386  1.1010
 4106SOL     OW20852   6.957   1.899   0.311  0.0694 -0.2698 -0.0238
 4106SOL    HW120853   7.018   1.926   0.237  1.5845 -0.5733  1.0973
 4106SOL    HW220854   6.966   1.963   0.388 -0.6833 -0.5707  0.3250
 4108SOL     OW20855   6.962   0.676   1.417 -0.0689 -0.0847  0.2485
 4108SOL    HW120856   6.977   0.673   1.516 -0.1669  0.6387  0.2863
 4108SOL    HW220857   7.025   0.741   1.376 -1.2354  0.9416  0.0668
 4109SOL     OW20858   8.375   3.696   4.391 -0.4876  0.3548  0.3649
 4109SOL    HW120859   8.465   3.663   4.364 -0.2340  0.8922  0.5515
 4109SOL    HW220860   8.308   3.670   4.321 -0.5471 -1.7564  1.1716
 4110SOL     OW20861   2.908   0.970   2.045  0.2488 -0.2003  0.0939
 4110SOL    HW120862   2.808   0.979   2.039  0.2595  1.7704  2.2714
 4110SOL    HW220863   2.931   0.880   2.080 -0.7958 -0.4381  0.2089
 4111SOL     OW20864   9.981   0.651   0.721 -0.1643 -0.2424  0.3754
 4111SOL    HW120865   9.957   0.584   0.792  1.2014  0.0799  1.1586
 4111SOL    HW220866  10.006   0.737   0.764  1.3698 -0.2610 -0.4716
 4112SOL     OW20867   9.773   6.910   1.762  0.0320  0.1651 -0.5123
 4112SOL    HW120868   9.776   7.007   1.783  0.6236  0.2043 -0.7620
 4112SOL    HW220869   9.707   6.865   1.823  0.9940  0.4492  0.7750
 4113SOL     OW20870   1.693   7.441   2.956  0.6057 -0.1013  0.0211
 4113SOL    HW120871   1.605   7.472   2.991 -0.6495 -1.1347 -2.1496
 4113SOL    HW220872   1.742   7.392   3.029 -0.5110  0.6289  1.2880
 4114SOL     OW20873   8.066   8.884   4.573  0.1997 -0.0980 -0.2830
 4114SOL    HW120874   8.061   8.936   4.658 -1.3758  1.7750 -1.4628
 4114SOL    HW220875   8.087   8.945   4.497 -3.2761 -0.8032 -1.9504
 4115SOL     OW20876   4.511   9.687   1.685 -0.2076  0.3107  0.2854
 4115SOL    HW120877   4.565   9.743   1.748 -0.8225  1.7454 -0.4406
 4115SOL    HW220878   4.570   9.657   1.610  1.0012 -2.9100  2.3741
 4116SOL     OW20879   9.874   7.113   2.351  0.4164  0.4022  0.1307
 4116SOL    HW120880   9.898   7.065   2.267 -1.8295 -0.6489  0.0544
 4116SOL    HW220881   9.788   7.162   2.338  2.3558  4.0130  0.4068
 4117SOL     OW20882   5.846   8.419   3.033 -0.0595 -0.2634 -0.1146
 4117SOL    HW120883   5.826   8.371   2.947  1.0297 -1.2830  0.1948
 4117SOL    HW220884   5.927   8.380   3.075 -0.1661  0.7182  1.0291
 4118SOL     OW20885   3.055   3.619   2.429 -0.3719 -0.4101  0.0144
 4118SOL    HW120886   2.964   3.581   2.411 -1.4179  1.6210  0.8506
 4118SOL    HW220887   3.072   3.621   2.527  0.4085 -0.3893 -0.1130
 4119SOL     OW20888   1.852   6.054   1.456 -0.0394  0.4246 -0.3090
 4119SOL    HW120889   1.950   6.047   1.477  0.2199 -1.2074 -1.9643
 4119SOL    HW220890   1.817   5.965   1.429 -1.9995  1.0114  0.1973
 4121SOL     OW20891   6.725   1.536   4.882 -0.6295 -0.1013 -0.3261
 4121SOL    HW120892   6.720   1.481   4.798  2.0578 -1.5012  0.3760
 4121SOL    HW220893   6.666   1.496   4.952 -0.2610 -0.9151 -0.4751
 4123SOL     OW20894   2.840   8.897   5.041  0.4113 -0.0054  0.0021
 4123SOL    HW120895   2.884   8.970   5.094  0.0946  0.7983 -0.8234
 4123SOL    HW220896   2.910   8.841   4.997  0.6879 -0.8761  1.5099
 4124SOL     OW20897   1.896   0.802   1.272  0.4007 -0.0944 -0.0207
 4124SOL    HW120898   1.803   0.813   1.237  0.2298 -0.5164  0.3030
 4124SOL    HW220899   1.934   0.716   1.238  0.2344 -0.5087  0.8318
 4125SOL     OW20900   9.285   7.867   3.694 -0.4734  0.5302 -0.1942
 4125SOL    HW120901   9.296   7.966   3.680 -0.2418  0.7487  1.3518
 4125SOL    HW220902   9.190   7.847   3.716 -0.3467  0.5439  0.3867
 4126SOL     OW20903   8.916   6.682   1.385  0.0598  0.0843  0.2833
 4126SOL    HW120904   8.846   6.611   1.393  0.0646 -0.0017 -0.3560
 4126SOL    HW220905   8.959   6.676   1.294 -0.6445  1.5289 -0.1612
 4128SOL     OW20906   2.079   4.219   2.508  0.1562 -0.6360 -0.1468
 4128SOL    HW120907   2.057   4.122   2.498 -1.6169 -0.1312 -1.6032
 4128SOL    HW220908   2.120   4.236   2.597 -2.4207 -2.2313  1.3943
 4129SOL     OW20909   0.934   3.808   1.344 -0.0953 -0.0697  0.1903
 4129SOL    HW120910   0.949   3.746   1.267 -4.3923 -0.1062 -0.7468
 4129SOL    HW220911   0.976   3.896   1.324  1.4472 -0.9968 -0.8121
 4131SOL     OW20912   4.748   9.647   0.471  0.4172 -0.2945  0.3666
 4131SOL    HW120913   4.766   9.718   0.402  1.9760 -0.3937  0.6504
 4131SOL    HW220914   4.776   9.558   0.435  1.7733 -0.2666  1.3313
 4132SOL     OW20915   0.917   4.349   3.085  0.1698  0.1255 -0.0813
 4132SOL    HW120916   0.980   4.424   3.065  1.6255 -0.8814  0.5443
 4132SOL    HW220917   0.909   4.290   3.005 -0.2535  0.4617 -0.2813
 4133SOL     OW20918   5.094   1.571   0.997 -0.1952 -0.1132  0.7282
 4133SOL    HW120919   5.060   1.650   0.945  1.7535  0.6636  0.5739
 4133SOL    HW220920   5.170   1.529   0.947  1.0380  0.0316  2.4240
 4134SOL     OW20921   9.699   0.396   2.635  0.2054 -0.0480  0.2663
 4134SOL    HW120922   9.673   0.455   2.711 -1.5273  0.6473 -0.8317
 4134SOL    HW220923   9.657   0.430   2.551 -0.0245 -2.2735 -0.5505
 4135SOL     OW20924   0.088   0.112   4.349 -0.1733 -0.1053 -0.1866
 4135SOL    HW120925   0.173   0.127   4.399  1.0766 -0.6271 -2.0952
 4135SOL    HW220926   0.108   0.059   4.266 -2.3596 -0.2076 -0.6594
 4136SOL     OW20927   3.956   5.997   0.451  0.4699 -0.4991 -0.3525
 4136SOL    HW120928   3.954   5.967   0.355  0.3055 -2.2489  0.1722
 4136SOL    HW220929   3.893   5.940   0.505 -0.4003  1.3129  0.5719
 4137SOL     OW20930   7.789   3.578   3.884 -0.1957 -0.5934 -0.4168
 4137SOL    HW120931   7.726   3.507   3.851 -0.0746 -0.8854 -0.0150
 4137SOL    HW220932   7.868   3.535   3.928  0.8611 -0.2576 -1.9467
 4138SOL     OW20933   8.935   7.787   3.487 -0.0424  0.0835 -0.5918
 4138SOL    HW120934   8.986   7.863   3.527 -1.6839  0.5470  0.6349
 4138SOL    HW220935   8.961   7.702   3.532  0.3715  0.1773 -0.6513
 4139SOL     OW20936   8.787   9.443   2.217  0.3825  0.2962 -0.4425
 4139SOL    HW120937   8.810   9.478   2.308  2.3398 -1.3323 -0.2694
 4139SOL    HW220938   8.743   9.353   2.225  0.8198  0.0184 -1.1047
 4140SOL     OW20939   2.987   6.224   3.519 -0.4336 -0.2353 -0.2322
 4140SOL    HW120940   3.011   6.194   3.611  0.4716 -0.9231 -0.6798
 4140SOL    HW220941   2.909   6.286   3.523 -0.7657 -0.7208  0.9400
 4141SOL     OW20942   8.732   6.869   0.384  0.4050  0.2802 -0.0018
 4141SOL    HW120943   8.831   6.871   0.395  0.2799  2.5275  1.0662
 4141SOL    HW220944   8.701   6.959   0.353 -1.3746 -0.2196  0.3014
 4142SOL     OW20945   8.101   5.422   5.150 -0.1845  0.3474  0.2351
 4142SOL    HW120946   8.068   5.455   5.061  1.1395  1.4813  0.1596
 4142SOL    HW220947   8.054   5.337   5.172 -0.8977  0.3060 -1.3204
 4143SOL     OW20948   5.622   9.090   3.352 -0.0802  0.7911 -0.4022
 4143SOL    HW120949   5.683   9.059   3.425  0.8249  1.7639 -0.7258
 4143SOL    HW220950   5.673   9.097   3.266 -1.0006  0.2086 -1.0083
 4145SOL     OW20951   7.643   4.478   2.269 -0.3660  0.0840  0.4631
 4145SOL    HW120952   7.657   4.484   2.368  1.4784 -0.6037  0.2573
 4145SOL    HW220953   7.590   4.395   2.248  0.3190 -0.4422  0.7806
 4146SOL     OW20954   4.086   9.904   4.185  0.2564  0.3646 -0.2400
 4146SOL    HW120955   4.104   9.974   4.255 -0.0621 -0.2361  0.4446
 4146SOL    HW220956   3.989   9.882   4.184  0.0609  1.2262 -1.6923
 4147SOL     OW20957   5.057   2.777   2.896  0.0360  0.5146 -0.7517
 4147SOL    HW120958   4.964   2.777   2.859  0.4916 -1.9185 -2.0608
 4147SOL    HW220959   5.122   2.777   2.820  1.1064  1.3535  0.1514
 4149SOL     OW20960   4.619   9.344   1.972  0.3415 -0.3095  0.2450
 4149SOL    HW120961   4.629   9.394   2.058  0.0768 -0.0614  0.1352
 4149SOL    HW220962   4.708   9.335   1.928  0.0465  2.5245 -1.0882
 4150SOL     OW20963   9.222   9.436   3.155 -0.3828 -0.1803  0.2783
 4150SOL    HW120964   9.160   9.513   3.167  0.0484  0.2919 -0.5044
 4150SOL    HW220965   9.186   9.374   3.085  0.1081  0.1805 -0.2954
 4153SOL     OW20966   5.060   2.954   4.507  0.2160  0.7044  0.3682
 4153SOL    HW120967   5.097   2.876   4.558  0.5618 -0.0704 -1.0383
 4153SOL    HW220968   5.028   3.024   4.571 -1.6939 -1.3088  1.6780
 4154SOL     OW20969   6.968   7.995   4.410 -0.1795 -0.2489  0.0970
 4154SOL    HW120970   6.891   7.991   4.345  0.3422 -0.2265 -0.5279
 4154SOL    HW220971   6.933   8.013   4.502 -0.7778  1.5636 -0.4648
 4156SOL     OW20972   9.747   9.770   4.967 -0.2045 -0.3012 -0.3683
 4156SOL    HW120973   9.712   9.677   4.975 -2.4155  0.5946  1.1027
 4156SOL    HW220974   9.809   9.776   4.889  0.4563 -3.1290 -0.1204
 4158SOL     OW20975   0.601   1.539   0.172 -0.0793  0.1750  0.4442
 4158SOL    HW120976   0.669   1.578   0.110 -0.2125 -0.2411  0.0359
 4158SOL    HW220977   0.626   1.561   0.266  1.4859 -1.3301  0.3862
 4159SOL     OW20978   0.834   7.005   1.113 -0.4451  0.2689 -0.4607
 4159SOL    HW120979   0.801   6.911   1.122 -2.2061  1.0464  1.6586
 4159SOL    HW220980   0.905   7.021   1.182 -2.4899  1.4327  1.4478
 4160SOL     OW20981   1.319   2.419   1.208  0.7389  0.5658  0.3245
 4160SOL    HW120982   1.314   2.487   1.136 -1.5530 -0.5387 -0.6138
 4160SOL    HW220983   1.372   2.340   1.177 -1.2419 -0.4218 -0.6319
 4162SOL     OW20984   3.740   4.857   3.042 -0.1370 -0.5465  0.0906
 4162SOL    HW120985   3.706   4.854   3.136  0.3339  0.4490  0.2993
 4162SOL    HW220986   3.731   4.950   3.005  1.5559 -0.4426 -0.1369
 4163SOL     OW20987   9.623   6.682   2.691  0.5057  0.4566  0.0973
 4163SOL    HW120988   9.565   6.708   2.613  0.4426  1.0782  0.3475
 4163SOL    HW220989   9.718   6.707   2.672  0.9281 -1.8422 -0.8981
 4165SOL     OW20990   4.120   3.784   1.626 -0.1565  0.1922  0.3023
 4165SOL    HW120991   4.061   3.733   1.688  0.2949  0.5160  1.0025
 4165SOL    HW220992   4.152   3.724   1.552  1.7252 -1.0010  2.0237
 4166SOL     OW20993   1.553   9.485   3.256 -0.1334  0.2102  0.6607
 4166SOL    HW120994   1.596   9.395   3.245  0.7659  0.6027  0.9275
 4166SOL    HW220995   1.624   9.555   3.263 -0.8317  0.9989  0.0067
 4167SOL     OW20996   0.490   4.630   2.554 -0.1198 -0.2149  0.9318
 4167SOL    HW120997   0.417   4.564   2.539 -0.7466  0.7533 -0.3451
 4167SOL    HW220998   0.453   4.723   2.549  1.5237  0.3660 -2.0517
 4168SOL     OW20999   4.085   1.438   1.474 -0.5614  0.1428  0.1026
 4168SOL    HW121000   4.070   1.534   1.451 -1.5339  0.1562  0.7543
 4168SOL    HW221001   4.174   1.428   1.518 -0.9250  0.9299  1.0424
 4169SOL     OW21002   0.942   6.592   0.773 -0.1485 -0.8570  0.2118
 4169SOL    HW121003   0.845   6.599   0.751 -0.4307 -2.1836  0.9661
 4169SOL    HW221004   0.961   6.643   0.857  0.0133  0.2848 -0.5177
 4170SOL     OW21005   2.053   0.339   0.894  0.3810  0.7559  0.3950
 4170SOL    HW121006   2.130   0.402   0.901  1.6197 -0.6219 -0.4268
 4170SOL    HW221007   1.986   0.374   0.829  0.8709  1.3945  0.2320
 4171SOL     OW21008   4.298   7.780   3.210  0.2144 -0.4419 -0.1631
 4171SOL    HW121009   4.303   7.871   3.251  0.0613 -0.7947  0.6505
 4171SOL    HW221010   4.284   7.711   3.282  1.7153 -1.2516 -0.6175
 4172SOL     OW21011   3.815   4.884   2.670 -0.1224  0.1002 -0.0744
 4172SOL    HW121012   3.882   4.815   2.641 -0.8275 -0.7416  0.2494
 4172SOL    HW221013   3.735   4.878   2.611  0.3848  1.6280 -0.9496
 4173SOL     OW21014   8.945   6.342   5.297 -0.0365 -0.0416  0.9776
 4173SOL    HW121015   8.950   6.356   5.198 -0.6447  1.2591  1.1206
 4173SOL    HW221016   8.964   6.246   5.318 -0.6621 -0.4952 -0.4612
 4175SOL     OW21017   1.094   2.138   1.804 -0.3819  0.5243 -0.6067
 4175SOL    HW121018   1.038   2.194   1.866  0.2159  1.3025 -0.7661
 4175SOL    HW221019   1.124   2.056   1.852 -0.4556  0.8132 -0.0598
 4177SOL     OW21020   8.468   0.365   4.905 -0.5806  0.2608  0.1804
 4177SOL    HW121021   8.384   0.335   4.860 -0.6208 -1.4700  1.3184
 4177SOL    HW221022   8.503   0.290   4.961  1.8875  0.8747 -0.5068
 4178SOL     OW21023   0.103   1.014   3.545 -0.2249 -0.7411 -0.3332
 4178SOL    HW121024   0.024   1.000   3.604  0.5141 -0.8955  0.6369
 4178SOL    HW221025   0.082   0.984   3.452 -1.8408  0.7417 -0.4597
 4179SOL     OW21026   9.568   2.244   4.938  0.4427  0.2144  0.2351
 4179SOL    HW121027   9.471   2.255   4.915  0.6332 -2.5762 -2.2009
 4179SOL    HW221028   9.576   2.185   5.019  0.1209 -1.6686 -1.0660
 4181SOL     OW21029   0.433   1.733   2.604 -0.0104 -0.5715 -0.1367
 4181SOL    HW121030   0.533   1.729   2.610  0.0403  0.7683  0.0268
 4181SOL    HW221031   0.406   1.756   2.510 -0.1126  0.6196  0.1816
 4182SOL     OW21032   0.514   6.798   4.934  0.5712 -0.2751 -0.0374
 4182SOL    HW121033   0.514   6.820   5.032 -0.1089  0.4308 -0.1898
 4182SOL    HW221034   0.597   6.836   4.892 -0.0432  1.0524 -0.0813
 4183SOL     OW21035   2.851   0.748   3.005 -0.1168  0.2267 -0.4413
 4183SOL    HW121036   2.806   0.754   3.094 -1.7067 -1.1521 -1.1216
 4183SOL    HW221037   2.949   0.735   3.017 -0.1360  1.4125  1.0893
 4184SOL     OW21038   7.303   8.853   4.307 -0.2808  0.1329  0.3211
 4184SOL    HW121039   7.400   8.872   4.320  0.0416 -0.1645 -1.5815
 4184SOL    HW221040   7.290   8.802   4.222 -2.2827  1.6849 -0.3315
 4185SOL     OW21041   0.914   9.292   0.107  0.1952  0.3335 -0.0593
 4185SOL    HW121042   0.866   9.335   0.031  1.1841  2.3128  0.3782
 4185SOL    HW221043   0.938   9.198   0.084 -1.9662  0.0162 -1.0899
 4186SOL     OW21044   9.656   2.803   3.076 -0.4369 -0.3250 -0.0590
 4186SOL    HW121045   9.596   2.865   3.127 -1.4568 -0.7886 -0.6917
 4186SOL    HW221046   9.646   2.710   3.112 -0.3309 -0.4573 -0.3686
 4188SOL     OW21047   3.713   4.011   2.881 -0.3630  0.2896  0.6405
 4188SOL    HW121048   3.692   4.063   2.798  0.9882 -3.4599 -2.2423
 4188SOL    HW221049   3.628   3.981   2.924 -1.1901 -1.6581 -2.1388
 4189SOL     OW21050   4.816   4.141   2.896  0.2812  0.4028  0.2431
 4189SOL    HW121051   4.828   4.206   2.971  0.0900 -0.4596  1.0330
 4189SOL    HW221052   4.728   4.094   2.905  0.9403 -0.8439  0.3736
 4190SOL     OW21053   0.513   2.355   3.215 -0.0933  0.1102  0.1230
 4190SOL    HW121054   0.612   2.371   3.226  0.3961 -2.5928  0.0918
 4190SOL    HW221055   0.482   2.290   3.285 -1.7461  0.5141 -0.2154
 4191SOL     OW21056   5.876   7.466   4.211 -0.1435 -0.6918 -0.6273
 4191SOL    HW121057   5.962   7.439   4.253 -0.7685  0.7550  1.6798
 4191SOL    HW221058   5.893   7.514   4.125  1.3627  0.1682  0.1491
 4192SOL     OW21059   3.920   8.283   2.102  0.0900 -0.0969 -0.8040
 4192SOL    HW121060   3.919   8.369   2.051 -2.1746  0.0911 -0.5112
 4192SOL    HW221061   3.938   8.207   2.039  1.7882  0.5353 -1.1141
 4193SOL     OW21062   8.636   9.561   1.333  0.2999  0.3328  0.3069
 4193SOL    HW121063   8.638   9.613   1.418 -2.4956 -0.0374  0.6296
 4193SOL    HW221064   8.633   9.624   1.255  1.2191  0.6552  0.5284
 4194SOL     OW21065   3.343   5.383   0.957  0.2850 -0.6890 -0.0746
 4194SOL    HW121066   3.282   5.377   1.036  0.5191  1.3866  0.2818
 4194SOL    HW221067   3.425   5.329   0.975 -0.1752 -1.1707  0.6131
 4195SOL     OW21068   8.237   0.304   2.882  0.5465  0.1520 -0.1339
 4195SOL    HW121069   8.209   0.296   2.786  0.6819  0.1708 -0.1747
 4195SOL    HW221070   8.182   0.375   2.927 -0.3310 -0.6709  0.1093
 4196SOL     OW21071   9.020   3.556   1.078 -0.0588  0.1434  0.1548
 4196SOL    HW121072   9.052   3.553   0.984 -0.3967  0.4404  0.0293
 4196SOL    HW221073   9.047   3.472   1.125 -0.3807 -0.2609 -0.3702
 4197SOL     OW21074   3.679   6.900   4.792  0.8256 -0.0516  0.1581
 4197SOL    HW121075   3.649   6.968   4.726 -1.0949  0.4498  1.5033
 4197SOL    HW221076   3.713   6.819   4.744 -2.8781 -0.7497 -1.4967
 4198SOL     OW21077   2.315   6.346   1.612 -0.2722  0.1131  0.1922
 4198SOL    HW121078   2.271   6.296   1.686 -0.9638 -0.1378 -0.3797
 4198SOL    HW221079   2.396   6.392   1.646 -0.7637  0.2585  1.1794
 4200SOL     OW21080   8.330   8.407   4.142  0.6571 -0.4600  0.7082
 4200SOL    HW121081   8.281   8.344   4.203  2.3430 -0.6720  1.8907
 4200SOL    HW221082   8.327   8.499   4.181  0.6945 -0.3585  0.4726
 4201SOL     OW21083   1.448   9.536   1.880 -0.2809 -0.2716 -0.4416
 4201SOL    HW121084   1.521   9.485   1.925 -1.1674 -0.0017  1.3434
 4201SOL    HW221085   1.364   9.530   1.935 -0.9643  1.3492 -1.2834
 4202SOL     OW21086   2.575   8.216   4.069 -0.1516 -0.2787  0.2403
 4202SOL    HW121087   2.600   8.260   4.155 -1.3350 -0.7786  0.8354
 4202SOL    HW221088   2.494   8.261   4.031  0.0893 -0.3653 -0.3806
 4203SOL     OW21089   2.641   0.971   2.071  0.0304 -0.2761 -0.4439
 4203SOL    HW121090   2.601   0.911   2.140  0.2868 -0.4376 -0.4349
 4203SOL    HW221091   2.582   0.973   1.990 -0.8524  0.8065  0.2117
 4205SOL     OW21092   7.767   2.601   3.183 -0.1144  0.3892  0.0926
 4205SOL    HW121093   7.799   2.565   3.271 -1.7301  0.6918  0.8366
 4205SOL    HW221094   7.799   2.543   3.109 -1.0562 -1.4823  1.1188
 4206SOL     OW21095   9.592   4.735   4.596  0.2800 -0.1084  0.1534
 4206SOL    HW121096   9.516   4.763   4.538  1.0664 -0.4088 -1.0387
 4206SOL    HW221097   9.570   4.754   4.692 -0.5964  1.3567 -0.3346
 4208SOL     OW21098   4.863   0.214   2.993  0.7329  0.0912  0.6221
 4208SOL    HW121099   4.951   0.179   3.026 -0.0848 -0.3579  2.3861
 4208SOL    HW221100   4.814   0.141   2.945  1.6602  0.5802 -1.1464
 4209SOL     OW21101   4.484   1.022   0.242 -0.2717 -0.5099 -0.0673
 4209SOL    HW121102   4.428   0.948   0.206 -0.2277 -1.0706  1.0072
 4209SOL    HW221103   4.568   0.985   0.281  0.3968  0.2336 -0.7615
 4210SOL     OW21104   9.182   0.758   4.603  0.4574 -0.3909 -0.9116
 4210SOL    HW121105   9.220   0.680   4.653  0.6864 -0.6858 -1.5472
 4210SOL    HW221106   9.150   0.727   4.513  0.2402  0.1812 -1.0290
 4212SOL     OW21107   7.864   3.399   3.252 -0.5125  0.1694 -0.2989
 4212SOL    HW121108   7.884   3.306   3.220 -2.0521 -0.4691  0.5642
 4212SOL    HW221109   7.937   3.461   3.221  0.7796 -1.4018 -0.4749
 4213SOL     OW21110   0.063   3.919   3.640 -0.2348  0.1416 -0.2995
 4213SOL    HW121111  -0.035   3.923   3.620 -0.2381 -0.1228 -0.3296
 4213SOL    HW221112   0.093   4.008   3.675 -0.6023  0.0437  0.2624
 4214SOL     OW21113   1.682   3.155   1.041  0.6467  0.2893 -0.0226
 4214SOL    HW121114   1.734   3.153   1.127  1.1422  0.5983 -0.3114
 4214SOL    HW221115   1.588   3.182   1.059  0.5120 -0.5318  0.5439
 4215SOL     OW21116   3.538   2.529   3.915  0.5865  0.7815 -0.2765
 4215SOL    HW121117   3.449   2.489   3.896  1.0866 -1.2712  1.5162
 4215SOL    HW221118   3.584   2.551   3.829 -0.5432 -0.6186 -1.2638
 4216SOL     OW21119   3.546   6.688   2.983  0.4455 -0.2414  0.1814
 4216SOL    HW121120   3.524   6.751   2.909 -0.0464 -0.2455  0.3183
 4216SOL    HW221121   3.479   6.699   3.057  0.8006 -0.3947  0.5239
 4217SOL     OW21122   1.373   3.849   1.147 -0.2483 -0.0519  0.2512
 4217SOL    HW121123   1.282   3.876   1.178 -0.1928 -0.8206  1.0951
 4217SOL    HW221124   1.367   3.812   1.054 -0.7828 -0.0314  0.2735
 4218SOL     OW21125   4.268   0.048   4.654 -0.4683 -0.1259  0.6938
 4218SOL    HW121126   4.361   0.040   4.617 -0.2690 -2.5846  1.6348
 4218SOL    HW221127   4.207  -0.015   4.606 -1.6642  1.3916  0.1610
 4219SOL     OW21128   4.164   3.487   2.391 -0.3125 -0.0742 -0.0233
 4219SOL    HW121129   4.255   3.521   2.413  0.5175 -2.5987  0.6234
 4219SOL    HW221130   4.156   3.474   2.292  0.5772 -1.3064  0.0588
 4220SOL     OW21131   2.721   9.533   1.175  0.1945  0.2343 -0.3981
 4220SOL    HW121132   2.627   9.504   1.195  1.2425 -1.9037  1.6868
 4220SOL    HW221133   2.775   9.530   1.259  2.0948  1.6436 -1.5414
 4221SOL     OW21134   8.946   0.050   3.150  0.2408  0.2193 -0.0423
 4221SOL    HW121135   8.994   0.028   3.064 -1.0756 -0.1096 -0.7020
 4221SOL    HW221136   8.864  -0.007   3.158  0.2714  0.3519  1.3748
 4222SOL     OW21137   7.581   2.358   4.661 -0.2683 -0.0597  0.1185
 4222SOL    HW121138   7.524   2.409   4.597 -0.7683  0.8710  1.2783
 4222SOL    HW221139   7.666   2.331   4.617 -1.2318 -0.7022 -1.3695
 4224SOL     OW21140   6.073   0.896   5.025 -0.1229 -0.0518 -0.7809
 4224SOL    HW121141   6.023   0.981   5.044 -0.2293 -0.2603 -0.1151
 4224SOL    HW221142   6.032   0.851   4.945 -1.5335 -0.6256  0.2362
 4225SOL     OW21143   9.772   2.092   4.664  0.0885  0.2585 -0.1038
 4225SOL    HW121144   9.698   2.113   4.729 -0.8684 -1.4864 -0.6108
 4225SOL    HW221145   9.812   2.178   4.631 -1.2445  1.2094  0.7005
 4226SOL     OW21146   9.537   3.184   2.895  0.0393 -0.7605  0.0893
 4226SOL    HW121147   9.629   3.157   2.927  0.0820  1.0578  1.6051
 4226SOL    HW221148   9.545   3.260   2.831 -0.4646  0.6869  1.6820
 4227SOL     OW21149   4.009   1.293   4.651  0.4176 -0.7276 -0.2157
 4227SOL    HW121150   3.988   1.205   4.693 -1.0954 -0.5668 -0.6251
 4227SOL    HW221151   3.924   1.342   4.632  1.2085  0.3402 -1.0177
 4228SOL     OW21152   0.851   5.342   0.573 -0.1062  0.0847 -0.3967
 4228SOL    HW121153   0.900   5.274   0.627  0.6690  0.7122 -0.3014
 4228SOL    HW221154   0.853   5.430   0.620 -1.3962  0.0999 -0.3603
 4229SOL     OW21155   4.319   4.730   4.451 -0.4652  0.2300  0.1407
 4229SOL    HW121156   4.288   4.799   4.516 -2.4703 -0.8452  0.3849
 4229SOL    HW221157   4.341   4.645   4.500 -0.1127  0.0277 -0.3661
 4230SOL     OW21158   3.904   5.280   4.309 -0.2987  0.2575  0.2221
 4230SOL    HW121159   3.815   5.249   4.344 -1.2867 -0.1797 -2.5789
 4230SOL    HW221160   3.921   5.238   4.220  1.2051  2.9507 -0.7903
 4232SOL     OW21161   9.978   8.808   2.678 -0.4932 -0.5438  0.4853
 4232SOL    HW121162   9.947   8.902   2.663 -0.2252 -0.3134  1.3587
 4232SOL    HW221163   9.972   8.786   2.775 -0.0358 -1.2492  0.3567
 4233SOL     OW21164   3.459   4.959   2.878 -0.8206 -0.1606 -0.2568
 4233SOL    HW121165   3.503   4.893   2.817 -0.4104  1.2065 -1.4420
 4233SOL    HW221166   3.528   5.002   2.936 -0.7990  0.8237 -1.0102
 4234SOL     OW21167   1.241   1.814   4.425 -0.0409 -0.0003 -0.5168
 4234SOL    HW121168   1.284   1.856   4.504  1.1078 -1.3121 -0.4352
 4234SOL    HW221169   1.222   1.718   4.444 -0.3557 -0.1607 -1.6034
 4235SOL     OW21170   6.529   1.431   3.162 -0.3083 -0.2320  0.1347
 4235SOL    HW121171   6.590   1.488   3.216  0.7804 -1.5500  0.3094
 4235SOL    HW221172   6.515   1.472   3.072 -0.7852  1.0968  0.8006
 4237SOL     OW21173   7.453   2.992   0.703 -0.6781  0.2134  0.0997
 4237SOL    HW121174   7.459   3.087   0.671 -1.7154  0.4361  0.5472
 4237SOL    HW221175   7.380   2.984   0.771 -0.3464 -0.8332  0.3412
 4239SOL     OW21176   6.543   9.854   1.618  0.0469  0.0732 -0.6418
 4239SOL    HW121177   6.486   9.837   1.699  0.3439  0.3946 -0.3662
 4239SOL    HW221178   6.490   9.908   1.552  0.2778  1.0022 -0.0770
 4240SOL     OW21179   0.118   6.120   1.617 -0.2752 -0.3463  0.4946
 4240SOL    HW121180   0.027   6.109   1.577  0.2577  0.2681 -0.9200
 4240SOL    HW221181   0.168   6.191   1.567  0.9309 -0.5802  1.3506
 4242SOL     OW21182   3.105   1.866   0.842  0.2797 -0.1028  0.0395
 4242SOL    HW121183   3.203   1.847   0.834  0.0038 -0.8838 -1.6785
 4242SOL    HW221184   3.083   1.950   0.793 -0.1540 -0.7520 -0.8939
 4243SOL     OW21185   9.562   6.604   3.485  0.2389  0.0182 -0.4345
 4243SOL    HW121186   9.535   6.510   3.507 -0.1564  0.5319  1.3825
 4243SOL    HW221187   9.486   6.665   3.505  1.5025  1.0622  1.2336
 4244SOL     OW21188   8.711   9.202   2.294 -0.2645  0.5737 -0.4682
 4244SOL    HW121189   8.655   9.124   2.320  0.2531 -0.3534 -2.0571
 4244SOL    HW221190   8.801   9.195   2.338 -0.4994  0.7086  0.0320
 4246SOL     OW21191   4.873   9.863   3.995  0.4343 -0.3702 -0.3051
 4246SOL    HW121192   4.893   9.820   3.906 -1.0501 -1.3513 -0.1971
 4246SOL    HW221193   4.958   9.890   4.040  1.3741 -2.6339 -0.6752
 4247SOL     OW21194   8.361   5.412   5.299  0.1619  0.4102 -1.1144
 4247SOL    HW121195   8.267   5.388   5.276  0.0526 -0.6835  0.4517
 4247SOL    HW221196   8.363   5.474   5.378  0.7393  0.8674 -1.4735
 4248SOL     OW21197   6.089   0.758   2.031  0.3189 -0.0341  0.3321
 4248SOL    HW121198   6.167   0.743   2.092  0.6885  1.1495  0.1713
 4248SOL    HW221199   6.006   0.722   2.073  0.5916  0.6686  1.5022
 4249SOL     OW21200   8.549   4.806   3.989 -0.1554 -0.3353  0.2400
 4249SOL    HW121201   8.572   4.756   4.073 -1.5899 -0.4718  0.5664
 4249SOL    HW221202   8.548   4.742   3.912 -0.2186 -0.4728  0.3542
 4250SOL     OW21203   5.117   4.305   4.003  0.0369 -0.0560  0.4173
 4250SOL    HW121204   5.122   4.315   3.903 -0.1156  1.9471  0.5957
 4250SOL    HW221205   5.050   4.235   4.025 -1.8603  1.3089 -0.8407
 4252SOL     OW21206   9.922   2.804   5.219  0.1904 -0.1849  0.3527
 4252SOL    HW121207   9.825   2.826   5.228  0.5495  1.3921  0.4119
 4252SOL    HW221208   9.955   2.833   5.130  0.9216  0.4884  0.8364
 4253SOL     OW21209   4.716   4.541   2.219  0.9262  0.5823 -0.1053
 4253SOL    HW121210   4.707   4.574   2.313  1.4344  1.4422 -0.3510
 4253SOL    HW221211   4.701   4.616   2.155 -3.3949 -0.8019 -0.8787
 4254SOL     OW21212   6.502   0.232   4.839 -0.1139 -0.0295 -0.4045
 4254SOL    HW121213   6.443   0.155   4.862 -0.9962  1.6020  3.1147
 4254SOL    HW221214   6.458   0.288   4.768 -1.0222 -0.8917 -0.5270
 4255SOL     OW21215   0.425   1.062   4.329 -0.1756  0.3761  0.0208
 4255SOL    HW121216   0.349   1.054   4.265 -2.7144 -0.4047  3.0254
 4255SOL    HW221217   0.403   1.130   4.399  1.8554  0.0907  0.9747
 4256SOL     OW21218   7.152   1.215   5.108 -0.3883  0.4401 -0.1840
 4256SOL    HW121219   7.062   1.230   5.066 -1.3263 -0.4607  1.4739
 4256SOL    HW221220   7.185   1.300   5.149 -0.2535  0.8835 -1.1749
 4257SOL     OW21221   8.485   7.623   4.888 -0.0037 -0.3987  0.5792
 4257SOL    HW121222   8.517   7.531   4.909 -0.3842 -0.3137  1.5572
 4257SOL    HW221223   8.409   7.646   4.948  0.8066  0.9753  1.0994
 4258SOL     OW21224   9.436   5.567   3.422  0.1908  0.0887  0.1462
 4258SOL    HW121225   9.381   5.535   3.499 -0.3039  0.2281 -0.1447
 4258SOL    HW221226   9.432   5.500   3.348 -0.9638  0.8711 -0.5183
 4259SOL     OW21227   0.469   8.432   4.304  0.3757  0.0505  0.1297
 4259SOL    HW121228   0.529   8.479   4.240  0.5210  0.0798  0.2865
 4259SOL    HW221229   0.450   8.340   4.271  1.1816 -0.2498  0.4997
 4260SOL     OW21230   1.046   5.943   0.525  0.3386 -0.0704  0.7495
 4260SOL    HW121231   1.057   5.870   0.591 -1.7815 -0.9365  0.1889
 4260SOL    HW221232   1.084   5.915   0.437  1.2068  0.2423  1.0198
 4261SOL     OW21233   6.469   0.440   4.264  0.7611  0.4213 -0.0919
 4261SOL    HW121234   6.552   0.384   4.267  2.2068  2.5185  0.7872
 4261SOL    HW221235   6.461   0.491   4.350 -1.7868 -0.2027  0.0781
 4264SOL     OW21236   2.506   0.654   0.656 -0.6425 -0.1505 -0.4789
 4264SOL    HW121237   2.407   0.649   0.667 -0.7869 -1.0849 -2.0682
 4264SOL    HW221238   2.543   0.562   0.643  0.1264  0.4005 -2.3241
 4265SOL     OW21239   1.669   7.022   2.205  0.0970 -0.0972 -0.6463
 4265SOL    HW121240   1.747   6.996   2.147 -0.3640 -0.1409 -1.2523
 4265SOL    HW221241   1.648   6.947   2.268  1.4718  0.4795  0.5419
 4266SOL     OW21242   8.837   6.379   3.394  0.1697  0.0463 -0.2151
 4266SOL    HW121243   8.820   6.478   3.391 -1.4039 -0.1914  0.3365
 4266SOL    HW221244   8.780   6.338   3.464  1.3649 -1.1714  0.0673
 4267SOL     OW21245   3.578   2.971   4.660 -0.8471 -0.1087 -0.5809
 4267SOL    HW121246   3.673   2.994   4.638 -0.3281 -1.3089  0.3995
 4267SOL    HW221247   3.523   2.978   4.577  0.8093 -3.0110 -2.0185
 4268SOL     OW21248   4.854   9.385   2.754 -0.0352  0.0199  0.1677
 4268SOL    HW121249   4.928   9.340   2.804 -0.6756 -0.7416  0.4329
 4268SOL    HW221250   4.859   9.484   2.769  1.4874  0.0623 -0.5630
 4269SOL     OW21251   4.936   2.033   0.860 -0.6288  0.2697 -0.2727
 4269SOL    HW121252   4.905   2.007   0.951 -2.6229 -1.4788 -1.3880
 4269SOL    HW221253   4.952   2.132   0.857  0.7495  0.1565  2.2934
 4270SOL     OW21254   0.412   7.460   4.147 -0.3929  0.0033 -0.5684
 4270SOL    HW121255   0.489   7.516   4.178 -0.6295  0.0085  0.0105
 4270SOL    HW221256   0.335   7.471   4.210 -0.3090 -1.2816 -0.2156
 4271SOL     OW21257   8.922   2.865   1.867 -0.5339 -0.1289  0.4251
 4271SOL    HW121258   8.857   2.932   1.903 -0.0192  0.0058  1.1238
 4271SOL    HW221259   8.918   2.782   1.923 -0.8222 -0.4995 -0.1406
 4272SOL     OW21260   6.575   7.446   5.246 -0.3161  0.0802  0.6225
 4272SOL    HW121261   6.647   7.488   5.192 -0.9917 -0.2431 -0.5580
 4272SOL    HW221262   6.529   7.376   5.191 -1.5576  0.3163  1.3328
 4273SOL     OW21263   7.848   5.317   4.965 -0.2167  0.2772  0.0611
 4273SOL    HW121264   7.808   5.258   4.895  0.4136 -1.6127  1.2340
 4273SOL    HW221265   7.921   5.372   4.926  2.7548 -3.5416 -0.0229
 4274SOL     OW21266   4.896   8.313   3.111 -0.1292 -0.1311 -0.3698
 4274SOL    HW121267   4.821   8.248   3.122  0.5130 -0.8671 -0.2461
 4274SOL    HW221268   4.949   8.317   3.196  0.1870  0.0971 -0.5753
 4275SOL     OW21269   2.722   4.138   2.472 -0.0052 -0.0157 -0.5204
 4275SOL    HW121270   2.693   4.043   2.485  0.0334  0.1594  0.9063
 4275SOL    HW221271   2.804   4.140   2.415 -0.2726 -0.8082 -0.9324
 4276SOL     OW21272   1.140   8.253   2.702 -0.2653 -0.3934 -0.8078
 4276SOL    HW121273   1.173   8.340   2.740  1.7268  0.0330 -3.3861
 4276SOL    HW221274   1.126   8.188   2.777  0.3939  1.4064  0.9542
 4277SOL     OW21275   1.462   6.787   2.775 -0.6965  0.5098  0.3243
 4277SOL    HW121276   1.369   6.806   2.743 -1.5138  0.2587  2.4824
 4277SOL    HW221277   1.465   6.795   2.875  2.0388  2.4169  0.1354
 4278SOL     OW21278   2.364   1.097   2.162 -0.0755 -0.3797  0.5504
 4278SOL    HW121279   2.349   1.179   2.106  1.9942  0.4395  1.1509
 4278SOL    HW221280   2.447   1.108   2.215  0.6003 -3.1844  0.1405
 4280SOL     OW21281   0.350   6.694   2.316  0.2578  0.1653 -0.0974
 4280SOL    HW121282   0.426   6.747   2.278 -0.4830  0.4938 -1.1272
 4280SOL    HW221283   0.290   6.754   2.368 -0.4443  0.2938 -1.0526
 4282SOL     OW21284   3.191   6.489   3.706  0.1608 -0.1952  0.1820
 4282SOL    HW121285   3.099   6.465   3.676  0.2644 -0.8649  0.3865
 4282SOL    HW221286   3.198   6.588   3.717 -0.0114  0.0241 -1.5529
 4284SOL     OW21287   4.361   4.024   0.415  0.3772 -0.3509  0.3036
 4284SOL    HW121288   4.460   4.020   0.434  0.6140 -2.6276 -1.2987
 4284SOL    HW221289   4.317   3.942   0.452 -0.4277 -0.8270 -1.6600
 4285SOL     OW21290   5.879   4.788   0.061 -0.0383  0.2731  0.3456
 4285SOL    HW121291   5.842   4.847   0.133 -1.7563  1.0422 -1.1314
 4285SOL    HW221292   5.881   4.693   0.093 -0.7469  0.6076  1.4023
 4286SOL     OW21293   1.423   7.907   0.863  0.6904  0.1705 -0.1384
 4286SOL    HW121294   1.485   7.863   0.927  0.7354 -0.0514 -0.3314
 4286SOL    HW221295   1.329   7.896   0.895  0.7312  0.2739  0.0156
 4287SOL     OW21296   6.861   3.229   0.088  0.4763  0.1324  0.4055
 4287SOL    HW121297   6.893   3.213   0.181  2.4620  0.0021 -0.2839
 4287SOL    HW221298   6.776   3.282   0.090  0.0844 -0.5431  2.3011
 4288SOL     OW21299   5.481   9.120   4.570 -0.4199 -0.0545 -0.2195
 4288SOL    HW121300   5.507   9.157   4.659 -0.3276 -0.6773  0.0108
 4288SOL    HW221301   5.553   9.141   4.503 -0.5850  0.5889 -0.1936
 4289SOL     OW21302   5.341   9.347   4.331 -0.5224 -0.1782  0.5631
 4289SOL    HW121303   5.275   9.301   4.392 -2.0821  0.6879 -0.4256
 4289SOL    HW221304   5.299   9.360   4.241  1.0677  0.3022 -0.1224
 4290SOL     OW21305   4.561   0.254   3.783 -0.4351 -0.1343  0.3457
 4290SOL    HW121306   4.531   0.341   3.745  1.8786  0.1433 -0.9685
 4290SOL    HW221307   4.494   0.183   3.762 -1.9115  1.1577  0.6709
 4292SOL     OW21308   5.203   8.551   0.219  0.1870 -0.1321  0.7925
 4292SOL    HW121309   5.126   8.498   0.184 -1.4746  2.9161 -0.2851
 4292SOL    HW221310   5.183   8.582   0.312 -0.4181  1.7213  0.0433
 4293SOL     OW21311   0.801   0.693   3.399 -0.0066  0.5224  0.3532
 4293SOL    HW121312   0.799   0.727   3.493 -0.9427  1.5905 -0.0436
 4293SOL    HW221313   0.785   0.769   3.336  0.3354 -0.2394 -0.6614
 4294SOL     OW21314   0.804   2.039   0.253  0.0076 -0.4103 -0.4519
 4294SOL    HW121315   0.786   2.083   0.165  4.1295  1.3737 -0.5063
 4294SOL    HW221316   0.878   1.972   0.241  0.8516  0.1160  1.6876
 4295SOL     OW21317   6.294   7.961   3.774  0.2423 -0.5996 -0.0310
 4295SOL    HW121318   6.246   7.874   3.764  1.1281 -0.9377 -1.4976
 4295SOL    HW221319   6.376   7.948   3.830  0.4408 -0.7399 -0.3524
 4296SOL     OW21320   2.569   5.589   5.200  0.2876 -0.3769 -0.0250
 4296SOL    HW121321   2.647   5.642   5.168 -0.3139  1.1073  0.9029
 4296SOL    HW221322   2.500   5.651   5.238 -0.9379 -1.7384  0.0210
 4297SOL     OW21323   4.626   3.496   0.053  0.0384  0.0605  0.4969
 4297SOL    HW121324   4.579   3.541  -0.023 -1.3229 -1.3637  0.4654
 4297SOL    HW221325   4.580   3.519   0.139 -0.0019 -0.3881  0.5964
 4298SOL     OW21326   3.384   8.155   0.997 -0.1470  0.2198 -0.2110
 4298SOL    HW121327   3.382   8.248   1.034  0.5514  0.4327 -0.6910
 4298SOL    HW221328   3.303   8.105   1.027 -0.7724  1.1405 -0.3567
 4299SOL     OW21329   7.477   7.110   4.567  0.0523 -0.1013  0.4580
 4299SOL    HW121330   7.570   7.094   4.600 -0.3486 -0.9300  1.1907
 4299SOL    HW221331   7.472   7.085   4.470  0.9982  1.4792 -0.0264
 4301SOL     OW21332   8.537   0.298   4.005 -0.1925  0.0663 -0.0736
 4301SOL    HW121333   8.477   0.356   3.950 -0.1122 -0.1558 -0.3949
 4301SOL    HW221334   8.623   0.283   3.956  0.0014  0.1182  0.2444
 4302SOL     OW21335   2.885   0.959   4.476  0.5039  0.9199 -0.0036
 4302SOL    HW121336   2.838   0.874   4.453  0.2831  0.6698  1.3576
 4302SOL    HW221337   2.955   0.978   4.406  0.5462 -0.3685 -0.3172
 4303SOL     OW21338   2.376   5.545   0.194 -0.6454 -0.0960  0.1998
 4303SOL    HW121339   2.305   5.613   0.210 -0.0011  0.0081  2.7354
 4303SOL    HW221340   2.354   5.462   0.246  1.3128  0.1120  1.3921
 4304SOL     OW21341   8.122   3.630   5.176 -0.3457 -1.2039  0.6235
 4304SOL    HW121342   8.105   3.545   5.227 -0.6970 -1.7458 -0.3776
 4304SOL    HW221343   8.087   3.620   5.082  2.4690 -1.1257 -0.4860
 4305SOL     OW21344   1.148   7.426   4.951 -0.2923 -0.0422  0.0811
 4305SOL    HW121345   1.198   7.512   4.944 -0.8584  0.4080  1.4854
 4305SOL    HW221346   1.212   7.349   4.941  0.4060  0.5314  0.1076
 4306SOL     OW21347   3.476   7.296   4.768  0.2951 -0.0903  0.2798
 4306SOL    HW121348   3.419   7.257   4.839  1.2217 -1.0783  0.4911
 4306SOL    HW221349   3.504   7.389   4.795  0.9415 -0.5919  1.3804
 4307SOL     OW21350   2.581   3.127   0.190 -0.2206  0.1687 -0.6183
 4307SOL    HW121351   2.556   3.168   0.278  1.8905  0.5437 -0.1829
 4307SOL    HW221352   2.680   3.130   0.178 -0.6143  2.5666 -4.2065
 4308SOL     OW21353   0.081   3.155   1.957  0.1175  0.3346 -0.2785
 4308SOL    HW121354   0.042   3.063   1.963  0.8399 -0.1773 -2.9397
 4308SOL    HW221355   0.172   3.156   1.999  0.5771 -0.4374 -1.2612
 4309SOL     OW21356   4.886   5.775   1.653 -0.4475 -0.1023  0.1959
 4309SOL    HW121357   4.919   5.772   1.558 -0.8186 -0.4161  0.0749
 4309SOL    HW221358   4.916   5.694   1.702 -0.9641 -0.3464  0.1100
 4310SOL     OW21359   4.521   6.757   2.620  0.1927 -0.9142 -0.2648
 4310SOL    HW121360   4.618   6.767   2.597  0.6034  0.8910  2.1133
 4310SOL    HW221361   4.482   6.847   2.640 -1.3256 -1.8906  1.2930
 4311SOL     OW21362   5.671   9.840   3.498 -0.1880 -0.2518  0.2216
 4311SOL    HW121363   5.748   9.880   3.448  0.8753  0.0280  2.0371
 4311SOL    HW221364   5.647   9.899   3.575 -1.4982 -0.9023  0.3258
 4313SOL     OW21365   1.150   8.113   3.878 -0.1300 -0.1717  0.2943
 4313SOL    HW121366   1.133   8.025   3.833 -0.5380 -0.4068  0.9068
 4313SOL    HW221367   1.162   8.184   3.808  1.2398 -0.8979 -0.2286
 4314SOL     OW21368   5.076   0.344   2.681  0.2652  0.1234 -0.5364
 4314SOL    HW121369   4.983   0.380   2.685  0.5681  1.0009 -1.3202
 4314SOL    HW221370   5.141   0.418   2.695  0.8307 -0.7003  1.2871
 4315SOL     OW21371   4.941   6.429   2.295 -0.1829  0.2520 -0.7723
 4315SOL    HW121372   5.031   6.386   2.300  0.2605  1.2723  0.2587
 4315SOL    HW221373   4.920   6.451   2.199  0.7595  0.2269 -0.9898
 4316SOL     OW21374   2.636   1.643   2.075 -0.2714  0.0726  0.5468
 4316SOL    HW121375   2.594   1.732   2.057  1.7215  0.9628  0.1834
 4316SOL    HW221376   2.655   1.597   1.988  1.7156  0.7446  0.6042
 4317SOL     OW21377   8.347   3.485   1.269 -0.6146  0.2343 -0.2565
 4317SOL    HW121378   8.290   3.404   1.274 -1.1080  0.5634 -0.5327
 4317SOL    HW221379   8.293   3.562   1.234 -0.5422  1.0376  1.3847
 4318SOL     OW21380   5.431   1.412   5.252 -0.0612  0.1308  0.0571
 4318SOL    HW121381   5.388   1.502   5.262 -1.2525 -0.4734  0.4453
 4318SOL    HW221382   5.361   1.344   5.234  0.7970 -0.8005  0.2199
 4319SOL     OW21383   0.915   0.454   3.391 -0.1161  0.1680  0.3196
 4319SOL    HW121384   0.873   0.544   3.386 -0.3415  0.1023  1.0717
 4319SOL    HW221385   1.000   0.459   3.444  0.3934  0.1297 -0.4720
 4320SOL     OW21386   0.439   6.491   5.198 -0.5287  0.0730  0.5919
 4320SOL    HW121387   0.423   6.409   5.254 -0.3134 -1.7584 -1.9247
 4320SOL    HW221388   0.537   6.496   5.175 -0.8251  0.0907 -0.6779
 4321SOL     OW21389   9.135   6.231   0.464 -0.1598 -0.0427 -0.0256
 4321SOL    HW121390   9.115   6.179   0.381  1.7436 -0.5567 -0.1929
 4321SOL    HW221391   9.214   6.190   0.510 -0.6447  0.7822  1.5595
 4322SOL     OW21392   2.241   9.899   4.957 -0.0053  0.0058  0.1249
 4322SOL    HW121393   2.284   9.852   4.880 -1.3275  0.9700 -1.2446
 4322SOL    HW221394   2.311   9.931   5.020  1.3002  1.4476 -1.9778
 4323SOL     OW21395   8.690   1.014   0.033 -0.2992  0.2698  0.2304
 4323SOL    HW121396   8.782   1.021  -0.004 -1.1132 -2.4085 -2.4731
 4323SOL    HW221397   8.684   0.934   0.093 -1.2938 -0.5920 -0.9983
 4325SOL     OW21398   4.036   5.352   2.563  0.1800  0.4005 -0.0459
 4325SOL    HW121399   4.045   5.254   2.577 -2.0128  0.4582  2.1214
 4325SOL    HW221400   4.107   5.399   2.616 -0.1397  0.0560  0.7031
 4326SOL     OW21401   5.824   9.777   3.927  0.2572  0.0737  0.1627
 4326SOL    HW121402   5.849   9.703   3.989 -0.7728  0.0767  0.5930
 4326SOL    HW221403   5.853   9.755   3.834  0.8990 -0.3914  0.4745
 4327SOL     OW21404   2.202   5.080   1.144 -0.4808  0.2356 -0.3914
 4327SOL    HW121405   2.171   5.156   1.202 -0.7960 -0.3887  0.2588
 4327SOL    HW221406   2.143   5.073   1.064 -0.0892  1.0540 -0.7611
 4328SOL     OW21407   9.549   4.457   3.293 -0.4399 -1.0193  0.0115
 4328SOL    HW121408   9.472   4.393   3.306  0.5079 -1.9892  0.9418
 4328SOL    HW221409   9.565   4.469   3.195 -2.4981  0.0730 -0.2179
 4329SOL     OW21410   8.918   6.104   0.968  0.1363 -0.5313  0.2788
 4329SOL    HW121411   8.991   6.134   0.907 -0.5812 -1.4229 -1.0340
 4329SOL    HW221412   8.875   6.184   1.010  0.1326  0.1460 -0.9808
 4332SOL     OW21413   7.458   2.084   3.397 -0.1264 -0.4844  0.2192
 4332SOL    HW121414   7.531   2.021   3.373 -0.1438 -0.0932 -0.9385
 4332SOL    HW221415   7.373   2.055   3.351 -0.7314 -0.9917  1.6214
 4333SOL     OW21416   4.665   9.721   3.916  0.5692 -0.1206  0.5705
 4333SOL    HW121417   4.736   9.767   3.969  0.5678  1.4107 -0.7466
 4333SOL    HW221418   4.683   9.731   3.819 -0.0218 -2.0185  0.2369
 4334SOL     OW21419   2.614   9.834   3.260  0.3520 -0.2533 -0.6786
 4334SOL    HW121420   2.557   9.754   3.241  0.8407 -1.5972  3.0788
 4334SOL    HW221421   2.708   9.815   3.231  0.4423 -1.0190  0.0922
 4335SOL     OW21422   9.652   7.257   2.289 -0.6119 -0.2915  0.3388
 4335SOL    HW121423   9.596   7.333   2.321 -0.1977  1.1350 -2.1942
 4335SOL    HW221424   9.594   7.182   2.259 -1.1229  0.4260 -0.4781
 4336SOL     OW21425   8.203   4.579   0.539  0.5131 -0.5820 -0.5528
 4336SOL    HW121426   8.206   4.626   0.450 -0.6511 -0.8894 -0.7727
 4336SOL    HW221427   8.213   4.481   0.525  0.1046 -0.6519 -0.3712
 4337SOL     OW21428   3.719   0.661   2.056  0.2940  0.7138  0.6824
 4337SOL    HW121429   3.716   0.627   1.962 -0.1863  1.4404  0.4274
 4337SOL    HW221430   3.642   0.622   2.107  0.5229  0.3617  0.7589
 4339SOL     OW21431   3.463   9.703   1.479 -0.0425 -0.0390 -0.2860
 4339SOL    HW121432   3.557   9.719   1.449 -0.0958 -0.2484 -0.5666
 4339SOL    HW221433   3.405   9.689   1.400 -0.0987 -1.0566 -0.0731
 4340SOL     OW21434   3.230   2.446   1.629  0.4903 -0.6540  0.2626
 4340SOL    HW121435   3.296   2.419   1.699 -0.1481 -1.8165  0.4256
 4340SOL    HW221436   3.228   2.546   1.621  2.0677 -0.5933  0.4450
 4342SOL     OW21437   8.245   1.564   2.560  0.4373 -0.2059  0.2185
 4342SOL    HW121438   8.303   1.520   2.629  0.6463 -1.0156 -0.4799
 4342SOL    HW221439   8.175   1.620   2.606  1.3784  0.2863  1.0714
 4343SOL     OW21440   9.703   5.678   5.085  0.0211 -0.1873 -0.7963
 4343SOL    HW121441   9.792   5.721   5.103 -0.3731  0.2069  0.1919
 4343SOL    HW221442   9.718   5.594   5.033  0.9713 -0.0854 -0.7045
 4344SOL     OW21443   3.316   5.070   2.662  0.1460  0.0374 -0.0972
 4344SOL    HW121444   3.388   5.114   2.715 -0.2318  1.4053 -0.7114
 4344SOL    HW221445   3.290   4.984   2.707 -0.8274  1.6038  2.4818
 4345SOL     OW21446   2.773   4.964   1.048 -0.1912  0.1137  0.1252
 4345SOL    HW121447   2.789   4.984   1.145 -1.2052 -1.8651  0.7311
 4345SOL    HW221448   2.722   4.879   1.040 -1.1521  0.8646 -2.1250
 4347SOL     OW21449   0.883   0.495   4.722 -0.4584 -0.1174 -0.5969
 4347SOL    HW121450   0.869   0.575   4.780  1.9163 -0.4877  0.5499
 4347SOL    HW221451   0.941   0.429   4.770 -0.8845 -1.7310 -2.2438
 4348SOL     OW21452   3.598   7.105   4.599  0.2025  0.2615  0.1651
 4348SOL    HW121453   3.660   7.160   4.542  0.4756  0.9938  1.1504
 4348SOL    HW221454   3.556   7.164   4.668  1.1153 -0.9235  1.7623
 4349SOL     OW21455   3.786   6.265   4.755 -0.1822 -0.0594 -0.0006
 4349SOL    HW121456   3.717   6.329   4.720  1.1908  1.9183  0.8088
 4349SOL    HW221457   3.840   6.229   4.680 -0.7720 -0.0302 -0.4396
 4350SOL     OW21458   6.071   0.900   0.396  0.0928  0.4809  0.2391
 4350SOL    HW121459   5.974   0.876   0.403 -0.2883  1.9805  0.3508
 4350SOL    HW221460   6.090   0.980   0.452  1.2020  0.7563 -0.4989
 4351SOL     OW21461   6.615   9.321   5.034 -0.2847  0.2039 -0.2425
 4351SOL    HW121462   6.670   9.405   5.028 -1.4319  1.2213  2.5837
 4351SOL    HW221463   6.630   9.265   4.953  3.4130  1.3911 -0.4680
 4352SOL     OW21464   0.048   5.802   3.543 -1.0710  0.1263 -0.4106
 4352SOL    HW121465   0.013   5.741   3.614 -0.4549 -1.9051 -1.8113
 4352SOL    HW221466  -0.028   5.833   3.486 -1.3902  0.7136  0.3232
 4354SOL     OW21467   0.194   8.208   3.652 -0.4989 -0.3573 -0.2465
 4354SOL    HW121468   0.256   8.145   3.607 -0.3393  0.1949 -0.8053
 4354SOL    HW221469   0.245   8.289   3.682 -0.7155 -0.4534  0.3913
 4355SOL     OW21470   6.215   9.519   2.739 -0.2263  0.4728 -0.0528
 4355SOL    HW121471   6.232   9.534   2.837 -1.9677 -2.0609  0.6878
 4355SOL    HW221472   6.168   9.599   2.701  1.9111  2.1695  0.7701
 4356SOL     OW21473   9.855   6.948   1.444 -0.2747 -0.2355  0.0446
 4356SOL    HW121474   9.886   7.043   1.433 -0.1106 -0.4353 -1.3625
 4356SOL    HW221475   9.838   6.929   1.541 -2.6945  1.9754  0.0872
 4357SOL     OW21476   2.536   7.211   1.514 -0.3136 -0.0081 -0.6490
 4357SOL    HW121477   2.517   7.115   1.537  0.4056 -0.1280 -0.5494
 4357SOL    HW221478   2.588   7.215   1.429  2.3144  0.1368  0.9279
 4358SOL     OW21479   2.723   0.337   0.413 -0.0450  0.3469 -0.0861
 4358SOL    HW121480   2.771   0.283   0.344 -0.0589 -0.3660  0.4621
 4358SOL    HW221481   2.683   0.418   0.369  2.4450  1.4754 -0.3979
 4359SOL     OW21482   1.063   1.101   1.119  0.3941 -0.2667  0.3152
 4359SOL    HW121483   1.155   1.065   1.103 -0.2079 -1.9581  0.5612
 4359SOL    HW221484   1.012   1.037   1.176 -0.2049  1.7445  2.1036
 4360SOL     OW21485   3.136   2.255   1.963  0.5219 -0.2328 -0.0946
 4360SOL    HW121486   3.174   2.242   1.872 -1.3626  0.2979 -0.9765
 4360SOL    HW221487   3.036   2.246   1.959  0.1851  2.5097  1.4156
 4361SOL     OW21488   2.331   1.148   4.605 -0.4872 -0.2098 -0.4171
 4361SOL    HW121489   2.327   1.062   4.555  0.7450 -0.4380 -0.1360
 4361SOL    HW221490   2.345   1.130   4.702 -1.5240  0.2732 -0.1726
 4362SOL     OW21491   1.806   1.225   0.538  0.7841  0.2096  0.0434
 4362SOL    HW121492   1.712   1.217   0.506  1.5251  1.0304 -2.4856
 4362SOL    HW221493   1.811   1.288   0.615 -0.6603  0.6034 -0.1763
 4363SOL     OW21494   3.431   2.878   0.110 -0.2950  0.0006  0.5978
 4363SOL    HW121495   3.465   2.786   0.090 -0.4440  0.5418 -2.3012
 4363SOL    HW221496   3.362   2.905   0.042 -0.7610  1.9992  1.7947
 4365SOL     OW21497   4.340   5.350   2.625 -0.4462  0.0966  0.4089
 4365SOL    HW121498   4.333   5.450   2.630  1.3195  0.2863 -0.6586
 4365SOL    HW221499   4.323   5.319   2.532  1.8449 -0.3305  0.1024
 4366SOL     OW21500   3.511   2.751   1.865  0.3031  0.0870 -0.4937
 4366SOL    HW121501   3.495   2.653   1.861 -0.2168  0.1924 -1.1407
 4366SOL    HW221502   3.609   2.770   1.864  0.3834 -0.3865 -1.2324
 4367SOL     OW21503   0.954   0.381   3.134  0.0061  0.1983 -0.1509
 4367SOL    HW121504   0.918   0.423   3.217  1.0567  0.2895  0.2565
 4367SOL    HW221505   0.927   0.285   3.131  0.1370  0.1424  0.3923
 4368SOL     OW21506   0.021   7.344   0.930 -0.1292  0.1070  0.5737
 4368SOL    HW121507   0.047   7.361   1.025 -2.5545  0.9181  1.1254
 4368SOL    HW221508  -0.016   7.252   0.922 -1.7906  0.7252  0.8632
 4370SOL     OW21509   3.158   6.639   4.657 -0.3014  0.5750 -0.0999
 4370SOL    HW121510   3.171   6.596   4.568  1.0663  1.0265 -0.1216
 4370SOL    HW221511   3.247   6.661   4.697 -0.9443  1.5673  0.7991
 4371SOL     OW21512   8.158   2.152   2.886  0.6188 -0.5853  0.0952
 4371SOL    HW121513   8.123   2.068   2.844  0.6938 -0.9463  0.7408
 4371SOL    HW221514   8.206   2.129   2.971  1.2537  0.0422 -0.0870
 4374SOL     OW21515   5.805   4.404   0.615  0.4677  0.1055  0.3209
 4374SOL    HW121516   5.857   4.330   0.572  2.1239  0.7831  1.0923
 4374SOL    HW221517   5.762   4.371   0.699 -0.5431 -0.5186 -0.4358
 4375SOL     OW21518   8.635   7.752   2.852 -0.1396  0.6566  0.1303
 4375SOL    HW121519   8.646   7.791   2.761 -0.4613 -0.5585 -0.4422
 4375SOL    HW221520   8.594   7.821   2.913  0.9529  1.7815 -0.3806
 4376SOL     OW21521   4.688   0.779   4.464  0.1380  0.0693 -0.4619
 4376SOL    HW121522   4.749   0.700   4.467 -0.5540 -0.4558 -0.0271
 4376SOL    HW221523   4.617   0.765   4.395  0.3174  0.5438 -0.7503
 4377SOL     OW21524   3.385   7.578   0.077 -0.5939 -0.2434  0.8004
 4377SOL    HW121525   3.289   7.562   0.055 -1.1081  1.8808  1.3201
 4377SOL    HW221526   3.395   7.598   0.174 -0.1178  2.6097  0.2321
 4378SOL     OW21527   8.284   0.693   2.906  0.1066  0.1615 -0.1652
 4378SOL    HW121528   8.326   0.695   2.815 -0.8235 -0.0070 -0.6077
 4378SOL    HW221529   8.193   0.653   2.899 -0.0435  0.3237  0.8164
 4380SOL     OW21530   8.419   7.577   3.568 -0.4558 -0.1364 -0.0345
 4380SOL    HW121531   8.341   7.638   3.554  0.2094  1.3379  2.2688
 4380SOL    HW221532   8.388   7.482   3.565 -1.7961  0.3521 -2.0849
 4381SOL     OW21533   3.602   1.294   3.324  0.1824  0.6128  0.5328
 4381SOL    HW121534   3.602   1.195   3.341 -0.9555  0.7664  1.4990
 4381SOL    HW221535   3.647   1.313   3.237 -1.8416 -0.9956 -0.9348
 4383SOL     OW21536   9.025   4.650   3.941 -0.0602  0.1125 -0.1246
 4383SOL    HW121537   8.999   4.726   4.000  0.6281 -0.2189  0.6232
 4383SOL    HW221538   9.125   4.641   3.940 -0.0930 -0.2502 -0.8819
 4384SOL     OW21539   0.309   2.965   0.624  0.4958 -0.0325  0.1835
 4384SOL    HW121540   0.375   3.007   0.687  0.2971 -1.0458  1.0704
 4384SOL    HW221541   0.216   2.984   0.656  0.4063 -1.4367  0.7943
 4385SOL     OW21542   0.286   6.305   1.810 -0.6340  0.9297  0.8531
 4385SOL    HW121543   0.336   6.308   1.896  0.2436  0.7212  0.3643
 4385SOL    HW221544   0.216   6.234   1.814  0.7635 -0.4775  0.6835
 4387SOL     OW21545   0.957   2.431   0.056  0.2521  1.1594  0.4684
 4387SOL    HW121546   0.923   2.337   0.048  0.4868  0.9745  1.6058
 4387SOL    HW221547   0.945   2.478  -0.032 -0.5636  0.3058  0.1170
 4388SOL     OW21548   9.351   5.676   2.358  0.0255  0.0923  0.4130
 4388SOL    HW121549   9.394   5.714   2.440  2.8948  0.3453 -1.1195
 4388SOL    HW221550   9.336   5.578   2.370 -0.0533  0.2236  1.4299
 4389SOL     OW21551   8.534   6.455   0.977 -0.2508 -0.4776 -0.1923
 4389SOL    HW121552   8.519   6.519   0.902 -2.1624 -0.4487  0.1895
 4389SOL    HW221553   8.507   6.363   0.947 -2.2240 -0.2584  0.8299
 4390SOL     OW21554   8.991   5.107   2.561  0.5343 -0.5864  0.0910
 4390SOL    HW121555   8.902   5.066   2.541  0.2013 -0.4344  1.2562
 4390SOL    HW221556   8.979   5.189   2.616  1.2250  0.9690 -2.0175
 4391SOL     OW21557   7.206   1.911   0.624  0.2413 -0.2555 -0.5570
 4391SOL    HW121558   7.221   1.951   0.714 -0.3365  2.1950 -1.4782
 4391SOL    HW221559   7.136   1.965   0.576  1.5751 -0.6143 -2.9914
 4393SOL     OW21560   2.230   1.088   2.677 -0.2698 -0.1215 -0.4104
 4393SOL    HW121561   2.208   1.119   2.585 -1.6294  0.8134  0.2148
 4393SOL    HW221562   2.174   1.137   2.743  2.1003  0.6805  1.0865
 4394SOL     OW21563   4.347   8.000   2.011  0.1959 -0.3704 -0.4630
 4394SOL    HW121564   4.353   7.925   2.077  0.8318 -0.1308 -0.2389
 4394SOL    HW221565   4.310   8.082   2.056 -1.2603 -0.7681 -0.9079
 4395SOL     OW21566   7.656   2.094   0.480 -0.2193  0.0649 -0.2336
 4395SOL    HW121567   7.730   2.156   0.455 -0.2480  0.2290  0.0908
 4395SOL    HW221568   7.605   2.068   0.397  0.8824 -0.9401 -0.6133
 4396SOL     OW21569   2.865   8.733   0.347 -0.3655 -0.0364  0.0153
 4396SOL    HW121570   2.878   8.634   0.353  3.0371  0.3743  0.1411
 4396SOL    HW221571   2.867   8.762   0.252  0.2238  0.0892  0.0631
 4397SOL     OW21572   8.980   7.593   3.954  0.4769 -1.0224  0.1521
 4397SOL    HW121573   9.044   7.523   3.923 -0.2062 -2.1192  1.2069
 4397SOL    HW221574   8.888   7.555   3.958  0.3756 -0.5869  2.4316
 4398SOL     OW21575   9.307   6.323   2.812  0.0109 -0.5486 -0.2863
 4398SOL    HW121576   9.398   6.355   2.783  0.9289 -2.4206  0.4322
 4398SOL    HW221577   9.317   6.262   2.891 -2.1785  1.9223  1.9833
 4399SOL     OW21578   1.669   0.789   0.078  0.4498 -0.2201 -0.2874
 4399SOL    HW121579   1.759   0.758   0.049  0.7760 -2.7442  3.1072
 4399SOL    HW221580   1.674   0.886   0.104  1.1731  0.7847 -3.9012
 4402SOL     OW21581   9.835   0.671   4.266  0.0958  0.3686  0.3347
 4402SOL    HW121582   9.851   0.608   4.189 -2.0662 -1.0406  1.0027
 4402SOL    HW221583   9.760   0.732   4.244 -0.7336 -0.2360  1.4284
 4403SOL     OW21584   0.914   8.564   1.228  0.0490 -0.4490 -0.3555
 4403SOL    HW121585   0.865   8.486   1.188 -1.5782  0.6569 -0.5692
 4403SOL    HW221586   0.959   8.535   1.313 -0.4322 -1.6376 -0.4916
 4404SOL     OW21587   1.011   4.290   1.176  0.2785 -0.3339 -0.4710
 4404SOL    HW121588   0.923   4.319   1.214 -0.1500 -1.3778 -0.6217
 4404SOL    HW221589   1.079   4.362   1.187 -0.6166  0.5002 -0.3887
 4406SOL     OW21590   8.900   2.412   1.650  0.0060  0.0349 -0.5063
 4406SOL    HW121591   8.980   2.359   1.678 -1.0422 -2.0450 -1.3681
 4406SOL    HW221592   8.856   2.367   1.572 -1.9200  1.2484 -0.1383
 4407SOL     OW21593   3.869   1.067   4.348 -0.2105 -0.1343  0.0353
 4407SOL    HW121594   3.935   1.142   4.357  0.5104 -0.9943  2.0738
 4407SOL    HW221595   3.918   0.982   4.327 -1.0060 -0.1066 -2.0565
 4408SOL     OW21596   8.842   4.581   1.645 -1.0860 -0.0221 -0.6410
 4408SOL    HW121597   8.783   4.655   1.614 -0.8812  0.3214 -0.2233
 4408SOL    HW221598   8.933   4.591   1.604 -1.4917 -0.8968 -1.7625
 4409SOL     OW21599   3.919   1.672   3.822  0.0377  0.7215 -0.3949
 4409SOL    HW121600   3.922   1.577   3.852  1.3657  1.2450  1.1938
 4409SOL    HW221601   3.827   1.709   3.836  0.3409  0.6119  2.0253
 4411SOL     OW21602   0.772   7.916   3.615  0.4498 -0.6423 -0.2975
 4411SOL    HW121603   0.867   7.901   3.588  0.8475 -0.4159  0.9070
 4411SOL    HW221604   0.745   8.009   3.591  0.5645 -0.6729 -0.5523
 4412SOL     OW21605   5.014   1.047   3.910 -0.0700 -0.2733 -0.6011
 4412SOL    HW121606   4.927   1.095   3.897  0.2238  0.2820 -0.5650
 4412SOL    HW221607   5.000   0.964   3.963 -0.5270 -0.0155 -0.3219
 4413SOL     OW21608   2.624   7.702   0.132  0.7047  0.0951  0.1607
 4413SOL    HW121609   2.721   7.687   0.115  0.5064 -0.5585 -0.4213
 4413SOL    HW221610   2.570   7.639   0.076  0.0237 -2.7629  3.7811
 4414SOL     OW21611   1.765   8.696   3.360 -0.7811  0.0213 -0.1495
 4414SOL    HW121612   1.677   8.700   3.408 -0.0073 -1.3584  1.4380
 4414SOL    HW221613   1.821   8.774   3.386 -1.5846  1.0090 -1.3105
 4416SOL     OW21614   3.889   0.190   0.536 -0.7272  0.3258 -0.1452
 4416SOL    HW121615   3.872   0.279   0.579 -0.9104  0.0754  0.2959
 4416SOL    HW221616   3.938   0.131   0.600 -1.8919 -0.4023  0.0889
 4417SOL     OW21617   1.822   8.409   2.419  0.4791  0.2320  0.0346
 4417SOL    HW121618   1.774   8.496   2.431 -3.0152 -1.2857 -2.3188
 4417SOL    HW221619   1.811   8.353   2.502 -1.4165  0.0939 -0.2991
 4419SOL     OW21620   4.116   8.615   1.253  0.9471 -0.0582 -0.2165
 4419SOL    HW121621   4.157   8.694   1.206 -0.7196  0.1812 -1.3483
 4419SOL    HW221622   4.020   8.607   1.224  0.6103 -1.4356  1.2674
 4420SOL     OW21623   4.945   8.489   4.625 -0.2364  0.6072 -0.3602
 4420SOL    HW121624   4.945   8.581   4.588 -0.7082  0.2993 -1.1407
 4420SOL    HW221625   4.940   8.423   4.550 -1.6992 -0.0105  0.2532
 4421SOL     OW21626   8.335   9.082   3.868 -0.3426  0.5535  0.1135
 4421SOL    HW121627   8.266   9.080   3.795 -1.5784  1.5598  1.2326
 4421SOL    HW221628   8.352   8.988   3.899 -0.6922  0.2317 -0.6385
 4422SOL     OW21629   6.253   4.575   0.078 -0.5817 -0.1846 -0.1208
 4422SOL    HW121630   6.208   4.639   0.015 -0.3916  0.2106  0.1480
 4422SOL    HW221631   6.210   4.485   0.069 -1.6192  0.2642  0.3383
 4423SOL     OW21632   9.050   3.388   4.060  0.1214 -0.0327  0.3581
 4423SOL    HW121633   8.969   3.341   4.095 -0.0846  1.2351  1.6359
 4423SOL    HW221634   9.132   3.350   4.102  0.2729 -1.8779 -1.5579
 4424SOL     OW21635   3.727   7.707   3.264 -0.4636 -0.1384 -0.2952
 4424SOL    HW121636   3.644   7.733   3.215 -0.6315 -0.6851 -0.3043
 4424SOL    HW221637   3.705   7.638   3.333  0.1074 -0.8214 -0.7901
 4427SOL     OW21638   3.083   3.219   3.989 -0.0033 -0.0912  0.4962
 4427SOL    HW121639   3.053   3.198   4.082  1.4929  0.5812  1.1474
 4427SOL    HW221640   3.017   3.282   3.946 -0.4381 -0.0135  1.2806
 4428SOL     OW21641   2.560   3.039   2.604 -0.6352 -0.4977  0.2611
 4428SOL    HW121642   2.552   3.132   2.569  0.3474 -0.1969  0.8004
 4428SOL    HW221643   2.579   3.043   2.703  1.5528 -1.2057 -0.1062
 4430SOL     OW21644   9.410   1.399   2.886  0.4483  0.3595  0.7170
 4430SOL    HW121645   9.503   1.386   2.851  0.4692  1.5665  0.2938
 4430SOL    HW221646   9.406   1.370   2.982  1.8074  2.2487  1.3779
 4431SOL     OW21647   2.252   4.180   3.753 -0.1654  0.2269 -0.5472
 4431SOL    HW121648   2.188   4.178   3.830  1.1451  1.3684  0.6226
 4431SOL    HW221649   2.202   4.191   3.668 -1.6458 -0.9560  0.1508
 4432SOL     OW21650   2.204   6.341   2.987  0.3760  0.0529  0.1087
 4432SOL    HW121651   2.222   6.351   3.085 -0.6233  0.4727  0.2560
 4432SOL    HW221652   2.105   6.336   2.972  0.5777 -1.7220 -0.7317
 4436SOL     OW21653   1.433   7.501   0.658  0.0604 -0.2055  0.4260
 4436SOL    HW121654   1.419   7.503   0.757  0.2157  0.3936  0.4397
 4436SOL    HW221655   1.379   7.575   0.616 -0.3296 -0.7144  0.0223
 4438SOL     OW21656   8.686   7.759   3.647  0.2600 -0.3856  0.5958
 4438SOL    HW121657   8.617   7.711   3.594  2.0247 -1.5522 -0.6667
 4438SOL    HW221658   8.772   7.762   3.596  1.4656  0.0924  2.5992
 4440SOL     OW21659   8.346   4.589   5.123  0.2412 -0.3233  0.3486
 4440SOL    HW121660   8.367   4.569   5.218 -0.7378 -0.0938  0.6124
 4440SOL    HW221661   8.337   4.688   5.110 -1.2521 -0.4403  0.3685
 4441SOL     OW21662   1.149   5.892   3.162 -0.0464 -0.2639  0.5909
 4441SOL    HW121663   1.068   5.843   3.194  0.1939 -0.2908  1.1576
 4441SOL    HW221664   1.231   5.841   3.189  0.1438 -0.6406 -0.6454
 4442SOL     OW21665   8.035   3.244   0.838  0.2832 -0.0961 -0.1206
 4442SOL    HW121666   7.947   3.257   0.792  0.7192 -1.5483 -1.4001
 4442SOL    HW221667   8.034   3.292   0.925 -2.0176 -0.5721  0.1555
 4443SOL     OW21668   6.464   0.350   3.281  0.0209 -0.5000 -0.2708
 4443SOL    HW121669   6.375   0.396   3.280 -0.9549 -2.3178  0.7818
 4443SOL    HW221670   6.466   0.280   3.210  0.4287 -0.7733  0.0067
 4444SOL     OW21671   5.151   8.899   3.244  0.2279  0.0871 -0.2314
 4444SOL    HW121672   5.128   8.994   3.223  0.1652 -0.0519 -0.7850
 4444SOL    HW221673   5.232   8.897   3.304 -0.5536  0.5347  0.8647
 4445SOL     OW21674   2.625   8.865   0.390 -0.0275 -0.4439 -0.4070
 4445SOL    HW121675   2.684   8.806   0.335  0.4421  0.0846 -0.4788
 4445SOL    HW221676   2.556   8.908   0.331 -0.6031 -1.1998 -0.2934
 4446SOL     OW21677   2.184   7.119   3.812  0.9760 -0.5953  0.3939
 4446SOL    HW121678   2.085   7.108   3.812  0.9225 -0.2796  2.0955
 4446SOL    HW221679   2.225   7.050   3.751 -0.2069 -1.4993  0.5991
 4447SOL     OW21680   6.103   8.209   5.293 -0.1732  0.6544  0.1712
 4447SOL    HW121681   6.139   8.125   5.251 -0.4988 -0.5870  2.2853
 4447SOL    HW221682   6.021   8.238   5.244  1.7903  1.6158 -2.6104
 4448SOL     OW21683   2.875   7.909   2.280 -0.0454  0.3391  0.3872
 4448SOL    HW121684   2.932   7.892   2.360  0.5670 -0.4194 -0.2069
 4448SOL    HW221685   2.819   7.828   2.261 -1.9354  1.3556  1.4563
 4449SOL     OW21686   1.595   2.086   3.580 -0.0079 -0.2496 -0.1134
 4449SOL    HW121687   1.582   1.988   3.566 -1.7570  0.2047 -1.8946
 4449SOL    HW221688   1.693   2.108   3.578  0.2457 -1.3001 -4.7490
 4450SOL     OW21689   1.996   7.439   2.204  0.3155 -0.1700  0.0853
 4450SOL    HW121690   2.061   7.375   2.162  1.4676  1.2619 -0.3763
 4450SOL    HW221691   2.045   7.501   2.266 -0.5198  1.2902 -0.6828
 4451SOL     OW21692   3.653   4.459   0.603  0.0412  0.3846 -0.5730
 4451SOL    HW121693   3.671   4.361   0.591 -0.0072  0.2299  0.5636
 4451SOL    HW221694   3.566   4.471   0.651  1.1570  0.9002  1.3793
 4453SOL     OW21695   5.095   9.220   3.403 -0.6020  0.1070 -0.3701
 4453SOL    HW121696   5.084   9.262   3.493  0.0525 -0.5504  0.0220
 4453SOL    HW221697   5.192   9.218   3.379 -0.7059 -0.4152 -0.7564
 4455SOL     OW21698   9.351   1.044   3.465 -0.1101  0.3037  0.0439
 4455SOL    HW121699   9.365   0.974   3.395 -1.5989 -0.7498  0.7932
 4455SOL    HW221700   9.327   1.130   3.421 -0.2110 -0.1388 -0.7800
 4456SOL     OW21701   4.891   4.757   4.860 -0.4945 -0.1138  0.3586
 4456SOL    HW121702   4.918   4.663   4.843  0.2807  0.0216  0.8564
 4456SOL    HW221703   4.867   4.801   4.773 -0.2563 -0.5795  0.0567
 4457SOL     OW21704   3.759   3.186   3.753 -0.0876  0.3037 -0.2096
 4457SOL    HW121705   3.708   3.115   3.801  0.1114 -0.5401 -1.2554
 4457SOL    HW221706   3.775   3.263   3.816  0.5976 -0.9892  1.2456
 4458SOL     OW21707   9.766   1.564   3.370 -0.1690 -0.4798  0.6123
 4458SOL    HW121708   9.834   1.635   3.354  0.1834 -0.6998  1.1280
 4458SOL    HW221709   9.752   1.553   3.468  0.7502 -2.0509  0.5754
 4460SOL     OW21710   9.926   1.270   2.813  0.4727 -0.6034  0.8940
 4460SOL    HW121711   9.903   1.228   2.901  0.3032  0.3124  1.2860
 4460SOL    HW221712   9.927   1.369   2.822  0.2392 -0.4937 -0.1949
 4463SOL     OW21713   3.419   0.922   1.185 -0.2318 -0.1296  0.4971
 4463SOL    HW121714   3.510   0.881   1.186 -0.6394 -1.0676  2.7041
 4463SOL    HW221715   3.350   0.851   1.200 -1.2924  0.6522 -0.6219
 4465SOL     OW21716   5.094   2.501   2.918  0.2387 -0.5039 -0.2449
 4465SOL    HW121717   5.065   2.596   2.902 -0.1022 -0.9456 -2.4052
 4465SOL    HW221718   5.166   2.500   2.988  0.3111  1.3579 -0.2665
 4466SOL     OW21719   9.886   6.394   3.306 -0.0298 -0.1542  0.9889
 4466SOL    HW121720   9.964   6.453   3.327 -1.0451  1.8007 -0.4928
 4466SOL    HW221721   9.818   6.447   3.256 -1.5705 -2.2820  0.7852
 4467SOL     OW21722   5.494   1.106   1.137 -0.8388  0.3908 -0.1006
 4467SOL    HW121723   5.431   1.043   1.181 -0.1832  0.4638  0.9629
 4467SOL    HW221724   5.585   1.065   1.133 -0.8899  0.3809 -1.4058
 4470SOL     OW21725   1.746   3.473   2.961  0.2180  0.3435  0.1638
 4470SOL    HW121726   1.654   3.485   2.999 -0.3408 -0.7371 -0.8032
 4470SOL    HW221727   1.760   3.376   2.938  1.6345  0.4828  0.3935
 4471SOL     OW21728  -0.002   0.124   3.678 -0.2851 -0.4802  0.0726
 4471SOL    HW121729   0.060   0.098   3.752  1.3715 -0.0339 -1.1292
 4471SOL    HW221730  -0.025   0.043   3.624 -1.0448 -0.7073  0.7286
 4472SOL     OW21731   9.712   1.434   3.629 -0.0976  0.1252 -0.2598
 4472SOL    HW121732   9.809   1.414   3.615 -0.2151  0.1403 -1.1453
 4472SOL    HW221733   9.691   1.434   3.727  0.7652 -0.0127 -0.0745
 4474SOL     OW21734   0.577   7.421   3.493  0.6393 -0.3598 -0.3165
 4474SOL    HW121735   0.624   7.508   3.483 -0.7935  0.8288  2.6804
 4474SOL    HW221736   0.494   7.421   3.438 -0.9389  1.4203  1.9509
 4475SOL     OW21737   0.705   9.739   0.446 -0.1845 -0.4303 -0.0210
 4475SOL    HW121738   0.792   9.712   0.489  1.4146  3.9121 -0.2246
 4475SOL    HW221739   0.634   9.744   0.516  1.2640  1.8724  1.3972
 4476SOL     OW21740   7.839   0.863   3.707  0.6397  0.0256  0.7510
 4476SOL    HW121741   7.743   0.836   3.720  0.8316 -1.1188 -0.1390
 4476SOL    HW221742   7.883   0.873   3.797  0.1862 -1.2965  1.1364
 4477SOL     OW21743   1.643   8.182   2.376  0.0043 -0.6049 -1.1860
 4477SOL    HW121744   1.726   8.230   2.351  0.8414 -0.9183  0.8757
 4477SOL    HW221745   1.614   8.210   2.468 -1.3366 -1.5924 -1.2813
 4478SOL     OW21746   9.321   2.637   4.120  0.8351  0.4289 -0.2654
 4478SOL    HW121747   9.385   2.713   4.136 -0.9288  1.5914  1.4948
 4478SOL    HW221748   9.282   2.607   4.207 -1.4573  0.1387 -1.3558
 4479SOL     OW21749   8.006   9.208   5.230  0.0782 -0.0576  0.4441
 4479SOL    HW121750   7.963   9.277   5.290  0.6753  0.7109  0.0009
 4479SOL    HW221751   8.105   9.206   5.248  1.0056  3.3093 -3.5038
 4480SOL     OW21752   3.130   6.593   0.329 -0.1608 -0.8840  0.6776
 4480SOL    HW121753   3.219   6.636   0.314 -1.4336  1.5512 -0.2239
 4480SOL    HW221754   3.061   6.664   0.345 -2.6457 -2.4986 -2.3929
 4481SOL     OW21755   4.684   2.631   1.520  0.0358  0.3674 -0.4139
 4481SOL    HW121756   4.675   2.717   1.568 -1.3890  0.3213 -0.5766
 4481SOL    HW221757   4.733   2.565   1.577 -0.7684  0.6206  0.5710
 4482SOL     OW21758   9.687   9.689   2.253  0.6606  0.3407 -1.1788
 4482SOL    HW121759   9.646   9.742   2.327  0.2431 -2.1629  0.4577
 4482SOL    HW221760   9.616   9.665   2.186 -0.3374 -2.4774  0.7478
 4483SOL     OW21761   0.063   3.149   1.313 -0.3011 -0.0045 -0.2664
 4483SOL    HW121762   0.125   3.076   1.340  1.4171  1.6924  0.5287
 4483SOL    HW221763   0.112   3.236   1.314 -1.7498  0.9145 -3.1318
 4484SOL     OW21764   9.527   3.424   2.734 -0.6468  0.2182 -0.0462
 4484SOL    HW121765   9.594   3.447   2.664 -1.5399 -0.1565 -1.0237
 4484SOL    HW221766   9.451   3.489   2.731 -0.8406  0.0140  0.3762
 4485SOL     OW21767   9.846   5.245   1.413  0.1036 -0.0816  0.2585
 4485SOL    HW121768   9.936   5.244   1.458  0.3390  1.2588 -0.1366
 4485SOL    HW221769   9.858   5.227   1.315 -0.2310 -1.4222  0.4644
 4486SOL     OW21770   5.874   8.697   4.331  0.1675 -0.6080 -0.1472
 4486SOL    HW121771   5.897   8.794   4.332  0.7000 -0.7320 -0.0158
 4486SOL    HW221772   5.930   8.650   4.262  0.5526 -0.9689  0.4075
 4487SOL     OW21773   8.580   9.387   1.609 -0.2657 -0.0844  0.4147
 4487SOL    HW121774   8.545   9.421   1.697  0.7552 -0.4960  0.9840
 4487SOL    HW221775   8.598   9.465   1.549 -2.9706  0.1098 -0.2238
 4490SOL     OW21776   1.373   1.753   4.671  0.1260 -0.3508  0.1741
 4490SOL    HW121777   1.294   1.710   4.713  0.0496 -1.9515 -1.5721
 4490SOL    HW221778   1.455   1.698   4.688  0.3796 -0.1598 -0.4118
 4491SOL     OW21779   0.324   9.996   2.446 -0.8374 -0.2855 -0.2173
 4491SOL    HW121780   0.377  10.038   2.520 -1.1797 -0.2055 -0.0128
 4491SOL    HW221781   0.368  10.014   2.358  0.7436 -2.2232  0.1466
 4492SOL     OW21782   2.565   1.977   2.118  0.0448 -0.1037 -0.3480
 4492SOL    HW121783   2.518   2.063   2.097  0.9967  0.6650  0.5803
 4492SOL    HW221784   2.499   1.911   2.153 -0.3606  0.9665  0.9474
 4493SOL     OW21785   4.670   9.890   1.799  0.1056 -0.1996  0.0938
 4493SOL    HW121786   4.685   9.911   1.703  0.6376  1.5367  0.5308
 4493SOL    HW221787   4.759   9.886   1.846 -0.3231  2.7187  1.2376
 4494SOL     OW21788   2.854   4.356   2.080  0.1401 -0.1977  0.2236
 4494SOL    HW121789   2.906   4.274   2.054 -0.1157  0.2060 -1.5672
 4494SOL    HW221790   2.909   4.438   2.062 -0.4396  0.1371 -0.0193
 4495SOL     OW21791   9.373   4.633   2.830 -0.5913 -0.3848  0.0358
 4495SOL    HW121792   9.356   4.644   2.732  1.5137 -1.5694 -0.4809
 4495SOL    HW221793   9.387   4.536   2.851 -1.2839 -0.1715  1.5648
 4496SOL     OW21794   9.497   6.456   4.899 -0.4710  0.0658 -0.0288
 4496SOL    HW121795   9.560   6.407   4.960 -0.0433  0.2133 -0.3560
 4496SOL    HW221796   9.457   6.533   4.948  2.8428  2.5773 -1.0992
 4497SOL     OW21797   7.800   4.733   1.810  0.2257  0.1886  0.0720
 4497SOL    HW121798   7.875   4.713   1.747 -0.1811  1.1100 -0.7193
 4497SOL    HW221799   7.795   4.832   1.825 -1.0399  0.1721 -0.1612
 4498SOL     OW21800   9.669   3.969   2.963 -0.2780 -0.0535 -0.1068
 4498SOL    HW121801   9.667   4.039   3.035 -1.4908  1.2764 -1.3918
 4498SOL    HW221802   9.654   3.879   3.003 -0.8499  0.6617  1.3267
 4499SOL     OW21803   0.672   5.810   0.842  0.3181  0.6096  0.0655
 4499SOL    HW121804   0.679   5.839   0.747 -1.5855 -1.4083 -0.7276
 4499SOL    HW221805   0.581   5.829   0.876  0.9509  1.1937  1.4708
 4500SOL     OW21806   3.163   5.293   3.341 -0.6998  0.0660  0.3538
 4500SOL    HW121807   3.196   5.259   3.429 -1.9946  1.1927  1.2932
 4500SOL    HW221808   3.068   5.324   3.350 -0.5187  1.1380 -1.1939
 4501SOL     OW21809   9.612   4.198   3.226  0.1864 -0.6329 -0.5187
 4501SOL    HW121810   9.610   4.298   3.230  3.0602 -0.3459 -4.0835
 4501SOL    HW221811   9.693   4.163   3.273 -0.9491 -1.3694  0.9580
 4502SOL     OW21812   1.418   6.432   2.834 -0.2371  0.0743 -0.3170
 4502SOL    HW121813   1.332   6.386   2.815 -0.0222 -0.5060  0.0946
 4502SOL    HW221814   1.468   6.447   2.749  0.3922 -1.8508 -0.3161
 4504SOL     OW21815   0.281   1.459   2.386 -0.2336 -0.2312  0.7527
 4504SOL    HW121816   0.366   1.477   2.436  0.3748  3.1752 -1.3699
 4504SOL    HW221817   0.203   1.473   2.447  0.5787  1.5388  1.4141
 4505SOL     OW21818   7.336   2.397   0.970  0.3480  0.0598  0.0730
 4505SOL    HW121819   7.327   2.389   0.870  1.8670 -2.4717  0.1014
 4505SOL    HW221820   7.246   2.414   1.010 -0.6516 -1.2411 -1.5470
 4506SOL     OW21821   2.065   6.561   3.331  0.4940  0.4244 -0.3596
 4506SOL    HW121822   2.058   6.605   3.241 -0.6401 -0.0025 -0.4964
 4506SOL    HW221823   1.973   6.545   3.367  0.9309 -0.1127  0.5316
 4507SOL     OW21824   1.899   9.693   4.072 -0.2161  0.4862 -0.1109
 4507SOL    HW121825   1.924   9.773   4.127  1.9151 -0.6589  0.6388
 4507SOL    HW221826   1.817   9.651   4.110 -1.3078  2.2415 -0.4631
 4508SOL     OW21827   1.467   5.306   4.701  0.4409  0.0119  0.1505
 4508SOL    HW121828   1.466   5.313   4.601 -1.0937 -1.2675  0.0425
 4508SOL    HW221829   1.399   5.369   4.739 -0.8107 -1.3460  0.2125
 4509SOL     OW21830   7.621   9.637   4.416  0.1926 -0.4139  0.0033
 4509SOL    HW121831   7.621   9.599   4.323  0.4189 -1.3410  0.3728
 4509SOL    HW221832   7.652   9.567   4.480  0.6511  0.4292  0.7032
 4510SOL     OW21833   8.359   2.325   1.631  0.4276 -0.4022 -0.2056
 4510SOL    HW121834   8.363   2.370   1.541 -0.6195 -0.6793 -0.3941
 4510SOL    HW221835   8.273   2.276   1.640  0.3907 -0.1095  1.0898
 4511SOL     OW21836   0.813   1.316   0.514  0.6043 -0.0657  0.4773
 4511SOL    HW121837   0.860   1.318   0.602 -0.1430 -0.7717  0.8956
 4511SOL    HW221838   0.717   1.342   0.526  0.2780 -1.0534  0.0159
 4512SOL     OW21839   4.318   2.444   0.017  0.4875 -0.0905 -0.3044
 4512SOL    HW121840   4.280   2.412   0.104 -2.3541  1.1523 -1.0507
 4512SOL    HW221841   4.342   2.541   0.024 -1.2361  0.4286 -1.3567
 4513SOL     OW21842   0.532   9.040   1.778 -0.1010 -0.6849  0.4214
 4513SOL    HW121843   0.453   9.100   1.788 -1.0118 -1.7898 -0.0852
 4513SOL    HW221844   0.554   8.998   1.866 -0.2980 -0.6519  0.4862
 4514SOL     OW21845   7.539   7.867   4.366  0.3702 -0.1070 -0.2735
 4514SOL    HW121846   7.504   7.886   4.458 -0.6219  1.0133 -0.8765
 4514SOL    HW221847   7.539   7.951   4.312 -3.4880 -1.5833 -2.7948
 4515SOL     OW21848   1.315   8.111   2.251  0.2013  0.1658 -0.1121
 4515SOL    HW121849   1.412   8.096   2.270 -0.1767  1.0707  2.6602
 4515SOL    HW221850   1.271   8.024   2.228  1.5649 -0.3050 -0.9694
 4516SOL     OW21851   4.048   8.587   4.959  0.5226  0.4827  0.3359
 4516SOL    HW121852   4.048   8.686   4.974  0.5074  0.5412 -0.0432
 4516SOL    HW221853   4.122   8.546   5.012  0.6266  0.7181  0.3759
 4517SOL     OW21854   3.007   8.995   0.728 -0.4727  0.1138  0.1519
 4517SOL    HW121855   2.932   9.012   0.664  0.0177  0.1216 -0.4332
 4517SOL    HW221856   3.040   9.082   0.765 -0.2210  0.1722 -0.2097
 4518SOL     OW21857   7.462   2.633   3.086  0.6555  0.2253 -0.2802
 4518SOL    HW121858   7.549   2.639   3.135  0.7642  1.4722 -0.6061
 4518SOL    HW221859   7.475   2.665   2.992 -0.5234  2.0450  0.1460
 4519SOL     OW21860   1.618   5.401   0.743 -0.3530 -0.2604 -0.6177
 4519SOL    HW121861   1.628   5.316   0.691 -1.4444  0.2598 -1.7041
 4519SOL    HW221862   1.647   5.478   0.686 -0.4205  0.1961 -0.0316
 4521SOL     OW21863   7.903   8.492   4.163 -0.0211  0.2929 -0.0372
 4521SOL    HW121864   7.981   8.478   4.224  1.1381 -2.2901 -2.0170
 4521SOL    HW221865   7.934   8.494   4.069 -2.3453 -0.8008 -0.8653
 4522SOL     OW21866   2.533   7.745   0.846  0.0915 -0.0546 -0.0705
 4522SOL    HW121867   2.568   7.797   0.768 -0.2124  0.1258 -0.0880
 4522SOL    HW221868   2.491   7.808   0.911  0.2209 -0.2202  0.1716
 4523SOL     OW21869   9.225   2.232   3.235 -0.2880  0.1080 -0.2070
 4523SOL    HW121870   9.307   2.218   3.179 -1.0596 -1.3354 -1.0002
 4523SOL    HW221871   9.146   2.244   3.176 -1.0444 -0.9984  0.5467
 4525SOL     OW21872   8.495   0.322   2.112 -0.1823 -0.2674 -0.5994
 4525SOL    HW121873   8.408   0.345   2.157  0.6928  0.4712  0.7392
 4525SOL    HW221874   8.515   0.225   2.129 -1.7448 -0.9825 -2.6488
 4526SOL     OW21875   9.932   8.468   1.075 -0.0501 -0.2502  0.4001
 4526SOL    HW121876   9.977   8.555   1.058 -1.7219  0.7979  1.2759
 4526SOL    HW221877   9.935   8.447   1.173  0.6505 -1.3591  0.1584
 4529SOL     OW21878   2.569   2.958   3.629 -0.3120  0.1032 -0.6773
 4529SOL    HW121879   2.589   2.869   3.670 -2.8218  0.6647  1.8958
 4529SOL    HW221880   2.624   3.029   3.675 -1.6351  0.4600  0.3804
 4531SOL     OW21881   3.271   0.438   4.158 -0.2035 -0.4982  0.0108
 4531SOL    HW121882   3.368   0.418   4.173 -0.0869  0.5935  0.7578
 4531SOL    HW221883   3.228   0.361   4.110  1.1238 -0.8106 -0.7111
 4532SOL     OW21884   4.319   0.341   1.739  0.7820 -0.4571  0.2975
 4532SOL    HW121885   4.229   0.305   1.765  0.3038  0.7945  0.3832
 4532SOL    HW221886   4.338   0.424   1.791  0.6987  0.9298 -1.8566
 4533SOL     OW21887   9.110   4.853   4.152  0.0808  0.4355  0.0660
 4533SOL    HW121888   9.154   4.885   4.235  0.4467  1.6024 -0.5736
 4533SOL    HW221889   9.060   4.928   4.109 -0.9876 -0.4199 -0.2060
 4535SOL     OW21890   3.211   9.409   3.335  0.0426 -0.8683  0.1173
 4535SOL    HW121891   3.238   9.465   3.413 -1.6245 -0.5362  0.4666
 4535SOL    HW221892   3.227   9.460   3.250 -0.3495 -0.3196  0.3698
 4536SOL     OW21893   2.327   8.876   4.356  0.0141  0.0736 -0.1459
 4536SOL    HW121894   2.383   8.794   4.364  0.0448  0.1570  0.5681
 4536SOL    HW221895   2.317   8.918   4.447 -1.7594 -0.3102 -0.1493
 4537SOL     OW21896   0.922   1.961   3.304 -0.7308  0.2078  0.5045
 4537SOL    HW121897   0.962   2.001   3.222  1.5534 -2.2303  0.3604
 4537SOL    HW221898   0.838   2.010   3.328 -1.7235  0.6397 -3.5409
 4538SOL     OW21899   5.330   9.268   4.999  0.1165  0.1865 -0.6409
 4538SOL    HW121900   5.364   9.207   5.070 -1.7503 -0.3142 -0.1466
 4538SOL    HW221901   5.241   9.304   5.026 -0.4876  0.2192 -2.5920
 4541SOL     OW21902   3.758   8.818   4.227  0.4119  0.4763  0.4190
 4541SOL    HW121903   3.738   8.741   4.287  1.9141  0.4777  0.9441
 4541SOL    HW221904   3.755   8.903   4.280  2.3511  0.4228  0.6863
 4542SOL     OW21905   4.888   7.915   1.835 -0.1884  0.0216 -0.2241
 4542SOL    HW121906   4.849   7.969   1.910  0.8898  1.3543 -0.6063
 4542SOL    HW221907   4.846   7.943   1.749 -0.2893 -0.4042 -0.3155
 4544SOL     OW21908   9.057   1.313   3.587  0.7176 -0.0611 -0.2531
 4544SOL    HW121909   8.975   1.353   3.547  1.9006  1.5087 -1.1647
 4544SOL    HW221910   9.049   1.213   3.587 -1.5954  0.1195  0.5920
 4545SOL     OW21911   0.398   8.423   1.172 -0.4909 -0.3862 -0.2609
 4545SOL    HW121912   0.427   8.333   1.139 -1.3637 -0.7767  0.0274
 4545SOL    HW221913   0.469   8.460   1.233  0.2387 -0.5166 -1.0144
 4547SOL     OW21914   0.220   7.178   0.209  0.0029 -0.5511 -0.4670
 4547SOL    HW121915   0.316   7.152   0.213 -0.1465 -0.6985  2.8997
 4547SOL    HW221916   0.210   7.275   0.232 -0.4846 -0.0078 -2.8335
 4548SOL     OW21917   2.382   1.234   1.644  0.0637 -0.1497 -0.4819
 4548SOL    HW121918   2.359   1.238   1.547  0.6796  1.0606 -0.5948
 4548SOL    HW221919   2.479   1.211   1.655  0.0884  0.1017 -0.1645
 4549SOL     OW21920   4.575   9.304   0.516 -0.0937 -0.3430 -0.0408
 4549SOL    HW121921   4.674   9.321   0.512 -0.1468  0.2887  1.2768
 4549SOL    HW221922   4.554   9.249   0.597 -1.0274  0.8928  0.5626
 4550SOL     OW21923   1.583   8.689   0.787 -0.4928  0.0169  1.1502
 4550SOL    HW121924   1.602   8.762   0.722 -0.8078  0.2854  1.3613
 4550SOL    HW221925   1.659   8.623   0.786  0.8856  1.5330  2.5875
 4551SOL     OW21926   1.665   9.346   3.850  0.0747  0.3108  0.5247
 4551SOL    HW121927   1.602   9.424   3.858  1.0824  0.9625  2.4888
 4551SOL    HW221928   1.614   9.266   3.819 -0.9729  1.7447 -1.5827
 4552SOL     OW21929   5.764   0.589   3.210 -0.2267  0.1139 -0.5430
 4552SOL    HW121930   5.701   0.589   3.288  0.7551 -1.8750  0.3085
 4552SOL    HW221931   5.713   0.596   3.125 -1.4709  0.2872  0.2101
 4553SOL     OW21932   3.189   6.130   4.996  0.0242 -0.2186  0.2545
 4553SOL    HW121933   3.247   6.059   4.957  1.7046  0.6354  1.1834
 4553SOL    HW221934   3.142   6.178   4.921  3.7636  1.8733 -0.8850
 4554SOL     OW21935   9.225   9.988   0.027 -0.5378  0.2361 -0.6437
 4554SOL    HW121936   9.272   9.997   0.115 -0.6491 -2.2886 -0.2715
 4554SOL    HW221937   9.292   9.961  -0.043 -0.7821  0.3769 -0.9301
 4555SOL     OW21938   7.448   0.016   1.705  0.2594 -0.8235 -0.0675
 4555SOL    HW121939   7.456   0.065   1.618 -0.4901  0.5356  0.6128
 4555SOL    HW221940   7.524   0.042   1.765 -0.8120  0.5025  0.7566
 4556SOL     OW21941   0.341   7.918   4.355 -0.0237 -0.2955  0.1486
 4556SOL    HW121942   0.389   7.956   4.276 -0.9795 -0.3899 -0.4735
 4556SOL    HW221943   0.276   7.848   4.325 -2.1068  1.3404  0.7754
 4557SOL     OW21944   5.490   2.039   3.569 -0.1333 -0.1595  0.4357
 4557SOL    HW121945   5.403   2.088   3.572 -0.3694 -0.6077  0.9138
 4557SOL    HW221946   5.493   1.971   3.642 -0.1869 -1.4954 -0.7901
 4558SOL     OW21947   7.624   2.319   1.082  0.3206 -0.2481 -0.6717
 4558SOL    HW121948   7.573   2.394   1.124 -3.7272 -1.8190 -2.5156
 4558SOL    HW221949   7.675   2.353   1.003 -0.9640  0.6761 -1.1049
 4559SOL     OW21950   3.143   2.271   1.453 -0.3605  0.6183  0.5011
 4559SOL    HW121951   3.120   2.192   1.510  3.0751 -1.3457 -0.6846
 4559SOL    HW221952   3.179   2.344   1.511  2.1567 -0.9873  1.0194
 4560SOL     OW21953   5.944   7.651   2.420  1.0003 -0.3283 -0.1847
 4560SOL    HW121954   5.875   7.656   2.491  1.4048 -0.2306  0.2021
 4560SOL    HW221955   5.938   7.563   2.373  1.4427 -0.8230  0.6882
 4561SOL     OW21956   3.132   2.511   4.006 -0.0862 -0.2217  0.2571
 4561SOL    HW121957   3.117   2.547   4.098 -0.2648  1.6509 -0.4790
 4561SOL    HW221958   3.103   2.416   4.002  0.3338 -0.4430  2.2523
 4562SOL     OW21959   0.990   6.592   3.782  0.5424  0.2040 -0.1405
 4562SOL    HW121960   0.894   6.595   3.807  0.5070  0.2023 -0.2745
 4562SOL    HW221961   1.000   6.549   3.692  0.9048 -2.4532  1.1269
 4563SOL     OW21962   9.853   7.771   1.998  0.2590 -0.6203 -0.5586
 4563SOL    HW121963   9.907   7.703   1.948 -0.6567 -0.0184 -2.4096
 4563SOL    HW221964   9.756   7.755   1.982 -0.1590 -1.6173  2.6586
 4565SOL     OW21965   2.385   2.163   2.756  0.7397  0.1737 -0.2139
 4565SOL    HW121966   2.452   2.108   2.804 -0.5772 -2.0977 -0.9026
 4565SOL    HW221967   2.431   2.235   2.703  2.4797 -0.3712  0.5558
 4567SOL     OW21968   0.120   8.177   2.048  0.0010  0.3477  0.0757
 4567SOL    HW121969   0.052   8.132   1.990 -0.5415  0.1395  0.8660
 4567SOL    HW221970   0.137   8.121   2.129 -0.2676  1.2910  0.7938
 4569SOL     OW21971   5.352   2.407   2.632  0.1068 -0.1423  0.1029
 4569SOL    HW121972   5.320   2.459   2.553  0.9130 -0.7124 -0.6149
 4569SOL    HW221973   5.310   2.317   2.632 -2.6250  1.0404  2.2978
 4570SOL     OW21974   3.142   8.939   4.074 -0.4369 -0.3804  0.0267
 4570SOL    HW121975   3.053   8.983   4.087 -0.0483  0.4781 -0.2054
 4570SOL    HW221976   3.201   8.999   4.020  0.9101 -0.1337  1.7438
 4571SOL     OW21977   1.484   0.297   4.588  0.5512  0.0524  0.1785
 4571SOL    HW121978   1.413   0.230   4.607  1.6166 -1.1680 -0.0411
 4571SOL    HW221979   1.487   0.365   4.661 -0.8847  0.1688  0.1373
 4572SOL     OW21980   1.497   0.094   3.132  0.0484 -0.2882 -0.4322
 4572SOL    HW121981   1.491   0.001   3.168  0.3125  0.4363  1.5547
 4572SOL    HW221982   1.589   0.109   3.095  0.1057 -0.7225 -0.4682
 4573SOL     OW21983   3.143   6.652   5.255 -0.1008  0.0449  0.7273
 4573SOL    HW121984   3.083   6.667   5.334 -0.3860  1.8579  0.1857
 4573SOL    HW221985   3.087   6.626   5.176  0.0192 -0.0681  0.6788
 4574SOL     OW21986   8.141   3.406   2.236  0.6671 -1.0045 -0.8084
 4574SOL    HW121987   8.182   3.497   2.251 -1.8330  0.2173 -1.1246
 4574SOL    HW221988   8.163   3.347   2.314 -0.7594  1.0523  1.2436
 4575SOL     OW21989   6.727   0.753   1.314 -0.9074  0.0590  0.6348
 4575SOL    HW121990   6.715   0.831   1.376 -1.5381  0.9626 -0.6012
 4575SOL    HW221991   6.810   0.704   1.338 -0.1472  1.5125  1.0157
 4577SOL     OW21992   8.866   8.936   0.267  0.2776  0.1131 -0.1118
 4577SOL    HW121993   8.956   8.956   0.305 -0.2248  0.9396  0.6599
 4577SOL    HW221994   8.797   8.940   0.339 -0.5983  1.0466 -0.9772
 4578SOL     OW21995   0.982   0.676   2.645  0.2185 -0.0222  0.1554
 4578SOL    HW121996   0.896   0.718   2.673  0.7564  0.4006  1.2167
 4578SOL    HW221997   1.051   0.689   2.717  0.8762 -1.2430 -0.2248
 4579SOL     OW21998   1.355   7.357   1.332 -0.0927  0.0837  0.0887
 4579SOL    HW121999   1.316   7.346   1.424  1.2978  1.7220  0.9050
 4579SOL    HW222000   1.320   7.440   1.290 -0.9396 -0.8023 -1.0056
 4580SOL     OW22001   3.201   6.485   0.684 -0.0524  0.0079  0.1300
 4580SOL    HW122002   3.114   6.451   0.649  0.1952 -1.3618  0.8272
 4580SOL    HW222003   3.207   6.584   0.668 -1.1625 -0.1122 -1.1041
 4581SOL     OW22004   3.514   9.743   2.721 -0.2008  0.3138  0.2858
 4581SOL    HW122005   3.584   9.676   2.696 -1.2587  0.0590 -2.1272
 4581SOL    HW222006   3.536   9.783   2.810 -0.1033 -3.9776  2.2696
 4582SOL     OW22007   0.310   3.551   4.288  0.1952  0.0653  0.3787
 4582SOL    HW122008   0.345   3.483   4.353  0.7260  0.6132  0.6719
 4582SOL    HW222009   0.286   3.506   4.202  0.2021 -0.5482  0.6989
 4584SOL     OW22010   8.931   0.283   1.512  0.0442 -0.0099  0.0814
 4584SOL    HW122011   8.845   0.244   1.544  0.0854 -0.2278 -0.0725
 4584SOL    HW222012   8.966   0.347   1.581 -0.3970  0.3147  0.0039
 4585SOL     OW22013   9.894   7.612   3.703  0.3617  0.4896 -0.0094
 4585SOL    HW122014   9.881   7.710   3.692  0.3971  0.4598 -0.3158
 4585SOL    HW222015   9.830   7.578   3.772  0.0860  0.6626 -0.1788
 4586SOL     OW22016   0.721   8.608   2.880  0.6091 -0.2277 -0.3984
 4586SOL    HW122017   0.703   8.673   2.954  2.5029  1.2366 -1.2019
 4586SOL    HW222018   0.714   8.654   2.792 -0.2020 -1.6288 -1.0745
 4587SOL     OW22019   3.897   5.294   2.328 -0.1454  0.1137  0.2794
 4587SOL    HW122020   3.954   5.329   2.403  0.8320 -1.0925  0.1191
 4587SOL    HW222021   3.820   5.355   2.313  0.4937  1.1765  1.2660
 4588SOL     OW22022   3.928   7.450   3.335  0.4522  0.1229  0.1266
 4588SOL    HW122023   3.972   7.364   3.311 -0.3505 -0.1235 -0.4772
 4588SOL    HW222024   3.941   7.516   3.261  0.9897  0.4943  0.5475
 4589SOL     OW22025   3.948   1.112   2.682  0.0158 -0.3447 -0.0590
 4589SOL    HW122026   4.035   1.152   2.652  0.8265 -0.5905  1.8853
 4589SOL    HW222027   3.966   1.041   2.750 -1.6634 -1.0738 -0.3665
 4590SOL     OW22028   8.423   8.692   2.024 -0.2941  0.3495  0.5885
 4590SOL    HW122029   8.331   8.656   2.014 -0.4540  0.8311  0.3008
 4590SOL    HW222030   8.436   8.768   1.960  0.4549 -0.0240  0.2936
 4591SOL     OW22031   3.370   7.514   5.214 -0.3846 -0.1446  0.4160
 4591SOL    HW122032   3.389   7.435   5.156  0.1963 -0.4659  1.0376
 4591SOL    HW222033   3.433   7.589   5.192  2.2415 -1.4843  3.0222
 4592SOL     OW22034   0.915   8.086   0.748  0.2650  0.0624 -1.1064
 4592SOL    HW122035   0.835   8.027   0.764  0.0450  1.0212  1.5972
 4592SOL    HW222036   0.988   8.032   0.705 -1.0837 -1.3483 -1.6794
 4593SOL     OW22037   6.870   0.454   4.009  0.1653  0.1368 -0.7980
 4593SOL    HW122038   6.826   0.541   3.989  1.0943  0.6518 -0.6303
 4593SOL    HW222039   6.945   0.469   4.075 -0.1778 -0.8983 -0.1610
 4595SOL     OW22040   0.591   0.570   4.909 -0.9097  0.6379  0.2431
 4595SOL    HW122041   0.549   0.490   4.952  1.2234 -0.5641  0.1712
 4595SOL    HW222042   0.553   0.653   4.948 -1.5192 -0.4189  1.9524
 4597SOL     OW22043   2.173   1.323   0.016 -0.0627 -0.4167  0.8645
 4597SOL    HW122044   2.251   1.300   0.074  0.9362  1.2178  0.2083
 4597SOL    HW222045   2.117   1.392   0.062 -0.9245 -1.3113  1.1695
 4598SOL     OW22046   4.855   0.783   3.123 -0.6650  0.1485 -0.8438
 4598SOL    HW122047   4.803   0.803   3.039 -1.7112 -0.6447 -0.3980
 4598SOL    HW222048   4.791   0.774   3.199  0.2337  0.1492 -0.0934
 4599SOL     OW22049   3.633   8.613   1.564  0.1158  0.0965 -0.1364
 4599SOL    HW122050   3.563   8.614   1.492 -0.9527 -1.0728  0.8655
 4599SOL    HW222051   3.653   8.518   1.589  1.9359  0.4246 -0.2791
 4600SOL     OW22052   5.222   8.063   3.647 -0.0911  0.6340 -0.1284
 4600SOL    HW122053   5.178   8.149   3.672 -1.3176 -0.1795  0.5511
 4600SOL    HW222054   5.283   8.034   3.720 -0.0510  0.6771 -0.1450
 4601SOL     OW22055   8.489   3.252   2.009  0.1899 -0.0732 -0.5777
 4601SOL    HW122056   8.564   3.279   2.070  0.3427 -1.2766 -0.2277
 4601SOL    HW222057   8.503   3.157   1.980 -0.9298 -0.1302 -0.9214
 4602SOL     OW22058   4.129   4.217   3.330 -0.8787 -0.2594 -0.3043
 4602SOL    HW122059   4.189   4.140   3.352 -1.2980 -0.4729  0.1050
 4602SOL    HW222060   4.036   4.197   3.363 -0.9583  0.4779 -0.0741
 4603SOL     OW22061   9.117   8.829   2.651 -0.1886  0.6639  0.4047
 4603SOL    HW122062   9.050   8.765   2.688 -0.4710  1.3776  1.1409
 4603SOL    HW222063   9.209   8.799   2.675 -0.2540 -0.1040 -0.2727
 4604SOL     OW22064   0.493   2.273   4.282 -0.2419 -0.0756 -0.0717
 4604SOL    HW122065   0.520   2.351   4.339 -0.5635 -0.5950  0.7929
 4604SOL    HW222066   0.420   2.301   4.221 -1.7386 -0.2153  1.6169
 4605SOL     OW22067   1.729   0.666   1.000 -0.1678  0.3331 -0.7810
 4605SOL    HW122068   1.645   0.656   0.946 -0.1627 -0.7268 -0.5831
 4605SOL    HW222069   1.717   0.741   1.066 -0.6133  0.8149 -1.4013
 4606SOL     OW22070   4.697   0.193   1.875  0.0570  0.0074 -0.2066
 4606SOL    HW122071   4.665   0.258   1.944  1.5740  0.3493  0.2094
 4606SOL    HW222072   4.651   0.105   1.886  0.1530  0.1240  1.1246
 4607SOL     OW22073   9.384   4.410   2.377 -0.3510 -0.1458 -0.4770
 4607SOL    HW122074   9.471   4.403   2.329 -0.7811  0.0203 -1.2974
 4607SOL    HW222075   9.360   4.321   2.416  0.8711  0.1507  0.9844
 4608SOL     OW22076   9.245   3.921   4.110  0.2257  0.2768 -0.1031
 4608SOL    HW122077   9.161   3.972   4.124  0.6029  1.3778 -1.7200
 4608SOL    HW222078   9.224   3.823   4.105 -0.5595  0.2812  2.4626
 4609SOL     OW22079   0.448   8.238   3.819  0.3235 -0.0960 -0.3653
 4609SOL    HW122080   0.390   8.179   3.875 -0.7534 -0.4370 -1.8114
 4609SOL    HW222081   0.409   8.330   3.817  0.4720 -0.0344 -0.3992
 4610SOL     OW22082   3.105   0.563   0.095 -0.4915 -0.5661 -0.4584
 4610SOL    HW122083   3.081   0.650   0.138 -0.2157 -0.2818 -0.8825
 4610SOL    HW222084   3.084   0.567  -0.003  0.9728 -0.4373 -0.7747
 4612SOL     OW22085   7.651   3.175   1.569 -0.1770  0.0370  0.0771
 4612SOL    HW122086   7.685   3.269   1.574 -0.0972 -0.0233  0.6748
 4612SOL    HW222087   7.666   3.139   1.477 -0.6300  0.7657 -0.2853
 4614SOL     OW22088   5.019   9.306   1.274 -0.2688 -0.9305 -1.2061
 4614SOL    HW122089   5.111   9.344   1.282 -1.4845  1.4398  2.7864
 4614SOL    HW222090   4.959   9.372   1.230 -1.3478  0.0064  1.5754
 4615SOL     OW22091   8.224   8.403   2.854  0.7284  0.3356  0.4551
 4615SOL    HW122092   8.135   8.439   2.826  0.4884 -0.6574 -0.0614
 4615SOL    HW222093   8.243   8.433   2.948 -0.7945 -0.6406  1.0895
 4616SOL     OW22094   6.902   8.223   4.848  0.1629 -0.5036 -0.1242
 4616SOL    HW122095   6.979   8.246   4.788 -0.2328  0.8749 -0.1303
 4616SOL    HW222096   6.887   8.298   4.912 -0.0832 -1.5213  1.0123
 4617SOL     OW22097   1.216   2.065   0.982 -0.2835 -0.2244 -0.3295
 4617SOL    HW122098   1.282   2.022   1.044  0.4246 -0.3200 -1.1380
 4617SOL    HW222099   1.185   2.152   1.020  0.7531  0.0977 -0.2246
 4618SOL     OW22100   1.900   9.081   0.955 -0.4509  0.1598 -0.5861
 4618SOL    HW122101   1.921   8.989   0.988 -1.7945  0.2589  0.5639
 4618SOL    HW222102   1.911   9.147   1.029  0.1778  0.8943 -1.3203
 4619SOL     OW22103   0.522   8.550   3.563  0.0980 -0.4363  0.0090
 4619SOL    HW122104   0.601   8.583   3.615 -0.2287  0.3648  0.0015
 4619SOL    HW222105   0.457   8.505   3.625  0.1967 -0.4089  0.1319
 4622SOL     OW22106   7.690   3.905   2.469 -0.4071 -0.5600 -0.0402
 4622SOL    HW122107   7.671   3.876   2.563  2.0142 -0.5517  0.4757
 4622SOL    HW222108   7.766   3.853   2.432  0.1702  1.0343 -1.1893
 4623SOL     OW22109   8.728   7.794   3.939 -0.0206 -0.5874  0.1071
 4623SOL    HW122110   8.738   7.766   3.843 -1.4894 -0.5524 -0.0772
 4623SOL    HW222111   8.797   7.749   3.995  1.3812  0.0409 -1.0951
 4624SOL     OW22112   2.617   8.668   3.874  0.2586 -0.2336 -0.6581
 4624SOL    HW122113   2.655   8.741   3.930  1.5303  0.2926 -2.1599
 4624SOL    HW222114   2.684   8.594   3.866 -0.8832 -1.4384  0.5656
 4625SOL     OW22115   7.225   2.244   4.326  0.0174 -0.5308  0.2335
 4625SOL    HW122116   7.184   2.188   4.398  1.3323  0.1932  1.5742
 4625SOL    HW222117   7.325   2.242   4.335  0.1831 -0.2317 -1.4248
 4627SOL     OW22118   8.024   9.577   3.988 -0.1957  0.2508  0.0244
 4627SOL    HW122119   8.078   9.495   3.968  0.2108  0.2624  1.0556
 4627SOL    HW222120   8.074   9.658   3.957 -0.0614  0.1911  0.0829
 4629SOL     OW22121   0.876   6.053   1.106  0.7542 -0.1930  0.4740
 4629SOL    HW122122   0.893   5.988   1.033  0.7709  0.4544 -0.1071
 4629SOL    HW222123   0.818   6.012   1.176  0.0612 -0.5415 -0.3108
 4630SOL     OW22124   0.230   7.506   2.751 -0.2905 -0.1083  1.1159
 4630SOL    HW122125   0.312   7.532   2.803 -0.3414  1.6475  0.3614
 4630SOL    HW222126   0.155   7.487   2.815  0.0793  0.5125  1.7459
 4631SOL     OW22127   9.545   4.880   0.440  0.3409  0.2630  0.3983
 4631SOL    HW122128   9.550   4.802   0.503  1.5407 -0.7400 -0.9071
 4631SOL    HW222129   9.588   4.960   0.482  0.0238 -0.0425  1.3313
 4633SOL     OW22130   5.045   8.672   1.377 -0.1677 -0.0948  0.1195
 4633SOL    HW122131   5.074   8.751   1.323 -2.3848  0.3436 -0.4474
 4633SOL    HW222132   5.085   8.589   1.337  3.3371  0.7944  1.5468
 4634SOL     OW22133   1.846   3.940   2.878 -0.2669 -0.0143  0.0214
 4634SOL    HW122134   1.869   4.037   2.886 -1.6039  0.2687  0.5779
 4634SOL    HW222135   1.748   3.928   2.893 -0.4202 -1.2403 -1.8500
 4635SOL     OW22136   4.910   7.498   2.522 -0.3626  0.1883 -0.4412
 4635SOL    HW122137   4.970   7.553   2.463 -0.4554  0.1680 -0.5539
 4635SOL    HW222138   4.960   7.417   2.553  0.5836  1.5513  1.6771
 4636SOL     OW22139   5.113   4.072   1.154 -1.0817 -0.7469  0.3143
 4636SOL    HW122140   5.016   4.081   1.134 -1.3384 -1.7960  1.0506
 4636SOL    HW222141   5.132   4.104   1.247 -0.9510 -1.8104  0.6586
 4638SOL     OW22142   4.490   2.413   5.057 -0.0980 -0.0638  0.2161
 4638SOL    HW122143   4.549   2.457   5.125 -0.7934 -1.2333  1.5978
 4638SOL    HW222144   4.420   2.478   5.027  0.6307  0.6706  0.0843
 4639SOL     OW22145   6.492   0.777   0.545 -0.2511 -0.1817  0.2725
 4639SOL    HW122146   6.492   0.830   0.630 -1.5614 -1.1055  0.8619
 4639SOL    HW222147   6.452   0.687   0.562  1.3302 -1.1185 -0.8730
 4640SOL     OW22148   7.772   0.778   3.117  0.1450 -0.0535  0.6660
 4640SOL    HW122149   7.831   0.833   3.059  0.3772 -0.9717  0.0176
 4640SOL    HW222150   7.688   0.829   3.137  0.9119  1.0279  1.1362
 4641SOL     OW22151   8.989  -0.001   0.510  0.3501  0.0750 -0.0761
 4641SOL    HW122152   8.899  -0.045   0.511 -0.2472  1.3106  1.2028
 4641SOL    HW222153   8.985   0.082   0.453  0.6370  0.2267  0.1240
 4642SOL     OW22154   1.636   8.705   4.967 -0.2929 -0.5031  0.2388
 4642SOL    HW122155   1.601   8.746   4.883  0.6667  0.3268  0.2478
 4642SOL    HW222156   1.669   8.612   4.948  2.7091  0.7633 -0.9448
 4643SOL     OW22157   0.602   7.428   3.945 -0.3757  0.3473 -0.2573
 4643SOL    HW122158   0.558   7.374   3.873 -0.3342 -0.1075  0.0568
 4643SOL    HW222159   0.536   7.446   4.018 -1.5230  3.9537 -2.0711
 4644SOL     OW22160   2.392   3.942   3.804 -0.1499 -0.5340 -0.0904
 4644SOL    HW122161   2.335   4.019   3.775 -0.8361 -0.3821  1.6532
 4644SOL    HW222162   2.483   3.976   3.828 -0.3640 -0.3056  0.4013
 4645SOL     OW22163   3.242   6.106   2.475 -0.1162 -0.1539 -0.1170
 4645SOL    HW122164   3.341   6.122   2.473 -0.3084  1.3048  0.9348
 4645SOL    HW222165   3.198   6.161   2.404 -0.3826  0.9174  0.8668
 4646SOL     OW22166   9.938   5.306   2.373 -0.9039  0.2631  0.4956
 4646SOL    HW122167   9.944   5.311   2.473  1.6929 -1.2717  0.4745
 4646SOL    HW222168   9.954   5.396   2.334 -0.2816  0.5641  1.4262
 4647SOL     OW22169   0.026   8.777   4.656 -0.4239  0.4469  0.5757
 4647SOL    HW122170   0.063   8.870   4.645 -0.5274  0.1058 -3.0401
 4647SOL    HW222171  -0.074   8.781   4.660 -0.3725  0.6236  2.5222
 4648SOL     OW22172   3.871   2.491   2.715  0.3585  0.1032 -0.5280
 4648SOL    HW122173   3.859   2.590   2.709  0.9247  0.2139  0.1301
 4648SOL    HW222174   3.811   2.454   2.785  0.3024  0.0119 -0.6245
 4649SOL     OW22175   0.699   2.717   3.076 -0.4634 -0.2852 -0.2300
 4649SOL    HW122176   0.608   2.675   3.075 -1.1952  1.1476  2.5438
 4649SOL    HW222177   0.703   2.789   3.007 -1.4670 -0.2902 -0.3036
 4650SOL     OW22178   9.281   0.378   4.606 -0.3910  0.7579 -0.2984
 4650SOL    HW122179   9.352   0.419   4.549 -1.3677  0.0716 -2.0319
 4650SOL    HW222180   9.192   0.389   4.562 -1.1291 -0.0453  0.9555
 4651SOL     OW22181   8.821   6.482   0.204  0.9807  0.1165  0.0384
 4651SOL    HW122182   8.749   6.542   0.237  0.1098 -0.9138  0.0580
 4651SOL    HW222183   8.832   6.493   0.106  2.1601  1.6986  0.3289
 4652SOL     OW22184   5.488   1.729   4.115  0.4692 -0.6196  0.3785
 4652SOL    HW122185   5.468   1.737   4.017  1.4521 -0.5483  0.1739
 4652SOL    HW222186   5.416   1.774   4.168 -0.6195 -1.5905 -0.2666
 4653SOL     OW22187   1.444   1.023   0.751  0.0447 -0.0347  0.3542
 4653SOL    HW122188   1.429   1.022   0.652 -0.7788  2.2954  0.4160
 4653SOL    HW222189   1.372   0.971   0.796  0.0825 -0.6100 -0.2408
 4656SOL     OW22190   6.299   8.545   4.915  0.3689 -0.1852 -0.1574
 4656SOL    HW122191   6.269   8.550   5.011  0.5887  0.5338 -0.1204
 4656SOL    HW222192   6.371   8.477   4.906  0.4977 -0.1055  0.2368
 4657SOL     OW22193   6.691   7.462   4.263 -0.1772  0.7375 -0.2328
 4657SOL    HW122194   6.660   7.473   4.357 -2.0720  0.1525 -0.7684
 4657SOL    HW222195   6.767   7.525   4.245 -0.6546  1.7704  1.2862
 4659SOL     OW22196   4.332   3.319   0.922 -0.0726 -0.6179  0.1005
 4659SOL    HW122197   4.352   3.324   0.824  1.4268  0.1697  0.4337
 4659SOL    HW222198   4.240   3.354   0.939 -0.6809 -1.5677 -1.1220
 4660SOL     OW22199   8.624   5.984   1.338 -0.1433  0.1866  0.0399
 4660SOL    HW122200   8.578   5.976   1.249 -0.4271  0.1336  0.1886
 4660SOL    HW222201   8.665   5.896   1.362  1.1250  0.5761 -0.6744
 4661SOL     OW22202   4.457   1.379   4.063 -0.0075 -0.0600 -0.1938
 4661SOL    HW122203   4.419   1.406   4.151 -0.5536  0.3807 -0.5664
 4661SOL    HW222204   4.437   1.282   4.047  2.3268 -0.8370  1.3333
 4664SOL     OW22205   4.634   7.733   1.551 -0.1789  0.1070 -0.0205
 4664SOL    HW122206   4.608   7.825   1.522 -0.6662 -0.4236 -1.3130
 4664SOL    HW222207   4.734   7.727   1.556 -0.0820  0.2667 -1.4551
 4665SOL     OW22208   0.166   3.966   2.012  0.3081 -0.7675 -0.5471
 4665SOL    HW122209   0.181   4.034   2.084 -0.5150 -1.1402 -0.0105
 4665SOL    HW222210   0.222   3.885   2.030  2.2939  0.2779 -1.9052
 4666SOL     OW22211   9.767   2.161   1.071  0.6070 -0.4310  0.4098
 4666SOL    HW122212   9.848   2.134   1.020  1.3513 -0.5023  1.6287
 4666SOL    HW222213   9.768   2.260   1.086 -0.7752 -0.0589 -1.7041
 4667SOL     OW22214   0.884   3.573   0.081 -0.5253  0.3390  0.0325
 4667SOL    HW122215   0.915   3.662   0.048 -0.9581  0.2546 -0.6204
 4667SOL    HW222216   0.924   3.501   0.024  1.3582 -0.0080  1.7271
 4668SOL     OW22217   2.903   0.118   1.294  0.1640 -0.1965 -0.4139
 4668SOL    HW122218   2.960   0.068   1.358 -0.5317  0.0413  0.3954
 4668SOL    HW222219   2.943   0.112   1.202 -0.3786 -2.9429 -0.5068
 4671SOL     OW22220   8.431   3.799   0.387 -0.1027  0.2500  0.2989
 4671SOL    HW122221   8.389   3.809   0.477 -0.3298  2.2180 -0.0212
 4671SOL    HW222222   8.529   3.786   0.398 -0.0313  1.1817  0.8043
 4672SOL     OW22223   9.863   2.448   4.096  0.5755  0.0099  0.5965
 4672SOL    HW122224   9.856   2.545   4.120  0.7588  0.3221 -0.5583
 4672SOL    HW222225   9.956   2.429   4.065  0.0335 -0.0880 -1.0219
 4673SOL     OW22226   3.549   0.606   2.402 -0.1379 -0.4060  0.4521
 4673SOL    HW122227   3.454   0.635   2.393 -0.1596 -0.3539  0.8255
 4673SOL    HW222228   3.564   0.523   2.348  0.3034  1.1486 -1.8585
 4674SOL     OW22229   3.232   2.577   2.982 -0.4718 -0.0368  0.7262
 4674SOL    HW122230   3.312   2.564   2.923 -0.8292 -1.2558  0.4841
 4674SOL    HW222231   3.261   2.583   3.077 -0.0649 -0.1392  0.6115
 4675SOL     OW22232   8.209   6.206   4.045 -0.7507  0.1076  0.1192
 4675SOL    HW122233   8.139   6.242   4.107 -1.9996 -0.6838 -0.7988
 4675SOL    HW222234   8.169   6.133   3.989  0.4339  0.5706 -1.3589
 4676SOL     OW22235   7.486   3.462   0.582 -0.4887 -0.0425 -0.0133
 4676SOL    HW122236   7.519   3.500   0.668  1.2969  0.3489 -0.8454
 4676SOL    HW222237   7.431   3.531   0.535  0.8082  0.7157 -0.4391
 4677SOL     OW22238   8.572   7.046   3.370 -0.0756  0.2820 -0.0633
 4677SOL    HW122239   8.562   6.970   3.433  0.1712  0.4658  0.1977
 4677SOL    HW222240   8.669   7.060   3.349 -0.2145 -0.3106 -1.1340
 4678SOL     OW22241   5.299   1.749   2.918 -0.1341 -0.2986  0.1956
 4678SOL    HW122242   5.243   1.830   2.900  1.0703  0.3048 -0.9221
 4678SOL    HW222243   5.340   1.717   2.832  0.6240 -1.1790  0.8710
 4679SOL     OW22244   9.500   7.645   5.232  0.3730 -1.0018 -0.1535
 4679SOL    HW122245   9.589   7.668   5.191 -0.0257  1.5901  0.3755
 4679SOL    HW222246   9.432   7.711   5.201 -0.5866 -0.8187  2.2919
 4680SOL     OW22247   7.635   9.498   2.877  0.3347 -0.2911  0.4497
 4680SOL    HW122248   7.560   9.437   2.854  1.4934 -1.6228  0.1088
 4680SOL    HW222249   7.608   9.593   2.862 -0.8905 -0.8272 -0.7378
 4681SOL     OW22250   1.730   2.491   1.915 -0.2505  0.1248  0.1909
 4681SOL    HW122251   1.633   2.473   1.929 -0.6660  1.0447 -1.3667
 4681SOL    HW222252   1.773   2.513   2.003 -1.4639 -0.1340  0.8648
 4682SOL     OW22253   8.482   3.164   2.528 -0.1038 -0.0685  0.4102
 4682SOL    HW122254   8.469   3.066   2.538 -0.0063 -0.3357 -1.8254
 4682SOL    HW222255   8.548   3.196   2.596 -0.9082 -1.3487  1.8320
 4683SOL     OW22256   9.726   9.225   3.727  0.3265  0.2663 -0.0892
 4683SOL    HW122257   9.646   9.187   3.774 -0.3797 -0.2544 -1.6646
 4683SOL    HW222258   9.697   9.297   3.664  1.2374  0.8398  0.1374
 4684SOL     OW22259   3.223   4.470   0.845  0.1986 -0.6034  0.6519
 4684SOL    HW122260   3.124   4.467   0.828  0.2833  0.3009 -0.0244
 4684SOL    HW222261   3.270   4.411   0.780  0.0328 -1.8212  1.6128
 4685SOL     OW22262   2.286   0.652   4.475  0.0325  0.1236  0.5561
 4685SOL    HW122263   2.303   0.619   4.568 -0.2800  0.0320  0.5828
 4685SOL    HW222264   2.362   0.626   4.416 -0.4826 -1.1467  0.4481
 4686SOL     OW22265   9.526   1.753   1.036 -0.0328  0.0960  0.1294
 4686SOL    HW122266   9.471   1.688   1.089  1.3980  0.2263  1.8444
 4686SOL    HW222267   9.506   1.742   0.939 -0.0039 -2.7796  0.3903
 4687SOL     OW22268   0.418   8.470   2.870 -0.0339  0.4271  0.4445
 4687SOL    HW122269   0.511   8.492   2.844  0.3999  0.7102  2.1689
 4687SOL    HW222270   0.361   8.552   2.865 -1.2970 -0.5787 -4.9076
 4688SOL     OW22271   9.159   0.013   2.694 -0.0974 -0.0787 -0.4860
 4688SOL    HW122272   9.078   0.021   2.752 -1.0802 -1.1622 -1.7045
 4688SOL    HW222273   9.132  -0.006   2.600  1.4912  1.6669 -1.3288
 4689SOL     OW22274   2.933   4.503   2.424  0.2755 -0.2729  0.5999
 4689SOL    HW122275   2.961   4.421   2.375 -0.0834  0.0555 -0.1609
 4689SOL    HW222276   2.845   4.487   2.470 -0.6544  0.2327 -0.9780
 4690SOL     OW22277   2.175   1.890   5.235  0.8673  0.4203  0.1823
 4690SOL    HW122278   2.170   1.801   5.280  3.4034 -1.0172 -2.2641
 4690SOL    HW222279   2.087   1.911   5.192 -0.0380 -0.4284  1.5784
 4691SOL     OW22280   6.084   2.244   4.722 -0.2254  0.5954 -0.2237
 4691SOL    HW122281   6.174   2.272   4.757  0.5605 -0.9377 -0.9571
 4691SOL    HW222282   6.096   2.195   4.636 -1.6265 -1.3192  0.6401
 4692SOL     OW22283   8.052   8.561   3.921 -0.3356  0.5546 -0.8350
 4692SOL    HW122284   8.133   8.509   3.895  0.7627  1.4134  0.7905
 4692SOL    HW222285   8.003   8.590   3.839  0.5161 -0.7242 -1.8052
 4694SOL     OW22286   2.298   4.683   1.104  0.1326 -0.2095 -0.5736
 4694SOL    HW122287   2.270   4.745   1.031  0.8488 -0.2239 -0.8728
 4694SOL    HW222288   2.220   4.627   1.132 -0.3612  0.3931 -0.7281
 4695SOL     OW22289   2.801   8.940   2.957  0.3676  0.0041 -0.2376
 4695SOL    HW122290   2.751   8.855   2.941 -1.3906  1.0734 -0.6369
 4695SOL    HW222291   2.778   9.006   2.885 -0.0504  1.5840  1.2975
 4696SOL     OW22292   7.139   1.955   5.084 -0.3859  0.0753 -0.3853
 4696SOL    HW122293   7.216   1.892   5.081 -1.2238 -0.9001 -3.8690
 4696SOL    HW222294   7.066   1.916   5.140  0.4227 -0.4687  0.2906
 4697SOL     OW22295   0.311   0.851   3.155 -0.8451  0.3605 -0.1567
 4697SOL    HW122296   0.315   0.801   3.241 -1.0668 -1.0559 -0.9500
 4697SOL    HW222297   0.257   0.800   3.089 -0.7025  1.4400 -1.1372
 4699SOL     OW22298   7.233   7.974   4.988 -0.9089  0.3939  0.3271
 4699SOL    HW122299   7.261   8.047   5.051  1.5563 -1.2975  1.2901
 4699SOL    HW222300   7.195   7.898   5.041  1.0124 -0.9643 -0.1898
 4701SOL     OW22301   4.454   6.600   2.407  0.0835 -0.0992  0.2847
 4701SOL    HW122302   4.511   6.620   2.327 -1.2633  1.4678 -0.3057
 4701SOL    HW222303   4.486   6.655   2.484  1.5849 -1.8440  0.9565
 4702SOL     OW22304   9.791   3.597   3.955  0.2180 -0.1261 -0.1865
 4702SOL    HW122305   9.860   3.664   3.928 -0.1871  0.0960 -0.6824
 4702SOL    HW222306   9.760   3.618   4.048 -0.5706  0.9378 -0.6787
 4703SOL     OW22307   4.506   9.499   3.904  0.3752  0.0072  0.6269
 4703SOL    HW122308   4.543   9.418   3.858  0.9141 -0.0073  1.0862
 4703SOL    HW222309   4.567   9.576   3.887  0.7927 -0.0905  1.6561
 4705SOL     OW22310   2.721   6.359   1.411  0.3500  0.1828  0.1584
 4705SOL    HW122311   2.783   6.438   1.414  0.9195 -0.3222  1.9236
 4705SOL    HW222312   2.772   6.275   1.428 -0.8952 -0.1910  2.2470
 4706SOL     OW22313   9.561   5.834   3.440 -0.0963  0.6714  0.1981
 4706SOL    HW122314   9.483   5.772   3.452  2.5002 -2.5934  1.1044
 4706SOL    HW222315   9.577   5.883   3.526 -2.8867  3.5800 -0.8750
 4708SOL     OW22316   3.015   7.626   0.286  0.4580  0.1129  0.5343
 4708SOL    HW122317   2.976   7.718   0.275 -2.2804 -1.3439 -2.7149
 4708SOL    HW222318   2.960   7.574   0.351  0.3979 -0.1146  0.3004
 4709SOL     OW22319   3.798   2.926   3.582 -0.1155  0.1504 -0.2596
 4709SOL    HW122320   3.785   2.998   3.651  2.1361  0.3639 -0.0172
 4709SOL    HW222321   3.798   2.967   3.491 -1.1237  0.1387 -0.2677
 4711SOL     OW22322   3.336   5.414   0.315 -0.4335 -0.0842  0.0917
 4711SOL    HW122323   3.254   5.447   0.269 -0.9072 -0.9506  0.3045
 4711SOL    HW222324   3.402   5.380   0.248  0.6396  2.5477 -0.2332
 4712SOL     OW22325   3.646   8.493   0.745 -0.6734  0.0821  0.7700
 4712SOL    HW122326   3.688   8.461   0.660 -1.2562  2.1546 -0.3302
 4712SOL    HW222327   3.710   8.553   0.793 -1.3213  1.0375  0.4578
 4715SOL     OW22328   2.109   7.138   2.599  0.1707 -0.2037  0.1100
 4715SOL    HW122329   2.138   7.225   2.559 -0.6349  0.1714  0.3202
 4715SOL    HW222330   2.094   7.071   2.527  3.1558 -0.9216  0.0925
 4716SOL     OW22331   5.346   1.571   0.458 -0.2963 -0.2557 -0.0366
 4716SOL    HW122332   5.427   1.554   0.514 -0.8495  0.9339  1.1454
 4716SOL    HW222333   5.267   1.523   0.496 -0.6648  0.5150  0.1835
 4717SOL     OW22334   1.637   8.867   1.834 -0.1710  0.5963 -0.0277
 4717SOL    HW122335   1.547   8.823   1.835  0.2685 -0.3172 -0.0777
 4717SOL    HW222336   1.681   8.855   1.923  0.2456  0.3142 -0.2669
 4718SOL     OW22337   5.528   8.094   2.569  0.5286 -0.3833  0.0323
 4718SOL    HW122338   5.610   8.133   2.527 -0.4969  0.2971 -1.3647
 4718SOL    HW222339   5.507   8.144   2.653  1.1431 -0.1273  0.0400
 4719SOL     OW22340   0.009   6.317   4.317  0.5464  0.3164 -0.6781
 4719SOL    HW122341   0.072   6.366   4.257  1.8191 -0.5096 -0.0480
 4719SOL    HW222342   0.061   6.270   4.389 -0.8175 -0.0927  0.0676
 4720SOL     OW22343   8.727   0.633   1.919  0.3917  0.5901  0.3687
 4720SOL    HW122344   8.652   0.571   1.897  1.5310 -0.9617  0.7951
 4720SOL    HW222345   8.758   0.679   1.836 -0.6550  0.8034  0.0984
 4722SOL     OW22346   3.091   6.138   0.830  0.2280  0.1612  0.4666
 4722SOL    HW122347   3.050   6.111   0.916 -1.5198  0.6700 -0.1916
 4722SOL    HW222348   3.157   6.212   0.846  0.7342 -0.5091  1.4960
 4723SOL     OW22349   0.404   8.053   0.605  0.2904  0.0925  0.1491
 4723SOL    HW122350   0.388   7.963   0.563 -1.5794 -0.0276  1.0902
 4723SOL    HW222351   0.383   8.125   0.539  2.8918 -0.1526 -0.9873
 4724SOL     OW22352   9.442   0.747   4.360  0.3403 -0.1382  0.9393
 4724SOL    HW122353   9.460   0.828   4.416  1.8990  0.1913  0.0045
 4724SOL    HW222354   9.343   0.731   4.354 -0.1508  3.1961 -0.9408
 4725SOL     OW22355   1.146   2.188   3.391  0.4640 -0.5187  0.0888
 4725SOL    HW122356   1.048   2.178   3.375  0.3759 -0.8054  0.7880
 4725SOL    HW222357   1.194   2.106   3.359  0.3637 -0.8046  0.6704
 4726SOL     OW22358   1.439   3.895   0.265  0.3225  0.5460  0.8078
 4726SOL    HW122359   1.385   3.979   0.257  0.6719  0.8308  1.3733
 4726SOL    HW222360   1.531   3.918   0.297  0.9360  0.1146 -0.6233
 4727SOL     OW22361   1.540   0.323   1.655 -0.0777  0.1475  0.7286
 4727SOL    HW122362   1.618   0.270   1.622  0.1068  1.3962 -0.8604
 4727SOL    HW222363   1.571   0.387   1.726  0.5501  1.3986 -0.6615
 4728SOL     OW22364   6.199   9.889   4.087 -0.4197 -0.3076 -0.2380
 4728SOL    HW122365   6.207   9.834   4.171  2.0898 -1.1522 -0.9660
 4728SOL    HW222366   6.256   9.971   4.095 -1.1296  0.2244 -0.6357
 4731SOL     OW22367   2.727   9.981   0.165  0.0764  0.0301  0.1003
 4731SOL    HW122368   2.663   9.915   0.204  1.0434 -1.8839 -1.4616
 4731SOL    HW222369   2.677  10.061   0.132 -1.1728 -0.1361  1.5327
 4732SOL     OW22370   0.002   1.188   1.847 -0.1699  0.4193 -0.2107
 4732SOL    HW122371   0.019   1.263   1.784  0.9280  0.6610  0.3625
 4732SOL    HW222372   0.078   1.123   1.843  0.0198  0.5511  1.0214
 4733SOL     OW22373   1.220   3.662   0.664  0.5438 -0.0986  0.8321
 4733SOL    HW122374   1.301   3.624   0.619 -0.4187 -1.5089  0.2355
 4733SOL    HW222375   1.190   3.743   0.615  1.3928  0.2362  0.8513
 4734SOL     OW22376   8.505   1.968   0.236  0.4413  0.1268  0.6097
 4734SOL    HW122377   8.466   1.877   0.223  0.0159  0.1701  1.5372
 4734SOL    HW222378   8.433   2.037   0.228  0.6458  0.3336  0.5306
 4735SOL     OW22379   3.309   7.634   2.333  0.1945 -0.0534  0.0701
 4735SOL    HW122380   3.283   7.718   2.380  0.0541  0.5763 -1.1113
 4735SOL    HW222381   3.226   7.586   2.302  0.3071  0.0066 -0.3306
 4736SOL     OW22382   1.510   3.140   2.913 -0.4961 -0.1525  0.2474
 4736SOL    HW122383   1.531   3.054   2.867 -1.5214 -0.4743  0.3645
 4736SOL    HW222384   1.592   3.197   2.916 -0.2399 -0.4191 -1.3491
 4737SOL     OW22385   8.043   1.143   3.097 -0.2232  0.2401  0.3041
 4737SOL    HW122386   8.019   1.048   3.077 -0.4043  0.4029 -0.2721
 4737SOL    HW222387   8.118   1.146   3.164  0.4970 -0.3330 -0.4670
 4738SOL     OW22388   3.319   6.225   1.198  0.2017  0.0874  0.0321
 4738SOL    HW122389   3.357   6.273   1.277 -0.0216  0.0006  0.1957
 4738SOL    HW222390   3.236   6.271   1.167 -1.4771 -1.6149  1.8046
 4739SOL     OW22391   6.534   1.192   1.011 -0.1823 -0.1700  0.1022
 4739SOL    HW122392   6.549   1.132   1.089  0.6132  0.9446  0.8199
 4739SOL    HW222393   6.566   1.147   0.927 -0.5416 -1.1489  0.4791
 4740SOL     OW22394   3.513   5.893   2.297 -0.2768 -0.0974  0.1452
 4740SOL    HW122395   3.482   5.919   2.206 -0.7930 -1.7912 -0.1816
 4740SOL    HW222396   3.488   5.798   2.315  0.1996  0.0823  1.8875
 4741SOL     OW22397   1.720   9.129   2.145  0.3827  0.4659  0.0142
 4741SOL    HW122398   1.799   9.144   2.086 -1.2463  1.8954 -1.8896
 4741SOL    HW222399   1.699   9.031   2.151 -0.2768  0.3919 -2.9844
 4743SOL     OW22400   8.182   9.289   2.203 -0.3734 -0.3144 -0.2136
 4743SOL    HW122401   8.121   9.211   2.186  1.1668 -1.2674 -1.5418
 4743SOL    HW222402   8.276   9.262   2.183  0.6009  0.8965  2.5969
 4744SOL     OW22403   0.912   6.244   0.527 -0.1534  0.6312  0.0637
 4744SOL    HW122404   0.953   6.272   0.614  1.8514 -0.4656 -0.4890
 4744SOL    HW222405   0.896   6.145   0.529  0.2860  0.5376 -0.9447
 4745SOL     OW22406   9.327   9.174   2.482 -0.2572  0.3760 -0.2508
 4745SOL    HW122407   9.260   9.148   2.552  1.5546 -2.4700  0.4890
 4745SOL    HW222408   9.409   9.209   2.527  0.2434  0.1872 -1.0229
 4746SOL     OW22409   8.402   1.748   4.475  0.2565 -0.0571  0.3828
 4746SOL    HW122410   8.333   1.818   4.493  0.0373 -0.6899  2.1179
 4746SOL    HW222411   8.463   1.779   4.402 -2.5126  0.0493 -1.9887
 4748SOL     OW22412   1.333   2.809   1.214 -0.1711  0.4574  0.0431
 4748SOL    HW122413   1.393   2.777   1.140 -0.8713 -1.0515  0.1018
 4748SOL    HW222414   1.336   2.743   1.289 -1.4742  0.6593  0.2761
 4749SOL     OW22415   5.200   3.332   3.630 -0.5428  0.2962 -0.7823
 4749SOL    HW122416   5.139   3.260   3.599 -1.3745  1.2476 -1.3933
 4749SOL    HW222417   5.263   3.357   3.557  0.9947 -1.0790  0.0274
 4751SOL     OW22418   2.307   3.074   1.740  0.4103  0.3640  0.7572
 4751SOL    HW122419   2.397   3.096   1.703 -0.1030  0.8400 -0.2200
 4751SOL    HW222420   2.317   3.010   1.816  1.4890 -0.4991 -0.0929
 4752SOL     OW22421   4.740   1.663   0.897  0.1645 -1.0211 -0.0208
 4752SOL    HW122422   4.719   1.691   0.990 -1.9145  0.6725 -0.9595
 4752SOL    HW222423   4.683   1.585   0.871 -0.5553 -0.3465 -0.4782
 4754SOL     OW22424   4.965   2.366   3.518  0.1659  0.3298 -0.0356
 4754SOL    HW122425   4.999   2.447   3.471  0.3326  0.3900  0.1887
 4754SOL    HW222426   4.940   2.390   3.612  0.1255  0.1417  0.0020
 4755SOL     OW22427   5.618   8.892   1.476 -0.2593  0.3487  0.0275
 4755SOL    HW122428   5.552   8.952   1.520  1.0873  0.2814  2.2227
 4755SOL    HW222429   5.597   8.797   1.498 -1.4888  0.0696 -2.1961
 4756SOL     OW22430   3.192   8.084   2.596  0.2211  0.3202  0.2044
 4756SOL    HW122431   3.168   8.113   2.503 -1.5875  0.4033  0.6649
 4756SOL    HW222432   3.108   8.059   2.645  1.3757 -2.1969  1.0022
 4757SOL     OW22433   4.932   8.238   4.906 -0.7947 -0.4457 -0.0821
 4757SOL    HW122434   5.019   8.209   4.946 -0.0235  0.2155 -1.2525
 4757SOL    HW222435   4.926   8.338   4.909 -2.6241 -0.5756  2.2630
 4758SOL     OW22436   3.323   7.023   1.054 -0.6017 -0.0673  0.5164
 4758SOL    HW122437   3.400   6.976   1.096  0.8440  0.6209 -1.3166
 4758SOL    HW222438   3.237   6.979   1.083  0.4876 -1.1778  2.1233
 4759SOL     OW22439   8.599   5.952   4.028 -0.5770  0.3590 -0.2232
 4759SOL    HW122440   8.573   5.962   3.931  0.1989  0.0803 -0.4604
 4759SOL    HW222441   8.611   6.042   4.069  1.8272  0.4689 -1.1267
 4760SOL     OW22442   9.074   0.361   2.042  0.3635  0.1554  0.1696
 4760SOL    HW122443   8.984   0.404   2.031 -0.2683 -1.4945 -1.3223
 4760SOL    HW222444   9.078   0.315   2.131 -0.0920  0.6448  0.4468
 4761SOL     OW22445   4.250   4.505   1.607 -0.0280  0.0848 -0.1353
 4761SOL    HW122446   4.252   4.508   1.707 -0.2553 -0.6914 -0.1053
 4761SOL    HW222447   4.177   4.566   1.574  0.0423  0.3378  0.1677
 4762SOL     OW22448   2.628   3.052   2.870 -0.1911 -0.3654 -0.3080
 4762SOL    HW122449   2.718   3.095   2.877  0.8071 -2.7296  2.5888
 4762SOL    HW222450   2.585   3.050   2.960 -1.9419 -1.7797 -1.1405
 4763SOL     OW22451   0.967   4.806   1.688  0.0186  0.5996  0.0774
 4763SOL    HW122452   1.049   4.859   1.712 -0.7847  2.1267 -0.4856
 4763SOL    HW222453   0.892   4.869   1.668 -0.9934 -0.7736 -0.4750
 4764SOL     OW22454   9.843   2.237   2.616 -0.0566  0.1081 -0.1908
 4764SOL    HW122455   9.844   2.240   2.516  0.4326  0.6279 -0.1744
 4764SOL    HW222456   9.921   2.182   2.648 -0.9262 -1.1165 -0.1199
 4765SOL     OW22457   2.135   5.575   5.123 -0.4394 -0.2496  0.1507
 4765SOL    HW122458   2.055   5.634   5.121 -1.5219 -1.6861  0.1090
 4765SOL    HW222459   2.151   5.544   5.217 -0.1826 -0.3212  0.0863
 4766SOL     OW22460   5.657   7.811   3.773 -0.3144 -0.4166  0.1548
 4766SOL    HW122461   5.732   7.751   3.748 -0.2801  0.7808 -2.7700
 4766SOL    HW222462   5.693   7.895   3.813 -0.1550 -0.3438 -0.1454
 4767SOL     OW22463   5.303   1.107   2.439 -0.4549 -0.4089 -0.3669
 4767SOL    HW122464   5.370   1.121   2.511 -0.0503 -2.1943 -0.3987
 4767SOL    HW222465   5.232   1.043   2.470 -0.5752 -0.7715 -1.3569
 4768SOL     OW22466   6.964   2.331   3.818  0.6358 -0.2033  0.0934
 4768SOL    HW122467   6.931   2.345   3.912 -0.1592 -0.9759 -0.0580
 4768SOL    HW222468   7.025   2.252   3.816  0.9180  0.0179  0.0194
 4769SOL     OW22469   2.342   3.527   2.224  0.0473 -0.0982 -0.4521
 4769SOL    HW122470   2.321   3.542   2.127 -1.8855  0.4980  0.0344
 4769SOL    HW222471   2.266   3.478   2.267  2.3264 -3.3231  0.0591
 4770SOL     OW22472   6.886   1.946   4.383  1.0273 -0.2280  0.5425
 4770SOL    HW122473   6.838   1.885   4.445  1.2975 -1.3657 -0.3532
 4770SOL    HW222474   6.868   1.919   4.289  2.7079 -0.1410  0.1791
 4771SOL     OW22475   0.420   9.637   3.325 -0.4107  0.6873  0.3028
 4771SOL    HW122476   0.510   9.674   3.350  0.5195 -0.9779 -0.5488
 4771SOL    HW222477   0.426   9.591   3.237 -2.3973  1.6232 -0.3456
 4772SOL     OW22478   7.568   4.147   1.742  0.4951 -0.3683  0.0042
 4772SOL    HW122479   7.512   4.146   1.825  0.9615 -1.1159  0.3086
 4772SOL    HW222480   7.625   4.066   1.739  0.2621 -0.5009 -1.2063
 4775SOL     OW22481   6.742   7.488   4.912  0.2575  0.2718 -0.4788
 4775SOL    HW122482   6.808   7.415   4.934 -0.5046 -0.1275  0.5586
 4775SOL    HW222483   6.771   7.536   4.830  0.5024 -1.5578 -1.4825
 4777SOL     OW22484   0.808   0.074   4.958  0.2643 -0.4808 -0.2154
 4777SOL    HW122485   0.753   0.141   4.906  1.2032 -0.5213 -1.2772
 4777SOL    HW222486   0.903   0.105   4.961  0.6075 -1.5233 -0.2943
 4778SOL     OW22487   0.032   3.189   4.113  0.3995 -0.0909 -0.0930
 4778SOL    HW122488   0.056   3.283   4.137  1.8700 -0.3683 -0.4426
 4778SOL    HW222489  -0.056   3.188   4.065 -0.1745  0.9755  0.9195
 4779SOL     OW22490   8.544   6.855   1.470  0.1853 -0.0026  0.2231
 4779SOL    HW122491   8.483   6.777   1.486 -0.1908  0.3458  0.4704
 4779SOL    HW222492   8.493   6.940   1.482 -0.0072  0.2839 -2.3292
 4780SOL     OW22493   1.666   3.275   2.106  0.1114  0.0915  0.2993
 4780SOL    HW122494   1.763   3.296   2.106  0.1063  0.1770 -1.3401
 4780SOL    HW222495   1.650   3.191   2.158  1.1052 -0.1194  0.2615
 4781SOL     OW22496   6.429   2.550   3.738  0.4782  0.3794 -0.7693
 4781SOL    HW122497   6.470   2.515   3.822 -1.4594 -1.5649 -0.5953
 4781SOL    HW222498   6.486   2.525   3.660  0.4862 -0.8567 -0.3720
 4782SOL     OW22499   8.168   1.577   1.778  0.6181  0.0076  0.1972
 4782SOL    HW122500   8.207   1.665   1.807  2.1986  0.1939 -2.3353
 4782SOL    HW222501   8.106   1.544   1.849  2.5301  1.5218  2.6936
 4783SOL     OW22502   0.473   5.253   1.574  0.3954  0.1405  0.3006
 4783SOL    HW122503   0.545   5.191   1.540 -0.8743 -0.7540 -0.7921
 4783SOL    HW222504   0.447   5.225   1.667  0.0029 -0.8275 -0.0914
 4785SOL     OW22505   1.334   5.710   0.500  0.9113 -0.0792  0.2099
 4785SOL    HW122506   1.356   5.613   0.493  0.6145 -0.2996  2.1156
 4785SOL    HW222507   1.417   5.762   0.523  1.0807  0.1408 -0.8583
 4786SOL     OW22508   3.882   1.805   4.796 -0.2491 -0.7125 -0.0166
 4786SOL    HW122509   3.910   1.896   4.829 -0.9859 -1.1978  2.0338
 4786SOL    HW222510   3.923   1.788   4.707 -1.2175  2.2127 -1.0791
 4787SOL     OW22511   3.477   7.801   3.138 -0.0008  0.0439  0.0076
 4787SOL    HW122512   3.496   7.827   3.043  0.8234 -2.0651 -0.4473
 4787SOL    HW222513   3.410   7.727   3.140  0.3807 -0.2941  1.0281
 4789SOL     OW22514   0.682   0.901   1.234  0.3073  0.3963 -0.1604
 4789SOL    HW122515   0.594   0.870   1.270 -0.0296 -1.7253 -2.6595
 4789SOL    HW222516   0.694   0.866   1.141  2.9697  2.2390 -0.5613
 4791SOL     OW22517   0.516   7.053   3.199 -0.5124 -0.2350  0.3371
 4791SOL    HW122518   0.537   7.047   3.101  0.0124  2.6539  0.2274
 4791SOL    HW222519   0.600   7.063   3.251 -0.8224 -1.3432  1.0748
 4795SOL     OW22520   4.046   1.069   3.800  0.4336 -0.0571  0.6137
 4795SOL    HW122521   4.054   1.088   3.898  0.2964  0.2538  0.5662
 4795SOL    HW222522   4.136   1.079   3.757  0.4569 -0.0018  0.6759
 4796SOL     OW22523   7.619   0.209   5.313 -0.2670  0.3207 -0.5369
 4796SOL    HW122524   7.570   0.178   5.394  0.2854  1.1399  0.1279
 4796SOL    HW222525   7.710   0.167   5.311 -0.2515  0.3625 -0.6766
 4797SOL     OW22526   5.130   5.262   1.101 -0.1646  0.1956  0.0432
 4797SOL    HW122527   5.145   5.354   1.065  0.9411 -0.0921 -0.2427
 4797SOL    HW222528   5.118   5.267   1.200 -1.4320  0.7874 -0.1268
 4799SOL     OW22529   6.087   1.142   0.527  0.3071  0.0371 -0.4755
 4799SOL    HW122530   6.146   1.183   0.457 -0.2659  1.3100 -0.2222
 4799SOL    HW222531   6.033   1.213   0.572  0.8106 -0.7353  1.4154
 4801SOL     OW22532   8.692   6.563   3.760  0.1944 -0.2586  0.2046
 4801SOL    HW122533   8.700   6.492   3.689 -0.8500  0.2773 -0.4492
 4801SOL    HW222534   8.764   6.549   3.828  1.1256 -0.8636 -0.8821
 4803SOL     OW22535   1.890   9.958   3.249  0.0972  0.3520  0.1969
 4803SOL    HW122536   1.816  10.019   3.218 -0.6984 -0.6013  0.2012
 4803SOL    HW222537   1.960   9.952   3.177  0.1541  1.2247  0.1742
 4804SOL     OW22538   5.439   2.150   3.920  0.6004 -0.1676  0.0514
 4804SOL    HW122539   5.505   2.171   3.848  0.0635  0.0693 -0.3744
 4804SOL    HW222540   5.486   2.148   4.008  1.0455  0.7287 -0.1581
 4805SOL     OW22541   3.763   4.294   4.552 -0.4278  0.6224  0.0303
 4805SOL    HW122542   3.792   4.199   4.566 -0.6181  0.6194  0.4160
 4805SOL    HW222543   3.678   4.310   4.603 -0.6583  0.8616 -0.4276
 4806SOL     OW22544   8.441   5.890   2.707  0.0604  0.3194  0.0447
 4806SOL    HW122545   8.507   5.928   2.643  1.8908 -1.5933  0.7253
 4806SOL    HW222546   8.409   5.802   2.673 -1.9837  1.1256 -0.1602
 4807SOL     OW22547   3.536   5.817   3.229 -0.5775  0.5141 -0.0280
 4807SOL    HW122548   3.629   5.787   3.251 -0.0400  0.5929 -2.0883
 4807SOL    HW222549   3.540   5.886   3.157 -2.2896 -0.0187 -0.6530
 4808SOL     OW22550   8.211   1.015   1.433  0.2512  0.3783  0.0595
 4808SOL    HW122551   8.232   0.937   1.493 -1.8042  0.0874  0.4458
 4808SOL    HW222552   8.268   1.011   1.351  0.8415 -1.0044  0.5269
 4809SOL     OW22553   2.057   8.674   3.056  0.0964 -0.1569 -0.1468
 4809SOL    HW122554   2.113   8.624   2.989  2.3801  0.8645  0.9373
 4809SOL    HW222555   2.001   8.741   3.009  0.2778 -0.7256 -1.2081
 4810SOL     OW22556   4.864   7.647   1.889 -0.3340  0.2172 -0.5310
 4810SOL    HW122557   4.769   7.650   1.857 -0.5189 -0.0868 -0.0213
 4810SOL    HW222558   4.910   7.732   1.865 -0.8784  0.5662 -0.3525
 4811SOL     OW22559   1.866   9.794   1.890 -0.2582 -0.3008  0.2118
 4811SOL    HW122560   1.802   9.823   1.961  0.1768  0.8574  0.1438
 4811SOL    HW222561   1.814   9.775   1.806 -0.4114  2.0100 -0.2631
 4812SOL     OW22562   1.865   4.011   4.650 -0.5149  0.0514  0.4152
 4812SOL    HW122563   1.952   3.987   4.694 -0.2952 -0.7361 -0.4161
 4812SOL    HW222564   1.819   4.082   4.703  0.0202 -0.4553  1.5796
 4813SOL     OW22565   9.291   2.336   3.728  0.1753 -0.2633  0.2091
 4813SOL    HW122566   9.245   2.273   3.666  2.4335 -0.9476 -0.8214
 4813SOL    HW222567   9.312   2.421   3.680 -1.6579  0.7980  1.2165
 4815SOL     OW22568   8.029   2.591   1.407 -0.1498 -0.4325 -0.1876
 4815SOL    HW122569   7.967   2.587   1.485 -0.3019 -0.3562 -0.3060
 4815SOL    HW222570   8.120   2.562   1.436 -0.0474  0.2462  0.1722
 4816SOL     OW22571   8.759   2.101   4.171  0.1093  0.0298  0.1484
 4816SOL    HW122572   8.698   2.176   4.198 -0.2334 -0.6997  1.4624
 4816SOL    HW222573   8.844   2.139   4.135 -0.2778  1.0589  0.3005
 4818SOL     OW22574   6.095   8.525   3.401 -0.0334 -0.2527 -0.1903
 4818SOL    HW122575   6.092   8.563   3.493 -0.9666 -0.3634 -0.1732
 4818SOL    HW222576   6.122   8.429   3.406  4.1140  0.8116 -0.3682
 4819SOL     OW22577   5.229   2.717   2.683 -0.4347 -0.1150  0.0528
 4819SOL    HW122578   5.185   2.764   2.606 -0.6641 -0.4669 -0.0308
 4819SOL    HW222579   5.218   2.619   2.672  1.9355 -0.3183 -0.9548
 4820SOL     OW22580   2.507   5.132   3.512 -0.4199  0.1202 -0.4305
 4820SOL    HW122581   2.594   5.117   3.465 -1.0584  0.4770 -1.7373
 4820SOL    HW222582   2.477   5.226   3.498 -0.8057  0.1275  0.3912
 4821SOL     OW22583   9.501   1.574   0.132 -0.0205  1.0345  0.1596
 4821SOL    HW122584   9.471   1.607   0.221  0.4765 -1.5417  1.3291
 4821SOL    HW222585   9.586   1.620   0.106  0.3563  1.1071  1.4894
 4822SOL     OW22586   7.940   1.015   2.734  0.1392 -0.1838 -0.2793
 4822SOL    HW122587   7.929   1.112   2.713 -2.8805 -0.8479 -2.0842
 4822SOL    HW222588   7.987   0.969   2.658 -1.4419 -0.7057 -0.9683
 4824SOL     OW22589   1.328   9.325   3.739 -0.5028  0.0689 -0.0555
 4824SOL    HW122590   1.371   9.337   3.650 -2.4404  0.1977 -1.0199
 4824SOL    HW222591   1.365   9.244   3.784 -0.4734 -0.8026 -1.6042
 4825SOL     OW22592   9.132   3.925   0.328  0.1525  0.1423  0.3275
 4825SOL    HW122593   9.212   3.964   0.282 -1.2410  1.4289 -1.0344
 4825SOL    HW222594   9.161   3.846   0.382  2.0861 -0.4170 -1.4487
 4826SOL     OW22595   4.073   2.881   4.809 -0.0388 -1.0580  0.2416
 4826SOL    HW122596   4.155   2.829   4.783 -0.7864 -0.9793 -2.3907
 4826SOL    HW222597   3.992   2.836   4.773 -1.0984 -0.5085  1.8647
 4827SOL     OW22598   0.680   4.455   2.303  0.4723 -0.3092 -0.2991
 4827SOL    HW122599   0.742   4.413   2.370 -1.1291 -1.5625  0.4452
 4827SOL    HW222600   0.635   4.383   2.250  0.4823  0.6259 -1.5878
 4828SOL     OW22601   5.369   9.472   4.621 -0.3534  0.3591 -0.0601
 4828SOL    HW122602   5.435   9.499   4.551 -0.8160 -0.8058 -0.9594
 4828SOL    HW222603   5.292   9.426   4.578 -1.6266  1.4362  1.0120
 4829SOL     OW22604   1.358   2.733   3.884 -0.0353 -0.4046 -0.4875
 4829SOL    HW122605   1.447   2.779   3.888  0.0921 -0.7457  0.6062
 4829SOL    HW222606   1.292   2.793   3.838  0.4953  0.2855 -0.3572
 4830SOL     OW22607   5.255   2.383   2.081  0.0519 -0.2334  0.1235
 4830SOL    HW122608   5.352   2.403   2.096  0.0389  0.4754 -0.7499
 4830SOL    HW222609   5.246   2.297   2.031  0.2868  0.4839 -1.1736
 4832SOL     OW22610   3.238   3.980   3.276 -0.4124 -0.0357  0.9719
 4832SOL    HW122611   3.297   3.972   3.196 -0.6205  0.5976  0.7508
 4832SOL    HW222612   3.219   3.889   3.313 -0.0432 -0.3053  0.5011
 4833SOL     OW22613   8.409   6.900   0.232 -0.5156 -0.1174 -0.0827
 4833SOL    HW122614   8.376   6.854   0.315  0.3007 -0.9210 -0.1968
 4833SOL    HW222615   8.370   6.856   0.151 -0.9624  0.3879 -0.1480
 4834SOL     OW22616   8.655   7.959   5.320  0.4191 -0.1269  0.0396
 4834SOL    HW122617   8.657   8.059   5.319  0.5664 -0.1385 -2.0959
 4834SOL    HW222618   8.738   7.923   5.278  1.2598 -1.1978  2.5111
 4835SOL     OW22619   9.498   6.851   2.860 -0.5385 -0.3065 -0.0683
 4835SOL    HW122620   9.481   6.824   2.955 -1.5908 -0.3823 -0.2721
 4835SOL    HW222621   9.552   6.780   2.815 -2.7833 -1.8465 -0.4263
 4837SOL     OW22622   6.699   0.509   4.846 -0.3500 -0.3736  0.0481
 4837SOL    HW122623   6.723   0.512   4.943 -0.8668  1.0996  0.1409
 4837SOL    HW222624   6.603   0.483   4.836 -0.3123 -0.4691 -0.0707
 4838SOL     OW22625   0.552   9.652   4.386  0.2077  0.1553  0.4906
 4838SOL    HW122626   0.564   9.700   4.299 -1.5054  0.9547  0.6722
 4838SOL    HW222627   0.614   9.691   4.454 -1.3522  2.3213  0.7015
 4839SOL     OW22628   9.732   3.363   4.419  0.0101 -0.0434  0.2643
 4839SOL    HW122629   9.679   3.332   4.497  0.8391 -0.3545  0.7128
 4839SOL    HW222630   9.830   3.352   4.438  0.4526  4.5065  1.1666
 4840SOL     OW22631   7.663   9.190   4.984 -0.5426  0.2997  0.2267
 4840SOL    HW122632   7.618   9.123   5.042 -0.2263  0.1935  0.3516
 4840SOL    HW222633   7.762   9.179   4.991 -0.3949  2.4971  2.2889
 4841SOL     OW22634   8.367   9.798   0.442 -0.2621 -0.4556  0.1075
 4841SOL    HW122635   8.315   9.870   0.396  0.4705 -0.1847 -0.3010
 4841SOL    HW222636   8.313   9.762   0.519 -1.5706 -1.0433 -1.0539
 4842SOL     OW22637   1.557   6.165   4.531  0.5793 -0.3385 -0.4494
 4842SOL    HW122638   1.477   6.166   4.471 -0.3744 -1.9453  0.7481
 4842SOL    HW222639   1.594   6.257   4.538  0.2259  0.0251 -2.8365
 4843SOL     OW22640   8.027   8.793   5.268  0.4914 -0.0833 -0.4144
 4843SOL    HW122641   8.025   8.704   5.314 -0.9207 -0.6014 -1.4509
 4843SOL    HW222642   8.054   8.781   5.173  0.1363  0.5739 -0.5996
 4844SOL     OW22643   7.598  -0.002   0.315  0.1217  0.1464  0.6847
 4844SOL    HW122644   7.508   0.043   0.309 -0.4501 -1.0861 -0.1089
 4844SOL    HW222645   7.664   0.048   0.258 -0.0546  1.0589  1.2760
 4845SOL     OW22646   5.703   2.023   2.123 -0.4525  0.2493  0.1812
 4845SOL    HW122647   5.684   1.984   2.214 -1.5805  2.0153  0.7174
 4845SOL    HW222648   5.712   2.122   2.130 -0.8960  0.4444 -1.7034
 4846SOL     OW22649   6.614   0.704   1.755 -0.1224 -0.2778 -0.0501
 4846SOL    HW122650   6.528   0.753   1.771  0.0086 -0.5513  1.6071
 4846SOL    HW222651   6.602   0.607   1.778  0.0927 -0.7196 -1.7045
 4849SOL     OW22652   9.655   5.410   0.769 -0.1179  0.6937 -0.0666
 4849SOL    HW122653   9.592   5.427   0.846  0.8982  0.4826  0.8269
 4849SOL    HW222654   9.603   5.377   0.691 -1.1210  0.4587  0.6857
 4850SOL     OW22655   2.662   8.313   0.527 -0.0091 -0.5081  0.2693
 4850SOL    HW122656   2.697   8.399   0.563  1.0067 -1.4700  1.6156
 4850SOL    HW222657   2.624   8.258   0.601  2.2675 -2.5901 -0.0247
 4851SOL     OW22658   0.452   4.457   2.020  0.0933  0.4925 -0.3034
 4851SOL    HW122659   0.393   4.537   2.032  1.0579  0.9615  1.5809
 4851SOL    HW222660   0.396   4.376   2.006 -0.9446  1.2151 -0.3961
 4852SOL     OW22661   1.731   1.538   1.266 -0.4088 -0.3902  0.6427
 4852SOL    HW122662   1.828   1.545   1.288 -0.6922 -0.6290  2.0008
 4852SOL    HW222663   1.707   1.443   1.249 -0.5866 -0.4380  1.1608
 4855SOL     OW22664   9.810   5.935   5.197 -1.0810 -0.4837  0.0227
 4855SOL    HW122665   9.862   5.863   5.242  1.9367  1.5780 -0.0026
 4855SOL    HW222666   9.714   5.908   5.190 -0.3026 -3.8027  1.3568
 4856SOL     OW22667   1.899   2.092   1.978 -0.0715 -0.4832 -0.1879
 4856SOL    HW122668   1.941   2.011   1.936 -0.7033 -0.7197 -0.3596
 4856SOL    HW222669   1.800   2.090   1.964 -0.4369 -1.1184  2.2166
 4857SOL     OW22670   4.084   3.725   3.273  0.0880 -0.1832  0.9546
 4857SOL    HW122671   4.001   3.676   3.301 -0.6073 -0.1628 -1.0177
 4857SOL    HW222672   4.069   3.769   3.184  2.1180  0.0929  0.7163
 4858SOL     OW22673   3.093   0.281   0.056 -0.0665  0.2672  0.0619
 4858SOL    HW122674   3.141   0.292  -0.031 -0.3843  0.2921 -0.1132
 4858SOL    HW222675   3.071   0.371   0.094 -2.2150  0.2839 -1.1181
 4860SOL     OW22676   5.549   2.553   3.891  0.3689  0.3736 -0.8855
 4860SOL    HW122677   5.612   2.596   3.956 -0.6005  0.1910  0.1938
 4860SOL    HW222678   5.601   2.500   3.825  1.4168  1.0995 -0.6600
 4862SOL     OW22679   3.553   4.813   4.997  0.5380  0.0953  0.2643
 4862SOL    HW122680   3.530   4.890   5.057 -0.5457  1.3519 -1.6840
 4862SOL    HW222681   3.496   4.735   5.020 -1.4555  1.2662 -0.5329
 4863SOL     OW22682   4.904   0.483   2.988 -0.0746  0.2528 -0.2936
 4863SOL    HW122683   5.003   0.484   2.979  0.0449  0.1371  1.0046
 4863SOL    HW222684   4.870   0.390   2.971 -0.0021  0.3729 -1.1120
 4864SOL     OW22685   4.707   2.033   1.960 -0.8873 -0.2672 -0.3221
 4864SOL    HW122686   4.790   2.075   1.997 -1.2518  1.7927 -1.7052
 4864SOL    HW222687   4.644   2.011   2.034  0.6310 -1.2828  0.6841
 4865SOL     OW22688   5.069   0.524   0.854 -0.5892  0.0434 -0.2932
 4865SOL    HW122689   5.051   0.615   0.892  3.3552  0.4155  0.9810
 4865SOL    HW222690   5.115   0.468   0.923  0.2254 -1.7386 -2.2180
 4866SOL     OW22691   9.193   4.396   0.893 -0.4919 -0.4784  0.7435
 4866SOL    HW122692   9.220   4.358   0.981  1.1713 -0.9391  0.0489
 4866SOL    HW222693   9.132   4.332   0.846 -0.6376 -0.6400  1.1556
 4867SOL     OW22694   1.459   4.532   4.246 -0.0664 -0.1602  0.6219
 4867SOL    HW122695   1.512   4.593   4.188 -2.0543  0.2351 -0.8407
 4867SOL    HW222696   1.520   4.482   4.307  1.7326  2.0829  0.7099
 4868SOL     OW22697   3.554   1.772   5.064 -0.2647 -0.0665 -0.4039
 4868SOL    HW122698   3.578   1.791   5.159  0.7301 -0.5635 -0.5568
 4868SOL    HW222699   3.587   1.681   5.038 -2.1994 -0.7421 -0.6487
 4869SOL     OW22700   6.964   8.758   2.956 -0.6693  0.1500  0.0231
 4869SOL    HW122701   6.943   8.661   2.967  0.3675 -0.1822 -0.8646
 4869SOL    HW222702   7.061   8.773   2.976 -0.5022  0.7696 -1.2486
 4871SOL     OW22703   5.556   1.226   2.244  0.3346 -0.6092  0.0292
 4871SOL    HW122704   5.554   1.197   2.340  1.7033  0.5515  0.4238
 4871SOL    HW222705   5.568   1.145   2.186 -2.5212 -1.5464  0.6869
 4872SOL     OW22706   0.848   8.635   0.242 -0.5890 -0.2702 -0.2501
 4872SOL    HW122707   0.830   8.566   0.171  1.5785 -1.8253  0.6556
 4872SOL    HW222708   0.764   8.651   0.293 -1.2089 -2.0598 -0.6535
 4873SOL     OW22709   2.137   7.613   2.469  0.1175 -0.5485  0.5427
 4873SOL    HW122710   2.221   7.661   2.492  0.9608 -1.8756  0.2975
 4873SOL    HW222711   2.143   7.518   2.501 -1.5398 -0.4801  1.0908
 4874SOL     OW22712   2.310   2.403   4.201  0.3392 -0.0858  0.7132
 4874SOL    HW122713   2.349   2.492   4.226 -1.4636  1.2096 -0.9656
 4874SOL    HW222714   2.221   2.392   4.246 -0.7769  0.2505 -1.3518
 4875SOL     OW22715   9.085   3.024   5.000  0.0755  0.2457 -0.0764
 4875SOL    HW122716   9.180   3.055   4.989  0.1484 -0.0636 -0.3092
 4875SOL    HW222717   9.031   3.098   5.041 -0.0655  1.2006 -1.9265
 4876SOL     OW22718   1.133   2.273   4.947  0.2949 -0.3780  0.0121
 4876SOL    HW122719   1.071   2.237   4.878 -0.4023 -2.5226  1.7140
 4876SOL    HW222720   1.218   2.221   4.947  1.0363  0.8015 -0.4503
 4877SOL     OW22721   8.256   1.126   3.271 -0.1194  0.0146 -0.0626
 4877SOL    HW122722   8.328   1.160   3.211  0.5528 -0.1748  0.6378
 4877SOL    HW222723   8.267   1.166   3.362 -2.3294  1.9115 -0.5792
 4878SOL     OW22724   1.607   0.253   3.519  0.9033 -0.5026 -0.0943
 4878SOL    HW122725   1.564   0.289   3.436  1.1773  0.7198  0.2729
 4878SOL    HW222726   1.601   0.154   3.520  0.9280 -0.5276 -1.5904
 4879SOL     OW22727   3.222   1.643   3.642 -0.1303  0.4876 -0.1963
 4879SOL    HW122728   3.223   1.682   3.549  0.4156  1.2405  0.1187
 4879SOL    HW222729   3.138   1.671   3.688 -0.0198  0.7953 -0.1802
 4880SOL     OW22730   8.600   3.941   2.035 -0.3219 -0.3065  0.2534
 4880SOL    HW122731   8.695   3.964   2.057 -0.6844 -0.7830  2.4863
 4880SOL    HW222732   8.599   3.870   1.965  0.9168  1.0725 -1.2093
 4881SOL     OW22733   7.386   2.789   2.754 -0.1093 -0.3339 -0.4187
 4881SOL    HW122734   7.415   2.727   2.680  1.2904  0.0581 -0.2171
 4881SOL    HW222735   7.462   2.849   2.778 -0.6907 -0.1797  1.0707
 4882SOL     OW22736   7.170   9.174   2.538 -0.5988 -0.1506 -0.3725
 4882SOL    HW122737   7.198   9.101   2.475 -1.0648 -1.8926  1.3585
 4882SOL    HW222738   7.250   9.210   2.585 -0.1800  1.5307 -2.3035
 4883SOL     OW22739   5.229   7.118   1.842  0.1156  0.0736 -0.3098
 4883SOL    HW122740   5.131   7.137   1.851 -0.1381 -0.1953 -2.3727
 4883SOL    HW222741   5.251   7.034   1.891 -1.1626 -1.1679 -1.8001
 4884SOL     OW22742   7.723   3.625   0.172  0.3080 -0.7557 -0.5967
 4884SOL    HW122743   7.739   3.600   0.077 -1.8864 -1.6734 -0.7341
 4884SOL    HW222744   7.735   3.724   0.183 -0.9160 -0.4265 -2.1398
 4886SOL     OW22745   2.756   7.037   4.241  0.0891  0.3092 -0.2636
 4886SOL    HW122746   2.692   6.961   4.250  1.1560 -0.7675 -1.5735
 4886SOL    HW222747   2.791   7.041   4.147  3.6426 -0.5155  0.9487
 4888SOL     OW22748   0.780   9.791   0.018 -0.2650 -0.0929  0.0014
 4888SOL    HW122749   0.689   9.751   0.020 -0.1141 -0.5982 -2.1434
 4888SOL    HW222750   0.773   9.890   0.026 -0.9714 -0.1775  0.4130
 4889SOL     OW22751   3.323   5.832   3.476  0.6232  0.2092  0.6467
 4889SOL    HW122752   3.287   5.741   3.497  1.6287  0.3146  2.9954
 4889SOL    HW222753   3.388   5.826   3.400 -2.4423 -0.3328 -2.0556
 4891SOL     OW22754   8.911   6.608   2.188 -0.2124 -0.0783 -0.6685
 4891SOL    HW122755   8.868   6.565   2.108 -1.3679  3.0211 -1.8082
 4891SOL    HW222756   8.839   6.637   2.252  0.2535  2.9235 -1.4253
 4892SOL     OW22757   2.161   3.771   3.721  0.3266 -0.4818  0.6032
 4892SOL    HW122758   2.256   3.792   3.743  0.2146 -0.2041  0.8123
 4892SOL    HW222759   2.145   3.788   3.624 -0.4275  2.8318  1.2554
 4893SOL     OW22760   2.622   8.914   4.859 -0.8662  0.8596 -0.3776
 4893SOL    HW122761   2.690   8.864   4.912 -1.5191 -0.1916 -0.5108
 4893SOL    HW222762   2.599   8.999   4.906 -1.5020 -0.1027  1.0967
 4895SOL     OW22763   2.073   2.012   3.415 -0.0792 -0.1706 -0.5505
 4895SOL    HW122764   2.106   2.100   3.383 -0.7091  0.0722 -0.5333
 4895SOL    HW222765   2.145   1.966   3.467 -0.2293  0.9780  0.6981
 4896SOL     OW22766   1.793   6.202   3.307 -0.6920  0.0220  0.6580
 4896SOL    HW122767   1.710   6.236   3.263 -1.0611 -2.0209 -0.2581
 4896SOL    HW222768   1.772   6.169   3.398 -0.8611 -0.3771  0.4736
 4898SOL     OW22769   7.438   6.888   5.210  0.1797  0.4573 -0.1710
 4898SOL    HW122770   7.516   6.868   5.151 -0.5972  0.2312 -1.1283
 4898SOL    HW222771   7.423   6.811   5.273 -0.8186 -0.6130 -1.6870
 4899SOL     OW22772   0.765   4.779   4.191  0.0857  0.2478 -0.8518
 4899SOL    HW122773   0.799   4.860   4.238  0.7605  0.1043 -1.0970
 4899SOL    HW222774   0.824   4.757   4.114  0.4649 -1.0343 -0.2132
 4900SOL     OW22775   2.760   3.632   0.621 -0.0524 -0.3100 -0.0315
 4900SOL    HW122776   2.853   3.661   0.645 -0.3692 -0.7833  1.8131
 4900SOL    HW222777   2.723   3.695   0.552  1.2417  0.5084 -0.0082
 4902SOL     OW22778   0.571   7.044   2.928 -0.1071 -0.2158  0.1040
 4902SOL    HW122779   0.568   6.945   2.917  1.4395 -0.2104 -0.5218
 4902SOL    HW222780   0.636   7.083   2.862 -0.6415  1.2028  0.3928
 4903SOL     OW22781   1.950   4.753   1.058 -0.7428  0.0172  0.1187
 4903SOL    HW122782   1.880   4.734   0.988 -2.1704 -1.2019  1.8329
 4903SOL    HW222783   1.963   4.672   1.115  0.6574  0.8901  1.0733
 4904SOL     OW22784   4.253   0.059   0.049 -0.6737  0.1255  0.1443
 4904SOL    HW122785   4.262   0.135  -0.015  0.1019 -0.7355 -0.8015
 4904SOL    HW222786   4.343   0.036   0.086 -1.2400  1.1817  2.2403
 4905SOL     OW22787   5.910   8.310   3.720  0.0981 -0.5268  0.1516
 4905SOL    HW122788   5.974   8.386   3.713  0.9214 -1.1860  0.4240
 4905SOL    HW222789   5.847   8.311   3.643  0.1579  0.3789  0.1140
 4907SOL     OW22790   0.857   8.148   5.246 -0.4885  0.3847 -0.4231
 4907SOL    HW122791   0.794   8.219   5.215 -0.4865 -0.1726 -1.7560
 4907SOL    HW222792   0.845   8.066   5.190 -0.3637 -0.6063  0.9785
 4908SOL     OW22793   1.363   7.412   4.211 -0.3825 -0.0196 -0.0899
 4908SOL    HW122794   1.346   7.326   4.163  1.5588 -0.1331 -0.5934
 4908SOL    HW222795   1.312   7.485   4.166 -0.2631 -0.5118 -1.0430
 4909SOL     OW22796   3.555   8.332   3.604 -0.4394  0.7465 -0.1213
 4909SOL    HW122797   3.493   8.318   3.681 -1.8516 -1.1083 -1.5666
 4909SOL    HW222798   3.506   8.376   3.529  0.3000  0.3471 -0.8458
 4910SOL     OW22799   3.076   9.953   3.598  0.3102  0.0178  0.0294
 4910SOL    HW122800   3.002  10.018   3.577  0.5401  0.4085  0.4183
 4910SOL    HW222801   3.077   9.934   3.696  0.3506 -0.4446 -0.0608
 4912SOL     OW22802   4.632   3.808   4.703  0.4074 -0.2758  0.2347
 4912SOL    HW122803   4.703   3.739   4.685 -0.9226 -1.0513 -2.3025
 4912SOL    HW222804   4.552   3.763   4.742 -0.1208 -0.0067 -0.5425
 4913SOL     OW22805   7.238   4.385   1.208 -0.5979 -0.4205 -0.4557
 4913SOL    HW122806   7.234   4.341   1.119  0.2996 -1.4992  0.0235
 4913SOL    HW222807   7.217   4.482   1.199  1.3079 -0.1323 -2.1220
 4914SOL     OW22808   9.362   4.913   4.021  0.0285  0.5484  0.2481
 4914SOL    HW122809   9.435   4.897   4.087  0.7009  1.5991 -0.2277
 4914SOL    HW222810   9.275   4.884   4.061  0.7814 -1.3262  0.5542
 4916SOL     OW22811   3.062   6.229   5.232 -0.8830  0.2775  0.2057
 4916SOL    HW122812   3.118   6.192   5.158  0.1271  1.2440  0.4745
 4916SOL    HW222813   3.121   6.264   5.305 -1.8564 -1.1825  1.7438
 4917SOL     OW22814   3.816   8.234   2.753  0.1904  0.6199 -0.2922
 4917SOL    HW122815   3.797   8.253   2.849  0.6401 -2.1673  0.4086
 4917SOL    HW222816   3.795   8.138   2.734  0.7130  0.9739 -2.8337
 4918SOL     OW22817   0.785   9.799   4.992  0.1907  0.2172 -0.0851
 4918SOL    HW122818   0.696   9.763   5.019  0.1615  1.4594  1.5820
 4918SOL    HW222819   0.783   9.899   4.997  1.1430  0.3451 -1.7947
 4920SOL     OW22820   9.266   1.957   0.903  0.2009  0.2233  0.5634
 4920SOL    HW122821   9.307   2.006   0.981  1.4214 -0.5121  0.3944
 4920SOL    HW222822   9.172   1.933   0.925  0.1466  1.0890  1.3404
 4921SOL     OW22823   0.878   6.336   1.804  0.3964  0.1792  0.4088
 4921SOL    HW122824   0.796   6.319   1.858  0.2918 -1.1503 -0.1458
 4921SOL    HW222825   0.879   6.275   1.725  2.1053 -0.0621  0.6089
 4922SOL     OW22826   5.784   0.511   5.057  0.1746 -0.0880 -0.2434
 4922SOL    HW122827   5.846   0.438   5.032  0.0809  0.2621 -1.5324
 4922SOL    HW222828   5.808   0.546   5.148  1.3590 -0.4863 -0.3951
 4923SOL     OW22829   1.990   2.707   0.903  0.2578 -0.5846  0.4065
 4923SOL    HW122830   1.909   2.652   0.921  0.0475 -0.1932  0.6730
 4923SOL    HW222831   2.042   2.719   0.987  0.6562 -0.9332  0.2110
 4924SOL     OW22832   3.290   3.004   1.342  0.5059 -0.9194  0.0640
 4924SOL    HW122833   3.389   3.014   1.349  0.5425 -0.3710 -1.2323
 4924SOL    HW222834   3.250   3.004   1.434  1.5863  0.0182  0.5404
 4925SOL     OW22835   2.160   5.896   3.248  0.3781 -0.6808 -0.0611
 4925SOL    HW122836   2.113   5.982   3.268  0.2683 -0.8599  0.4542
 4925SOL    HW222837   2.099   5.820   3.267  0.5927 -0.8829 -0.1882
 4926SOL     OW22838   3.575   6.454   4.712 -0.4501  0.2425  0.0351
 4926SOL    HW122839   3.535   6.545   4.722 -0.0406  0.2813  1.5571
 4926SOL    HW222840   3.586   6.432   4.615  0.4532  2.2629 -0.3505
 4927SOL     OW22841   2.652   7.007   3.067 -0.2354 -0.1376 -0.0318
 4927SOL    HW122842   2.737   6.957   3.048  0.1640  0.4152  0.2661
 4927SOL    HW222843   2.628   6.996   3.163  0.3863  1.0301  0.2690
 4928SOL     OW22844   0.495   3.252   2.574 -0.0301 -0.1702 -0.5302
 4928SOL    HW122845   0.403   3.247   2.613 -0.2008  1.2064 -0.7396
 4928SOL    HW222846   0.504   3.186   2.499 -1.0490  0.1514 -0.9339
 4929SOL     OW22847   3.955   4.735   4.689 -0.2781 -0.4545 -0.2566
 4929SOL    HW122848   3.874   4.717   4.634 -0.1678  0.7786 -0.8387
 4929SOL    HW222849   3.983   4.831   4.678  1.4732 -0.9511 -0.3630
 4930SOL     OW22850   5.460   3.874   0.027  0.3474 -0.5917 -0.1248
 4930SOL    HW122851   5.523   3.904  -0.044 -1.4156 -1.6492 -2.1943
 4930SOL    HW222852   5.366   3.882  -0.006 -0.4546 -2.2509  1.6567
 4931SOL     OW22853   5.810   0.366   2.907 -0.7631  0.0119  0.1554
 4931SOL    HW122854   5.808   0.327   2.815 -1.9752  0.2687  0.0729
 4931SOL    HW222855   5.750   0.446   2.910  0.8604  1.2356  0.6107
 4932SOL     OW22856   7.718   9.965   4.793 -0.0821  0.3507  0.0819
 4932SOL    HW122857   7.723   9.940   4.697  0.2288  0.5625  0.0419
 4932SOL    HW222858   7.762  10.053   4.807 -0.7248  0.6379  0.3100
 4934SOL     OW22859   9.292   9.167   0.876 -0.1116 -0.4166  0.6827
 4934SOL    HW122860   9.383   9.146   0.914  1.6832  1.4134 -2.3793
 4934SOL    HW222861   9.245   9.081   0.855  2.3241 -1.4659 -0.7731
 4935SOL     OW22862   2.844   8.988   3.215 -0.5931  0.1041  0.5288
 4935SOL    HW122863   2.896   8.919   3.265 -1.2272 -1.0197 -0.3407
 4935SOL    HW222864   2.811   8.949   3.129 -2.6528  0.8834  0.9425
 4936SOL     OW22865   8.938   4.687   3.425 -0.0934  0.1844  0.1674
 4936SOL    HW122866   8.991   4.694   3.509  0.1338  1.5097 -0.0792
 4936SOL    HW222867   9.000   4.684   3.347 -0.3153 -0.6471  0.0196
 4938SOL     OW22868   1.715   1.145   3.002  0.3966  0.1398 -0.1605
 4938SOL    HW122869   1.722   1.119   2.905  1.6123 -0.7696  0.1512
 4938SOL    HW222870   1.690   1.065   3.056  0.4029  0.4835  0.3552
 4939SOL     OW22871   8.313   3.051   2.829  0.4008  1.3648 -0.7341
 4939SOL    HW122872   8.231   3.036   2.775 -0.3783  0.6898  0.6173
 4939SOL    HW222873   8.369   2.968   2.828  0.2996  1.2934 -0.3592
 4940SOL     OW22874   0.688   8.405   1.780  0.4443  0.0576  0.2859
 4940SOL    HW122875   0.699   8.374   1.685 -0.3548  0.3931  0.0870
 4940SOL    HW222876   0.596   8.383   1.812 -0.3841  2.7880 -0.0716
 4941SOL     OW22877   3.188   8.059   0.130  0.1327  0.3284  0.3377
 4941SOL    HW122878   3.248   8.002   0.075  0.5982  0.2241  0.9486
 4941SOL    HW222879   3.149   8.132   0.074 -0.4615 -0.5877 -0.4466
 4943SOL     OW22880   0.762   8.615   3.698 -0.2728  0.2684  0.3152
 4943SOL    HW122881   0.831   8.542   3.697  0.9362  1.3671  1.2262
 4943SOL    HW222882   0.800   8.696   3.653 -0.2737  1.4801  2.4348
 4944SOL     OW22883   5.551   0.799   1.367  0.4422  0.0851 -0.4369
 4944SOL    HW122884   5.513   0.736   1.299 -1.1163 -0.0882  0.5908
 4944SOL    HW222885   5.478   0.850   1.410  1.4208  0.1499  1.1685
 4945SOL     OW22886   2.322   4.511   4.461  0.2419 -0.0479  0.1657
 4945SOL    HW122887   2.339   4.489   4.365 -2.2686 -1.0062 -0.0836
 4945SOL    HW222888   2.375   4.592   4.486  0.4990  0.5536 -2.1746
 4947SOL     OW22889   0.429   1.900   4.095 -0.6694  0.2351  0.1705
 4947SOL    HW122890   0.517   1.852   4.100  1.3535  3.8328  0.2311
 4947SOL    HW222891   0.381   1.871   4.012  1.4500 -0.3678 -0.8926
 4948SOL     OW22892   0.576   9.964   0.368  0.3817 -0.2215  0.0828
 4948SOL    HW122893   0.648   9.895   0.377 -0.2838 -1.0829 -1.0036
 4948SOL    HW222894   0.617  10.055   0.371  1.4150 -0.6782  0.3221
 4950SOL     OW22895   4.870   9.294   3.801 -0.4388  0.0143  0.0958
 4950SOL    HW122896   4.863   9.315   3.704 -0.4612 -0.3958  0.0063
 4950SOL    HW222897   4.829   9.204   3.818 -0.3929  0.0660  0.4750
 4951SOL     OW22898   8.944   9.006   3.687  0.1970 -0.3179  0.1812
 4951SOL    HW122899   8.902   8.953   3.613  0.2970 -0.6188  0.3407
 4951SOL    HW222900   8.874   9.034   3.752  0.2076 -0.6120  0.3191
 4952SOL     OW22901   2.694   4.244   3.841 -0.0009  0.2696  0.2361
 4952SOL    HW122902   2.615   4.288   3.800  0.0116 -0.1534 -0.2537
 4952SOL    HW222903   2.709   4.155   3.798  0.7503  0.3494  0.3114
 4953SOL     OW22904   6.942   8.770   4.373 -0.1343  0.2489 -0.5469
 4953SOL    HW122905   6.979   8.862   4.362  0.4386  0.1158  0.1911
 4953SOL    HW222906   6.842   8.774   4.380 -0.1476  0.7559 -1.0614
 4954SOL     OW22907   5.236   0.208   1.451 -0.3028  0.0538  0.1141
 4954SOL    HW122908   5.224   0.109   1.458 -2.5035 -0.1327 -4.5915
 4954SOL    HW222909   5.312   0.228   1.389 -0.7740  1.2979 -0.0708
 4955SOL     OW22910   3.931   7.055   3.058 -0.4096 -0.2703  0.2815
 4955SOL    HW122911   3.966   7.096   2.974 -1.7640  2.8356  1.1727
 4955SOL    HW222912   4.002   7.056   3.128 -0.5791  1.0023  0.4392
 4956SOL     OW22913   8.298   6.322   4.886 -0.2359 -0.4848 -0.1299
 4956SOL    HW122914   8.276   6.418   4.900  0.1013 -0.3065 -0.8490
 4956SOL    HW222915   8.346   6.287   4.967  0.3220  0.1482 -0.1860
 4957SOL     OW22916   3.727   6.799   1.899 -0.4562  0.1723  0.0503
 4957SOL    HW122917   3.777   6.834   1.820 -1.1079 -0.2760 -0.5685
 4957SOL    HW222918   3.639   6.847   1.906 -0.8215 -0.4749 -0.0826
 4958SOL     OW22919   1.747   7.805   1.929  0.1143 -0.5150 -0.2554
 4958SOL    HW122920   1.831   7.816   1.876 -0.2391  0.5350 -0.6164
 4958SOL    HW222921   1.760   7.734   1.998  0.9820 -1.0372 -0.9378
 4959SOL     OW22922   1.200   6.745   3.852  0.0894 -0.2161  0.1347
 4959SOL    HW122923   1.111   6.705   3.829 -0.8605  0.9680  1.6227
 4959SOL    HW222924   1.208   6.753   3.952  0.7769  2.0523 -0.0739
 4960SOL     OW22925   8.861   8.685   2.776  0.0375  0.0664  0.0937
 4960SOL    HW122926   8.846   8.586   2.772  3.4704 -0.5346  0.3418
 4960SOL    HW222927   8.860   8.715   2.872  0.2697  0.0499  0.1011
 4961SOL     OW22928   0.275   3.920   1.481 -0.0644  0.1315 -0.0384
 4961SOL    HW122929   0.245   3.892   1.390  0.5785 -0.8132  0.0376
 4961SOL    HW222930   0.359   3.872   1.505 -0.8998 -0.5531  1.5721
 4963SOL     OW22931   7.938   9.794   4.224  0.2641 -0.3773  0.6550
 4963SOL    HW122932   7.871   9.727   4.192 -0.2722  0.7826 -0.6582
 4963SOL    HW222933   8.019   9.745   4.258  0.4628 -1.6762 -1.5687
 4964SOL     OW22934   0.585   0.494   1.680 -0.1854 -0.4874  0.0038
 4964SOL    HW122935   0.671   0.473   1.728 -0.2502 -0.6698  0.0408
 4964SOL    HW222936   0.540   0.571   1.725 -1.1034 -1.7523  1.3061
 4966SOL     OW22937   0.205   0.489   5.010  0.6324 -0.3893 -1.0794
 4966SOL    HW122938   0.151   0.462   5.090 -0.6863 -2.2045 -2.5440
 4966SOL    HW222939   0.299   0.459   5.022  0.8225  0.8174  0.5164
 4968SOL     OW22940   6.826   1.151   3.675  0.2007  0.7359  0.1063
 4968SOL    HW122941   6.854   1.129   3.582 -0.5772  1.6134 -0.3443
 4968SOL    HW222942   6.761   1.227   3.673  0.3382  0.8952  1.3793
 4969SOL     OW22943   4.188   0.254   3.198 -0.1658 -0.4663  0.3081
 4969SOL    HW122944   4.119   0.316   3.234 -0.1815 -0.2419 -0.1188
 4969SOL    HW222945   4.158   0.215   3.111  0.6746  0.3974 -0.3812
 4970SOL     OW22946   0.463   9.153   4.503 -0.0712 -0.0778  0.3828
 4970SOL    HW122947   0.469   9.122   4.598 -0.7933 -2.3994 -0.2716
 4970SOL    HW222948   0.377   9.121   4.464 -0.5641  2.3410 -0.5634
 4971SOL     OW22949   3.432   8.999   1.751  0.0193  0.0871  0.2697
 4971SOL    HW122950   3.489   9.068   1.794  0.3789 -0.9142  1.4214
 4971SOL    HW222951   3.477   8.910   1.755 -0.7980 -0.3738 -0.4600
 4974SOL     OW22952   1.390   8.593   2.524  0.5114 -0.5866  0.0311
 4974SOL    HW122953   1.484   8.621   2.503  0.7610 -0.2548  1.5982
 4974SOL    HW222954   1.365   8.516   2.464  1.5741 -0.3053 -0.7898
 4975SOL     OW22955   9.052   4.590   2.785 -0.4930  0.1120 -0.4075
 4975SOL    HW122956   8.977   4.655   2.769 -0.3007  0.5405  0.4353
 4975SOL    HW222957   9.135   4.641   2.807 -0.3820 -0.4316  0.4259
 4976SOL     OW22958   2.081   8.563   4.308  0.2587 -0.2776 -0.1258
 4976SOL    HW122959   2.014   8.496   4.342  0.9950 -0.7643  0.3756
 4976SOL    HW222960   2.096   8.633   4.378  0.2319 -0.1412 -0.2585
 4978SOL     OW22961   2.405   2.822   3.339  0.3611 -0.0719  0.3364
 4978SOL    HW122962   2.369   2.746   3.392  1.4834 -1.2781 -0.5983
 4978SOL    HW222963   2.397   2.907   3.392  1.2756 -1.2055  2.3309
 4979SOL     OW22964   1.927   6.935   2.119  0.2288  0.5515  0.2265
 4979SOL    HW122965   1.943   7.022   2.165  3.0844 -0.1854  0.7163
 4979SOL    HW222966   2.014   6.889   2.103 -1.1753 -1.8871 -0.6881
 4980SOL     OW22967   2.195   9.057   1.362 -0.6259  0.1510  0.0227
 4980SOL    HW122968   2.275   9.063   1.422 -1.1849  1.3772  0.6647
 4980SOL    HW222969   2.119   9.106   1.403 -1.2137  0.4512 -1.3853
 4981SOL     OW22970   0.916   8.805   4.628  0.2113  0.6856 -0.3041
 4981SOL    HW122971   0.853   8.770   4.559  0.6740  0.0570 -0.4076
 4981SOL    HW222972   0.922   8.905   4.619 -1.1544  0.8170  0.0388
 4982SOL     OW22973   5.586   4.519   0.504 -0.0825 -0.0053 -0.0493
 4982SOL    HW122974   5.674   4.494   0.544  0.8429  1.1935 -1.2950
 4982SOL    HW222975   5.525   4.555   0.576  0.7655  0.0235  0.6570
 4983SOL     OW22976   5.637   8.013   5.222  0.3873  0.2775 -0.7357
 4983SOL    HW122977   5.615   8.100   5.266  1.4940  0.1295  0.1679
 4983SOL    HW222978   5.719   7.975   5.266  0.6158 -0.6194 -1.9362
 4984SOL     OW22979   3.816   9.517   4.608 -0.1404 -0.5107  0.1991
 4984SOL    HW122980   3.757   9.595   4.590  0.9514 -0.0718 -1.5658
 4984SOL    HW222981   3.771   9.433   4.578 -1.9403 -0.7800  3.4488
 4985SOL     OW22982   4.203   2.520   0.294 -0.1400 -0.0248 -0.1824
 4985SOL    HW122983   4.288   2.573   0.304 -1.3354  1.6712  1.5736
 4985SOL    HW222984   4.131   2.579   0.257 -0.4415 -1.5882 -2.1502
 4986SOL     OW22985   2.099   2.633   0.114  0.7108  0.4544  0.4069
 4986SOL    HW122986   2.005   2.624   0.082  0.6168  2.3661  0.0534
 4986SOL    HW222987   2.110   2.583   0.200 -1.2439  2.0032  1.6010
 4987SOL     OW22988   3.758   0.288   2.754  0.4234  0.9017 -0.3583
 4987SOL    HW122989   3.849   0.303   2.793  0.0346  2.0652  0.1013
 4987SOL    HW222990   3.767   0.232   2.672  1.6052  1.3916 -0.5784
 4988SOL     OW22991   0.409   6.134   3.878  0.2281  0.0353  0.2927
 4988SOL    HW122992   0.328   6.158   3.931 -1.4220 -1.2123 -1.6010
 4988SOL    HW222993   0.451   6.052   3.916  0.8461  0.9118  1.5194
 4990SOL     OW22994   3.666   1.035   3.319 -0.3238  0.2656  0.1410
 4990SOL    HW122995   3.647   1.025   3.417 -0.9902  0.8606  0.0781
 4990SOL    HW222996   3.662   0.946   3.275 -0.5811  0.0686  0.5571
 4991SOL     OW22997   2.063   7.420   4.729  0.4089 -0.3939  0.3398
 4991SOL    HW122998   2.124   7.484   4.777  2.0460 -0.8700 -1.0583
 4991SOL    HW222999   2.056   7.447   4.633 -1.9667 -0.0921  0.5656
 4993SOL     OW23000   2.680   6.197   3.155 -0.0242  0.2570  0.0790
 4993SOL    HW123001   2.744   6.147   3.213 -0.5128  1.1826  1.4230
 4993SOL    HW223002   2.645   6.136   3.084  3.1689  0.0112 -1.3632
 4994SOL     OW23003   5.618   0.050   4.667 -0.1175 -0.3463  0.0761
 4994SOL    HW123004   5.610   0.116   4.592  0.6798 -0.9454 -0.5352
 4994SOL    HW223005   5.644   0.098   4.751  2.1734 -0.1129 -0.7545
 4995SOL     OW23006   8.298   3.014   2.242  0.3714 -0.0794  0.0188
 4995SOL    HW123007   8.347   3.095   2.209 -0.3325  0.8628  1.2422
 4995SOL    HW223008   8.364   2.942   2.262  1.2136  0.9309  0.9498
 4996SOL     OW23009   4.336   0.770   0.174  0.3876 -0.3088 -0.0410
 4996SOL    HW123010   4.325   0.748   0.077 -3.1085 -2.6272  0.7565
 4996SOL    HW223011   4.335   0.685   0.227  2.4349  0.9303  2.0453
 4997SOL     OW23012   2.411   4.116   3.267 -0.3164 -0.2200 -0.7114
 4997SOL    HW123013   2.435   4.028   3.226 -0.4127 -0.6667  0.1662
 4997SOL    HW223014   2.366   4.174   3.199 -1.9023 -1.5435 -0.7891
 4998SOL     OW23015   0.522   8.090   3.012  0.2777 -0.2034  0.2599
 4998SOL    HW123016   0.495   8.181   3.044 -0.5697 -0.2440 -0.3318
 4998SOL    HW223017   0.574   8.100   2.927 -0.9914 -0.3462 -0.5488
 4999SOL     OW23018   3.878   8.898   1.864 -0.5550 -0.2012  0.1697
 4999SOL    HW123019   3.953   8.920   1.926  2.1016 -2.6684 -2.0384
 4999SOL    HW223020   3.880   8.960   1.785  0.0891 -1.2475 -0.6339
 5000SOL     OW23021   7.194   9.613   3.799 -0.0630  0.1549 -0.1150
 5000SOL    HW123022   7.256   9.556   3.851  0.7302  0.6261 -0.5356
 5000SOL    HW223023   7.116   9.639   3.857  0.7951  0.6591  0.8235
 5001SOL     OW23024   6.180   0.170   4.461  0.1151  0.3394 -0.1211
 5001SOL    HW123025   6.209   0.177   4.365 -0.3978  0.5981 -0.2613
 5001SOL    HW223026   6.243   0.222   4.518 -1.0605  2.4329 -0.6369
 5002SOL     OW23027   9.876   3.586   4.236 -0.0772  0.3155 -0.3828
 5002SOL    HW123028   9.857   3.677   4.274 -0.6122 -0.0714  0.2840
 5002SOL    HW223029   9.826   3.517   4.288  2.5959 -0.6746  0.9863
 5003SOL     OW23030   0.026   3.216   5.210 -0.3270  0.1016  0.2209
 5003SOL    HW123031   0.042   3.156   5.288  1.3983  0.2488 -0.0156
 5003SOL    HW223032   0.001   3.307   5.243  0.0266  0.0639  0.6004
 5004SOL     OW23033   1.681   1.454   2.855 -0.0808  0.0088  0.0116
 5004SOL    HW123034   1.662   1.544   2.894 -0.4551  0.1745 -0.5439
 5004SOL    HW223035   1.680   1.385   2.927  0.0705  0.4332  0.4187
 5005SOL     OW23036   1.744   4.780   2.941  0.5539  0.1195 -0.6937
 5005SOL    HW123037   1.779   4.865   2.902  2.2460 -0.4528 -0.4878
 5005SOL    HW223038   1.816   4.710   2.938 -1.0217 -1.4924 -1.4572
 5006SOL     OW23039   1.711   8.596   1.163 -0.8306  0.1224  0.4113
 5006SOL    HW123040   1.679   8.504   1.142  0.7527 -0.2527 -0.4580
 5006SOL    HW223041   1.787   8.591   1.228  0.2530  0.7018 -0.7899
 5007SOL     OW23042   0.387   0.627   3.804  0.0674  0.2253 -0.5266
 5007SOL    HW123043   0.360   0.646   3.899  1.4600 -1.4907  0.2372
 5007SOL    HW223044   0.308   0.640   3.744 -0.7618  1.6066  0.8140
 5009SOL     OW23045   0.881   9.381   4.563  0.5220 -1.2966  0.1650
 5009SOL    HW123046   0.834   9.353   4.480  1.8274 -1.2903 -0.5995
 5009SOL    HW223047   0.939   9.460   4.543  2.0066 -2.2270  0.7244
 5010SOL     OW23048   3.040   8.184   5.299 -0.2289  0.6965 -0.0135
 5010SOL    HW123049   3.015   8.281   5.306 -1.5382  0.3118  0.8366
 5010SOL    HW223050   3.053   8.146   5.390 -1.8733 -0.4624 -0.2470
 5011SOL     OW23051   7.623   8.457   2.702  0.1426  0.3965 -0.0930
 5011SOL    HW123052   7.665   8.419   2.785 -1.5228  0.0010  0.5846
 5011SOL    HW223053   7.548   8.398   2.673 -1.0458  2.0117 -0.3172
 5013SOL     OW23054   3.457   4.913   1.248 -0.7043  0.7090 -0.5479
 5013SOL    HW123055   3.457   4.917   1.148 -0.6109  2.0995 -0.5008
 5013SOL    HW223056   3.418   4.826   1.278 -0.5748  0.2090 -1.7930
 5014SOL     OW23057   9.585   2.666   3.804 -0.6130 -0.1185  0.0628
 5014SOL    HW123058   9.519   2.642   3.733 -0.0732 -0.9667 -0.1575
 5014SOL    HW223059   9.569   2.611   3.886 -0.3091 -0.1748  0.0850
 5016SOL     OW23060   1.578   2.279   5.118  0.9013  0.1076 -0.2370
 5016SOL    HW123061   1.647   2.341   5.080  0.6592  1.3525  1.3081
 5016SOL    HW223062   1.533   2.323   5.196 -2.3031 -0.2992 -1.7679
 5018SOL     OW23063   5.522   5.448   1.737  0.0564  0.2128  0.7140
 5018SOL    HW123064   5.496   5.535   1.695  0.3876  0.1317  0.3289
 5018SOL    HW223065   5.621   5.447   1.750  0.0371 -0.0584  0.8298
 5020SOL     OW23066   1.349   0.789   5.046 -0.2068 -0.1067 -0.0598
 5020SOL    HW123067   1.413   0.724   5.006  1.7813  2.3247 -0.9662
 5020SOL    HW223068   1.375   0.808   5.141  0.4519  0.8936 -0.4323
 5021SOL     OW23069   0.605   7.215   5.094 -0.1874  0.6698  0.1758
 5021SOL    HW123070   0.601   7.240   4.997  2.6980  1.8216  0.2851
 5021SOL    HW223071   0.588   7.295   5.150 -1.1444  0.1584  0.6205
 5022SOL     OW23072   4.181   3.025   1.692 -0.9581  0.6811  0.2838
 5022SOL    HW123073   4.102   2.994   1.639  1.2919 -3.7238 -0.8087
 5022SOL    HW223074   4.191   2.967   1.773  1.2721  0.9386  0.2178
 5026SOL     OW23075   0.657   1.816   2.020 -0.8819  0.1858 -0.2934
 5026SOL    HW123076   0.591   1.760   2.071 -0.1151 -0.0220  0.4782
 5026SOL    HW223077   0.643   1.803   1.922 -2.2181  0.4062 -0.1482
 5027SOL     OW23078   0.545   6.820   4.579 -0.5763 -0.1786  0.2735
 5027SOL    HW123079   0.575   6.894   4.640 -3.0485  1.0138  0.1299
 5027SOL    HW223080   0.463   6.778   4.618 -1.3569 -0.3476 -1.5371
 5028SOL     OW23081   8.166   0.206   0.813  0.4909  0.2263  0.0388
 5028SOL    HW123082   8.260   0.171   0.822  1.0806  1.3349 -1.6445
 5028SOL    HW223083   8.102   0.129   0.812  1.5268 -0.6457 -0.5804
 5029SOL     OW23084   9.947   8.021   1.925  0.5639 -0.2592  0.3099
 5029SOL    HW123085   9.897   8.039   1.840  0.2980 -1.1085  0.2816
 5029SOL    HW223086   9.946   7.923   1.944  1.0875 -0.1327  1.0123
 5030SOL     OW23087   2.644   7.419   4.683  0.0909 -0.1784  0.0084
 5030SOL    HW123088   2.738   7.423   4.647 -0.0620 -1.0935 -0.5079
 5030SOL    HW223089   2.581   7.457   4.616 -0.0718 -0.8995 -0.2517
 5031SOL     OW23090   9.825   5.089   4.845  0.3358  0.9521 -0.2737
 5031SOL    HW123091   9.885   5.101   4.766  0.1273  0.1775 -0.5536
 5031SOL    HW223092   9.736   5.129   4.826 -0.2496 -0.7054 -1.0735
 5032SOL     OW23093   9.453   3.725   1.217 -0.0052  0.6865 -0.5597
 5032SOL    HW123094   9.551   3.728   1.235 -0.0753  1.0292 -0.2267
 5032SOL    HW223095   9.417   3.818   1.210 -0.3005  0.5626 -0.7199
 5033SOL     OW23096   2.069   5.702   2.831 -0.3448  0.3521 -0.6763
 5033SOL    HW123097   2.095   5.607   2.811  0.8084  0.1868  1.3759
 5033SOL    HW223098   2.041   5.748   2.747 -0.1694 -1.5856 -1.8239
 5034SOL     OW23099   4.188   2.980   5.044 -0.6193  0.1426  0.5615
 5034SOL    HW123100   4.285   2.971   5.024 -0.8472  0.7288 -0.8782
 5034SOL    HW223101   4.135   2.972   4.959 -1.5628  3.5092  0.7291
 5035SOL     OW23102   1.042   9.736   2.543  0.3347  0.7094  0.2755
 5035SOL    HW123103   0.984   9.812   2.571  0.2301  0.2178  1.4041
 5035SOL    HW223104   1.051   9.735   2.443 -0.5938  1.5121  0.1868
 5036SOL     OW23105   7.724   2.627   4.517  0.1010 -0.1354  0.0455
 5036SOL    HW123106   7.738   2.579   4.604  1.0962 -0.2672 -0.1809
 5036SOL    HW223107   7.645   2.687   4.525 -2.0693 -2.8427 -0.1001
 5037SOL     OW23108   2.688   5.395   0.404  0.4930 -0.4289 -0.3717
 5037SOL    HW123109   2.658   5.310   0.360 -0.5090  0.2503 -1.0300
 5037SOL    HW223110   2.626   5.417   0.479  1.7877 -1.2046  0.9505
 5039SOL     OW23111   2.295   8.058   3.256 -0.3224 -0.4027  0.1935
 5039SOL    HW123112   2.197   8.077   3.257 -0.1338  0.6000 -0.3654
 5039SOL    HW223113   2.339   8.106   3.331 -0.2521 -0.8352  0.4299
 5041SOL     OW23114   8.742   3.409   2.173 -0.1382 -0.0068 -0.2420
 5041SOL    HW123115   8.684   3.448   2.244 -1.2431 -1.1208 -0.5128
 5041SOL    HW223116   8.838   3.418   2.200 -0.4105  1.8539  0.2048
 5042SOL     OW23117   4.347   1.178   1.867  0.1373 -0.0436 -0.5141
 5042SOL    HW123118   4.358   1.241   1.944  0.0133  0.3904 -0.8521
 5042SOL    HW223119   4.252   1.144   1.866  0.4995 -1.1082  0.3354
 5046SOL     OW23120   8.951   5.171   5.271  0.8052 -0.0009  0.5010
 5046SOL    HW123121   9.024   5.129   5.326  0.8028 -0.4904  0.1315
 5046SOL    HW223122   8.863   5.133   5.299  0.7815 -0.0727  0.3243
 5048SOL     OW23123   9.455   8.883   3.720  0.1726  0.2851  0.1785
 5048SOL    HW123124   9.542   8.882   3.671  0.3876 -1.0175  0.5911
 5048SOL    HW223125   9.382   8.849   3.660 -0.0734  1.3592 -0.1617
 5049SOL     OW23126   2.627   3.700   0.405  0.4105  0.4619  0.3916
 5049SOL    HW123127   2.664   3.626   0.349  0.3737  0.6672  0.0928
 5049SOL    HW223128   2.638   3.787   0.357  0.5217  0.6605  0.7746
 5050SOL     OW23129   6.015   0.720   2.644 -0.1161 -0.2026 -0.4637
 5050SOL    HW123130   5.982   0.798   2.591  0.1798  0.4255  0.2690
 5050SOL    HW223131   6.115   0.715   2.639  0.0811  1.0246  1.6064
 5051SOL     OW23132   9.716   1.078   4.355 -0.1071  0.1239  0.2160
 5051SOL    HW123133   9.785   1.136   4.312  2.1466 -1.2457  1.9089
 5051SOL    HW223134   9.698   0.998   4.298  0.7498 -0.2345  0.4532
 5052SOL     OW23135   8.287   1.065   2.852 -0.0362 -0.0107 -0.3899
 5052SOL    HW123136   8.190   1.042   2.851 -0.2055  0.7120 -1.6688
 5052SOL    HW223137   8.321   1.060   2.945 -1.3531 -0.0723  0.1015
 5053SOL     OW23138   1.624   8.125   4.603  0.1615 -0.3796 -0.0022
 5053SOL    HW123139   1.627   8.136   4.503 -2.4901 -0.0122 -0.0692
 5053SOL    HW223140   1.550   8.181   4.640  0.6899 -1.0611  2.1151
 5055SOL     OW23141   1.428   9.463   2.710  0.8378  0.1398  0.1375
 5055SOL    HW123142   1.437   9.401   2.788 -2.2907 -1.3726 -0.6091
 5055SOL    HW223143   1.442   9.557   2.741  0.4562 -0.5090  2.3766
 5056SOL     OW23144   0.706   6.193   3.187 -0.2892 -0.0022  0.0039
 5056SOL    HW123145   0.778   6.197   3.256 -1.2347 -0.1069  1.0206
 5056SOL    HW223146   0.617   6.194   3.233 -0.9346  0.4947 -1.2479
 5058SOL     OW23147   0.974   9.145   0.721  0.1226 -0.0616  0.0854
 5058SOL    HW123148   1.036   9.068   0.736  1.1841  1.2581  2.7588
 5058SOL    HW223149   0.947   9.184   0.809 -0.7720  2.3508 -1.2132
 5059SOL     OW23150   2.595   0.872   0.020  0.1636  0.2716  0.2614
 5059SOL    HW123151   2.569   0.776   0.026 -1.1462  0.4615 -1.8758
 5059SOL    HW223152   2.631   0.902   0.109 -1.5537 -1.5511  1.6245
 5061SOL     OW23153   6.749   4.292   0.835 -0.1255 -0.4417 -0.2456
 5061SOL    HW123154   6.837   4.338   0.823  0.2061 -0.5760  1.4899
 5061SOL    HW223155   6.710   4.318   0.924 -0.9315 -1.8643 -0.1705
 5062SOL     OW23156   9.552   0.762   5.146  0.2095 -0.4986 -0.2903
 5062SOL    HW123157   9.472   0.789   5.200  1.0286 -0.2347  0.8097
 5062SOL    HW223158   9.557   0.663   5.142 -0.1324 -0.5176 -0.3054
 5064SOL     OW23159   4.487   0.508   3.694 -0.3694 -0.4099  0.5107
 5064SOL    HW123160   4.505   0.596   3.652 -1.3468 -0.7106 -0.5289
 5064SOL    HW223161   4.391   0.501   3.720 -0.3934 -1.3350  0.2012
 5065SOL     OW23162   3.383   1.734   2.414 -0.1454 -0.5326 -0.4272
 5065SOL    HW123163   3.449   1.804   2.442 -0.3962 -0.2739 -0.4741
 5065SOL    HW223164   3.315   1.723   2.486  0.2292 -1.1543 -0.1662
 5066SOL     OW23165   2.131   3.872   4.214 -0.2723 -0.1211 -0.3122
 5066SOL    HW123166   2.138   3.893   4.311  1.3515 -2.4442  0.1067
 5066SOL    HW223167   2.037   3.887   4.183 -0.4984  1.9604  1.2653
 5067SOL     OW23168   0.812   1.245   3.320 -0.0889 -0.3740  0.3537
 5067SOL    HW123169   0.839   1.158   3.279 -1.3011 -0.8693  0.5971
 5067SOL    HW223170   0.803   1.234   3.419  0.1554  0.1395  0.4366
 5068SOL     OW23171   4.534   9.319   1.354 -0.2711  0.6671 -0.2685
 5068SOL    HW123172   4.435   9.329   1.352 -0.3966 -0.0849  1.3234
 5068SOL    HW223173   4.558   9.223   1.340  0.2573  0.9085 -1.0551
 5069SOL     OW23174   8.459   2.571   4.701 -0.1329  0.1958  0.1645
 5069SOL    HW123175   8.542   2.521   4.725  0.1372  1.0481  0.9958
 5069SOL    HW223176   8.436   2.553   4.605 -0.3325 -1.9341  0.5910
 5070SOL     OW23177   3.072   8.204   0.388  0.0799  0.3664 -0.4690
 5070SOL    HW123178   3.112   8.159   0.308 -0.6207 -0.4588 -0.3511
 5070SOL    HW223179   3.145   8.252   0.438  0.6719  0.1421 -1.1053
 5071SOL     OW23180   2.115   8.928   4.202  0.0729 -0.2163 -0.3641
 5071SOL    HW123181   2.183   8.903   4.271  0.5777 -0.4725 -0.9432
 5071SOL    HW223182   2.044   8.985   4.244  0.8973  0.4546  0.1382
 5072SOL     OW23183   4.263   8.297   0.093  0.2732  0.4741 -0.3294
 5072SOL    HW123184   4.247   8.226   0.161 -2.2218  0.0089 -1.3312
 5072SOL    HW223185   4.281   8.384   0.139  1.7339 -0.4682  0.9054
 5073SOL     OW23186   8.419   6.264   1.856 -0.5679 -0.3042  0.2423
 5073SOL    HW123187   8.434   6.220   1.767 -0.5652 -0.0657  0.1249
 5073SOL    HW223188   8.323   6.251   1.883 -0.4893 -0.6568  0.3567
 5075SOL     OW23189   2.788   9.766   1.746  0.5273  0.7055  0.2220
 5075SOL    HW123190   2.696   9.733   1.768  0.9155 -0.8616 -0.4221
 5075SOL    HW223191   2.819   9.828   1.818 -0.4761  0.1454  1.1594
 5077SOL     OW23192   9.028   4.897   1.829 -0.2961 -0.0711 -0.8782
 5077SOL    HW123193   9.125   4.888   1.850 -0.7519  0.3309  1.5004
 5077SOL    HW223194   9.014   4.979   1.773  0.5697  0.6355 -0.0782
 5079SOL     OW23195   3.482   1.545   3.306  0.1763 -0.2490  0.0053
 5079SOL    HW123196   3.472   1.589   3.395 -3.0454  0.3924 -0.6183
 5079SOL    HW223197   3.517   1.452   3.319 -0.0471 -0.0878  1.9419
 5080SOL     OW23198   9.182   6.549   0.572 -0.3387 -0.8339  0.1083
 5080SOL    HW123199   9.112   6.504   0.517  0.5047 -1.3648 -0.5268
 5080SOL    HW223200   9.223   6.483   0.635 -0.0508 -0.6450  0.1227
 5081SOL     OW23201   4.444   9.907   0.176 -0.1635  0.3568 -0.2532
 5081SOL    HW123202   4.400   9.862   0.254 -2.3725  2.4426 -0.2412
 5081SOL    HW223203   4.438   9.848   0.096 -1.5382 -0.0794  0.1641
 5082SOL     OW23204   0.010   0.270   2.357  0.5494  0.6067  0.2483
 5082SOL    HW123205  -0.058   0.197   2.341  1.5142 -0.7657  2.2001
 5082SOL    HW223206   0.090   0.254   2.299  1.3476 -0.6945  1.6923
 5083SOL     OW23207   1.929   7.287   1.765 -0.5262  0.6816 -0.3139
 5083SOL    HW123208   2.005   7.273   1.702  0.0265  1.4510  0.1767
 5083SOL    HW223209   1.885   7.199   1.785  1.4892 -0.0624  0.9851
 5084SOL     OW23210   3.335   5.429   5.104 -0.3311 -0.2994 -0.2116
 5084SOL    HW123211   3.429   5.458   5.122 -0.5957  1.9527 -2.1609
 5084SOL    HW223212   3.276   5.455   5.180  0.4512 -0.9003  0.6077
 5085SOL     OW23213   8.763   4.839   1.903  0.7030 -0.0986  0.1823
 5085SOL    HW123214   8.720   4.751   1.925  0.0787  0.3231  0.6268
 5085SOL    HW223215   8.863   4.828   1.908  0.6323 -0.8066  0.1550
 5086SOL     OW23216   1.427   9.393   0.046 -0.4172 -0.4261  0.5457
 5086SOL    HW123217   1.381   9.463  -0.008 -0.5220 -1.0329 -0.1648
 5086SOL    HW223218   1.453   9.431   0.135 -2.2509 -0.0698  0.9381
 5088SOL     OW23219   9.224   4.982   3.442 -0.1931  0.2486 -0.2286
 5088SOL    HW123220   9.239   4.985   3.541  0.1866  0.2909 -0.2855
 5088SOL    HW223221   9.298   5.032   3.396  0.8487 -1.6445 -0.6542
 5090SOL     OW23222   4.696   0.073   0.112 -0.6349 -0.1048 -0.2872
 5090SOL    HW123223   4.657  -0.017   0.091  0.6914 -0.2809 -2.1256
 5090SOL    HW223224   4.772   0.091   0.050  0.7731  1.1925  1.7514
 5092SOL     OW23225   8.115   6.857   3.189 -0.2551 -0.3678  0.2208
 5092SOL    HW123226   8.128   6.817   3.280 -0.5853 -0.6688  0.1368
 5092SOL    HW223227   8.199   6.845   3.135  0.2390  0.5686  0.7751
 5094SOL     OW23228   2.767   4.182   4.601  0.2670  0.9569 -0.0157
 5094SOL    HW123229   2.698   4.131   4.551  0.5771  0.9241 -0.4176
 5094SOL    HW223230   2.816   4.121   4.663  0.7042  0.7439 -0.5675
 5095SOL     OW23231   8.676   9.378   2.649  0.1049  0.6133  0.1715
 5095SOL    HW123232   8.744   9.305   2.642 -0.2441  0.3695 -0.8345
 5095SOL    HW223233   8.587   9.343   2.621 -0.1012  1.3717 -0.1460
 5096SOL     OW23234   8.735   7.126   2.472 -0.0112 -0.1598  0.1141
 5096SOL    HW123235   8.803   7.053   2.464 -1.3681 -1.5126  0.6619
 5096SOL    HW223236   8.756   7.198   2.406 -0.0756 -2.1893 -2.2114
 5097SOL     OW23237   4.366   8.205   3.061 -0.0134 -0.4185 -0.4226
 5097SOL    HW123238   4.270   8.209   3.035  0.1389 -1.8203 -1.2850
 5097SOL    HW223239   4.423   8.223   2.980  0.4545  0.8334  0.1745
 5098SOL     OW23240   9.026   0.381   4.166 -0.1394 -0.3711 -0.1224
 5098SOL    HW123241   8.958   0.340   4.105  0.5289  0.6047 -1.5346
 5098SOL    HW223242   9.040   0.477   4.141  1.2709 -0.3830  0.5862
 5099SOL     OW23243   2.185   8.063   4.277 -0.0957  0.1087  0.0590
 5099SOL    HW123244   2.092   8.044   4.308  1.0256 -2.3784  2.1372
 5099SOL    HW223245   2.242   8.086   4.356  1.6575 -1.1885 -0.8003
 5100SOL     OW23246   3.960   3.719   1.167 -0.5653  0.0211  0.0575
 5100SOL    HW123247   4.001   3.791   1.221 -1.7419  0.2550  0.6566
 5100SOL    HW223248   3.900   3.663   1.225  0.2462 -1.3754 -0.4121
 5102SOL     OW23249   2.043   0.782   4.817 -0.0966 -0.1148 -0.1327
 5102SOL    HW123250   1.985   0.746   4.890 -0.7000  1.0560 -0.0139
 5102SOL    HW223251   2.136   0.792   4.850 -0.2605 -0.0716  0.3197
 5103SOL     OW23252   5.664   8.611   4.481  0.2401 -0.1048 -0.5645
 5103SOL    HW123253   5.757   8.633   4.451  0.1580  1.4480  0.2899
 5103SOL    HW223254   5.646   8.656   4.568 -2.0223  1.2632 -1.7008
 5105SOL     OW23255   8.282   7.467   3.996 -0.2901  0.6070 -0.0755
 5105SOL    HW123256   8.345   7.544   3.998  0.2916  0.2284 -2.6124
 5105SOL    HW223257   8.218   7.479   3.920 -0.5811 -1.1147 -0.1105
 5108SOL     OW23258   8.360   2.743   0.186  0.2035 -0.2667 -0.3239
 5108SOL    HW123259   8.274   2.699   0.212  1.0157 -0.6359  1.8088
 5108SOL    HW223260   8.434   2.676   0.190  0.9537  0.5737  0.0266
 5109SOL     OW23261   0.326   8.604   2.570  0.5056 -0.2697  0.6057
 5109SOL    HW123262   0.421   8.585   2.544  0.4942  0.6890 -0.1420
 5109SOL    HW223263   0.265   8.543   2.520  0.5940  0.5109 -0.4642
 5110SOL     OW23264   7.289   3.068   3.497  0.4123 -0.8736 -0.1929
 5110SOL    HW123265   7.189   3.056   3.499  0.5556 -1.9184  1.4602
 5110SOL    HW223266   7.330   2.996   3.442  0.1776  0.3600 -2.0510
 5113SOL     OW23267   2.239   6.057   4.635  0.1086 -0.0033  0.0953
 5113SOL    HW123268   2.316   6.102   4.681  1.5337 -1.2957 -0.9565
 5113SOL    HW223269   2.154   6.083   4.680  1.0308  2.4038  0.5524
 5114SOL     OW23270   7.589   0.383   4.800  0.2769 -0.0602  0.3078
 5114SOL    HW123271   7.635   0.322   4.736  0.6676  0.0122  0.5139
 5114SOL    HW223272   7.491   0.368   4.797  0.4585 -1.6365  1.3193
 5116SOL     OW23273   5.348   2.255   1.408 -0.3976  0.3743  0.1155
 5116SOL    HW123274   5.375   2.314   1.333  1.6009 -1.0967 -0.3648
 5116SOL    HW223275   5.258   2.284   1.443 -0.2928  2.5045 -1.2795
 5120SOL     OW23276   3.230   4.751   2.789 -0.1673 -0.4127 -0.4092
 5120SOL    HW123277   3.215   4.783   2.882  0.6700  0.3480 -0.5254
 5120SOL    HW223278   3.328   4.739   2.773 -0.3606 -1.3487 -0.9264
 5124SOL     OW23279   4.337   3.495   0.492  0.9531  0.5992  0.2760
 5124SOL    HW123280   4.376   3.469   0.404  0.7566  2.4593 -0.3768
 5124SOL    HW223281   4.362   3.590   0.513 -1.9580  1.3538  0.5473
 5126SOL     OW23282   9.877   2.433   3.509  0.0811  0.2687  0.7233
 5126SOL    HW123283   9.823   2.513   3.482 -0.7740 -0.6390 -0.3117
 5126SOL    HW223284   9.945   2.461   3.577  0.2342  2.0025 -0.1038
 5128SOL     OW23285   8.196   7.871   3.935  0.1804  0.1977  0.5908
 5128SOL    HW123286   8.148   7.796   3.891  0.3781  0.1545  0.4499
 5128SOL    HW223287   8.278   7.894   3.882  0.9664 -0.5258  1.4939
 5130SOL     OW23288   8.873   8.277   0.020  0.1772  0.0481  0.3569
 5130SOL    HW123289   8.963   8.282   0.063 -0.5071 -0.4723  1.8605
 5130SOL    HW223290   8.870   8.198  -0.041  0.1835 -0.9352  1.6113
 5131SOL     OW23291   0.566   8.255   2.334 -0.2986 -0.4325 -0.4196
 5131SOL    HW123292   0.649   8.311   2.334  0.0412 -0.9143  1.8409
 5131SOL    HW223293   0.548   8.224   2.240  0.7107  1.6506 -1.3283
 5132SOL     OW23294   8.503   2.491   2.547 -0.6759  0.0936  0.1919
 5132SOL    HW123295   8.449   2.475   2.465  2.4697 -1.3902 -1.6931
 5132SOL    HW223296   8.524   2.404   2.591 -0.8341  0.7378  1.5754
 5133SOL     OW23297   1.464   4.163   3.231  0.0969  0.8256  0.3834
 5133SOL    HW123298   1.446   4.188   3.136 -0.4787  0.0881  0.2882
 5133SOL    HW223299   1.534   4.092   3.234 -1.1639 -0.4439  0.3820
 5134SOL     OW23300   1.624   9.853   3.924  0.2680  0.1890 -0.0055
 5134SOL    HW123301   1.547   9.802   3.963 -3.3046  2.0594 -4.2422
 5134SOL    HW223302   1.695   9.789   3.895 -1.5647 -1.9120  0.0081
 5135SOL     OW23303   3.817   0.695   0.127 -0.0157 -0.7109  0.2950
 5135SOL    HW123304   3.801   0.603   0.165 -1.8168 -0.1683  0.8972
 5135SOL    HW223305   3.890   0.690   0.058 -0.6632 -2.7587 -0.2907
 5136SOL     OW23306   9.040   4.714   3.665  0.2304  0.4039 -0.1235
 5136SOL    HW123307   8.995   4.682   3.748  0.8187  0.9495  0.4093
 5136SOL    HW223308   9.140   4.711   3.677  0.3402 -0.1770 -1.0608
 5137SOL     OW23309   3.218   7.634   1.434  0.2500  0.1343 -0.6548
 5137SOL    HW123310   3.199   7.729   1.406  1.0248  0.6372  0.4998
 5137SOL    HW223311   3.309   7.629   1.475 -0.1330 -0.9500  0.0645
 5138SOL     OW23312   4.083   3.900   0.476 -0.4476 -0.4456  0.1408
 5138SOL    HW123313   4.042   3.965   0.412 -1.2041  0.7614  1.8250
 5138SOL    HW223314   4.080   3.808   0.436 -2.2242  0.0551 -0.9640
 5139SOL     OW23315   3.384   2.583   2.389 -0.0860 -0.3160  0.2206
 5139SOL    HW123316   3.286   2.600   2.399  0.3469  2.0673  0.8139
 5139SOL    HW223317   3.402   2.538   2.302 -1.6658 -0.5252 -0.0157
 5140SOL     OW23318   8.177   5.251   0.710  0.1375  0.3542  0.7119
 5140SOL    HW123319   8.251   5.231   0.645  1.8339  1.7173  2.1561
 5140SOL    HW223320   8.177   5.349   0.731 -2.4483  0.4642  0.3471
 5141SOL     OW23321   0.806   0.637   0.770  0.4006 -0.4671  0.2297
 5141SOL    HW123322   0.805   0.544   0.735  0.1297 -0.8283  1.1800
 5141SOL    HW223323   0.842   0.699   0.700 -0.7588 -1.0642 -0.9239
 5143SOL     OW23324   4.359   2.101   0.964  0.2573  0.0151  0.6399
 5143SOL    HW123325   4.369   2.197   0.989  2.3941  0.5083 -1.9022
 5143SOL    HW223326   4.419   2.045   1.021  0.2096  0.3757  1.0468
 5144SOL     OW23327   9.256   2.648   1.488  0.2942 -0.1219 -0.0204
 5144SOL    HW123328   9.242   2.551   1.468  0.7854 -0.0984 -0.4918
 5144SOL    HW223329   9.197   2.676   1.564  1.1527 -1.1390  1.0421
 5145SOL     OW23330   9.883   7.020   4.353  0.2275 -0.0210 -0.6740
 5145SOL    HW123331   9.938   7.074   4.417 -1.2984  0.0800  0.5972
 5145SOL    HW223332   9.942   6.982   4.282  1.6812  1.3487 -0.2310
 5146SOL     OW23333   8.560   9.688   0.253  0.3027  0.2652 -0.3873
 5146SOL    HW123334   8.484   9.737   0.296 -0.3644 -0.3704 -0.8198
 5146SOL    HW223335   8.639   9.749   0.245 -0.0729  0.8551  0.3049
 5147SOL     OW23336   1.795   6.318   3.865  0.2013 -0.3197  0.5336
 5147SOL    HW123337   1.829   6.364   3.782  2.2763 -0.4891  1.2526
 5147SOL    HW223338   1.696   6.329   3.871  0.4780  3.0216  0.0183
 5148SOL     OW23339   4.852   0.505   3.302  0.2507  0.4460  0.5041
 5148SOL    HW123340   4.829   0.510   3.205  1.2699 -0.7950  0.1879
 5148SOL    HW223341   4.947   0.477   3.313 -0.1756 -0.5264  1.8819
 5149SOL     OW23342   0.007   7.210   3.608 -0.1155  0.1953  0.1554
 5149SOL    HW123343  -0.038   7.219   3.520 -0.0710  0.4922  0.1626
 5149SOL    HW223344  -0.062   7.205   3.681 -0.1617 -0.4914  0.0616
 5150SOL     OW23345   5.289   7.620   2.729  0.3268  0.0172 -0.5274
 5150SOL    HW123346   5.243   7.707   2.710 -2.9647 -1.4752  0.2170
 5150SOL    HW223347   5.311   7.615   2.826 -0.8737 -0.5670 -0.2702
 5152SOL     OW23348   2.559   2.445   0.201 -0.3549 -0.6247 -0.0308
 5152SOL    HW123349   2.521   2.520   0.256  0.2103 -1.3481  1.3565
 5152SOL    HW223350   2.650   2.471   0.168 -0.3680 -0.5116  0.0206
 5153SOL     OW23351   7.198   8.066   3.268 -0.5390 -0.1687 -0.1590
 5153SOL    HW123352   7.214   8.064   3.367  1.6656 -0.1671 -0.4769
 5153SOL    HW223353   7.210   7.974   3.231 -0.1564  0.0507 -0.5833
 5154SOL     OW23354   2.198   1.412   3.598 -0.4201 -0.0092  0.2097
 5154SOL    HW123355   2.275   1.456   3.552  0.8540 -1.2955  1.0480
 5154SOL    HW223356   2.146   1.358   3.532  0.0580 -0.0329 -0.1498
 5155SOL     OW23357   8.938   4.458   3.005 -0.2733  0.2733 -0.4012
 5155SOL    HW123358   8.924   4.531   2.938  1.0418  0.9251  0.0146
 5155SOL    HW223359   9.028   4.417   2.991 -0.3741 -0.2209  0.3583
 5156SOL     OW23360   4.973   8.013   4.759  0.6566  0.7121 -0.3957
 5156SOL    HW123361   4.965   7.938   4.825  0.0915 -0.1100 -1.3929
 5156SOL    HW223362   4.928   8.094   4.796 -0.7754 -0.1115 -0.3063
 5157SOL     OW23363   6.488   0.026   5.317  0.1653  0.2603 -0.2430
 5157SOL    HW123364   6.404  -0.028   5.325  0.3174  0.1294  0.6260
 5157SOL    HW223365   6.467   0.123   5.326  0.0471  0.2566 -0.4858
 5158SOL     OW23366   7.089   2.185   2.181 -0.1811 -0.0431  0.0480
 5158SOL    HW123367   7.131   2.226   2.100  0.2471  0.0635  0.3221
 5158SOL    HW223368   6.993   2.166   2.163  0.1320 -0.8613 -0.7873
 5159SOL     OW23369   8.846   9.775   2.203  0.1966 -0.0965 -0.0958
 5159SOL    HW123370   8.882   9.832   2.130 -0.7554  0.5768 -0.0381
 5159SOL    HW223371   8.912   9.702   2.223  2.7744  2.6195  1.7852
 5160SOL     OW23372   0.420   7.859   1.199 -0.0306  0.3803 -0.4407
 5160SOL    HW123373   0.462   7.845   1.288  1.4663 -0.1275 -1.2096
 5160SOL    HW223374   0.401   7.770   1.156 -0.6744  0.6210 -0.6731
 5161SOL     OW23375   9.942   1.992   2.296  0.3248 -0.3828 -0.4221
 5161SOL    HW123376   9.877   1.965   2.225 -0.6273  1.0106 -0.1006
 5161SOL    HW223377   9.902   1.973   2.386  0.0163  1.2439 -0.2104
 5163SOL     OW23378   8.001   4.697   1.630  0.3367  0.2628  0.3430
 5163SOL    HW123379   7.952   4.709   1.543 -1.2181 -0.0346  1.1593
 5163SOL    HW223380   8.056   4.613   1.626  0.7617  0.5764 -0.5695
 5164SOL     OW23381   2.795   8.492   1.208  0.0926 -0.2971  0.2263
 5164SOL    HW123382   2.812   8.394   1.202 -1.5839 -0.6182  0.2508
 5164SOL    HW223383   2.859   8.534   1.272 -0.9522 -1.8580  2.3677
 5165SOL     OW23384   0.771   2.583   0.169  0.3252  0.2604 -0.6342
 5165SOL    HW123385   0.847   2.523   0.145  1.3174  0.6739  1.3661
 5165SOL    HW223386   0.694   2.527   0.201  0.6013 -0.0387 -0.4872
 5166SOL     OW23387   6.578   8.324   2.927  0.1968  0.1117  0.1079
 5166SOL    HW123388   6.521   8.406   2.919  0.2217  0.2708  1.5502
 5166SOL    HW223389   6.520   8.244   2.941  0.2820  0.1416  0.6210
 5167SOL     OW23390   5.809   8.540   5.195  0.1785  0.9768  0.1387
 5167SOL    HW123391   5.809   8.549   5.294  0.5124  0.1315  0.2221
 5167SOL    HW223392   5.888   8.587   5.157 -0.3945  1.9937  0.2056
 5169SOL     OW23393   3.849   1.631   3.089 -0.1527  0.3005 -0.2812
 5169SOL    HW123394   3.920   1.630   3.019 -0.6576  0.4754 -0.8017
 5169SOL    HW223395   3.873   1.698   3.159  1.2513 -1.1687  0.6713
 5170SOL     OW23396   1.096   7.114   0.435  0.0523  0.2608 -0.1460
 5170SOL    HW123397   1.138   7.025   0.456  0.4852  0.1610 -1.3755
 5170SOL    HW223398   1.061   7.155   0.519  0.7570 -0.6112  0.5863
 5171SOL     OW23399   6.681   7.959   2.819  0.3764  0.0735  0.0766
 5171SOL    HW123400   6.607   7.902   2.855  0.0891  0.2529 -0.2230
 5171SOL    HW223401   6.749   7.976   2.890  1.1051 -1.6912 -0.1787
 5172SOL     OW23402   2.751   6.784   3.959  0.1779  0.1994 -0.0620
 5172SOL    HW123403   2.714   6.848   3.892  0.3228  1.9040  1.4366
 5172SOL    HW223404   2.850   6.774   3.945  0.1928  0.4922 -0.1669
 5173SOL     OW23405   2.772   2.029   0.696 -0.3390  0.3852  0.1275
 5173SOL    HW123406   2.683   2.073   0.682 -1.0038 -1.2426 -0.8900
 5173SOL    HW223407   2.783   2.006   0.792 -1.5291 -0.4264  0.0817
 5176SOL     OW23408   6.510   9.580   4.448  0.0770  0.0217 -0.6970
 5176SOL    HW123409   6.556   9.667   4.467 -0.1471 -0.0143  0.0234
 5176SOL    HW223410   6.515   9.560   4.350  0.4667  0.6555 -0.8066
 5177SOL     OW23411   7.860   4.996   0.469  0.0999  0.2789  0.3234
 5177SOL    HW123412   7.916   4.999   0.386  1.7792 -2.0131  1.3332
 5177SOL    HW223413   7.763   5.004   0.444  0.5056 -1.4645 -1.9426
 5178SOL     OW23414   7.386   4.521   0.289 -0.7238 -0.2121  0.4133
 5178SOL    HW123415   7.288   4.533   0.276 -0.5974  0.2225 -0.1748
 5178SOL    HW223416   7.416   4.436   0.246 -1.2379 -1.5793  2.6493
 5179SOL     OW23417   2.032   0.841   4.546 -0.1998  0.1116 -0.1869
 5179SOL    HW123418   2.028   0.800   4.636 -1.6260  0.1674 -0.2121
 5179SOL    HW223419   2.127   0.842   4.513  0.1373 -1.1170  0.7342
 5180SOL     OW23420   5.670   8.426   2.243 -0.2828 -0.2369 -0.4859
 5180SOL    HW123421   5.631   8.388   2.159  2.5194 -0.9798 -1.5015
 5180SOL    HW223422   5.747   8.485   2.220 -0.2162  0.4893  1.5154
 5181SOL     OW23423   9.663   3.665   3.017  0.6624  0.0250 -0.3926
 5181SOL    HW123424   9.652   3.594   3.086  0.6630  0.3825 -0.0261
 5181SOL    HW223425   9.723   3.631   2.944  3.5367  0.8566  1.5062
 5182SOL     OW23426   1.078   8.418   0.223 -0.1141  0.5564 -0.2090
 5182SOL    HW123427   0.990   8.461   0.204 -0.1543 -0.1871 -1.7761
 5182SOL    HW223428   1.145   8.449   0.155  0.4129 -0.1420 -0.0079
 5183SOL     OW23429   1.447   6.024   3.421 -0.4458  0.1134  0.4580
 5183SOL    HW123430   1.371   6.087   3.405 -0.0514 -0.0547 -2.4207
 5183SOL    HW223431   1.525   6.074   3.460 -1.2779  0.7058  1.3819
 5184SOL     OW23432   4.009   3.165   4.209 -0.0971  0.2730  0.2144
 5184SOL    HW123433   3.996   3.068   4.187  0.4887  0.3798 -0.6491
 5184SOL    HW223434   4.080   3.174   4.279 -0.6916  0.0367  0.8564
 5185SOL     OW23435   4.121   4.381   3.093 -0.0089  0.0244  0.2556
 5185SOL    HW123436   4.133   4.326   3.176  0.8116 -1.0740 -0.5741
 5185SOL    HW223437   4.210   4.416   3.064 -0.4855  1.5741  0.6078
 5186SOL     OW23438   2.710   7.810   4.414 -0.3790  0.1373  0.2488
 5186SOL    HW123439   2.646   7.733   4.415 -2.6263  1.9024 -1.0052
 5186SOL    HW223440   2.768   7.807   4.495 -1.5175 -1.9892  1.0081
 5189SOL     OW23441   4.095   4.984   2.043  0.2068  0.0790 -0.1247
 5189SOL    HW123442   4.122   4.920   1.971 -1.2162 -0.8188  0.1253
 5189SOL    HW223443   4.157   4.977   2.120  1.1681  0.3512 -0.8649
 5190SOL     OW23444   7.924   2.398   0.934 -0.0466  0.5687 -0.3623
 5190SOL    HW123445   7.934   2.352   1.022 -1.8134  1.3553  0.2699
 5190SOL    HW223446   7.964   2.490   0.939  2.3848 -0.4083 -1.2568
 5191SOL     OW23447   3.591   5.021   1.811  0.1622  0.5357  0.3416
 5191SOL    HW123448   3.670   5.016   1.873  0.7008  0.5405 -0.3416
 5191SOL    HW223449   3.564   4.928   1.785 -1.1468  0.4387  1.9298
 5192SOL     OW23450   7.775   1.361   4.393 -0.0901 -0.2175  0.4343
 5192SOL    HW123451   7.820   1.353   4.482 -0.7526 -0.2116  0.7720
 5192SOL    HW223452   7.793   1.451   4.354 -0.6814  0.1650  1.0444
 5193SOL     OW23453   1.924   6.369   4.092 -0.3562  0.2951 -0.1454
 5193SOL    HW123454   1.882   6.345   4.004 -0.1327 -1.1152  0.1282
 5193SOL    HW223455   2.015   6.329   4.098 -0.2554  0.6328  0.6129
 5194SOL     OW23456   2.949   0.740   2.263  0.3339  0.3842 -0.0574
 5194SOL    HW123457   3.001   0.758   2.347 -2.6067  0.6312  1.8118
 5194SOL    HW223458   3.012   0.715   2.189  3.1901  2.2575  1.6259
 5195SOL     OW23459   4.046   1.049   0.972  0.1454  0.0280  0.5693
 5195SOL    HW123460   3.961   1.035   0.921  0.1599 -1.4586  0.9354
 5195SOL    HW223461   4.024   1.091   1.061  0.1447  2.8001 -0.6938
 5196SOL     OW23462   0.463   3.967   1.829  0.1137 -0.2071 -0.1346
 5196SOL    HW123463   0.474   3.867   1.829 -2.1994 -0.5166 -1.8240
 5196SOL    HW223464   0.508   4.005   1.748 -1.2042 -0.2024 -0.8860
 5197SOL     OW23465   5.763   1.439   5.000  0.0459  0.3315  0.0775
 5197SOL    HW123466   5.691   1.468   4.937 -0.1449  0.5336  0.3851
 5197SOL    HW223467   5.852   1.445   4.955  0.3233  4.0329  0.9845
 5198SOL     OW23468   9.967   0.548   4.759 -0.3818  0.1147 -0.5841
 5198SOL    HW123469   9.962   0.540   4.660  0.3729 -0.3045 -0.5890
 5198SOL    HW223470  10.055   0.589   4.785 -1.0096  1.2330 -0.1464
 5199SOL     OW23471   9.534   8.251   3.564  0.1279  0.4836 -0.4043
 5199SOL    HW123472   9.614   8.199   3.532  1.1221  2.3033 -1.0028
 5199SOL    HW223473   9.560   8.347   3.575 -1.6474  0.8511  0.7269
 5200SOL     OW23474   4.372   8.125   4.084  0.4967 -0.7140 -0.3666
 5200SOL    HW123475   4.422   8.210   4.069 -1.4319  0.8509  1.6641
 5200SOL    HW223476   4.301   8.115   4.014 -0.2259  0.1235  0.2299
 5201SOL     OW23477   4.189   8.675   4.316 -0.3906 -0.0774 -0.7813
 5201SOL    HW123478   4.190   8.715   4.408  0.7479 -2.0655  0.1065
 5201SOL    HW223479   4.131   8.730   4.256 -0.1784  1.9271  0.8155
 5202SOL     OW23480   4.330   5.843   3.294  0.2909 -0.7958 -0.7027
 5202SOL    HW123481   4.392   5.764   3.301  1.1070 -0.1884 -1.0210
 5202SOL    HW223482   4.318   5.868   3.198 -1.3164 -1.5856 -0.7132
 5203SOL     OW23483   4.529   4.135   2.938  0.3923  0.3105  0.5575
 5203SOL    HW123484   4.480   4.216   2.906 -0.4925 -0.1639  0.6759
 5203SOL    HW223485   4.474   4.089   3.008  1.0582 -0.1822  0.7624
 5204SOL     OW23486   8.048   2.520   4.482 -0.0831 -0.4805 -0.2875
 5204SOL    HW123487   8.091   2.490   4.397 -1.2389 -1.2428 -0.6258
 5204SOL    HW223488   8.024   2.617   4.475 -1.5387 -0.9111 -1.4240
 5205SOL     OW23489   0.637   7.069   0.775 -0.1594  0.0733 -0.0865
 5205SOL    HW123490   0.655   7.125   0.856  0.4183  1.1818 -0.9706
 5205SOL    HW223491   0.555   7.013   0.791 -0.7392  1.1542  0.8102
 5206SOL     OW23492   1.048   4.616   3.303 -0.3716  0.5039  0.4571
 5206SOL    HW123493   1.125   4.592   3.243 -1.3235  0.4344 -0.7543
 5206SOL    HW223494   1.068   4.702   3.350  0.6891  0.1998  0.5828
 5208SOL     OW23495   6.735   7.714   4.511  0.0422 -0.4344 -0.5958
 5208SOL    HW123496   6.711   7.617   4.509  0.7931 -0.6230 -0.7831
 5208SOL    HW223497   6.793   7.736   4.433  1.9908 -0.4087  0.8075
 5209SOL     OW23498   9.058   7.587   4.442 -0.4255 -0.1495  0.6773
 5209SOL    HW123499   9.109   7.626   4.366 -1.7389 -1.1243 -0.7328
 5209SOL    HW223500   8.971   7.635   4.453 -2.0684 -2.5646 -1.0817
 5213SOL     OW23501   4.467   4.735   3.961 -0.0045  0.2903  0.0036
 5213SOL    HW123502   4.439   4.752   4.055  0.7601  0.2770  0.2288
 5213SOL    HW223503   4.385   4.733   3.902 -0.3535  1.8939  0.4181
 5215SOL     OW23504   4.454   3.390   4.966  0.8394  0.3015 -0.0099
 5215SOL    HW123505   4.497   3.331   5.034  2.9335 -0.0370 -1.5557
 5215SOL    HW223506   4.389   3.337   4.912  0.2789  0.2145  0.7483
 5217SOL     OW23507   9.648   5.093   1.543 -0.9930 -0.2241 -0.1384
 5217SOL    HW123508   9.618   5.015   1.489  2.2526 -1.5909 -0.1105
 5217SOL    HW223509   9.725   5.138   1.497 -0.5110  0.7780  1.5888
 5218SOL     OW23510   2.333   4.546   3.868  0.2241 -0.0007  0.7515
 5218SOL    HW123511   2.357   4.584   3.957 -1.3418  0.0277  1.1660
 5218SOL    HW223512   2.323   4.620   3.802  1.7180 -0.0440  0.4488
 5219SOL     OW23513   6.698   0.865   0.196 -0.0768 -0.2397  0.0909
 5219SOL    HW123514   6.751   0.788   0.160 -0.6258 -0.2350 -0.7440
 5219SOL    HW223515   6.608   0.832   0.225  0.0901 -0.1047  0.7672
 5220SOL     OW23516   6.949   1.827   2.645 -0.0697 -0.1186 -0.1511
 5220SOL    HW123517   6.865   1.786   2.681 -0.2048 -0.5107 -0.9017
 5220SOL    HW223518   7.029   1.784   2.687 -0.1905 -1.7140 -1.4975
 5221SOL     OW23519   9.762   1.900   2.082 -0.1640 -0.2606 -0.1203
 5221SOL    HW123520   9.755   1.806   2.117  2.3549 -1.8379 -3.5268
 5221SOL    HW223521   9.685   1.919   2.021 -0.1257 -0.5220 -0.2526
 5223SOL     OW23522   7.912   7.240   2.728 -0.2529  0.8110 -0.2538
 5223SOL    HW123523   7.858   7.156   2.732  0.7262  0.2391  1.5488
 5223SOL    HW223524   7.853   7.318   2.746 -0.6271  0.2548  0.9857
 5224SOL     OW23525   1.437   7.735   2.331 -0.1651  0.1268 -0.3761
 5224SOL    HW123526   1.488   7.816   2.304 -0.2499  0.0819 -0.6730
 5224SOL    HW223527   1.466   7.657   2.276  1.6642 -0.6086  1.5795
 5226SOL     OW23528   3.226   5.240   3.598  0.2741 -0.1676  0.0449
 5226SOL    HW123529   3.163   5.203   3.666  0.0155  0.9087  0.4036
 5226SOL    HW223530   3.284   5.309   3.641  0.6224 -0.0302 -0.6479
 5227SOL     OW23531   5.002   9.637   1.778 -0.0642 -0.2896  0.0621
 5227SOL    HW123532   5.094   9.606   1.753  0.0505  0.4656 -0.4720
 5227SOL    HW223533   5.008   9.706   1.850 -0.1229  0.8390 -1.0106
 5228SOL     OW23534   0.647   3.775   3.827 -0.0270 -0.1446 -0.1029
 5228SOL    HW123535   0.564   3.719   3.819  0.0398 -0.1192 -1.0368
 5228SOL    HW223536   0.718   3.722   3.873 -0.5962 -0.1334  0.7880
 5229SOL     OW23537   0.079   1.376   3.190  0.0116 -0.0182  0.0201
 5229SOL    HW123538   0.144   1.408   3.259  2.0768 -1.0963 -1.3881
 5229SOL    HW223539   0.082   1.276   3.185 -1.3967 -0.0452 -0.4361
 5230SOL     OW23540   1.124   4.487   3.928 -0.0992 -0.8972 -0.1942
 5230SOL    HW123541   1.191   4.488   3.854  0.1991  0.4235  0.0693
 5230SOL    HW223542   1.172   4.503   4.015 -0.8846  1.3373 -0.1401
 5231SOL     OW23543   0.414   7.187   4.073  0.2131  0.1814 -0.4838
 5231SOL    HW123544   0.370   7.132   4.144 -0.9064  1.1281 -0.4314
 5231SOL    HW223545   0.412   7.283   4.100  1.9987  0.2879 -0.6537
 5232SOL     OW23546   4.185   9.284   4.258 -0.1726 -0.0366  0.2393
 5232SOL    HW123547   4.181   9.186   4.239 -1.8503 -0.6139  3.2685
 5232SOL    HW223548   4.217   9.333   4.176  1.7973 -3.1800 -0.9640
 5234SOL     OW23549   4.559   1.844   2.391  0.7904 -0.0607  0.3586
 5234SOL    HW123550   4.547   1.892   2.477  0.3561  0.6508 -0.0876
 5234SOL    HW223551   4.533   1.748   2.402  0.1300  0.1734  0.8556
 5235SOL     OW23552   7.588   8.469   3.458 -0.1222  0.1252 -0.5749
 5235SOL    HW123553   7.537   8.539   3.508 -0.5081 -0.0975 -0.6541
 5235SOL    HW223554   7.526   8.396   3.431  0.3081 -0.3186 -0.3696
 5238SOL     OW23555   3.955   3.731   3.599 -0.0549 -0.3567 -0.8956
 5238SOL    HW123556   4.026   3.802   3.592  0.5355 -0.9098 -0.5826
 5238SOL    HW223557   3.994   3.649   3.641 -1.0658 -0.4173 -0.0377
 5239SOL     OW23558   3.676   5.769   2.566  0.3430  0.2359 -0.0433
 5239SOL    HW123559   3.733   5.800   2.642 -0.2801  1.1480  0.0641
 5239SOL    HW223560   3.681   5.836   2.492  0.1950 -0.1733 -0.4208
 5240SOL     OW23561   3.916   3.091   0.878  0.1539 -0.6139  0.3452
 5240SOL    HW123562   3.889   3.109   0.783  0.0633  1.7567  0.7800
 5240SOL    HW223563   4.005   3.046   0.879 -0.6147 -2.2041 -0.9010
 5241SOL     OW23564   0.936   2.947   0.505 -0.4022 -0.0166  0.2220
 5241SOL    HW123565   0.868   2.987   0.566 -1.4997  0.6919 -1.4149
 5241SOL    HW223566   1.003   3.017   0.479  0.3364 -0.4352  0.9611
 5242SOL     OW23567   2.803   6.541   0.722  0.0322  0.7922  0.2166
 5242SOL    HW123568   2.705   6.546   0.703 -0.2922  2.2459  2.0803
 5242SOL    HW223569   2.832   6.445   0.719 -1.1071  0.4755 -1.8356
 5243SOL     OW23570   8.255   7.152   4.429 -0.3945  0.0916  0.2526
 5243SOL    HW123571   8.250   7.229   4.365  0.7341  0.4130  0.5386
 5243SOL    HW223572   8.350   7.120   4.435 -0.2467  0.8844  2.7159
 5244SOL     OW23573   2.100   7.784   3.856 -0.3510  0.0965  0.1163
 5244SOL    HW123574   2.155   7.781   3.772  0.2912  0.6354  0.5120
 5244SOL    HW223575   2.110   7.873   3.899 -1.3960  0.1287  0.3028
 5245SOL     OW23576   6.062   1.416   4.035  0.0013  0.6360  0.4683
 5245SOL    HW123577   6.038   1.398   3.939  0.6644  0.3060  0.3587
 5245SOL    HW223578   5.982   1.402   4.092 -0.0119 -0.7527  0.1410
 5246SOL     OW23579   4.577   4.138   3.441  0.3602 -0.5148  0.3304
 5246SOL    HW123580   4.557   4.162   3.535  1.6322  0.9819  0.2316
 5246SOL    HW223581   4.529   4.200   3.379  2.6431  1.0101  0.0602
 5247SOL     OW23582   1.679   3.437   4.473 -0.4403 -0.5478 -0.0712
 5247SOL    HW123583   1.597   3.398   4.516 -0.2411 -0.0308  0.7947
 5247SOL    HW223584   1.707   3.379   4.397 -0.9813 -1.3216  0.3047
 5248SOL     OW23585   3.303   9.647   1.273  0.3107 -0.2546  1.1475
 5248SOL    HW123586   3.270   9.564   1.319  0.2915 -1.8242 -1.5630
 5248SOL    HW223587   3.226   9.707   1.253 -0.1109 -1.0279  0.3923
 5249SOL     OW23588   2.958   3.556   0.247  0.2219 -0.2178 -0.0098
 5249SOL    HW123589   3.019   3.513   0.314 -3.1588 -1.9290  2.0775
 5249SOL    HW223590   2.924   3.487   0.184 -1.6801  0.1986  0.5392
 5252SOL     OW23591   9.464   3.156   1.413  0.1108 -0.2870  1.1650
 5252SOL    HW123592   9.474   3.057   1.422 -0.0439 -0.3263  0.9140
 5252SOL    HW223593   9.545   3.201   1.451  1.3153 -0.6099 -0.9035
 5254SOL     OW23594   4.594   4.856   2.542  0.0361  0.1340 -0.1171
 5254SOL    HW123595   4.546   4.855   2.630  1.2194 -0.0610  0.5378
 5254SOL    HW223596   4.550   4.922   2.481 -0.5559  0.5598  0.7546
 5255SOL     OW23597   9.032   4.853   4.796 -0.1914 -0.2395 -0.2755
 5255SOL    HW123598   9.060   4.899   4.880 -0.7395  1.8559 -1.1895
 5255SOL    HW223599   9.110   4.847   4.734 -0.2664  0.0735 -0.4057
 5256SOL     OW23600   0.454   4.461   5.290  0.3990 -0.4677  0.2217
 5256SOL    HW123601   0.464   4.550   5.333  1.9220  0.1148 -1.3106
 5256SOL    HW223602   0.396   4.403   5.347 -0.1808  1.3214  1.4759
 5257SOL     OW23603   6.010   2.286   3.366  0.1738 -0.2919  0.2428
 5257SOL    HW123604   5.930   2.344   3.382  0.2590  0.6627 -2.5163
 5257SOL    HW223605   5.979   2.198   3.329  0.4595  1.1871 -3.8022
 5258SOL     OW23606   8.628   2.743   1.944  0.6973  0.0139 -0.3321
 5258SOL    HW123607   8.603   2.701   1.856 -0.5118 -2.1729  1.0070
 5258SOL    HW223608   8.707   2.694   1.983 -0.0093 -0.2932  0.7219
 5259SOL     OW23609   1.898   2.708   2.446 -0.0676 -0.0278  0.1912
 5259SOL    HW123610   1.842   2.726   2.527  1.7286  0.4505  1.3633
 5259SOL    HW223611   1.983   2.663   2.474  0.9355  0.8892 -1.3290
 5260SOL     OW23612   2.179   2.251   0.786  0.0790 -0.0313 -0.3126
 5260SOL    HW123613   2.233   2.321   0.832  0.8065  1.1907 -2.9129
 5260SOL    HW223614   2.082   2.265   0.805  0.3019  1.0110  0.0882
 5261SOL     OW23615   3.528   5.608   1.932 -0.2661 -0.5069  0.4254
 5261SOL    HW123616   3.519   5.560   2.020 -0.7111 -1.2935 -0.0437
 5261SOL    HW223617   3.439   5.614   1.888 -0.3800  1.5763  0.8862
 5262SOL     OW23618   6.327   0.761   2.141 -0.0133 -0.1061  0.8529
 5262SOL    HW123619   6.397   0.830   2.124  0.6847 -0.8883  0.4573
 5262SOL    HW223620   6.285   0.777   2.229 -0.7029  1.5307  0.2418
 5263SOL     OW23621   8.714   5.389   2.812  0.2025  1.0469  0.8699
 5263SOL    HW123622   8.710   5.412   2.715  1.2501 -1.1958  0.2532
 5263SOL    HW223623   8.630   5.419   2.857 -0.4522  1.7712 -0.8145
 5265SOL     OW23624   3.053   7.531   2.291  0.4036 -0.5263  0.0159
 5265SOL    HW123625   3.000   7.533   2.375 -0.0156 -2.4765 -0.1819
 5265SOL    HW223626   2.992   7.544   2.213  0.3877 -1.4031 -0.1279
 5266SOL     OW23627   5.195   6.134   1.815 -0.2659 -0.2009  0.7688
 5266SOL    HW123628   5.103   6.169   1.797 -0.9039 -1.4929  1.4995
 5266SOL    HW223629   5.258   6.171   1.746 -1.3137  0.7047  0.2721
 5267SOL     OW23630   9.679   5.396   4.953  0.0142  0.1387  0.3612
 5267SOL    HW123631   9.592   5.358   4.984  0.9770 -1.4717  1.1840
 5267SOL    HW223632   9.668   5.437   4.863 -2.0283  1.7069  1.2890
 5268SOL     OW23633   5.070   9.391   0.011  0.0740 -0.6079 -0.5584
 5268SOL    HW123634   5.064   9.335  -0.072 -1.4136  1.2939 -1.7860
 5268SOL    HW223635   4.998   9.460   0.010 -0.1396 -0.7242  2.4936
 5270SOL     OW23636   0.880   4.418   3.812 -0.4109  0.2574 -0.7528
 5270SOL    HW123637   0.898   4.390   3.717 -0.4198  0.1617 -0.7261
 5270SOL    HW223638   0.967   4.440   3.856 -0.1546 -1.9750 -0.0645
 5271SOL     OW23639   4.589   3.245   2.978 -0.1932  0.2740  0.1715
 5271SOL    HW123640   4.502   3.220   2.936  0.1738 -1.5200  0.4444
 5271SOL    HW223641   4.575   3.265   3.075 -0.4872  1.1053 -0.0420
 5272SOL     OW23642   8.182   3.906   5.202 -0.0706 -0.1367 -0.1219
 5272SOL    HW123643   8.154   3.811   5.192 -0.8680  0.0663  0.1388
 5272SOL    HW223644   8.111   3.966   5.165  0.0656  0.3871  0.4580
 5273SOL     OW23645   2.721   5.807   3.689 -0.7707 -0.3023  0.0686
 5273SOL    HW123646   2.704   5.886   3.630 -2.0450 -1.0509 -0.5927
 5273SOL    HW223647   2.707   5.723   3.637 -0.1035 -0.9708  0.9523
 5274SOL     OW23648   0.410   2.405   1.165  0.0911  0.1051  0.6794
 5274SOL    HW123649   0.313   2.432   1.162 -0.6416 -2.5978 -2.7535
 5274SOL    HW223650   0.438   2.371   1.076  3.9132 -0.3766  1.9816
 5277SOL     OW23651   0.713   8.773   2.339  0.5171  0.4388 -0.0730
 5277SOL    HW123652   0.615   8.786   2.323  0.1533 -1.9377  0.1501
 5277SOL    HW223653   0.751   8.857   2.380 -1.4124  1.3649 -0.1289
 5278SOL     OW23654   3.343   1.702   4.616  0.1584  0.7045 -0.2610
 5278SOL    HW123655   3.371   1.781   4.562  1.7637  1.2531  1.3236
 5278SOL    HW223656   3.254   1.720   4.659  1.2288  2.3051  1.3409
 5279SOL     OW23657   1.097   3.440   2.232 -0.4524  0.2263  0.4251
 5279SOL    HW123658   1.172   3.376   2.247 -1.0752 -1.1083 -2.0048
 5279SOL    HW223659   1.134   3.528   2.200  0.0780 -0.4597 -0.8699
 5280SOL     OW23660   2.515   6.767   4.517 -0.4155 -0.0517 -0.2541
 5280SOL    HW123661   2.434   6.711   4.536  0.4947 -1.9788 -1.8605
 5280SOL    HW223662   2.576   6.765   4.597 -1.2345  0.1516  0.3815
 5281SOL     OW23663   5.231   2.589   4.830 -0.4984 -0.0917 -0.1128
 5281SOL    HW123664   5.145   2.607   4.879 -0.9407 -0.1603 -0.8610
 5281SOL    HW223665   5.304   2.643   4.872 -0.9574  0.1675  0.3695
 5282SOL     OW23666   0.800   5.414   2.403 -0.2418  0.0059  0.5847
 5282SOL    HW123667   0.781   5.317   2.386 -0.7353  0.4170 -1.3143
 5282SOL    HW223668   0.899   5.429   2.405 -0.1759 -0.2779 -0.6342
 5283SOL     OW23669   2.767   8.655   4.240  0.0177  0.3955  0.2412
 5283SOL    HW123670   2.734   8.570   4.200 -0.9502  0.4184  0.9910
 5283SOL    HW223671   2.820   8.705   4.171  1.0334 -1.0343 -0.0521
 5285SOL     OW23672   2.969   1.095   1.717  0.7146 -0.6935  0.0950
 5285SOL    HW123673   3.041   1.077   1.784 -0.0406 -1.1256  0.8013
 5285SOL    HW223674   2.934   1.188   1.730  1.1585 -0.4782 -0.2590
 5286SOL     OW23675   1.235   7.421   0.172  0.8422 -0.2370 -0.1214
 5286SOL    HW123676   1.220   7.370   0.087  0.2927  0.2056 -0.2870
 5286SOL    HW223677   1.331   7.452   0.175  0.6673  0.3897 -0.9316
 5287SOL     OW23678   1.036   0.687   1.436  0.5716 -0.3848  0.2871
 5287SOL    HW123679   1.023   0.726   1.527 -0.0660 -0.1220  0.0870
 5287SOL    HW223680   1.133   0.683   1.415  0.6173  2.5395 -0.3078
 5289SOL     OW23681   2.588   6.423   2.891  0.0785 -0.0976 -0.2718
 5289SOL    HW123682   2.625   6.506   2.932 -0.1535  0.3020 -0.8597
 5289SOL    HW223683   2.660   6.375   2.841  0.5022 -0.8975  1.0884
 5291SOL     OW23684   4.641   9.742   0.875  0.5353 -0.0065  0.2462
 5291SOL    HW123685   4.624   9.646   0.852  0.4365  0.1342 -0.2675
 5291SOL    HW223686   4.734   9.752   0.910  0.6022 -0.2671  0.1453
 5292SOL     OW23687   8.903   1.980   2.495  0.2063 -1.1577 -0.2318
 5292SOL    HW123688   8.969   2.034   2.548 -1.0428 -1.1651  1.3583
 5292SOL    HW223689   8.863   1.910   2.553 -2.1318 -0.3433 -0.8224
 5295SOL     OW23690   3.686   8.266   0.128 -0.1318 -0.0487 -0.0219
 5295SOL    HW123691   3.688   8.365   0.114 -0.1955  0.0250  0.4878
 5295SOL    HW223692   3.595   8.240   0.161 -0.6764 -0.5083 -1.8271
 5296SOL     OW23693   0.130   2.869   4.405 -0.0604  0.4335  0.2212
 5296SOL    HW123694   0.051   2.929   4.389 -0.5457 -0.0732  0.6971
 5296SOL    HW223695   0.105   2.798   4.471  1.1909  1.0465  1.3686
 5297SOL     OW23696   2.384   6.097   0.401 -0.5480 -0.2447  0.0753
 5297SOL    HW123697   2.299   6.053   0.430 -1.1928  0.5484 -0.6059
 5297SOL    HW223698   2.424   6.045   0.325 -0.0167 -1.0444  0.8791
 5298SOL     OW23699   7.818   0.155   0.664  0.3106  0.0683 -0.2060
 5298SOL    HW123700   7.736   0.098   0.677 -0.7518  1.5103 -0.5297
 5298SOL    HW223701   7.832   0.212   0.745  0.5596  0.3784 -0.4653
 5299SOL     OW23702   2.469   9.998   3.110  0.0299  0.4637  0.0948
 5299SOL    HW123703   2.455   9.963   3.017  1.0446  2.0320 -0.6657
 5299SOL    HW223704   2.536   9.941   3.157 -0.5497 -0.3867 -0.0897
 5300SOL     OW23705   1.428   1.208   1.667 -0.2239  0.2463 -0.7927
 5300SOL    HW123706   1.382   1.152   1.598 -1.2034 -0.5829  0.5053
 5300SOL    HW223707   1.401   1.304   1.655  1.8007  0.5345 -3.2925
 5301SOL     OW23708   1.076   7.882   1.234  0.1344 -0.1149 -0.0589
 5301SOL    HW123709   1.001   7.851   1.292  0.7184 -0.3527  0.5722
 5301SOL    HW223710   1.103   7.975   1.261 -1.8839  1.1433 -2.2090
 5302SOL     OW23711   4.430   4.640   3.494  0.0944 -0.2056  0.2966
 5302SOL    HW123712   4.507   4.695   3.528 -0.5687  0.9359 -0.0275
 5302SOL    HW223713   4.411   4.566   3.558  1.6942 -0.7155  0.2077
 5305SOL     OW23714   8.301   5.205   3.065 -0.0221  0.5763 -0.4550
 5305SOL    HW123715   8.212   5.243   3.090 -0.0936  0.1116  0.0192
 5305SOL    HW223716   8.367   5.224   3.137  0.0584  0.2156 -0.4320
 5306SOL     OW23717   8.184   5.725   5.033  0.6282 -0.0576  1.1436
 5306SOL    HW123718   8.148   5.712   5.125 -1.0272 -2.0321  0.2510
 5306SOL    HW223719   8.165   5.818   5.003  0.3500  0.3178  2.4385
 5307SOL     OW23720   6.469   0.906   4.624  0.0632 -0.3453  0.1682
 5307SOL    HW123721   6.420   0.885   4.539 -1.5106 -0.2115  1.0269
 5307SOL    HW223722   6.542   0.839   4.638 -1.2430 -1.8315 -0.0397
 5309SOL     OW23723   6.378   4.968   0.725  0.3027 -0.5767 -0.1198
 5309SOL    HW123724   6.401   4.993   0.631 -2.6320  1.7622 -0.2976
 5309SOL    HW223725   6.292   4.917   0.726  0.9099 -1.6066  1.2023
 5310SOL     OW23726   9.493   2.035   3.767 -0.0868  0.6275 -0.2583
 5310SOL    HW123727   9.505   2.011   3.863 -0.7094 -2.0372 -0.8224
 5310SOL    HW223728   9.581   2.056   3.726  0.1657  1.9215  0.9075
 5311SOL     OW23729   0.597   3.975   2.913  0.0662 -0.4961 -0.3107
 5311SOL    HW123730   0.520   4.037   2.924 -0.1981 -0.8236 -0.2927
 5311SOL    HW223731   0.569   3.882   2.937  0.6170 -0.5307  0.2321
 5312SOL     OW23732   5.503   9.124   3.992  0.8454 -0.2671  0.4267
 5312SOL    HW123733   5.446   9.043   4.002 -0.1024  0.2197 -0.8313
 5312SOL    HW223734   5.525   9.161   4.083 -1.3954 -0.1020  0.9499
 5313SOL     OW23735   2.182   4.835   0.909  0.0354 -0.1996 -0.1718
 5313SOL    HW123736   2.167   4.905   0.839 -0.3203 -0.1104 -0.0100
 5313SOL    HW223737   2.098   4.824   0.963  0.9588  1.2726  1.6369
 5314SOL     OW23738   4.702   6.964   2.531  0.0460  0.0089 -0.0989
 5314SOL    HW123739   4.618   7.016   2.510  0.1477  0.1112 -0.2586
 5314SOL    HW223740   4.780   7.026   2.529  0.2179 -0.2176 -0.6667
 5315SOL     OW23741   9.908   9.731   1.312 -0.4240 -0.5654  0.2352
 5315SOL    HW123742   9.808   9.725   1.305 -0.4685  0.2843  0.0969
 5315SOL    HW223743   9.948   9.707   1.223 -0.6090  1.2250 -0.3581
 5316SOL     OW23744   3.702   8.597   4.380 -0.2490 -0.0932  0.2458
 5316SOL    HW123745   3.766   8.600   4.457  0.3204 -1.6956 -0.1443
 5316SOL    HW223746   3.708   8.507   4.335 -2.5633 -0.1715  0.0282
 5317SOL     OW23747   7.273   1.929   1.126  0.3354 -0.3107  0.1201
 5317SOL    HW123748   7.370   1.915   1.108  0.6452 -1.4950  2.4855
 5317SOL    HW223749   7.247   1.880   1.210 -2.5800 -1.0526 -1.1593
 5319SOL     OW23750   2.108   4.814   0.504 -0.3189 -0.3836  0.1242
 5319SOL    HW123751   2.054   4.815   0.420 -1.1252 -0.2713  0.6353
 5319SOL    HW223752   2.073   4.742   0.565 -0.5209  0.3340  0.8627
 5320SOL     OW23753   3.469   4.637   1.612 -0.5799  0.3540  0.3591
 5320SOL    HW123754   3.561   4.671   1.633 -0.5509  1.2832 -1.2354
 5320SOL    HW223755   3.413   4.641   1.695  0.8457 -0.3997  1.3973
 5321SOL     OW23756   4.901   9.974   1.550 -0.4812  0.5058 -0.6863
 5321SOL    HW123757   4.824   9.935   1.500 -0.4324  1.7005 -1.7129
 5321SOL    HW223758   4.912  10.070   1.526  0.6468  0.6442  0.2936
 5322SOL     OW23759   3.312   4.250   2.273 -0.3185  0.5146 -0.6507
 5322SOL    HW123760   3.293   4.229   2.177 -0.8379  1.6528 -0.8024
 5322SOL    HW223761   3.409   4.269   2.284 -0.2687  0.4459 -0.9583
 5323SOL     OW23762   3.095   2.956   3.851  0.5098  0.4792 -0.3174
 5323SOL    HW123763   3.080   3.039   3.906 -0.2698 -0.2868  0.6307
 5323SOL    HW223764   3.161   2.897   3.897 -0.1541 -0.1701 -0.1911
 5325SOL     OW23765   7.206   7.974   4.725  0.2809  0.3134  0.0778
 5325SOL    HW123766   7.206   7.964   4.824 -0.3290  2.1095  0.2747
 5325SOL    HW223767   7.113   7.963   4.691  0.4175  0.1396 -0.2403
 5326SOL     OW23768   6.396   9.348   2.049  0.3222  0.1852 -0.3396
 5326SOL    HW123769   6.380   9.376   1.954  2.3755 -0.4445 -0.8958
 5326SOL    HW223770   6.478   9.393   2.084  0.6357 -1.0109  0.5206
 5327SOL     OW23771   4.321   9.327   4.039  0.2285 -0.1492  0.2428
 5327SOL    HW123772   4.393   9.384   3.998 -0.2321  0.2976  0.0439
 5327SOL    HW223773   4.250   9.310   3.971  0.9755 -2.0414 -0.0875
 5328SOL     OW23774   2.312   5.554   1.535 -0.2309  0.4602 -0.0819
 5328SOL    HW123775   2.237   5.544   1.470 -0.2342  0.8294 -0.1355
 5328SOL    HW223776   2.293   5.499   1.616  0.4749 -1.1737 -1.0118
 5329SOL     OW23777   4.364   3.950   5.042 -0.1013  0.6641 -0.6882
 5329SOL    HW123778   4.422   3.870   5.028 -1.0798 -0.0748 -0.6067
 5329SOL    HW223779   4.402   4.006   5.115  1.0046  0.6759 -1.2573
 5331SOL     OW23780   3.058   1.663   4.334 -0.2210 -0.0034  0.2718
 5331SOL    HW123781   3.126   1.621   4.274  0.8557  1.4465  0.4179
 5331SOL    HW223782   3.045   1.606   4.415 -0.3913 -1.1113 -0.5382
 5332SOL     OW23783   0.906   3.019   1.105 -0.4651 -0.2917  0.9690
 5332SOL    HW123784   0.959   2.967   1.038 -0.4366  1.7918 -0.6774
 5332SOL    HW223785   0.969   3.065   1.168 -0.4080  0.2760  0.4910
 5333SOL     OW23786   8.213   2.572   2.689  0.2841  0.3686  0.3715
 5333SOL    HW123787   8.311   2.585   2.703  0.5079 -0.9195  0.0553
 5333SOL    HW223788   8.188   2.603   2.597  0.3539  0.8570  0.5130
 5334SOL     OW23789   2.784   1.709   3.495 -0.7916 -0.4706  0.0546
 5334SOL    HW123790   2.731   1.634   3.534  0.3754 -1.0883  0.4570
 5334SOL    HW223791   2.722   1.785   3.471 -1.5464 -0.1872  2.7952
 5335SOL     OW23792   0.030   0.566   2.324 -0.2720 -0.1772 -0.1356
 5335SOL    HW123793   0.024   0.477   2.369  0.1316  0.1504  0.5863
 5335SOL    HW223794  -0.060   0.592   2.290 -0.1798 -1.3400 -1.3126
 5336SOL     OW23795   8.754   1.327   0.622  0.3840  0.1250  0.9539
 5336SOL    HW123796   8.672   1.346   0.568  0.0373 -1.4903  0.8805
 5336SOL    HW223797   8.831   1.309   0.561  0.0952 -1.2619  0.9828
 5337SOL     OW23798   5.023   7.098   3.416  0.0590  0.4287  0.2850
 5337SOL    HW123799   5.114   7.115   3.377  0.8304  1.0619  2.3294
 5337SOL    HW223800   4.982   7.018   3.372  1.9057 -0.3004 -0.1204
 5338SOL     OW23801   1.940   3.341   2.071  0.4293  0.1326 -0.1148
 5338SOL    HW123802   1.952   3.434   2.037  1.2601 -0.5973 -1.8587
 5338SOL    HW223803   2.023   3.312   2.120  0.2696  0.2125  0.2055
 5339SOL     OW23804   2.084   5.052   4.196  0.4733  0.1144 -0.2403
 5339SOL    HW123805   2.142   4.976   4.227  1.9974  0.9458 -0.9833
 5339SOL    HW223806   2.081   5.053   4.096  0.4016  0.9826 -0.2322
 5341SOL     OW23807   2.088   3.614   4.334  0.4693 -0.0092 -0.2575
 5341SOL    HW123808   2.138   3.530   4.311  0.5725  0.2622 -1.0242
 5341SOL    HW223809   2.100   3.681   4.262  0.9929  0.9450  0.7029
 5342SOL     OW23810   0.107   3.455   0.568 -0.4656  0.1336 -0.1516
 5342SOL    HW123811   0.042   3.530   0.575  0.6180  1.1929 -1.2173
 5342SOL    HW223812   0.200   3.490   0.580  0.1400 -0.7962 -1.9161
 5344SOL     OW23813   1.327   6.544   1.519  0.5109 -0.3036  0.2252
 5344SOL    HW123814   1.309   6.616   1.586 -0.4860 -0.1979 -0.1515
 5344SOL    HW223815   1.414   6.500   1.541  2.4140  2.7001 -1.0420
 5345SOL     OW23816   9.263   9.136   4.496 -0.2124  0.2469  0.0194
 5345SOL    HW123817   9.327   9.114   4.569  0.8556  5.0135  0.7267
 5345SOL    HW223818   9.177   9.170   4.535 -0.0488  1.7709 -0.8844
 5346SOL     OW23819   4.098   9.233   1.226 -0.1970 -0.0245  0.4514
 5346SOL    HW123820   4.059   9.189   1.307 -1.3010 -0.1276 -0.1407
 5346SOL    HW223821   4.145   9.317   1.255  1.2265 -1.1350  1.4686
 5347SOL     OW23822   3.871   1.015   0.644  0.6999  0.3854  0.0424
 5347SOL    HW123823   3.805   1.059   0.583  0.1386 -0.4675  0.0306
 5347SOL    HW223824   3.826   0.989   0.729  0.7238 -1.2931 -0.4411
 5348SOL     OW23825   7.572   0.750   2.279 -0.3799  0.2096 -0.0788
 5348SOL    HW123826   7.613   0.746   2.188  0.8755  2.2730  0.3382
 5348SOL    HW223827   7.490   0.806   2.276 -0.1527  0.5573  0.1033
 5349SOL     OW23828   9.278   5.037   0.528  0.2902 -0.3020  0.0302
 5349SOL    HW123829   9.186   5.011   0.498  0.2915  0.5609 -0.7456
 5349SOL    HW223830   9.344   5.018   0.455  0.3897  1.2138 -0.2951
 5350SOL     OW23831   3.055   2.966   0.395 -0.0169 -0.4685 -0.4140
 5350SOL    HW123832   3.015   2.929   0.479 -0.4997 -1.1837 -0.9511
 5350SOL    HW223833   3.084   3.060   0.411 -1.2328 -0.1807  0.2049
 5351SOL     OW23834   4.008   4.853   4.182  0.3485  0.3002  0.2717
 5351SOL    HW123835   3.914   4.868   4.213  0.5792  1.6944  0.3401
 5351SOL    HW223836   4.032   4.756   4.193 -0.7728  0.1037  1.1030
 5352SOL     OW23837   3.606   1.173   4.296 -0.4024  0.3309 -0.5251
 5352SOL    HW123838   3.585   1.263   4.334 -0.5470  1.0717 -2.2902
 5352SOL    HW223839   3.691   1.139   4.335  1.3928  2.7143 -2.2271
 5353SOL     OW23840   3.316   4.753   1.420 -0.2891  0.3716  0.7814
 5353SOL    HW123841   3.361   4.701   1.492 -1.6240 -0.7819  0.8019
 5353SOL    HW223842   3.286   4.692   1.348 -2.6265  0.9667  1.1990
 5354SOL     OW23843   1.523   8.888   2.468  0.1536 -0.0012 -0.0123
 5354SOL    HW123844   1.450   8.850   2.524  1.2567 -0.4375  1.1760
 5354SOL    HW223845   1.516   8.988   2.467  0.4943  0.0467  1.4580
 5355SOL     OW23846   3.771   0.189   3.833 -0.1636  0.3115 -0.0755
 5355SOL    HW123847   3.769   0.099   3.875 -1.0994 -0.2898 -1.3929
 5355SOL    HW223848   3.786   0.180   3.735  0.9543  1.6549 -0.0469
 5357SOL     OW23849   4.013   9.386   5.185  0.3718  0.4535  0.8876
 5357SOL    HW123850   3.977   9.364   5.275  0.8652 -1.8802  0.5611
 5357SOL    HW223851   3.938   9.408   5.123 -0.3150 -1.5083  0.9639
 5358SOL     OW23852   9.504   5.776   1.566  0.7079  0.0675  0.1242
 5358SOL    HW123853   9.417   5.818   1.589  1.2006  1.5576 -0.6863
 5358SOL    HW223854   9.518   5.695   1.624  0.1144  1.4341  2.2465
 5360SOL     OW23855   7.421   1.497   3.278  0.5266  0.8828 -0.0428
 5360SOL    HW123856   7.492   1.499   3.208 -0.9374 -1.9580 -1.6734
 5360SOL    HW223857   7.348   1.561   3.253 -0.4579 -0.8341 -1.6840
 5361SOL     OW23858   5.466   8.511   0.098  0.2656 -0.3237 -0.2011
 5361SOL    HW123859   5.420   8.488   0.184  0.3737 -2.9376 -0.7894
 5361SOL    HW223860   5.528   8.437   0.073  2.2186  1.5967 -1.2099
 5362SOL     OW23861   5.018   9.958   5.162  0.0496  0.1474  0.0385
 5362SOL    HW123862   5.101   9.931   5.210 -0.2039 -0.4556  0.1476
 5362SOL    HW223863   5.022  10.055   5.139  0.5558  0.2364  0.4997
 5363SOL     OW23864   1.406   0.022   3.466 -0.2431  0.0764 -0.7122
 5363SOL    HW123865   1.369   0.072   3.544 -1.3276  0.2907 -1.3608
 5363SOL    HW223866   1.346   0.032   3.388  0.7078 -0.3516 -1.5161
 5364SOL     OW23867   9.195   5.438   1.528 -0.1757  0.4834  0.3491
 5364SOL    HW123868   9.123   5.369   1.521  0.5807 -0.1360 -1.7174
 5364SOL    HW223869   9.251   5.420   1.609 -0.2326 -1.0970  0.0537
 5365SOL     OW23870   1.651   7.283   3.954  0.2066 -0.4869  0.2289
 5365SOL    HW123871   1.578   7.338   3.914  0.2628 -0.7333 -0.2146
 5365SOL    HW223872   1.656   7.195   3.907  0.8892 -0.4097  0.1498
 5366SOL     OW23873   3.610   3.985   3.554 -0.2236 -0.5058 -0.7361
 5366SOL    HW123874   3.688   4.015   3.499  0.0422  0.8820  0.3731
 5366SOL    HW223875   3.547   4.061   3.569  0.0194 -0.6805  1.3761
 5368SOL     OW23876   2.476   5.898   1.929  0.8587 -0.5594 -0.8376
 5368SOL    HW123877   2.480   5.846   2.014  0.5457  0.6731 -0.0682
 5368SOL    HW223878   2.569   5.922   1.900  0.8594  1.1924  0.5139
 5369SOL     OW23879   3.939   9.717   0.696 -0.3739 -0.3448 -0.0211
 5369SOL    HW123880   3.881   9.661   0.637 -0.6178 -0.4423  0.3094
 5369SOL    HW223881   4.009   9.659   0.739  0.3439 -0.1209 -0.8856
 5371SOL     OW23882   9.856   1.669   1.094  0.0081 -0.2385 -0.3723
 5371SOL    HW123883   9.894   1.692   1.184  2.4836 -0.3263 -1.3544
 5371SOL    HW223884   9.790   1.739   1.067  0.0837  0.3876  1.0094
 5372SOL     OW23885   7.661   1.322   3.207 -0.3421 -0.0134  0.0984
 5372SOL    HW123886   7.587   1.294   3.269 -0.9355 -1.1317 -1.0790
 5372SOL    HW223887   7.669   1.255   3.134  2.7857 -0.6573  0.9498
 5373SOL     OW23888   0.771   4.151   3.566 -0.1656 -0.4681  0.3951
 5373SOL    HW123889   0.721   4.202   3.636  2.3707  0.5108  1.5440
 5373SOL    HW223890   0.794   4.212   3.491  0.5968 -0.5482  0.5619
 5374SOL     OW23891   7.981   8.784   2.010  0.1628 -0.5914 -0.3990
 5374SOL    HW123892   8.069   8.739   2.021  0.7120  0.6089  0.2101
 5374SOL    HW223893   7.921   8.759   2.086 -0.3586 -2.1526 -1.3093
 5375SOL     OW23894   0.028   0.402   5.209  0.2736  0.3501  0.2006
 5375SOL    HW123895  -0.011   0.330   5.266  0.4478 -0.5279 -0.7870
 5375SOL    HW223896   0.035   0.487   5.263  1.5895 -0.7820  1.8537
 5376SOL     OW23897   9.741   0.367   2.115  0.2987 -0.2865 -0.5372
 5376SOL    HW123898   9.772   0.427   2.188  0.5718 -1.9041  0.7095
 5376SOL    HW223899   9.641   0.375   2.105  0.2419 -0.1863  0.1231
 5378SOL     OW23900   8.762   1.273   3.592  0.4136 -0.2968 -0.2624
 5378SOL    HW123901   8.821   1.235   3.663 -0.9085 -0.9813  0.4966
 5378SOL    HW223902   8.745   1.370   3.611  0.1628 -0.4471  0.2858
 5379SOL     OW23903   3.050   6.894   0.221 -0.0217  0.0742  0.2284
 5379SOL    HW123904   3.142   6.913   0.253 -0.4307  1.8932  0.3579
 5379SOL    HW223905   2.988   6.884   0.299  0.1732 -1.8836  0.1720
 5380SOL     OW23906   4.222   0.703   2.312 -0.3103  0.5895  0.7754
 5380SOL    HW123907   4.148   0.763   2.338 -0.5640  0.4031  0.4904
 5380SOL    HW223908   4.246   0.719   2.216 -1.2942 -0.7076  0.2997
 5382SOL     OW23909   4.856   3.781   2.672  0.1122 -0.4664  0.6808
 5382SOL    HW123910   4.874   3.876   2.648  0.7906 -0.2407  2.0036
 5382SOL    HW223911   4.940   3.727   2.661 -0.6166 -1.2253 -1.4253
 5383SOL     OW23912   8.227   9.753   0.679 -0.5655 -0.1981  0.4785
 5383SOL    HW123913   8.251   9.711   0.767  1.7402  0.0430 -0.0022
 5383SOL    HW223914   8.187   9.843   0.695  1.1166  0.4307  1.2645
 5384SOL     OW23915   4.507   8.376   4.885  0.6962  0.2798 -0.2206
 5384SOL    HW123916   4.580   8.399   4.821  1.4959  1.2293  0.9999
 5384SOL    HW223917   4.420   8.412   4.852  1.0745  0.6356 -0.8358
 5385SOL     OW23918   7.968   9.157   3.241  0.2284  0.0249 -0.4819
 5385SOL    HW123919   7.916   9.132   3.323 -0.8346  0.5430 -0.9861
 5385SOL    HW223920   8.044   9.217   3.267 -0.1550  0.2572  0.1226
 5386SOL     OW23921   9.610   0.492   5.156 -0.2796  0.2920  0.0868
 5386SOL    HW123922   9.632   0.440   5.239 -2.4439 -0.6549  0.1083
 5386SOL    HW223923   9.601   0.429   5.079 -2.3276  0.6790 -0.0119
 5388SOL     OW23924   2.208   5.178   3.433 -0.2297 -0.1569 -0.2695
 5388SOL    HW123925   2.267   5.256   3.453  0.0484 -0.0961 -1.2662
 5388SOL    HW223926   2.204   5.165   3.334  0.2318 -1.7909 -0.0804
 5389SOL     OW23927   0.275   3.360   3.907 -1.1148  0.1811  0.3202
 5389SOL    HW123928   0.193   3.391   3.954 -0.3846  1.7634  0.5737
 5389SOL    HW223929   0.249   3.299   3.832 -2.4455 -0.1376  1.0258
 5391SOL     OW23930   5.746   8.974   0.051  0.6834 -0.3629  0.0694
 5391SOL    HW123931   5.714   8.880   0.034 -0.3200  0.2885 -1.7353
 5391SOL    HW223932   5.693   9.014   0.126  1.4535 -1.4031  1.1819
 5392SOL     OW23933   4.487   7.380   1.805 -0.0916 -0.4154  0.1236
 5392SOL    HW123934   4.518   7.286   1.821 -1.4297 -0.3838  3.1792
 5392SOL    HW223935   4.408   7.378   1.744 -0.7333 -1.3693  0.9679
 5394SOL     OW23936   2.289   1.768   5.008  0.0079  0.3799 -0.2297
 5394SOL    HW123937   2.329   1.689   5.053  0.4105 -0.3342 -1.8233
 5394SOL    HW223938   2.241   1.824   5.076  2.4892  0.5228  1.4755
 5395SOL     OW23939   7.863   7.595   4.926  0.3145  0.6003 -0.2729
 5395SOL    HW123940   7.788   7.661   4.935  1.3688  1.6817  0.8479
 5395SOL    HW223941   7.892   7.565   5.017  1.5610  0.5928 -0.6633
 5396SOL     OW23942   1.803   0.415   3.066  0.0357  0.7238 -0.0689
 5396SOL    HW123943   1.709   0.449   3.076  0.7306  2.3642  0.9749
 5396SOL    HW223944   1.867   0.484   3.100  1.5015 -1.4324  1.6268
 5397SOL     OW23945   8.920   9.824   1.368 -0.0656 -0.1995  0.6000
 5397SOL    HW123946   8.990   9.883   1.411 -0.0982 -1.3286  2.2387
 5397SOL    HW223947   8.844   9.811   1.431 -1.0478 -0.2801 -0.5798
 5398SOL     OW23948   2.759   5.917   1.984  0.2443  0.0291 -0.8738
 5398SOL    HW123949   2.826   5.986   2.012 -0.0470 -0.1980  0.4204
 5398SOL    HW223950   2.765   5.838   2.046  0.3848 -0.9918 -2.1806
 5399SOL     OW23951   7.855   0.483   2.272 -0.3268  0.1802 -0.0428
 5399SOL    HW123952   7.879   0.386   2.264  0.6282  0.2323  1.9492
 5399SOL    HW223953   7.757   0.495   2.257 -0.5110 -1.1454  0.0581
 5400SOL     OW23954   3.155   7.991   1.043  0.2315 -0.2365 -0.7085
 5400SOL    HW123955   3.067   8.038   1.035  0.6891  0.4661 -1.6908
 5400SOL    HW223956   3.140   7.892   1.046 -0.6214 -0.0964 -0.4130
 5402SOL     OW23957   1.403   4.192   3.555 -0.3518 -0.1236  0.3241
 5402SOL    HW123958   1.345   4.260   3.599 -1.7619 -1.1896  0.1467
 5402SOL    HW223959   1.429   4.225   3.464  0.7363  1.0917  1.0491
 5404SOL     OW23960   9.929   8.670   0.661 -0.4612 -0.4501 -0.1498
 5404SOL    HW123961   9.891   8.578   0.669 -0.4770 -0.3168  1.3577
 5404SOL    HW223962   9.985   8.690   0.741  1.4789 -0.0234 -1.5841
 5405SOL     OW23963   5.285   0.508   3.494  0.2293  0.5279  0.0134
 5405SOL    HW123964   5.211   0.479   3.555  0.6444  0.1256  0.3290
 5405SOL    HW223965   5.287   0.449   3.413  0.7955 -0.0567  0.4479
 5406SOL     OW23966   0.991   0.576   0.981 -0.2606 -0.0437 -0.1196
 5406SOL    HW123967   0.900   0.600   0.946 -0.5676 -2.0192 -0.7403
 5406SOL    HW223968   1.061   0.617   0.923 -0.7541  0.3955 -0.4135
 5408SOL     OW23969   2.307   0.607   5.216 -0.0323  0.2232 -0.7172
 5408SOL    HW123970   2.378   0.591   5.285 -0.1353  2.3433 -0.0798
 5408SOL    HW223971   2.341   0.578   5.126  1.4226  0.6964 -0.3348
 5411SOL     OW23972   4.269   7.638   3.430  0.2627 -0.5329 -0.1472
 5411SOL    HW123973   4.214   7.581   3.491  1.5887 -0.7092  0.8897
 5411SOL    HW223974   4.363   7.603   3.427  0.5474  0.2992 -1.2129
 5412SOL     OW23975   6.548   0.993   1.212  0.0156 -0.0463 -0.4810
 5412SOL    HW123976   6.639   0.958   1.188  0.8237  1.0710  0.8514
 5412SOL    HW223977   6.513   0.942   1.291  0.3874  0.8939  0.2959
 5413SOL     OW23978   8.842   4.946   0.193  0.1547 -0.0251 -0.2153
 5413SOL    HW123979   8.900   4.918   0.270 -0.4782 -1.3543 -0.2204
 5413SOL    HW223980   8.872   5.036   0.161  0.6398  0.3974  1.3640
 5414SOL     OW23981   4.761   0.382   5.023 -0.1455  0.1077 -0.1261
 5414SOL    HW123982   4.703   0.463   5.014 -0.6096 -0.3667 -1.5108
 5414SOL    HW223983   4.712   0.311   5.073  0.8664  1.2365  2.5687
 5417SOL     OW23984   8.478   7.118   3.118 -0.1700 -0.3483 -0.0830
 5417SOL    HW123985   8.537   7.114   3.038  0.3939 -0.1485  0.3212
 5417SOL    HW223986   8.532   7.104   3.200 -0.6818 -0.1484  0.2917
 5419SOL     OW23987   4.663   9.167   2.945 -0.2418  0.1178 -0.1478
 5419SOL    HW123988   4.667   9.139   2.849  0.5899  0.1925 -0.1365
 5419SOL    HW223989   4.732   9.238   2.962 -0.1878 -0.1032  0.5707
 5420SOL     OW23990   4.209   3.167   2.484 -0.3919 -0.0760  0.4861
 5420SOL    HW123991   4.156   3.085   2.464  0.3458 -0.3922 -0.2113
 5420SOL    HW223992   4.158   3.248   2.455 -0.4830 -0.3811 -0.2284
 5421SOL     OW23993   0.838   5.528   0.142 -0.2450  0.1950 -0.2346
 5421SOL    HW123994   0.765   5.496   0.203  2.0048 -2.8380  0.9812
 5421SOL    HW223995   0.811   5.511   0.047 -2.2218  1.5469  0.0612
 5424SOL     OW23996   8.064   9.608   1.844  0.0169  0.2695 -0.2384
 5424SOL    HW123997   8.050   9.630   1.748  1.6448  3.9115  0.2729
 5424SOL    HW223998   7.980   9.626   1.895 -0.4207 -0.3261 -0.7401
 5426SOL     OW23999   4.581   8.904   1.907 -0.1232  0.2336 -0.0020
 5426SOL    HW124000   4.597   8.916   1.809  0.5083 -0.2509  0.0363
 5426SOL    HW224001   4.667   8.882   1.953 -0.6330 -0.8956  0.4519
 5428SOL     OW24002   6.377   9.630   4.846  0.1644  0.5687  0.5116
 5428SOL    HW124003   6.389   9.546   4.792  2.1467  1.2319 -0.1063
 5428SOL    HW224004   6.459   9.646   4.901 -0.4488  1.7917  1.0826
 5429SOL     OW24005   0.261   2.397   3.762  0.7941  0.4617  0.1934
 5429SOL    HW124006   0.326   2.472   3.755  0.1502  0.8609 -1.7539
 5429SOL    HW224007   0.168   2.433   3.760  0.4497 -0.4517 -2.1121
 5431SOL     OW24008   6.707   4.144   0.107 -0.3406 -0.0804  0.2829
 5431SOL    HW124009   6.676   4.234   0.076 -0.9522  0.0459  1.2434
 5431SOL    HW224010   6.645   4.109   0.178  0.4868 -0.7848  0.6743
 5432SOL     OW24011   8.664   2.063   4.567  0.3063  0.2710 -0.3621
 5432SOL    HW124012   8.697   2.045   4.474  0.0240  1.0095 -0.6085
 5432SOL    HW224013   8.641   2.160   4.575 -1.8427 -0.2268 -0.2001
 5433SOL     OW24014   0.367   4.220   1.894 -0.5500 -0.2902 -0.1580
 5433SOL    HW124015   0.367   4.260   1.802 -1.8835 -0.4737 -0.2554
 5433SOL    HW224016   0.381   4.121   1.887 -0.8736 -0.3345 -0.1795
 5434SOL     OW24017   1.679   4.238   2.730 -0.0007 -0.3966 -0.6086
 5434SOL    HW124018   1.763   4.228   2.783 -0.2804 -0.1564 -0.1109
 5434SOL    HW224019   1.639   4.328   2.748 -0.5486 -0.6422 -0.5733
 5436SOL     OW24020   2.881   6.600   5.137 -0.7647  0.2044  0.7522
 5436SOL    HW124021   2.884   6.537   5.059  1.5623  1.3183 -0.1277
 5436SOL    HW224022   2.854   6.551   5.219  1.7738 -2.1616  0.2532
 5438SOL     OW24023   7.812   3.553   5.300  0.5434 -0.3580 -0.3407
 5438SOL    HW124024   7.815   3.506   5.388  2.5776 -0.3694 -0.4007
 5438SOL    HW224025   7.823   3.487   5.226 -0.5216 -0.2638 -0.6018
 5439SOL     OW24026   2.804   5.582   1.864  0.2407  0.1451  0.5704
 5439SOL    HW124027   2.855   5.652   1.815  0.6949  0.9136  2.1045
 5439SOL    HW224028   2.783   5.506   1.802  1.4225  0.7652 -0.6087
 5442SOL     OW24029   5.141   4.046   0.004  0.1764 -0.1188 -0.4303
 5442SOL    HW124030   5.056   4.083  -0.034 -0.7659 -1.2452  0.5314
 5442SOL    HW224031   5.182   4.113   0.066  0.1812  0.5557 -1.1473
 5444SOL     OW24032   3.784   4.471   1.809 -0.0627 -0.5318  0.1832
 5444SOL    HW124033   3.712   4.409   1.841 -1.1313  0.4830 -0.2100
 5444SOL    HW224034   3.781   4.476   1.709 -1.2186  1.5974  0.3079
 5445SOL     OW24035   1.270   8.232   3.243 -0.2658  0.4474 -0.2316
 5445SOL    HW124036   1.185   8.226   3.294 -1.0239  0.2515 -1.5083
 5445SOL    HW224037   1.258   8.294   3.165  0.0508 -1.3669 -1.7670
 5446SOL     OW24038   4.618   1.055   4.450 -0.0721  0.3774 -0.2644
 5446SOL    HW124039   4.651   0.961   4.456  0.7510  0.5023 -2.5725
 5446SOL    HW224040   4.630   1.100   4.539 -0.7805 -1.7704  0.9428
 5447SOL     OW24041   8.554   5.222   5.302  0.2813 -0.1988 -0.2047
 5447SOL    HW124042   8.576   5.207   5.205  1.3228  0.9609 -0.1644
 5447SOL    HW224043   8.481   5.290   5.310  0.6045  0.1404 -0.1515
 5448SOL     OW24044   2.274   1.128   1.391 -0.3711 -0.0440  0.3431
 5448SOL    HW124045   2.180   1.096   1.392 -0.0430 -1.0402  0.2483
 5448SOL    HW224046   2.307   1.130   1.296  0.1557 -1.0856  0.4954
 5449SOL     OW24047   4.452   1.614   2.079  0.1289 -0.1697 -0.0369
 5449SOL    HW124048   4.526   1.566   2.126  0.3896  1.1220  0.8947
 5449SOL    HW224049   4.487   1.653   1.994  0.5062  0.4230  0.3930
 5450SOL     OW24050   8.200   1.555   4.340  0.0629 -0.1700 -0.3365
 5450SOL    HW124051   8.292   1.562   4.379 -1.0865 -0.8095  2.5991
 5450SOL    HW224052   8.155   1.473   4.374 -2.2562  1.0562 -0.3070
 5451SOL     OW24053   6.926   4.130   0.416 -0.3736 -0.5705  0.3010
 5451SOL    HW124054   6.882   4.208   0.372  0.9940 -0.5891 -1.1439
 5451SOL    HW224055   6.900   4.127   0.513 -3.4825 -0.5765 -0.4961
 5452SOL     OW24056   2.085   9.598   4.870  0.0533  0.5152  0.1714
 5452SOL    HW124057   2.161   9.662   4.857  0.2916  0.0245 -0.8845
 5452SOL    HW224058   2.107   9.510   4.828 -1.7752  0.8837 -1.6427
 5453SOL     OW24059   9.658   7.280   4.000  0.1927  0.2111 -0.7480
 5453SOL    HW124060   9.624   7.189   4.025  1.0676  0.1763  0.3997
 5453SOL    HW224061   9.655   7.339   4.081  0.0510  1.0774 -1.3808
 5454SOL     OW24062   4.821   4.431   4.132 -0.0409 -0.4080 -0.1359
 5454SOL    HW124063   4.730   4.473   4.137 -0.0318 -0.4156  0.1121
 5454SOL    HW224064   4.827   4.373   4.051  0.4817  1.3174 -1.3636
 5455SOL     OW24065   5.148   1.724   1.955  0.4480 -0.0119 -0.4281
 5455SOL    HW124066   5.157   1.801   1.891 -2.5126 -0.2932 -1.2356
 5455SOL    HW224067   5.216   1.654   1.933  0.7178  0.7398 -2.0365
 5456SOL     OW24068   9.953   0.962   2.177  0.3494 -0.1851  0.4606
 5456SOL    HW124069   9.969   1.060   2.181  0.0557 -0.0969 -0.5986
 5456SOL    HW224070   9.889   0.936   2.249  1.1333  0.2527  1.3346
 5457SOL     OW24071   8.459   0.293   0.048 -0.3701  0.3011 -0.7207
 5457SOL    HW124072   8.558   0.309   0.053 -0.6023  1.6455 -0.3291
 5457SOL    HW224073   8.429   0.303  -0.047 -0.2981  0.8799 -0.6817
 5458SOL     OW24074   3.462   4.298   1.532 -0.1565 -0.2707 -0.5737
 5458SOL    HW124075   3.515   4.337   1.456 -0.8013  0.2693 -0.7471
 5458SOL    HW224076   3.516   4.303   1.616  0.7689 -1.3498 -1.0962
 5459SOL     OW24077   6.099   0.837   4.494  0.0349 -0.0089  0.0265
 5459SOL    HW124078   6.048   0.923   4.503  0.3382  0.1120  0.6201
 5459SOL    HW224079   6.039   0.767   4.457 -0.8012 -0.0718  1.4326
 5460SOL     OW24080   1.964   6.946   4.469 -0.0446 -0.3283  0.5995
 5460SOL    HW124081   1.864   6.939   4.472 -0.1404  0.2865 -0.6555
 5460SOL    HW224082   2.003   6.902   4.550 -1.2185 -2.4570  0.0445
 5461SOL     OW24083   0.317   5.929   1.509 -0.1122  0.3289 -0.2474
 5461SOL    HW124084   0.273   6.005   1.557  0.3008  0.4001  0.0212
 5461SOL    HW224085   0.292   5.843   1.553  0.1044  0.3779 -0.0319
 5462SOL     OW24086   4.816   2.048   3.717  0.2253 -0.3639  0.0061
 5462SOL    HW124087   4.834   2.088   3.627  0.0573  0.9330  0.5330
 5462SOL    HW224088   4.722   2.012   3.720  0.2957 -0.5825 -0.3926
 5463SOL     OW24089   0.542   7.601   2.600  0.3621 -0.2396  0.1861
 5463SOL    HW124090   0.475   7.528   2.587 -0.5478  0.4363  0.9663
 5463SOL    HW224091   0.494   7.687   2.618  1.4328  0.1554  1.2269
 5464SOL     OW24092   3.127   0.881   2.840 -0.1485 -0.9162 -0.1008
 5464SOL    HW124093   3.105   0.836   2.927 -1.1972  0.2675  0.2551
 5464SOL    HW224094   3.042   0.902   2.791  0.2736  1.5921  0.2034
 5465SOL     OW24095   4.115   2.296   4.771  0.6538  0.2693 -0.0686
 5465SOL    HW124096   4.045   2.242   4.723 -1.9372  0.7056  3.0196
 5465SOL    HW224097   4.193   2.237   4.793  0.4989 -0.6988 -1.9576
 5466SOL     OW24098   4.911   2.380   1.221 -0.4559 -0.0823  0.2997
 5466SOL    HW124099   4.912   2.464   1.276 -2.8527  0.5710 -0.5903
 5466SOL    HW224100   4.822   2.335   1.232  0.8669 -2.6270  0.9170
 5467SOL     OW24101   2.545   0.505   1.385 -0.6121  0.5211 -0.0787
 5467SOL    HW124102   2.633   0.545   1.357 -0.2414  0.2488  0.6854
 5467SOL    HW224103   2.551   0.405   1.380 -0.0181  0.3914  2.4561
 5468SOL     OW24104   4.327   3.927   4.396 -0.6720 -0.2353  0.0826
 5468SOL    HW124105   4.341   3.845   4.341 -1.2880  1.1790 -2.2553
 5468SOL    HW224106   4.230   3.933   4.422 -0.8811  0.3239 -0.7694
 5469SOL     OW24107   9.321   3.610   2.766 -0.4584 -0.0650 -0.0761
 5469SOL    HW124108   9.232   3.593   2.808 -0.4636  0.0183 -0.0545
 5469SOL    HW224109   9.378   3.663   2.829 -1.5272  2.7257 -1.3601
 5470SOL     OW24110   4.831   9.611   4.377 -0.3149  0.2650 -0.1060
 5470SOL    HW124111   4.922   9.603   4.337 -0.7262  0.0400 -1.0015
 5470SOL    HW224112   4.827   9.557   4.461 -0.1307 -1.0527 -0.9363
 5471SOL     OW24113   9.865   0.904   3.940  0.2380  0.2113  0.2120
 5471SOL    HW124114   9.773   0.887   3.976  1.3017 -0.6056  2.6243
 5471SOL    HW224115   9.858   0.956   3.854 -2.4613 -0.0164  0.2485
 5472SOL     OW24116   8.767   0.250   2.765 -0.1617  0.0176  0.0881
 5472SOL    HW124117   8.695   0.182   2.756  0.9740 -1.0969 -0.6047
 5472SOL    HW224118   8.730   0.330   2.813 -2.0407 -0.2511 -0.8395
 5473SOL     OW24119   8.934   3.227   2.442  0.5291  0.0989 -0.4204
 5473SOL    HW124120   8.997   3.246   2.517  0.8513 -0.1738 -0.6223
 5473SOL    HW224121   8.867   3.159   2.471  0.6306  0.0200 -0.3674
 5474SOL     OW24122   3.746   1.308   1.063  0.2964 -0.3412 -0.1048
 5474SOL    HW124123   3.657   1.282   1.101  0.4660 -0.9762 -0.1251
 5474SOL    HW224124   3.745   1.294   0.964 -0.1281  1.2652 -0.3266
 5475SOL     OW24125   3.171   0.334   5.124  0.4793  0.0559 -0.1217
 5475SOL    HW124126   3.241   0.263   5.125  1.0712  0.5895 -1.6300
 5475SOL    HW224127   3.189   0.397   5.048 -2.6730 -0.8599 -1.7322
 5477SOL     OW24128   4.953   3.392   5.102 -0.4979 -0.2434  0.3110
 5477SOL    HW124129   5.052   3.381   5.104 -0.5153 -0.4945 -0.1908
 5477SOL    HW224130   4.924   3.420   5.010 -1.0232 -1.4269  0.1115
 5479SOL     OW24131   0.255   6.902   2.133  0.3432  0.5329 -0.2841
 5479SOL    HW124132   0.346   6.868   2.158 -0.5687  0.3261  2.9843
 5479SOL    HW224133   0.226   6.971   2.199 -1.9939  0.3695 -1.0947
 5480SOL     OW24134   1.829   5.835   0.669  0.2863 -0.1112 -0.3611
 5480SOL    HW124135   1.912   5.799   0.713 -0.1718  0.3080  0.8466
 5480SOL    HW224136   1.794   5.912   0.722  0.0693  0.7909 -1.7959
 5481SOL     OW24137   2.923   3.425   2.173  0.1507 -0.0603 -0.5067
 5481SOL    HW124138   3.003   3.372   2.201 -1.3741 -2.8725 -1.1953
 5481SOL    HW224139   2.869   3.450   2.253  0.0636 -0.9581 -0.2811
 5486SOL     OW24140   8.390   3.324   2.833  0.1888  0.1237  0.0316
 5486SOL    HW124141   8.394   3.225   2.815  0.9689 -0.3798  2.6957
 5486SOL    HW224142   8.294   3.351   2.845  0.0331 -0.5784  0.4858
 5488SOL     OW24143   9.018   2.547   2.517 -0.0268  0.1145 -0.2284
 5488SOL    HW124144   9.081   2.568   2.592  0.3914 -1.9302  0.0266
 5488SOL    HW224145   8.944   2.489   2.552 -0.4696  0.1268 -1.1512
 5489SOL     OW24146   4.307   1.063   1.012 -0.2540 -0.1078  0.0338
 5489SOL    HW124147   4.208   1.056   1.012 -0.2426 -0.2318 -0.6434
 5489SOL    HW224148   4.340   1.060   1.106 -0.8753 -0.2545  0.2485
 5491SOL     OW24149   4.996   8.098   1.610 -0.0202  0.3370  0.0442
 5491SOL    HW124150   5.032   8.165   1.545  1.4805 -0.0536  0.4525
 5491SOL    HW224151   4.946   8.027   1.561 -1.0368  1.3926 -0.4522
 5492SOL     OW24152   2.688   9.290   2.701 -0.2583  0.5845  0.1598
 5492SOL    HW124153   2.639   9.206   2.678  0.4974  0.1951 -0.0471
 5492SOL    HW224154   2.770   9.268   2.755  1.1090  0.9699 -1.6908
 5495SOL     OW24155   0.616   6.972   3.463  0.1957 -0.0734  0.0055
 5495SOL    HW124156   0.570   6.996   3.548  0.3962  1.4623 -0.3052
 5495SOL    HW224157   0.675   6.893   3.478 -0.2048 -0.1583  1.1467
 5496SOL     OW24158   1.235   6.865   0.449  0.0785 -0.2740 -0.2246
 5496SOL    HW124159   1.332   6.879   0.469  0.2753  0.2229 -1.5064
 5496SOL    HW224160   1.225   6.796   0.378 -0.5046 -0.2443 -0.1731
 5497SOL     OW24161   7.588   9.964   0.715 -0.3847  0.0701  0.3275
 5497SOL    HW124162   7.638   9.881   0.689  1.1035  1.0203  0.0534
 5497SOL    HW224163   7.517   9.984   0.648  0.2000 -0.2090 -0.3783
 5498SOL     OW24164   1.248   1.429   2.006  0.5071  0.2249  0.7571
 5498SOL    HW124165   1.322   1.369   1.975 -1.3015 -1.7938  0.2311
 5498SOL    HW224166   1.226   1.408   2.101  1.4925  1.7683  1.3484
 5499SOL     OW24167   0.316   4.184   3.902 -0.0406  0.1190 -0.3241
 5499SOL    HW124168   0.345   4.267   3.855 -1.2696  0.1773 -0.9912
 5499SOL    HW224169   0.370   4.106   3.870  0.4908  0.5061 -0.3609
 5500SOL     OW24170   3.201   1.100   1.904 -0.3082  0.3025  0.3181
 5500SOL    HW124171   3.281   1.159   1.906  0.1313 -0.3070  1.8022
 5500SOL    HW224172   3.148   1.112   1.988  0.1499 -1.8648  0.9612
 5501SOL     OW24173   1.773   7.348   2.341  0.4687  0.5681 -0.3324
 5501SOL    HW124174   1.723   7.271   2.303 -1.8017  2.2809 -0.9906
 5501SOL    HW224175   1.852   7.369   2.284  0.5067 -0.6260 -0.7177
 5502SOL     OW24176   4.405   8.397   3.438 -0.1132 -0.0737 -0.1816
 5502SOL    HW124177   4.446   8.399   3.529 -0.7204  1.0797  0.0731
 5502SOL    HW224178   4.476   8.404   3.369  0.0623  3.1205  0.2703
 5503SOL     OW24179   3.261   5.497   4.046  0.2535  0.2370  0.1830
 5503SOL    HW124180   3.275   5.596   4.053 -1.0816  0.3419  1.9726
 5503SOL    HW224181   3.340   5.449   4.083  0.7595  0.6227 -0.3788
 5504SOL     OW24182   2.561   4.841   0.817  0.2730 -0.3084  0.5041
 5504SOL    HW124183   2.551   4.794   0.730  0.5739  2.7184 -1.2137
 5504SOL    HW224184   2.658   4.856   0.836  0.1146  1.3219  0.0782
 5505SOL     OW24185   9.780   1.206   0.612 -0.2412  0.0471 -0.4358
 5505SOL    HW124186   9.726   1.147   0.552  1.5898 -1.3181 -0.7848
 5505SOL    HW224187   9.829   1.149   0.678  1.0963  1.2353 -0.4040
 5507SOL     OW24188   6.925   3.103   3.149 -0.1431 -0.1460  0.0900
 5507SOL    HW124189   6.995   3.133   3.214 -0.6084  1.4391 -0.1313
 5507SOL    HW224190   6.947   3.010   3.117  0.7754 -0.4375  1.5213
 5508SOL     OW24191   5.404   1.946   4.441 -0.3724  0.2077  0.3010
 5508SOL    HW124192   5.482   2.009   4.434  1.0613 -1.4776  0.5260
 5508SOL    HW224193   5.376   1.917   4.350  1.5655 -1.8614  0.3129
 5509SOL     OW24194   1.316   0.673   1.479 -0.4818 -0.0299 -1.1661
 5509SOL    HW124195   1.345   0.589   1.433  0.7177  0.1104 -0.6850
 5509SOL    HW224196   1.385   0.744   1.465 -0.0498 -0.0110  0.8883
 5510SOL     OW24197   0.477   1.187   4.799 -0.0830 -0.1545  0.6840
 5510SOL    HW124198   0.434   1.276   4.807  1.3295  0.4169  2.2262
 5510SOL    HW224199   0.559   1.194   4.742 -0.4552 -0.6668  0.0698
 5511SOL     OW24200   7.015   9.919   4.449 -0.0339 -0.1803  0.9937
 5511SOL    HW124201   7.103   9.966   4.438 -0.3104  0.3238  0.9092
 5511SOL    HW224202   6.961   9.966   4.518 -1.0619  0.7480 -0.4202
 5512SOL     OW24203   0.505   7.769   1.790 -0.2610 -0.3746 -0.2127
 5512SOL    HW124204   0.540   7.815   1.871 -0.7248 -1.3346  0.5507
 5512SOL    HW224205   0.407   7.788   1.780 -0.3628 -0.8576 -0.1332
 5513SOL     OW24206   0.763   3.507   3.666 -0.3258  0.1945  0.5853
 5513SOL    HW124207   0.749   3.530   3.763 -1.3014  1.9444  0.0577
 5513SOL    HW224208   0.707   3.568   3.609  0.1833 -0.8630 -1.0839
 5514SOL     OW24209   4.004   3.426   2.685 -0.3724  0.2985  0.4839
 5514SOL    HW124210   3.933   3.369   2.645  0.3400  0.3931 -0.9412
 5514SOL    HW224211   4.019   3.507   2.628  0.0364  0.8872  1.4063
 5515SOL     OW24212   1.005   9.451   2.454  0.0814  0.9368 -0.0569
 5515SOL    HW124213   0.911   9.420   2.446  0.8102 -1.3603 -0.1487
 5515SOL    HW224214   1.008   9.540   2.500 -2.3128  2.4102 -2.6142
 5516SOL     OW24215   9.444   8.054   4.893 -0.3815  0.1004  0.0437
 5516SOL    HW124216   9.517   8.053   4.961 -0.1206 -2.4727 -0.2168
 5516SOL    HW224217   9.482   8.065   4.802 -0.4406  0.2084  0.0317
 5517SOL     OW24218   7.790   1.293   3.450 -0.0742 -0.2719 -0.4856
 5517SOL    HW124219   7.766   1.323   3.357  0.9653 -1.4393 -1.1468
 5517SOL    HW224220   7.819   1.197   3.447  1.6353  0.1882  0.7797
 5519SOL     OW24221   1.056   8.779   1.962  0.5214  0.2874 -0.0237
 5519SOL    HW124222   1.094   8.868   1.938 -2.1904  1.5970  0.4776
 5519SOL    HW224223   1.070   8.715   1.886  1.8762  1.3070 -0.6398
 5520SOL     OW24224   7.476   3.521   0.009  0.0358 -0.2227 -0.0407
 5520SOL    HW124225   7.565   3.492  -0.027  0.0345 -0.1767 -0.0816
 5520SOL    HW224226   7.464   3.619  -0.007  1.4672  0.4969  3.0704
 5522SOL     OW24227   7.884   4.058   4.757  0.0705 -0.5340 -0.0783
 5522SOL    HW124228   7.909   4.152   4.784  0.5399 -0.5930 -0.3019
 5522SOL    HW224229   7.862   4.056   4.660 -0.6484 -0.5176  0.0808
 5523SOL     OW24230   0.030   2.756   0.296  0.1663 -0.0129 -0.1794
 5523SOL    HW124231   0.074   2.753   0.206 -0.2803 -0.9476 -0.3746
 5523SOL    HW224232   0.097   2.734   0.366  0.1681 -0.7891 -0.4202
 5524SOL     OW24233   6.246   9.085   3.681  0.0432  0.4930  0.4493
 5524SOL    HW124234   6.232   9.161   3.617  0.1136 -0.1235 -0.3136
 5524SOL    HW224235   6.242   9.118   3.775 -0.3601  1.3612  0.1248
 5525SOL     OW24236   3.538   6.605   2.050 -0.3759 -0.8172 -0.0757
 5525SOL    HW124237   3.471   6.665   2.093 -0.7836 -0.7323 -0.8144
 5525SOL    HW224238   3.599   6.659   1.991 -1.0164 -1.1811 -1.0811
 5526SOL     OW24239   9.687   8.945   3.579 -0.2100  0.6702 -0.0665
 5526SOL    HW124240   9.781   8.928   3.609 -0.2501 -1.3879 -0.9849
 5526SOL    HW224241   9.681   9.033   3.533  1.5536  0.2485 -1.1200
 5528SOL     OW24242   9.344   3.126   4.958  1.1832 -0.0376 -0.1574
 5528SOL    HW124243   9.413   3.055   4.971  1.9568  0.3567 -1.9927
 5528SOL    HW224244   9.389   3.212   4.934  0.1045  0.4658 -0.4127
 5530SOL     OW24245   3.695   2.310   2.831 -0.1274  0.6313 -0.0204
 5530SOL    HW124246   3.651   2.260   2.756  1.2105 -0.8922  0.1718
 5530SOL    HW224247   3.739   2.244   2.893  0.3649  1.9811  1.0882
 5532SOL     OW24248   7.660   2.174   1.600  0.3243  0.3368 -0.4571
 5532SOL    HW124249   7.570   2.169   1.557  0.7030 -0.8762 -1.1233
 5532SOL    HW224250   7.713   2.093   1.577  0.8440  0.0568  1.6383
 5535SOL     OW24251   5.554   2.448   4.401  0.2559  0.7707 -0.2849
 5535SOL    HW124252   5.653   2.439   4.398  0.0365 -2.5934  0.6085
 5535SOL    HW224253   5.516   2.438   4.308  0.5490 -1.1884 -0.2103
 5536SOL     OW24254   1.845   2.612   3.534  0.4596 -0.0386  0.0979
 5536SOL    HW124255   1.754   2.637   3.501 -0.0365 -1.9022 -0.0049
 5536SOL    HW224256   1.910   2.684   3.510 -0.6030  0.3658 -1.6390
 5537SOL     OW24257   2.642   8.252   4.715 -0.0017 -0.1600 -0.3478
 5537SOL    HW124258   2.614   8.191   4.642  0.8363  0.6717 -1.3850
 5537SOL    HW224259   2.623   8.347   4.689  2.7872  0.3639 -0.6928
 5538SOL     OW24260   9.068   0.719   4.987  0.3671 -0.3946 -0.2520
 5538SOL    HW124261   9.138   0.656   5.022 -0.3669 -0.3376  1.3647
 5538SOL    HW224262   9.108   0.811   4.979  0.2491 -0.1621  1.5604
 5540SOL     OW24263   4.650   5.476   1.745  0.1213  0.7614  0.6050
 5540SOL    HW124264   4.686   5.481   1.652  0.4617 -1.6199  0.5831
 5540SOL    HW224265   4.713   5.426   1.803 -1.9382 -1.3064  1.1490
 5541SOL     OW24266   1.537   8.506   4.567  0.5822 -0.0161 -0.1471
 5541SOL    HW124267   1.442   8.474   4.575 -0.1462  1.3454 -2.6703
 5541SOL    HW224268   1.598   8.428   4.562 -0.5934 -0.9469 -0.2392
 5544SOL     OW24269   1.090   6.659   3.511  0.0812 -0.3016  0.3698
 5544SOL    HW124270   1.167   6.720   3.532  1.4512 -1.4599 -1.1197
 5544SOL    HW224271   1.113   6.566   3.539 -0.7677 -0.6679 -0.1323
 5545SOL     OW24272   5.322   1.681   1.657  0.0078  0.2847  0.0750
 5545SOL    HW124273   5.314   1.745   1.581 -0.0813  1.3688  0.9727
 5545SOL    HW224274   5.379   1.722   1.729  1.9736 -1.6214 -0.3504
 5546SOL     OW24275   1.103   6.327   2.448  0.4418 -0.4953  0.0508
 5546SOL    HW124276   1.063   6.247   2.493  0.6594 -1.2101 -1.0309
 5546SOL    HW224277   1.180   6.299   2.392  0.2728  0.4186 -0.6434
 5547SOL     OW24278   5.803   9.208   1.509 -0.0129 -0.1461  0.3601
 5547SOL    HW124279   5.754   9.212   1.422  1.2510  2.1066 -0.2751
 5547SOL    HW224280   5.865   9.130   1.509  0.9493  0.5901 -1.2952
 5549SOL     OW24281   2.804   8.396   2.900 -0.5150  0.3739 -0.1374
 5549SOL    HW124282   2.731   8.420   2.836  0.0104  0.2695 -0.7856
 5549SOL    HW224283   2.769   8.333   2.969 -0.6795 -0.8292 -1.3033
 5551SOL     OW24284   3.325   4.272   4.115  0.3101 -0.0426  0.2171
 5551SOL    HW124285   3.397   4.253   4.048 -0.9178 -2.1716 -0.5663
 5551SOL    HW224286   3.290   4.364   4.102 -0.1632 -0.5432 -2.3575
 5552SOL     OW24287   3.637   1.717   0.129 -0.0055  0.2837  0.4421
 5552SOL    HW124288   3.593   1.729   0.040  2.9761  0.3477 -1.0959
 5552SOL    HW224289   3.625   1.622   0.159 -3.2963  0.9156  1.2958
 5553SOL     OW24290   5.214   5.284   3.080 -0.2564  0.1566 -0.4131
 5553SOL    HW124291   5.170   5.194   3.086  0.1404 -0.0930 -1.1651
 5553SOL    HW224292   5.202   5.320   2.987 -0.9452  1.1580  0.0549
 5554SOL     OW24293   0.586   2.431   4.518 -0.2254 -0.1611  0.6014
 5554SOL    HW124294   0.654   2.484   4.568 -1.4054  0.6670  1.3459
 5554SOL    HW224295   0.504   2.419   4.575 -1.0723 -0.3296 -0.6272
 5555SOL     OW24296   2.569   7.537   3.898 -0.0633  0.4495  0.6272
 5555SOL    HW124297   2.575   7.616   3.958  2.0300  1.2013 -0.5335
 5555SOL    HW224298   2.475   7.529   3.863 -1.0219  0.6285  3.0786
 5557SOL     OW24299   9.689   3.789   0.322 -0.4679  0.1196  0.2099
 5557SOL    HW124300   9.624   3.788   0.246 -1.4139 -1.8267  1.0218
 5557SOL    HW224301   9.776   3.752   0.292 -0.6657 -0.1189 -0.0739
 5559SOL     OW24302   8.678   0.204   0.324  0.0366  0.3492 -0.5742
 5559SOL    HW124303   8.655   0.146   0.245  1.5626  1.6420 -2.0101
 5559SOL    HW224304   8.777   0.218   0.327  0.0455 -0.0979  1.9002
 5560SOL     OW24305   2.844   5.579   4.329  0.3074  0.0100  0.4290
 5560SOL    HW124306   2.876   5.628   4.410 -0.1370  0.5651  0.2771
 5560SOL    HW224307   2.897   5.495   4.317 -0.8134 -1.0025  2.3240
 5561SOL     OW24308   5.148   4.462   1.216 -0.0567 -0.3551 -0.0635
 5561SOL    HW124309   5.242   4.485   1.239 -0.4160  1.2841 -0.1701
 5561SOL    HW224310   5.099   4.545   1.189 -1.5547 -1.1772  0.0652
 5562SOL     OW24311   9.989   0.305   3.457 -0.1585  0.0340  0.3945
 5562SOL    HW124312  10.071   0.362   3.458  0.8236 -1.3372 -0.7315
 5562SOL    HW224313   9.976   0.265   3.548  1.0523 -0.6032  0.3051
 5563SOL     OW24314   0.985   1.805   1.664  0.0610  0.3579  0.1981
 5563SOL    HW124315   1.074   1.844   1.639  0.7717 -0.3317  1.5921
 5563SOL    HW224316   0.974   1.809   1.763 -1.8905  1.3303 -0.0293
 5564SOL     OW24317   3.418   9.816   0.312 -0.1584 -0.2108  0.5465
 5564SOL    HW124318   3.418   9.900   0.366 -0.3771  0.3375 -0.2831
 5564SOL    HW224319   3.380   9.836   0.221  2.5750 -0.4995 -0.7130
 5565SOL     OW24320   0.230   0.307   0.518 -0.3863  0.5372  0.3318
 5565SOL    HW124321   0.160   0.251   0.474 -0.9911  1.2466  0.3864
 5565SOL    HW224322   0.302   0.248   0.555  0.1217 -0.0593 -1.5944
 5567SOL     OW24323   0.923   6.467   4.815 -0.3324 -0.1590  0.3935
 5567SOL    HW124324   0.976   6.518   4.882  0.4828 -0.1444 -0.2603
 5567SOL    HW224325   0.859   6.530   4.769  1.6256  0.5876 -1.3810
 5568SOL     OW24326   7.442   0.350   4.341 -0.0203 -0.6202 -0.5165
 5568SOL    HW124327   7.473   0.256   4.356 -2.0208 -1.3958 -1.0248
 5568SOL    HW224328   7.436   0.367   4.242  1.6709  0.5163 -0.4397
 5569SOL     OW24329   4.154   3.823   0.112 -0.3911  0.2403  0.4895
 5569SOL    HW124330   4.083   3.885   0.077  0.2716  0.4189 -0.5626
 5569SOL    HW224331   4.111   3.741   0.149 -1.1539  0.3566 -0.1234
 5570SOL     OW24332   2.538   2.273   0.891 -0.8671 -0.0475 -0.0023
 5570SOL    HW124333   2.476   2.336   0.937  0.2961 -0.3296  2.0071
 5570SOL    HW224334   2.632   2.296   0.913 -0.3165 -0.8547 -1.4172
 5571SOL     OW24335   6.661   1.121   0.762 -1.1041  0.7833 -0.3709
 5571SOL    HW124336   6.596   1.180   0.713  0.8016  1.4293 -2.2090
 5571SOL    HW224337   6.739   1.102   0.702 -0.6512 -1.8092  1.0098
 5573SOL     OW24338   9.200   2.894   0.930 -0.2783 -0.6002  0.0673
 5573SOL    HW124339   9.253   2.847   0.860 -1.4222 -1.4848 -0.2096
 5573SOL    HW224340   9.157   2.976   0.891 -0.7749 -0.9993 -0.2245
 5574SOL     OW24341   0.601   1.793   1.751  0.5792 -0.1288  0.1233
 5574SOL    HW124342   0.677   1.749   1.703  0.1932  0.8624 -1.4586
 5574SOL    HW224343   0.516   1.747   1.727  0.4679 -0.0711  0.4123
 5575SOL     OW24344   4.821   9.607   3.000  0.2959 -0.2935  0.3031
 5575SOL    HW124345   4.825   9.537   3.071  0.3649 -0.2878  0.3057
 5575SOL    HW224346   4.844   9.696   3.040  0.2104 -0.2701  0.2998
 5576SOL     OW24347   2.070   5.526   0.448  0.9282 -0.2436  0.2329
 5576SOL    HW124348   2.045   5.451   0.387 -0.1705 -0.9627  1.5333
 5576SOL    HW224349   2.157   5.505   0.494  1.3089 -0.0990 -0.4207
 5577SOL     OW24350   5.517   7.685   3.055 -0.5990 -0.0625  0.5101
 5577SOL    HW124351   5.543   7.592   3.081  0.7324  0.5156  1.3201
 5577SOL    HW224352   5.521   7.744   3.136  3.0994  1.6818 -0.7969
 5578SOL     OW24353   0.744   4.501   1.931  0.5838  0.1656  0.4803
 5578SOL    HW124354   0.771   4.597   1.941  2.1617 -0.2139 -0.0905
 5578SOL    HW224355   0.647   4.492   1.955  0.2223  2.0233 -0.1564
 5580SOL     OW24356   3.482   2.731   4.433 -0.0252 -0.2628 -0.0007
 5580SOL    HW124357   3.405   2.691   4.484 -1.2563  0.8258 -0.9540
 5580SOL    HW224358   3.449   2.765   4.345  1.6811 -0.2744 -0.6548
 5581SOL     OW24359   8.772   7.439   3.980 -0.1254  0.2864 -0.1931
 5581SOL    HW124360   8.701   7.434   3.909  1.1931 -1.1399 -1.4396
 5581SOL    HW224361   8.731   7.472   4.065 -2.4409 -1.0886 -0.7168
 5582SOL     OW24362   7.868   2.933   1.667  0.0191 -0.0636  0.0685
 5582SOL    HW124363   7.769   2.950   1.666  0.2517  1.3905 -2.2847
 5582SOL    HW224364   7.890   2.870   1.741 -2.6192 -0.1079  0.8783
 5583SOL     OW24365   5.078   0.424   4.326 -0.0090  0.5007 -0.4099
 5583SOL    HW124366   5.077   0.464   4.418  0.4992 -1.0189  0.2783
 5583SOL    HW224367   5.027   0.338   4.327  0.1083  0.4069 -1.5350
 5585SOL     OW24368   9.356   5.004   1.136 -0.0716 -0.4101 -0.2273
 5585SOL    HW124369   9.338   4.925   1.195 -0.3099  0.2681  0.6060
 5585SOL    HW224370   9.454   5.011   1.120 -0.0260 -0.7186 -0.1004
 5586SOL     OW24371   8.780   2.953   2.874  0.5606  0.3384 -0.0508
 5586SOL    HW124372   8.762   2.925   2.780 -0.5813  1.6888 -0.2539
 5586SOL    HW224373   8.693   2.961   2.923  1.1004  0.3477  0.9197
 5587SOL     OW24374   5.947   7.402   5.158 -0.4354  0.3286 -0.2075
 5587SOL    HW124375   5.872   7.406   5.224  0.0656  0.3772  0.3687
 5587SOL    HW224376   6.014   7.472   5.180  0.1251 -0.1743 -0.2905
 5588SOL     OW24377   9.985   1.769   4.757  0.5003  0.0799 -0.6375
 5588SOL    HW124378  10.011   1.831   4.683 -1.7465  0.9766 -0.7253
 5588SOL    HW224379   9.893   1.735   4.740  0.2349 -0.2626  1.3815
 5589SOL     OW24380   2.258   6.520   2.737  0.0174  0.1395 -0.1288
 5589SOL    HW124381   2.255   6.466   2.821  0.1820 -0.5529 -0.5600
 5589SOL    HW224382   2.213   6.608   2.751 -0.5906 -0.2699  0.4699
 5590SOL     OW24383   2.638   1.140   1.748 -0.0822 -0.1228 -0.2309
 5590SOL    HW124384   2.577   1.124   1.826 -1.3184 -0.1996 -1.1957
 5590SOL    HW224385   2.674   1.052   1.717  1.3159  0.0185  0.9616
 5591SOL     OW24386   5.102   9.358   3.646  0.0686 -0.4995  0.3649
 5591SOL    HW124387   5.171   9.402   3.703  1.0625 -0.4109 -0.8793
 5591SOL    HW224388   5.044   9.301   3.703 -1.8738  3.1235  2.1737
 5592SOL     OW24389   2.443   5.727   1.015 -0.4327  0.0634 -0.4241
 5592SOL    HW124390   2.534   5.748   0.982 -0.9884 -0.2318 -2.1676
 5592SOL    HW224391   2.436   5.629   1.035 -0.6673 -0.0948 -1.2653
 5593SOL     OW24392   1.190   6.809   4.136  0.4721  0.3686 -0.0460
 5593SOL    HW124393   1.096   6.811   4.170  0.0076  3.2193 -1.3089
 5593SOL    HW224394   1.245   6.876   4.185  1.0663  0.8841 -1.3759
 5595SOL     OW24395   3.409   2.594   0.400  0.0380 -0.5999  0.0118
 5595SOL    HW124396   3.370   2.666   0.343 -0.8148 -1.3782 -0.3964
 5595SOL    HW224397   3.496   2.564   0.360  0.6593  0.5531  0.4692
 5596SOL     OW24398   5.795   8.016   3.906 -0.3324  0.3667 -0.1470
 5596SOL    HW124399   5.759   8.109   3.898  2.3527  1.3953 -0.9473
 5596SOL    HW224400   5.871   8.004   3.842 -0.4809 -2.3157  0.1255
 5597SOL     OW24401   8.555   6.062   3.776  0.1500 -0.4797  0.4935
 5597SOL    HW124402   8.523   6.147   3.818  0.9396  0.6107 -1.0627
 5597SOL    HW224403   8.480   6.020   3.725  0.1390  0.0482  0.0652
 5598SOL     OW24404   0.947   0.875   1.282  0.0598  0.7272  0.5055
 5598SOL    HW124405   0.953   0.825   1.368 -1.6020 -0.4636 -0.0533
 5598SOL    HW224406   0.851   0.896   1.262  0.4330  0.9860 -1.0619
 5599SOL     OW24407   4.918   9.734   0.864  0.3016 -0.2204  0.2010
 5599SOL    HW124408   4.962   9.819   0.833 -1.4859  0.3891 -0.7504
 5599SOL    HW224409   4.930   9.724   0.963  3.4667 -0.6303 -0.1710
 5600SOL     OW24410   7.842   1.560   1.662 -0.2354 -0.0503  0.0356
 5600SOL    HW124411   7.878   1.599   1.747 -0.9472  1.9508 -0.5405
 5600SOL    HW224412   7.912   1.568   1.590 -0.9185  1.6320 -0.4718
 5601SOL     OW24413   7.080   4.826   0.446  0.0420  0.2547 -0.0100
 5601SOL    HW124414   7.005   4.856   0.387 -2.2602  2.9742  3.9554
 5601SOL    HW224415   7.062   4.734   0.479 -0.0287 -0.2273 -1.3752
 5602SOL     OW24416   7.807   1.969   1.561 -0.1677 -0.4834  0.2140
 5602SOL    HW124417   7.769   1.881   1.532  0.4490 -0.6090 -0.2279
 5602SOL    HW224418   7.906   1.967   1.549 -0.2230  0.5172 -0.4482
 5603SOL     OW24419   4.350   9.856   4.161  0.4757 -0.2790 -0.1405
 5603SOL    HW124420   4.251   9.868   4.162  0.6782  1.5402 -1.4358
 5603SOL    HW224421   4.372   9.763   4.192 -1.7670 -1.6540 -2.5130
 5604SOL     OW24422   2.343   0.236   3.487  0.1379  0.0239  0.0307
 5604SOL    HW124423   2.319   0.148   3.527  0.8508 -1.1752 -2.0882
 5604SOL    HW224424   2.430   0.228   3.438  0.3674  1.9884  0.0503
 5605SOL     OW24425   9.517   8.206   0.361  0.2967  0.1990 -0.1127
 5605SOL    HW124426   9.557   8.139   0.299  0.7184 -1.9064  2.3632
 5605SOL    HW224427   9.417   8.195   0.363  0.3297 -0.0721 -0.0384
 5608SOL     OW24428   1.504   8.047   4.061 -0.3979 -0.6169  0.4162
 5608SOL    HW124429   1.462   8.138   4.067 -0.6874 -0.7855  0.9532
 5608SOL    HW224430   1.596   8.055   4.022 -1.5955 -0.4448 -2.5494
 5609SOL     OW24431   1.743   8.952   2.899 -0.1662 -0.3611 -0.1506
 5609SOL    HW124432   1.834   8.913   2.886 -0.6854 -1.2441 -1.2432
 5609SOL    HW224433   1.674   8.881   2.886 -1.0037  0.1542  1.2986
 5610SOL     OW24434   8.025   6.287   4.243 -1.1635  0.1313  0.2615
 5610SOL    HW124435   8.102   6.248   4.294  0.0357  0.0526 -1.5488
 5610SOL    HW224436   7.940   6.250   4.279 -0.2778 -0.8942  1.3737
 5611SOL     OW24437   9.702   8.339   4.051 -0.3688 -0.0685 -0.1226
 5611SOL    HW124438   9.613   8.296   4.038  1.0326 -2.8658 -1.0699
 5611SOL    HW224439   9.758   8.281   4.110  0.6064  1.9865  1.0003
 5612SOL     OW24440   4.526   6.454   1.474  0.2282  0.1681  0.4492
 5612SOL    HW124441   4.589   6.423   1.545  1.2388  0.2941 -0.3719
 5612SOL    HW224442   4.448   6.392   1.468  2.5409 -2.6911 -1.6330
 5614SOL     OW24443   9.917   5.919   0.542  0.0315 -0.3919  0.5630
 5614SOL    HW124444   9.846   5.896   0.608  0.2216  0.0321  0.9167
 5614SOL    HW224445   9.935   5.839   0.484 -2.1132  0.0970 -0.8353
 5615SOL     OW24446   3.483   8.353   4.014 -0.3517  0.0710  0.6391
 5615SOL    HW124447   3.522   8.417   3.947 -0.4548 -0.3929  0.1357
 5615SOL    HW224448   3.391   8.383   4.039  0.0174  0.7247  1.2231
 5616SOL     OW24449   0.033   7.449   1.190 -0.1588 -0.3520  0.5058
 5616SOL    HW124450   0.082   7.453   1.277 -0.4340  1.2486  0.6084
 5616SOL    HW224451  -0.037   7.520   1.189  0.9860  0.8047 -1.6915
 5618SOL     OW24452   4.422   2.758   1.896  0.0848  0.3884  0.4292
 5618SOL    HW124453   4.392   2.675   1.848  0.7928  0.2550  0.2052
 5618SOL    HW224454   4.418   2.836   1.833 -0.2146  0.4529  0.5281
 5619SOL     OW24455   2.480   9.850   3.779  0.4801 -0.2258 -0.3056
 5619SOL    HW124456   2.518   9.780   3.718 -0.3142 -0.2511 -0.7840
 5619SOL    HW224457   2.454   9.808   3.866 -2.0888 -1.0197 -1.3927
 5620SOL     OW24458   8.330   5.501   0.643 -0.5690  0.4558  0.0104
 5620SOL    HW124459   8.263   5.560   0.598  0.1804  1.3995  0.1143
 5620SOL    HW224460   8.420   5.517   0.604  0.2329  1.8399  2.3144
 5621SOL     OW24461   7.974   1.906   3.727  0.2090 -0.4334 -0.4240
 5621SOL    HW124462   7.891   1.916   3.672 -0.4719 -1.2326  0.4478
 5621SOL    HW224463   8.005   1.811   3.723 -0.0544 -0.5807  0.8736
 5622SOL     OW24464   2.646   4.675   0.588  0.6020  0.1730  0.1117
 5622SOL    HW124465   2.574   4.735   0.552 -0.8472 -0.7818  1.3162
 5622SOL    HW224466   2.639   4.585   0.544  0.2094 -0.3238  1.1608
 5623SOL     OW24467   2.581   0.001   4.591 -0.2402  0.6379  0.6456
 5623SOL    HW124468   2.629   0.075   4.544 -2.9871  0.6947 -2.1976
 5623SOL    HW224469   2.483   0.009   4.575 -0.6290 -3.5673  0.3921
 5624SOL     OW24470   1.406   0.455   4.251  0.2231 -0.1193 -0.0838
 5624SOL    HW124471   1.340   0.435   4.324 -0.4234 -0.5368 -0.7758
 5624SOL    HW224472   1.498   0.460   4.290 -0.1811  0.1718  0.8419
 5625SOL     OW24473   5.352   2.081   4.706  0.0978  0.0493 -0.3797
 5625SOL    HW124474   5.361   2.051   4.611 -1.5146 -1.1029 -0.1991
 5625SOL    HW224475   5.265   2.130   4.718  1.2166  1.9762  0.0662
 5627SOL     OW24476   9.221   8.882   1.834  0.7043  0.2685  0.2452
 5627SOL    HW124477   9.215   8.972   1.791  1.2346  0.0389 -0.3366
 5627SOL    HW224478   9.159   8.877   1.912 -0.8298  0.4717 -0.9282
 5628SOL     OW24479   4.999   2.054   0.467  0.0242 -0.0941  0.2149
 5628SOL    HW124480   5.069   1.991   0.434  2.4238  1.9308  1.2770
 5628SOL    HW224481   4.970   2.027   0.559  1.6288  0.7969  0.9893
 5629SOL     OW24482   9.715   5.471   1.496  0.2653 -0.1999 -0.4780
 5629SOL    HW124483   9.669   5.487   1.409 -1.8275 -2.7838  0.1192
 5629SOL    HW224484   9.759   5.381   1.495 -0.1712 -0.4473  1.3022
 5630SOL     OW24485   5.623   9.225   3.775  0.2147  0.6778 -0.0603
 5630SOL    HW124486   5.680   9.175   3.710  0.1978  1.3981 -0.6406
 5630SOL    HW224487   5.550   9.166   3.808  0.6281  0.0949 -0.1800
 5631SOL     OW24488   0.436   5.174   4.350  0.0164 -0.4607  0.2469
 5631SOL    HW124489   0.475   5.095   4.301  0.3227  0.0937 -0.4064
 5631SOL    HW224490   0.462   5.170   4.446  0.4762 -0.8733  0.1061
 5633SOL     OW24491   0.837   1.347   4.843  0.6006  0.1382  0.6384
 5633SOL    HW124492   0.854   1.286   4.920 -1.4852 -0.4811  0.6345
 5633SOL    HW224493   0.812   1.437   4.877  2.4783  0.6816  0.6472
 5634SOL     OW24494   0.423   5.998   0.800  0.0888 -0.3466 -0.3656
 5634SOL    HW124495   0.366   5.916   0.793  1.0139 -0.9399 -1.1829
 5634SOL    HW224496   0.456   6.008   0.894 -0.6124 -0.5123 -0.1010
 5638SOL     OW24497   2.518   4.379   3.359  0.1305  0.4463 -0.4536
 5638SOL    HW124498   2.433   4.415   3.397 -1.0130 -1.3544 -1.2455
 5638SOL    HW224499   2.510   4.280   3.346  2.3142  0.2739 -0.6362
 5639SOL     OW24500   8.462   4.515   0.822  0.3261 -0.0913  0.2796
 5639SOL    HW124501   8.388   4.580   0.842  0.2300 -0.1139 -0.0134
 5639SOL    HW224502   8.549   4.556   0.847  0.0525 -0.8798  2.6962
 5640SOL     OW24503   2.641   9.753   4.657 -0.0911 -0.5609 -0.0962
 5640SOL    HW124504   2.643   9.853   4.651 -2.2593 -0.3898  1.3306
 5640SOL    HW224505   2.589   9.716   4.580  0.4375 -0.5929 -0.4457
 5641SOL     OW24506   9.677   5.843   2.695 -0.2426 -0.3193 -0.3792
 5641SOL    HW124507   9.580   5.828   2.676 -0.1950 -0.7848 -0.2327
 5641SOL    HW224508   9.694   5.835   2.793 -0.7176  3.3735  0.0907
 5643SOL     OW24509   8.598   1.396   0.404  0.0740 -0.2306  0.0490
 5643SOL    HW124510   8.652   1.469   0.362 -0.7378  0.6645  0.5423
 5643SOL    HW224511   8.616   1.310   0.356  0.6925  0.3718 -0.8288
 5644SOL     OW24512   3.099   7.540   0.657  0.2993  0.2836 -0.1601
 5644SOL    HW124513   3.007   7.568   0.630  0.0589 -1.3664 -1.1247
 5644SOL    HW224514   3.144   7.615   0.706 -1.8691  0.8091  1.0764
 5645SOL     OW24515   4.225   7.810   2.441 -0.4063 -0.6241  0.2568
 5645SOL    HW124516   4.273   7.761   2.368 -1.1294  0.1314 -0.7376
 5645SOL    HW224517   4.280   7.887   2.472  0.4877 -1.7010  1.4419
 5646SOL     OW24518   3.121   8.864   1.286 -0.1188 -0.3143 -0.5629
 5646SOL    HW124519   3.219   8.873   1.266 -0.3823 -0.9380 -2.2388
 5646SOL    HW224520   3.069   8.915   1.218 -1.0095 -1.3848 -0.6928
 5647SOL     OW24521   0.213   4.665   2.306  0.9951  0.7654 -0.3679
 5647SOL    HW124522   0.251   4.573   2.301 -0.7221  0.1155 -2.0700
 5647SOL    HW224523   0.230   4.704   2.397  1.0054 -1.5489  0.6422
 5648SOL     OW24524   1.521   4.247   1.473  0.3900 -0.2015  0.6201
 5648SOL    HW124525   1.581   4.282   1.401  0.5748 -0.3226  0.7163
 5648SOL    HW224526   1.559   4.270   1.562 -0.5794  1.2422  0.6825
 5649SOL     OW24527   1.850   5.350   5.311 -0.4001 -0.2562 -0.6470
 5649SOL    HW124528   1.874   5.289   5.236  0.4368  0.9264 -1.3693
 5649SOL    HW224529   1.823   5.439   5.274 -0.9453  0.0321  0.4180
 5650SOL     OW24530   0.903   3.421   4.196  0.3632  0.8407  0.6130
 5650SOL    HW124531   0.972   3.378   4.138 -0.0299  0.3518  0.5020
 5650SOL    HW224532   0.940   3.505   4.235  0.2957  1.7115 -1.1512
 5652SOL     OW24533   9.767   7.758   4.050 -0.2202  0.0881  0.3823
 5652SOL    HW124534   9.728   7.774   4.141 -2.3583 -2.1300 -0.1000
 5652SOL    HW224535   9.849   7.702   4.059 -0.9762 -0.9416  0.8692
 5654SOL     OW24536   0.629   9.325   1.677 -0.1551 -0.1931 -0.5242
 5654SOL    HW124537   0.701   9.370   1.624  0.4626 -0.3873  0.1360
 5654SOL    HW224538   0.633   9.227   1.664 -1.2750 -0.0906 -1.6787
 5655SOL     OW24539   7.815   3.849   5.253  0.0715  0.0131 -0.2619
 5655SOL    HW124540   7.850   3.876   5.164 -1.4178  0.4370 -0.7391
 5655SOL    HW224541   7.817   3.749   5.261  0.5396 -0.0043 -0.6358
 5656SOL     OW24542   5.306   0.923   2.006 -0.3712  0.1319 -0.1959
 5656SOL    HW124543   5.250   0.877   2.076  3.4601 -0.6400  2.5500
 5656SOL    HW224544   5.265   1.011   1.984 -2.3922 -0.1745  2.0741
 5657SOL     OW24545   3.105   7.433   2.733  0.1201 -0.4491  0.3688
 5657SOL    HW124546   3.125   7.338   2.755  2.0246  0.1719  1.4342
 5657SOL    HW224547   3.191   7.482   2.717 -0.8307  1.1546  0.0873
 5658SOL     OW24548   4.296   0.294   0.694 -0.1645  0.6926 -0.0327
 5658SOL    HW124549   4.267   0.355   0.768 -1.9948  0.1682 -0.2890
 5658SOL    HW224550   4.300   0.345   0.608 -0.9587  0.6166 -0.1124
 5660SOL     OW24551   7.481   3.248   2.101  0.2768 -0.7708  0.1543
 5660SOL    HW124552   7.547   3.221   2.171  0.2212  2.3687  1.4922
 5660SOL    HW224553   7.518   3.323   2.047 -1.6739  0.2316  0.1444
 5662SOL     OW24554   7.940   1.723   4.145 -0.2923 -0.6164  0.4557
 5662SOL    HW124555   7.859   1.764   4.102 -0.4097 -0.5373  0.7554
 5662SOL    HW224556   7.913   1.648   4.204 -0.2158 -0.0790  1.1754
 5663SOL     OW24557   5.163   8.473   1.206  0.1215 -0.7415  0.3841
 5663SOL    HW124558   5.113   8.518   1.132  0.0374  0.0568  0.9234
 5663SOL    HW224559   5.258   8.458   1.178  0.0419 -0.6101  0.0444
 5664SOL     OW24560   4.658   9.466   1.130  0.2649  0.2426  0.0528
 5664SOL    HW124561   4.598   9.495   1.055  0.1829 -0.2411 -0.0747
 5664SOL    HW224562   4.606   9.408   1.194  0.9381 -1.3717 -0.8207
 5665SOL     OW24563   1.016   3.765   3.219  0.0333 -0.2137  0.1462
 5665SOL    HW124564   0.980   3.853   3.249  0.4910  0.0110  0.0285
 5665SOL    HW224565   0.965   3.691   3.264 -0.2711  0.1106  0.3314
 5667SOL     OW24566   1.017   1.613   0.987  0.3847 -0.2501  0.1077
 5667SOL    HW124567   1.089   1.544   0.979  2.1610  1.4850  0.6006
 5667SOL    HW224568   1.026   1.661   1.074  0.9664  2.4852 -1.3839
 5668SOL     OW24569   2.423   8.395   0.424  0.0232 -0.1146 -0.5567
 5668SOL    HW124570   2.510   8.356   0.454  0.3474  0.5533 -0.6306
 5668SOL    HW224571   2.409   8.485   0.466 -0.4409 -0.0391 -0.8588
 5669SOL     OW24572   4.335   3.243   3.908 -0.7671  0.0978  0.9395
 5669SOL    HW124573   4.262   3.175   3.898 -0.3759 -0.3063  0.7901
 5669SOL    HW224574   4.296   3.335   3.898 -0.8008 -0.1862 -2.0886
 5672SOL     OW24575   6.134   1.862   2.765  0.0412  0.2915 -0.1929
 5672SOL    HW124576   6.054   1.869   2.824 -0.0841  0.4288 -0.3785
 5672SOL    HW224577   6.108   1.880   2.670  0.3169  0.4794 -0.2346
 5674SOL     OW24578   7.375   1.799   5.127 -0.1819  0.1177 -0.2022
 5674SOL    HW124579   7.468   1.835   5.115  0.0563 -0.2227  0.6188
 5674SOL    HW224580   7.363   1.717   5.071 -0.4350  0.9375 -1.3735
 5675SOL     OW24581   9.856   3.447   1.346  0.2566  0.0593 -0.5602
 5675SOL    HW124582   9.794   3.526   1.340 -1.3931 -1.1784 -0.3344
 5675SOL    HW224583   9.839   3.386   1.269  1.7419  0.0835 -0.9029
 5676SOL     OW24584   5.290   1.701   4.519 -0.1048  0.4819 -0.2216
 5676SOL    HW124585   5.268   1.736   4.610  1.1363 -0.5971  0.5191
 5676SOL    HW224586   5.326   1.774   4.462  1.6061  0.6144  1.0090
 5677SOL     OW24587   5.268   1.807   4.772 -0.2612 -0.0096 -0.3633
 5677SOL    HW124588   5.281   1.747   4.851  0.7371 -0.4705 -0.8579
 5677SOL    HW224589   5.292   1.901   4.796 -2.6502  0.3639  0.6593
 5678SOL     OW24590   2.521   0.488   2.114  0.7105  0.0326  0.6224
 5678SOL    HW124591   2.466   0.405   2.110  0.9346 -0.0808 -0.0461
 5678SOL    HW224592   2.490   0.552   2.044  2.0056 -0.3907 -0.3679
 5679SOL     OW24593   8.217   6.246   0.899 -0.3848 -0.1401  0.4896
 5679SOL    HW124594   8.171   6.192   0.829  0.9979 -1.2112  0.4014
 5679SOL    HW224595   8.245   6.334   0.860  0.2302 -0.6626 -0.2574
 5680SOL     OW24596   7.400   2.923   3.205  0.2615 -0.1052 -0.4788
 5680SOL    HW124597   7.339   2.983   3.153 -0.3538  1.0455  1.5499
 5680SOL    HW224598   7.418   2.841   3.151 -1.5188  0.4018 -1.9131
 5681SOL     OW24599   3.977   9.373   0.951  0.9290  0.0251  0.2842
 5681SOL    HW124600   4.023   9.454   0.914 -0.2150  0.9513  0.8725
 5681SOL    HW224601   4.021   9.348   1.038 -0.8678  2.1215  1.8862
 5683SOL     OW24602   9.885   3.626   1.008  0.0484  0.2964 -0.0228
 5683SOL    HW124603   9.907   3.601   1.102  1.9697 -0.8826 -0.7536
 5683SOL    HW224604   9.969   3.645   0.957 -0.9304  0.5621 -1.6080
 5685SOL     OW24605   0.527   4.039   0.971  0.0536 -0.5465 -0.2520
 5685SOL    HW124606   0.616   4.084   0.963  0.0179 -0.3003  0.6346
 5685SOL    HW224607   0.504   3.994   0.885  1.0620 -0.6607 -0.4646
 5686SOL     OW24608   0.443   8.374   4.942 -0.3371 -0.5189 -0.3368
 5686SOL    HW124609   0.506   8.299   4.919 -2.2953 -2.2857 -0.1496
 5686SOL    HW224610   0.419   8.368   5.038 -0.6452  0.2577 -0.3686
 5687SOL     OW24611   4.514   7.456   3.737  0.7006 -0.3425  0.6383
 5687SOL    HW124612   4.594   7.451   3.798  1.1371 -0.8125  0.0267
 5687SOL    HW224613   4.474   7.365   3.726  0.3084 -0.1721  0.6352
 5689SOL     OW24614   2.463   1.591   3.721 -0.4687 -0.0833 -0.9274
 5689SOL    HW124615   2.375   1.604   3.675 -0.6395 -1.0364 -0.8830
 5689SOL    HW224616   2.505   1.680   3.739 -1.7473  0.4138 -0.3251
 5690SOL     OW24617   7.982   1.552   1.429  0.7587 -0.3804 -0.0777
 5690SOL    HW124618   7.980   1.564   1.330  0.8408 -2.0258 -0.2857
 5690SOL    HW224619   8.039   1.474   1.453  0.0679 -0.5163  1.2059
 5693SOL     OW24620   4.207   9.344   4.992  0.7651  0.0459  0.0199
 5693SOL    HW124621   4.273   9.419   4.992  0.4325  0.3368 -0.3772
 5693SOL    HW224622   4.142   9.357   5.067  1.7566 -0.7714  1.0388
 5694SOL     OW24623   7.150   7.596   5.272 -0.0402  0.0022  0.3090
 5694SOL    HW124624   7.152   7.572   5.369 -0.1934 -0.1554  0.2748
 5694SOL    HW224625   7.235   7.642   5.247 -0.1772  0.4153  0.6100
 5695SOL     OW24626   8.639   0.484   4.729  0.2597  0.0341  0.4466
 5695SOL    HW124627   8.590   0.442   4.805  0.7807 -1.1599  0.1288
 5695SOL    HW224628   8.574   0.505   4.656 -0.0839  0.2694  0.8165
 5696SOL     OW24629   8.034   3.479   4.005 -0.0297 -0.2606  0.1786
 5696SOL    HW124630   8.051   3.384   4.031  1.7275 -0.4938 -1.7108
 5696SOL    HW224631   8.108   3.536   4.038 -0.9350  0.4158  1.0536
 5697SOL     OW24632   7.759   9.749   1.704 -0.1312  0.2589  0.3392
 5697SOL    HW124633   7.739   9.666   1.755 -1.3986  1.0188  1.1163
 5697SOL    HW224634   7.674   9.787   1.667  0.5317  0.7967 -0.6640
 5700SOL     OW24635   9.655   2.967   2.501  0.3087  0.4579 -0.3657
 5700SOL    HW124636   9.734   2.958   2.563  0.3430 -0.6270 -0.5583
 5700SOL    HW224637   9.687   2.997   2.411  0.7846 -1.9844 -1.0499
 5701SOL     OW24638   9.399   0.981   2.703 -0.0440  0.8286 -0.1644
 5701SOL    HW124639   9.407   0.883   2.685 -0.7749  0.2304  2.5876
 5701SOL    HW224640   9.472   1.031   2.655  0.2132 -1.0097 -1.7310
 5702SOL     OW24641   6.333   1.477   3.790 -0.4089  0.3671  0.8866
 5702SOL    HW124642   6.269   1.411   3.750 -0.1473  0.7397 -0.1605
 5702SOL    HW224643   6.424   1.436   3.795 -0.3249  0.5140  0.5810
 5703SOL     OW24644   0.681   4.410   3.366 -0.1824  0.4475  0.3863
 5703SOL    HW124645   0.770   4.367   3.346 -0.4526 -0.2134  0.5964
 5703SOL    HW224646   0.691   4.509   3.362  0.7626  0.4007  1.1776
 5704SOL     OW24647   5.986   8.754   5.090 -0.0037 -0.4761  0.2954
 5704SOL    HW124648   5.909   8.807   5.053  0.7859  1.6231  1.5648
 5704SOL    HW224649   6.071   8.783   5.046  0.2426 -1.8844 -0.1801
 5705SOL     OW24650   3.893   2.629   4.127  0.0048 -0.0915 -0.4823
 5705SOL    HW124651   3.969   2.594   4.072 -0.1757 -1.9063  0.4030
 5705SOL    HW224652   3.891   2.582   4.215 -1.9282  0.2022 -0.3560
 5706SOL     OW24653   8.110   6.004   0.770 -0.2925  0.5924  0.1296
 5706SOL    HW124654   8.015   5.974   0.783 -0.1387 -0.2825 -0.7122
 5706SOL    HW224655   8.144   5.970   0.683  1.3218 -0.4495  1.1404
 5707SOL     OW24656   1.385   5.801   3.243  0.1664 -0.1725  0.5286
 5707SOL    HW124657   1.461   5.748   3.205 -0.8675 -0.2695 -1.4769
 5707SOL    HW224658   1.419   5.886   3.282  1.4900 -0.9494  1.0803
 5708SOL     OW24659   4.405   4.204   0.061  0.1301  0.1524  0.0945
 5708SOL    HW124660   4.461   4.283   0.088  1.0009 -0.3599 -0.1720
 5708SOL    HW224661   4.464   4.123   0.053 -1.0617 -0.9493  2.2332
 5709SOL     OW24662   6.386   0.832   1.418  0.0836  0.0862  0.3557
 5709SOL    HW124663   6.471   0.823   1.470  0.2000 -3.1150 -0.2509
 5709SOL    HW224664   6.308   0.820   1.479  0.1395  0.1219  0.4343
 5710SOL     OW24665   8.456   8.746   1.581 -0.0148  0.6872  0.1806
 5710SOL    HW124666   8.542   8.720   1.625  0.3571  0.0233 -0.8923
 5710SOL    HW224667   8.470   8.752   1.482 -1.5397 -0.9047 -0.1736
 5711SOL     OW24668   7.776   7.760   4.314 -0.3984  0.1396  0.5101
 5711SOL    HW124669   7.695   7.804   4.351 -0.3234  1.0274 -0.3602
 5711SOL    HW224670   7.850   7.763   4.382 -1.0126 -0.4640  1.2098
 5712SOL     OW24671   2.971   0.429   2.042 -0.1030 -0.5695 -0.0213
 5712SOL    HW124672   3.007   0.382   1.961  0.4518 -0.1264 -0.0384
 5712SOL    HW224673   2.874   0.409   2.052 -0.0382 -1.1085 -0.4602
 5713SOL     OW24674   3.952   1.460   2.886 -0.0308  0.1578 -0.3610
 5713SOL    HW124675   3.884   1.415   2.828  0.7652 -1.2332 -0.2401
 5713SOL    HW224676   3.990   1.538   2.838 -0.7624  0.1581 -0.9486
 5714SOL     OW24677   3.052   5.890   4.708  0.1032 -0.0163 -0.0785
 5714SOL    HW124678   3.143   5.923   4.734  0.6355 -1.3082 -0.2440
 5714SOL    HW224679   3.061   5.799   4.667 -1.4035 -0.6844  1.0725
 5715SOL     OW24680   1.751   1.667   4.620 -0.1828  0.6977 -0.8024
 5715SOL    HW124681   1.835   1.692   4.571 -0.3522  1.1670 -0.8639
 5715SOL    HW224682   1.722   1.576   4.592 -0.1533  0.8700 -1.4149
 5716SOL     OW24683   0.765   1.350   5.239  0.3829 -0.0292 -0.9476
 5716SOL    HW124684   0.749   1.251   5.237 -0.0721  0.0644 -1.9009
 5716SOL    HW224685   0.852   1.370   5.193  0.7033 -0.0243 -0.3496
 5717SOL     OW24686   5.008   9.020   1.624  0.6721  0.4005 -0.4135
 5717SOL    HW124687   4.944   9.087   1.586  0.7530  0.6259 -0.1623
 5717SOL    HW224688   4.974   8.928   1.608  0.8578  0.4774 -1.2989
 5719SOL     OW24689   9.750   5.424   0.268  0.0415  0.0274 -0.6384
 5719SOL    HW124690   9.823   5.365   0.232  0.3256  0.1780 -0.3059
 5719SOL    HW224691   9.718   5.485   0.196 -0.9516 -1.2268 -1.2780
 5720SOL     OW24692   9.689   1.974   3.562 -0.7212  0.4288  0.6439
 5720SOL    HW124693   9.611   1.930   3.518  1.5188 -0.1138 -3.0374
 5720SOL    HW224694   9.688   2.072   3.542 -0.1858  0.3287  0.1017
 5721SOL     OW24695   3.883   5.867   2.725  0.0245 -0.3357  0.2586
 5721SOL    HW124696   3.892   5.945   2.787  3.3106 -0.5358  0.0823
 5721SOL    HW224697   3.939   5.882   2.644  1.1401 -3.1412  0.4687
 5723SOL     OW24698   6.394   8.764   4.756 -0.2828  0.3943  0.0892
 5723SOL    HW124699   6.362   8.679   4.796  0.4443  0.0115 -0.1367
 5723SOL    HW224700   6.494   8.765   4.755 -0.2932  0.5752 -1.3298
 5724SOL     OW24701   3.089   2.626   2.080 -0.0465 -0.0294 -0.1846
 5724SOL    HW124702   3.186   2.606   2.087  0.1116  0.5314 -0.8171
 5724SOL    HW224703   3.067   2.656   1.987 -0.8288 -0.1897 -0.0577
 5725SOL     OW24704   6.288   3.962   0.332  0.2860  0.1420  0.6235
 5725SOL    HW124705   6.260   4.015   0.412 -0.3410  0.3814  0.2518
 5725SOL    HW224706   6.239   3.995   0.251 -0.0402 -0.9389  0.3725
 5726SOL     OW24707   2.276   7.624   1.696 -0.1990 -0.0135 -0.1191
 5726SOL    HW124708   2.332   7.542   1.679 -0.0989 -0.2857  1.4153
 5726SOL    HW224709   2.208   7.633   1.623  0.9067 -0.4828 -1.2382
 5727SOL     OW24710   9.704   4.395   1.950 -0.0612  0.1760 -0.3291
 5727SOL    HW124711   9.638   4.362   1.882 -0.0374 -0.5641  0.0013
 5727SOL    HW224712   9.768   4.458   1.906 -0.3967  0.1444 -0.8677
 5729SOL     OW24713   3.974   6.984   3.625 -0.4468 -0.0828 -0.1752
 5729SOL    HW124714   3.968   6.917   3.551 -0.1076 -0.8915  0.5299
 5729SOL    HW224715   3.904   7.054   3.611  0.1439  0.2233 -1.7086
 5731SOL     OW24716   4.268   3.799   2.616 -0.2619 -0.6053  0.1568
 5731SOL    HW124717   4.190   3.756   2.663 -1.0631  0.0993 -0.5137
 5731SOL    HW224718   4.328   3.841   2.684  1.2670 -3.9153  0.9555
 5732SOL     OW24719   7.838   6.976   2.847 -0.0207  0.6094  0.3128
 5732SOL    HW124720   7.855   6.886   2.808 -0.5123  1.0804 -1.0262
 5732SOL    HW224721   7.780   6.967   2.928  0.2821 -0.3094  0.4281
 5733SOL     OW24722   2.041   3.003   1.902 -0.4582 -0.0133 -0.0204
 5733SOL    HW124723   2.088   2.918   1.881 -1.4022 -1.3102  2.8053
 5733SOL    HW224724   2.109   3.076   1.913  0.4179 -0.5566 -1.6233
 5734SOL     OW24725   8.720   1.674   2.326 -0.9682 -0.0827  0.5255
 5734SOL    HW124726   8.682   1.582   2.342  0.4117 -0.9213 -0.8925
 5734SOL    HW224727   8.806   1.666   2.277 -0.8810  2.0070  0.3056
 5736SOL     OW24728   7.038   0.237   1.973  0.1286 -0.5109  0.5462
 5736SOL    HW124729   6.987   0.307   1.923 -1.1624 -1.9215 -0.1602
 5736SOL    HW224730   7.102   0.192   1.910  1.9454  0.9319  1.3192
 5737SOL     OW24731   9.577   4.178   1.044  0.0790 -0.2054  0.5409
 5737SOL    HW124732   9.587   4.240   0.967  0.3447 -1.2604 -0.2883
 5737SOL    HW224733   9.655   4.190   1.107  0.6097 -0.3476 -0.0824
 5738SOL     OW24734   0.273   8.705   2.826  0.2754 -0.2997 -0.0827
 5738SOL    HW124735   0.283   8.707   2.726  1.4083  0.9395  0.0358
 5738SOL    HW224736   0.199   8.766   2.853 -0.0995 -0.7127 -0.1575
 5739SOL     OW24737   1.055   0.076   1.184  0.4332 -0.5600 -0.0446
 5739SOL    HW124738   1.121   0.069   1.109 -0.1770 -0.5829 -0.5856
 5739SOL    HW224739   1.103   0.098   1.269  0.8937  1.5630 -0.8385
 5740SOL     OW24740   0.301   7.925   0.851  0.5145 -0.2404 -0.0694
 5740SOL    HW124741   0.215   7.874   0.852  0.2759  0.1735  2.2692
 5740SOL    HW224742   0.290   8.008   0.795 -0.6487 -0.1066  0.3458
 5741SOL     OW24743   5.484   0.571   1.162  0.1095  0.2754 -0.2841
 5741SOL    HW124744   5.510   0.605   1.072  0.3454  1.3724  0.1881
 5741SOL    HW224745   5.550   0.503   1.193  2.0261  2.4717  0.5782
 5742SOL     OW24746   3.046   4.027   1.565  0.3198 -0.7824 -0.2965
 5742SOL    HW124747   2.986   4.096   1.604  0.5341 -1.4980  1.3248
 5742SOL    HW224748   2.991   3.949   1.533  0.3009 -1.0948  0.4772
 5744SOL     OW24749   6.743   9.983   2.030 -0.1004 -0.1425  0.7253
 5744SOL    HW124750   6.784  10.066   2.069 -1.0806 -0.4821  2.5399
 5744SOL    HW224751   6.812   9.932   1.980  0.4692  1.8918 -0.6562
 5746SOL     OW24752   1.622   6.522   1.332 -0.9554 -0.0181 -0.1575
 5746SOL    HW124753   1.553   6.592   1.312 -0.2722  0.3096 -1.4446
 5746SOL    HW224754   1.591   6.433   1.299 -0.4699  0.2583 -1.3931
 5747SOL     OW24755   3.488   7.605   1.519  0.3784  0.5697  0.6303
 5747SOL    HW124756   3.586   7.586   1.530  0.3946  0.4431  0.2593
 5747SOL    HW224757   3.469   7.698   1.552  1.1138  1.6292 -1.8281
 5750SOL     OW24758   7.123   2.053   3.773 -0.1521  0.5125  0.0004
 5750SOL    HW124759   7.148   1.986   3.703 -1.1421  0.0630  0.0633
 5750SOL    HW224760   7.173   2.034   3.858 -0.1791  0.0554 -0.0861
 5751SOL     OW24761   8.573   5.809   1.693  0.3135 -0.5253  0.0413
 5751SOL    HW124762   8.551   5.838   1.786  0.5936 -0.5524  0.1156
 5751SOL    HW224763   8.672   5.797   1.683  0.2808 -0.5867 -0.2419
 5754SOL     OW24764   3.081   5.616   2.236 -0.2230  0.1030  0.5456
 5754SOL    HW124765   3.015   5.580   2.170 -0.9715  1.2461  0.6551
 5754SOL    HW224766   3.080   5.559   2.318  0.2593 -0.9575 -0.1721
 5755SOL     OW24767   9.532   6.477   3.020 -0.6016  0.2716  0.1475
 5755SOL    HW124768   9.588   6.550   2.981 -1.5055  1.0439  0.2441
 5755SOL    HW224769   9.585   6.424   3.086 -0.0916  1.2206  0.5080
 5757SOL     OW24770   8.150   1.202   1.775 -0.4044 -0.1055  0.0905
 5757SOL    HW124771   8.120   1.206   1.679 -0.3573 -0.7793  0.0414
 5757SOL    HW224772   8.246   1.229   1.781 -0.2694 -0.5299 -0.1231
 5758SOL     OW24773   0.819   5.485   2.884 -0.0370 -0.1498 -0.0537
 5758SOL    HW124774   0.917   5.477   2.867  0.0628  0.1214  0.3790
 5758SOL    HW224775   0.776   5.395   2.877  0.2748 -0.3004 -0.0430
 5759SOL     OW24776   3.224   6.433   2.012 -0.0808 -0.1375 -0.0394
 5759SOL    HW124777   3.288   6.438   2.089 -1.0859  0.7501  0.7620
 5759SOL    HW224778   3.273   6.449   1.927  0.9452 -0.5192  0.4707
 5760SOL     OW24779   2.894   0.169   0.229  0.2187  0.0932  0.2329
 5760SOL    HW124780   2.958   0.187   0.154 -0.7583  1.6876 -0.2495
 5760SOL    HW224781   2.829   0.099   0.200  0.9713 -0.6418  0.2801
 5761SOL     OW24782   1.620   2.965   1.460  0.6470  0.2765 -0.1517
 5761SOL    HW124783   1.661   3.023   1.531 -0.2639  0.7317  0.0007
 5761SOL    HW224784   1.693   2.932   1.399  1.3611  0.3556  0.6403
 5762SOL     OW24785   9.801   7.172   3.789 -0.4923 -0.2730 -0.0157
 5762SOL    HW124786   9.735   7.103   3.761  0.5671 -0.6822 -1.5793
 5762SOL    HW224787   9.761   7.231   3.860 -2.0437 -1.3199 -0.0121
 5763SOL     OW24788   6.240   1.924   4.522  0.6387  0.3485 -0.2099
 5763SOL    HW124789   6.201   1.972   4.443 -1.7209  0.7959  1.1737
 5763SOL    HW224790   6.310   1.981   4.565 -1.7808  2.3751  1.1139
 5765SOL     OW24791   1.796   3.046   5.250  0.5584 -0.2396  0.3685
 5765SOL    HW124792   1.791   2.983   5.172  1.9581  0.8861 -0.6680
 5765SOL    HW224793   1.881   3.029   5.300 -0.5476 -1.2592  1.9471
 5766SOL     OW24794   0.060   2.112   2.724  0.1273 -0.6256 -0.2409
 5766SOL    HW124795   0.158   2.120   2.705  0.1324 -0.7985 -0.2864
 5766SOL    HW224796   0.045   2.114   2.823  0.0694  0.6187 -0.2685
 5769SOL     OW24797   8.452   1.246   4.375 -0.1799  0.4507 -0.2097
 5769SOL    HW124798   8.376   1.188   4.403 -1.2520  1.6349 -0.5736
 5769SOL    HW224799   8.453   1.330   4.430  1.0455  0.3205 -0.0138
 5770SOL     OW24800   5.384   2.676   3.296 -0.4818  0.2681  0.9671
 5770SOL    HW124801   5.405   2.612   3.369  0.4335  0.4522  0.8751
 5770SOL    HW224802   5.458   2.674   3.228 -0.3097  1.6170  1.1063
 5771SOL     OW24803   8.173   2.615   3.784 -0.2969 -0.5783 -0.2399
 5771SOL    HW124804   8.191   2.665   3.699  0.0319  0.8772  0.6724
 5771SOL    HW224805   8.093   2.556   3.772 -1.4818  1.1355 -0.9316
 5772SOL     OW24806   0.713   5.522   0.928 -0.2631  0.1362 -0.5017
 5772SOL    HW124807   0.685   5.609   0.888 -1.9458 -0.3138 -0.3207
 5772SOL    HW224808   0.718   5.453   0.855 -0.0545  0.1073 -0.4598
 5773SOL     OW24809   9.195   7.949   2.100 -0.0059 -0.0173 -0.3885
 5773SOL    HW124810   9.117   7.903   2.059 -0.4178 -1.1163  1.5816
 5773SOL    HW224811   9.164   8.018   2.165  0.6402  0.4781 -0.5978
 5774SOL     OW24812   9.283   7.342   2.355 -0.2876  0.2274 -0.0176
 5774SOL    HW124813   9.367   7.386   2.324  1.0022 -1.4981  0.9242
 5774SOL    HW224814   9.283   7.336   2.454 -0.4026 -1.9062 -0.1241
 5775SOL     OW24815   1.557   5.834   2.483 -0.4268 -0.0785  0.1849
 5775SOL    HW124816   1.474   5.872   2.524 -0.7391 -1.0354  0.4527
 5775SOL    HW224817   1.564   5.737   2.506  0.7446 -0.0168  0.1172
 5777SOL     OW24818   1.140   3.117   0.430 -0.0875 -0.0923 -0.2322
 5777SOL    HW124819   1.235   3.087   0.443  0.3619  2.0110  1.6104
 5777SOL    HW224820   1.136   3.181   0.353 -0.2193 -1.0031 -0.9972
 5779SOL     OW24821   8.270   6.937   2.049 -0.4734  0.0823 -0.4596
 5779SOL    HW124822   8.292   6.840   2.035  2.0009  0.3835  1.0106
 5779SOL    HW224823   8.283   6.960   2.146 -1.5601  1.7641 -0.6938
 5780SOL     OW24824   2.705   4.413   3.560  0.3467 -0.3898  0.0206
 5780SOL    HW124825   2.632   4.426   3.627  1.1815 -1.4738  1.2011
 5780SOL    HW224826   2.669   4.366   3.480 -0.6043  0.6286 -0.1622
 5781SOL     OW24827   4.128   2.483   2.662  0.0333  0.1001  0.0758
 5781SOL    HW124828   4.035   2.480   2.700 -0.2552  2.4593 -0.3338
 5781SOL    HW224829   4.167   2.391   2.661 -2.9631 -1.2095 -1.3804
 5783SOL     OW24830   2.825   6.114   2.363 -0.1447  0.4342 -0.2137
 5783SOL    HW124831   2.858   6.143   2.453 -2.8204 -1.0739  1.3287
 5783SOL    HW224832   2.883   6.040   2.328  2.5817  2.8677 -1.0728
 5784SOL     OW24833   9.941   5.711   5.290  0.3894 -0.3288 -0.3560
 5784SOL    HW124834   9.995   5.627   5.283  0.6794 -0.2829  1.3002
 5784SOL    HW224835   9.895   5.714   5.378 -0.3887  0.8066 -0.7893
 5785SOL     OW24836   2.237   4.464   3.378 -0.2504  0.3804  0.1118
 5785SOL    HW124837   2.302   4.540   3.389  0.3031 -0.0797  0.0210
 5785SOL    HW224838   2.167   4.470   3.449  0.6861  0.0725  1.0657
 5786SOL     OW24839   9.044   6.430   5.007  0.1858 -0.0872 -0.0060
 5786SOL    HW124840   8.970   6.472   4.956  0.7656  1.6340  0.5243
 5786SOL    HW224841   9.108   6.387   4.943 -1.1492 -1.4193 -0.4704
 5787SOL     OW24842   1.555   0.607   0.456  0.4692  0.1233 -0.0047
 5787SOL    HW124843   1.514   0.600   0.364  0.6533  0.5580 -0.1221
 5787SOL    HW224844   1.652   0.626   0.447  0.7301 -1.0795  0.2786
 5788SOL     OW24845   0.297   2.733   3.577 -0.5138  0.2168  0.0776
 5788SOL    HW124846   0.325   2.828   3.567  1.8590 -0.4068  0.6139
 5788SOL    HW224847   0.296   2.688   3.487  0.8344  0.0775  0.1292
 5789SOL     OW24848   9.275   4.848   2.115 -0.4280  1.0607 -0.4360
 5789SOL    HW124849   9.343   4.872   2.184  0.5437  2.2801 -1.7959
 5789SOL    HW224850   9.273   4.749   2.102  2.0480  1.0917 -1.3250
 5790SOL     OW24851   3.748   1.413   1.750 -0.3553 -0.1145 -0.1080
 5790SOL    HW124852   3.791   1.372   1.830 -0.6010  0.7569  0.4740
 5790SOL    HW224853   3.653   1.437   1.771 -1.1049 -1.9162 -1.3500
 5791SOL     OW24854   2.242   1.524   4.705 -0.0007  0.1297 -0.1599
 5791SOL    HW124855   2.246   1.618   4.739 -2.3617 -0.7356  2.8434
 5791SOL    HW224856   2.307   1.467   4.756 -0.8004 -0.4475  0.2279
 5792SOL     OW24857   7.963   3.269   0.425 -0.2226 -0.4553 -0.1634
 5792SOL    HW124858   7.894   3.199   0.441 -0.9121  0.4356  0.7962
 5792SOL    HW224859   8.054   3.231   0.442 -0.6901 -0.6706  1.9465
 5793SOL     OW24860   2.642   3.237   0.449 -0.1930 -0.0018 -0.1449
 5793SOL    HW124861   2.624   3.275   0.540  0.6953  0.6117 -0.2232
 5793SOL    HW224862   2.708   3.162   0.457  1.4749  1.4002 -0.5177
 5794SOL     OW24863   3.322   1.377   0.081  0.1695  0.0319 -0.4224
 5794SOL    HW124864   3.255   1.362   0.008  0.8694 -1.4898 -0.7669
 5794SOL    HW224865   3.308   1.308   0.152 -0.5259  1.5203  0.9133
 5795SOL     OW24866   5.823   9.818   1.951  0.1576  0.0230  0.4559
 5795SOL    HW124867   5.827   9.872   2.035  0.1329 -0.6533  0.8987
 5795SOL    HW224868   5.809   9.878   1.873  0.9202  0.7323  0.8528
 5796SOL     OW24869   8.307   8.367   4.865  0.4195  0.0608 -0.2121
 5796SOL    HW124870   8.377   8.355   4.936 -0.4379 -2.3355  0.2792
 5796SOL    HW224871   8.336   8.318   4.782  0.9515  2.0201 -1.2032
 5797SOL     OW24872   4.088   8.014   1.509  0.2712  0.2833  0.0599
 5797SOL    HW124873   4.006   8.071   1.513  0.1805  0.0828  1.3801
 5797SOL    HW224874   4.155   8.047   1.577  1.1202  0.1910 -0.7183
 5799SOL     OW24875   4.624   9.638   2.611 -0.0786  0.1336  0.0168
 5799SOL    HW124876   4.717   9.661   2.583 -0.2816  0.4934 -0.3650
 5799SOL    HW224877   4.627   9.598   2.703  0.7006 -2.2499 -1.0278
 5801SOL     OW24878   2.768   9.292   4.706 -0.0021  0.6283 -0.4174
 5801SOL    HW124879   2.732   9.356   4.774  1.6094  1.6787 -0.5206
 5801SOL    HW224880   2.697   9.271   4.639 -1.2852  0.4180  0.9826
 5803SOL     OW24881   1.896   1.661   5.078 -0.0637 -0.0762 -0.5994
 5803SOL    HW124882   1.900   1.564   5.104 -0.6924  0.3545  1.1413
 5803SOL    HW224883   1.913   1.669   4.979  1.2949 -1.8450 -0.5454
 5804SOL     OW24884   5.019   8.973   4.431 -0.1088  0.7513 -0.1189
 5804SOL    HW124885   5.114   8.996   4.409 -0.6032  0.0064 -3.2308
 5804SOL    HW224886   4.977   9.050   4.480  2.1655  0.9431  1.6001
 5806SOL     OW24887   9.355   7.120   0.344  0.5197  0.2217  0.0752
 5806SOL    HW124888   9.454   7.124   0.361  0.7524 -0.4089 -1.0205
 5806SOL    HW224889   9.338   7.058   0.267 -0.9348 -1.6199  1.8268
 5807SOL     OW24890   1.971   6.778   3.725  0.1777  0.7771  0.6662
 5807SOL    HW124891   2.006   6.869   3.705  1.1214  0.4944  0.9932
 5807SOL    HW224892   1.993   6.754   3.819  0.3034  0.0421  0.4528
 5808SOL     OW24893   9.243   3.040   3.739  0.5571 -0.4167 -0.0532
 5808SOL    HW124894   9.335   3.000   3.733  0.3335 -0.9505  0.0362
 5808SOL    HW224895   9.176   2.975   3.702  0.1177 -0.3644  0.6480
 5810SOL     OW24896   5.437   8.349   4.233  0.6169 -0.0593  0.6028
 5810SOL    HW124897   5.365   8.412   4.203  1.6690  0.7232 -0.3154
 5810SOL    HW224898   5.517   8.359   4.174  0.7210 -2.4490  0.2745
 5811SOL     OW24899   4.090   3.106   0.003 -0.5196 -0.2491 -0.1488
 5811SOL    HW124900   4.111   3.157   0.086  0.1804 -0.1606 -0.3723
 5811SOL    HW224901   4.091   3.008   0.024  1.3764 -0.3138 -0.3979
 5813SOL     OW24902   3.356   2.576   0.972 -0.5970  0.3198 -0.2681
 5813SOL    HW124903   3.371   2.675   0.974 -0.6047  0.3236 -0.4125
 5813SOL    HW224904   3.439   2.529   1.002 -0.9128  0.4001  0.7746
 5814SOL     OW24905   6.697   0.315   4.175 -0.1992 -0.3004  0.5165
 5814SOL    HW124906   6.748   0.231   4.161 -0.4648 -0.3180 -0.3930
 5814SOL    HW224907   6.755   0.394   4.156 -0.5274 -0.3223 -0.6197
 5815SOL     OW24908   9.901   0.956   0.304  0.3404 -0.0202 -0.3269
 5815SOL    HW124909   9.808   0.977   0.275  0.9136  0.4342 -1.8866
 5815SOL    HW224910   9.941   1.036   0.350  0.8669  0.7052 -2.0154
 5818SOL     OW24911   0.451   4.525   1.143 -0.8194  0.0983  0.8338
 5818SOL    HW124912   0.497   4.613   1.148 -0.3029  0.1985 -3.5992
 5818SOL    HW224913   0.364   4.536   1.096 -2.3215 -1.2642  3.1727
 5819SOL     OW24914   9.918   4.358   4.502  0.8836 -0.3436  0.3966
 5819SOL    HW124915   9.859   4.297   4.556 -0.4828  0.5514 -0.0722
 5819SOL    HW224916  10.007   4.314   4.488  0.6928 -1.2780  1.9837
 5820SOL     OW24917   1.858   1.894   4.177  0.3737 -0.6931 -0.7295
 5820SOL    HW124918   1.814   1.880   4.088 -0.4422 -0.9321 -0.2990
 5820SOL    HW224919   1.803   1.849   4.248 -0.0943  1.2306  0.1662
 5823SOL     OW24920   7.438   0.813   3.596  0.2266 -0.2499 -0.2182
 5823SOL    HW124921   7.415   0.908   3.620 -0.8497 -0.1917 -1.4277
 5823SOL    HW224922   7.368   0.776   3.536  1.0682 -1.5559 -0.4156
 5824SOL     OW24923   7.176   0.893   4.448  1.0226 -0.5608 -0.2212
 5824SOL    HW124924   7.255   0.843   4.484  0.1110 -2.3608 -0.6351
 5824SOL    HW224925   7.097   0.875   4.507  0.6237  0.1991 -0.5249
 5826SOL     OW24926   5.222   8.449   3.497 -0.1230 -0.2814 -0.1907
 5826SOL    HW124927   5.298   8.513   3.485 -0.6097  0.1953 -0.7189
 5826SOL    HW224928   5.236   8.369   3.439 -0.3166  0.0645 -0.7097
 5827SOL     OW24929   4.202   0.925   4.184 -0.3983  0.3612  0.6452
 5827SOL    HW124930   4.109   0.896   4.207  0.5077 -2.4263  0.8627
 5827SOL    HW224931   4.256   0.847   4.155  1.3873  2.2446 -1.3386
 5828SOL     OW24932   0.406   7.152   2.644  0.2078  0.3160 -0.0840
 5828SOL    HW124933   0.367   7.089   2.711  1.2267  1.5646  1.7189
 5828SOL    HW224934   0.502   7.170   2.665  0.7458  0.2347 -2.2743
 5829SOL     OW24935   5.376   0.277   4.879  0.2748  0.6637  0.0034
 5829SOL    HW124936   5.411   0.367   4.905 -1.6076  1.3714  0.1748
 5829SOL    HW224937   5.343   0.281   4.784  1.3009 -0.1930 -0.4028
 5830SOL     OW24938   7.522   8.770   3.335 -0.0080 -0.0333  0.2321
 5830SOL    HW124939   7.506   8.696   3.401 -1.6592 -1.5734 -1.8326
 5830SOL    HW224940   7.578   8.737   3.260  0.6915  1.3168  0.1494
 5831SOL     OW24941   8.126   2.377   5.166 -0.3273 -0.3223  0.8499
 5831SOL    HW124942   8.077   2.296   5.198 -1.2934 -0.7076 -1.4382
 5831SOL    HW224943   8.068   2.457   5.175 -1.0982 -0.6316 -0.9923
 5832SOL     OW24944   5.903   9.400   2.773 -0.4194 -0.0734 -0.6697
 5832SOL    HW124945   5.908   9.330   2.702 -2.3819 -0.5972 -0.3225
 5832SOL    HW224946   5.938   9.363   2.859 -1.5667 -0.6888 -0.4562
 5833SOL     OW24947   9.449   6.304   1.624  0.1668 -0.0677  0.0231
 5833SOL    HW124948   9.396   6.337   1.702 -0.2109 -2.2050  0.7018
 5833SOL    HW224949   9.400   6.327   1.539 -1.1604 -0.7391  0.5844
 5834SOL     OW24950   8.613   3.163   2.286  0.2597  0.3989  0.6837
 5834SOL    HW124951   8.557   3.182   2.367  2.3932  0.9696  2.0751
 5834SOL    HW224952   8.666   3.245   2.263 -0.2914  0.2232 -1.2989
 5836SOL     OW24953   4.305   5.269   1.438  0.0313  0.1842 -0.3210
 5836SOL    HW124954   4.316   5.259   1.537 -2.9476  4.2002  0.5574
 5836SOL    HW224955   4.394   5.288   1.396  1.0677  0.2904  1.8781
 5837SOL     OW24956   3.707   1.864   3.831  0.4952  0.3600  0.2132
 5837SOL    HW124957   3.722   1.932   3.902  0.5904 -0.0445  0.5794
 5837SOL    HW224958   3.716   1.907   3.741  0.8186  0.7746  0.4456
 5838SOL     OW24959   0.378   7.927   4.641 -0.2575  0.4478 -0.6812
 5838SOL    HW124960   0.353   7.899   4.549 -0.0452  1.7412 -1.1478
 5838SOL    HW224961   0.475   7.909   4.656 -0.5603 -0.8914 -0.2712
 5839SOL     OW24962   4.241   0.785   5.094  0.2247  0.1995 -0.4340
 5839SOL    HW124963   4.163   0.830   5.051 -0.3157 -0.2431  0.0745
 5839SOL    HW224964   4.324   0.838   5.076 -0.2831  0.9962 -0.4803
 5841SOL     OW24965   2.344   7.682   5.263 -0.4129  0.2202 -0.7455
 5841SOL    HW124966   2.404   7.632   5.325  1.5334  0.5121 -2.3575
 5841SOL    HW224967   2.283   7.619   5.216  0.9824 -0.5053 -1.6221
 5842SOL     OW24968   8.927   7.732   0.380  0.3322  0.6045 -0.4221
 5842SOL    HW124969   8.836   7.740   0.421 -0.6218  2.2072 -2.7544
 5842SOL    HW224970   8.961   7.639   0.393 -3.5914 -1.3858 -3.3986
 5843SOL     OW24971   4.133   2.375   0.921  0.3016 -0.3828 -0.3322
 5843SOL    HW124972   4.219   2.385   0.971  0.7495  1.3055 -1.3969
 5843SOL    HW224973   4.075   2.309   0.968  0.8365  0.9141  2.2238
 5844SOL     OW24974   2.029   6.640   4.635 -0.0643  0.2776 -0.1181
 5844SOL    HW124975   2.116   6.606   4.600 -0.6467  0.8994 -2.2620
 5844SOL    HW224976   2.045   6.706   4.708  1.1362 -2.3893  2.1200
 5845SOL     OW24977   1.924   6.993   4.110  0.1882  0.4526  0.1184
 5845SOL    HW124978   1.839   6.961   4.153 -0.4473  0.5919 -1.0252
 5845SOL    HW224979   1.965   7.064   4.167  0.4411 -0.7959  1.5492
 5846SOL     OW24980   0.780   9.170   1.425 -0.0561 -0.3477 -0.1711
 5846SOL    HW124981   0.859   9.108   1.423  0.4961  0.3709 -3.3237
 5846SOL    HW224982   0.697   9.118   1.405  0.4938 -0.0915 -3.5598
 5847SOL     OW24983   1.912   8.310   0.680  0.4074  0.2617 -0.9640
 5847SOL    HW124984   1.878   8.216   0.680  0.1837  0.3262 -2.7943
 5847SOL    HW224985   1.841   8.372   0.647 -0.0449  1.3364  1.8986
 5848SOL     OW24986   5.499   1.505   3.297  0.3742 -0.2078 -0.8613
 5848SOL    HW124987   5.433   1.565   3.252 -1.3534 -0.4643  1.2651
 5848SOL    HW224988   5.587   1.509   3.248 -0.8691  0.9939 -3.0586
 5849SOL     OW24989   3.131   3.744   4.249 -0.5213 -0.6415 -1.0389
 5849SOL    HW124990   3.166   3.818   4.193 -0.8280 -0.3462 -0.8441
 5849SOL    HW224991   3.048   3.774   4.296 -0.2479 -0.8682 -0.4002
 5851SOL     OW24992   8.290   6.362   3.319 -0.2060  0.3291  0.0851
 5851SOL    HW124993   8.360   6.344   3.251 -0.8689  1.2127 -0.8394
 5851SOL    HW224994   8.207   6.396   3.274 -1.0556 -0.2089  1.2062
 5853SOL     OW24995   1.292   0.091   0.107  0.0115  0.0010  0.3295
 5853SOL    HW124996   1.302  -0.005   0.131  1.2942 -0.4089 -1.7670
 5853SOL    HW224997   1.203   0.105   0.063  0.7997 -0.7060 -1.5319
 5854SOL     OW24998   3.705   6.112   3.798 -0.4794  0.7399  0.4273
 5854SOL    HW124999   3.631   6.167   3.836 -1.6954 -0.6533  0.1141
 5854SOL    HW225000   3.684   6.090   3.703 -0.0532 -0.3685  0.5931
 5855SOL     OW25001   3.331   4.073   1.349  0.3921 -0.2751  0.1264
 5855SOL    HW125002   3.355   4.121   1.433 -1.3183  0.4874  0.2033
 5855SOL    HW225003   3.309   3.978   1.370  1.6513 -0.5311  0.2884
 5856SOL     OW25004   3.812   4.101   5.179 -0.3090  0.0922  0.3548
 5856SOL    HW125005   3.808   4.177   5.244 -1.8149 -0.1084  0.5272
 5856SOL    HW225006   3.724   4.095   5.130  0.5007 -0.2866 -1.0889
 5857SOL     OW25007   4.009   7.084   3.983 -0.3281 -0.1918  0.0635
 5857SOL    HW125008   4.014   6.989   3.952  1.6840 -0.1926  0.3075
 5857SOL    HW225009   3.953   7.138   3.920 -2.8470 -1.8554  0.7956
 5859SOL     OW25010   9.496   4.773   4.856  0.2209 -0.7484  0.2683
 5859SOL    HW125011   9.587   4.788   4.896 -1.6221  1.6907  3.9235
 5859SOL    HW225012   9.438   4.729   4.924 -1.9200 -0.3029 -1.2380
 5860SOL     OW25013   3.751   7.570   2.374  0.3429  0.2143  0.3369
 5860SOL    HW125014   3.833   7.527   2.335  0.1812  0.9615 -0.8504
 5860SOL    HW225015   3.751   7.668   2.352  0.5331  0.7808  2.7196
 5861SOL     OW25016   4.338   0.475   3.080  0.2830  0.3711 -0.1153
 5861SOL    HW125017   4.300   0.395   3.127 -1.1998  0.9093 -0.3889
 5861SOL    HW225018   4.414   0.445   3.023 -0.9606 -1.0368 -1.0816
 5863SOL     OW25019   0.902   3.314   0.566  0.0300  0.3555  0.5452
 5863SOL    HW125020   0.991   3.347   0.537  0.4376 -0.8355  0.4091
 5863SOL    HW225021   0.913   3.241   0.634 -0.7752 -1.2464 -1.0037
 5865SOL     OW25022   3.024   5.626   3.344  0.2260  0.4297  0.1896
 5865SOL    HW125023   3.055   5.640   3.250  1.6411  0.7008  0.6832
 5865SOL    HW225024   3.101   5.599   3.401 -0.6437  0.1612  1.2569
 5867SOL     OW25025   9.550   0.901   0.070 -0.1656  0.2475  0.0379
 5867SOL    HW125026   9.463   0.929   0.112  0.3295 -2.0691  2.8130
 5867SOL    HW225027   9.533   0.866  -0.022 -1.9980  0.9119  0.0907
 5868SOL     OW25028   7.547   1.908   3.134  0.0528 -0.1288 -0.4564
 5868SOL    HW125029   7.547   1.980   3.064  0.5009  0.9438  0.6316
 5868SOL    HW225030   7.641   1.877   3.150  0.2388  1.2718  1.3159
 5869SOL     OW25031   3.108   0.614   4.551  0.0642  0.4719  0.3829
 5869SOL    HW125032   3.021   0.628   4.503  0.2155 -0.8776 -0.3187
 5869SOL    HW225033   3.173   0.569   4.490  1.0168  0.7902  1.1476
 5870SOL     OW25034   3.976   8.176   2.338 -1.0277 -1.0869 -1.0231
 5870SOL    HW125035   3.975   8.221   2.249  2.1692 -1.7935 -1.4867
 5870SOL    HW225036   3.972   8.077   2.326 -0.6693 -1.1854 -0.3660
 5871SOL     OW25037   0.883   5.780   2.077 -0.1492  0.5137  0.3135
 5871SOL    HW125038   0.864   5.843   2.002  0.7359 -0.0136 -0.3707
 5871SOL    HW225039   0.797   5.755   2.122 -0.5698  1.6921  0.1871
 5872SOL     OW25040   8.012   4.955   0.249  0.0576 -0.9208  0.5839
 5872SOL    HW125041   8.047   4.874   0.201 -0.0270 -1.3111  1.1635
 5872SOL    HW225042   8.085   5.022   0.259 -0.1065 -0.5385 -0.6995
 5874SOL     OW25043   9.371   1.754   2.144  0.3345  0.5079 -0.0498
 5874SOL    HW125044   9.392   1.795   2.233 -0.8016 -0.0647  0.4991
 5874SOL    HW225045   9.335   1.824   2.083  2.3520  1.1680 -0.4886
 5875SOL     OW25046   9.429   7.749   2.551  0.2480  0.0398  0.4290
 5875SOL    HW125047   9.444   7.842   2.586 -0.3426  0.4900 -0.4989
 5875SOL    HW225048   9.404   7.689   2.627  0.3476  0.7019  0.9918
 5876SOL     OW25049   1.023   1.875   0.283  0.0596  0.3204 -0.3728
 5876SOL    HW125050   1.030   1.898   0.381  1.0706  0.4467 -0.4729
 5876SOL    HW225051   1.055   1.781   0.269  1.7305  0.9503 -0.8539
 5877SOL     OW25052   1.621   7.652   4.042  0.4415  0.3557  0.4996
 5877SOL    HW125053   1.720   7.660   4.033  0.4013  0.7707  0.4289
 5877SOL    HW225054   1.577   7.689   3.960  0.2629 -0.7867  0.0651
 5878SOL     OW25055   4.459  10.001   3.683 -0.0813  0.1754  0.0482
 5878SOL    HW125056   4.453   9.934   3.609  0.6680 -0.7836  0.8475
 5878SOL    HW225057   4.455   9.954   3.771  0.2749  1.2048  0.6198
 5880SOL     OW25058   2.922   2.874   4.534 -0.2633 -0.0910 -0.0931
 5880SOL    HW125059   2.845   2.836   4.484  0.2461 -1.3645  0.0658
 5880SOL    HW225060   2.891   2.910   4.622 -0.6210 -0.9441  0.1324
 5881SOL     OW25061   4.423   6.783   1.225  0.1938  0.1216 -0.5386
 5881SOL    HW125062   4.470   6.845   1.287  1.1474 -0.3799 -0.7449
 5881SOL    HW225063   4.456   6.690   1.240  0.1780 -0.0548 -1.5608
 5882SOL     OW25064   9.053   9.011   5.192 -0.5559 -0.3476  0.4409
 5882SOL    HW125065   9.036   9.094   5.246  1.1467 -0.4105  1.1109
 5882SOL    HW225066   9.096   8.942   5.250 -2.3814 -1.8916  0.0035
 5883SOL     OW25067   1.867   2.445   0.975  0.0583  0.0463  0.1686
 5883SOL    HW125068   1.893   2.365   0.921  1.0207  0.1116  0.5323
 5883SOL    HW225069   1.782   2.425   1.025  0.0154 -0.5619 -0.1440
 5884SOL     OW25070   4.219   4.061   2.836 -0.5719  0.2086  0.5776
 5884SOL    HW125071   4.256   4.009   2.913 -1.0076 -2.5868 -1.0627
 5884SOL    HW225072   4.124   4.086   2.855 -0.6989 -0.5276  0.9095
 5885SOL     OW25073   0.573   5.830   3.876 -0.1931 -0.6281  0.6659
 5885SOL    HW125074   0.534   5.739   3.886  0.0923 -0.6353  1.7624
 5885SOL    HW225075   0.642   5.830   3.804 -1.2616 -0.9260 -0.3757
 5886SOL     OW25076   9.296   9.672   0.078 -0.4138 -1.2826  0.9973
 5886SOL    HW125077   9.256   9.662   0.169  0.7106 -1.7055  1.4530
 5886SOL    HW225078   9.394   9.690   0.087 -0.9203  2.2193 -0.0307
 5888SOL     OW25079   7.045   0.138   4.654 -0.1776 -0.3069 -0.7557
 5888SOL    HW125080   6.985   0.140   4.735 -0.1889 -0.1049 -0.7679
 5888SOL    HW225081   7.139   0.121   4.683  0.0592  1.2703 -0.5458
 5890SOL     OW25082   8.325   9.697   3.360  0.2442 -0.0200  0.2872
 5890SOL    HW125083   8.331   9.629   3.286 -0.5223 -0.0592  0.2593
 5890SOL    HW225084   8.344   9.652   3.448  1.6044  0.1207  0.0726
 5892SOL     OW25085   5.069   3.798   0.668 -0.0257 -0.1846  0.2307
 5892SOL    HW125086   5.082   3.759   0.577 -0.4509  2.4423 -0.9799
 5892SOL    HW225087   5.132   3.874   0.681 -1.0645  0.4578  1.5440
 5893SOL     OW25088   8.557   0.816   3.835 -0.1679  0.1903  0.2612
 5893SOL    HW125089   8.478   0.870   3.807 -0.0399 -0.0612 -0.5887
 5893SOL    HW225090   8.640   0.871   3.826 -0.1174  0.0835  0.0865
 5894SOL     OW25091   4.013   9.846   4.580  0.1571  0.1288  0.3332
 5894SOL    HW125092   4.031   9.785   4.657  0.5252  0.6309  0.6457
 5894SOL    HW225093   4.003   9.791   4.497 -0.8406 -0.4572  0.8368
 5895SOL     OW25094   4.083   0.154   2.948 -0.2492  0.3700 -0.1488
 5895SOL    HW125095   4.122   0.138   2.857 -0.0896  1.3859 -0.2615
 5895SOL    HW225096   4.053   0.066   2.987  0.9106 -0.2421 -0.6166
 5896SOL     OW25097   8.261   2.886   1.013 -0.0495 -0.2945  0.3954
 5896SOL    HW125098   8.321   2.965   1.029 -0.9910  0.5791 -0.3266
 5896SOL    HW225099   8.167   2.910   1.035 -0.1056 -1.7921  1.9064
 5898SOL     OW25100   4.726   3.546   1.232  0.4603 -0.7451 -0.0707
 5898SOL    HW125101   4.676   3.565   1.148 -0.7103  0.1854  0.8117
 5898SOL    HW225102   4.723   3.448   1.251 -0.2106 -0.8227 -0.5469
 5899SOL     OW25103   0.955   7.897   0.418  0.1801  0.2485  0.4479
 5899SOL    HW125104   0.964   7.976   0.357  0.5417 -0.3011 -0.2287
 5899SOL    HW225105   0.986   7.815   0.370 -0.1154 -0.2914  1.1726
 5900SOL     OW25106   8.690   3.684   4.005 -0.2899  0.1702  0.0740
 5900SOL    HW125107   8.726   3.677   3.912  1.4440 -0.4310  0.7659
 5900SOL    HW225108   8.607   3.628   4.013 -1.4309  1.6088 -1.5570
 5901SOL     OW25109   1.375   1.040   1.169  0.7597  0.2341  0.3237
 5901SOL    HW125110   1.342   0.965   1.227 -0.9767 -0.0689 -1.0044
 5901SOL    HW225111   1.334   1.126   1.199  1.5204  0.4155  0.8586
 5902SOL     OW25112   2.503   3.291   2.288  0.6410  0.7222  0.3737
 5902SOL    HW125113   2.468   3.384   2.284  2.9353  1.5730 -0.7067
 5902SOL    HW225114   2.460   3.236   2.216 -0.7128  0.9223  1.0113
 5903SOL     OW25115   7.204   9.506   4.966 -0.8210 -0.4505  0.2587
 5903SOL    HW125116   7.175   9.601   4.977 -0.6980 -0.2530 -1.0345
 5903SOL    HW225117   7.300   9.503   4.939 -0.8729 -0.9327  0.1082
 5904SOL     OW25118   8.168   2.989   0.257  0.2516  0.7238  0.7324
 5904SOL    HW125119   8.187   3.037   0.342  1.1273 -0.0847  0.9926
 5904SOL    HW225120   8.226   3.025   0.184 -0.4413  1.3616  0.4866
 5905SOL     OW25121   0.550   9.509   0.282  0.3568  0.1464  0.3036
 5905SOL    HW125122   0.609   9.590   0.288  0.0874  0.2574  1.4346
 5905SOL    HW225123   0.555   9.457   0.367 -0.4857 -0.3314  0.0647
 5906SOL     OW25124   1.979   8.840   2.784 -0.1653 -0.2587 -0.4146
 5906SOL    HW125125   1.973   8.753   2.735  0.6008 -0.0207 -0.9358
 5906SOL    HW225126   2.050   8.897   2.742  0.8316 -0.2451  1.2564
 5908SOL     OW25127   9.168   2.622   0.433 -0.1839  0.2538  0.7194
 5908SOL    HW125128   9.077   2.661   0.417  0.6192  1.7212 -0.5275
 5908SOL    HW225129   9.233   2.697   0.445  1.3552 -0.6956 -1.4252
 5909SOL     OW25130   1.870   0.525   2.790 -0.3338  0.4005  0.2338
 5909SOL    HW125131   1.968   0.542   2.779 -0.0921 -1.5608 -0.7367
 5909SOL    HW225132   1.857   0.446   2.850 -1.2364 -1.0959 -1.8867
 5910SOL     OW25133   1.632   1.499   2.452 -0.2183  0.9806 -0.0679
 5910SOL    HW125134   1.730   1.518   2.439 -0.0151 -0.5711 -1.0400
 5910SOL    HW225135   1.622   1.417   2.508 -0.9608  0.8891 -0.3372
 5911SOL     OW25136   9.377   8.901   5.006 -0.2513  0.3835  0.0970
 5911SOL    HW125137   9.440   8.856   4.943 -0.9723  1.3949 -1.3772
 5911SOL    HW225138   9.314   8.833   5.045  1.6458 -0.6050  1.5000
 5912SOL     OW25139   4.474   5.304   3.171 -0.4638 -0.0362 -0.1326
 5912SOL    HW125140   4.530   5.347   3.242  0.2402 -1.2210  0.0361
 5912SOL    HW225141   4.409   5.371   3.135 -2.2900  0.0248  3.1036
 5913SOL     OW25142   0.214   1.723   2.038  0.6508 -0.6045  0.6729
 5913SOL    HW125143   0.161   1.807   2.047  0.0444 -1.1350  2.2195
 5913SOL    HW225144   0.180   1.669   1.962  0.7301  0.3239 -0.0225
 5915SOL     OW25145   6.015   7.855   2.231 -0.5518 -0.3078 -0.0669
 5915SOL    HW125146   5.974   7.792   2.298 -1.7014 -1.4109 -1.7675
 5915SOL    HW225147   6.108   7.825   2.209 -1.6279 -2.3637 -2.0195
 5916SOL     OW25148   2.500   1.111   0.918  0.6950  0.0622 -0.1731
 5916SOL    HW125149   2.579   1.145   0.968  0.8560  0.6519 -0.8297
 5916SOL    HW225150   2.529   1.043   0.850  0.5457 -0.3010  0.1240
 5917SOL     OW25151   1.091   6.196   0.310 -0.6235  0.0090  0.4444
 5917SOL    HW125152   1.178   6.214   0.355  0.7195 -0.7946 -1.7822
 5917SOL    HW225153   1.016   6.225   0.371  1.2045  3.4620  1.2031
 5918SOL     OW25154   3.393   9.116   4.373  0.1380  0.3831  0.7383
 5918SOL    HW125155   3.363   9.027   4.338  0.4584  1.0993 -1.4452
 5918SOL    HW225156   3.313   9.167   4.405 -0.5921  0.9170 -1.8401
 5919SOL     OW25157   8.542   9.262   1.269 -0.3693 -0.2722  0.0022
 5919SOL    HW125158   8.458   9.260   1.214 -0.1207 -1.1163 -0.3573
 5919SOL    HW225159   8.563   9.356   1.295 -0.5825  0.1111 -1.2113
 5920SOL     OW25160   2.174   4.728   0.141 -0.1558 -0.2667  0.1251
 5920SOL    HW125161   2.170   4.639   0.187  1.3601  0.2356  1.2737
 5920SOL    HW225162   2.260   4.774   0.163 -0.8426  1.4310 -0.5766
 5922SOL     OW25163   0.061   8.728   2.441 -0.0932 -0.6418  0.0677
 5922SOL    HW125164   0.031   8.746   2.534 -2.0367  1.6817 -0.9707
 5922SOL    HW225165  -0.016   8.740   2.378  1.4658 -1.0561 -1.9743
 5923SOL     OW25166   2.783   5.757   5.111 -0.1683  0.0296 -0.5266
 5923SOL    HW125167   2.762   5.827   5.180 -0.8555  0.3392 -1.0407
 5923SOL    HW225168   2.776   5.798   5.020  0.4748 -0.4469 -0.7925
 5925SOL     OW25169   5.222   9.641   1.496  0.3644  0.5823  0.2074
 5925SOL    HW125170   5.285   9.566   1.475 -2.8566 -2.0511 -0.3769
 5925SOL    HW225171   5.215   9.652   1.595  1.1124  0.3622  0.2882
 5926SOL     OW25172   1.860   0.716   0.348 -0.7203 -0.3052 -0.4173
 5926SOL    HW125173   1.937   0.740   0.288 -0.1874 -0.5458  0.1640
 5926SOL    HW225174   1.780   0.769   0.321 -0.2537  0.2220 -0.7978
 5927SOL     OW25175   9.805   1.180   3.401 -0.1520  0.4138  0.2619
 5927SOL    HW125176   9.732   1.140   3.457 -1.1588  0.6710 -0.8483
 5927SOL    HW225177   9.765   1.230   3.324  1.1871  1.0298 -0.0535
 5929SOL     OW25178   4.927   7.820   1.425 -0.5959 -0.0087  0.2364
 5929SOL    HW125179   4.926   7.724   1.453  0.1960 -0.3412 -0.8607
 5929SOL    HW225180   5.020   7.855   1.427 -0.5735  0.0838 -1.5394
 5930SOL     OW25181   8.621   2.013   3.837 -0.3801 -0.0875  0.0183
 5930SOL    HW125182   8.642   2.012   3.739  1.4364 -0.8639  0.4065
 5930SOL    HW225183   8.623   2.107   3.870  0.1702  0.0613 -0.4355
 5931SOL     OW25184   5.707   8.270   3.517  0.0012 -0.2620 -0.5185
 5931SOL    HW125185   5.732   8.367   3.505 -0.9536 -0.1511 -1.7667
 5931SOL    HW225186   5.633   8.248   3.455 -2.1331 -0.9197  2.1679
 5932SOL     OW25187   2.798   8.363   5.042 -0.2771 -0.4060 -0.2750
 5932SOL    HW125188   2.789   8.266   5.019  0.1480 -0.4354 -0.3227
 5932SOL    HW225189   2.836   8.413   4.964 -2.1925  0.1257 -0.9218
 5933SOL     OW25190   0.979   6.880   4.337  0.4252  0.0345 -0.2265
 5933SOL    HW125191   0.935   6.794   4.362 -0.6747  0.5239 -0.4395
 5933SOL    HW225192   1.031   6.915   4.416  0.6051 -0.6465 -0.0373
 5934SOL     OW25193   1.932   8.407   0.102  0.6201 -0.4629 -0.0970
 5934SOL    HW125194   1.908   8.467   0.178  0.3150 -1.1962  0.3943
 5934SOL    HW225195   1.855   8.345   0.083  1.0413 -0.8960 -0.4024
 5935SOL     OW25196   8.291   7.381   4.258 -0.3042 -0.4027  0.1339
 5935SOL    HW125197   8.357   7.445   4.298 -0.8160  0.6504 -0.6526
 5935SOL    HW225198   8.273   7.408   4.163 -0.6400 -1.6461 -0.1660
 5936SOL     OW25199   7.201   2.911   1.999  0.1269  0.1044  0.1848
 5936SOL    HW125200   7.259   2.908   2.080  0.9984  1.0028 -0.3918
 5936SOL    HW225201   7.106   2.926   2.026  0.5750  1.6161  0.9901
 5938SOL     OW25202   9.179   0.231   3.799 -0.5374  0.6124  0.0854
 5938SOL    HW125203   9.158   0.222   3.701  1.3165 -0.6064 -0.2133
 5938SOL    HW225204   9.098   0.208   3.852 -0.6203 -1.9497 -1.0947
 5939SOL     OW25205   2.816   5.309   4.879 -0.2457  0.0811  0.2249
 5939SOL    HW125206   2.825   5.398   4.923 -0.3590  0.7817 -1.1654
 5939SOL    HW225207   2.903   5.283   4.837 -0.2860 -0.3546  0.4025
 5941SOL     OW25208   2.553   5.121   4.338  0.6755 -0.0568 -0.3557
 5941SOL    HW125209   2.607   5.193   4.294  0.3898  0.1135 -0.4277
 5941SOL    HW225210   2.466   5.158   4.369  0.6782 -0.2890 -0.0659
 5942SOL     OW25211   5.799   0.862   1.341 -0.0747 -0.2049 -0.3114
 5942SOL    HW125212   5.839   0.862   1.433  0.1915  0.0014 -0.4255
 5942SOL    HW225213   5.702   0.836   1.347  0.1409 -0.9532 -0.0646
 5943SOL     OW25214   0.121   2.536   0.048  0.4007  0.3925  0.1366
 5943SOL    HW125215   0.032   2.527   0.004  0.8641  0.2396 -0.7696
 5943SOL    HW225216   0.156   2.628   0.033  0.3686  0.4744  0.5536
 5945SOL     OW25217   1.137   6.049   1.149  0.0935 -0.4130 -0.2479
 5945SOL    HW125218   1.158   6.043   1.247 -2.1675  1.0591  0.3706
 5945SOL    HW225219   1.045   6.014   1.133 -0.8968  2.5948 -1.3126
 5946SOL     OW25220   4.727   7.289   3.467 -0.0716 -0.1274  0.3626
 5946SOL    HW125221   4.770   7.230   3.536  0.1449 -0.4557 -0.0486
 5946SOL    HW225222   4.683   7.232   3.398  0.2679  0.1921 -0.1170
 5948SOL     OW25223   8.441   3.550   3.993 -0.3129  0.4844  0.1222
 5948SOL    HW125224   8.403   3.491   4.064 -1.5907 -0.2685 -1.1638
 5948SOL    HW225225   8.392   3.637   3.992 -0.0070  0.6589  0.4550
 5949SOL     OW25226   7.910   9.255   2.994 -0.0135 -0.5243 -0.8755
 5949SOL    HW125227   7.965   9.216   3.068  2.7358  1.7029 -1.6567
 5949SOL    HW225228   7.920   9.355   2.994 -0.6722 -0.4091 -3.7060
 5950SOL     OW25229   1.775   8.107   3.974 -0.4286 -0.2054 -0.1164
 5950SOL    HW125230   1.819   8.194   3.997 -0.1435 -0.1015 -1.0294
 5950SOL    HW225231   1.793   8.085   3.878  0.4469 -1.8496  0.4119
 5951SOL     OW25232   8.235   3.309   2.476  0.4227  0.5249  0.0707
 5951SOL    HW125233   8.179   3.298   2.558 -0.0910 -0.2651 -0.3787
 5951SOL    HW225234   8.322   3.260   2.489 -0.0670 -0.4293 -0.2383
 5952SOL     OW25235   3.456   7.789   3.957 -0.0873  0.1250 -0.0467
 5952SOL    HW125236   3.555   7.802   3.956  0.0399 -0.7582  0.5594
 5952SOL    HW225237   3.411   7.879   3.961  0.6577  0.5730 -1.5308
 5953SOL     OW25238   3.876   5.651   1.468  0.2615  0.2627 -0.4900
 5953SOL    HW125239   3.947   5.582   1.451  0.3509  0.0797  0.5914
 5953SOL    HW225240   3.832   5.633   1.556 -0.5948  0.8366 -0.7970
 5955SOL     OW25241   5.018   3.680   1.641  0.9966  0.4617  0.1983
 5955SOL    HW125242   5.052   3.721   1.557  3.0750  1.5435  1.5139
 5955SOL    HW225243   4.949   3.611   1.620 -0.1258  2.2862 -2.2270
 5956SOL     OW25244   5.684   0.008   3.734  0.2254  0.1794  0.2806
 5956SOL    HW125245   5.622  -0.057   3.778  0.4487 -1.3306 -1.5899
 5956SOL    HW225246   5.677   0.097   3.781 -2.7633 -0.1520  0.5920
 5957SOL     OW25247   3.270   7.147   3.053 -0.1844 -0.2193  0.2096
 5957SOL    HW125248   3.314   7.062   3.082  0.7035  0.0202 -0.4216
 5957SOL    HW225249   3.301   7.222   3.112  0.6310  0.0321 -0.5179
 5960SOL     OW25250   2.494   3.693   2.921 -0.1859  0.4744 -0.3235
 5960SOL    HW125251   2.537   3.732   2.840  1.1602  1.9286  1.0683
 5960SOL    HW225252   2.416   3.636   2.893  0.6546  0.4232 -2.6580
 5961SOL     OW25253   8.651   6.915   4.220  0.2697  0.0869  0.2832
 5961SOL    HW125254   8.562   6.894   4.179  0.3949 -1.5978  0.8327
 5961SOL    HW225255   8.678   7.008   4.196 -2.5646  1.3447  1.7724
 5963SOL     OW25256   2.858   9.485   3.767  0.3659  0.4541  0.1668
 5963SOL    HW125257   2.947   9.526   3.749  0.2109  0.0388 -1.6691
 5963SOL    HW225258   2.821   9.447   3.682 -0.7159 -1.0526  1.2729
 5965SOL     OW25259   8.773   2.723   3.483  0.4722  0.0745  0.2730
 5965SOL    HW125260   8.688   2.672   3.493 -0.2067  1.0667 -0.2807
 5965SOL    HW225261   8.829   2.681   3.412 -0.8959  1.1394 -1.4891
 5966SOL     OW25262   4.705   4.856   5.029  0.0397  0.3296  0.5393
 5966SOL    HW125263   4.657   4.898   4.952  0.8343 -0.4741 -0.4280
 5966SOL    HW225264   4.782   4.803   4.994 -0.5063 -1.3277  1.7618
 5968SOL     OW25265   9.698   4.108   4.857  0.1308 -0.2633  0.1032
 5968SOL    HW125266   9.749   4.067   4.781  0.1964 -0.0653  0.0404
 5968SOL    HW225267   9.600   4.104   4.837  0.2109  1.0636 -0.6371
 5969SOL     OW25268   9.035   1.425   0.404  0.4289  0.2999 -0.1285
 5969SOL    HW125269   8.982   1.427   0.320 -0.2182  0.4527  0.2774
 5969SOL    HW225270   9.022   1.511   0.453  0.6303  0.1271  0.2284
 5970SOL     OW25271   4.104   5.030   0.910  0.1012 -0.7462  0.2394
 5970SOL    HW125272   4.026   5.073   0.955  0.2911  0.2038 -0.3399
 5970SOL    HW225273   4.180   5.094   0.906  1.0225 -1.7680  1.0639
 5971SOL     OW25274   7.760   2.890   3.954  0.5451 -0.1828 -0.8209
 5971SOL    HW125275   7.672   2.859   3.990  1.4561 -0.7241  0.9831
 5971SOL    HW225276   7.766   2.989   3.961  0.6928 -0.2784  0.4954
 5972SOL     OW25277   0.358   2.067   2.732 -0.3322 -0.3088 -0.5013
 5972SOL    HW125278   0.306   1.982   2.725  0.6634 -1.0002  0.5320
 5972SOL    HW225279   0.405   2.072   2.820 -1.3004  1.8427 -0.0583
 5973SOL     OW25280   1.827   4.134   1.445 -0.4554  0.1938 -0.2704
 5973SOL    HW125281   1.854   4.067   1.376  1.8098  1.0313 -0.2467
 5973SOL    HW225282   1.784   4.212   1.400 -0.7107 -0.1014 -0.5461
 5974SOL     OW25283   2.472   4.534   1.804  0.6478 -0.5010  0.0821
 5974SOL    HW125284   2.376   4.554   1.821  0.4737  1.0485 -2.5007
 5974SOL    HW225285   2.523   4.545   1.890 -1.2511 -0.0931  1.1989
 5976SOL     OW25286   4.402   3.563   2.527  0.3119  0.0592 -0.4648
 5976SOL    HW125287   4.368   3.653   2.552  1.9378  0.5840 -0.1050
 5976SOL    HW225288   4.502   3.561   2.535  0.1920 -2.1834  0.9017
 5977SOL     OW25289   3.737   4.704   4.518  0.0498  0.2888  0.3956
 5977SOL    HW125290   3.645   4.668   4.513 -0.1739  0.6244  1.8485
 5977SOL    HW225291   3.750   4.772   4.446 -1.3670  1.4074  1.1712
 5979SOL     OW25292   9.286   0.761   3.930 -0.0815 -0.0013  0.2579
 5979SOL    HW125293   9.251   0.794   3.843  0.7402  0.0264 -0.0645
 5979SOL    HW225294   9.275   0.662   3.935 -0.9015  0.0966  0.4789
 5980SOL     OW25295   4.619   1.140   1.252 -0.4492  0.3176 -0.5006
 5980SOL    HW125296   4.639   1.074   1.180  0.4811  0.1878 -0.1351
 5980SOL    HW225297   4.668   1.113   1.335  2.4854  3.1961 -1.2164
 5981SOL     OW25298   2.442   8.394   3.867 -0.3872 -0.0773 -0.4608
 5981SOL    HW125299   2.437   8.475   3.926 -1.0510 -0.0936 -0.4974
 5981SOL    HW225300   2.534   8.387   3.828 -0.6893  1.3325 -1.4245
 5982SOL     OW25301   4.986   9.062   0.043  0.3121 -0.2608  0.3664
 5982SOL    HW125302   4.985   9.111  -0.044 -1.9193  0.7351  0.9138
 5982SOL    HW225303   4.939   8.974   0.032  1.6254 -0.9341  0.1283
 5983SOL     OW25304   7.436   0.724   0.284 -0.1964  0.1006 -0.3933
 5983SOL    HW125305   7.371   0.782   0.236  1.9984  0.8537 -2.5792
 5983SOL    HW225306   7.529   0.757   0.266  0.9262 -2.4090  0.6132
 5984SOL     OW25307   9.074   4.948   5.071 -0.9327 -0.0689  0.2044
 5984SOL    HW125308   9.150   5.008   5.098 -1.0047 -0.1657  0.6344
 5984SOL    HW225309   9.069   4.870   5.134 -0.7782 -0.5805 -0.4057
 5985SOL     OW25310   4.214   8.161   5.073  0.3693  0.6380  0.3027
 5985SOL    HW125311   4.157   8.106   5.011  0.5920 -0.8815  1.4210
 5985SOL    HW225312   4.311   8.148   5.049  0.4310  0.4343  0.6685
 5986SOL     OW25313   4.620   3.991   0.065 -0.2966 -0.0055  0.1779
 5986SOL    HW125314   4.702   4.029   0.107 -0.9983  1.9635 -0.1677
 5986SOL    HW225315   4.646   3.924  -0.005  1.0527  1.1208 -0.4308
 5988SOL     OW25316   9.723   5.941   3.123 -0.3747  0.4321 -0.1309
 5988SOL    HW125317   9.644   6.000   3.137 -0.4369  0.7714 -1.8102
 5988SOL    HW225318   9.765   5.920   3.211 -1.3483  1.6024  0.6273
 5989SOL     OW25319   1.498   6.646   0.001 -0.3391  0.3660  0.1796
 5989SOL    HW125320   1.446   6.731  -0.001 -0.2347  0.4294  0.1384
 5989SOL    HW225321   1.454   6.581   0.063  0.5203  1.0640  1.5603
 5991SOL     OW25322   4.399   4.305   0.761 -0.4178  0.2172  0.1504
 5991SOL    HW125323   4.446   4.243   0.824  1.6543  0.2967 -1.2540
 5991SOL    HW225324   4.335   4.254   0.705 -1.7800  0.0407  1.8079
 5992SOL     OW25325   0.282   8.197   0.315 -0.3825 -0.1412 -0.0639
 5992SOL    HW125326   0.251   8.111   0.274 -1.5801 -0.4117  1.3544
 5992SOL    HW225327   0.353   8.238   0.258 -1.4483 -0.9046 -1.9614
 5993SOL     OW25328   5.770   1.079   3.650  0.5264  0.3522  0.5507
 5993SOL    HW125329   5.770   1.147   3.577  0.6889  0.6220  0.8050
 5993SOL    HW225330   5.690   1.020   3.640  1.4603 -0.7283 -0.8977
 5994SOL     OW25331   3.193   2.824   4.458 -0.2965 -0.1070 -0.1098
 5994SOL    HW125332   3.254   2.903   4.452 -0.4212  0.0370  0.4608
 5994SOL    HW225333   3.100   2.855   4.481 -0.2636 -0.4459  0.4995
 5995SOL     OW25334   8.605   8.074   3.540 -0.5978 -0.1745  0.3297
 5995SOL    HW125335   8.584   7.977   3.529  1.6412 -0.8327  1.5352
 5995SOL    HW225336   8.595   8.100   3.636 -0.7389  0.6588  0.0888
 5996SOL     OW25337   1.691   4.838   1.168 -0.5660 -0.0168  0.4884
 5996SOL    HW125338   1.780   4.842   1.122 -0.7573  0.9234  0.1850
 5996SOL    HW225339   1.633   4.770   1.123 -0.2799 -0.0548  0.1780
 5998SOL     OW25340   2.885   0.377   5.103 -0.1143 -0.1047 -0.3199
 5998SOL    HW125341   2.912   0.459   5.052 -0.0487  0.8493  1.2334
 5998SOL    HW225342   2.967   0.323   5.123  0.0623  0.3504  0.1964
 5999SOL     OW25343   4.869   3.791   1.291  0.2211 -0.1085 -0.2519
 5999SOL    HW125344   4.895   3.796   1.195  0.3008  1.5744 -0.1549
 5999SOL    HW225345   4.800   3.720   1.303  2.0945 -2.1361 -1.0978
 6000SOL     OW25346   9.234   8.806   1.106 -0.0024  0.1394 -0.4880
 6000SOL    HW125347   9.179   8.726   1.128 -0.3369  0.8007  1.1048
 6000SOL    HW225348   9.317   8.808   1.162  1.0169 -0.1370 -1.9283
 6001SOL     OW25349   8.983   6.090   4.893  0.2012  0.0655 -0.6190
 6001SOL    HW125350   8.959   5.993   4.904  1.9422 -0.4783 -1.5399
 6001SOL    HW225351   9.045   6.101   4.816  0.0291  1.9296 -0.5147
 6002SOL     OW25352   8.476   6.461   4.401  0.0587  0.3569  0.5779
 6002SOL    HW125353   8.471   6.371   4.358  0.8554  0.0042  1.2251
 6002SOL    HW225354   8.544   6.460   4.474  0.7481  1.7415 -0.0272
 6003SOL     OW25355   2.918   9.223   3.081  0.9968  0.3273  0.5252
 6003SOL    HW125356   2.872   9.291   3.137 -0.8734 -0.2627 -0.2373
 6003SOL    HW225357   2.874   9.134   3.093  2.2331 -0.3659  0.1106
 6004SOL     OW25358   1.993   9.894   4.250 -0.2355 -0.1492  0.2905
 6004SOL    HW125359   1.945   9.952   4.184 -1.0135 -2.3225 -1.0923
 6004SOL    HW225360   2.004   9.944   4.336 -0.5856  2.1560 -0.9654
 6005SOL     OW25361   1.092   7.404   2.498  0.2469 -0.3218  0.1924
 6005SOL    HW125362   1.086   7.379   2.402  0.3611 -0.8244  0.3142
 6005SOL    HW225363   1.127   7.326   2.551  2.5656  0.7287  0.2879
 6006SOL     OW25364   8.142   5.988   4.976  0.4128  0.0136 -0.3857
 6006SOL    HW125365   8.064   6.031   5.022 -0.5118 -1.6856 -0.3155
 6006SOL    HW225366   8.130   5.993   4.877  0.7296  0.6669 -0.3936
 6007SOL     OW25367   8.227   1.496   3.314  0.1185 -0.3867 -0.0911
 6007SOL    HW125368   8.260   1.510   3.220  0.1737 -0.4866 -0.0875
 6007SOL    HW225369   8.275   1.558   3.376  1.1154 -1.3079  0.0758
 6008SOL     OW25370   3.715   9.742   1.388  0.1470 -0.4123 -0.3950
 6008SOL    HW125371   3.775   9.711   1.462  0.7112  0.9992 -0.2575
 6008SOL    HW225372   3.764   9.807   1.330 -1.9587  2.6422  1.1052
 6009SOL     OW25373   9.961   9.389   0.211 -0.2892  0.1781 -0.7182
 6009SOL    HW125374   9.886   9.349   0.264 -0.3811  0.3746 -0.7006
 6009SOL    HW225375   9.930   9.409   0.118  0.4786 -2.1881 -1.5228
 6010SOL     OW25376   3.084   4.450   3.739  0.4022  0.3599 -0.5122
 6010SOL    HW125377   3.022   4.378   3.767  1.1195 -0.7620 -1.7573
 6010SOL    HW225378   3.035   4.518   3.684  0.1034 -0.0829 -0.7910
 6011SOL     OW25379   0.888   8.040   3.272 -0.0328 -0.4325  0.3866
 6011SOL    HW125380   0.796   8.015   3.242  0.3206 -1.7638  0.3416
 6011SOL    HW225381   0.897   8.139   3.277 -1.3452 -0.2938  0.0063
 6012SOL     OW25382   3.886   8.766   1.591  0.6151 -0.0582  0.2632
 6012SOL    HW125383   3.797   8.728   1.565 -0.7894  1.9088  2.0633
 6012SOL    HW225384   3.954   8.693   1.591 -0.5688 -1.2571 -2.9309
 6016SOL     OW25385   7.887   1.789   3.102  0.4913  0.2194  0.6596
 6016SOL    HW125386   7.905   1.833   3.014 -0.5956 -0.6413 -0.0097
 6016SOL    HW225387   7.897   1.690   3.093 -0.5764  0.0484  1.2646
 6017SOL     OW25388   2.541   2.175   0.651  0.6447  0.4969  0.1740
 6017SOL    HW125389   2.563   2.225   0.567 -0.3390  2.3256  0.9699
 6017SOL    HW225390   2.507   2.240   0.720 -1.5141 -1.3958  0.9454
 6018SOL     OW25391   0.654   4.301   0.221  0.9775 -0.0323  0.1163
 6018SOL    HW125392   0.606   4.256   0.297 -1.1460  0.5699 -0.8389
 6018SOL    HW225393   0.726   4.359   0.257  1.1355 -1.1097  1.5838
 6019SOL     OW25394   4.530   1.837   0.112 -0.1064 -0.5521  0.1324
 6019SOL    HW125395   4.526   1.755   0.168  2.1311 -0.2030  0.8692
 6019SOL    HW225396   4.505   1.815   0.018 -0.0271 -1.9607  0.4285
 6021SOL     OW25397   1.873   0.774   0.617 -0.3853 -0.0972 -0.2020
 6021SOL    HW125398   1.808   0.848   0.634 -1.6647 -1.1523 -0.5169
 6021SOL    HW225399   1.893   0.768   0.519 -2.3531 -1.8871 -0.5263
 6022SOL     OW25400   8.735   0.424   0.063  0.6143  0.2527  0.1064
 6022SOL    HW125401   8.770   0.338   0.101 -0.6894  0.1014  0.9697
 6022SOL    HW225402   8.795   0.453  -0.012  0.1712 -2.2429 -1.2816
 6023SOL     OW25403   9.587   0.062   0.745 -0.0320 -0.1104 -0.6256
 6023SOL    HW125404   9.613   0.035   0.838 -0.5275  0.2702 -0.3726
 6023SOL    HW225405   9.542  -0.015   0.699  0.8153 -0.5079 -0.7812
 6027SOL     OW25406   4.257   3.122   0.637 -0.0847  0.4358 -0.0879
 6027SOL    HW125407   4.357   3.129   0.631 -0.1580  2.3883  0.4857
 6027SOL    HW225408   4.222   3.074   0.557  1.3415 -0.6566 -0.0875
 6028SOL     OW25409   7.334   4.016   1.317  0.6563 -0.0588 -0.4156
 6028SOL    HW125410   7.353   4.011   1.219  0.5938 -0.2196 -0.4190
 6028SOL    HW225411   7.276   4.095   1.335  0.7335  0.0174 -0.4984
 6029SOL     OW25412   3.697   3.500   2.677 -0.5029  0.0593  0.4382
 6029SOL    HW125413   3.767   3.568   2.654  0.0756 -0.4522  0.6381
 6029SOL    HW225414   3.687   3.494   2.776  2.0052 -2.6109  0.6217
 6031SOL     OW25415   0.027   9.058   3.570  0.0108 -0.4109  0.5248
 6031SOL    HW125416   0.118   9.021   3.583  0.5902  0.2423 -1.4254
 6031SOL    HW225417   0.006   9.122   3.644 -0.1192 -2.8673  2.6630
 6032SOL     OW25418   2.500   4.912   3.145 -0.1036 -0.0504  0.2682
 6032SOL    HW125419   2.592   4.941   3.171  0.0214  0.4716 -0.7468
 6032SOL    HW225420   2.440   4.915   3.226  0.1958  1.9121  0.4393
 6034SOL     OW25421   8.528   5.039   2.979  0.0219  0.1492  0.5908
 6034SOL    HW125422   8.535   5.053   3.078 -1.5296  1.0790  0.5895
 6034SOL    HW225423   8.449   5.090   2.944  1.3153  0.8673 -1.3364
 6035SOL     OW25424   1.024   9.006   1.508  0.7445  0.7733  0.1947
 6035SOL    HW125425   0.975   9.031   1.592 -0.0178  1.5212 -0.4713
 6035SOL    HW225426   1.026   8.906   1.500 -2.1092  0.7147 -0.5696
 6036SOL     OW25427   9.165   5.995   1.898 -0.4583 -0.0081  0.2569
 6036SOL    HW125428   9.126   5.903   1.895  0.4582 -0.4120  0.4846
 6036SOL    HW225429   9.233   6.006   1.825 -1.1309  0.7520 -0.2634
 6037SOL     OW25430   3.444   7.033   4.887 -0.5354 -0.7454 -0.2213
 6037SOL    HW125431   3.355   6.988   4.891 -0.1001 -1.5245  1.1190
 6037SOL    HW225432   3.515   6.964   4.876  0.1220 -0.3726  1.6258
 6038SOL     OW25433   1.450   7.011   5.281 -0.9290  0.2819  0.0531
 6038SOL    HW125434   1.429   6.914   5.289  1.4364 -0.0614  3.3149
 6038SOL    HW225435   1.373   7.065   5.317 -1.8351 -0.3785 -0.8617
 6039SOL     OW25436   6.794   2.525   2.481  0.3919  0.6116  0.7196
 6039SOL    HW125437   6.828   2.433   2.463 -1.5075  0.0550 -0.1451
 6039SOL    HW225438   6.838   2.590   2.419  0.6866  0.0691  0.3616
 6040SOL     OW25439   3.187   8.320   0.034 -0.3183 -0.4957  0.4312
 6040SOL    HW125440   3.258   8.363  -0.023 -0.1145  0.3958  1.3434
 6040SOL    HW225441   3.101   8.368   0.022 -0.5992 -1.1387 -0.1367
 6042SOL     OW25442   8.566   2.442   3.676  0.3293  0.2004 -0.1246
 6042SOL    HW125443   8.611   2.519   3.720  0.5937 -0.8330  1.4472
 6042SOL    HW225444   8.524   2.472   3.590  1.1865  1.8807  0.0345
 6043SOL     OW25445   0.092   7.133   1.740  0.4759 -0.2605 -0.0212
 6043SOL    HW125446   0.043   7.206   1.693 -0.5452 -0.6239  0.4636
 6043SOL    HW225447   0.142   7.078   1.673  2.5948  1.8618 -0.2216
 6044SOL     OW25448   1.038   5.721   4.160 -0.1934 -0.7370 -0.2572
 6044SOL    HW125449   1.129   5.693   4.192 -0.2308 -0.9631 -0.3459
 6044SOL    HW225450   0.999   5.786   4.225  0.5107  0.2572 -0.8106
 6045SOL     OW25451   2.999   2.869   5.190  0.3866 -0.7533 -0.2297
 6045SOL    HW125452   3.005   2.776   5.227  2.4950 -0.7217 -0.4202
 6045SOL    HW225453   3.045   2.873   5.102 -1.8031 -0.0619 -1.3817
 6047SOL     OW25454   3.761   0.759   1.511 -0.2769 -0.4464 -0.4412
 6047SOL    HW125455   3.797   0.852   1.507 -0.1352 -0.3937  1.4410
 6047SOL    HW225456   3.836   0.694   1.518 -0.4521 -0.4282  2.0512
 6048SOL     OW25457   6.448   8.666   3.258  0.3827 -0.2115 -0.0609
 6048SOL    HW125458   6.500   8.722   3.194 -1.3009  1.4264 -0.0187
 6048SOL    HW225459   6.511   8.610   3.311  1.9875  0.5113 -1.1554
 6050SOL     OW25460   0.517   6.218   4.941 -0.6056  0.1643  0.2125
 6050SOL    HW125461   0.477   6.309   4.931 -1.1168  0.2860  2.9246
 6050SOL    HW225462   0.616   6.226   4.945 -0.5416  0.3911 -1.3181
 6052SOL     OW25463   4.113   1.663   4.258 -0.1436  0.7229  0.8055
 6052SOL    HW125464   4.094   1.751   4.214 -0.0428  0.8548  1.0291
 6052SOL    HW225465   4.113   1.674   4.357  3.2944  1.1748  0.8125
 6053SOL     OW25466   1.911   9.270   5.270  1.1316 -0.0157 -0.0050
 6053SOL    HW125467   1.986   9.328   5.241  1.0776  0.8883  1.6032
 6053SOL    HW225468   1.905   9.270   5.370 -0.8529 -0.2659 -0.0996
 6055SOL     OW25469   9.847   4.869   3.086 -0.3147  0.2978 -0.6419
 6055SOL    HW125470   9.831   4.836   2.993 -0.6447 -0.0559 -0.4651
 6055SOL    HW225471   9.760   4.869   3.136  0.2739 -1.9139  0.4365
 6056SOL     OW25472   7.865   1.004   4.820  0.1927  0.6976 -0.5273
 6056SOL    HW125473   7.786   1.016   4.880 -0.3016 -1.1207 -0.7805
 6056SOL    HW225474   7.935   1.072   4.843 -0.4171  0.7150  1.3712
 6057SOL     OW25475   9.183   5.366   2.141 -0.0863  0.0893 -0.0536
 6057SOL    HW125476   9.220   5.441   2.195 -1.0595  0.1366  0.5606
 6057SOL    HW225477   9.157   5.290   2.201  1.4933 -1.0079 -0.7293
 6059SOL     OW25478   2.242   7.888   1.856 -0.7528 -0.2149  0.2093
 6059SOL    HW125479   2.279   7.879   1.764 -0.6366 -1.7233  0.3930
 6059SOL    HW225480   2.293   7.959   1.906  0.4434 -0.7334 -0.2614
 6060SOL     OW25481   2.391   9.945   1.272  0.3838  0.7424  0.2940
 6060SOL    HW125482   2.490   9.952   1.289  0.5752 -0.5614 -0.1688
 6060SOL    HW225483   2.376   9.910   1.180 -0.5007  0.2681  0.6153
 6061SOL     OW25484   0.621   4.921   4.635  0.4185  0.7004 -0.2726
 6061SOL    HW125485   0.710   4.922   4.590  0.8583  0.0593  0.5776
 6061SOL    HW225486   0.633   4.928   4.734 -0.3817 -0.9430 -0.0417
 6062SOL     OW25487   2.777   2.705   3.649  0.1412  0.1773 -1.2252
 6062SOL    HW125488   2.854   2.697   3.713 -1.4196  0.8534  0.8135
 6062SOL    HW225489   2.780   2.795   3.605 -0.4490  0.8994  0.1752
 6064SOL     OW25490   7.005   2.209   1.844  0.8516 -0.0230 -0.4783
 6064SOL    HW125491   6.997   2.219   1.745  1.7226 -2.7794 -0.8714
 6064SOL    HW225492   7.101   2.206   1.870  0.6520 -1.4397  0.1672
 6066SOL     OW25493   0.913   3.419   0.938  0.6550  0.4279 -0.2744
 6066SOL    HW125494   0.900   3.412   1.036 -0.0217  0.9134 -0.3275
 6066SOL    HW225495   0.995   3.474   0.919  0.4286  0.8653  0.0081
 6067SOL     OW25496   9.190   1.226   2.839 -0.4787  0.2400  0.1409
 6067SOL    HW125497   9.261   1.297   2.843 -0.6268  0.3264  1.2535
 6067SOL    HW225498   9.205   1.169   2.758  2.0176 -0.9681  1.4144
 6068SOL     OW25499   2.299   2.379   3.675 -0.3706 -0.0393  0.6416
 6068SOL    HW125500   2.381   2.367   3.618 -1.4785 -0.1898 -0.9571
 6068SOL    HW225501   2.323   2.364   3.771  1.5040  0.0464  0.2129
 6069SOL     OW25502   3.203   7.416   4.862  0.0244  0.1924  0.1318
 6069SOL    HW125503   3.205   7.384   4.767  0.1772  0.0989  0.1679
 6069SOL    HW225504   3.128   7.371   4.911  0.5410 -0.4703  0.3141
 6070SOL     OW25505   2.086   6.483   1.230  0.5402 -0.5214  0.2840
 6070SOL    HW125506   2.042   6.394   1.235  1.0021 -0.6413  2.6208
 6070SOL    HW225507   2.030   6.544   1.173 -0.0133 -2.1337 -0.9436
 6071SOL     OW25508   5.127   1.103   4.976  0.5768  0.4532  0.2336
 6071SOL    HW125509   5.151   1.008   4.955  0.7297  0.7048 -0.7449
 6071SOL    HW225510   5.098   1.149   4.893  0.6576  1.3159  0.6788
 6072SOL     OW25511   9.345   5.236   0.295 -0.0273 -0.2275 -0.3574
 6072SOL    HW125512   9.334   5.275   0.387  0.6258 -1.6275  0.3159
 6072SOL    HW225513   9.255   5.220   0.255 -0.3177  1.6377 -0.5106
 6073SOL     OW25514   1.338   8.765   4.125  0.2528  0.0438 -0.1299
 6073SOL    HW125515   1.242   8.794   4.120 -0.3842 -2.1534 -1.1637
 6073SOL    HW225516   1.358   8.730   4.216 -0.2644 -0.5588 -0.2405
 6074SOL     OW25517   0.185   9.056   4.678  0.4339 -0.2501 -0.7350
 6074SOL    HW125518   0.202   9.076   4.581 -1.5015  2.0783 -0.6516
 6074SOL    HW225519   0.258   9.097   4.733  1.7162 -1.8569 -1.2003
 6075SOL     OW25520   1.012   2.475   2.532 -0.4424 -0.0845 -0.4978
 6075SOL    HW125521   1.088   2.411   2.524 -0.5140 -0.2502  0.1478
 6075SOL    HW225522   0.992   2.492   2.628  0.7902  2.3576 -0.6290
 6076SOL     OW25523   4.456   0.820   2.431  0.0345  0.0231  0.7564
 6076SOL    HW125524   4.365   0.786   2.453 -0.5713  0.5505 -0.8276
 6076SOL    HW225525   4.523   0.746   2.442 -1.0123 -1.2233 -0.8674
 6077SOL     OW25526   4.202   5.796   5.010 -0.1898 -0.0523 -0.4204
 6077SOL    HW125527   4.202   5.881   5.061 -0.1710 -0.2975 -0.0094
 6077SOL    HW225528   4.109   5.778   4.975 -0.3134 -0.1308 -0.0559
 6078SOL     OW25529   0.221   9.109   4.401 -0.1035  0.4645  0.0085
 6078SOL    HW125530   0.185   9.203   4.398  0.5990  0.7287 -0.1017
 6078SOL    HW225531   0.149   9.045   4.372  0.0330  1.1315 -1.8649
 6079SOL     OW25532   7.865   8.493   3.037 -0.2207 -0.4390  0.0646
 6079SOL    HW125533   7.922   8.502   3.119  0.1150  1.3157 -0.3457
 6079SOL    HW225534   7.916   8.526   2.957 -1.5121  0.3927 -0.4351
 6080SOL     OW25535   2.817   5.745   2.595 -0.1786  0.0575 -0.3051
 6080SOL    HW125536   2.799   5.760   2.497 -2.5258 -1.5621 -0.1437
 6080SOL    HW225537   2.736   5.768   2.648  1.0993  0.9584  1.3159
 6081SOL     OW25538   4.925   6.095   1.677 -0.5801  0.2501 -0.3099
 6081SOL    HW125539   4.924   6.004   1.718  0.6556  0.4643  0.2015
 6081SOL    HW225540   4.943   6.087   1.579  1.7593  0.0640  0.0999
 6082SOL     OW25541   8.162   4.775   1.156 -0.3363 -0.5255 -0.2002
 6082SOL    HW125542   8.066   4.787   1.132 -0.4458  0.8111  0.8722
 6082SOL    HW225543   8.207   4.864   1.161  0.3275 -0.9504  1.8018
 6083SOL     OW25544   0.336   6.377   0.499 -0.3200 -0.2105  0.0755
 6083SOL    HW125545   0.293   6.302   0.448 -0.3848 -1.5025  2.0090
 6083SOL    HW225546   0.400   6.340   0.566  0.0323  1.4920  0.7092
 6085SOL     OW25547   3.560   4.211   0.926  0.0721 -0.6696 -0.2115
 6085SOL    HW125548   3.574   4.219   1.025  0.0665 -0.8247 -0.1974
 6085SOL    HW225549   3.635   4.255   0.878 -0.8146  0.9544 -0.1457
 6086SOL     OW25550   6.500   0.319   5.110  0.5670 -0.1252  0.7467
 6086SOL    HW125551   6.503   0.240   5.049  1.7551  0.0307  0.5891
 6086SOL    HW225552   6.438   0.300   5.186 -1.9833  0.1844 -1.1754
 6088SOL     OW25553   1.040   4.200   1.554  0.5509 -0.3118 -0.1729
 6088SOL    HW125554   1.062   4.298   1.549  0.4634 -0.3983 -2.6235
 6088SOL    HW225555   1.123   4.146   1.542  0.3869 -0.5487 -0.2531
 6090SOL     OW25556   5.941   3.838   0.296  0.4020  0.2738  0.1219
 6090SOL    HW125557   5.912   3.820   0.390 -0.6131 -0.7053 -0.3548
 6090SOL    HW225558   5.863   3.873   0.244  1.1530  1.5183 -0.1768
 6091SOL     OW25559   8.825   9.178   3.894 -0.0228  0.2051  0.3940
 6091SOL    HW125560   8.869   9.261   3.926  1.1153  0.1016 -0.8491
 6091SOL    HW225561   8.863   9.099   3.942 -0.8885  0.3595  1.3557
 6092SOL     OW25562   7.614   1.898   3.694  0.0135 -0.3721  0.1167
 6092SOL    HW125563   7.677   1.943   3.630 -0.8838  1.2675  0.3546
 6092SOL    HW225564   7.540   1.855   3.642 -0.7884  1.0753  0.0390
 6094SOL     OW25565   3.890   4.995   3.376  0.5386 -0.5588  0.2261
 6094SOL    HW125566   3.986   4.976   3.394  0.6971  0.3366  0.3400
 6094SOL    HW225567   3.882   5.082   3.327 -0.0183 -1.9111 -2.1915
 6095SOL     OW25568   2.978   1.357   0.336  0.0183  0.3757 -0.2585
 6095SOL    HW125569   2.910   1.421   0.371 -0.1652 -0.0014  0.0841
 6095SOL    HW225570   2.950   1.264   0.359  1.0319  0.2692  0.5268
 6096SOL     OW25571   4.721   2.231   1.747 -0.4387  0.8092  0.8390
 6096SOL    HW125572   4.744   2.167   1.820 -1.0711  1.2667  1.4463
 6096SOL    HW225573   4.763   2.200   1.661 -1.2752 -0.7969  0.9748
 6097SOL     OW25574   1.852   9.592   0.972  0.5512 -0.9108 -0.1329
 6097SOL    HW125575   1.776   9.619   0.914  1.7588  1.1083 -0.7954
 6097SOL    HW225576   1.937   9.590   0.919  1.1971 -1.9263  0.8855
 6099SOL     OW25577   5.170   5.055   0.886  0.7072 -0.0107  0.1060
 6099SOL    HW125578   5.199   4.981   0.946 -0.4031  0.4337  1.2153
 6099SOL    HW225579   5.162   5.140   0.939 -2.8838 -0.1721 -0.0461
 6100SOL     OW25580   7.075   7.150   4.533  0.0723 -0.3870 -0.3881
 6100SOL    HW125581   7.009   7.217   4.567 -0.7743 -0.8302 -1.1561
 6100SOL    HW225582   7.128   7.114   4.610 -0.1328  0.4497  0.1489
 6101SOL     OW25583   4.967   1.996   3.949  0.0716  0.2730 -0.7020
 6101SOL    HW125584   4.911   2.051   3.887 -0.3765  1.3237  0.6036
 6101SOL    HW225585   5.064   2.007   3.926 -0.0335  1.3988 -0.6526
 6102SOL     OW25586   9.324   2.773   5.064  0.3923  0.4114  0.2856
 6102SOL    HW125587   9.389   2.728   5.003 -0.7153 -2.0243  0.8214
 6102SOL    HW225588   9.253   2.818   5.010  0.3540 -0.2989 -0.2670
 6105SOL     OW25589   3.569   8.294   2.537  0.8023 -0.2059 -0.0014
 6105SOL    HW125590   3.520   8.295   2.624  0.9634 -1.4040  0.1208
 6105SOL    HW225591   3.628   8.374   2.530 -0.0579  0.4736  0.5013
 6107SOL     OW25592   1.034   8.784   0.040 -0.1645  0.0830  0.2192
 6107SOL    HW125593   1.040   8.734  -0.046  0.6109  1.8907 -0.8008
 6107SOL    HW225594   0.959   8.748   0.095  1.5972 -3.5320  0.4050
 6108SOL     OW25595   7.038   1.659   3.610  0.1195  0.2718  0.9162
 6108SOL    HW125596   6.960   1.712   3.577  0.4233 -0.3429 -0.8717
 6108SOL    HW225597   7.120   1.716   3.609  0.2297  0.1115  0.0541
 6110SOL     OW25598   2.777   1.105   2.541  0.5208 -0.3747 -0.0028
 6110SOL    HW125599   2.821   1.016   2.539  1.4926  0.0081  2.4824
 6110SOL    HW225600   2.825   1.167   2.479 -0.7656 -1.8034 -2.4991
 6111SOL     OW25601   2.662   1.462   3.588  0.5831 -0.3111 -0.1155
 6111SOL    HW125602   2.610   1.504   3.663 -2.1013 -1.0286 -1.4926
 6111SOL    HW225603   2.655   1.362   3.596  1.4123 -0.4020 -0.5561
 6112SOL     OW25604   3.911   3.422   0.091  0.0070 -0.0310  0.3854
 6112SOL    HW125605   3.888   3.509   0.047  2.3487 -0.3486 -1.5769
 6112SOL    HW225606   3.854   3.349   0.054  1.2946 -0.1250 -1.4444
 6113SOL     OW25607   4.420   1.175   0.457  0.0675 -0.7219 -0.3393
 6113SOL    HW125608   4.377   1.258   0.421 -0.3906 -1.5878 -1.8425
 6113SOL    HW225609   4.458   1.122   0.382  1.4714 -1.2761  0.7291
 6114SOL     OW25610   4.062   4.679   3.300  0.2318  0.0061 -0.4119
 6114SOL    HW125611   4.077   4.580   3.300 -1.9182 -0.3439  0.1581
 6114SOL    HW225612   4.079   4.716   3.391 -2.5025 -0.4418  0.3180
 6115SOL     OW25613   8.440   0.425   2.764  0.2626  0.1597  0.1213
 6115SOL    HW125614   8.518   0.449   2.822  0.8763  0.5574 -0.8525
 6115SOL    HW225615   8.374   0.372   2.818  1.4838 -0.7101  0.7958
 6116SOL     OW25616   1.034   7.486   2.780  0.0371 -0.7133 -0.6029
 6116SOL    HW125617   1.051   7.428   2.860 -2.6372 -0.3768  0.2459
 6116SOL    HW225618   0.958   7.449   2.728  1.1314 -0.3731 -2.4889
 6118SOL     OW25619   5.473   9.786   2.807  0.3829 -0.2289  0.6106
 6118SOL    HW125620   5.548   9.852   2.806  0.1655  0.0293  1.3284
 6118SOL    HW225621   5.508   9.696   2.781  0.5298  0.3220 -1.1661
 6120SOL     OW25622   1.155   0.656   0.775  0.2959  0.0859 -0.1731
 6120SOL    HW125623   1.107   0.675   0.689  1.5864  2.0629 -0.4793
 6120SOL    HW225624   1.221   0.582   0.760  0.5314  0.4321 -0.8939
 6121SOL     OW25625   9.330   5.240   3.362  0.2900 -0.0327 -0.0068
 6121SOL    HW125626   9.371   5.268   3.275  0.3916  1.2357  0.4341
 6121SOL    HW225627   9.261   5.307   3.390 -0.7536 -1.1775  0.1936
 6122SOL     OW25628   4.062   0.231   1.325  0.7134 -0.1283 -0.3300
 6122SOL    HW125629   3.987   0.239   1.259  1.3770 -1.2071 -1.2585
 6122SOL    HW225630   4.054   0.143   1.373 -0.2163  1.0053  1.6173
 6123SOL     OW25631   9.210   6.569   5.167 -0.2022 -0.2268 -0.6105
 6123SOL    HW125632   9.153   6.505   5.114 -0.5202  0.8400 -1.5966
 6123SOL    HW225633   9.172   6.579   5.258  1.6032 -3.7980  0.6333
 6124SOL     OW25634   8.613   6.805   0.006 -0.1078  0.0896  0.1432
 6124SOL    HW125635   8.650   6.898  -0.003  1.0325 -0.3678 -0.0488
 6124SOL    HW225636   8.570   6.795   0.095 -0.2866  0.8179  0.1453
 6125SOL     OW25637   3.957   9.738   1.541 -0.2556  0.0269 -1.1214
 6125SOL    HW125638   4.048   9.728   1.502 -0.0531  1.2619 -0.9904
 6125SOL    HW225639   3.943   9.668   1.611  0.5512 -0.2401 -1.2210
 6126SOL     OW25640   2.422   3.728   3.619  0.1018  0.6164  0.1481
 6126SOL    HW125641   2.491   3.699   3.686  1.6417  1.2835 -1.1176
 6126SOL    HW225642   2.409   3.826   3.626  0.3396  0.7017 -0.5957
 6127SOL     OW25643   1.575   6.347   3.197 -0.2286 -0.2941  0.4338
 6127SOL    HW125644   1.610   6.406   3.124 -0.2007 -0.7380  0.0945
 6127SOL    HW225645   1.542   6.261   3.159  0.4148 -0.8030  1.0180
 6128SOL     OW25646   7.894   0.390   1.336 -0.4026  0.1159  0.1911
 6128SOL    HW125647   7.934   0.304   1.305  0.3542 -0.2535  2.1291
 6128SOL    HW225648   7.794   0.385   1.326 -0.6056 -2.0307  2.7177
 6129SOL     OW25649   2.927   3.804   1.448 -0.3148  0.1273  0.5820
 6129SOL    HW125650   2.985   3.802   1.366  0.6237  4.2186  1.0613
 6129SOL    HW225651   2.977   3.765   1.525  1.9884  3.8025  1.0379
 6130SOL     OW25652   9.138   7.812   1.411  0.3911 -0.2678  0.2546
 6130SOL    HW125653   9.120   7.909   1.397  0.6009 -0.1870  0.5393
 6130SOL    HW225654   9.169   7.771   1.325 -0.3746 -0.2404 -0.0452
 6131SOL     OW25655   4.020   2.488   0.478 -0.3505  0.5925  0.7994
 6131SOL    HW125656   4.083   2.507   0.402 -0.8122  0.4506  0.3800
 6131SOL    HW225657   4.051   2.408   0.528 -1.1785 -0.5583 -0.5007
 6132SOL     OW25658   4.013   5.912   2.010 -0.1404  0.0786  0.0178
 6132SOL    HW125659   4.042   5.990   2.066 -0.3867  1.0334 -1.1666
 6132SOL    HW225660   3.913   5.904   2.012 -0.0452 -1.0201  1.1931
 6134SOL     OW25661   6.845   1.601   2.316 -0.2368 -0.0589 -0.3337
 6134SOL    HW125662   6.854   1.578   2.413  0.2431 -0.8923 -0.5720
 6134SOL    HW225663   6.935   1.623   2.279 -0.1423 -1.5666 -1.0355
 6135SOL     OW25664   8.610   9.458   4.118  0.0611 -0.2612 -0.4142
 6135SOL    HW125665   8.601   9.397   4.038 -1.7920  0.0166 -0.4272
 6135SOL    HW225666   8.522   9.499   4.139  1.1410  1.8819  0.0549
 6136SOL     OW25667   8.817   2.613   2.072 -0.0345  0.2933 -0.5005
 6136SOL    HW125668   8.903   2.655   2.101 -0.4173  0.7704 -0.0338
 6136SOL    HW225669   8.790   2.543   2.138 -0.5916  0.9508 -0.0226
 6138SOL     OW25670   4.794   4.712   3.235 -0.4465  0.1874 -0.2209
 6138SOL    HW125671   4.731   4.773   3.187 -0.4085 -0.1038 -0.6465
 6138SOL    HW225672   4.831   4.645   3.170 -1.9047 -1.4635  0.6236
 6139SOL     OW25673   9.901   5.872   1.751  0.0184 -0.0778 -0.0007
 6139SOL    HW125674   9.862   5.929   1.823 -1.3329 -1.0666  0.0678
 6139SOL    HW225675   9.861   5.896   1.663  0.1295 -0.2839 -0.1100
 6140SOL     OW25676   9.332   8.174   2.766 -0.1172  0.1731  0.2837
 6140SOL    HW125677   9.314   8.213   2.676 -1.8261  2.2230  1.4600
 6140SOL    HW225678   9.402   8.228   2.813  0.6142 -0.7593  0.2776
 6142SOL     OW25679   4.027   2.655   5.028 -0.5434 -0.3623 -0.9123
 6142SOL    HW125680   4.018   2.725   4.958  0.2816 -0.8905 -1.5556
 6142SOL    HW225681   3.943   2.600   5.031 -0.6939 -0.1583 -1.2825
 6143SOL     OW25682   9.846   7.367   3.389 -0.1544 -0.7280 -0.0769
 6143SOL    HW125683   9.797   7.312   3.321 -0.6853 -0.4255  0.0579
 6143SOL    HW225684   9.781   7.418   3.444  0.4307  2.0049 -1.8579
 6144SOL     OW25685   1.930   1.475   0.924  0.3698 -0.2597 -0.2378
 6144SOL    HW125686   2.000   1.410   0.953  0.3692  0.1683  0.7299
 6144SOL    HW225687   1.964   1.568   0.937  0.0350 -0.0596 -0.7956
 6146SOL     OW25688   4.925   0.229   3.634 -0.2913 -0.3121  0.0188
 6146SOL    HW125689   4.935   0.130   3.625 -2.5458 -0.7066  1.5965
 6146SOL    HW225690   4.843   0.259   3.585 -0.9463  0.4153  1.5152
 6147SOL     OW25691   4.349   6.535   2.129  0.2795  0.0687 -0.3572
 6147SOL    HW125692   4.374   6.534   2.226  0.1496  0.2938 -0.3217
 6147SOL    HW225693   4.430   6.515   2.074  0.4039  0.1679 -0.2130
 6149SOL     OW25694   0.481   9.405   0.969 -0.1306 -0.0968  0.1264
 6149SOL    HW125695   0.429   9.480   1.009 -1.4880  0.0814 -1.8900
 6149SOL    HW225696   0.547   9.370   1.036 -0.0115  2.3715  1.3313
 6150SOL     OW25697   2.248   1.452   1.386 -0.1771  0.5724 -0.1042
 6150SOL    HW125698   2.297   1.455   1.299 -0.4677  0.9540 -0.2523
 6150SOL    HW225699   2.232   1.356   1.412  0.1870  0.4572 -0.3139
 6153SOL     OW25700   2.909   3.632   5.106  0.2046  0.0324 -0.1775
 6153SOL    HW125701   2.975   3.666   5.040  0.3544 -0.9866 -0.5520
 6153SOL    HW225702   2.948   3.556   5.158 -0.8088 -0.8808 -0.7117
 6154SOL     OW25703   9.154   2.542   2.750  0.0921  0.3484  0.8227
 6154SOL    HW125704   9.167   2.590   2.837  0.5990  1.6089  0.0723
 6154SOL    HW225705   9.161   2.444   2.764  1.7276  0.6109  1.9498
 6156SOL     OW25706   0.999   5.134   4.990 -0.2989 -0.0373 -0.3461
 6156SOL    HW125707   1.033   5.203   5.054 -1.2333 -0.3507  0.5023
 6156SOL    HW225708   0.998   5.173   4.897 -1.6582  1.4282  0.2453
 6157SOL     OW25709   0.741   5.633   4.398 -0.2089  0.0683 -0.1077
 6157SOL    HW125710   0.701   5.544   4.377  0.0512  0.2648 -1.4500
 6157SOL    HW225711   0.825   5.620   4.451 -0.5063 -0.4533  0.2422
 6158SOL     OW25712   2.953   8.725   4.450 -0.0745  0.0094 -0.0252
 6158SOL    HW125713   2.896   8.690   4.376 -2.7697  1.6005  1.2057
 6158SOL    HW225714   2.988   8.649   4.505 -0.6316 -1.0178 -1.0926
 6159SOL     OW25715   3.633   6.035   3.049 -0.1964 -0.7331  0.4638
 6159SOL    HW125716   3.594   6.059   3.138 -0.3677 -0.4844  0.3202
 6159SOL    HW225717   3.563   6.040   2.979 -0.5144 -2.6977  0.5919
 6160SOL     OW25718   5.882   9.461   1.717  0.3168  0.2767 -0.0104
 6160SOL    HW125719   5.885   9.531   1.646  2.7686 -0.7017 -0.9138
 6160SOL    HW225720   5.886   9.370   1.675 -0.1231 -0.3596  1.2853
 6161SOL     OW25721   2.367   2.669   4.275  0.1803 -0.6170  0.0457
 6161SOL    HW125722   2.276   2.709   4.271  1.4909  2.4508 -0.4224
 6161SOL    HW225723   2.405   2.681   4.366  1.2042  0.7059 -0.5329
 6162SOL     OW25724   4.339   1.448   4.286  1.0299  0.1285 -0.0967
 6162SOL    HW125725   4.275   1.515   4.323  1.0016 -0.5309  1.0796
 6162SOL    HW225726   4.347   1.371   4.350  4.2917  0.9890  0.6086
 6163SOL     OW25727   2.838   4.903   3.218  0.0822  0.5181 -0.0798
 6163SOL    HW125728   2.890   4.836   3.166  0.6855  1.2140 -0.3872
 6163SOL    HW225729   2.867   4.900   3.314  0.4918  0.7208 -0.1993
 6164SOL     OW25730   1.807   0.136   4.772  0.3525 -0.2121 -0.0837
 6164SOL    HW125731   1.773   0.102   4.860  1.0394  1.5779  0.9106
 6164SOL    HW225732   1.730   0.167   4.716 -0.0462 -0.8092  0.1287
 6165SOL     OW25733   2.852   5.102   2.788  0.1322 -0.1055  0.8042
 6165SOL    HW125734   2.803   5.018   2.812 -0.3837  0.6089  2.2637
 6165SOL    HW225735   2.789   5.179   2.788  0.3611  0.1295 -1.6880
 6166SOL     OW25736   0.799   0.511   4.430 -0.2344 -0.3282 -0.0917
 6166SOL    HW125737   0.838   0.499   4.521 -1.0859  0.3513  0.3642
 6166SOL    HW225738   0.711   0.557   4.437  1.2488  2.8458 -1.4970
 6167SOL     OW25739   6.277   7.202   4.478 -0.0421  0.1271 -0.2172
 6167SOL    HW125740   6.314   7.121   4.433 -0.4489 -0.0640 -0.2084
 6167SOL    HW225741   6.233   7.175   4.564  0.7860  0.4981  0.3298
 6168SOL     OW25742   3.789   3.622   0.374  0.2859  0.3426  0.2316
 6168SOL    HW125743   3.721   3.648   0.442 -0.3428 -1.3319  0.2483
 6168SOL    HW225744   3.784   3.685   0.296 -1.0749  0.3858  0.3537
 6169SOL     OW25745   9.882   5.053   3.454 -0.5796 -0.0558 -0.1746
 6169SOL    HW125746   9.799   5.079   3.406 -1.7838 -2.0978  0.7411
 6169SOL    HW225747   9.914   4.964   3.420 -0.1512 -0.4244  1.1435
 6171SOL     OW25748   4.248   2.798   4.300 -0.0843  0.1614 -0.7804
 6171SOL    HW125749   4.177   2.737   4.336  0.3319 -1.8295 -3.1572
 6171SOL    HW225750   4.224   2.893   4.320 -3.7417 -0.4012 -1.9608
 6173SOL     OW25751   8.261   6.683   1.363 -0.0763  0.6964 -0.1262
 6173SOL    HW125752   8.292   6.609   1.304 -1.5144 -0.1432  0.1498
 6173SOL    HW225753   8.230   6.760   1.306 -0.4591  0.3041 -0.4535
 6174SOL     OW25754   3.569   0.194   3.210 -0.5801 -0.4148 -0.2177
 6174SOL    HW125755   3.539   0.288   3.192  0.7416  0.5307  2.2240
 6174SOL    HW225756   3.518   0.131   3.152 -1.5466  1.8029 -1.8575
 6175SOL     OW25757   4.257   5.796   0.532 -0.0808 -0.0399 -0.4663
 6175SOL    HW125758   4.177   5.749   0.494 -0.5492  0.1267  0.2959
 6175SOL    HW225759   4.231   5.887   0.563  0.6539  0.4313 -1.2128
 6177SOL     OW25760   0.195   6.881   0.047  0.4345  0.0845  0.4720
 6177SOL    HW125761   0.128   6.858  -0.024  0.4630  0.2972  0.3766
 6177SOL    HW225762   0.157   6.949   0.108  0.5471  0.1721  0.4448
 6179SOL     OW25763   5.093   4.915   1.842  0.2336  0.7588  0.5311
 6179SOL    HW125764   5.009   4.960   1.813  0.4598  1.2955  0.6864
 6179SOL    HW225765   5.077   4.863   1.926 -0.1361  0.1808  0.1048
 6180SOL     OW25766   1.930   3.175   3.273  0.2735  0.1364  0.4822
 6180SOL    HW125767   1.961   3.270   3.279 -1.2988  0.6719  0.2638
 6180SOL    HW225768   1.925   3.135   3.364  0.9891  0.2285  0.5698
 6181SOL     OW25769   8.044   4.071   1.574 -0.2541  0.3120 -0.0490
 6181SOL    HW125770   8.048   3.987   1.628 -0.6736 -0.9504 -1.9496
 6181SOL    HW225771   8.124   4.076   1.514 -0.3228  1.1793 -0.0674
 6182SOL     OW25772   9.290   1.927   3.649  0.0230 -0.2652  0.5722
 6182SOL    HW125773   9.210   1.961   3.698  0.3988 -1.7345  2.3049
 6182SOL    HW225774   9.373   1.968   3.688  0.1936  0.2598 -0.3363
 6183SOL     OW25775   3.573   4.376   2.271  0.5466 -0.2855  0.8965
 6183SOL    HW125776   3.579   4.471   2.240  1.9017 -0.5039  0.4603
 6183SOL    HW225777   3.617   4.367   2.360  1.4095 -0.7195  0.4308
 6184SOL     OW25778   9.616   7.375   4.645  0.7270  0.0071 -0.2121
 6184SOL    HW125779   9.638   7.448   4.709  0.0344 -0.0922  0.1475
 6184SOL    HW225780   9.673   7.295   4.664 -0.2095 -0.3986  0.9836
 6185SOL     OW25781   0.876   3.920   5.254  0.2686  0.3674 -1.3548
 6185SOL    HW125782   0.784   3.879   5.247  0.8872 -0.9795 -1.7683
 6185SOL    HW225783   0.890   3.984   5.178 -0.6763  1.3082 -0.7520
 6186SOL     OW25784   3.408   3.037   3.649  0.6237  0.0488  0.6207
 6186SOL    HW125785   3.387   2.946   3.684 -0.7717  0.0697 -0.1167
 6186SOL    HW225786   3.365   3.105   3.708  0.6440  0.1895  0.4726
 6187SOL     OW25787   3.687   7.394   1.165  0.2952 -0.3274  0.0130
 6187SOL    HW125788   3.773   7.427   1.204 -0.5842  1.8696  0.1621
 6187SOL    HW225789   3.630   7.355   1.238  0.2491  0.2476  0.2878
 6188SOL     OW25790   2.515   2.794   2.815 -0.0105  0.3469 -0.0647
 6188SOL    HW125791   2.437   2.797   2.877  1.1033 -1.5460  1.4734
 6188SOL    HW225792   2.563   2.881   2.818  0.2220  0.1753  1.9897
 6189SOL     OW25793   0.660   2.722   3.547  0.3982 -0.4437  0.5277
 6189SOL    HW125794   0.591   2.652   3.527 -0.2858  0.9032 -2.0666
 6189SOL    HW225795   0.749   2.678   3.556 -0.0440 -1.6792 -0.8921
 6191SOL     OW25796   5.067   4.560   3.256  0.5249 -0.3402  0.0609
 6191SOL    HW125797   5.032   4.593   3.344  1.7625 -0.8330  0.7491
 6191SOL    HW225798   5.131   4.486   3.272  0.1662 -0.9504 -1.3182
 6192SOL     OW25799   3.854   9.073   5.102  0.9089  0.2012  0.3626
 6192SOL    HW125800   3.842   9.011   5.024  2.1184 -0.2652  0.5295
 6192SOL    HW225801   3.943   9.056   5.144 -0.6657 -1.1806  3.2781
 6193SOL     OW25802   2.112   7.683   4.827  0.0992 -0.1549 -0.6926
 6193SOL    HW125803   2.071   7.688   4.919  0.0080  1.1280 -0.7954
 6193SOL    HW225804   2.081   7.761   4.773 -1.2024 -1.8175 -2.3837
 6194SOL     OW25805   8.295   3.407   1.887 -0.2091  0.3859  0.1963
 6194SOL    HW125806   8.353   3.346   1.942 -1.0323 -1.4353 -0.9229
 6194SOL    HW225807   8.292   3.497   1.931  0.6154 -0.4998  2.1664
 6195SOL     OW25808   1.613   7.442   1.024  0.1911  0.5899  0.4116
 6195SOL    HW125809   1.665   7.422   0.941 -0.4567 -1.3152  0.4320
 6195SOL    HW225810   1.536   7.502   1.003 -0.6906 -0.8620 -0.6245
 6196SOL     OW25811   2.433   2.557   1.331 -0.3850  0.5619 -0.2644
 6196SOL    HW125812   2.512   2.618   1.330  0.3298 -0.3555  0.0408
 6196SOL    HW225813   2.349   2.612   1.337  0.3102  1.4830  1.3622
 6197SOL     OW25814   9.266   6.988   2.049  0.3260  0.4743  0.3524
 6197SOL    HW125815   9.191   7.031   1.998 -0.3215 -0.8566  0.1572
 6197SOL    HW225816   9.268   7.024   2.142  0.4922  1.7341 -0.1308
 6198SOL     OW25817   8.346   9.491   4.965 -0.0936  0.2329  0.3645
 6198SOL    HW125818   8.280   9.566   4.975 -0.8792 -0.1752 -1.6909
 6198SOL    HW225819   8.424   9.508   5.026 -0.5752  2.3671  0.4331
 6199SOL     OW25820   9.826   6.027   4.197 -0.2449 -0.1809  0.1506
 6199SOL    HW125821   9.885   6.083   4.256  0.5905  2.2113 -2.7873
 6199SOL    HW225822   9.840   5.931   4.217  1.4443  0.5067  2.5021
 6201SOL     OW25823   4.396   3.564   0.227 -0.0855 -0.0391  0.1842
 6201SOL    HW125824   4.333   3.504   0.178 -1.0616  0.7717  0.4429
 6201SOL    HW225825   4.396   3.654   0.184  1.1892 -0.1271 -0.0422
 6203SOL     OW25826   8.772   5.217   2.997 -0.3052  0.0190  0.0646
 6203SOL    HW125827   8.750   5.264   2.911 -1.3954  0.1642  0.4141
 6203SOL    HW225828   8.739   5.123   2.993  1.6462 -0.6564 -0.5346
 6204SOL     OW25829   1.831   6.670   4.479 -0.1128 -0.5899 -0.2550
 6204SOL    HW125830   1.862   6.678   4.384  0.3444 -1.0793 -0.1446
 6204SOL    HW225831   1.909   6.657   4.539 -0.3685  0.1176  0.2403
 6205SOL     OW25832   0.047   0.921   0.605 -0.4226 -0.5160  0.0862
 6205SOL    HW125833  -0.031   0.901   0.546  0.1228  0.3424 -0.9268
 6205SOL    HW225834   0.071   1.018   0.598  0.6485 -0.7437  0.4968
 6206SOL     OW25835   8.680   1.520   2.628  0.4819  0.1488 -0.6019
 6206SOL    HW125836   8.636   1.466   2.556  0.2232  0.9473 -1.0442
 6206SOL    HW225837   8.714   1.606   2.589  0.5412  0.4825  0.1832
 6207SOL     OW25838   1.740   1.967   4.926  0.1807  0.1887  0.3487
 6207SOL    HW125839   1.706   1.920   5.007  0.5179  0.3048  0.5612
 6207SOL    HW225840   1.805   2.038   4.954 -1.4798  1.8125  0.1519
 6208SOL     OW25841   8.326   4.986   1.212 -0.6594 -0.1270  0.3924
 6208SOL    HW125842   8.424   4.973   1.201 -0.5773  0.5233  0.3487
 6208SOL    HW225843   8.298   5.072   1.169 -1.6756 -1.5516 -1.9228
 6209SOL     OW25844   4.101   0.419   2.351  0.2869  0.0073 -0.0667
 6209SOL    HW125845   4.005   0.444   2.338 -0.7268 -2.2309  2.5717
 6209SOL    HW225846   4.157   0.502   2.358 -1.6082  1.3507 -0.5869
 6210SOL     OW25847   4.007   0.795   0.543 -0.4515  0.0281  0.7331
 6210SOL    HW125848   4.087   0.798   0.484 -0.8564 -0.2004  0.1644
 6210SOL    HW225849   3.975   0.887   0.561 -1.2137  0.0480 -0.6342
 6212SOL     OW25850   1.660   8.657   0.372  0.0981  0.5349 -0.0572
 6212SOL    HW125851   1.567   8.644   0.336  0.1555  0.3243 -0.1283
 6212SOL    HW225852   1.664   8.742   0.424  0.4725  1.7672 -2.0672
 6213SOL     OW25853   3.176   1.353   3.472 -0.6347  0.2966 -0.4410
 6213SOL    HW125854   3.185   1.450   3.495  0.6764 -0.2157  1.3273
 6213SOL    HW225855   3.100   1.314   3.524 -1.3403  0.4416 -1.3668
 6214SOL     OW25856   6.098   8.295   3.037 -0.5894 -0.4307 -0.3032
 6214SOL    HW125857   6.106   8.299   2.937 -0.3943  0.1046 -0.2727
 6214SOL    HW225858   6.106   8.388   3.074 -0.5090 -0.6448  0.2196
 6217SOL     OW25859   9.980   0.936   4.975  0.0100 -0.0068 -0.5828
 6217SOL    HW125860   9.988   1.034   4.960  0.0790  0.4861  2.3111
 6217SOL    HW225861   9.896   0.916   5.026  0.2664 -1.3704 -0.6559
 6220SOL     OW25862   0.314   9.962   3.070 -0.3807  0.0406 -0.5422
 6220SOL    HW125863   0.341   9.997   2.980  1.3190  0.5862  0.1606
 6220SOL    HW225864   0.323   9.862   3.071 -2.5475 -0.1982 -1.6601
 6221SOL     OW25865   0.055   9.184   1.754  0.0499  0.0076  0.0452
 6221SOL    HW125866   0.018   9.276   1.769  1.4671  0.5473  0.2212
 6221SOL    HW225867   0.004   9.140   1.680 -0.4081  1.0615 -0.2785
 6222SOL     OW25868   1.514   7.954   3.768 -0.3998  0.4694  0.2370
 6222SOL    HW125869   1.483   7.967   3.862  0.5097 -1.0470  0.7622
 6222SOL    HW225870   1.461   7.882   3.724 -0.5815  0.9220 -0.2952
 6224SOL     OW25871   0.937   2.558   2.791  0.2529 -0.2174 -0.8087
 6224SOL    HW125872   0.978   2.647   2.810  0.0677 -0.5107  1.0728
 6224SOL    HW225873   0.837   2.565   2.795  0.2226 -0.4253 -1.1070
 6225SOL     OW25874   3.000   3.670   0.750 -0.3427 -0.3706 -0.2258
 6225SOL    HW125875   3.091   3.665   0.791 -0.5350  0.2823  0.2925
 6225SOL    HW225876   2.932   3.686   0.822 -0.6777  0.8474 -0.8070
 6226SOL     OW25877   4.911   4.282   2.376  0.3364  0.1184  0.3334
 6226SOL    HW125878   4.844   4.263   2.304  0.1509 -0.0320  0.5415
 6226SOL    HW225879   4.879   4.359   2.432  1.2140  1.2238 -0.6630
 6227SOL     OW25880   1.080   0.123   4.941 -0.0080  0.7412 -0.2171
 6227SOL    HW125881   1.070   0.055   4.868  0.5266  0.3144  0.1010
 6227SOL    HW225882   1.152   0.094   5.004 -2.1172 -0.1479  1.8605
 6228SOL     OW25883   7.474   1.408   4.403 -0.0565  0.3205 -0.0314
 6228SOL    HW125884   7.410   1.358   4.346  0.4358  1.1479 -1.3287
 6228SOL    HW225885   7.566   1.371   4.392  0.7244  2.8758 -2.7399
 6230SOL     OW25886   4.669   2.568   3.701  0.3495  0.0416 -0.4771
 6230SOL    HW125887   4.613   2.531   3.775 -0.7994  0.3997 -1.1542
 6230SOL    HW225888   4.761   2.587   3.735 -0.1578  0.1872  0.8437
 6231SOL     OW25889   5.654   0.649   1.917  0.5961  0.6595 -0.0055
 6231SOL    HW125890   5.557   0.631   1.901  0.5471  0.4227  0.5351
 6231SOL    HW225891   5.673   0.746   1.902  0.0070  0.9674  1.1430
 6233SOL     OW25892   2.855   8.417   1.671  0.5930 -0.2018 -0.3720
 6233SOL    HW125893   2.866   8.357   1.592 -0.1800 -0.7362 -0.0711
 6233SOL    HW225894   2.895   8.506   1.650  1.0908 -0.5846 -1.0825
 6234SOL     OW25895   3.537   3.933   0.115 -0.3787 -0.2912 -0.2278
 6234SOL    HW125896   3.486   4.019   0.102  0.2357  0.0473 -0.4444
 6234SOL    HW225897   3.490   3.859   0.068 -1.3149 -0.2181  0.5892
 6236SOL     OW25898   7.209   2.474   2.355  0.1594  0.5555  0.1439
 6236SOL    HW125899   7.191   2.379   2.383 -0.9010  0.8274  0.4123
 6236SOL    HW225900   7.124   2.526   2.359  0.8535  1.6770  0.5956
 6237SOL     OW25901   7.235   9.028   2.318  0.6402  0.5091 -0.4101
 6237SOL    HW125902   7.283   9.085   2.252  2.5926 -1.2709 -0.6017
 6237SOL    HW225903   7.208   8.942   2.275  0.1785  0.1281  0.5981
 6238SOL     OW25904   0.018   7.179   4.534 -0.3433  0.4857 -0.0367
 6238SOL    HW125905   0.086   7.234   4.582  0.7588 -1.4352  0.6268
 6238SOL    HW225906  -0.067   7.177   4.587  0.0583  0.4300  0.6048
 6239SOL     OW25907   2.278   7.001   1.842 -0.1351 -0.0014 -0.0545
 6239SOL    HW125908   2.370   7.036   1.830 -0.3242  0.7089  0.5545
 6239SOL    HW225909   2.223   7.022   1.761  0.1850 -0.2597 -0.3375
 6240SOL     OW25910   3.261   3.470   3.109  0.2513 -0.2689 -0.1947
 6240SOL    HW125911   3.286   3.379   3.140  1.4239 -0.1372 -0.7220
 6240SOL    HW225912   3.306   3.489   3.021 -3.1990 -0.7301 -2.1490
 6241SOL     OW25913   6.413   1.263   0.663 -0.4738 -0.1151  0.0838
 6241SOL    HW125914   6.407   1.204   0.582  0.3098 -0.2092  0.0933
 6241SOL    HW225915   6.345   1.233   0.730 -2.9545  1.6043 -1.5801
 6243SOL     OW25916   4.890   7.138   3.637  0.2592  0.1848  0.1117
 6243SOL    HW125917   4.943   7.143   3.553  1.7734  0.0801  1.0492
 6243SOL    HW225918   4.936   7.077   3.702 -1.0331  0.0504  0.9254
 6244SOL     OW25919   7.963   8.805   2.701  0.0803  0.3321 -0.1595
 6244SOL    HW125920   8.048   8.857   2.713  0.5114 -0.3788 -0.1521
 6244SOL    HW225921   7.904   8.819   2.780  1.8174 -2.2701  1.6525
 6245SOL     OW25922   6.745   6.999   4.767 -0.0310  0.4843  0.2321
 6245SOL    HW125923   6.755   6.988   4.866 -0.1307  0.6941  0.2661
 6245SOL    HW225924   6.742   6.909   4.723 -1.0994  0.3606  0.5288
 6246SOL     OW25925   3.634   6.148   3.308 -0.0367  0.0191  0.6431
 6246SOL    HW125926   3.623   6.140   3.407  0.3831  0.1384  0.7030
 6246SOL    HW225927   3.731   6.162   3.286 -0.1113 -0.1208  0.2075
 6247SOL     OW25928   7.760   5.220   1.806 -0.3193 -0.2423 -0.0491
 6247SOL    HW125929   7.694   5.296   1.808 -0.4836 -0.3842 -0.0689
 6247SOL    HW225930   7.821   5.228   1.884 -1.6390 -1.2504  1.1095
 6248SOL     OW25931   5.517   4.851   0.792  0.2191 -0.3708 -0.3955
 6248SOL    HW125932   5.441   4.890   0.739 -0.0354  0.0174  0.2502
 6248SOL    HW225933   5.530   4.904   0.876  0.5593 -1.0369 -0.0217
 6249SOL     OW25934   3.364   6.701   3.920  0.3833 -0.7416  0.5883
 6249SOL    HW125935   3.406   6.791   3.932 -0.5337 -0.3143  0.5990
 6249SOL    HW225936   3.308   6.701   3.837 -0.0998 -1.1173  0.9142
 6250SOL     OW25937   5.312   8.757   2.605 -0.1711 -1.1066 -0.8340
 6250SOL    HW125938   5.324   8.812   2.688  0.3400 -0.3824 -1.3732
 6250SOL    HW225939   5.232   8.698   2.615 -0.0475 -1.1027  0.2141
 6251SOL     OW25940   6.896   8.927   4.658  0.4012  0.6836  0.6067
 6251SOL    HW125941   6.942   9.015   4.664  0.0524  1.0110 -1.2473
 6251SOL    HW225942   6.914   8.885   4.569 -1.8974  0.2869  0.2802
 6252SOL     OW25943   4.225   9.728   2.325  0.3748 -0.3452 -0.1207
 6252SOL    HW125944   4.306   9.677   2.354  0.7772 -0.9841 -2.2675
 6252SOL    HW225945   4.154   9.663   2.296  0.6778  0.2889 -2.3254
 6253SOL     OW25946   7.426   8.759   5.009 -0.0447  0.1096 -0.2047
 6253SOL    HW125947   7.484   8.839   5.025 -0.1445 -0.1865  1.8650
 6253SOL    HW225948   7.434   8.697   5.087 -1.2057 -1.1325 -1.0589
 6254SOL     OW25949   2.903   8.623   3.739 -0.1191 -0.0138 -0.2821
 6254SOL    HW125950   2.849   8.545   3.709  1.0998 -0.1632 -2.2312
 6254SOL    HW225951   2.869   8.706   3.694 -1.3548  0.5949  1.7105
 6255SOL     OW25952   0.107   5.593   1.008  0.0925 -0.1574 -0.1884
 6255SOL    HW125953   0.130   5.653   0.931  1.1175 -0.8308 -0.4225
 6255SOL    HW225954   0.079   5.648   1.086 -0.6235  0.5498 -0.9351
 6256SOL     OW25955   7.860   7.258   4.309 -0.5699 -0.1526  0.5615
 6256SOL    HW125956   7.773   7.226   4.272  0.0377  0.9265 -1.9607
 6256SOL    HW225957   7.848   7.348   4.351 -0.4884  0.4864 -0.7579
 6257SOL     OW25958   3.109   1.395   2.575  0.6659 -0.0175 -0.2949
 6257SOL    HW125959   3.184   1.386   2.641 -0.2081 -1.5344  0.5180
 6257SOL    HW225960   3.107   1.488   2.540  1.5656  0.6331  1.3303
 6258SOL     OW25961   4.998   1.669   1.595  0.0309 -0.6815  0.4820
 6258SOL    HW125962   5.097   1.684   1.596 -0.0476 -0.0409 -0.3444
 6258SOL    HW225963   4.977   1.583   1.641  0.8975 -0.4247  1.3683
 6259SOL     OW25964   8.678   8.229   1.607  0.3433  0.0252  0.1395
 6259SOL    HW125965   8.687   8.188   1.516 -0.0805 -0.5153  0.3356
 6259SOL    HW225966   8.692   8.327   1.601  1.4223 -0.1508 -0.3360
 6260SOL     OW25967   9.945   3.026   3.342  0.1587  0.0869 -0.2041
 6260SOL    HW125968   9.958   2.946   3.401 -0.6650  0.0643 -0.0417
 6260SOL    HW225969   9.978   3.108   3.388 -0.8659  0.1291  0.4664
 6261SOL     OW25970   9.408   9.683   1.590  0.1963 -0.1287 -0.0263
 6261SOL    HW125971   9.438   9.756   1.652 -1.1450 -0.5227  1.1012
 6261SOL    HW225972   9.453   9.597   1.616  0.0886 -0.1670  0.0344
 6263SOL     OW25973   1.797   3.196   2.996  0.0709 -0.3458 -0.0413
 6263SOL    HW125974   1.782   3.167   3.091  0.2143  0.7776  0.3418
 6263SOL    HW225975   1.818   3.117   2.939 -0.6060 -1.1002  0.7533
 6264SOL     OW25976   6.670   9.193   3.150  0.8309 -0.2456  0.0351
 6264SOL    HW125977   6.740   9.213   3.083 -0.4291  3.5024 -0.2912
 6264SOL    HW225978   6.682   9.252   3.230 -1.8051  0.3335  0.0522
 6265SOL     OW25979   1.466   5.151   0.959 -0.4480 -1.1648 -0.0085
 6265SOL    HW125980   1.518   5.232   0.984  0.1065 -1.1466 -1.1982
 6265SOL    HW225981   1.368   5.169   0.970 -0.4371  0.2991 -2.0205
 6266SOL     OW25982   6.833   8.034   3.489  0.4125 -0.3354  0.6087
 6266SOL    HW125983   6.881   8.082   3.416 -0.4391 -1.0696 -0.4516
 6266SOL    HW225984   6.736   8.061   3.489  0.4187 -0.2927  1.5076
 6267SOL     OW25985   1.006   2.683   5.128 -0.0148  0.0382 -0.0409
 6267SOL    HW125986   1.028   2.773   5.090 -0.7922  0.0881 -0.3708
 6267SOL    HW225987   1.086   2.647   5.177 -0.2153  1.5957  1.4630
 6268SOL     OW25988   9.707   7.160   2.001 -0.2291 -0.4181 -0.3919
 6268SOL    HW125989   9.688   7.098   2.078  1.2696  0.4613  0.7291
 6268SOL    HW225990   9.621   7.195   1.964 -0.9836 -0.5435  1.1749
 6269SOL     OW25991   0.470   2.269   0.940  0.1310  0.2505  0.7679
 6269SOL    HW125992   0.489   2.178   0.904 -0.5643  0.3989 -0.0060
 6269SOL    HW225993   0.524   2.336   0.889  0.1068  0.3386  0.8586
 6270SOL     OW25994   5.721   1.698   1.410  0.4303  0.6205  0.3488
 6270SOL    HW125995   5.715   1.650   1.498 -2.5396 -1.5455 -0.9389
 6270SOL    HW225996   5.799   1.662   1.358 -0.6133 -1.5460  0.2083
 6271SOL     OW25997   7.667   1.794   4.660  0.0911  0.2235  0.2334
 6271SOL    HW125998   7.652   1.888   4.691 -1.0510 -0.5494  2.1824
 6271SOL    HW225999   7.731   1.749   4.722  0.8884 -0.1972 -0.8864
 6273SOL     OW26000   9.213   5.974   2.402  0.5533 -0.2443 -0.4542
 6273SOL    HW126001   9.150   5.903   2.369 -2.1081  1.6125  0.4662
 6273SOL    HW226002   9.247   6.028   2.325  0.9286 -1.1668 -0.9419
 6274SOL     OW26003   2.687   2.120   3.516  0.3148 -0.0748 -0.2101
 6274SOL    HW126004   2.772   2.080   3.481  0.5003 -1.8260  2.1004
 6274SOL    HW226005   2.679   2.215   3.485  2.6596 -0.1601 -1.1731
 6275SOL     OW26006   7.839   2.246   4.146 -0.3390  0.5853 -0.2718
 6275SOL    HW126007   7.836   2.182   4.070 -0.2605  1.9081 -1.4185
 6275SOL    HW226008   7.841   2.196   4.232  1.2337 -0.9462 -1.1757
 6276SOL     OW26009   4.006   7.206   5.000 -0.1650  0.3070  0.0812
 6276SOL    HW126010   3.918   7.164   4.978 -0.2566  0.9568 -0.8352
 6276SOL    HW226011   4.002   7.304   4.981 -0.1623  0.8843  2.8739
 6277SOL     OW26012   2.639   3.345   1.003  0.4163 -0.3258 -0.2217
 6277SOL    HW126013   2.587   3.268   1.040  1.5911 -1.3077 -0.5735
 6277SOL    HW226014   2.620   3.427   1.057 -0.0118 -1.1046  0.8340
 6278SOL     OW26015   5.641   2.211   3.365  0.0904  0.5173  0.1234
 6278SOL    HW126016   5.582   2.130   3.365 -0.7922  1.1522 -0.4105
 6278SOL    HW226017   5.635   2.257   3.277 -0.7183  2.0970  0.9789
 6279SOL     OW26018   7.174   3.088   0.404 -0.2073  0.4033 -0.1556
 6279SOL    HW126019   7.246   3.146   0.441  0.1730  0.2344 -0.6214
 6279SOL    HW226020   7.213   3.026   0.336 -0.6179 -0.3840  0.3228
 6281SOL     OW26021   3.321   9.136   1.486 -0.3626 -0.4294  0.2606
 6281SOL    HW126022   3.317   9.069   1.560 -0.9018 -0.1964  0.4435
 6281SOL    HW226023   3.367   9.095   1.407  1.1450 -0.3360  1.0664
 6282SOL     OW26024   7.406   6.597   4.867 -0.6881 -0.7141  0.7983
 6282SOL    HW126025   7.468   6.533   4.821  0.0594 -0.9128  2.0739
 6282SOL    HW226026   7.386   6.564   4.959 -2.1142 -0.2757  0.6542
 6283SOL     OW26027   7.936   7.150   4.889 -0.1175  0.2314 -0.0057
 6283SOL    HW126028   7.897   7.165   4.980  2.5563  0.9287  1.0620
 6283SOL    HW226029   8.018   7.206   4.878  0.6550 -1.2610 -2.1628
 6284SOL     OW26030   3.124   0.039   0.451  0.5341 -0.3945  0.4022
 6284SOL    HW126031   3.187   0.074   0.382  1.6325  0.7191  1.9243
 6284SOL    HW226032   3.047   0.102   0.460  1.2031  0.3087  1.3090
 6285SOL     OW26033   8.157   8.281   3.839 -0.1201  0.1849 -0.2980
 6285SOL    HW126034   8.143   8.227   3.922  1.1846  2.8862  1.7790
 6285SOL    HW226035   8.079   8.269   3.778 -1.5491 -1.1540  1.7090
 6289SOL     OW26036   3.733   4.954   1.254 -0.2490  0.0985  0.2070
 6289SOL    HW126037   3.775   4.998   1.174  0.7135  0.9961  1.1830
 6289SOL    HW226038   3.634   4.947   1.240 -0.0773  0.0894 -1.1282
 6291SOL     OW26039   0.855   6.021   4.842 -0.4153 -0.3450 -0.4012
 6291SOL    HW126040   0.829   5.989   4.751 -0.8992  0.2577 -0.4753
 6291SOL    HW226041   0.811   5.964   4.912  0.5033 -1.2419 -0.5404
 6292SOL     OW26042   5.376   9.815   4.889 -0.0377  0.2078 -0.1452
 6292SOL    HW126043   5.398   9.836   4.793  1.0863  3.1902  0.6961
 6292SOL    HW226044   5.422   9.881   4.948 -1.3183 -1.1474  2.4198
 6293SOL     OW26045   9.785   4.885   4.479  0.1861 -0.0725 -0.6145
 6293SOL    HW126046   9.735   4.806   4.514 -1.0530  1.2720  0.7344
 6293SOL    HW226047   9.822   4.864   4.389 -1.5190 -1.6395 -0.9774
 6294SOL     OW26048   6.031   0.157   1.532 -0.0993 -0.3472  0.3685
 6294SOL    HW126049   6.107   0.097   1.557  1.2757  0.9262 -0.6190
 6294SOL    HW226050   6.067   0.249   1.513 -1.6812 -0.1324 -1.7258
 6295SOL     OW26051   9.504   0.407   4.058 -0.1859  0.4117 -0.6178
 6295SOL    HW126052   9.423   0.435   4.008 -0.9798 -1.1165 -0.1980
 6295SOL    HW226053   9.490   0.424   4.156 -0.1685 -0.2423 -0.4997
 6296SOL     OW26054   2.594   5.404   3.722 -0.3681  0.2211  0.5195
 6296SOL    HW126055   2.544   5.451   3.795 -0.6152  0.4346  0.2170
 6296SOL    HW226056   2.615   5.311   3.751 -0.8931  0.1472  0.6813
 6298SOL     OW26057   6.370   0.340   4.592 -0.0821 -0.2165 -0.3654
 6298SOL    HW126058   6.320   0.426   4.587 -0.4976 -0.5166 -1.7228
 6298SOL    HW226059   6.453   0.346   4.537  1.3828  0.2683  1.8683
 6299SOL     OW26060   4.010   3.570   4.518 -0.4681  0.2715  0.0569
 6299SOL    HW126061   3.989   3.637   4.589 -1.9614 -0.3474  0.2180
 6299SOL    HW226062   4.107   3.544   4.525 -0.0324  1.9611  0.3524
 6300SOL     OW26063   3.113   6.998   4.602  0.1794  0.4935 -0.4656
 6300SOL    HW126064   3.059   6.964   4.525  0.2122  1.2069 -0.8101
 6300SOL    HW226065   3.205   6.958   4.600  0.0587  0.2257 -0.5812
 6301SOL     OW26066   2.262   0.782   1.270  0.3722  0.1929  0.7470
 6301SOL    HW126067   2.171   0.819   1.291 -0.2968  0.4540 -2.3773
 6301SOL    HW226068   2.269   0.689   1.307 -0.9266  0.4108  1.5749
 6302SOL     OW26069   1.596   6.829   2.405 -0.2206 -0.0540  0.0025
 6302SOL    HW126070   1.651   6.805   2.485  1.2070 -0.2018 -0.9888
 6302SOL    HW226071   1.504   6.793   2.415  0.6680 -2.2395  0.4631
 6303SOL     OW26072   2.329   4.252   1.114  0.0134  0.2351  0.3401
 6303SOL    HW126073   2.338   4.293   1.023  2.3127 -0.6365  0.1453
 6303SOL    HW226074   2.251   4.189   1.115  0.6730 -0.6415 -1.3711
 6304SOL     OW26075   8.006   7.033   4.419  0.4412  0.0308 -0.0949
 6304SOL    HW126076   8.105   7.050   4.420  0.3744  0.4074  0.1113
 6304SOL    HW226077   7.963   7.092   4.350 -0.1829  2.8953  2.6530
 6306SOL     OW26078   3.103   1.888   0.486  0.6570  0.0831 -0.2604
 6306SOL    HW126079   3.070   1.906   0.579  0.7256 -0.1077 -0.1997
 6306SOL    HW226080   3.058   1.807   0.449  2.6983 -1.5049  0.6626
 6307SOL     OW26081   8.846   1.869   0.620 -0.2472 -0.2800 -0.1902
 6307SOL    HW126082   8.780   1.923   0.568 -1.7715  1.0814  3.0379
 6307SOL    HW226083   8.797   1.809   0.683  1.5731 -1.1269  0.4583
 6308SOL     OW26084   2.380   8.667   0.221  0.1625 -0.4644  0.2912
 6308SOL    HW126085   2.341   8.682   0.130  0.1184 -0.1506  0.3620
 6308SOL    HW226086   2.474   8.635   0.212  0.1973 -0.3190  0.1365
 6309SOL     OW26087   8.793   2.564   1.438 -0.0715  0.3161  0.5541
 6309SOL    HW126088   8.821   2.550   1.533 -0.4150  0.4762  0.6786
 6309SOL    HW226089   8.697   2.538   1.427 -0.0550  0.3741  0.2677
 6310SOL     OW26090   2.964   4.763   1.802 -0.4322  0.1285  0.4867
 6310SOL    HW126091   2.995   4.687   1.745  0.6194  1.1588 -0.3511
 6310SOL    HW226092   3.040   4.826   1.818 -1.1617  0.7542  1.5904
 6311SOL     OW26093   9.802   3.279   2.251  0.2969  0.0775  0.2369
 6311SOL    HW126094   9.854   3.194   2.261  1.2319  0.6125 -0.1130
 6311SOL    HW226095   9.864   3.356   2.245 -0.4977  0.5832 -1.6074
 6314SOL     OW26096   3.817   9.066   3.005  0.0161 -0.4528  0.0640
 6314SOL    HW126097   3.912   9.059   2.973  0.7053  0.2792  1.8445
 6314SOL    HW226098   3.759   9.005   2.952  1.8321 -2.3422  0.1830
 6316SOL     OW26099   0.188   5.586   5.081 -0.1887 -0.2019 -0.2768
 6316SOL    HW126100   0.278   5.560   5.049  0.4344  2.8815 -1.1468
 6316SOL    HW226101   0.178   5.560   5.178  2.0889  0.5893  0.1871
 6317SOL     OW26102   0.642   5.690   2.808 -0.2000  0.1616  0.3059
 6317SOL    HW126103   0.689   5.602   2.798 -2.7739 -1.0683 -1.5716
 6317SOL    HW226104   0.706   5.764   2.787  1.3425 -1.3904 -0.6391
 6318SOL     OW26105   1.970   3.057   1.131 -0.4386  0.0257  0.7909
 6318SOL    HW126106   1.988   3.140   1.183 -2.5028  0.5587  0.7173
 6318SOL    HW226107   1.974   3.076   1.034 -0.9460  0.0687  0.7735
 6320SOL     OW26108   1.696   9.548   2.076 -0.3535 -0.2565  0.0022
 6320SOL    HW126109   1.657   9.471   2.126  1.6239 -0.7423  0.8550
 6320SOL    HW226110   1.648   9.632   2.101 -1.3269 -0.9425  0.4531
 6321SOL     OW26111   4.837   3.066   2.926  0.2596 -0.3184  0.6356
 6321SOL    HW126112   4.808   3.079   2.831  2.1474  1.7058  0.2904
 6321SOL    HW226113   4.775   3.117   2.987  0.1607 -0.0623  0.3247
 6322SOL     OW26114   0.932   3.973   3.885 -0.3714 -0.6291 -0.0331
 6322SOL    HW126115   0.935   4.044   3.816  0.1689  1.1724  1.7838
 6322SOL    HW226116   0.995   3.899   3.861  0.2724  0.2752 -1.1389
 6323SOL     OW26117   8.384   0.480   3.853 -0.7152 -0.2145  0.3080
 6323SOL    HW126118   8.348   0.573   3.860  2.4821  0.9575  2.3327
 6323SOL    HW226119   8.454   0.477   3.781 -3.0883 -1.9080 -2.0252
 6324SOL     OW26120   1.791   3.692   0.661 -0.2858 -0.1156  0.8148
 6324SOL    HW126121   1.834   3.656   0.578  1.1563  0.1868  1.4244
 6324SOL    HW226122   1.692   3.695   0.648 -0.0559  0.1377 -0.9710
 6325SOL     OW26123   9.175   0.043   1.761  0.2240 -0.2544 -0.6567
 6325SOL    HW126124   9.167   0.133   1.801 -2.1946 -0.2967 -1.0098
 6325SOL    HW226125   9.132  -0.025   1.820  1.2058 -1.0669 -0.8435
 6326SOL     OW26126   9.364   4.828   1.825 -0.0184  0.1429  0.2470
 6326SOL    HW126127   9.332   4.738   1.794  1.9866 -0.9311  1.1644
 6326SOL    HW226128   9.348   4.836   1.924 -0.2185  0.8119  0.1604
 6328SOL     OW26129   2.170   5.817   2.587  0.4243  0.2909 -0.2025
 6328SOL    HW126130   2.151   5.914   2.597 -2.4575 -0.2650  0.1519
 6328SOL    HW226131   2.202   5.799   2.494  0.3637  1.4675 -0.4588
 6329SOL     OW26132   2.801   3.700   3.411  0.7176  0.0123  0.0984
 6329SOL    HW126133   2.851   3.758   3.347 -0.4625  0.8169 -0.1116
 6329SOL    HW226134   2.721   3.749   3.445  0.1123 -1.2239  0.4933
 6330SOL     OW26135   5.008   2.653   4.963 -0.0292 -0.0525 -0.1477
 6330SOL    HW126136   5.005   2.675   5.061  1.1728 -0.5149  0.0114
 6330SOL    HW226137   4.916   2.653   4.925 -0.6473 -1.2108  1.2921
 6331SOL     OW26138   3.682   7.084   1.788 -0.0566  0.1864  0.0159
 6331SOL    HW126139   3.722   7.158   1.843  1.3155 -2.1636  2.2998
 6331SOL    HW226140   3.755   7.027   1.751 -1.1613 -1.3806  0.2253
 6332SOL     OW26141   2.584   4.244   1.578  0.1856  0.4608 -0.1774
 6332SOL    HW126142   2.561   4.170   1.514 -0.8597 -0.1158  0.8462
 6332SOL    HW226143   2.519   4.243   1.655  1.1775  1.3989  0.6840
 6333SOL     OW26144   3.586   3.123   1.891  0.4078  0.1470  0.0392
 6333SOL    HW126145   3.684   3.118   1.912 -0.0678  0.0710  2.3609
 6333SOL    HW226146   3.551   3.213   1.917 -0.5856 -0.5900  1.3255
 6335SOL     OW26147   8.241   0.025   4.228  0.1656  0.2534  0.1272
 6335SOL    HW126148   8.165   0.018   4.162  0.2624  1.6217 -0.1589
 6335SOL    HW226149   8.326   0.001   4.183  0.0947  0.1917  0.0266
 6336SOL     OW26150   4.701   7.460   2.255 -0.4689  0.2342  0.2352
 6336SOL    HW126151   4.715   7.555   2.227  1.4007  0.0666  0.5421
 6336SOL    HW226152   4.708   7.453   2.355 -0.4019 -0.2507  0.1981
 6337SOL     OW26153   0.367   2.955   5.294 -0.1942  0.0357  0.5728
 6337SOL    HW126154   0.390   3.020   5.221  1.4834  0.1227  1.1644
 6337SOL    HW226155   0.278   2.980   5.333 -0.7085  0.4980 -0.8644
 6338SOL     OW26156   9.637   6.448   5.167 -0.1364 -0.3695 -0.0073
 6338SOL    HW126157   9.726   6.404   5.178 -0.1804 -1.3984 -3.1920
 6338SOL    HW226158   9.644   6.545   5.190  1.8337 -0.4290 -0.3081
 6339SOL     OW26159   8.206   3.917   4.070 -0.0529  0.2173 -0.4397
 6339SOL    HW126160   8.132   3.977   4.037 -1.6761 -1.5295 -0.0523
 6339SOL    HW226161   8.286   3.929   4.011 -0.4878  2.4271 -0.6408
 6340SOL     OW26162   3.713   7.335   1.915  0.3125  0.3197 -0.0805
 6340SOL    HW126163   3.703   7.427   1.878  0.1134 -0.0198 -0.8965
 6340SOL    HW226164   3.635   7.314   1.973  1.6961  1.6572  2.3195
 6341SOL     OW26165   4.964   1.358   4.562  0.1539 -0.0642  0.1356
 6341SOL    HW126166   4.886   1.407   4.603  0.6942  0.2124  0.8508
 6341SOL    HW226167   5.049   1.400   4.593  0.6351 -1.7071  1.0897
 6342SOL     OW26168   0.543   9.039   1.361  0.4127 -0.3951 -0.3672
 6342SOL    HW126169   0.484   8.965   1.392  0.2028  0.3126  0.9628
 6342SOL    HW226170   0.582   9.016   1.272 -0.6847 -1.5186 -0.5665
 6343SOL     OW26171   5.724   9.493   1.927 -0.2053  0.2441  0.0428
 6343SOL    HW126172   5.755   9.485   1.832 -0.6981  1.8257 -0.2613
 6343SOL    HW226173   5.790   9.448   1.987  0.7746  0.3477 -0.9338
 6345SOL     OW26174   7.811   7.932   4.665  0.2901 -0.2240  0.3282
 6345SOL    HW126175   7.755   7.997   4.613  0.2272 -0.7417 -0.2609
 6345SOL    HW226176   7.857   7.870   4.601  2.4922  0.9439  0.7078
 6346SOL     OW26177   0.623   3.110   5.242  0.2667 -0.1768  0.0613
 6346SOL    HW126178   0.718   3.078   5.251 -0.1153 -0.8715  1.9482
 6346SOL    HW226179   0.623   3.201   5.201  1.9355  0.7678  2.0069
 6347SOL     OW26180   2.228   2.118   1.530  0.2224 -0.8917 -0.0930
 6347SOL    HW126181   2.325   2.140   1.536  0.7026 -2.6548 -1.1520
 6347SOL    HW226182   2.210   2.068   1.446 -2.0452  1.4982 -1.1030
 6348SOL     OW26183   4.830   8.612   0.205 -0.6393  0.1399 -0.2584
 6348SOL    HW126184   4.913   8.557   0.199 -0.7498  0.1350 -1.9307
 6348SOL    HW226185   4.751   8.552   0.220 -0.0283  0.3704  4.5142
 6349SOL     OW26186   0.516   4.806   3.801  0.0330 -0.4068 -0.4573
 6349SOL    HW126187   0.509   4.898   3.840 -0.9499 -0.2991 -0.8828
 6349SOL    HW226188   0.523   4.739   3.875 -0.9110 -0.1264 -0.1125
 6350SOL     OW26189   0.193   3.126   4.658 -0.0960  0.4689  0.0459
 6350SOL    HW126190   0.243   3.050   4.616  1.3070  1.5365 -0.2540
 6350SOL    HW226191   0.184   3.110   4.757  1.9045  0.8203  0.3056
 6351SOL     OW26192   0.556   2.766   1.461  0.0912 -0.2234 -0.5730
 6351SOL    HW126193   0.520   2.757   1.368 -1.2261 -1.4376  0.0401
 6351SOL    HW226194   0.572   2.863   1.481 -0.8044  0.1584 -1.6354
 6352SOL     OW26195   9.040   6.854   2.248 -0.2037 -0.4287 -0.1280
 6352SOL    HW126196   9.094   6.863   2.165 -1.1705 -3.9671 -1.2749
 6352SOL    HW226197   8.974   6.779   2.236 -2.5988  1.1106  2.6600
 6353SOL     OW26198   7.535   3.501   4.028  0.3838  0.3933  0.7993
 6353SOL    HW126199   7.528   3.478   4.125  0.4566 -0.1470  0.6784
 6353SOL    HW226200   7.580   3.589   4.018  0.1711  0.5581  1.2669
 6354SOL     OW26201   2.732   4.875   2.909  0.1521  0.1486  0.1574
 6354SOL    HW126202   2.679   4.843   2.988 -0.0399  1.4650  0.5849
 6354SOL    HW226203   2.785   4.800   2.871 -0.4203 -0.7005  1.0191
 6355SOL     OW26204   6.827   7.602   5.197 -0.1016 -0.0108  0.2361
 6355SOL    HW126205   6.813   7.651   5.111  1.2007 -1.6194 -0.9198
 6355SOL    HW226206   6.921   7.568   5.201 -1.0161 -2.5737  0.8918
 6356SOL     OW26207   0.577   1.102   2.169 -1.3125  0.1209 -0.0449
 6356SOL    HW126208   0.491   1.062   2.201 -1.1125  1.2087  1.9647
 6356SOL    HW226209   0.643   1.029   2.151 -1.8357 -0.6055  0.9039
 6357SOL     OW26210   4.703   0.867   1.674 -0.0818  0.2228 -0.3375
 6357SOL    HW126211   4.695   0.886   1.576 -0.0068 -1.3844 -0.6743
 6357SOL    HW226212   4.758   0.785   1.688  1.3576  1.3955  1.1577
 6358SOL     OW26213   1.502   0.254   0.905 -0.2143  0.4840  0.0696
 6358SOL    HW126214   1.403   0.252   0.915 -0.3281 -1.2328 -1.1746
 6358SOL    HW226215   1.526   0.314   0.828 -0.5123 -1.6277 -1.7215
 6360SOL     OW26216   7.777   2.350   5.100 -0.1611  0.3660 -0.3460
 6360SOL    HW126217   7.776   2.446   5.129 -0.3391  1.1659 -2.8657
 6360SOL    HW226218   7.685   2.312   5.108  0.0882  0.1045  1.5306
 6361SOL     OW26219   4.088   2.251   0.598  0.1944  0.2738  0.2911
 6361SOL    HW126220   4.122   2.174   0.652  1.3883  1.1671  0.8402
 6361SOL    HW226221   4.007   2.290   0.642  1.5658  1.4370  1.8390
 6362SOL     OW26222   9.867   6.631   1.652  0.4272  0.5625  0.2933
 6362SOL    HW126223   9.899   6.680   1.733 -2.0995  0.7515  1.2338
 6362SOL    HW226224   9.886   6.534   1.662  0.4947  0.6399  0.9347
 6363SOL     OW26225   1.712   6.796   2.638 -0.3414  0.7545 -0.3945
 6363SOL    HW126226   1.623   6.774   2.677 -0.0031  0.3761  0.1790
 6363SOL    HW226227   1.746   6.881   2.678  1.3550 -1.1768  2.4403
 6364SOL     OW26228   4.650   8.193   3.158 -0.9507 -0.0475  0.2998
 6364SOL    HW126229   4.555   8.191   3.126 -1.3530 -0.6382  1.4891
 6364SOL    HW226230   4.652   8.179   3.257  0.4581 -1.2137  0.1277
 6365SOL     OW26231   5.100   0.423   3.684  0.9051 -0.5123  0.1779
 6365SOL    HW126232   5.038   0.353   3.648  1.6536 -0.6232 -0.8845
 6365SOL    HW226233   5.048   0.506   3.703  0.6394 -0.1800 -1.9211
 6366SOL     OW26234   7.195   6.938   5.108 -0.0658 -0.1653 -0.4100
 6366SOL    HW126235   7.288   6.936   5.145 -0.0232 -0.4822 -0.5326
 6366SOL    HW226236   7.139   6.871   5.156 -0.7332  1.3523  0.9828
 6367SOL     OW26237   8.418   6.717   2.051  0.8239  0.3720 -0.1104
 6367SOL    HW126238   8.477   6.760   2.119  1.2999 -1.2153  0.5039
 6367SOL    HW226239   8.435   6.618   2.049  0.6448  0.3492 -2.3605
 6368SOL     OW26240   0.348   3.218   5.083 -0.4462  0.5590  0.1005
 6368SOL    HW126241   0.265   3.246   5.132 -0.0869  1.0791  0.4151
 6368SOL    HW226242   0.422   3.282   5.102 -0.5175  1.2294 -1.7637
 6369SOL     OW26243   5.049   0.100   1.223  0.2973  0.1168  0.1997
 6369SOL    HW126244   5.012   0.099   1.130 -0.4117  1.8087  0.4445
 6369SOL    HW226245   5.147   0.119   1.220  1.0011 -3.3959 -0.3953
 6370SOL     OW26246   8.114   0.129   3.229 -0.2482 -0.0693 -0.4481
 6370SOL    HW126247   8.182   0.111   3.158  0.5472  0.6790  0.1097
 6370SOL    HW226248   8.098   0.045   3.281 -0.2075 -0.4059 -0.9736
 6371SOL     OW26249   2.755   4.146   5.224  0.2220  0.0204  0.4014
 6371SOL    HW126250   2.660   4.173   5.210  0.9096  1.3535 -2.0620
 6371SOL    HW226251   2.797   4.205   5.292  0.5550  2.5808 -1.9406
 6372SOL     OW26252   5.829   8.538   3.484 -0.4570 -0.5213  0.1257
 6372SOL    HW126253   5.928   8.534   3.473 -0.6079  0.2854 -1.6615
 6372SOL    HW226254   5.802   8.631   3.509 -0.7940 -0.6945  0.4264
 6373SOL     OW26255   2.416   7.386   2.304  0.5138 -0.0663 -0.0245
 6373SOL    HW126256   2.452   7.310   2.251 -0.6894 -1.4582  1.1096
 6373SOL    HW226257   2.356   7.442   2.247  2.4956  0.8576 -1.2424
 6374SOL     OW26258   4.685   8.428   4.662 -0.0103  0.1285 -0.3359
 6374SOL    HW126259   4.676   8.328   4.662 -0.1514  0.1283  1.5050
 6374SOL    HW226260   4.781   8.452   4.647  0.3201 -0.3349  0.9340
 6375SOL     OW26261   1.075   6.108   4.689  0.3590 -0.5605 -0.7850
 6375SOL    HW126262   1.143   6.049   4.645  0.8867 -0.3355 -0.2811
 6375SOL    HW226263   1.034   6.058   4.766  0.8492 -0.2609 -0.3204
 6376SOL     OW26264   3.284   3.511   1.374 -0.4288  0.1576 -0.2402
 6376SOL    HW126265   3.234   3.505   1.461 -1.7782 -0.4457 -1.0339
 6376SOL    HW226266   3.273   3.426   1.324 -0.2735  0.7749 -1.3315
 6377SOL     OW26267   6.482   7.578   4.044 -0.2661  0.2151  0.8621
 6377SOL    HW126268   6.384   7.580   4.066 -0.2073  0.3145  1.1131
 6377SOL    HW226269   6.526   7.503   4.093 -0.4057 -0.4762 -0.0480
 6378SOL     OW26270   9.005   4.315   2.425 -0.2670  0.3130  0.1580
 6378SOL    HW126271   9.042   4.279   2.340  0.2250 -0.8535  0.8675
 6378SOL    HW226272   9.039   4.408   2.439 -0.3536  0.5134 -0.9147
 6379SOL     OW26273   7.068   0.473   4.183 -0.2144  0.6630 -0.6655
 6379SOL    HW126274   7.123   0.551   4.153 -0.3731  1.4482  1.0258
 6379SOL    HW226275   7.126   0.409   4.234  0.0412 -0.6256 -2.5346
 6380SOL     OW26276   7.712   1.771   3.979  0.5579  0.2382 -0.5113
 6380SOL    HW126277   7.712   1.674   3.956  1.1859 -0.1307  0.9791
 6380SOL    HW226278   7.717   1.825   3.895  0.2364 -1.0168 -1.3495
 6381SOL     OW26279   3.480   9.243   3.509  0.2383 -0.3231  0.0531
 6381SOL    HW126280   3.477   9.258   3.608  1.0562 -0.5685  0.1147
 6381SOL    HW226281   3.507   9.328   3.464  1.5432 -0.6817  0.1610
 6382SOL     OW26282   3.208   1.045   1.025 -0.2547  0.2738  0.3429
 6382SOL    HW126283   3.200   1.137   1.062 -0.0845 -0.1783  1.5362
 6382SOL    HW226284   3.242   0.983   1.096 -2.5699 -1.1582  0.2397
 6383SOL     OW26285   9.345   8.722   4.324 -0.5591  0.0302 -0.3430
 6383SOL    HW126286   9.248   8.718   4.349 -0.4831  3.2088  0.5689
 6383SOL    HW226287   9.399   8.677   4.395 -1.3065 -1.6199 -0.7793
 6384SOL     OW26288   2.961   7.888   0.294  0.1247 -0.2440 -0.4576
 6384SOL    HW126289   3.049   7.920   0.327  0.5820 -0.4969 -1.3955
 6384SOL    HW226290   2.893   7.961   0.304  0.8857  0.6268 -1.4965
 6385SOL     OW26291   0.882   4.039   2.196 -0.0058 -0.4483 -0.0580
 6385SOL    HW126292   0.825   4.039   2.279  2.0543  2.8253  1.4583
 6385SOL    HW226293   0.842   4.099   2.128  1.5644  1.8947  1.0280
 6386SOL     OW26294   8.869   2.039   1.299  0.9090 -0.2146 -0.1395
 6386SOL    HW126295   8.965   2.018   1.279  0.8911  0.7411 -1.2219
 6386SOL    HW226296   8.820   1.954   1.317  1.7344 -0.7893 -0.5798
 6387SOL     OW26297   5.131   9.658   2.725  0.0623 -0.7307 -0.0509
 6387SOL    HW126298   5.181   9.744   2.731  1.1716 -1.2753 -1.1385
 6387SOL    HW226299   5.170   9.592   2.789 -1.2464 -0.2190  1.2983
 6388SOL     OW26300   0.617   3.050   3.782 -0.1603  0.6455 -0.1359
 6388SOL    HW126301   0.640   3.127   3.722  0.0956 -0.4312 -1.4410
 6388SOL    HW226302   0.692   2.984   3.781 -1.3649 -0.7505 -0.8894
 6389SOL     OW26303   8.210   3.221   3.113  0.4487  0.2118  0.2803
 6389SOL    HW126304   8.301   3.261   3.100  0.6897 -0.5838 -0.5475
 6389SOL    HW226305   8.166   3.210   3.024  0.3615 -1.2973  0.4965
 6390SOL     OW26306   1.062   1.434   3.583  0.3438  0.1508 -0.2521
 6390SOL    HW126307   1.135   1.466   3.643  0.1871 -0.3949  0.2404
 6390SOL    HW226308   1.101   1.405   3.495  0.7285 -0.2200  0.0400
 6391SOL     OW26309   8.550   8.659   3.177  0.3252  0.0059  0.3217
 6391SOL    HW126310   8.540   8.601   3.258 -0.8642  0.3163  0.4091
 6391SOL    HW226311   8.564   8.754   3.205  0.3238  0.0540  0.1632
 6392SOL     OW26312   9.695   2.254   3.542  0.0816  0.2644  0.3587
 6392SOL    HW126313   9.646   2.275   3.627 -0.6872  0.5773 -0.1497
 6392SOL    HW226314   9.780   2.307   3.538 -0.1963  0.7362  0.6464
 6394SOL     OW26315   0.721   3.052   0.689 -0.0705 -0.9015  0.6857
 6394SOL    HW126316   0.781   3.103   0.750 -0.6703 -0.5314  0.9670
 6394SOL    HW226317   0.626   3.079   0.705 -0.2039 -0.5516 -0.6405
 6395SOL     OW26318   3.794   9.865   0.181  0.0587  0.2722 -0.5459
 6395SOL    HW126319   3.712   9.878   0.126 -0.2446  0.9202  0.0625
 6395SOL    HW226320   3.800   9.769   0.209  0.4934 -0.1752 -2.1396
 6396SOL     OW26321   0.749   7.238   4.262  0.2900 -0.1350  0.0817
 6396SOL    HW126322   0.846   7.224   4.242  0.2864 -0.3715  0.2311
 6396SOL    HW226323   0.719   7.324   4.221  0.5689 -0.0487  0.0555
 6397SOL     OW26324   2.100   5.477   3.553 -0.0965 -0.0006  0.6166
 6397SOL    HW126325   2.149   5.432   3.628 -0.4829  2.3167  2.3287
 6397SOL    HW226326   2.096   5.575   3.571 -0.0716  0.6227 -2.5511
 6398SOL     OW26327   0.451   7.029   0.285 -0.4804  0.2682 -0.0983
 6398SOL    HW126328   0.453   6.951   0.347 -0.0777  0.2699 -0.1128
 6398SOL    HW226329   0.534   7.083   0.295  0.1247 -0.3895 -1.4843
 6400SOL     OW26330   3.891   5.566   4.570 -0.4336  0.1640  0.0927
 6400SOL    HW126331   3.923   5.642   4.626  1.1103 -0.5244  0.1677
 6400SOL    HW226332   3.827   5.600   4.501 -1.2591  1.2280  1.3508
 6401SOL     OW26333   8.977   5.241   1.527  0.0241 -0.1490 -0.2373
 6401SOL    HW126334   8.918   5.306   1.479 -0.1217 -0.1658 -0.0841
 6401SOL    HW226335   8.938   5.149   1.519 -0.9258  0.0855  1.3432
 6402SOL     OW26336   2.011   0.421   2.445 -0.3996  0.0991 -0.1305
 6402SOL    HW126337   2.108   0.417   2.423 -0.1722 -0.2723  0.8993
 6402SOL    HW226338   1.990   0.510   2.487 -0.6389  0.4420 -0.9824
 6404SOL     OW26339   8.350   7.911   0.074  0.5857 -0.0396  0.1764
 6404SOL    HW126340   8.437   7.865   0.059  0.4385 -0.4984  0.7089
 6404SOL    HW226341   8.366   8.006   0.099  0.9657 -0.3441  1.1133
 6405SOL     OW26342   8.796   0.247   0.754 -0.1387  1.0860 -0.0984
 6405SOL    HW126343   8.774   0.150   0.739  2.0858  0.8277 -1.9137
 6405SOL    HW226344   8.718   0.292   0.797 -2.4098 -0.8058 -2.0860
 6406SOL     OW26345   4.555   9.015   4.812  0.9519  0.3127  0.6024
 6406SOL    HW126346   4.630   9.062   4.764  0.1414  1.3437  0.3159
 6406SOL    HW226347   4.559   8.917   4.792  2.1398  0.3768  0.4747
 6407SOL     OW26348   8.625   0.719   4.083  0.0190  0.4189  0.7765
 6407SOL    HW126349   8.725   0.720   4.081  0.0782 -2.1227 -0.4237
 6407SOL    HW226350   8.590   0.744   3.993 -0.3008 -2.4960  0.0545
 6408SOL     OW26351   0.789   6.003   0.476 -0.5533 -0.0235 -0.5414
 6408SOL    HW126352   0.888   5.989   0.484 -0.3480  1.6694  0.0067
 6408SOL    HW226353   0.744   5.914   0.465  0.9396 -0.8821  0.1105
 6410SOL     OW26354   6.365   2.049   3.962  0.1727  0.2919  0.3396
 6410SOL    HW126355   6.356   1.952   3.986  0.6448  0.1370 -0.1058
 6410SOL    HW226356   6.274   2.087   3.947  0.1210 -0.9535 -2.8440
 6411SOL     OW26357   3.772   7.452   5.124 -0.3870  0.1142 -0.1566
 6411SOL    HW126358   3.860   7.493   5.100  0.3599  0.1013  2.4000
 6411SOL    HW226359   3.765   7.362   5.082  0.8079  0.1334 -0.4076
 6412SOL     OW26360   2.815   8.751   0.993  0.2238 -0.1678 -1.0479
 6412SOL    HW126361   2.899   8.743   0.939  0.6140  0.0708 -0.4772
 6412SOL    HW226362   2.751   8.680   0.964  0.5088 -0.1726 -1.6838
 6413SOL     OW26363   4.780   8.427   1.468  0.2271  0.0858  0.2422
 6413SOL    HW126364   4.872   8.454   1.494 -0.5801  2.4782  0.7737
 6413SOL    HW226365   4.729   8.399   1.549  0.9804 -3.0035 -0.2702
 6414SOL     OW26366   3.929   2.644   1.557  0.3590 -0.2778  0.1689
 6414SOL    HW126367   3.873   2.677   1.481 -0.5138 -2.2563 -0.0660
 6414SOL    HW226368   4.014   2.604   1.521  0.8691  0.5941  0.3805
 6415SOL     OW26369   2.419   4.407   4.973 -0.3871 -0.0979  0.3794
 6415SOL    HW126370   2.343   4.378   4.914 -2.1104  0.8118  2.1111
 6415SOL    HW226371   2.488   4.452   4.917 -1.5747 -0.0215 -1.0841
 6416SOL     OW26372   8.702   8.637   2.067  0.1205  0.0968  0.8616
 6416SOL    HW126373   8.760   8.611   1.990  0.8521 -0.2050  1.5074
 6416SOL    HW226374   8.608   8.646   2.036  0.5925  1.1782 -0.3384
 6417SOL     OW26375   0.394   9.712   4.898  0.0736  0.3664  0.0891
 6417SOL    HW126376   0.301   9.679   4.912  1.3282 -3.2210  0.5569
 6417SOL    HW226377   0.440   9.720   4.987  1.2061 -1.1510 -0.3311
 6418SOL     OW26378   8.479   4.661   0.117 -0.2911 -0.1201  0.3495
 6418SOL    HW126379   8.482   4.599   0.040  0.6085 -0.2804  0.5093
 6418SOL    HW226380   8.555   4.642   0.179  0.0023  1.1263  0.3990
 6419SOL     OW26381   9.579   0.036   3.970  0.2633 -0.1774 -0.2088
 6419SOL    HW126382   9.623  -0.025   4.036  2.0710 -0.8848 -2.0247
 6419SOL    HW226383   9.616   0.128   3.980  1.0860 -0.4485 -0.7396
 6420SOL     OW26384   9.184   2.757   1.810  0.6601  0.5003 -0.2906
 6420SOL    HW126385   9.204   2.676   1.865  1.1227  0.6903 -0.1851
 6420SOL    HW226386   9.087   2.782   1.822  0.2881 -0.5549 -0.9984
 6421SOL     OW26387   2.196   9.299   3.337 -0.4953  0.3361 -0.1802
 6421SOL    HW126388   2.292   9.294   3.309 -0.5146  0.1613 -0.2137
 6421SOL    HW226389   2.176   9.224   3.400 -0.2974  1.0810  0.7766
 6423SOL     OW26390   8.145   2.490   1.119 -0.3297  0.2082 -0.0986
 6423SOL    HW126391   8.155   2.443   1.207 -0.2322  0.8249  0.2254
 6423SOL    HW226392   8.224   2.468   1.061  0.9883  1.9206  0.9810
 6424SOL     OW26393   7.806   3.576   2.154  0.1567  0.2386 -0.3519
 6424SOL    HW126394   7.754   3.631   2.089 -0.8905 -0.2351  0.0753
 6424SOL    HW226395   7.762   3.486   2.164 -0.2556  0.6614  1.7673
 6425SOL     OW26396   2.379   1.748   1.440  0.5520 -0.8338  0.0957
 6425SOL    HW126397   2.449   1.791   1.383  0.3876  0.0982  0.5841
 6425SOL    HW226398   2.387   1.649   1.433  0.0655 -0.7367 -2.1133
 6426SOL     OW26399   0.218   4.419   1.405 -0.4039  0.0165  0.2667
 6426SOL    HW126400   0.318   4.420   1.400 -0.4801 -0.5871 -2.1302
 6426SOL    HW226401   0.182   4.371   1.325 -2.6451  1.0488  0.6349
 6427SOL     OW26402   2.075   2.584   3.875  0.3041 -0.6472 -0.1106
 6427SOL    HW126403   2.007   2.579   3.948  0.9940 -0.5714  0.5413
 6427SOL    HW226404   2.128   2.499   3.872  0.1119 -0.7453 -0.6812
 6428SOL     OW26405   1.795   4.503   4.426 -0.0231  0.0112 -1.3619
 6428SOL    HW126406   1.720   4.446   4.459 -0.5429  0.4988 -1.6927
 6428SOL    HW226407   1.786   4.595   4.464  1.8907 -0.6016  0.7452
 6429SOL     OW26408   1.304   4.133   0.259 -0.3436  0.3027 -0.0213
 6429SOL    HW126409   1.208   4.129   0.286 -0.1431 -0.2277  0.6191
 6429SOL    HW226410   1.311   4.162   0.164 -1.1236  0.7003  0.0425
 6430SOL     OW26411   1.394   4.229   4.907  0.1822  0.4197  0.5602
 6430SOL    HW126412   1.434   4.309   4.952  0.3512  0.9079 -0.4560
 6430SOL    HW226413   1.295   4.230   4.921  0.2340  0.5664  0.9299
 6431SOL     OW26414   8.527   2.533   0.260 -0.1672 -0.0624  0.0638
 6431SOL    HW126415   8.614   2.528   0.309  1.0922  1.5722 -1.9074
 6431SOL    HW226416   8.470   2.455   0.284  1.6347 -0.8866  1.7767
 6432SOL     OW26417   3.629   8.275   1.587  0.6820  0.2326 -0.5444
 6432SOL    HW126418   3.677   8.292   1.500 -0.5979 -1.3190 -1.5836
 6432SOL    HW226419   3.531   8.292   1.575  0.2845 -1.5059  0.1466
 6433SOL     OW26420   3.275   1.085   3.515  0.6196  0.1850 -0.1554
 6433SOL    HW126421   3.278   1.184   3.528 -1.3536  0.1233  1.0649
 6433SOL    HW226422   3.199   1.047   3.569  1.1932 -1.9544 -0.8105
 6434SOL     OW26423   8.659   6.587   1.370  0.3613  0.4348  0.4148
 6434SOL    HW126424   8.612   6.546   1.292  1.3310 -1.7768  0.9328
 6434SOL    HW226425   8.662   6.686   1.360 -1.8523  0.3820 -1.0262
 6436SOL     OW26426   4.820   9.475   1.639  0.0842  0.1557 -0.4990
 6436SOL    HW126427   4.852   9.407   1.704  1.2882  1.9769  0.8688
 6436SOL    HW226428   4.860   9.564   1.661  0.7676  0.7827 -3.9145
 6437SOL     OW26429   4.810   7.669   3.652 -0.3244 -0.5592 -0.2670
 6437SOL    HW126430   4.802   7.749   3.711 -2.4255 -0.8849 -0.0587
 6437SOL    HW226431   4.841   7.591   3.706  0.1857 -0.2724 -0.1378
 6438SOL     OW26432   0.192   8.680   0.069 -0.6795  0.5149  0.6433
 6438SOL    HW126433   0.257   8.604   0.067 -0.8588  0.3753 -0.7703
 6438SOL    HW226434   0.233   8.759   0.023 -1.3475  0.5641  0.1402
 6440SOL     OW26435   1.452   7.230   3.280 -0.0963 -0.1651  0.2207
 6440SOL    HW126436   1.475   7.169   3.203  0.4322 -1.1611  1.1588
 6440SOL    HW226437   1.378   7.190   3.333 -0.1936  0.3320  0.4565
 6442SOL     OW26438   1.327   4.156   2.759 -0.3761  0.3767 -0.0115
 6442SOL    HW126439   1.424   4.136   2.770 -0.7012 -0.4918  1.3918
 6442SOL    HW226440   1.278   4.072   2.732 -0.9590  0.4502  0.7959
 6443SOL     OW26441   8.130   2.664   2.422 -0.0922 -0.3142  0.2553
 6443SOL    HW126442   8.134   2.757   2.457 -3.2323 -0.1663  0.3623
 6443SOL    HW226443   8.041   2.624   2.442  0.7293 -2.9065 -0.9285
 6444SOL     OW26444   1.708   6.398   1.046  0.0244  0.1870  0.7642
 6444SOL    HW126445   1.704   6.309   1.091  0.0318  1.0352  2.4567
 6444SOL    HW226446   1.624   6.449   1.065  0.2264  0.7385  0.1973
 6445SOL     OW26447   6.588   9.848   4.114 -0.0897 -0.2953 -0.4949
 6445SOL    HW126448   6.656   9.870   4.044  0.4832  0.6536  0.3352
 6445SOL    HW226449   6.590   9.750   4.133  1.1778 -0.2586 -0.3536
 6446SOL     OW26450   7.577   0.435   3.389  0.1264  0.1768  0.0384
 6446SOL    HW126451   7.655   0.431   3.452  0.0125  0.3617  0.1908
 6446SOL    HW226452   7.495   0.463   3.440  0.5786  3.0032 -0.7199
 6447SOL     OW26453   2.607   0.215   2.995 -0.0975 -0.3094  0.3427
 6447SOL    HW126454   2.573   0.303   3.028  2.7904  0.0226  2.7074
 6447SOL    HW226455   2.544   0.142   3.023 -1.1560  0.7281  0.6962
 6448SOL     OW26456   8.257   6.862   3.821 -0.2560  0.1845  0.1019
 6448SOL    HW126457   8.213   6.774   3.800  0.3516  0.3011 -1.7251
 6448SOL    HW226458   8.330   6.879   3.755  0.0791  1.7560  0.8637
 6449SOL     OW26459   4.195   4.870   1.604 -0.3420  0.1244  0.5217
 6449SOL    HW126460   4.146   4.805   1.546 -1.2739  0.5216  0.8692
 6449SOL    HW226461   4.264   4.918   1.549 -0.0811 -0.6888  0.1196
 6451SOL     OW26462   7.319   1.742   4.743 -0.0914 -0.4338 -0.2685
 6451SOL    HW126463   7.308   1.833   4.702 -1.8546 -1.3982 -1.9800
 6451SOL    HW226464   7.357   1.679   4.676  1.4827 -0.9096  1.0293
 6452SOL     OW26465   9.346   0.705   0.748  0.4654 -0.1159 -1.1086
 6452SOL    HW126466   9.412   0.779   0.734 -1.3329  1.3135 -2.1248
 6452SOL    HW226467   9.296   0.687   0.664  0.5332 -2.1970 -0.7535
 6453SOL     OW26468   7.484   1.263   4.076  0.4926  0.6524 -0.2691
 6453SOL    HW126469   7.557   1.239   4.141  0.3345 -0.9331 -0.6516
 6453SOL    HW226470   7.408   1.306   4.125  1.1411  1.1398  0.3192
 6454SOL     OW26471   9.449   0.673   4.822 -0.0306 -0.4515 -0.1875
 6454SOL    HW126472   9.543   0.680   4.854 -0.0965 -1.2693  0.2069
 6454SOL    HW226473   9.447   0.627   4.733 -0.1401 -1.4329  0.3122
 6455SOL     OW26474   3.349   9.989   3.732 -0.4017 -0.0666  0.4483
 6455SOL    HW126475   3.277   9.969   3.666 -0.6814  2.2240  0.0028
 6455SOL    HW226476   3.438   9.965   3.693 -0.6189  0.6580 -0.5183
 6457SOL     OW26477   8.214   2.861   4.887  0.9172  0.3083  0.0536
 6457SOL    HW126478   8.219   2.774   4.935 -2.3775  0.2498  0.3851
 6457SOL    HW226479   8.238   2.936   4.950 -0.9747  0.0272  1.1290
 6458SOL     OW26480   2.182   7.982   3.581  0.2159 -0.7471  0.0029
 6458SOL    HW126481   2.246   7.906   3.593  0.6837  0.0124  2.4288
 6458SOL    HW226482   2.233   8.067   3.568 -0.3164 -0.5320 -0.7731
 6459SOL     OW26483   9.194   7.270   0.495  0.1318  0.0618 -0.1197
 6459SOL    HW126484   9.121   7.212   0.529  1.5160 -0.9500  1.1767
 6459SOL    HW226485   9.259   7.215   0.442 -0.4698  1.0947 -1.9691
 6460SOL     OW26486   2.348   8.126   4.479  0.2534 -0.2909 -0.4488
 6460SOL    HW126487   2.341   8.210   4.532 -1.3666 -0.4016 -0.4403
 6460SOL    HW226488   2.444   8.105   4.461  0.7272  0.8219  0.7110
 6461SOL     OW26489   0.426   2.638   1.692  0.8045 -0.0889  0.5578
 6461SOL    HW126490   0.354   2.708   1.694 -0.7436 -1.6218 -0.1855
 6461SOL    HW226491   0.486   2.654   1.613 -0.3394 -0.3474 -0.3824
 6462SOL     OW26492   2.468   6.637   2.578 -0.6893 -0.5654  0.6259
 6462SOL    HW126493   2.415   6.689   2.511 -0.8804  0.2131  1.3781
 6462SOL    HW226494   2.409   6.607   2.652 -0.3473 -0.8780  0.7765
 6463SOL     OW26495   3.152   7.042   2.258 -0.7111  0.0423  0.1369
 6463SOL    HW126496   3.092   6.972   2.296 -1.6538  0.4020 -0.6545
 6463SOL    HW226497   3.158   7.120   2.321 -0.7582 -0.1661  0.3979
 6464SOL     OW26498   1.067   0.027   3.972  0.6174  0.2090  0.0182
 6464SOL    HW126499   1.149   0.007   3.919 -1.6827 -0.9452 -3.2345
 6464SOL    HW226500   0.999   0.071   3.914 -1.7010 -0.3161  2.2187
 6465SOL     OW26501   3.144   7.740   1.095 -0.5544  0.0697 -0.2413
 6465SOL    HW126502   3.079   7.664   1.108 -0.7052  0.3934  0.9497
 6465SOL    HW226503   3.230   7.704   1.060 -0.2780 -0.8142  1.2902
 6468SOL     OW26504   3.130   8.335   4.033 -0.1021  0.1047 -0.2070
 6468SOL    HW126505   3.156   8.405   3.967 -0.0754  0.7118  0.4375
 6468SOL    HW226506   3.073   8.266   3.989  0.4306  0.1778 -1.0038
 6469SOL     OW26507   6.901   1.665   1.087  0.5287 -0.0611 -0.4726
 6469SOL    HW126508   6.876   1.668   0.990  0.4810  0.0899 -0.4557
 6469SOL    HW226509   6.820   1.682   1.143  0.2840 -1.5142 -0.3789
 6471SOL     OW26510   0.987   2.487   0.792  0.3643 -0.3003  0.0257
 6471SOL    HW126511   1.072   2.477   0.739 -0.9682  1.6283 -2.5745
 6471SOL    HW226512   0.956   2.397   0.822  2.0528 -1.2756 -1.0760
 6472SOL     OW26513   8.745   4.549   0.170  0.1016  0.3254 -0.0972
 6472SOL    HW126514   8.818   4.496   0.213  0.1947  0.6164  0.0998
 6472SOL    HW226515   8.783   4.608   0.098  0.0979  0.6897  0.2008
 6473SOL     OW26516   7.712   9.776   3.053  0.4826  0.2282  0.0443
 6473SOL    HW126517   7.670   9.841   2.990  0.6617  0.0954 -0.2099
 6473SOL    HW226518   7.641   9.733   3.108  0.3543  0.5728  0.1521
 6475SOL     OW26519   8.918   9.467   1.209  0.3705 -0.0333  0.4052
 6475SOL    HW126520   9.006   9.514   1.198 -0.1727  0.5754 -1.5584
 6475SOL    HW226521   8.851   9.532   1.245 -0.2156  0.5463 -1.6890
 6476SOL     OW26522   3.013   8.983   1.518 -0.4844  0.0619  0.5402
 6476SOL    HW126523   2.960   8.909   1.560  1.4985 -0.7160  1.7910
 6476SOL    HW226524   3.048   8.953   1.430 -1.0817  0.1302  0.2777
 6477SOL     OW26525   3.310   2.502   0.635  0.0861 -0.0629 -0.0175
 6477SOL    HW126526   3.358   2.527   0.551  0.3548 -0.3809  0.0384
 6477SOL    HW226527   3.237   2.567   0.652  1.0522  0.9349  0.3658
 6478SOL     OW26528   4.967   2.988   5.180  0.0863 -0.0248 -0.0020
 6478SOL    HW126529   4.937   2.893   5.168  1.5469 -0.6297  1.0296
 6478SOL    HW226530   4.901   3.036   5.239 -1.5261  0.0851 -1.8350
 6479SOL     OW26531   7.548   2.117   2.980  0.6932 -0.0266 -0.0059
 6479SOL    HW126532   7.572   2.115   2.883 -0.3412  1.3473 -0.3042
 6479SOL    HW226533   7.448   2.123   2.990  0.8132  0.2461  1.1287
 6480SOL     OW26534   4.059   6.956   0.909 -0.1008  0.3588 -0.2492
 6480SOL    HW126535   3.982   7.018   0.922  0.5899  1.0131  0.7509
 6480SOL    HW226536   4.144   7.002   0.932  0.4919 -0.7256 -0.2159
 6482SOL     OW26537   0.389   8.860   2.506  0.6023 -1.2021  0.1672
 6482SOL    HW126538   0.343   8.914   2.435  0.1205  0.5352  1.7473
 6482SOL    HW226539   0.348   8.769   2.511  0.3738 -1.1987 -1.4951
 6484SOL     OW26540   3.753   5.241   0.429 -0.3424 -0.2764  0.6322
 6484SOL    HW126541   3.728   5.335   0.455 -0.4413 -0.1493  0.0787
 6484SOL    HW226542   3.674   5.182   0.441  0.2814 -0.7089  2.9926
 6485SOL     OW26543   9.039   3.830   2.249 -0.8029 -0.2988  0.7805
 6485SOL    HW126544   9.101   3.842   2.172 -0.7553 -2.0939  0.5153
 6485SOL    HW226545   9.030   3.732   2.270 -2.4001  0.0305  1.7380
 6486SOL     OW26546   8.525   5.461   1.301  0.0302 -0.0918 -0.2325
 6486SOL    HW126547   8.540   5.553   1.338 -1.0474 -0.3189  0.7994
 6486SOL    HW226548   8.497   5.400   1.374 -0.3848 -0.9821 -1.1234
 6487SOL     OW26549   2.338   0.581   0.173  0.2571 -0.4261 -0.4450
 6487SOL    HW126550   2.312   0.615   0.264 -1.9999 -2.8078 -0.1311
 6487SOL    HW226551   2.291   0.635   0.103  0.6128  0.2800 -0.1493
 6488SOL     OW26552   2.426   1.013   0.388 -0.2750 -0.5906 -0.2723
 6488SOL    HW126553   2.515   1.009   0.343 -0.6125 -1.0208 -0.9098
 6488SOL    HW226554   2.358   1.049   0.324 -0.3277  0.8730  0.5873
 6489SOL     OW26555   3.198   4.718   3.817 -0.1033  0.5184 -0.5366
 6489SOL    HW126556   3.098   4.713   3.808 -0.0002  1.5315 -2.7243
 6489SOL    HW226557   3.240   4.647   3.761  0.3983 -0.6428  1.2812
 6490SOL     OW26558   8.487   3.113   4.788  0.0947 -0.4058 -0.0485
 6490SOL    HW126559   8.421   3.135   4.859  0.5044  0.0578  0.1855
 6490SOL    HW226560   8.567   3.069   4.829  0.9922  1.2066 -0.0247
 6491SOL     OW26561   3.045   7.308   4.145 -0.2555 -0.0192  0.2185
 6491SOL    HW126562   3.124   7.270   4.194 -0.4224 -2.4657 -1.3144
 6491SOL    HW226563   2.966   7.310   4.205  1.0016  2.6837  1.8466
 6493SOL     OW26564   6.928   1.703   0.810  0.3208 -0.2036  0.2373
 6493SOL    HW126565   7.020   1.724   0.843  1.3579 -0.9775 -2.0466
 6493SOL    HW226566   6.912   1.752   0.724 -0.4291 -2.0936 -0.7268
 6494SOL     OW26567   4.308   0.696   4.032  0.0725  0.0029  0.1174
 6494SOL    HW126568   4.375   0.622   4.035  0.2437  0.1685  0.3857
 6494SOL    HW226569   4.275   0.707   3.938  0.9220  0.3560 -0.1464
 6495SOL     OW26570   7.846   2.146   4.392 -0.0615 -0.0175  0.2917
 6495SOL    HW126571   7.770   2.083   4.404 -1.0251  0.8443 -1.0912
 6495SOL    HW226572   7.862   2.197   4.477 -1.2877  0.0682  0.4730
 6496SOL     OW26573   1.450   5.457   2.110 -0.4821  0.5235 -0.2479
 6496SOL    HW126574   1.474   5.551   2.085  2.6799 -0.4916 -1.2637
 6496SOL    HW226575   1.429   5.405   2.028  1.2235 -0.5284 -0.0470
 6497SOL     OW26576   9.056   0.614   2.985  0.5470  0.3110  0.4527
 6497SOL    HW126577   9.141   0.658   3.014 -0.3879  1.9597  0.7343
 6497SOL    HW226578   9.033   0.643   2.893  0.3738 -0.2790  0.3067
 6499SOL     OW26579   3.885   2.216   0.416 -0.4300 -0.9002 -0.0641
 6499SOL    HW126580   3.876   2.259   0.326  0.6271  0.4047  0.4437
 6499SOL    HW226581   3.979   2.227   0.449 -0.4436 -2.6313  0.5710
 6501SOL     OW26582   2.094   1.671   1.037  0.6297 -0.2038  0.1680
 6501SOL    HW126583   2.074   1.768   1.047  0.3280 -0.1672 -0.7432
 6501SOL    HW226584   2.178   1.660   0.984 -2.0145 -0.4887 -4.1646
 6502SOL     OW26585   2.216   2.744   1.104  0.1425 -0.2208  0.3649
 6502SOL    HW126586   2.308   2.718   1.073 -0.1019 -1.8716  0.9499
 6502SOL    HW226587   2.216   2.751   1.204 -0.6189 -1.3077  0.4474
 6503SOL     OW26588   3.979   7.665   3.184 -0.4943  0.2121 -0.5346
 6503SOL    HW126589   3.996   7.721   3.102  0.4434 -2.4199 -2.1962
 6503SOL    HW226590   3.893   7.694   3.226 -2.3235 -0.0329 -3.9053
 6504SOL     OW26591   1.641   7.063   1.743 -0.1071 -0.4006 -0.3249
 6504SOL    HW126592   1.657   7.083   1.646  2.6078 -0.6355  0.0337
 6504SOL    HW226593   1.581   7.132   1.782  1.0305  1.3027 -1.5303
 6505SOL     OW26594   8.431   9.669   5.314 -0.6698  0.3332 -0.2918
 6505SOL    HW126595   8.396   9.594   5.370  1.5904 -0.3953  0.1945
 6505SOL    HW226596   8.492   9.633   5.244 -2.8837  1.3131 -2.8209
 6507SOL     OW26597   7.385   3.110   2.303  0.2447 -0.2633 -0.1636
 6507SOL    HW126598   7.393   3.172   2.226  1.5882 -1.0818 -0.7119
 6507SOL    HW226599   7.358   3.019   2.270  2.7610 -1.1355  0.0492
 6508SOL     OW26600   0.069   4.145   3.793  0.1438 -0.1575  0.3888
 6508SOL    HW126601   0.145   4.160   3.856 -1.7045 -0.9917  2.8598
 6508SOL    HW226602   0.002   4.218   3.803  0.8838  0.9574 -2.2822
 6509SOL     OW26603   8.597   1.323   3.878  0.2867  0.1372 -0.1870
 6509SOL    HW126604   8.556   1.349   3.966  0.5896 -0.6911  0.2011
 6509SOL    HW226605   8.588   1.224   3.865  3.0283 -0.2042  0.3620
 6511SOL     OW26606   4.395   3.997   3.115 -0.1145  0.0873  0.1398
 6511SOL    HW126607   4.371   4.002   3.212 -5.5298  0.7598 -1.0642
 6511SOL    HW226608   4.422   3.904   3.091 -0.7564 -0.5695  1.8988
 6513SOL     OW26609   2.700   3.790   4.772  0.4837 -0.5764  0.1061
 6513SOL    HW126610   2.663   3.787   4.680  1.3956 -0.9582 -0.2579
 6513SOL    HW226611   2.781   3.849   4.773 -1.6753  2.5298  1.4662
 6514SOL     OW26612   1.267   6.164   4.070  0.3568 -0.0252  0.1959
 6514SOL    HW126613   1.171   6.189   4.061  0.5168  0.2224 -0.8979
 6514SOL    HW226614   1.274   6.068   4.097 -0.1898 -0.2485 -0.4446
 6515SOL     OW26615   1.659   5.191   0.605 -0.1094 -0.0411 -0.1574
 6515SOL    HW126616   1.759   5.195   0.605 -0.0663 -0.9022 -0.0977
 6515SOL    HW226617   1.629   5.110   0.656 -0.8834  1.0584  1.1623
 6516SOL     OW26618   3.101   0.981   4.318  0.0932 -0.6480  0.1621
 6516SOL    HW126619   3.120   1.080   4.317 -1.1425 -0.3783  1.3038
 6516SOL    HW226620   3.181   0.932   4.351  0.6538 -0.0009 -0.2290
 6517SOL     OW26621   4.035   9.615   4.425 -0.5367  0.2461 -0.0741
 6517SOL    HW126622   3.970   9.570   4.486  0.2556  1.6886  1.9198
 6517SOL    HW226623   4.120   9.562   4.421 -1.2045 -0.7430 -1.3093
 6519SOL     OW26624   3.457   5.717   4.126 -0.3661  0.1561 -0.2808
 6519SOL    HW126625   3.370   5.764   4.138  0.3221  1.0756  1.1216
 6519SOL    HW226626   3.510   5.721   4.210  1.0616 -0.3616 -1.1293
 6520SOL     OW26627   2.593   4.125   4.205 -0.1672 -0.4070 -0.4982
 6520SOL    HW126628   2.592   4.225   4.193 -0.0583 -0.1769  1.3802
 6520SOL    HW226629   2.513   4.086   4.160 -1.1615  0.7042  0.2800
 6521SOL     OW26630   8.789   4.799   4.886 -0.0905  0.9228 -0.4652
 6521SOL    HW126631   8.869   4.803   4.827 -0.9355  0.1812 -1.6570
 6521SOL    HW226632   8.784   4.884   4.940  1.3255  1.0927 -0.5728
 6522SOL     OW26633   1.244   2.531   5.245 -0.1089  0.5061 -0.4545
 6522SOL    HW126634   1.193   2.544   5.330  0.6005 -1.2576  0.2736
 6522SOL    HW226635   1.338   2.506   5.266  0.4879  1.5724 -1.7756
 6526SOL     OW26636   9.323   5.326   1.753  0.4330 -0.6343 -0.1910
 6526SOL    HW126637   9.355   5.337   1.847 -2.5190  1.3002  0.6479
 6526SOL    HW226638   9.337   5.231   1.725  1.6422 -1.1834  2.0751
 6527SOL     OW26639   9.810   0.526   0.008  0.0109  0.0609 -0.0568
 6527SOL    HW126640   9.715   0.558   0.007 -0.7359 -2.0743 -1.5829
 6527SOL    HW226641   9.836   0.501   0.101 -1.0533  0.3073  0.3099
 6529SOL     OW26642   3.011   9.925   4.189 -0.4925  0.1330 -0.4031
 6529SOL    HW126643   2.981   9.987   4.261  0.2258 -0.2456  0.2362
 6529SOL    HW226644   3.111   9.923   4.187 -0.5111 -0.5003 -0.8521
 6530SOL     OW26645   9.993   2.760   3.446 -0.7438 -0.4388 -0.1078
 6530SOL    HW126646  10.042   2.674   3.433  0.5873  0.3506 -0.3702
 6530SOL    HW226647   9.895   2.745   3.433 -0.4386 -1.7465 -0.9272
 6531SOL     OW26648   1.529   4.798   4.734 -0.1040 -0.4318 -0.7318
 6531SOL    HW126649   1.620   4.768   4.763  0.2981  0.7630 -0.7408
 6531SOL    HW226650   1.462   4.729   4.761  0.6643 -0.8248  0.2236
 6533SOL     OW26651   9.984   5.233   0.265  0.3556 -0.0110 -0.3134
 6533SOL    HW126652  10.073   5.267   0.236  0.7573  0.4726  1.4030
 6533SOL    HW226653   9.990   5.203   0.360 -0.8018 -1.8933 -0.8073
 6535SOL     OW26654   1.364   3.592   1.792  0.0502 -0.5558 -0.2707
 6535SOL    HW126655   1.331   3.554   1.706  0.4218 -0.4391 -0.4660
 6535SOL    HW226656   1.333   3.536   1.868 -1.2460 -0.0183 -0.3943
 6536SOL     OW26657   9.403   2.773   0.736  0.0161  0.3765 -0.7507
 6536SOL    HW126658   9.476   2.734   0.679  1.6298  1.4603  0.5210
 6536SOL    HW226659   9.377   2.863   0.700  0.2062  0.5476 -0.4588
 6537SOL     OW26660   3.508   3.269   0.366 -0.0317  0.4128 -0.2852
 6537SOL    HW126661   3.574   3.196   0.386  0.3091  0.7912 -0.0263
 6537SOL    HW226662   3.513   3.292   0.269 -1.5910 -1.3335 -0.7969
 6539SOL     OW26663   7.794   1.348   3.717  0.0198 -0.8717 -0.5629
 6539SOL    HW126664   7.811   1.326   3.621  2.4452 -2.0796  0.1046
 6539SOL    HW226665   7.728   1.284   3.755 -0.4905 -0.7662 -1.2650
 6540SOL     OW26666   2.447   4.615   1.375  0.6306  0.6027  0.0865
 6540SOL    HW126667   2.394   4.581   1.297  0.7013  0.1895  0.2182
 6540SOL    HW226668   2.527   4.557   1.389  1.6488  1.7859 -0.7171
 6541SOL     OW26669   1.140   3.938   2.890 -0.7088 -0.1513  0.0687
 6541SOL    HW126670   1.149   3.930   2.791  1.3301 -1.8816  0.3499
 6541SOL    HW226671   1.230   3.933   2.932 -1.6341 -0.4211  2.0772
 6542SOL     OW26672   0.694   1.087   0.904 -0.1002 -0.1657 -0.0716
 6542SOL    HW126673   0.609   1.084   0.956  1.0460 -2.2298  1.7559
 6542SOL    HW226674   0.760   1.147   0.950  1.2569 -2.7609  1.4927
 6543SOL     OW26675   2.023   1.412   1.664  0.1927 -0.0184  0.2371
 6543SOL    HW126676   1.999   1.347   1.591  2.3602  0.9893 -1.4467
 6543SOL    HW226677   2.079   1.365   1.733  1.3578 -0.0923 -0.7361
 6544SOL     OW26678   9.285   3.278   5.321 -0.1258 -0.2503 -0.0767
 6544SOL    HW126679   9.265   3.181   5.307  0.1014 -0.1626 -1.0248
 6544SOL    HW226680   9.231   3.333   5.257 -0.5628  0.2721  0.7382
 6545SOL     OW26681   3.091   6.717   4.185 -0.3186 -0.3005  0.3519
 6545SOL    HW126682   3.058   6.738   4.093 -1.0290  0.4137  0.7674
 6545SOL    HW226683   3.096   6.617   4.196  0.6505 -0.3911 -0.7643
 6547SOL     OW26684   7.292   0.311   1.422 -0.1828  0.2173 -0.2855
 6547SOL    HW126685   7.328   0.222   1.395 -0.2324  0.4396 -1.1035
 6547SOL    HW226686   7.261   0.361   1.341  3.8119  2.7063 -0.4341
 6548SOL     OW26687   8.912   8.530   5.067 -0.2012  0.0472  0.1091
 6548SOL    HW126688   8.900   8.570   4.976 -1.1844 -0.6986 -0.0930
 6548SOL    HW226689   8.915   8.430   5.059 -0.9638 -0.0470  0.9667
 6550SOL     OW26690   7.404   1.640   1.336  0.1652  0.3428 -0.1117
 6550SOL    HW126691   7.383   1.562   1.394  2.3599 -0.6675 -0.6294
 6550SOL    HW226692   7.330   1.654   1.270 -0.7890 -0.5419  0.7582
 6551SOL     OW26693   0.315   0.734   0.787 -0.5967  0.2901 -0.0021
 6551SOL    HW126694   0.344   0.753   0.881  1.9487 -0.8676 -0.5232
 6551SOL    HW226695   0.250   0.657   0.788  1.5355 -1.5578  0.5975
 6553SOL     OW26696   5.726   2.147   2.417 -0.3033 -0.0140 -0.4855
 6553SOL    HW126697   5.663   2.075   2.446 -1.3447  1.2591  0.4709
 6553SOL    HW226698   5.698   2.234   2.458 -0.6736  1.4821 -3.7196
 6555SOL     OW26699   7.419   1.522   0.829  0.1008 -0.0047 -0.2665
 6555SOL    HW126700   7.419   1.538   0.928 -2.4414 -2.0380  0.1033
 6555SOL    HW226701   7.409   1.610   0.781  0.3031  0.8888  1.2790
 6556SOL     OW26702   2.772   2.222   3.813  0.0306 -0.3449  0.0960
 6556SOL    HW126703   2.690   2.185   3.768 -0.6634  0.6212  0.5297
 6556SOL    HW226704   2.745   2.269   3.897  1.6007 -4.5329  3.0589
 6558SOL     OW26705   0.064   9.036   3.300  0.1268 -0.0406  0.1362
 6558SOL    HW126706   0.037   9.041   3.396  0.0442 -0.7033  0.1484
 6558SOL    HW226707   0.161   9.061   3.291 -0.1884  1.2725  0.2277
 6559SOL     OW26708   3.595   0.395   3.927  0.0849 -0.3539  0.3073
 6559SOL    HW126709   3.657   0.317   3.920 -0.4905 -0.7431 -0.5537
 6559SOL    HW226710   3.540   0.402   3.843 -1.0018  0.0081  1.0376
 6560SOL     OW26711   8.087   3.096   4.800  0.1860 -0.4505  0.3378
 6560SOL    HW126712   8.111   3.000   4.819  1.7719 -0.2419 -0.5418
 6560SOL    HW226713   8.019   3.098   4.726  1.4660 -0.8408 -0.8746
 6561SOL     OW26714   7.305   0.457   2.153 -0.0779  0.1394  0.1298
 6561SOL    HW126715   7.275   0.423   2.064  3.1806 -1.9689 -0.2693
 6561SOL    HW226716   7.239   0.431   2.223 -1.3996 -0.4485 -1.3079
 6562SOL     OW26717   2.289   4.308   0.540  0.0810  0.2702  0.0342
 6562SOL    HW126718   2.344   4.382   0.579  0.1806  1.3682 -2.0861
 6562SOL    HW226719   2.249   4.339   0.453 -0.5425 -1.8931 -0.4728
 6563SOL     OW26720   8.101   1.294   0.479  0.3582  0.0507  0.1815
 6563SOL    HW126721   8.158   1.270   0.558 -0.1211 -1.3319  0.1108
 6563SOL    HW226722   8.012   1.248   0.487  0.8779 -1.3764 -1.9505
 6565SOL     OW26723   3.240   6.340   0.928  0.0083 -0.5156  0.5783
 6565SOL    HW126724   3.226   6.405   0.854 -0.0775 -0.7725  0.3701
 6565SOL    HW226725   3.333   6.350   0.963 -0.3755  0.5239  1.3242
 6567SOL     OW26726   3.529   3.592   3.649 -0.3869  0.3044  0.4504
 6567SOL    HW126727   3.488   3.684   3.650  1.1696  1.0531 -1.0096
 6567SOL    HW226728   3.608   3.590   3.709 -1.5504 -0.6609  1.9772
 6570SOL     OW26729   8.428   3.086   1.090  0.8535  0.0115 -0.3255
 6570SOL    HW126730   8.427   3.090   1.190  0.2036  1.0111 -0.3617
 6570SOL    HW226731   8.522   3.069   1.058  0.8798 -1.4138  0.4748
 6571SOL     OW26732   6.960   0.338   2.568  0.3254  0.5161  0.0203
 6571SOL    HW126733   6.866   0.371   2.558 -0.0333 -1.1026 -2.1144
 6571SOL    HW226734   7.005   0.338   2.479  1.9066 -0.0691  0.8045
 6573SOL     OW26735   5.266   1.986   5.190 -0.0113  0.0334 -0.3727
 6573SOL    HW126736   5.283   1.889   5.205  0.3753  0.2133  0.3744
 6573SOL    HW226737   5.321   2.017   5.112  0.9966 -0.0258  0.2956
 6576SOL     OW26738   4.176   0.587   5.263  0.3302  0.0476 -0.0661
 6576SOL    HW126739   4.194   0.610   5.358 -2.8738  1.8534  0.1707
 6576SOL    HW226740   4.194   0.666   5.205  0.7894 -0.5744 -0.7915
 6577SOL     OW26741   1.115   4.067   4.352  0.0024 -0.2463  0.1584
 6577SOL    HW126742   1.130   4.166   4.358 -1.2095 -0.0674  0.2990
 6577SOL    HW226743   1.040   4.048   4.289  2.0016 -1.2416 -2.0041
 6578SOL     OW26744   8.487   2.746   4.931  0.3338 -0.0783  0.2266
 6578SOL    HW126745   8.423   2.710   4.999  0.8585 -0.4249  0.5475
 6578SOL    HW226746   8.474   2.698   4.844 -0.1918  0.2156  0.1396
 6579SOL     OW26747   8.061   5.288   1.515 -0.0314 -0.5414  0.0347
 6579SOL    HW126748   8.052   5.331   1.425 -0.8263  0.0833  0.4087
 6579SOL    HW226749   8.142   5.230   1.516 -0.9356 -1.8474 -1.6092
 6580SOL     OW26750   2.992   2.060   3.703  0.1597  0.2756 -0.2474
 6580SOL    HW126751   2.926   2.131   3.727 -0.4175 -0.4577  0.3429
 6580SOL    HW226752   3.085   2.097   3.713 -0.1277  0.7836  0.5964
 6582SOL     OW26753   8.547   8.750   3.953 -0.4828  0.3995  0.0100
 6582SOL    HW126754   8.624   8.783   3.899 -0.4841 -1.2608 -1.0550
 6582SOL    HW226755   8.462   8.763   3.902 -0.7899  1.2176  0.7206
 6583SOL     OW26756   1.168   7.195   2.665 -0.2758  0.0658 -0.1335
 6583SOL    HW126757   1.268   7.196   2.662 -0.2393 -0.5262  0.6874
 6583SOL    HW226758   1.138   7.190   2.760 -1.1085  1.7601 -0.2854
 6584SOL     OW26759   1.298   9.211   3.079  0.6420  0.1550  0.2858
 6584SOL    HW126760   1.383   9.248   3.042  0.4901  0.4225  0.2039
 6584SOL    HW226761   1.221   9.268   3.051  0.5518  0.4826  1.1954
 6585SOL     OW26762   3.336   6.265   1.683 -0.1145  0.0162 -0.0962
 6585SOL    HW126763   3.367   6.349   1.729 -0.3464 -0.2982  0.6368
 6585SOL    HW226764   3.325   6.283   1.585 -0.7989  1.0271  0.1533
 6586SOL     OW26765   8.090   5.663   5.278 -0.4469  0.2187  0.1130
 6586SOL    HW126766   8.018   5.676   5.345 -0.4630  0.4222  0.0579
 6586SOL    HW226767   8.096   5.567   5.253 -0.5952  0.1795  0.2331
 6587SOL     OW26768   2.330   8.409   2.225  0.6700  0.4849 -0.3818
 6587SOL    HW126769   2.232   8.430   2.234  1.1050  2.2606  0.4388
 6587SOL    HW226770   2.377   8.431   2.311  1.4980 -2.1824 -0.1163
 6588SOL     OW26771   0.955   1.402   1.626  0.5845  0.3919  0.0013
 6588SOL    HW126772   0.916   1.324   1.675 -0.8121  1.5992  0.8515
 6588SOL    HW226773   1.018   1.451   1.686  1.2039  0.1257 -0.4243
 6589SOL     OW26774   2.901   4.447   0.959 -0.6387 -0.0211 -0.0769
 6589SOL    HW126775   2.871   4.532   0.916 -1.4378 -0.4112 -0.3102
 6589SOL    HW226776   2.921   4.379   0.889  2.0748  0.6349  0.0323
 6590SOL     OW26777   0.183   2.392   2.012 -0.2939  0.1683 -0.8317
 6590SOL    HW126778   0.272   2.432   1.989 -0.4416  0.4918 -0.8405
 6590SOL    HW226779   0.196   2.297   2.041  0.3372  0.9083  1.4335
 6591SOL     OW26780   9.992   6.596   4.380  0.3808 -0.1981 -0.7157
 6591SOL    HW126781   9.988   6.594   4.480 -1.1824  0.7926 -0.7455
 6591SOL    HW226782   9.997   6.502   4.345  0.5408 -0.5644  0.2668
 6592SOL     OW26783   9.120   4.153   5.244  0.1658  0.0018 -0.4127
 6592SOL    HW126784   9.037   4.117   5.202  0.8203  0.6090 -2.2542
 6592SOL    HW226785   9.101   4.243   5.284 -0.3746 -0.4314  0.3125
 6594SOL     OW26786   8.976   4.224   2.688 -0.8034 -0.0677  0.2299
 6594SOL    HW126787   8.982   4.244   2.590 -1.0682 -1.8183 -0.1652
 6594SOL    HW226788   8.886   4.252   2.722 -1.1251 -0.4592 -0.2826
 6597SOL     OW26789   6.040   0.816   0.924 -0.1747 -0.2291  0.2069
 6597SOL    HW126790   6.051   0.725   0.882 -1.9870  0.1573 -1.1977
 6597SOL    HW226791   6.013   0.806   1.019  0.0302 -1.1606  0.1733
 6600SOL     OW26792   9.361   9.240   4.187 -0.7144  0.4476  0.3072
 6600SOL    HW126793   9.379   9.328   4.143  0.9304  0.9390  1.9046
 6600SOL    HW226794   9.320   9.255   4.276  0.9305 -0.3133  1.2181
 6602SOL     OW26795   5.823   1.283   1.110 -0.2194 -0.0954 -0.2678
 6602SOL    HW126796   5.788   1.258   1.020  0.8732 -0.0641 -0.7164
 6602SOL    HW226797   5.922   1.299   1.104 -0.2217  0.4041  0.8341
 6603SOL     OW26798   2.974   4.140   1.958  0.1050 -0.1943 -0.2748
 6603SOL    HW126799   2.931   4.120   1.870 -1.5436 -1.6231  0.8231
 6603SOL    HW226800   3.061   4.092   1.965  1.2152  1.4837 -1.8831
 6604SOL     OW26801   9.581   8.962   1.744 -0.7196 -0.0578 -0.2708
 6604SOL    HW126802   9.491   8.937   1.708 -0.1423 -1.6158 -0.6422
 6604SOL    HW226803   9.585   8.941   1.841 -0.6605 -0.2346 -0.3123
 6605SOL     OW26804   9.108   9.365   2.626 -0.8607  0.5534 -0.0325
 6605SOL    HW126805   9.059   9.344   2.542  1.6403  0.6043 -1.5570
 6605SOL    HW226806   9.104   9.286   2.687  0.1638 -0.7890 -1.6363
 6606SOL     OW26807   1.188   6.908   1.017 -0.2215 -0.1832 -0.5375
 6606SOL    HW126808   1.172   6.819   1.062  0.0756 -0.3494 -0.7596
 6606SOL    HW226809   1.179   6.897   0.918  1.6687 -0.3705 -0.7068
 6607SOL     OW26810   1.121   4.645   2.136 -0.3044 -0.2297 -0.1244
 6607SOL    HW126811   1.126   4.715   2.206  0.3909  0.0331 -0.4411
 6607SOL    HW226812   1.130   4.554   2.178  0.2885 -0.0653  0.1048
 6608SOL     OW26813   9.724   9.649   0.294 -0.8467  0.4333 -0.0056
 6608SOL    HW126814   9.812   9.635   0.339 -0.6561  0.0123 -0.5101
 6608SOL    HW226815   9.654   9.595   0.341 -0.8292  0.7177  0.3552
 6609SOL     OW26816   6.803   1.938   4.109  0.3988 -0.5454 -0.3010
 6609SOL    HW126817   6.841   1.923   4.017  0.4586 -2.4285  0.0009
 6609SOL    HW226818   6.720   1.992   4.102  0.9893  0.2453 -1.3625
 6610SOL     OW26819   6.845   1.618   1.448 -0.1655 -0.0120  0.0038
 6610SOL    HW126820   6.774   1.686   1.433 -1.5788 -1.1121  1.5103
 6610SOL    HW226821   6.895   1.640   1.532 -0.0431 -0.3110  0.0118
 6611SOL     OW26822   8.235   5.394   3.732 -0.1225 -0.3168 -0.0591
 6611SOL    HW126823   8.140   5.397   3.762 -0.0874  0.6487 -0.0215
 6611SOL    HW226824   8.293   5.363   3.807 -0.3171 -0.1850  0.1453
 6612SOL     OW26825   2.719   0.352   1.026 -0.5820  0.6181  0.5381
 6612SOL    HW126826   2.784   0.350   1.102  0.1537 -0.5806 -0.1071
 6612SOL    HW226827   2.729   0.438   0.976  0.3231  0.5681  0.6198
 6613SOL     OW26828   5.028   9.395   4.794 -0.0179 -0.6955 -0.1635
 6613SOL    HW126829   5.054   9.303   4.766 -0.9062 -0.4306 -1.9375
 6613SOL    HW226830   5.039   9.405   4.893 -0.3788 -2.8434  0.1017
 6614SOL     OW26831   6.521   1.372   4.732  0.4523 -0.2730 -0.6655
 6614SOL    HW126832   6.455   1.442   4.759 -0.1145 -0.1260 -2.3403
 6614SOL    HW226833   6.505   1.289   4.785  1.7946  1.1440  2.0845
 6615SOL     OW26834   5.537   9.307   4.805 -0.0484  0.4608  0.3398
 6615SOL    HW126835   5.458   9.274   4.858 -0.8447 -0.5499 -1.4356
 6615SOL    HW226836   5.504   9.369   4.733  0.7016 -0.5766 -0.8979
 6616SOL     OW26837   4.136   5.666   2.034 -0.4695  0.1301 -0.0721
 6616SOL    HW126838   4.126   5.616   1.948 -4.0767  0.7234 -0.0942
 6616SOL    HW226839   4.082   5.750   2.029  0.2024  0.7297  2.3620
 6617SOL     OW26840   9.845   0.170   2.883  0.1189 -0.3838  0.5601
 6617SOL    HW126841   9.920   0.128   2.831 -0.2758  0.4191 -0.6593
 6617SOL    HW226842   9.868   0.265   2.904  0.8273 -1.0396  2.9660
 6618SOL     OW26843   1.504   1.375   5.249  0.7675 -0.0338 -0.3686
 6618SOL    HW126844   1.587   1.409   5.205  1.4885 -0.9882  0.2319
 6618SOL    HW226845   1.427   1.434   5.226  1.3895  0.2114 -1.8615
 6619SOL     OW26846   4.431   1.621   2.462  0.5189  0.4779  0.2230
 6619SOL    HW126847   4.423   1.585   2.555 -0.1048 -0.7117 -0.2781
 6619SOL    HW226848   4.366   1.574   2.402  0.9636  1.1827 -0.8384
 6620SOL     OW26849  10.002   4.221   5.094 -0.6661 -0.2257 -0.2427
 6620SOL    HW126850   9.932   4.251   5.160 -0.6480 -1.5051  0.3826
 6620SOL    HW226851   9.994   4.122   5.081  1.5590 -0.5071  0.4433
 6621SOL     OW26852   8.784   9.115   3.079 -0.0030  0.3986 -0.2910
 6621SOL    HW126853   8.702   9.074   3.038 -1.0369  2.5036 -0.3718
 6621SOL    HW226854   8.788   9.090   3.176 -0.8775  0.4960 -0.2215
 6622SOL     OW26855   4.251   2.067   4.507 -0.2567  0.1322 -0.0758
 6622SOL    HW126856   4.300   2.118   4.437  0.1831  0.3244  0.3694
 6622SOL    HW226857   4.153   2.080   4.496 -0.0816  3.2118  1.6151
 6623SOL     OW26858   2.241   9.004   2.881  0.0790  0.9471 -0.1690
 6623SOL    HW126859   2.319   9.062   2.857  0.4782  0.4742 -0.0227
 6623SOL    HW226860   2.169   9.059   2.922  0.5462  1.3046  0.1702
 6624SOL     OW26861   7.030   1.668   1.677 -0.5877 -0.8643 -0.6522
 6624SOL    HW126862   7.010   1.591   1.737 -2.5843 -0.2095 -0.4529
 6624SOL    HW226863   7.072   1.741   1.730 -0.0883 -1.2306 -0.5401
 6625SOL     OW26864   0.847   4.754   3.511 -0.2319  0.0290  0.2022
 6625SOL    HW126865   0.849   4.853   3.507 -2.1701  0.0384 -2.6119
 6625SOL    HW226866   0.831   4.724   3.605 -0.2291  2.3790  0.9770
 6627SOL     OW26867   1.040   2.792   2.882 -0.5787  0.1813  0.2462
 6627SOL    HW126868   1.056   2.836   2.794 -0.5002 -0.5014 -0.0913
 6627SOL    HW226869   1.101   2.830   2.951  0.3931 -0.3165 -0.3421
 6628SOL     OW26870   9.993   6.377   0.673 -0.1689  0.3942  0.3076
 6628SOL    HW126871  10.027   6.294   0.629  1.4248  0.3333  1.5787
 6628SOL    HW226872  10.036   6.457   0.632  1.0476  0.3574  1.4671
 6630SOL     OW26873   2.385   3.850   2.636  0.4206 -0.1397 -0.2879
 6630SOL    HW126874   2.333   3.925   2.678 -1.2243 -0.6369 -1.4207
 6630SOL    HW226875   2.377   3.855   2.537  0.7699 -1.4870 -0.3889
 6631SOL     OW26876   9.051   7.182   0.830  0.1482  0.0974  0.0894
 6631SOL    HW126877   9.039   7.223   0.920 -1.5001  1.3562 -0.6714
 6631SOL    HW226878   8.979   7.114   0.815 -0.8749  1.4003 -1.0739
 6633SOL     OW26879   1.949   5.402   2.778  0.0619 -0.0128  0.6861
 6633SOL    HW126880   1.852   5.379   2.776 -0.4625  1.9502  1.6836
 6633SOL    HW226881   1.980   5.410   2.873  1.3686 -1.2622  0.3809
 6635SOL     OW26882   8.738   5.008   1.694 -0.7645 -0.2024 -0.7241
 6635SOL    HW126883   8.769   4.944   1.765  2.3671  0.0015 -1.8126
 6635SOL    HW226884   8.743   5.101   1.730  0.6221 -0.1147 -1.1094
 6636SOL     OW26885   8.501   5.334   1.552  0.0829  0.3924  0.2087
 6636SOL    HW126886   8.572   5.394   1.588  0.3681  0.2626 -0.1344
 6636SOL    HW226887   8.421   5.336   1.613 -0.2582  1.8114 -0.2579
 6637SOL     OW26888   8.144   7.696   4.717  0.4569  0.0822 -0.0400
 6637SOL    HW126889   8.100   7.611   4.687  0.6745 -0.7993  2.0817
 6637SOL    HW226890   8.212   7.723   4.649  0.0479 -1.1821 -0.9797
 6638SOL     OW26891   4.957   4.519   0.013 -0.6731 -0.4522  0.0835
 6638SOL    HW126892   5.042   4.562   0.044 -0.6569 -2.3979  2.8732
 6638SOL    HW226893   4.879   4.571   0.046 -0.6202 -0.7192  0.6241
 6640SOL     OW26894   6.759   0.165   1.004  0.0885 -0.2493 -0.3000
 6640SOL    HW126895   6.660   0.180   1.005 -0.1584 -1.7612 -0.4981
 6640SOL    HW226896   6.802   0.229   0.939 -0.7697  0.2947 -0.3418
 6641SOL     OW26897   2.572   7.034   1.183 -0.0929  0.3743  0.0395
 6641SOL    HW126898   2.500   6.968   1.201  1.6003 -1.3468  0.6419
 6641SOL    HW226899   2.644   6.991   1.128  0.5475  2.0218 -0.4555
 6642SOL     OW26900   4.833   2.190   4.301 -0.4482  0.1539  0.3560
 6642SOL    HW126901   4.797   2.233   4.383 -1.3013  0.5109 -0.1962
 6642SOL    HW226902   4.760   2.179   4.234  0.2390 -0.1016 -0.3681
 6645SOL     OW26903   4.881   4.363   1.229  0.0836 -0.1453 -0.0340
 6645SOL    HW126904   4.809   4.432   1.225 -0.2158 -0.5049 -1.0509
 6645SOL    HW226905   4.970   4.409   1.238 -0.1704  0.3372  0.0738
 6647SOL     OW26906   0.621   9.443   0.729  0.6366  0.3012 -0.3896
 6647SOL    HW126907   0.553   9.382   0.769  0.7675 -0.6035 -1.5384
 6647SOL    HW226908   0.602   9.537   0.757  1.5230 -0.4239  2.9525
 6648SOL     OW26909   3.604   5.844   3.788 -0.1639  0.1444  0.0855
 6648SOL    HW126910   3.651   5.785   3.855  1.1684 -0.8742 -1.7059
 6648SOL    HW226911   3.646   5.935   3.789 -0.7820  0.4229  1.3065
 6649SOL     OW26912   8.916   8.925   1.832 -0.8101  0.3120  0.1391
 6649SOL    HW126913   8.953   8.889   1.918 -0.8433 -1.3791 -0.5346
 6649SOL    HW226914   8.990   8.933   1.765 -0.9229  0.8680  0.0848
 6650SOL     OW26915   1.364   4.159   4.638 -0.4744  0.1780  0.2446
 6650SOL    HW126916   1.272   4.142   4.675 -1.5319  0.9180 -1.8912
 6650SOL    HW226917   1.422   4.197   4.709 -2.0046  0.2793  1.4832
 6652SOL     OW26918   0.022   2.493   2.392 -1.1002 -0.1413  0.0678
 6652SOL    HW126919   0.115   2.457   2.389 -0.7132  0.9152 -1.0448
 6652SOL    HW226920  -0.043   2.417   2.388 -0.2962 -0.7989 -0.9920
 6653SOL     OW26921   3.021   9.544   0.812 -0.1794  0.0097 -0.3987
 6653SOL    HW126922   2.981   9.634   0.799 -1.4333 -0.4806  0.0580
 6653SOL    HW226923   2.966   9.491   0.876  0.7675 -0.9439 -0.3504
 6656SOL     OW26924   0.408   3.767   0.859 -0.0639  0.5516 -0.4430
 6656SOL    HW126925   0.499   3.726   0.855  0.2716  0.9864  2.0158
 6656SOL    HW226926   0.349   3.723   0.791  1.6434 -0.5472 -1.2573
 6657SOL     OW26927   5.439   2.486   2.882 -0.2574  0.2952 -0.3325
 6657SOL    HW126928   5.380   2.478   2.802  2.1656 -0.5340 -2.1021
 6657SOL    HW226929   5.436   2.579   2.918 -1.5391  0.6058 -1.2375
 6658SOL     OW26930   3.552   3.093   5.323  0.8135  0.3531  0.7489
 6658SOL    HW126931   3.556   3.154   5.244  1.0634  0.6624  1.0016
 6658SOL    HW226932   3.553   2.998   5.291  1.8965  0.4660  0.4171
 6659SOL     OW26933   0.275   8.603   4.303 -0.3036  0.2134 -0.2823
 6659SOL    HW126934   0.248   8.604   4.399 -0.3941  3.5368 -0.2703
 6659SOL    HW226935   0.346   8.535   4.288 -2.0031 -2.0461  1.6172
 6660SOL     OW26936   5.178   1.945   2.119  0.5266 -0.0070  0.3270
 6660SOL    HW126937   5.162   1.863   2.066 -0.5933  1.0113 -0.9457
 6660SOL    HW226938   5.273   1.975   2.107  0.1583  0.4864 -1.5315
 6661SOL     OW26939   8.832   3.124   1.947  0.7057 -0.2374 -0.6159
 6661SOL    HW126940   8.875   3.120   2.037 -0.1743  0.8550 -0.1299
 6661SOL    HW226941   8.834   3.218   1.914 -1.1562 -0.1812 -0.6389
 6662SOL     OW26942   4.161   9.744   3.080  0.0202 -0.3200  0.1843
 6662SOL    HW126943   4.197   9.800   3.005  0.1277 -1.2982 -0.5019
 6662SOL    HW226944   4.237   9.694   3.123 -0.1678 -0.4157  0.4030
 6663SOL     OW26945   5.630   0.144   3.118  1.0328  0.6983  0.0515
 6663SOL    HW126946   5.640   0.141   3.217  0.1813  0.5287  0.1318
 6663SOL    HW226947   5.627   0.240   3.088 -0.3499  0.7628  0.3622
 6664SOL     OW26948   4.550   8.806   5.302  0.6661 -0.2236  0.1584
 6664SOL    HW126949   4.563   8.894   5.258  0.0520 -0.1553  0.1138
 6664SOL    HW226950   4.626   8.789   5.365 -0.0784  1.0861  1.4268
 6665SOL     OW26951   4.842   2.465   1.703  0.7159 -0.3009  0.4218
 6665SOL    HW126952   4.932   2.460   1.659 -0.7479 -1.4171 -2.5297
 6665SOL    HW226953   4.803   2.373   1.709  0.0282  0.0946  2.3159
 6666SOL     OW26954   3.079   5.462   5.254  0.2839 -0.1680 -0.1082
 6666SOL    HW126955   3.086   5.499   5.347 -2.5668  1.3160 -0.4172
 6666SOL    HW226956   3.068   5.363   5.259  0.6502 -0.1573  1.1241
 6667SOL     OW26957   4.787   3.600   3.972 -0.0480 -0.5294  0.1750
 6667SOL    HW126958   4.778   3.699   3.955  0.8920 -0.4740 -0.0158
 6667SOL    HW226959   4.860   3.563   3.915  0.5342 -1.0748  1.2521
 6668SOL     OW26960   4.414   0.327   4.944 -0.3026  0.0295  0.0238
 6668SOL    HW126961   4.378   0.388   5.014 -0.6833  1.0332 -1.0354
 6668SOL    HW226962   4.345   0.312   4.873 -0.6954 -2.7041  0.9345
 6669SOL     OW26963   9.984   2.150   0.865 -0.1196  0.0052 -0.1496
 6669SOL    HW126964   9.982   2.211   0.786 -1.0298  0.5193  0.2636
 6669SOL    HW226965   9.922   2.073   0.849 -1.5693  0.9622  0.7290
 6670SOL     OW26966   3.416   1.027   2.467 -0.3734 -0.0372  0.0752
 6670SOL    HW126967   3.330   1.057   2.509 -0.0631 -0.8208  1.3113
 6670SOL    HW226968   3.481   1.004   2.539 -0.1572 -2.3873 -0.8399
 6671SOL     OW26969   3.142   1.448   4.955  0.3701  0.6824 -0.0849
 6671SOL    HW126970   3.220   1.509   4.970  1.1154 -0.3228  0.1930
 6671SOL    HW226971   3.105   1.419   5.042 -1.2741  2.3192 -0.1984
 6672SOL     OW26972   2.644   6.354   0.402 -0.0551 -0.9757 -0.0329
 6672SOL    HW126973   2.705   6.277   0.419 -0.3281 -0.9925  0.8881
 6672SOL    HW226974   2.577   6.361   0.476  0.4407  0.6003  0.3041
 6673SOL     OW26975   3.301   9.893   4.109  0.4100 -0.4345 -0.2009
 6673SOL    HW126976   3.283   9.834   4.030 -2.5854  2.3032 -1.6870
 6673SOL    HW226977   3.386   9.943   4.095 -0.2622  0.2720 -1.8555
 6674SOL     OW26978   7.994   0.795   4.262 -0.8231  0.0018  0.3223
 6674SOL    HW126979   8.067   0.817   4.327 -1.5669  0.4287  1.0305
 6674SOL    HW226980   8.011   0.706   4.220  0.6880  0.5915 -0.3542
 6675SOL     OW26981   2.868   7.069   2.214 -0.2593  0.4009  0.1823
 6675SOL    HW126982   2.885   7.007   2.291  0.5092 -0.3783 -0.6070
 6675SOL    HW226983   2.928   7.148   2.221  0.4077 -0.0836 -0.0779
 6676SOL     OW26984   5.316   1.514   0.823 -0.7873  0.2351 -0.3678
 6676SOL    HW126985   5.412   1.538   0.809 -1.2271  1.0985 -1.9251
 6676SOL    HW226986   5.311   1.431   0.880  0.8324  1.1131  1.1148
 6677SOL     OW26987   1.743   1.574   3.345 -0.0692  0.1415 -0.7519
 6677SOL    HW126988   1.800   1.646   3.383  0.2927 -0.2536 -0.5429
 6677SOL    HW226989   1.762   1.564   3.247  1.4069 -1.0878 -0.3581
 6679SOL     OW26990   3.225   4.942   3.324  0.2585 -0.4654  0.2603
 6679SOL    HW126991   3.209   4.850   3.360  0.2774 -0.5684  0.0050
 6679SOL    HW226992   3.241   4.937   3.225 -0.0768 -0.1551  0.1878
 6680SOL     OW26993   4.223   9.107   0.958 -0.2717 -0.4311 -0.1157
 6680SOL    HW126994   4.209   9.110   1.057 -1.7166 -1.0248 -0.2925
 6680SOL    HW226995   4.137   9.082   0.913  0.0996  0.9079 -1.5938
 6681SOL     OW26996   5.043   0.437   4.611  0.0974 -0.4589 -0.3103
 6681SOL    HW126997   5.088   0.485   4.687 -0.1974 -0.3664 -0.1934
 6681SOL    HW226998   4.965   0.385   4.646  0.9314 -1.7078 -0.3160
 6682SOL     OW26999   3.977   9.888   0.913  0.6093 -0.5864  0.3068
 6682SOL    HW127000   3.935   9.848   0.831  0.9332  1.3989 -0.8887
 6682SOL    HW227001   4.023   9.973   0.887  1.4772 -0.3998  2.4219
 6684SOL     OW27002   2.393   8.517   1.641  0.4227 -0.3879 -0.5575
 6684SOL    HW127003   2.372   8.611   1.613 -0.9231 -0.8594 -1.2071
 6684SOL    HW227004   2.325   8.486   1.708  0.7322 -0.9692 -0.5117
 6685SOL     OW27005   2.456   8.145   4.900 -0.5390 -0.2262 -0.2098
 6685SOL    HW127006   2.496   8.122   4.988  0.6657  1.1000 -0.3923
 6685SOL    HW227007   2.528   8.170   4.835 -1.6102  2.2104 -0.5316
 6686SOL     OW27008   6.876   4.020   1.322  0.7115 -0.0617  0.1583
 6686SOL    HW127009   6.905   4.027   1.418  3.0741  0.3565 -0.5566
 6686SOL    HW227010   6.861   4.112   1.285 -0.0912 -0.2192  0.0708
 6687SOL     OW27011   1.931   2.182   4.530  0.4813  0.6183  0.6946
 6687SOL    HW127012   1.862   2.255   4.533  0.7271  0.8671  0.3491
 6687SOL    HW227013   2.010   2.207   4.586 -0.5412 -0.5401  2.7158
 6688SOL     OW27014   6.439   7.608   2.673  0.2393  0.2059  0.4246
 6688SOL    HW127015   6.422   7.705   2.692 -1.3258  0.3396 -1.4571
 6688SOL    HW227016   6.499   7.600   2.594  0.4842 -0.3602  0.6692
 6690SOL     OW27017   9.606   2.623   4.597 -0.2990  0.5697  0.4015
 6690SOL    HW127018   9.650   2.700   4.550 -0.7371 -0.5926 -1.9936
 6690SOL    HW227019   9.670   2.583   4.662  1.0071  1.0368 -0.5716
 6691SOL     OW27020   3.727   3.884   1.291  0.3019 -0.2706  0.2332
 6691SOL    HW127021   3.753   3.851   1.382  0.7910 -0.3623  0.0636
 6691SOL    HW227022   3.661   3.821   1.250 -1.0521  0.5582  1.1227
 6692SOL     OW27023   9.025   7.757   1.672 -0.0708 -0.4212 -0.8824
 6692SOL    HW127024   9.040   7.776   1.575 -0.3297  1.7865 -0.5015
 6692SOL    HW227025   9.113   7.757   1.720 -0.1507  0.8353 -0.7177
 6694SOL     OW27026   2.262   0.206   4.869  0.0056 -0.4813 -0.5952
 6694SOL    HW127027   2.263   0.301   4.839  2.7204 -0.2137  0.1786
 6694SOL    HW227028   2.348   0.162   4.843 -0.7355 -2.3932  0.0766
 6695SOL     OW27029   5.537   7.893   4.575  0.0758  0.1819 -0.3939
 6695SOL    HW127030   5.554   7.937   4.664 -0.0612  1.7683 -1.1302
 6695SOL    HW227031   5.498   7.960   4.512  1.2140 -0.6225 -1.9975
 6696SOL     OW27032   1.103   2.820   3.507 -0.5238 -0.4490  0.8603
 6696SOL    HW127033   1.099   2.731   3.462 -0.6422  0.7583 -1.5518
 6696SOL    HW227034   1.040   2.884   3.462 -0.0215  1.0264  2.1962
 6697SOL     OW27035   0.078   9.868   2.462  0.2387  0.0962 -0.5387
 6697SOL    HW127036   0.160   9.922   2.444 -0.0425  0.4697 -0.6916
 6697SOL    HW227037   0.004   9.928   2.493 -0.2414 -0.1232 -1.2509
 6698SOL     OW27038   8.326   5.667   2.461  0.4207 -0.8587 -0.0913
 6698SOL    HW127039   8.329   5.582   2.408  0.5107 -0.0590 -1.3739
 6698SOL    HW227040   8.393   5.732   2.424 -0.9458  0.4520 -0.2871
 6699SOL     OW27041   1.757   8.613   3.090  0.0564 -0.4704 -0.1036
 6699SOL    HW127042   1.776   8.646   3.182  1.8819 -0.2971 -0.5329
 6699SOL    HW227043   1.678   8.662   3.052 -0.5825 -0.4110  1.2781
 6700SOL     OW27044   0.668   7.484   2.884 -0.2571  1.0218 -0.1809
 6700SOL    HW127045   0.714   7.489   2.796  0.8974 -0.6064  0.3075
 6700SOL    HW227046   0.675   7.573   2.930 -1.1729  1.9831 -1.8523
 6702SOL     OW27047   1.358   6.136   4.830 -0.3649  0.2352  0.0196
 6702SOL    HW127048   1.408   6.077   4.767 -0.6736 -0.1774  0.1627
 6702SOL    HW227049   1.325   6.216   4.780  0.8128  0.7359  0.0148
 6703SOL     OW27050   6.131   8.206   2.370  0.1733 -0.3523 -0.8637
 6703SOL    HW127051   6.134   8.130   2.434  0.6761 -1.4830 -2.2093
 6703SOL    HW227052   6.109   8.172   2.279  0.7418  1.0793 -1.5513
 6704SOL     OW27053   0.980   7.290   0.256 -0.2307 -0.2480 -0.7251
 6704SOL    HW127054   1.011   7.277   0.161  0.1356  2.8091 -1.0548
 6704SOL    HW227055   1.046   7.249   0.318  0.9576  0.1630 -1.6934
 6705SOL     OW27056   8.248   8.561   2.506  0.5280 -0.1424 -0.6382
 6705SOL    HW127057   8.313   8.530   2.436  1.4317 -2.2845  1.0977
 6705SOL    HW227058   8.296   8.580   2.591 -0.6657  1.7561 -0.3447
 6706SOL     OW27059   3.471   5.393   2.142  0.0158  0.1117  0.0478
 6706SOL    HW127060   3.471   5.302   2.182  0.5319  0.4289  0.7663
 6706SOL    HW227061   3.451   5.461   2.212  1.6941  0.7340 -0.0681
 6707SOL     OW27062   0.155   8.405   0.468  0.7486 -0.0585  0.2261
 6707SOL    HW127063   0.200   8.335   0.412  0.6037 -1.4743  1.8496
 6707SOL    HW227064   0.057   8.384   0.473  1.0142 -0.8687  2.3298
 6709SOL     OW27065   0.907   4.740   1.947 -0.1033  0.0942  0.4152
 6709SOL    HW127066   0.988   4.702   1.991  0.6584  1.7909  0.5197
 6709SOL    HW227067   0.930   4.768   1.854 -0.8519 -0.3753  0.0806
 6710SOL     OW27068   5.003   6.549   1.830 -0.1368 -0.2385 -0.2485
 6710SOL    HW127069   5.039   6.464   1.792  0.7542 -1.0508  2.2539
 6710SOL    HW227070   5.072   6.621   1.823  0.2535 -0.5474  0.3201
 6711SOL     OW27071   2.627   9.824   2.655 -0.2568  0.3098  0.0315
 6711SOL    HW127072   2.542   9.813   2.604 -1.3581  0.7939  1.7161
 6711SOL    HW227073   2.702   9.842   2.592 -1.7250  1.6807 -1.3487
 6712SOL     OW27074   0.459   1.471   4.599 -0.7886  0.2159 -0.3225
 6712SOL    HW127075   0.454   1.472   4.699 -1.8820 -1.8372 -0.3181
 6712SOL    HW227076   0.550   1.499   4.570  0.6909 -2.4927  1.4091
 6713SOL     OW27077   6.755   7.248   3.808  0.4230  0.3398  0.0097
 6713SOL    HW127078   6.716   7.178   3.868 -1.3590 -0.3120 -1.8036
 6713SOL    HW227079   6.689   7.269   3.736  2.2232  1.5768 -1.3182
 6714SOL     OW27080   4.001   9.519   3.489  0.2233 -0.1090 -0.1055
 6714SOL    HW127081   4.018   9.576   3.409 -0.0247 -0.3742 -0.3459
 6714SOL    HW227082   4.027   9.425   3.469  0.0100 -0.2067  0.0757
 6715SOL     OW27083   4.233   4.209   0.571  0.1862 -0.2752 -0.2552
 6715SOL    HW127084   4.216   4.278   0.500  1.1841  0.5390  0.2777
 6715SOL    HW227085   4.276   4.129   0.530 -0.5732 -0.4086 -0.8089
 6716SOL     OW27086   2.318   6.872   3.822 -0.1592  0.1618  0.0998
 6716SOL    HW127087   2.399   6.851   3.877 -0.3833  1.6649  1.0125
 6716SOL    HW227088   2.236   6.868   3.880 -0.3601  2.0614 -0.0361
 6717SOL     OW27089   7.423   6.557   4.472  0.5891  0.1531  0.2983
 6717SOL    HW127090   7.460   6.483   4.528  0.1721  0.5217  1.0599
 6717SOL    HW227091   7.349   6.521   4.415  0.6735 -0.1112  0.3541
 6718SOL     OW27092   1.150   3.309   0.229  0.2783 -0.1024 -0.0438
 6718SOL    HW127093   1.143   3.392   0.283  2.4978  0.1773 -0.1221
 6718SOL    HW227094   1.216   3.322   0.155  1.3952 -2.2192  0.5271
 6719SOL     OW27095   9.196   8.653   0.153 -0.1379  0.2300  0.5144
 6719SOL    HW127096   9.219   8.565   0.110  0.8265  0.3754  0.7220
 6719SOL    HW227097   9.256   8.668   0.231  0.9925  1.9774 -0.6627
 6720SOL     OW27098   4.540   3.698   3.412 -0.0671  0.0629  0.5379
 6720SOL    HW127099   4.441   3.695   3.418  0.0010 -1.0141  1.3975
 6720SOL    HW227100   4.570   3.664   3.323 -0.4657  0.2036  0.3537
 6721SOL     OW27101   4.049   5.545   1.812  0.1376  0.5572 -0.3167
 6721SOL    HW127102   4.108   5.549   1.731 -1.0000  2.2892 -1.0751
 6721SOL    HW227103   3.953   5.552   1.785 -0.3494 -0.5382  1.0529
 6722SOL     OW27104   0.468   8.713   2.212  0.3310 -0.2336  0.3618
 6722SOL    HW127105   0.491   8.616   2.220  1.3036 -0.1178 -0.8131
 6722SOL    HW227106   0.492   8.745   2.120  0.1587  1.1549  0.7898
 6723SOL     OW27107   0.458   3.217   4.345 -0.4893 -0.4876  0.3397
 6723SOL    HW127108   0.381   3.176   4.295 -0.0904 -0.5024 -0.2719
 6723SOL    HW227109   0.537   3.224   4.284 -0.1301 -0.0932  0.8462
 6724SOL     OW27110   8.206   4.739   0.163 -0.0444  0.3463  0.4551
 6724SOL    HW127111   8.137   4.667   0.172 -1.6672  1.9983  1.5837
 6724SOL    HW227112   8.297   4.700   0.179 -0.8537 -1.4985  0.7220
 6726SOL     OW27113   2.800   0.725   0.278  0.1173 -0.4615  0.0427
 6726SOL    HW127114   2.771   0.631   0.263 -1.5832  0.2813 -1.6561
 6726SOL    HW227115   2.894   0.737   0.248  0.1186 -1.4586 -0.3550
 6727SOL     OW27116   4.476   4.895   0.860 -0.3436  0.2531  0.7746
 6727SOL    HW127117   4.475   4.796   0.872  0.6849  0.0605 -0.5592
 6727SOL    HW227118   4.423   4.919   0.779 -1.3886  0.8913  1.6310
 6729SOL     OW27119   8.690   5.238   1.832 -0.4324  0.0592  0.1384
 6729SOL    HW127120   8.674   5.309   1.764  0.4169 -0.8230 -1.0129
 6729SOL    HW227121   8.755   5.271   1.901  0.9216 -0.0026 -1.0745
 6730SOL     OW27122   2.434   8.914   3.437 -0.0072 -0.4227  0.4865
 6730SOL    HW127123   2.346   8.955   3.457  0.7474  1.9100 -0.8540
 6730SOL    HW227124   2.487   8.905   3.522  0.2895  2.5426  0.6704
 6731SOL     OW27125   9.593   4.834   2.640  0.7008  0.1760 -0.0683
 6731SOL    HW127126   9.651   4.838   2.559 -0.3002  2.3699 -0.7401
 6731SOL    HW227127   9.555   4.742   2.651  1.6701 -0.4006 -1.4958
 6732SOL     OW27128   7.484   2.780   3.960 -0.2110  0.1002  0.7123
 6732SOL    HW127129   7.462   2.747   3.868  1.7881  0.9854 -0.1037
 6732SOL    HW227130   7.485   2.702   4.023  0.8413 -0.8889 -0.4872
 6733SOL     OW27131   3.864   7.576   2.823  0.1160 -0.0716 -0.0267
 6733SOL    HW127132   3.939   7.511   2.838 -1.1490 -1.0566  2.2199
 6733SOL    HW227133   3.873   7.653   2.886  0.9199  1.3552 -1.8498
 6735SOL     OW27134   4.904   5.319   1.887  0.5916 -0.5306  0.3717
 6735SOL    HW127135   4.913   5.330   1.788  0.9947  0.4439  0.5144
 6735SOL    HW227136   4.910   5.222   1.910 -1.1128 -0.9269 -0.7143
 6736SOL     OW27137   1.872   9.891   3.510  0.3662  0.5535  0.4269
 6736SOL    HW127138   1.773   9.903   3.522 -0.0503 -0.4812 -1.6146
 6736SOL    HW227139   1.901   9.940   3.427  1.1296 -1.0427 -0.2675
 6737SOL     OW27140   3.735   8.301   4.326 -0.0336 -0.3202  0.4464
 6737SOL    HW127141   3.814   8.330   4.380  0.1266  3.0845 -1.4715
 6737SOL    HW227142   3.766   8.258   4.241 -0.1939  0.9456 -0.2706
 6738SOL     OW27143   5.538   0.977   2.126  0.4136  0.1376 -0.0598
 6738SOL    HW127144   5.458   0.933   2.085  0.0452  0.7794 -0.0327
 6738SOL    HW227145   5.576   0.916   2.196 -0.0509 -0.1765 -0.0741
 6739SOL     OW27146   1.880   2.116   3.586  0.3635  0.2495  0.0956
 6739SOL    HW127147   1.936   2.143   3.507  0.4896  2.2702  0.8452
 6739SOL    HW227148   1.935   2.120   3.669 -0.5541  1.0746  0.6765
 6740SOL     OW27149   3.031   8.758   4.941 -0.0132 -0.0952 -0.2222
 6740SOL    HW127150   3.004   8.800   4.854 -0.2353 -2.6104 -1.4217
 6740SOL    HW227151   3.130   8.746   4.944  0.0233  0.2614  0.0011
 6741SOL     OW27152   9.363   7.758   4.355 -0.4524  0.1728 -0.5403
 6741SOL    HW127153   9.366   7.825   4.430 -0.8045 -0.3401 -0.0644
 6741SOL    HW227154   9.382   7.667   4.391  0.3451  0.0563 -1.2444
 6742SOL     OW27155   3.439   9.346   1.177  0.1140 -0.1528  0.8313
 6742SOL    HW127156   3.341   9.362   1.179  0.2565  1.0159 -0.9033
 6742SOL    HW227157   3.488   9.431   1.195  0.8170 -0.4947  0.5774
 6743SOL     OW27158   8.270   1.218   0.258 -0.2533  0.0470 -0.4713
 6743SOL    HW127159   8.206   1.211   0.182 -1.3394 -3.3294  0.6565
 6743SOL    HW227160   8.219   1.229   0.343  0.7037 -1.3493  0.3030
 6744SOL     OW27161   2.432   3.223   0.006 -0.1992  0.0998 -0.4949
 6744SOL    HW127162   2.491   3.192   0.080 -1.3915 -1.1240 -0.0390
 6744SOL    HW227163   2.394   3.313   0.029  1.8690  1.1387 -1.0308
 6745SOL     OW27164   7.100   7.335   5.196 -0.0128 -0.1208  0.0783
 6745SOL    HW127165   7.099   7.434   5.209 -0.1506  0.0498 -1.2115
 6745SOL    HW227166   7.181   7.309   5.144  0.3162 -0.7592  0.8934
 6746SOL     OW27167   1.347   6.728   0.842  0.4326 -0.1502  0.4508
 6746SOL    HW127168   1.257   6.745   0.802  0.7279  0.4194  0.0267
 6746SOL    HW227169   1.373   6.633   0.828  0.2136 -0.1307 -0.0643
 6747SOL     OW27170   6.736   0.788   2.989 -0.2931 -0.0131  0.6736
 6747SOL    HW127171   6.678   0.708   2.970  1.3181 -1.4092  1.5407
 6747SOL    HW227172   6.704   0.865   2.934 -2.0382 -1.1696  0.0013
 6749SOL     OW27173   6.781   3.167   2.934  0.0594 -0.0476  0.3478
 6749SOL    HW127174   6.836   3.159   3.017  1.1222 -1.9153 -0.5165
 6749SOL    HW227175   6.838   3.201   2.860 -0.8513  1.4580  0.3088
 6750SOL     OW27176   8.715   5.695   3.389  0.1688 -0.7102  0.1789
 6750SOL    HW127177   8.756   5.783   3.410  0.8863 -0.5006 -1.9606
 6750SOL    HW227178   8.683   5.652   3.473  0.4736  1.2539  1.3226
 6751SOL     OW27179   7.815   7.978   2.130  0.0496  0.3357  0.5229
 6751SOL    HW127180   7.845   7.950   2.039 -0.3819  0.1226  0.4411
 6751SOL    HW227181   7.843   8.072   2.148  1.2711 -0.0583  0.6901
 6752SOL     OW27182   6.963   9.683   3.973  0.4876 -0.2112 -0.2090
 6752SOL    HW127183   6.935   9.588   3.987  0.6470 -0.2610 -0.2246
 6752SOL    HW227184   6.997   9.720   4.060 -1.7224  0.5552  0.3646
 6753SOL     OW27185   8.938   2.122   2.787 -0.2813  0.0864 -0.6293
 6753SOL    HW127186   8.974   2.076   2.868  0.6026  1.0619 -0.4499
 6753SOL    HW227187   8.840   2.104   2.779 -0.3945  0.0376  0.6958
 6755SOL     OW27188   0.863   3.594   3.955 -0.1985 -0.3118  0.2482
 6755SOL    HW127189   0.957   3.565   3.939  0.8867  2.2966  1.6601
 6755SOL    HW227190   0.834   3.564   4.046 -1.6524 -3.2804 -1.1221
 6758SOL     OW27191   6.373   8.200   4.709  0.5237  0.1045  0.4787
 6758SOL    HW127192   6.401   8.108   4.685 -0.6552 -0.6520  1.9023
 6758SOL    HW227193   6.356   8.253   4.626  0.4955 -1.1714 -0.3402
 6759SOL     OW27194   9.106   3.733   4.257 -0.0889 -0.0691 -0.5184
 6759SOL    HW127195   9.014   3.703   4.281 -0.0143 -0.3914 -0.6295
 6759SOL    HW227196   9.138   3.801   4.322  0.2479 -1.1832  0.4999
 6760SOL     OW27197   6.316   7.834   3.286  0.6559 -0.2545 -0.3161
 6760SOL    HW127198   6.253   7.898   3.244 -1.2231 -1.9715 -0.1620
 6760SOL    HW227199   6.343   7.868   3.376 -0.4146  0.2440 -0.1808
 6761SOL     OW27200   0.095   6.157   4.518  0.0698  0.2664 -0.3221
 6761SOL    HW127201   0.191   6.146   4.543 -0.0320 -1.0638 -0.4597
 6761SOL    HW227202   0.040   6.166   4.600  0.0127 -1.6952 -0.1189
 6762SOL     OW27203   6.094   0.417   2.767 -0.0925  0.0717 -0.8205
 6762SOL    HW127204   6.100   0.347   2.838  0.9546 -0.3082 -1.2623
 6762SOL    HW227205   6.010   0.404   2.714  1.0654 -2.1790 -2.2205
 6763SOL     OW27206   6.357   9.555   3.304 -0.0219 -0.4995 -0.2794
 6763SOL    HW127207   6.449   9.549   3.266 -0.9980 -1.1095 -2.5869
 6763SOL    HW227208   6.342   9.647   3.339  2.2140 -0.9871  2.1776
 6764SOL     OW27209   5.164   2.093   1.063 -0.1835 -0.1054  0.1070
 6764SOL    HW127210   5.148   2.190   1.048  0.8605 -0.2325 -1.9231
 6764SOL    HW227211   5.202   2.051   0.980 -0.8882 -2.3074  0.8451
 6765SOL     OW27212   4.186   9.514   2.556  0.6393 -0.1949  0.3520
 6765SOL    HW127213   4.190   9.591   2.621 -1.1847  1.6308 -1.6193
 6765SOL    HW227214   4.272   9.507   2.507  1.3545 -0.3984  1.5999
 6768SOL     OW27215   4.135   4.091   2.582 -0.0371  0.4953 -0.1554
 6768SOL    HW127216   4.178   4.056   2.665 -0.1181  1.8699  0.4648
 6768SOL    HW227217   4.129   4.190   2.586 -0.5024  0.5365 -1.5855
 6769SOL     OW27218   0.942   3.156   0.817  0.2927  0.9201 -0.7347
 6769SOL    HW127219   1.012   3.100   0.861 -0.3932 -1.3896 -2.4837
 6769SOL    HW227220   0.935   3.244   0.864  2.0917 -0.0653  1.4597
 6770SOL     OW27221   9.459   5.830   2.123 -0.0853 -0.0630 -0.1848
 6770SOL    HW127222   9.468   5.762   2.049  1.5107  0.0582 -0.1009
 6770SOL    HW227223   9.422   5.785   2.204  0.6444 -0.7625 -0.2346
 6771SOL     OW27224   9.237   8.218   5.289 -0.1645  0.6116 -0.3976
 6771SOL    HW127225   9.220   8.193   5.385 -0.7437 -1.4109 -1.0050
 6771SOL    HW227226   9.184   8.300   5.266 -0.3679  0.8520  0.8737
 6772SOL     OW27227   0.646   9.315   2.912 -0.2962 -0.3210  0.4964
 6772SOL    HW127228   0.630   9.275   2.822 -1.5545 -0.0011  0.5634
 6772SOL    HW227229   0.734   9.363   2.912 -0.4327 -0.0421 -0.6653
 6775SOL     OW27230   6.438   9.266   2.383  0.2521 -0.4446  0.3422
 6775SOL    HW127231   6.432   9.263   2.284  0.9544 -1.9725  0.3388
 6775SOL    HW227232   6.380   9.340   2.418 -0.0649  0.0357 -1.1868
 6777SOL     OW27233   1.533   2.724   3.076  0.5073  0.3812 -0.0407
 6777SOL    HW127234   1.455   2.663   3.059  0.4272  0.6016 -0.4816
 6777SOL    HW227235   1.593   2.682   3.143  0.6863 -0.4058 -0.6739
 6778SOL     OW27236   7.964   8.036   3.464  0.2268 -0.1558  0.0638
 6778SOL    HW127237   7.922   8.066   3.550  0.5716 -0.2677  0.2727
 6778SOL    HW227238   7.908   7.964   3.422 -0.8087  1.0433 -0.6335
 6779SOL     OW27239   2.388   2.783   2.537  0.0845  0.2494 -0.5927
 6779SOL    HW127240   2.426   2.818   2.623  0.5237  0.2013 -0.7681
 6779SOL    HW227241   2.459   2.780   2.467 -0.4096  0.8558 -1.1331
 6780SOL     OW27242   2.697   1.276   2.117 -0.1213  0.2619 -0.4228
 6780SOL    HW127243   2.679   1.182   2.088  1.6899  0.2335 -1.4786
 6780SOL    HW227244   2.781   1.309   2.075  0.8659  1.3285  2.2581
 6781SOL     OW27245   8.657   6.364   2.480 -0.2778  0.2294  0.1269
 6781SOL    HW127246   8.709   6.334   2.560  0.5626 -0.0799 -0.5366
 6781SOL    HW227247   8.567   6.321   2.481 -0.2102  0.0989  0.8266
 6783SOL     OW27248   0.608   3.378   5.130  0.2160 -0.8339 -0.1521
 6783SOL    HW127249   0.624   3.461   5.183 -0.3239 -0.4076 -0.6554
 6783SOL    HW227250   0.680   3.369   5.061 -0.1120 -0.4300 -0.5434
 6786SOL     OW27251   3.083   6.190   4.760  0.1456  0.4946  0.8414
 6786SOL    HW127252   3.166   6.220   4.713  0.0989  1.0853  1.1318
 6786SOL    HW227253   3.024   6.142   4.695  0.0347  1.3949  0.2619
 6788SOL     OW27254   2.124   9.350   0.458  0.2001 -0.2019 -0.5528
 6788SOL    HW127255   2.189   9.274   0.468 -0.4308 -0.9296 -1.9476
 6788SOL    HW227256   2.087   9.372   0.548  2.4711  0.3213  0.3029
 6791SOL     OW27257   2.483   1.382   0.313  0.2422  0.1845 -0.5733
 6791SOL    HW127258   2.563   1.431   0.348 -0.5265  1.6679 -0.8903
 6791SOL    HW227259   2.508   1.334   0.228  1.3835 -1.2258  0.5281
 6792SOL     OW27260   9.513   3.757   0.563 -0.3741 -0.1463 -0.3881
 6792SOL    HW127261   9.529   3.827   0.494 -0.5678 -0.4114 -0.7055
 6792SOL    HW227262   9.494   3.800   0.651  1.5669  0.1732 -0.1146
 6793SOL     OW27263   6.022   0.781   4.211  0.3117  0.1609  0.0170
 6793SOL    HW127264   6.101   0.722   4.225  0.2864  0.3730  1.0899
 6793SOL    HW227265   6.040   0.871   4.252 -0.2102  0.4344 -0.3439
 6794SOL     OW27266   6.727   1.368   1.068  0.1489 -0.3017 -0.3304
 6794SOL    HW127267   6.646   1.311   1.057 -0.1266 -0.3313  1.7103
 6794SOL    HW227268   6.727   1.409   1.159  2.5263 -0.4312 -0.2507
 6795SOL     OW27269   9.880   8.915   0.226 -0.0807  0.3979  0.3979
 6795SOL    HW127270   9.834   8.970   0.296  0.8283  0.6533  0.7931
 6795SOL    HW227271   9.922   8.835   0.269  0.0696  0.3023  0.0747
 6796SOL     OW27272   8.853   5.519   0.085 -0.0715  0.7426 -0.5951
 6796SOL    HW127273   8.873   5.598   0.027 -2.0516  1.0756 -0.8434
 6796SOL    HW227274   8.755   5.512   0.099  0.1400 -1.3504 -0.0870
 6797SOL     OW27275   7.202   9.576   2.904 -0.0958  0.2523  0.0613
 6797SOL    HW127276   7.174   9.627   2.985  1.0158  3.0482 -1.2264
 6797SOL    HW227277   7.122   9.552   2.850 -0.8707 -1.9018  2.0987
 6798SOL     OW27278   1.008   7.278   4.113 -0.1468 -0.3389  0.3036
 6798SOL    HW127279   1.101   7.244   4.098  0.4157  1.2961 -0.0313
 6798SOL    HW227280   0.947   7.241   4.042  0.6177  0.0063 -0.5416
 6799SOL     OW27281   0.096   9.769   3.813 -0.1781  0.0958 -0.0541
 6799SOL    HW127282   0.101   9.848   3.752 -0.2992  0.9820  1.0634
 6799SOL    HW227283   0.135   9.793   3.902  0.3844 -1.3092  0.0929
 6800SOL     OW27284   2.825   4.663   5.097 -0.2692  0.0155 -0.0352
 6800SOL    HW127285   2.845   4.737   5.162  1.4451  0.9921 -1.6200
 6800SOL    HW227286   2.872   4.580   5.124 -0.0015  0.2686  0.2711
 6801SOL     OW27287   4.116   3.294   1.945 -0.6015  0.2091  0.3516
 6801SOL    HW127288   4.202   3.343   1.929  0.4568 -0.7993  2.7627
 6801SOL    HW227289   4.070   3.334   2.024  0.6528 -3.0540  2.8503
 6802SOL     OW27290   8.528   0.239   1.244  0.3927  0.5840  0.0234
 6802SOL    HW127291   8.620   0.263   1.276  0.0586 -1.1059  2.3239
 6802SOL    HW227292   8.463   0.308   1.275  0.7384  1.3522 -0.9198
 6803SOL     OW27293   4.911   1.169   0.135  0.2041  0.0731 -0.0975
 6803SOL    HW127294   4.826   1.131   0.097 -0.1664  0.8120 -0.0156
 6803SOL    HW227295   4.977   1.095   0.149  0.1199 -0.3124 -1.5867
 6804SOL     OW27296   9.375   9.635   4.808  0.1572 -0.3620  0.4114
 6804SOL    HW127297   9.448   9.601   4.749  1.6418  0.8778  1.4906
 6804SOL    HW227298   9.361   9.570   4.883  2.2344  0.7852  1.8574
 6805SOL     OW27299   2.739   4.096   2.845 -0.4492  0.2696  0.3648
 6805SOL    HW127300   2.801   4.133   2.775 -0.0705 -1.6049 -0.3290
 6805SOL    HW227301   2.778   4.109   2.935 -0.6460  2.1570  0.1936
 6806SOL     OW27302   3.242   6.094   3.909 -0.2009  0.2292  0.0283
 6806SOL    HW127303   3.265   5.996   3.913 -2.0723 -0.1744  1.2321
 6806SOL    HW227304   3.252   6.134   4.000  1.6480  1.4359 -0.6803
 6807SOL     OW27305   4.471   7.085   2.490 -0.0288 -0.8205  0.1785
 6807SOL    HW127306   4.396   7.122   2.435  2.2185  1.1348 -1.6967
 6807SOL    HW227307   4.438   7.068   2.583 -2.7484  0.0977 -0.5491
 6810SOL     OW27308   4.360   2.556   0.815  0.1737 -0.0658  0.7080
 6810SOL    HW127309   4.420   2.477   0.830 -1.5758 -1.3910  0.8708
 6810SOL    HW227310   4.267   2.524   0.798 -0.0263  1.8714 -2.0135
 6811SOL     OW27311   9.822   2.090   1.435 -0.3358 -0.0826 -0.3317
 6811SOL    HW127312   9.826   2.036   1.351  0.6181  0.3599 -0.5808
 6811SOL    HW227313   9.841   2.186   1.415  0.6725 -0.0923  0.4816
 6812SOL     OW27314   3.546   3.551   4.069  0.2151  0.1865  0.1359
 6812SOL    HW127315   3.625   3.590   4.022  0.2038  0.1727  0.1055
 6812SOL    HW227316   3.565   3.546   4.167  0.7611 -1.0215 -0.0172
 6813SOL     OW27317   9.757   8.467   3.812  0.2032  0.0149  0.0809
 6813SOL    HW127318   9.770   8.446   3.909  0.2803  0.8629  0.2607
 6813SOL    HW227319   9.832   8.426   3.759  0.5493  0.1454  0.4619
 6814SOL     OW27320   1.432   2.517   4.573  0.3233  0.2868 -1.1012
 6814SOL    HW127321   1.350   2.553   4.528 -0.0160  0.9028 -0.0281
 6814SOL    HW227322   1.446   2.422   4.546 -0.5288  0.2919 -1.5933
 6816SOL     OW27323   8.820   9.171   0.660 -0.2514 -0.1012  0.0176
 6816SOL    HW127324   8.861   9.261   0.643 -0.0299  0.0907  1.4735
 6816SOL    HW227325   8.885   9.114   0.711 -0.4255 -1.0649 -0.8086
 6817SOL     OW27326   3.756   4.237   3.726  0.4465 -0.2721  0.3248
 6817SOL    HW127327   3.701   4.290   3.662  2.1679  0.6114 -0.4759
 6817SOL    HW227328   3.853   4.251   3.705  0.9825 -1.5897  1.8465
 6818SOL     OW27329   0.897   7.836   1.448  0.4771 -0.0433  0.1654
 6818SOL    HW127330   0.822   7.779   1.479  0.3374 -0.3161 -0.6593
 6818SOL    HW227331   0.959   7.854   1.525  0.0769 -0.5974  0.6246
 6819SOL     OW27332   4.870   3.038   1.169 -0.6564  0.2152  0.4053
 6819SOL    HW127333   4.828   3.074   1.086 -0.3165  1.6585  0.8408
 6819SOL    HW227334   4.950   3.093   1.192 -0.7214 -0.2007  1.6684
 6820SOL     OW27335   7.876   9.921   0.289 -0.5371 -0.1996  0.3045
 6820SOL    HW127336   7.938   9.947   0.363 -1.3361  1.4202  0.4365
 6820SOL    HW227337   7.809   9.855   0.322 -0.3108 -0.1932  0.7693
 6822SOL     OW27338   0.002   3.351   4.490  0.1379 -0.1609  0.4260
 6822SOL    HW127339   0.078   3.392   4.439 -1.0229  0.8771 -0.4974
 6822SOL    HW227340  -0.005   3.393   4.580  0.0722  0.4105  0.1541
 6824SOL     OW27341   8.094   5.534   0.482 -0.4119  0.1237 -0.0431
 6824SOL    HW127342   8.034   5.462   0.515 -1.2257  0.3102 -1.1031
 6824SOL    HW227343   8.055   5.624   0.504  0.5024  0.2556  1.1027
 6825SOL     OW27344   8.536   9.468   0.754 -0.0128 -0.5694 -0.2492
 6825SOL    HW127345   8.627   9.439   0.785  0.7472 -0.7230 -2.5165
 6825SOL    HW227346   8.487   9.390   0.717 -0.0821 -0.0397 -1.3169
 6827SOL     OW27347   1.203   6.336   1.126  0.1256 -0.0216  0.3528
 6827SOL    HW127348   1.127   6.272   1.139  0.5296 -0.3509  1.1285
 6827SOL    HW227349   1.174   6.428   1.154 -0.5478  0.2082 -1.0393
 6829SOL     OW27350   8.628   1.736   3.271  0.3036  0.1793 -0.3483
 6829SOL    HW127351   8.552   1.800   3.286  0.8125  0.9915 -1.1635
 6829SOL    HW227352   8.597   1.663   3.210 -0.1532 -0.1242  0.2380
 6831SOL     OW27353   0.517   3.275   3.421 -0.5429 -0.2111  0.2004
 6831SOL    HW127354   0.461   3.354   3.447 -1.6720 -1.2245  0.9015
 6831SOL    HW227355   0.572   3.246   3.499  0.6174  0.4820 -0.3485
 6832SOL     OW27356   2.776   0.743   0.566 -0.3233  0.4152  0.5973
 6832SOL    HW127357   2.783   0.742   0.466  0.9272  1.8962  0.6375
 6832SOL    HW227358   2.681   0.726   0.593 -0.3521 -1.7637 -0.7631
 6833SOL     OW27359   0.115   3.498   0.849  0.1166 -0.2879 -0.6204
 6833SOL    HW127360   0.065   3.417   0.881 -0.9235  0.5022 -0.1993
 6833SOL    HW227361   0.103   3.509   0.751  1.8003 -1.6901 -0.9954
 6834SOL     OW27362   9.036   5.177   0.429  0.0397 -0.2043  0.0825
 6834SOL    HW127363   9.103   5.241   0.465 -0.7630 -0.6579  2.4275
 6834SOL    HW227364   9.027   5.191   0.330  3.3687  0.0440 -0.2471
 6835SOL     OW27365   1.746   5.460   0.193 -0.0419 -0.3564 -0.2121
 6835SOL    HW127366   1.666   5.419   0.148  1.0738 -1.9752 -0.7709
 6835SOL    HW227367   1.812   5.489   0.125 -0.4887  1.7503  0.2220
 6836SOL     OW27368   3.822   3.291   3.491 -0.7046  0.1785 -0.0816
 6836SOL    HW127369   3.823   3.265   3.588 -0.9158 -0.6538 -0.2914
 6836SOL    HW227370   3.755   3.235   3.442 -0.6425  0.6340 -0.6979
 6837SOL     OW27371   7.548   0.855   1.167  0.5399 -0.4695 -0.2921
 6837SOL    HW127372   7.588   0.816   1.083 -0.1815 -2.1769  0.1352
 6837SOL    HW227373   7.480   0.792   1.203 -0.4462  1.1005  0.6019
 6838SOL     OW27374   0.386   2.975   4.487  0.0896 -0.2163 -0.4795
 6838SOL    HW127375   0.408   3.060   4.439 -0.6895  0.8523  0.9980
 6838SOL    HW227376   0.302   2.935   4.449  0.7285 -0.5900 -1.5013
 6839SOL     OW27377   4.224   4.944   2.970  0.5114  0.6179  0.1428
 6839SOL    HW127378   4.171   4.997   2.904 -0.1195  0.5760  0.6007
 6839SOL    HW227379   4.162   4.887   3.024  1.0602  0.3367  0.4820
 6840SOL     OW27380   8.979   3.369   4.680  0.0872 -0.5511 -0.5527
 6840SOL    HW127381   8.916   3.432   4.634 -1.2803 -1.3096  0.2694
 6840SOL    HW227382   9.072   3.406   4.674 -0.4725  0.7822 -1.4137
 6842SOL     OW27383   9.864   2.993   2.287  0.0222  0.1299 -0.2162
 6842SOL    HW127384   9.903   2.997   2.195 -0.4811  1.7442 -0.3707
 6842SOL    HW227385   9.895   2.909   2.333 -0.8048 -1.3588 -2.3253
 6843SOL     OW27386   5.088   2.384   1.513  0.1560  0.4727 -0.4741
 6843SOL    HW127387   5.003   2.357   1.469 -0.0614  0.4669 -0.0486
 6843SOL    HW227388   5.096   2.484   1.512 -0.6175  0.5513  0.9145
 6844SOL     OW27389   7.600   3.560   2.405  0.4898  0.0305 -0.1990
 6844SOL    HW127390   7.672   3.627   2.424 -1.0848  0.7055  3.7115
 6844SOL    HW227391   7.519   3.607   2.371  0.3697 -0.2197 -0.2556
 6846SOL     OW27392   7.844   8.475   4.807  0.5898  0.0591  0.1271
 6846SOL    HW127393   7.831   8.543   4.879 -2.9479  0.7313 -1.0368
 6846SOL    HW227394   7.879   8.521   4.725  1.3770 -0.1156  0.3636
 6847SOL     OW27395   5.360   8.433   2.630 -0.4479 -0.6412  0.3419
 6847SOL    HW127396   5.447   8.459   2.587 -1.0636  1.2420  0.2079
 6847SOL    HW227397   5.376   8.357   2.693  1.1076 -1.0152 -0.4663
 6848SOL     OW27398   3.335   8.909   0.540 -0.2790 -0.1043 -0.1576
 6848SOL    HW127399   3.241   8.879   0.528 -0.3871  0.2595 -0.2142
 6848SOL    HW227400   3.338   8.984   0.607  0.0475 -0.5748  0.3624
 6849SOL     OW27401   9.997   1.814   1.718 -0.1787  0.0871  0.3222
 6849SOL    HW127402  10.073   1.830   1.655 -0.4691 -0.1006 -0.0765
 6849SOL    HW227403   9.935   1.746   1.679  1.1180 -2.1653  2.0491
 6852SOL     OW27404   3.933   8.026   3.622 -0.1083 -0.1539  0.2756
 6852SOL    HW127405   4.007   7.968   3.656  0.3816  0.3911  0.1361
 6852SOL    HW227406   3.920   8.011   3.525  1.3923  1.4593 -0.1986
 6853SOL     OW27407   9.560   4.667   0.615  0.0326  0.1769  0.3074
 6853SOL    HW127408   9.609   4.607   0.552  0.3423 -1.0269  1.6860
 6853SOL    HW227409   9.482   4.619   0.654 -2.0823  1.9797 -1.6029
 6854SOL     OW27410   6.488   9.906   4.351  0.1990 -0.6380 -0.8683
 6854SOL    HW127411   6.548   9.964   4.406 -0.0426 -1.0158 -0.2057
 6854SOL    HW227412   6.522   9.903   4.257  2.1062 -2.1109 -0.1556
 6855SOL     OW27413   3.052   9.359   5.029  0.4452 -0.4978  0.2621
 6855SOL    HW127414   3.088   9.355   4.936 -0.8323  1.4368 -0.3454
 6855SOL    HW227415   2.971   9.418   5.031  1.0573  0.3071  2.8004
 6856SOL     OW27416   5.444   5.108   1.236  0.0955 -0.2652 -0.1877
 6856SOL    HW127417   5.536   5.071   1.245  0.4997  0.3524 -1.6443
 6856SOL    HW227418   5.448   5.195   1.187 -1.1730  0.2148  0.5271
 6857SOL     OW27419   8.870   9.807   5.113 -0.3441  0.1326  0.5301
 6857SOL    HW127420   8.931   9.733   5.141 -0.0256 -0.1763 -0.9233
 6857SOL    HW227421   8.777   9.773   5.106  0.0188 -0.5335 -1.5335
 6858SOL     OW27422   5.833   2.039   4.889 -0.3164  0.3195  0.0779
 6858SOL    HW127423   5.832   2.035   4.789  1.1935 -0.5079  0.0803
 6858SOL    HW227424   5.913   2.090   4.920  1.2286 -2.4872  0.9079
 6859SOL     OW27425   2.123   9.654   0.867 -0.0006 -0.1671  0.1449
 6859SOL    HW127426   2.081   9.693   0.785 -1.7386 -4.3636 -1.0784
 6859SOL    HW227427   2.202   9.598   0.841 -2.1692 -3.7443  0.9370
 6860SOL     OW27428   6.638   1.509   0.400 -0.5830  0.2975  0.2051
 6860SOL    HW127429   6.694   1.429   0.421  0.0665  0.4600 -0.8498
 6860SOL    HW227430   6.645   1.576   0.474 -0.8513 -0.4647  0.9278
 6861SOL     OW27431   5.138   9.655   4.115  0.3042  0.1004  0.7139
 6861SOL    HW127432   5.105   9.749   4.114  1.0192  0.3529 -1.3756
 6861SOL    HW227433   5.214   9.645   4.051 -1.4171 -2.4365 -1.0594
 6862SOL     OW27434   1.942   0.080   4.453  0.6362  0.2564  0.4337
 6862SOL    HW127435   1.848   0.109   4.469  1.2208  1.8647  1.1197
 6862SOL    HW227436   1.991   0.077   4.540  1.2046 -0.5962  0.0864
 6863SOL     OW27437   3.457   3.280   1.623 -0.0606  0.0782  0.1189
 6863SOL    HW127438   3.440   3.182   1.614  1.4092 -0.2481  0.6660
 6863SOL    HW227439   3.556   3.296   1.624 -0.2895  1.7661 -1.9554
 6864SOL     OW27440   2.308   4.440   2.848 -0.0133 -0.6711  0.2531
 6864SOL    HW127441   2.391   4.465   2.799  1.1831 -0.2895  2.3987
 6864SOL    HW227442   2.294   4.503   2.925 -0.9219 -2.2185  1.4030
 6865SOL     OW27443   4.649   9.506   4.212  0.1097  0.4022  0.0547
 6865SOL    HW127444   4.719   9.536   4.277  0.1091 -1.5591  0.9920
 6865SOL    HW227445   4.678   9.529   4.119  2.5152 -1.3433  0.3334
 6869SOL     OW27446   7.352   0.692   1.261 -0.2412 -0.5992  0.8533
 6869SOL    HW127447   7.357   0.696   1.361 -1.0664  0.4199  0.8583
 6869SOL    HW227448   7.299   0.611   1.234 -2.1049  0.4436  1.3139
 6870SOL     OW27449   8.710   6.174   0.304 -0.5270 -0.3290 -0.0611
 6870SOL    HW127450   8.673   6.149   0.394  0.3819  1.1164  0.7364
 6870SOL    HW227451   8.719   6.274   0.299  0.4442 -0.4804 -1.3545
 6871SOL     OW27452   1.914   2.057   2.357  0.7910 -0.2768 -0.2322
 6871SOL    HW127453   1.849   2.102   2.295  0.4086 -0.6267 -0.0848
 6871SOL    HW227454   1.866   2.024   2.438  1.1867 -0.3680 -0.0333
 6872SOL     OW27455   2.756   7.156   5.076  0.2033  0.4401 -0.7167
 6872SOL    HW127456   2.814   7.098   5.133  1.5536  0.0770 -2.4255
 6872SOL    HW227457   2.705   7.220   5.134  2.6806  1.1164  0.7836
 6873SOL     OW27458   9.405   2.826   2.825  0.0341  0.4489 -0.3329
 6873SOL    HW127459   9.442   2.894   2.889 -1.0607  1.3168 -0.6090
 6873SOL    HW227460   9.364   2.873   2.747  1.4659 -0.5979 -1.7643
 6874SOL     OW27461   6.674   0.693   4.649  0.3167  0.2780  0.2454
 6874SOL    HW127462   6.745   0.700   4.579  0.5543  0.7416  0.5280
 6874SOL    HW227463   6.699   0.622   4.715  0.7753  0.8035  0.6383
 6875SOL     OW27464   8.863   8.272   0.332  0.3652  0.2461 -0.2980
 6875SOL    HW127465   8.932   8.325   0.283 -0.7868  2.3052  0.2443
 6875SOL    HW227466   8.900   8.243   0.420  1.2946 -0.5939 -0.9543
 6876SOL     OW27467   8.996   7.075   1.634  0.1125  0.0449 -0.1703
 6876SOL    HW127468   8.907   7.043   1.603  0.2859 -1.0526  0.4519
 6876SOL    HW227469   9.062   7.000   1.630  1.2066  1.0456 -1.3684
 6878SOL     OW27470   2.484   0.923   3.351 -0.0861 -0.8387 -0.2071
 6878SOL    HW127471   2.429   0.844   3.326 -0.3280 -0.3141 -1.4128
 6878SOL    HW227472   2.460   1.000   3.292  3.0154 -1.0363 -1.8719
 6880SOL     OW27473   3.004   3.447   3.380 -0.1480 -0.2008  0.1555
 6880SOL    HW127474   2.939   3.522   3.363  0.2043  0.7831  2.8642
 6880SOL    HW227475   3.080   3.482   3.435  1.1757 -2.0509 -0.4842
 6881SOL     OW27476   3.742   0.768   3.264  0.0343 -0.0834  0.0610
 6881SOL    HW127477   3.830   0.774   3.310  0.4710 -0.3621 -0.7353
 6881SOL    HW227478   3.756   0.754   3.166 -0.8935 -1.2920  0.0933
 6882SOL     OW27479   2.066   3.899   3.107 -0.2008  0.2837 -0.0121
 6882SOL    HW127480   2.111   3.850   3.181 -1.0004  0.7849  0.8253
 6882SOL    HW227481   2.012   3.834   3.052  1.5553 -0.3189 -1.0488
 6884SOL     OW27482   9.543   5.965   1.848  0.3281  0.2328 -0.0995
 6884SOL    HW127483   9.578   5.885   1.897 -0.5262  0.5101  0.9899
 6884SOL    HW227484   9.593   6.046   1.877  0.0451  0.3457  0.0795
 6885SOL     OW27485   8.018   8.184   2.218 -0.3496  0.3045  0.3423
 6885SOL    HW127486   8.057   8.228   2.138 -1.1888 -0.6383 -0.6070
 6885SOL    HW227487   8.072   8.207   2.299  0.8067  0.8496 -0.5714
 6888SOL     OW27488   8.512   2.873   2.461  0.5435  0.7536 -0.4618
 6888SOL    HW127489   8.530   2.795   2.521  0.4115  1.4764  0.5327
 6888SOL    HW227490   8.509   2.842   2.366  1.2337 -0.3237 -0.1386
 6890SOL     OW27491   2.282   0.392   2.367  0.3628 -0.5019 -0.0426
 6890SOL    HW127492   2.316   0.470   2.420  0.5836 -0.1087 -0.7512
 6890SOL    HW227493   2.287   0.309   2.422  0.7593 -0.1280  0.4881
 6892SOL     OW27494   0.857   3.551   2.426  0.0769 -0.2947  0.0279
 6892SOL    HW127495   0.936   3.505   2.386 -0.1774  0.6652 -1.5942
 6892SOL    HW227496   0.833   3.631   2.372 -1.3145  0.0772  1.1497
 6893SOL     OW27497   8.675   7.719   0.491 -0.2765 -0.2941 -0.6052
 6893SOL    HW127498   8.611   7.795   0.503  0.4460  0.1417  0.5708
 6893SOL    HW227499   8.626   7.640   0.454 -1.1372  0.5734 -1.3563
 6894SOL     OW27500   8.605   0.230   1.761  0.0545  0.1924 -0.2537
 6894SOL    HW127501   8.685   0.248   1.818  0.7744 -1.2602 -0.7986
 6894SOL    HW227502   8.631   0.174   1.683 -1.5366 -0.4374 -0.3515
 6895SOL     OW27503   8.262   5.705   4.659  0.4550 -0.2750  0.3962
 6895SOL    HW127504   8.184   5.740   4.607  0.5812 -0.0691  0.3452
 6895SOL    HW227505   8.277   5.763   4.739  2.1971  1.2733 -1.0072
 6896SOL     OW27506   3.180   4.986   0.181 -0.0860  0.2138  0.2102
 6896SOL    HW127507   3.272   4.947   0.187  1.1583  2.7695 -1.3770
 6896SOL    HW227508   3.129   4.940   0.108  0.9482  0.7079 -0.8395
 6898SOL     OW27509   8.410   3.157   4.509  0.0873  0.0541 -0.0815
 6898SOL    HW127510   8.437   3.140   4.603  1.7825 -0.0661 -0.5719
 6898SOL    HW227511   8.491   3.176   4.453 -0.9430  0.7862 -1.3857
 6900SOL     OW27512   4.919   7.445   3.188  0.0364  0.0049 -0.0754
 6900SOL    HW127513   4.943   7.492   3.273 -0.3408  0.5370 -0.2616
 6900SOL    HW227514   4.962   7.354   3.187  0.5756  0.2513  0.3880
 6901SOL     OW27515   0.611   3.782   5.286  0.0708 -0.3846  0.3822
 6901SOL    HW127516   0.517   3.807   5.263 -0.4177 -1.6384  0.9771
 6901SOL    HW227517   0.611   3.707   5.352  1.4750 -3.2978 -2.7838
 6902SOL     OW27518   2.587   4.910   4.495  0.1536 -0.1865  0.3197
 6902SOL    HW127519   2.576   4.959   4.582 -0.2522 -2.3253  1.4881
 6902SOL    HW227520   2.580   4.976   4.420 -1.0161  1.4756  1.8257
 6903SOL     OW27521  -0.002   3.790   3.906  0.1572 -0.3556 -0.5511
 6903SOL    HW127522   0.023   3.819   3.814  0.5127  0.0380 -0.3319
 6903SOL    HW227523   0.047   3.846   3.973  0.5998 -1.2351 -0.1265
 6905SOL     OW27524   0.650   6.554   3.607 -0.6033  0.0742 -0.3073
 6905SOL    HW127525   0.592   6.483   3.569 -1.6606  0.2729  0.8925
 6905SOL    HW227526   0.655   6.543   3.707  2.7283 -0.9177 -0.5030
 6906SOL     OW27527   6.231   1.596   1.136  0.4883  0.5786 -0.3853
 6906SOL    HW127528   6.311   1.539   1.118  0.8856  1.2552 -0.7930
 6906SOL    HW227529   6.159   1.541   1.179  1.9040  0.4229  1.8181
 6907SOL     OW27530   5.745   0.240   3.351 -0.0986  0.0729  0.1878
 6907SOL    HW127531   5.808   0.198   3.417  1.4536  1.3098 -0.4863
 6907SOL    HW227532   5.672   0.286   3.401 -0.8150 -1.8422  0.9668
 6908SOL     OW27533   5.521   0.768   5.069 -0.0750 -0.3518  0.0292
 6908SOL    HW127534   5.590   0.773   5.141  0.6233 -2.3791 -0.4767
 6908SOL    HW227535   5.551   0.821   4.990  0.7459 -0.9540 -0.0634
 6909SOL     OW27536   1.539   6.836   0.233 -0.0042 -0.3502 -0.1909
 6909SOL    HW127537   1.448   6.794   0.234 -0.4198  0.5270 -0.7074
 6909SOL    HW227538   1.551   6.888   0.149  0.4104  0.7654  0.5385
 6911SOL     OW27539   6.375   7.520   3.783 -0.2724 -0.5204  0.1467
 6911SOL    HW127540   6.424   7.527   3.870  0.0494 -0.9065 -0.0025
 6911SOL    HW227541   6.402   7.596   3.724  1.7023 -1.8368 -0.7085
 6913SOL     OW27542   7.993   3.616   1.891  0.4852 -0.4163  0.0268
 6913SOL    HW127543   8.075   3.661   1.926 -0.1041 -2.3337  4.1852
 6913SOL    HW227544   7.989   3.522   1.926 -3.0419 -0.6395 -0.7604
 6914SOL     OW27545   5.188   0.210   3.830 -0.0365 -0.2817  0.2915
 6914SOL    HW127546   5.163   0.228   3.925  2.4460  2.7769  0.4278
 6914SOL    HW227547   5.147   0.280   3.771  1.9930  0.3749 -0.3554
 6915SOL     OW27548   3.281   2.301   0.955 -0.3942  0.1569 -0.6124
 6915SOL    HW127549   3.363   2.245   0.941 -0.0934  1.1755 -3.0113
 6915SOL    HW227550   3.308   2.395   0.975 -0.9777  0.2835 -0.4165
 6916SOL     OW27551   3.486   0.753   0.501  0.1977  0.5909 -0.0795
 6916SOL    HW127552   3.492   0.783   0.406  1.0861 -0.5666 -0.3980
 6916SOL    HW227553   3.513   0.828   0.561  2.6736  0.3731 -0.8703
 6918SOL     OW27554   6.212   2.421   3.529 -0.5265 -0.1595 -0.3686
 6918SOL    HW127555   6.312   2.424   3.525 -0.4678 -0.7134  0.4780
 6918SOL    HW227556   6.176   2.382   3.444  0.0692 -1.4411 -0.0401
 6919SOL     OW27557   0.288   8.278   2.345 -0.9873  0.1412 -0.3791
 6919SOL    HW127558   0.388   8.272   2.334 -0.9999  0.3289 -0.5979
 6919SOL    HW227559   0.259   8.212   2.415 -0.7280 -0.0137 -0.4136
 6920SOL     OW27560   3.449   8.651   0.984  0.5893 -0.4899  0.2186
 6920SOL    HW127561   3.521   8.611   0.927  0.0205  0.3602 -1.1149
 6920SOL    HW227562   3.368   8.666   0.928 -0.1030  0.0065  1.3581
 6921SOL     OW27563   5.332   7.811   4.266  0.2947 -0.0638 -0.3535
 6921SOL    HW127564   5.419   7.840   4.305 -0.8665  3.4401 -0.1658
 6921SOL    HW227565   5.280   7.759   4.334  0.7846  0.8589  0.7394
 6922SOL     OW27566   3.143   1.847   1.661  0.0095 -0.1962  0.5373
 6922SOL    HW127567   3.180   1.914   1.725 -0.4922 -0.7532  1.4191
 6922SOL    HW227568   3.218   1.807   1.607  0.3746  0.6162  0.4439
 6923SOL     OW27569   1.997   0.876   3.987  0.2972  0.1788 -0.6899
 6923SOL    HW127570   2.035   0.966   4.010  1.1821 -0.1405 -0.9022
 6923SOL    HW227571   1.973   0.874   3.890 -1.7657  0.9146 -0.2353
 6924SOL     OW27572   8.302   7.481   1.129 -0.0790  0.2613 -0.2987
 6924SOL    HW127573   8.239   7.525   1.193 -0.6618  0.3061 -0.9023
 6924SOL    HW227574   8.310   7.384   1.151 -1.2835  0.0035 -0.9480
 6925SOL     OW27575   9.488   2.941   2.130 -0.1412 -0.1940  0.1474
 6925SOL    HW127576   9.496   2.883   2.049 -1.0719  1.4811 -1.1546
 6925SOL    HW227577   9.551   3.018   2.123 -1.2739  0.7634  0.3184
 6926SOL     OW27578   4.495   6.105   1.696  0.2625 -0.0235  0.2176
 6926SOL    HW127579   4.493   6.011   1.662 -1.1662  1.2529 -3.4568
 6926SOL    HW227580   4.413   6.122   1.751  1.2466 -1.3115  2.1371
 6927SOL     OW27581   3.551   8.774   4.526 -0.0740 -0.1653 -0.1938
 6927SOL    HW127582   3.480   8.772   4.596 -0.3772  1.6903 -0.4255
 6927SOL    HW227583   3.545   8.691   4.470 -1.1941 -0.6495  0.6206
 6928SOL     OW27584   9.667   6.828   0.065 -0.0592  0.3689  0.3472
 6928SOL    HW127585   9.661   6.729   0.078  0.2535  0.3358  0.2315
 6928SOL    HW227586   9.717   6.848  -0.019  1.5006  0.6472  1.3191
 6929SOL     OW27587   4.234   9.007   4.717  0.2679  0.1731 -0.4526
 6929SOL    HW127588   4.191   9.088   4.756 -0.6141 -0.2435 -0.5476
 6929SOL    HW227589   4.312   9.034   4.661  0.5861  0.8872  0.3318
 6930SOL     OW27590   3.523   3.611   1.449  0.0312 -0.1172 -0.3192
 6930SOL    HW127591   3.439   3.561   1.427 -0.7620  1.2490 -0.4524
 6930SOL    HW227592   3.566   3.642   1.365 -1.6902  2.9754 -0.1309
 6931SOL     OW27593   3.075   7.181   0.164 -0.0197 -0.6708 -0.3810
 6931SOL    HW127594   3.024   7.226   0.237  0.4427  0.1790 -0.5827
 6931SOL    HW227595   3.085   7.084   0.186 -1.9189 -0.9027 -0.4380
 6932SOL     OW27596   3.723   5.852   0.993  0.4482 -0.6484 -0.0169
 6932SOL    HW127597   3.735   5.951   1.008 -0.7414 -0.7462  1.6461
 6932SOL    HW227598   3.767   5.802   1.067 -0.7971 -1.3097  0.2700
 6934SOL     OW27599   5.190   3.800   1.829  0.4717 -0.6793 -0.3193
 6934SOL    HW127600   5.265   3.847   1.783  1.6353 -2.5342 -0.3489
 6934SOL    HW227601   5.137   3.748   1.762  0.1853 -0.7330 -0.0504
 6936SOL     OW27602   8.227   4.399   1.890 -0.4534 -0.4903  0.2040
 6936SOL    HW127603   8.190   4.427   1.802  0.0103 -3.2727 -0.9541
 6936SOL    HW227604   8.327   4.402   1.886 -0.4321 -0.5895  0.6516
 6939SOL     OW27605   8.901   5.521   5.209  0.5841  0.1703 -0.4363
 6939SOL    HW127606   8.849   5.521   5.124 -1.4692 -1.2127  0.7573
 6939SOL    HW227607   8.996   5.548   5.191  0.0183  0.5648 -3.0182
 6940SOL     OW27608   3.222   5.139   5.014 -0.0558  0.3196 -0.2720
 6940SOL    HW127609   3.261   5.231   5.017 -0.2642  0.3919  0.3718
 6940SOL    HW227610   3.169   5.127   4.931 -0.5363  0.9890 -0.0694
 6941SOL     OW27611   3.172   2.119   1.151  0.0653 -0.1269  0.2517
 6941SOL    HW127612   3.185   2.180   1.229 -0.2435  1.8450 -1.2133
 6941SOL    HW227613   3.181   2.171   1.066 -2.7651 -1.5713 -1.0098
 6942SOL     OW27614   6.425   7.319   4.237  0.3929 -0.0573 -0.2432
 6942SOL    HW127615   6.387   7.311   4.329 -0.1067  1.8238 -0.2770
 6942SOL    HW227616   6.514   7.365   4.242 -0.2608  1.2772 -0.8417
 6944SOL     OW27617   3.871   6.590   1.151  0.1635 -0.2052 -0.1587
 6944SOL    HW127618   3.785   6.636   1.131 -1.0482 -2.2928  0.0597
 6944SOL    HW227619   3.941   6.618   1.085 -1.7408 -1.3616 -2.7430
 6946SOL     OW27620   0.303   7.846   4.920 -0.5088 -0.5438  0.1298
 6946SOL    HW127621   0.388   7.813   4.962  0.7403  2.1865 -0.1350
 6946SOL    HW227622   0.301   7.818   4.824  0.0300 -0.7508  0.1740
 6948SOL     OW27623   8.034   9.993   4.066 -0.2909  0.5503 -0.4950
 6948SOL    HW127624   7.993   9.917   4.118  0.7531  0.4936  0.2627
 6948SOL    HW227625   8.063   9.961   3.976  0.2787  0.0145 -0.1205
 6949SOL     OW27626   6.709   2.148   3.705 -0.2834  0.3037  0.8218
 6949SOL    HW127627   6.679   2.220   3.768 -1.9101  0.6546 -0.3303
 6949SOL    HW227628   6.630   2.094   3.676  0.6566 -0.7504  0.1695
 6950SOL     OW27629   2.870   2.184   2.014  0.0469  0.0320  0.1260
 6950SOL    HW127630   2.794   2.227   2.062  0.9791  0.7218  1.0024
 6950SOL    HW227631   2.875   2.087   2.039 -0.5578 -0.0204  0.0451
 6951SOL     OW27632   6.840   8.842   3.815  0.0946  0.0507 -0.4697
 6951SOL    HW127633   6.910   8.788   3.860  2.1772 -0.4177 -4.0648
 6951SOL    HW227634   6.759   8.785   3.799 -0.4932  0.1106  2.1969
 6952SOL     OW27635   1.368   6.769   5.307  0.3782  0.9049 -0.9694
 6952SOL    HW127636   1.365   6.696   5.375  1.1923  1.8517  0.0982
 6952SOL    HW227637   1.348   6.731   5.217 -1.6262 -0.2159 -0.1019
 6953SOL     OW27638   4.116   1.542   4.733  0.5335 -0.0528  0.2368
 6953SOL    HW127639   4.112   1.540   4.833 -0.6883 -0.6356  0.1837
 6953SOL    HW227640   4.088   1.453   4.697 -0.4672  0.6146 -0.6596
 6955SOL     OW27641   7.393   8.609   4.405 -0.3457 -0.3534  0.1920
 6955SOL    HW127642   7.336   8.690   4.418 -0.6831 -0.6207  0.3676
 6955SOL    HW227643   7.336   8.527   4.405 -0.5346 -0.3199 -3.8848
 6956SOL     OW27644   6.996   3.133   1.068  0.0931  0.1611 -0.2739
 6956SOL    HW127645   6.966   3.155   0.975 -0.4959  0.2218 -0.0778
 6956SOL    HW227646   6.976   3.037   1.088  0.3864  0.1008 -0.2755
 6957SOL     OW27647   8.702   8.911   2.659 -0.3611 -0.0291 -0.8449
 6957SOL    HW127648   8.676   8.882   2.567  1.8841 -0.2899 -1.4252
 6957SOL    HW227649   8.754   8.838   2.703 -1.0830  0.2542  0.4893
 6959SOL     OW27650   0.502   9.532   2.784  0.3447  0.1685 -0.3880
 6959SOL    HW127651   0.573   9.462   2.797  0.0676 -0.2625 -1.1542
 6959SOL    HW227652   0.436   9.525   2.858  0.6785  0.0452 -0.0995
 6960SOL     OW27653   8.606   7.268   2.032  0.3255  0.2543 -0.1364
 6960SOL    HW127654   8.623   7.203   1.957  0.8701  0.4986 -0.2238
 6960SOL    HW227655   8.516   7.249   2.072  0.2938 -0.2743 -0.4483
 6962SOL     OW27656   9.146   4.164   3.880  0.4426 -0.2360  0.4888
 6962SOL    HW127657   9.193   4.205   3.958  0.2021  0.5307  0.2278
 6962SOL    HW227658   9.209   4.105   3.830  0.8359 -0.0448  0.7621
 6963SOL     OW27659   3.777   4.070   2.392  0.5783 -1.0032 -0.1021
 6963SOL    HW127660   3.682   4.039   2.398  0.7040 -1.7488 -1.6402
 6963SOL    HW227661   3.780   4.169   2.391 -0.1166 -0.9641  0.8242
 6964SOL     OW27662   8.403   1.895   3.237  0.0710 -0.0462 -0.9771
 6964SOL    HW127663   8.311   1.856   3.239  1.1416 -2.6725  0.2182
 6964SOL    HW227664   8.408   1.974   3.299 -0.9476 -0.9711  0.3146
 6965SOL     OW27665   1.157   3.675   2.114 -0.1417 -0.2584  0.2802
 6965SOL    HW127666   1.249   3.643   2.090 -1.1603 -2.3797 -0.9061
 6965SOL    HW227667   1.138   3.760   2.064  1.1115  0.1294  0.4367
 6966SOL     OW27668   9.042   7.484   0.359 -0.3673  0.2754  0.1269
 6966SOL    HW127669   9.105   7.415   0.395 -0.9566 -0.0608  0.5197
 6966SOL    HW227670   8.954   7.441   0.338 -0.5695  0.8039 -0.1216
 6967SOL     OW27671   1.574   5.648   3.130 -0.3617 -0.1728 -0.1072
 6967SOL    HW127672   1.536   5.620   3.042 -0.5936 -0.2531  0.0165
 6967SOL    HW227673   1.645   5.716   3.115  1.3807 -2.0408 -0.5127
 6968SOL     OW27674   1.288   2.015   0.194 -0.1356 -0.4118 -0.3903
 6968SOL    HW127675   1.202   1.964   0.195 -1.5584  1.8991 -0.3256
 6968SOL    HW227676   1.307   2.046   0.101 -1.0313  1.7164  0.1010
 6969SOL     OW27677   3.937   1.291   0.213 -0.7045 -0.8081 -0.1264
 6969SOL    HW127678   3.995   1.365   0.248 -1.2900 -0.9712  1.2446
 6969SOL    HW227679   3.885   1.323   0.134  1.7128 -0.8525 -1.7830
 6973SOL     OW27680   8.052   4.697   4.430 -0.0093 -0.3247 -0.0987
 6973SOL    HW127681   8.077   4.690   4.333 -2.2444 -0.5977 -0.6736
 6973SOL    HW227682   8.025   4.791   4.451  0.1429 -0.3439  0.1933
 6974SOL     OW27683   7.851   9.672   2.058 -0.4903 -0.4206 -0.2173
 6974SOL    HW127684   7.766   9.653   2.008 -0.5421 -2.0537  0.4592
 6974SOL    HW227685   7.829   9.723   2.141 -0.6631  0.2288 -0.6547
 6975SOL     OW27686   9.801   2.997   1.342  0.1242 -0.1071  0.0508
 6975SOL    HW127687   9.895   3.032   1.337  0.4876 -1.1664 -0.7558
 6975SOL    HW227688   9.749   3.029   1.263  0.2469 -0.7660 -0.3008
 6976SOL     OW27689   5.774   4.793   0.901 -0.2527  0.6390 -0.1096
 6976SOL    HW127690   5.802   4.698   0.897 -1.0410  0.2711  1.9845
 6976SOL    HW227691   5.683   4.803   0.860 -0.1715  0.4917 -0.3240
 6977SOL     OW27692   1.042   5.518   2.251  0.0533 -0.7442  0.0677
 6977SOL    HW127693   0.984   5.483   2.177 -0.5691  0.6299 -0.1190
 6977SOL    HW227694   1.044   5.618   2.246  2.9139 -0.7859 -0.2731
 6980SOL     OW27695   1.361   4.682   3.523  0.2146  0.3893 -0.1754
 6980SOL    HW127696   1.268   4.678   3.559  1.1080 -1.1844  2.0602
 6980SOL    HW227697   1.412   4.754   3.572  1.2338 -1.2960  1.3146
 6982SOL     OW27698   4.206   2.961   3.503  0.1222 -0.7023 -0.1522
 6982SOL    HW127699   4.238   2.910   3.423  1.5408 -1.6828  1.0309
 6982SOL    HW227700   4.184   2.897   3.576  0.3247  0.2904  0.7829
 6984SOL     OW27701   7.876   4.826   0.996 -0.1295  0.2826  0.2415
 6984SOL    HW127702   7.840   4.915   0.966  0.8755  0.8744  0.7348
 6984SOL    HW227703   7.801   4.761   1.004 -1.2733  1.7964  2.3970
 6985SOL     OW27704   1.893   0.361   4.873 -0.3084  0.4960 -0.0342
 6985SOL    HW127705   1.859   0.287   4.814  1.3787  0.2786 -0.7695
 6985SOL    HW227706   1.847   0.447   4.847 -1.9779 -0.1900  0.5533
 6986SOL     OW27707   7.601   1.237   4.719  0.4915 -0.2843 -0.4699
 6986SOL    HW127708   7.549   1.193   4.792  2.1595  0.4383  1.2193
 6986SOL    HW227709   7.572   1.332   4.710  1.2789  0.0437  0.2925
 6987SOL     OW27710   1.890   9.170   2.458  0.3783  0.1165 -0.9080
 6987SOL    HW127711   1.791   9.165   2.450  0.5196 -0.5604 -2.3946
 6987SOL    HW227712   1.921   9.262   2.436  0.0392  0.5096  0.2054
 6988SOL     OW27713   2.038   4.906   1.250 -0.1795  0.5568  0.1841
 6988SOL    HW127714   2.115   4.957   1.211  0.7624 -1.4272 -0.5751
 6988SOL    HW227715   1.991   4.856   1.178 -0.4652 -0.4819  1.0832
 6990SOL     OW27716   3.883   3.462   3.307 -0.2034  0.5096  0.4036
 6990SOL    HW127717   3.883   3.399   3.385  1.7288 -0.4934 -0.3459
 6990SOL    HW227718   3.934   3.420   3.231 -1.2288  1.8626 -1.0603
 6991SOL     OW27719   1.088   8.295   5.275 -0.0139 -0.5376  0.0583
 6991SOL    HW127720   1.010   8.246   5.237  0.0888 -1.5634  1.1608
 6991SOL    HW227721   1.063   8.337   5.362  1.1673 -2.4254  1.3361
 6992SOL     OW27722   8.964   7.705   1.084 -0.1300 -0.0659  0.5747
 6992SOL    HW127723   8.913   7.630   1.126 -0.0607  0.4306  1.5440
 6992SOL    HW227724   9.002   7.674   0.996  2.0131 -1.9638  2.0995
 6993SOL     OW27725   1.568   4.793   4.214 -0.9965  0.1837 -0.2376
 6993SOL    HW127726   1.665   4.815   4.225 -0.7819 -1.5977  1.6753
 6993SOL    HW227727   1.543   4.798   4.118  0.8641  1.2164 -0.6759
 6994SOL     OW27728   3.697   2.727   3.739  0.0675 -0.2791  0.1801
 6994SOL    HW127729   3.755   2.805   3.715 -0.1725 -0.4636 -1.0381
 6994SOL    HW227730   3.602   2.757   3.748  0.0775 -0.3083  0.3811
 6995SOL     OW27731   1.378   3.275   0.572 -0.7497 -0.0580  0.2438
 6995SOL    HW127732   1.454   3.330   0.540 -1.6469  1.6557  0.9969
 6995SOL    HW227733   1.405   3.179   0.576  0.8490  0.3347 -1.0197
 6996SOL     OW27734   5.568   9.843   3.959 -0.4982  0.5826 -0.3771
 6996SOL    HW127735   5.560   9.918   4.025 -1.9408  0.1718 -0.0652
 6996SOL    HW227736   5.664   9.815   3.952 -0.2739  0.9026  1.2493
 6997SOL     OW27737   8.251   2.720   3.123  0.0386 -0.1739  0.2077
 6997SOL    HW127738   8.231   2.646   3.059  0.6311 -0.1187 -0.0452
 6997SOL    HW227739   8.186   2.794   3.109 -1.2188 -1.0681  1.1711
 6998SOL     OW27740   1.002   7.737   2.683  0.2703  0.0459  0.1586
 6998SOL    HW127741   0.921   7.748   2.625  0.0248 -1.5034  0.1837
 6998SOL    HW227742   1.013   7.641   2.707  2.2429  0.2129  0.0108
 6999SOL     OW27743   7.226   3.659   0.671 -0.5513 -0.6985  0.1106
 6999SOL    HW127744   7.129   3.686   0.671 -0.4188 -0.1836 -0.6417
 6999SOL    HW227745   7.251   3.627   0.579  0.1654 -0.1768  0.1174
 7000SOL     OW27746   9.441   2.063   4.562  0.3701 -0.2223  0.5436
 7000SOL    HW127747   9.428   2.004   4.641 -0.3336 -1.6297 -0.5855
 7000SOL    HW227748   9.386   2.146   4.572  1.1189  0.1242  1.9928
 7001SOL     OW27749   2.366   5.119   0.703  0.5869  0.2971  0.0250
 7001SOL    HW127750   2.453   5.147   0.662  0.7556  0.3602  0.4324
 7001SOL    HW227751   2.377   5.109   0.801  0.2883 -0.3137 -0.0065
 7004SOL     OW27752   3.516   0.082   4.050  0.5679 -0.2167  0.4405
 7004SOL    HW127753   3.591   0.056   3.990  0.8932 -1.3148  1.3049
 7004SOL    HW227754   3.466   0.158   4.010  0.9670 -0.7358 -1.0686
 7006SOL     OW27755   9.264   8.217   1.815 -0.3229 -0.0216  0.3537
 7006SOL    HW127756   9.341   8.170   1.859  0.5823 -1.3266 -2.5306
 7006SOL    HW227757   9.297   8.301   1.771 -0.9345  0.4207  0.7213
 7007SOL     OW27758   0.666   9.687   1.257 -0.3493  0.4483  0.1046
 7007SOL    HW127759   0.580   9.733   1.233 -0.2879  1.1513  1.2144
 7007SOL    HW227760   0.680   9.691   1.356  0.0312 -1.3210  0.1380
 7008SOL     OW27761   4.460   8.603   2.543 -0.8192  0.6351  0.1510
 7008SOL    HW127762   4.392   8.530   2.555 -0.6869  0.3057 -1.0318
 7008SOL    HW227763   4.547   8.573   2.582 -0.8255  0.2434 -0.1261
 7009SOL     OW27764   7.797   0.710   2.559 -0.0608  0.2881 -0.1768
 7009SOL    HW127765   7.857   0.639   2.523 -0.5008 -0.0164 -0.3271
 7009SOL    HW227766   7.841   0.799   2.550  1.0723 -0.1202  1.3340
 7010SOL     OW27767   1.149   3.518   4.729 -0.4845 -0.4407 -0.0032
 7010SOL    HW127768   1.115   3.434   4.688  2.0830 -1.2684 -0.5343
 7010SOL    HW227769   1.154   3.508   4.829  0.8444 -1.3258 -0.1515
 7011SOL     OW27770   0.754   2.495   4.243  0.2004 -0.2864  0.3579
 7011SOL    HW127771   0.850   2.469   4.240 -0.3951 -2.4475 -1.7221
 7011SOL    HW227772   0.719   2.485   4.336  1.4417 -1.5394  0.6959
 7013SOL     OW27773   7.152   7.316   4.326 -0.2140  0.2581  0.1572
 7013SOL    HW127774   7.167   7.277   4.235 -0.4764  0.8974 -0.1592
 7013SOL    HW227775   7.129   7.242   4.390 -0.1907 -0.1743 -0.3279
 7014SOL     OW27776   1.100   6.031   2.422  0.4189 -0.4077 -0.0528
 7014SOL    HW127777   1.002   6.050   2.430  0.2528 -0.9762 -0.6749
 7014SOL    HW227778   1.118   5.983   2.336  1.2986  0.0377 -0.1235
 7015SOL     OW27779   6.768   7.468   2.663  0.5297  0.2302  0.2491
 7015SOL    HW127780   6.753   7.485   2.761  1.3391 -1.2198  0.6507
 7015SOL    HW227781   6.842   7.526   2.629  1.4139 -0.4903  0.9210
 7016SOL     OW27782   1.289   8.845   3.358 -0.0942  0.1897  0.2862
 7016SOL    HW127783   1.304   8.834   3.457  0.2772  0.3031  0.2436
 7016SOL    HW227784   1.370   8.813   3.309 -1.1135 -1.9473 -0.0959
 7017SOL     OW27785   1.619   2.755   2.050  0.1977 -0.3047 -0.4595
 7017SOL    HW127786   1.564   2.717   1.976  0.7486 -1.8778 -0.0732
 7017SOL    HW227787   1.678   2.827   2.013 -0.4255 -0.2209 -1.3168
 7018SOL     OW27788   6.353   1.970   2.902 -0.2564  0.2727 -0.0124
 7018SOL    HW127789   6.287   1.931   2.838  0.2614 -1.3562  0.3918
 7018SOL    HW227790   6.304   2.014   2.977 -0.9250 -1.0822  0.3836
 7019SOL     OW27791   1.321   5.341   1.823  0.2365  0.0157 -0.1261
 7019SOL    HW127792   1.364   5.358   1.735 -1.1136  1.4229 -0.5371
 7019SOL    HW227793   1.369   5.267   1.870  1.6374 -0.0099 -1.5592
 7021SOL     OW27794   4.571   5.743   1.034  0.2775  0.2707 -0.0353
 7021SOL    HW127795   4.532   5.665   0.984  0.9581 -0.4683  0.5858
 7021SOL    HW227796   4.497   5.793   1.079 -0.0872 -0.5180  0.2630
 7022SOL     OW27797   5.858   9.700   3.646 -0.4962 -0.1350  0.2502
 7022SOL    HW127798   5.824   9.613   3.680  1.1211 -1.9783 -2.6693
 7022SOL    HW227799   5.786   9.748   3.597 -1.2108 -0.0860  1.3315
 7024SOL     OW27800   8.299   1.648   5.194  0.7421  0.4182  0.0895
 7024SOL    HW127801   8.252   1.564   5.221 -0.8625  0.6467 -1.8641
 7024SOL    HW227802   8.373   1.626   5.130  0.5445  0.4495 -0.1511
 7028SOL     OW27803   2.245   4.482   2.392 -0.4775  0.2477 -0.0789
 7028SOL    HW127804   2.286   4.534   2.317 -1.5981  0.6019 -0.4616
 7028SOL    HW227805   2.221   4.390   2.359 -0.5555  0.2528 -0.0375
 7029SOL     OW27806   2.997   7.467   3.752  0.3951 -0.6819  0.3891
 7029SOL    HW127807   3.043   7.535   3.809  0.3840 -0.6328  0.3391
 7029SOL    HW227808   2.919   7.509   3.705  0.3753 -0.7345  0.3742
 7030SOL     OW27809   9.750   5.811   1.422 -0.1877  0.1345  0.0186
 7030SOL    HW127810   9.676   5.799   1.488  0.1972 -2.4214  0.0589
 7030SOL    HW227811   9.712   5.806   1.329 -0.6850  3.4164  0.0059
 7031SOL     OW27812   1.734   5.508   1.627 -0.3011  0.3711  0.0424
 7031SOL    HW127813   1.734   5.606   1.608 -1.3411  0.5856  1.0816
 7031SOL    HW227814   1.770   5.492   1.719  0.6182 -0.2885 -0.4250
 7032SOL     OW27815   4.040   9.231   3.458  0.1774 -0.0464  0.3415
 7032SOL    HW127816   3.944   9.203   3.464 -0.2534  1.4983  0.8610
 7032SOL    HW227817   4.072   9.217   3.364 -0.6174 -0.3848  0.1118
 7033SOL     OW27818   2.518   8.165   1.931 -0.4710 -0.8755 -0.0791
 7033SOL    HW127819   2.538   8.071   1.960  0.1916 -0.7746 -0.2056
 7033SOL    HW227820   2.572   8.186   1.849 -0.5029 -0.3299  0.0414
 7034SOL     OW27821   1.068   7.359   4.570  0.0971 -0.6470  0.0023
 7034SOL    HW127822   1.160   7.325   4.550  0.1412  0.2805 -1.4667
 7034SOL    HW227823   1.009   7.282   4.595  1.5011 -1.1272  1.9453
 7035SOL     OW27824   1.192   5.099   1.541 -0.3490 -0.7732 -0.6605
 7035SOL    HW127825   1.188   5.077   1.638  1.0181 -0.2325 -0.4804
 7035SOL    HW227826   1.272   5.055   1.500  0.1680  0.5956 -1.1328
 7036SOL     OW27827   5.429   0.664   4.143  0.4215  0.2848 -0.1806
 7036SOL    HW127828   5.470   0.674   4.234 -0.1907  0.3736  0.0873
 7036SOL    HW227829   5.479   0.594   4.092 -1.6056 -2.6148  1.6273
 7038SOL     OW27830   2.348   1.756   4.488 -0.1152 -0.1781 -0.2698
 7038SOL    HW127831   2.323   1.848   4.456  0.9874  0.7460  1.4581
 7038SOL    HW227832   2.302   1.738   4.575 -0.5043 -1.3767 -0.7122
 7039SOL     OW27833   5.762   8.873   2.466 -0.0298 -0.6920  0.4214
 7039SOL    HW127834   5.707   8.814   2.525 -0.0889 -2.1296 -1.0169
 7039SOL    HW227835   5.854   8.835   2.459  0.0025 -0.4818 -0.3115
 7040SOL     OW27836   3.145   0.200   2.954  0.1105  0.7170 -0.0581
 7040SOL    HW127837   3.078   0.190   3.028  0.4027 -1.2712 -0.0453
 7040SOL    HW227838   3.132   0.289   2.910 -1.9799  0.7182  0.4947
 7041SOL     OW27839   0.671   0.786   5.237 -0.0085  0.3648  0.0964
 7041SOL    HW127840   0.617   0.851   5.291 -1.4089 -0.2069 -0.5758
 7041SOL    HW227841   0.654   0.801   5.140 -0.8647 -1.4197 -0.0457
 7042SOL     OW27842   0.853   4.254   2.042 -0.0259  0.0808  0.0320
 7042SOL    HW127843   0.846   4.332   1.980  0.1296  0.2229  0.1947
 7042SOL    HW227844   0.761   4.223   2.066 -0.0908  0.7289  0.6202
 7043SOL     OW27845   8.920   5.870   1.275  0.0430  0.3111 -0.1677
 7043SOL    HW127846   8.932   5.866   1.176 -0.1955  1.1989 -0.2350
 7043SOL    HW227847   9.009   5.861   1.320 -0.0080 -1.6124 -0.4073
 7047SOL     OW27848   1.393   6.452   0.806  0.0047 -0.1798 -0.6172
 7047SOL    HW127849   1.405   6.355   0.785  0.2364 -0.2736 -0.0694
 7047SOL    HW227850   1.405   6.466   0.905 -0.3019  0.3620 -0.6564
 7048SOL     OW27851   0.714   8.822   3.914 -0.7510 -0.1046 -0.2140
 7048SOL    HW127852   0.719   8.744   3.851 -1.7865  1.0174 -1.6978
 7048SOL    HW227853   0.806   8.845   3.946 -0.0629  0.1030 -2.2926
 7049SOL     OW27854   4.376   2.734   0.035  0.4162 -0.3558  0.2351
 7049SOL    HW127855   4.291   2.783   0.054 -0.0611 -1.7451  1.8193
 7049SOL    HW227856   4.454   2.791   0.060 -0.0377  0.9404 -1.2650
 7050SOL     OW27857   4.843   9.219   1.505 -1.1646 -1.0613 -0.4501
 7050SOL    HW127858   4.910   9.234   1.432  0.9832 -1.0343  1.4726
 7050SOL    HW227859   4.831   9.303   1.557 -0.9631 -1.7102  0.6459
 7051SOL     OW27860   1.235   8.202   1.041  0.2242 -0.8017  0.0928
 7051SOL    HW127861   1.255   8.174   0.947  0.6051  0.2401 -0.1466
 7051SOL    HW227862   1.313   8.251   1.078 -0.3786 -0.1602  0.5327
 7052SOL     OW27863   9.532   5.162   2.773 -0.1893  0.2665 -0.1255
 7052SOL    HW127864   9.474   5.082   2.782  0.6864 -0.3916 -0.2287
 7052SOL    HW227865   9.476   5.244   2.760 -1.0590 -0.4189 -0.6687
 7053SOL     OW27866   2.969   1.537   0.751 -0.2266 -0.1629 -0.6309
 7053SOL    HW127867   2.994   1.553   0.656 -0.8255  0.7862 -0.6375
 7053SOL    HW227868   2.915   1.614   0.785  0.5739 -0.1573  0.6846
 7054SOL     OW27869   6.926   1.321   4.963  0.0324 -0.0310  0.2349
 7054SOL    HW127870   6.997   1.354   4.901 -1.0895 -0.2430 -1.1834
 7054SOL    HW227871   6.848   1.384   4.962 -0.3731 -0.5127  0.7421
 7056SOL     OW27872   0.282   4.612   4.295  0.0662 -0.1792 -0.0897
 7056SOL    HW127873   0.299   4.522   4.255  0.5456  0.3509 -1.0825
 7056SOL    HW227874   0.369   4.650   4.328 -0.1409 -0.0753  0.3481
 7057SOL     OW27875   7.370   7.368   5.052 -0.7333  0.3813 -0.4135
 7057SOL    HW127876   7.342   7.274   5.032  0.2176 -0.0236  0.1177
 7057SOL    HW227877   7.420   7.370   5.139  1.4386  0.9681 -1.6505
 7058SOL     OW27878   1.630   7.371   1.366  0.1898 -0.0347 -0.2970
 7058SOL    HW127879   1.687   7.389   1.285 -0.2717  1.1780 -0.3622
 7058SOL    HW227880   1.534   7.363   1.338  0.2146 -1.2270 -0.0701
 7059SOL     OW27881   5.999   9.843   1.568  0.4132 -0.4663 -1.1141
 7059SOL    HW127882   6.036   9.896   1.645 -0.2883 -1.9353  0.2769
 7059SOL    HW227883   5.947   9.903   1.508 -0.2639  0.4641  0.3707
 7060SOL     OW27884   5.862   1.620   1.980  0.5064 -0.3944 -0.0296
 7060SOL    HW127885   5.879   1.561   2.059 -2.0440  1.0100  1.6536
 7060SOL    HW227886   5.779   1.589   1.934 -0.2494  1.2105  0.2374
 7061SOL     OW27887   1.618   3.824   4.675  0.0482 -0.3751  0.1474
 7061SOL    HW127888   1.642   3.741   4.625  0.4339 -0.3415  0.2730
 7061SOL    HW227889   1.620   3.902   4.613  0.8952 -0.2770  0.2948
 7062SOL     OW27890   9.437   9.885   0.973  0.5060 -0.4999  0.2974
 7062SOL    HW127891   9.391   9.887   1.062  0.4660  0.0696  0.2631
 7062SOL    HW227892   9.380   9.836   0.907  0.3402 -0.5427  0.4723
 7063SOL     OW27893   3.980   3.599   0.782 -0.0831 -0.1853  0.4367
 7063SOL    HW127894   4.018   3.692   0.779 -0.3199 -0.0452  1.6275
 7063SOL    HW227895   4.025   3.543   0.714  0.5041  0.6457  0.1299
 7065SOL     OW27896   2.793   3.537   2.394  0.2764 -0.2643  0.1202
 7065SOL    HW127897   2.758   3.493   2.477 -0.7450 -1.1232 -0.7555
 7065SOL    HW227898   2.724   3.598   2.356  0.7158  0.0742 -0.1406
 7066SOL     OW27899   8.398   5.919   4.825  0.5813  0.4091  0.3447
 7066SOL    HW127900   8.380   5.963   4.912  0.9703  1.9908 -0.3661
 7066SOL    HW227901   8.497   5.912   4.810  0.5093  1.2612 -0.5298
 7068SOL     OW27902   0.809   8.461   0.025 -0.4812  0.0987 -0.4569
 7068SOL    HW127903   0.808   8.372  -0.019  1.6263  0.9513 -2.3304
 7068SOL    HW227904   0.720   8.505   0.016 -1.3056 -1.5166 -0.1438
 7069SOL     OW27905   0.811   5.583   4.068  0.6214  0.7937 -0.0885
 7069SOL    HW127906   0.757   5.666   4.054  2.8830  2.0557 -1.9485
 7069SOL    HW227907   0.903   5.608   4.097  1.2654 -1.0739 -0.4221
 7070SOL     OW27908   6.877   1.840   3.447  0.0731 -0.2775  0.0379
 7070SOL    HW127909   6.795   1.800   3.489 -0.5074  1.3932  0.5056
 7070SOL    HW227910   6.869   1.939   3.447  1.6603 -0.1488 -0.8379
 7072SOL     OW27911   9.682   0.046   1.468 -0.1259  0.5993 -0.3029
 7072SOL    HW127912   9.687  -0.027   1.536 -1.5365  1.1120  0.3570
 7072SOL    HW227913   9.772   0.088   1.457  1.1336 -2.3192 -1.9053
 7073SOL     OW27914   4.267   0.860   2.015 -0.5754 -0.2018  0.5048
 7073SOL    HW127915   4.206   0.908   2.078  0.1609  1.5483 -0.0786
 7073SOL    HW227916   4.233   0.868   1.922 -0.0554 -0.1648  0.3145
 7074SOL     OW27917   7.381   0.979   0.985 -0.2371  0.4861  0.0383
 7074SOL    HW127918   7.333   0.896   0.956 -1.5557  1.1353  0.3345
 7074SOL    HW227919   7.450   0.955   1.054  0.7132 -0.6187 -1.2718
 7076SOL     OW27920   8.442   1.714   0.665 -0.1369 -0.1628 -0.5151
 7076SOL    HW127921   8.386   1.752   0.739  0.5393  1.0050 -0.5852
 7076SOL    HW227922   8.382   1.674   0.595 -0.9522  2.0584 -1.1297
 7077SOL     OW27923   1.094   7.136   3.771 -0.4645  0.0822  1.2920
 7077SOL    HW127924   1.075   7.064   3.704 -0.6817  1.8507 -0.5841
 7077SOL    HW227925   1.010   7.161   3.818 -0.3347 -1.0813  2.1632
 7078SOL     OW27926   2.511   1.256   0.610  0.0071  0.0668  0.6810
 7078SOL    HW127927   2.423   1.219   0.638  0.4677 -1.6926 -0.1753
 7078SOL    HW227928   2.517   1.260   0.511  0.9916 -0.0544  0.7240
 7080SOL     OW27929   5.510   7.845   2.664  0.1741 -0.8211  0.0247
 7080SOL    HW127930   5.517   7.939   2.628  0.5686 -0.6156  0.6350
 7080SOL    HW227931   5.487   7.848   2.761 -1.6546 -1.3986 -0.3690
 7081SOL     OW27932   1.644   8.227   1.292  0.0093  0.2192  0.4062
 7081SOL    HW127933   1.639   8.285   1.373  1.8357  0.2049  0.5611
 7081SOL    HW227934   1.694   8.275   1.220 -1.2697  0.0809 -0.5890
 7082SOL     OW27935   6.831   9.733   3.297  0.1849 -0.6826  0.3837
 7082SOL    HW127936   6.896   9.675   3.248  0.5734 -1.5266  1.8672
 7082SOL    HW227937   6.816   9.696   3.388 -1.5100  0.1467  0.4642
 7083SOL     OW27938   2.991   9.704   3.447  1.0310  0.2444  0.0353
 7083SOL    HW127939   3.045   9.713   3.364  1.0189  1.0344  0.1098
 7083SOL    HW227940   3.002   9.786   3.503  0.1203  0.2166  0.2657
 7084SOL     OW27941   3.472   5.497   4.414 -0.3136  0.2881  0.3416
 7084SOL    HW127942   3.387   5.546   4.395  0.3711  0.6196 -2.0528
 7084SOL    HW227943   3.452   5.405   4.447 -1.5957  0.7700  0.9105
 7085SOL     OW27944   9.800   7.485   1.659 -1.0847  0.1807 -0.3349
 7085SOL    HW127945   9.857   7.527   1.730 -1.5639  1.3624 -0.6417
 7085SOL    HW227946   9.724   7.436   1.701 -0.4345 -0.5350  0.0307
 7086SOL     OW27947   3.261   1.325   3.210  0.7994  0.5556  0.1912
 7086SOL    HW127948   3.350   1.367   3.226  0.4095  1.8443 -0.9208
 7086SOL    HW227949   3.210   1.320   3.295  1.8812 -0.0780  0.8096
 7087SOL     OW27950   4.477   8.639   0.585  0.0108  0.4111 -0.6731
 7087SOL    HW127951   4.567   8.624   0.546 -0.4360  0.5480 -1.7851
 7087SOL    HW227952   4.434   8.550   0.605  0.2392  0.3393 -0.5098
 7088SOL     OW27953   8.610   4.106   3.921  0.7631 -0.1082 -0.1535
 7088SOL    HW127954   8.532   4.161   3.951  0.2000 -1.7727  1.5672
 7088SOL    HW227955   8.693   4.160   3.928 -0.0641  1.2380 -0.6353
 7090SOL     OW27956   5.252   0.946   1.172 -0.0416 -0.4997 -0.4803
 7090SOL    HW127957   5.175   0.900   1.218  1.2477 -1.3311  0.9021
 7090SOL    HW227958   5.286   0.888   1.098  0.6407 -1.1205  0.3136
 7091SOL     OW27959   3.100   6.365   2.604 -0.4859  0.0012 -0.6604
 7091SOL    HW127960   3.074   6.320   2.518  1.1028 -0.7521 -0.7551
 7091SOL    HW227961   3.126   6.460   2.586 -2.2435  0.4962 -0.6921
 7092SOL     OW27962   3.981   7.345   2.009 -0.3458  0.2877 -0.0463
 7092SOL    HW127963   3.884   7.360   1.990  0.2662  1.1224 -2.6845
 7092SOL    HW227964   4.010   7.260   1.965  0.4812  0.8622 -0.6196
 7093SOL     OW27965   3.723   5.417   0.902  0.1964 -0.0332  0.2494
 7093SOL    HW127966   3.684   5.331   0.935 -0.1392  0.0812  0.1535
 7093SOL    HW227967   3.817   5.425   0.933  0.5757 -0.9432 -0.6564
 7094SOL     OW27968   7.100   7.835   2.520 -0.4677 -0.3368  0.3190
 7094SOL    HW127969   7.116   7.893   2.440  0.1389 -1.0477 -0.0868
 7094SOL    HW227970   7.140   7.878   2.600 -1.1921  0.4444  0.2686
 7095SOL     OW27971   8.640   1.119   3.344 -0.3970 -0.0804  0.0047
 7095SOL    HW127972   8.570   1.167   3.291  1.6432  0.3853 -2.3642
 7095SOL    HW227973   8.690   1.185   3.400 -0.9194 -0.2020  0.6159
 7096SOL     OW27974   7.048   9.261   3.137 -0.2053 -0.3452 -0.2896
 7096SOL    HW127975   6.991   9.264   3.055  0.0562 -1.9349 -0.5561
 7096SOL    HW227976   7.012   9.192   3.200 -0.3181  0.7759  0.8662
 7097SOL     OW27977   1.280   5.907   4.581 -0.3600  0.0603  0.4132
 7097SOL    HW127978   1.375   5.909   4.612  0.3475 -0.5777 -1.6211
 7097SOL    HW227979   1.231   5.834   4.630  0.6333 -0.6908  0.3073
 7098SOL     OW27980   5.748   1.706   4.771  0.2213  0.0026  0.2445
 7098SOL    HW127981   5.768   1.794   4.814  1.1279  0.0604 -0.2807
 7098SOL    HW227982   5.651   1.686   4.779  0.4189 -0.2063  2.7668
 7099SOL     OW27983   1.280   8.897   0.124 -0.2248  0.4402 -0.1935
 7099SOL    HW127984   1.208   8.865   0.063  0.6249  0.9484 -1.4777
 7099SOL    HW227985   1.259   8.989   0.155  0.2704  0.9135 -1.2348
 7100SOL     OW27986   8.103   9.472   3.527 -0.0910 -0.1211  0.4093
 7100SOL    HW127987   8.043   9.548   3.504 -1.3917 -0.6880  1.8270
 7100SOL    HW227988   8.097   9.402   3.454  0.7812  0.9130 -0.6745
 7101SOL     OW27989   8.902   8.624   0.559  0.1541  0.5107  0.6739
 7101SOL    HW127990   8.826   8.689   0.565 -1.1041 -1.0192  1.7274
 7101SOL    HW227991   8.929   8.614   0.463 -0.8127  1.2507  0.3132
 7102SOL     OW27992   0.827   5.708   1.215 -0.0757 -0.2518  0.2964
 7102SOL    HW127993   0.766   5.701   1.294 -0.1265  0.0770  0.2855
 7102SOL    HW227994   0.775   5.732   1.134 -0.1190 -1.2160  0.0294
 7103SOL     OW27995   8.551   1.163   0.237 -0.5504  0.2361 -0.8272
 7103SOL    HW127996   8.576   1.129   0.146 -0.9299 -0.2529 -0.7502
 7103SOL    HW227997   8.454   1.186   0.238 -1.0029 -1.5876 -0.0023
 7104SOL     OW27998   4.383   1.826   4.514 -0.3535 -0.0668  0.4998
 7104SOL    HW127999   4.477   1.841   4.548 -0.4986 -0.4994  1.1166
 7104SOL    HW228000   4.338   1.914   4.502 -0.2237  0.1145  1.2497
 7105SOL     OW28001   3.705   2.099   4.933 -0.0982  0.3198 -0.2645
 7105SOL    HW128002   3.776   2.075   5.000 -0.0627 -1.2995 -0.8533
 7105SOL    HW228003   3.683   2.018   4.878 -0.9594  1.3380 -1.4357
 7106SOL     OW28004   7.888   0.387   1.624  0.4784 -0.3145 -0.0839
 7106SOL    HW128005   7.926   0.391   1.531  1.8551 -0.7905  0.4383
 7106SOL    HW228006   7.960   0.410   1.690 -0.7626  0.9999  0.8083
 7107SOL     OW28007   8.697   1.718   0.816 -0.4839  0.1868 -0.2316
 7107SOL    HW128008   8.763   1.642   0.819  0.0962  0.7440  1.8868
 7107SOL    HW228009   8.623   1.695   0.753 -0.3394 -2.1637  0.4114
 7109SOL     OW28010   1.068   2.113   4.660  0.6401 -0.7985  0.0512
 7109SOL    HW128011   1.134   2.040   4.675  0.3016 -0.8140  1.6130
 7109SOL    HW228012   0.981   2.074   4.630  0.7413 -0.9528 -0.0424
 7110SOL     OW28013   5.236   1.448   4.644  0.3437 -0.2850  0.5450
 7110SOL    HW128014   5.207   1.527   4.590  0.1669 -1.4738 -1.1372
 7110SOL    HW228015   5.301   1.393   4.592 -1.3457 -2.5271  0.7090
 7111SOL     OW28016   7.422   0.859   5.058  0.4731 -0.5420 -0.5580
 7111SOL    HW128017   7.395   0.903   4.972 -0.3482  1.7354  0.8013
 7111SOL    HW228018   7.352   0.794   5.086  1.7892 -2.9474 -2.6994
 7112SOL     OW28019   1.621   8.357   0.887  0.0806 -0.3675 -0.1856
 7112SOL    HW128020   1.564   8.284   0.847  0.1487 -0.3248 -0.3601
 7112SOL    HW228021   1.688   8.387   0.820  1.1007 -1.2541  0.4160
 7113SOL     OW28022   7.351   4.921   1.168  0.1489 -0.0478  0.1312
 7113SOL    HW128023   7.318   4.985   1.238  0.4987  1.4339 -1.0193
 7113SOL    HW228024   7.445   4.895   1.189  0.5764  1.1242 -0.2642
 7114SOL     OW28025   0.733   6.434   4.410  0.2947 -0.1688  0.0025
 7114SOL    HW128026   0.802   6.379   4.457 -0.7066  0.4834  2.3099
 7114SOL    HW228027   0.648   6.434   4.463 -0.2590  2.1920 -0.8168
 7115SOL     OW28028   1.392   8.352   2.397  0.0917 -0.2237  0.3518
 7115SOL    HW128029   1.443   8.309   2.471  1.3488 -1.6335 -1.2859
 7115SOL    HW228030   1.333   8.285   2.353 -0.5742  0.5772 -0.0066
 7116SOL     OW28031   3.345   2.198   0.286 -0.1651  0.5336  0.6517
 7116SOL    HW128032   3.433   2.191   0.335  0.1108 -1.4251 -0.1002
 7116SOL    HW228033   3.285   2.261   0.336  1.3806  1.2965  1.6027
 7117SOL     OW28034   2.026   8.401   2.253 -0.1404 -0.5603  0.1274
 7117SOL    HW128035   1.965   8.421   2.330  0.2698 -0.3651  0.4025
 7117SOL    HW228036   1.973   8.401   2.168 -0.6779 -1.2772  0.4651
 7118SOL     OW28037   3.172   7.698   3.348  0.1329  0.1103 -0.7698
 7118SOL    HW128038   3.183   7.703   3.249  0.8229  0.2821 -0.6883
 7118SOL    HW228039   3.089   7.647   3.370  1.4573 -2.3838 -1.4052
 7119SOL     OW28040   1.448   2.727   0.666 -0.1696  0.0154 -0.4532
 7119SOL    HW128041   1.355   2.704   0.694 -0.1836 -0.7289 -1.1075
 7119SOL    HW228042   1.495   2.645   0.633  0.1650  0.7052 -1.7082
 7120SOL     OW28043   5.213   4.478   3.705 -0.3935 -0.2746  0.0615
 7120SOL    HW128044   5.187   4.537   3.782 -0.5970  0.6644 -0.7256
 7120SOL    HW228045   5.185   4.521   3.619 -0.0609 -1.2695 -0.5455
 7121SOL     OW28046   5.767   0.363   4.255 -0.0059 -0.0080 -0.5301
 7121SOL    HW128047   5.706   0.377   4.177 -0.6601 -0.2569 -0.0681
 7121SOL    HW228048   5.852   0.413   4.240 -0.8246  1.3786 -0.6081
 7122SOL     OW28049   9.859   1.988   5.198 -0.4379  0.3286 -0.4879
 7122SOL    HW128050   9.842   1.910   5.258 -3.4015  0.4690 -1.0693
 7122SOL    HW228051   9.884   1.956   5.107 -0.6932  0.0794 -0.4696
 7123SOL     OW28052   2.937   9.824   0.735  0.3325 -0.3181  0.2045
 7123SOL    HW128053   3.022   9.867   0.703 -0.7191  1.1551 -0.6165
 7123SOL    HW228054   2.860   9.855   0.679 -0.7527 -1.7566  0.8501
 7124SOL     OW28055   7.816   5.880   0.294 -0.1596  0.2735  0.0078
 7124SOL    HW128056   7.856   5.832   0.216 -0.6408 -0.6601  0.3181
 7124SOL    HW228057   7.830   5.826   0.377 -0.7923  0.6165  0.3441
 7125SOL     OW28058   3.499   1.948   1.988 -0.2866 -0.8722  0.1489
 7125SOL    HW128059   3.481   1.870   2.048 -1.1357 -1.0377 -0.3153
 7125SOL    HW228060   3.530   2.025   2.044 -1.4491 -0.9051  0.8631
 7126SOL     OW28061   3.312   9.015   3.447 -0.0997  0.0054  0.1622
 7126SOL    HW128062   3.356   9.104   3.459 -1.1677  0.6614 -0.6937
 7126SOL    HW228063   3.234   9.024   3.384  0.6718 -1.8204 -1.0945
 7127SOL     OW28064   1.931   9.219   1.186 -0.0560  0.3598  0.2996
 7127SOL    HW128065   1.963   9.167   1.265  1.3608  1.0569  0.2169
 7127SOL    HW228066   2.008   9.272   1.149 -1.0075  0.9910 -0.7865
 7128SOL     OW28067   2.876   9.739   2.502  0.3290 -0.0661 -0.3943
 7128SOL    HW128068   2.962   9.735   2.450  0.6236  0.0949  0.0765
 7128SOL    HW228069   2.839   9.647   2.513 -0.4738  0.0342 -2.1079
 7129SOL     OW28070   1.997   3.315   2.658  0.0430 -0.3425  0.2050
 7129SOL    HW128071   1.947   3.253   2.596 -1.1149 -1.5085  2.2558
 7129SOL    HW228072   2.038   3.262   2.732  1.7911  0.9874  0.2122
 7132SOL     OW28073   3.952   1.066   4.760  0.0927  0.0933 -0.6527
 7132SOL    HW128074   4.046   1.033   4.750  0.4120  0.8037  0.0178
 7132SOL    HW228075   3.925   1.061   4.856 -0.1865  0.8769 -0.6886
 7133SOL     OW28076   4.388   7.859   4.160 -0.0036 -0.3568 -0.3702
 7133SOL    HW128077   4.371   7.958   4.154  0.0237 -0.2866  0.7683
 7133SOL    HW228078   4.486   7.841   4.151  0.4789  0.0487  3.3911
 7134SOL     OW28079   3.406   2.227   1.787  0.3076 -0.4810  0.0367
 7134SOL    HW128080   3.374   2.133   1.785  0.7378 -0.6060 -1.2400
 7134SOL    HW228081   3.505   2.229   1.802  0.3302 -0.2413 -0.1333
 7136SOL     OW28082   9.916   7.983   2.794 -0.3086  0.0337  0.3173
 7136SOL    HW128083   9.856   7.935   2.859 -0.6608  0.0672  0.0206
 7136SOL    HW228084   9.968   7.915   2.742  0.4277  0.0235  1.0575
 7137SOL     OW28085   4.233   0.719   1.734 -0.0137  0.3537 -0.0754
 7137SOL    HW128086   4.248   0.762   1.644 -0.1644  1.0227  0.2148
 7137SOL    HW228087   4.319   0.682   1.767  0.0300  0.0487 -0.5278
 7138SOL     OW28088   6.837   0.423   1.342  0.2458 -0.0646  0.5499
 7138SOL    HW128089   6.875   0.414   1.250 -0.6696 -1.8606  0.3366
 7138SOL    HW228090   6.868   0.509   1.382  0.0004  1.1399 -1.7382
 7140SOL     OW28091   7.668   3.908   0.306 -0.2309  0.3608  0.0187
 7140SOL    HW128092   7.736   3.879   0.374  0.7015  0.6745 -0.7692
 7140SOL    HW228093   7.576   3.894   0.343  0.2496 -0.5541  0.9018
 7141SOL     OW28094   9.704   8.549   2.377  0.0275  0.1958 -0.6874
 7141SOL    HW128095   9.784   8.598   2.342  0.2168  1.4710  1.3840
 7141SOL    HW228096   9.717   8.451   2.365  0.9073  0.5070 -2.3882
 7142SOL     OW28097   9.944   1.243   0.876  0.4352  0.4355  0.0990
 7142SOL    HW128098   9.864   1.191   0.904  0.1926  0.6046 -0.2699
 7142SOL    HW228099   9.951   1.326   0.931  0.1588  0.5909 -0.0935
 7143SOL     OW28100   5.024   9.992   3.215  0.0106 -0.2138 -0.0457
 7143SOL    HW128101   4.929  10.023   3.208  0.2668  0.1809 -2.0985
 7143SOL    HW228102   5.027   9.893   3.206 -0.1168 -0.1262 -1.1712
 7144SOL     OW28103   5.440   6.675   2.609 -0.2145  0.0416  0.4734
 7144SOL    HW128104   5.356   6.640   2.650 -0.0277 -0.3755  0.5049
 7144SOL    HW228105   5.486   6.602   2.559  0.5177  0.0776  1.0914
 7145SOL     OW28106   8.028   9.223   2.716  0.3769 -0.1104 -0.0024
 7145SOL    HW128107   8.126   9.240   2.721  0.4096 -0.4589  0.5559
 7145SOL    HW228108   7.989   9.223   2.808  0.5737 -4.1551  0.1616
 7146SOL     OW28109   8.355   4.846   2.334 -0.2969  0.6178 -0.1223
 7146SOL    HW128110   8.408   4.761   2.331 -1.5398 -0.1396 -1.5642
 7146SOL    HW228111   8.260   4.824   2.357 -0.5367  1.6605 -0.1027
 7147SOL     OW28112   5.313   8.402   5.036  0.1312  0.2718 -0.1123
 7147SOL    HW128113   5.370   8.442   4.965 -0.5623 -0.0622 -0.8793
 7147SOL    HW228114   5.256   8.330   4.995 -2.1253  1.8090  0.2610
 7148SOL     OW28115   1.696   9.547   4.162 -0.7481 -0.1228 -0.0228
 7148SOL    HW128116   1.666   9.457   4.131  1.8135 -1.5284  1.4208
 7148SOL    HW228117   1.653   9.568   4.250 -0.4434 -0.4381  0.1995
 7149SOL     OW28118   9.404   4.634   4.403 -0.0111 -0.3567 -0.2451
 7149SOL    HW128119   9.307   4.635   4.381  0.1832 -0.6505 -1.1597
 7149SOL    HW228120   9.424   4.558   4.466 -0.7495  1.1286  1.8165
 7150SOL     OW28121   8.154   6.305   1.939 -0.8190 -0.5967  0.3912
 7150SOL    HW128122   8.127   6.297   2.035  0.8842  0.1596  0.9521
 7150SOL    HW228123   8.152   6.401   1.911  0.7656 -0.5829  0.2985
 7151SOL     OW28124   8.532   6.052   2.012 -0.2145  0.2916  0.1960
 7151SOL    HW128125   8.623   6.011   2.010 -0.2681  0.0106  2.4800
 7151SOL    HW228126   8.526   6.125   1.944  1.2056 -0.7199 -1.0380
 7152SOL     OW28127   0.468   3.316   3.111  0.1806 -0.1333  0.2310
 7152SOL    HW128128   0.558   3.279   3.088 -0.4151 -2.5963  1.6661
 7152SOL    HW228129   0.472   3.358   3.202  0.3265  1.4411 -0.4940
 7153SOL     OW28130   1.197   2.136   2.818  0.0554  0.2476  0.5674
 7153SOL    HW128131   1.169   2.210   2.757  2.0929  0.1647 -0.5192
 7153SOL    HW228132   1.281   2.162   2.866 -1.1081  0.0127  2.8035
 7154SOL     OW28133   0.369   7.278   1.678  0.6353  0.4321  0.3361
 7154SOL    HW128134   0.398   7.284   1.583  1.0652 -0.1584  0.4286
 7154SOL    HW228135   0.361   7.182   1.705 -3.3783  0.5034 -0.3076
 7155SOL     OW28136   3.756   0.493   3.488 -0.1562 -0.2148 -0.1263
 7155SOL    HW128137   3.675   0.547   3.511 -0.1123 -0.4220  0.5264
 7155SOL    HW228138   3.826   0.507   3.558  0.7369  0.7152 -1.1983
 7157SOL     OW28139   1.458   0.244   2.380  0.7446 -0.0071 -0.2508
 7157SOL    HW128140   1.448   0.285   2.290 -0.5125  1.8512  0.7112
 7157SOL    HW228141   1.555   0.234   2.402  1.0485  0.7406 -1.2484
 7158SOL     OW28142   7.244   8.720   4.013 -0.5880 -0.1570  0.0831
 7158SOL    HW128143   7.263   8.818   4.010 -0.1890 -0.2298  0.2553
 7158SOL    HW228144   7.330   8.669   4.009 -0.7488 -0.4893  0.8096
 7159SOL     OW28145   1.151   3.689   4.061 -0.0768  0.8908 -0.0903
 7159SOL    HW128146   1.109   3.752   3.995 -1.3044 -1.3480 -1.4696
 7159SOL    HW228147   1.240   3.659   4.026  0.6598  2.0508  0.7219
 7160SOL     OW28148   1.539   2.129   2.450 -0.6132  0.3162  0.3120
 7160SOL    HW128149   1.630   2.166   2.469 -0.7075 -0.2137  1.8842
 7160SOL    HW228150   1.527   2.121   2.351 -0.2158  3.4883 -0.0417
 7163SOL     OW28151   9.662   7.573   0.360  0.9193 -0.0397  0.1269
 7163SOL    HW128152   9.703   7.497   0.411  0.1196 -0.7194 -0.2391
 7163SOL    HW228153   9.650   7.652   0.422  1.8311 -0.1693  0.4825
 7164SOL     OW28154   1.269   1.020   0.512  0.0511  0.2327  0.6115
 7164SOL    HW128155   1.227   1.047   0.426  2.1656  3.0728  0.3965
 7164SOL    HW228156   1.206   1.038   0.588 -0.0914  2.0441  0.0707
 7165SOL     OW28157   3.083   4.913   5.113  0.3018  0.1956 -0.8016
 7165SOL    HW128158   3.143   4.991   5.095  0.6587 -0.2808 -1.7297
 7165SOL    HW228159   3.045   4.880   5.027  0.7196 -1.0935 -0.5081
 7169SOL     OW28160   9.669   1.378   2.814 -0.6541 -0.3128 -0.6051
 7169SOL    HW128161   9.653   1.465   2.769 -1.9620 -2.4054 -4.4166
 7169SOL    HW228162   9.750   1.334   2.775 -0.5746 -1.2561  0.5849
 7170SOL     OW28163   3.598   2.486   1.012  0.0173  0.1694  0.8689
 7170SOL    HW128164   3.610   2.480   0.913 -0.7734  0.9174  0.7267
 7170SOL    HW228165   3.652   2.414   1.056  0.8415  0.2054 -0.0664
 7171SOL     OW28166   1.598   3.396   1.580 -0.3837  0.2748  0.1236
 7171SOL    HW128167   1.630   3.487   1.554  0.1369  0.1741  0.4051
 7171SOL    HW228168   1.582   3.393   1.679 -1.3751  0.3573 -0.0302
 7172SOL     OW28169   6.852   0.929   5.271  0.4203  0.6804  0.4624
 7172SOL    HW128170   6.774   0.883   5.314  0.6641  0.6435  0.8715
 7172SOL    HW228171   6.829   1.024   5.251 -0.0853  0.3844 -0.3809
 7173SOL     OW28172   4.069   1.097   1.454 -0.6199  0.4110  0.3021
 7173SOL    HW128173   4.056   1.138   1.364  0.3895  1.4286  0.6130
 7173SOL    HW228174   4.019   1.149   1.522  0.1976  0.8088  0.6096
 7174SOL     OW28175   3.740   7.789   4.291  0.1815  0.2029 -0.8586
 7174SOL    HW128176   3.827   7.800   4.244 -0.3230  2.2398 -1.3730
 7174SOL    HW228177   3.736   7.851   4.369  0.4662 -2.1915  1.1238
 7176SOL     OW28178   4.509   8.006   2.548  0.4478 -0.2636  0.3888
 7176SOL    HW128179   4.501   7.973   2.642  0.0032 -0.8912  0.1361
 7176SOL    HW228180   4.592   8.060   2.538  1.1112 -1.2031  0.8420
 7177SOL     OW28181   9.448   5.432   3.155  0.1991 -0.2178 -0.6787
 7177SOL    HW128182   9.496   5.368   3.095 -0.4039  0.0691 -1.4762
 7177SOL    HW228183   9.370   5.471   3.106 -0.9672 -0.8184  0.6712
 7178SOL     OW28184   0.032   8.731   1.015 -0.3313 -0.4778  0.4144
 7178SOL    HW128185   0.092   8.785   1.075 -0.2115 -0.3548  0.1857
 7178SOL    HW228186   0.087   8.688   0.943 -0.6878  0.6998 -0.5772
 7181SOL     OW28187   8.733   4.535   4.964 -0.0839 -0.6562 -0.2290
 7181SOL    HW128188   8.637   4.506   4.966 -0.4292  0.6006  2.1029
 7181SOL    HW228189   8.738   4.633   4.949  0.7582 -0.3450  1.9908
 7182SOL     OW28190   4.501   5.499   0.899  0.0663 -0.5505  0.4353
 7182SOL    HW128191   4.449   5.519   0.816 -0.4072 -0.9881  0.6259
 7182SOL    HW228192   4.577   5.438   0.877 -0.5825 -1.3794  0.4770
 7183SOL     OW28193   8.547   1.348   5.244 -0.1312  0.0804 -0.2228
 7183SOL    HW128194   8.475   1.338   5.313 -0.4940  1.9177 -0.3300
 7183SOL    HW228195   8.506   1.359   5.154  0.3311 -0.6823 -0.5401
 7185SOL     OW28196   9.825   4.093   3.363 -0.5277 -0.5004  0.8114
 7185SOL    HW128197   9.902   4.143   3.402  0.4546 -0.9386 -0.5254
 7185SOL    HW228198   9.778   4.041   3.435  0.6440 -0.5171  1.5703
 7187SOL     OW28199   1.234   9.557   1.674 -0.5046 -0.4376 -1.0668
 7187SOL    HW128200   1.264   9.518   1.587  0.2442 -1.3780 -0.4067
 7187SOL    HW228201   1.303   9.539   1.744 -1.2262  0.0589 -0.2125
 7189SOL     OW28202   4.111   1.805   1.964  0.7046  0.1125  0.9586
 7189SOL    HW128203   4.012   1.799   1.953  0.9231  0.0463 -1.1847
 7189SOL    HW228204   4.154   1.731   1.912  2.0426  2.2818 -1.0802
 7190SOL     OW28205   8.933   1.635   2.163  0.3842  0.3717  0.3365
 7190SOL    HW128206   8.958   1.542   2.189  0.9201  1.0329  2.2523
 7190SOL    HW228207   8.986   1.663   2.082  1.3244 -0.4508  0.6642
 7191SOL     OW28208   9.770   7.937   0.929  0.3654  0.7145  0.4083
 7191SOL    HW128209   9.810   7.889   1.007  1.7789  0.1636 -0.6386
 7191SOL    HW228210   9.803   8.032   0.928  3.4315 -0.3063 -1.6572
 7192SOL     OW28211   9.730   6.952   3.235 -0.3289 -0.4034  0.8179
 7192SOL    HW128212   9.633   6.975   3.230 -0.1076  0.2672 -0.7856
 7192SOL    HW228213   9.740   6.855   3.257 -1.3530 -0.4160  1.2655
 7194SOL     OW28214   0.415   1.985   0.344 -0.3132 -0.1143 -0.3110
 7194SOL    HW128215   0.396   2.077   0.311 -0.8971 -0.3198 -0.5448
 7194SOL    HW228216   0.368   1.970   0.431 -0.7701 -0.4273 -0.6115
 7195SOL     OW28217   4.623   3.706   0.414  0.4308 -0.5357 -0.0257
 7195SOL    HW128218   4.533   3.716   0.456 -0.2781 -1.4493 -1.2688
 7195SOL    HW228219   4.675   3.636   0.463  0.7152  0.4462  1.0872
 7196SOL     OW28220   8.491   4.154   4.829 -0.0503 -0.4858 -0.1811
 7196SOL    HW128221   8.456   4.135   4.920  0.4540 -0.0479  0.1084
 7196SOL    HW228222   8.415   4.176   4.768 -0.1268  3.0790  1.0900
 7198SOL     OW28223   5.388   9.824   1.820 -0.5680 -0.1018  0.4568
 7198SOL    HW128224   5.310   9.844   1.761 -0.2617 -2.7141 -0.8638
 7198SOL    HW228225   5.372   9.739   1.870  0.4147  0.5996  2.0152
 7201SOL     OW28226   7.911   8.312   3.680  0.3222 -0.0635 -0.2077
 7201SOL    HW128227   7.921   8.364   3.595 -0.4056  0.5966  0.1103
 7201SOL    HW228228   7.817   8.281   3.689  0.8716 -1.9587 -0.6877
 7202SOL     OW28229   6.956   0.579   0.809  0.5134 -0.3199 -0.1151
 7202SOL    HW128230   6.919   0.643   0.741  0.7601 -0.0483  0.0063
 7202SOL    HW228231   7.037   0.619   0.852 -0.7000  0.2783  1.6423
 7203SOL     OW28232   8.068   0.578   4.119  0.0791 -0.1669  0.3192
 7203SOL    HW128233   8.149   0.636   4.112 -0.7084  0.6838 -2.4567
 7203SOL    HW228234   8.095   0.483   4.137  1.7019  0.0516 -0.9688
 7205SOL     OW28235   5.550   8.340   4.484 -0.3883 -0.1600  0.2499
 7205SOL    HW128236   5.578   8.434   4.462  0.6070 -0.1476  1.5189
 7205SOL    HW228237   5.496   8.303   4.408 -3.3890  2.4772  0.9694
 7206SOL     OW28238   7.194   2.687   2.951  0.3235 -0.4166 -0.1310
 7206SOL    HW128239   7.208   2.724   2.859 -0.7593 -4.0190 -1.8260
 7206SOL    HW228240   7.281   2.650   2.985  0.6693  0.7047  0.2386
 7207SOL     OW28241   1.872   4.344   2.345  0.1102  0.5184  0.9524
 7207SOL    HW128242   1.789   4.366   2.396 -1.0537 -0.9488 -0.2691
 7207SOL    HW228243   1.938   4.300   2.406 -0.5708  0.3831  1.5941
 7208SOL     OW28244   3.921   8.581   5.305  0.2935  1.0004 -0.2366
 7208SOL    HW128245   3.858   8.595   5.229  0.5469 -0.1916 -0.6711
 7208SOL    HW228246   3.899   8.645   5.378 -2.3393 -0.3661  0.2258
 7211SOL     OW28247   6.523   2.031   4.613 -0.4475  0.4821 -0.2323
 7211SOL    HW128248   6.496   2.109   4.670 -1.2814 -0.3247  0.5025
 7211SOL    HW228249   6.571   1.964   4.670 -3.3307 -1.4024  0.1069
 7212SOL     OW28250   4.057   9.270   1.630  0.3123  0.4754 -0.1426
 7212SOL    HW128251   4.129   9.223   1.681  0.3991 -0.1571 -0.8454
 7212SOL    HW228252   3.980   9.207   1.615  1.1294  0.0243 -2.5526
 7213SOL     OW28253   3.241   0.084   2.699  0.2713 -0.3063 -0.1145
 7213SOL    HW128254   3.191   0.006   2.661 -0.4263  0.6351 -1.1814
 7213SOL    HW228255   3.196   0.116   2.782 -1.0220  0.6435 -1.1660
 7214SOL     OW28256   1.910   5.750   3.260  0.3007 -0.2166 -0.2933
 7214SOL    HW128257   1.867   5.710   3.179 -0.9969  0.2714  0.1447
 7214SOL    HW228258   1.843   5.804   3.310  1.0679 -0.5839  1.1581
 7216SOL     OW28259   6.728   9.681   2.607 -0.2545  0.3778 -0.0198
 7216SOL    HW128260   6.790   9.756   2.630  0.0701  0.0653  0.1477
 7216SOL    HW228261   6.748   9.649   2.515 -0.1229  0.2335  0.0587
 7217SOL     OW28262   9.832   8.343   1.315  0.4349  0.6656 -0.4426
 7217SOL    HW128263   9.926   8.314   1.333  0.5354  0.2640 -1.5410
 7217SOL    HW228264   9.771   8.264   1.317 -0.0056  1.0240  0.9759
 7218SOL     OW28265   0.278   5.174   4.008 -0.4620  0.3865 -0.0230
 7218SOL    HW128266   0.318   5.161   3.917  0.8443  1.8255  0.3217
 7218SOL    HW228267   0.319   5.254   4.051 -1.3259 -0.0798  1.7070
 7219SOL     OW28268   1.772   7.986   2.788  0.3510 -0.4413  0.6901
 7219SOL    HW128269   1.808   7.912   2.845  2.1092  0.4895  0.8309
 7219SOL    HW228270   1.673   7.980   2.784  0.1657 -0.5855  3.8403
 7221SOL     OW28271   1.779   3.375   2.394 -0.6918 -0.1227 -1.0221
 7221SOL    HW128272   1.704   3.350   2.333 -1.9957 -0.8113  0.8167
 7221SOL    HW228273   1.836   3.294   2.411 -1.5225 -0.4485  0.2804
 7225SOL     OW28274   5.035   4.029   3.352 -0.1135  0.4802  0.2773
 7225SOL    HW128275   5.080   3.963   3.291 -1.2797 -0.2470  0.1799
 7225SOL    HW228276   4.937   4.029   3.334 -0.7217 -0.9089  3.1807
 7226SOL     OW28277   7.522   0.008   3.256 -0.0552 -0.3666  0.1085
 7226SOL    HW128278   7.592   0.030   3.188  0.6762  0.0218  0.9724
 7226SOL    HW228279   7.556  -0.061   3.319 -0.8708 -1.0064 -0.1497
 7227SOL     OW28280   8.781   7.181   4.424 -0.2809 -0.4937  0.2286
 7227SOL    HW128281   8.725   7.190   4.506  0.6297 -0.7414  0.8873
 7227SOL    HW228282   8.866   7.231   4.437 -0.6600  0.4997 -1.0549
 7228SOL     OW28283   4.141   7.241   3.629  0.3417  0.2077  0.6642
 7228SOL    HW128284   4.049   7.201   3.627  0.2411  0.4306  0.8809
 7228SOL    HW228285   4.135   7.340   3.618  0.6320  0.1082 -0.4785
 7229SOL     OW28286   9.216   5.902   3.001  0.7983 -0.2494  0.5641
 7229SOL    HW128287   9.250   5.993   2.977  0.9234  0.2728  2.6199
 7229SOL    HW228288   9.294   5.840   3.010  0.9406  0.0529  1.5788
 7230SOL     OW28289   6.810   7.409   3.398 -0.1046  0.1486 -0.4288
 7230SOL    HW128290   6.836   7.348   3.473 -0.9584 -2.1974 -1.9957
 7230SOL    HW228291   6.736   7.469   3.428  0.3419  0.0395  0.9429
 7233SOL     OW28292   2.926   3.390   3.872 -0.3642  0.1439 -0.1352
 7233SOL    HW128293   2.846   3.345   3.910  0.1833  0.6126  1.5875
 7233SOL    HW228294   2.910   3.489   3.869  0.2016  0.2478  0.3187
 7234SOL     OW28295   2.193   6.355   4.096  0.5538 -0.0358  0.0504
 7234SOL    HW128296   2.211   6.452   4.079 -0.0087  0.1950  0.7284
 7234SOL    HW228297   2.233   6.300   4.024 -0.4996  0.8084 -1.2017
 7236SOL     OW28298   4.772   6.031   2.240 -0.1756 -0.0576  0.1962
 7236SOL    HW128299   4.708   5.964   2.201  0.2647 -0.5270  0.2774
 7236SOL    HW228300   4.720   6.105   2.282 -0.6591  0.0302 -0.5471
 7237SOL     OW28301   1.343   4.492   0.894 -0.0972 -0.3110  0.0176
 7237SOL    HW128302   1.349   4.398   0.928 -2.8008 -0.6346 -0.3375
 7237SOL    HW228303   1.410   4.549   0.943 -0.5182 -1.7849  2.4042
 7238SOL     OW28304   0.982   8.913   0.907 -0.4388 -0.1785 -0.2565
 7238SOL    HW128305   1.078   8.883   0.909 -0.4191 -0.4440 -2.8575
 7238SOL    HW228306   0.972   8.997   0.960  1.3006 -0.0264 -0.1358
 7239SOL     OW28307   2.041   4.579   4.309 -0.0223  0.4871  0.2867
 7239SOL    HW128308   1.952   4.541   4.334  0.4407 -0.5255  0.4333
 7239SOL    HW228309   2.109   4.549   4.375  0.0783  2.8743  1.2819
 7240SOL     OW28310   3.867   8.291   1.124 -0.1939  0.3679 -0.1034
 7240SOL    HW128311   3.946   8.310   1.182  0.0279 -0.0295 -0.2708
 7240SOL    HW228312   3.895   8.296   1.028  0.1660 -1.9492 -0.1597
 7241SOL     OW28313   0.218   5.326   2.781 -0.2356  0.0517  0.2017
 7241SOL    HW128314   0.141   5.268   2.808 -0.3850  0.6101  0.9909
 7241SOL    HW228315   0.297   5.306   2.840  0.1226 -0.2767 -0.3814
 7242SOL     OW28316   1.540   2.017   1.685  0.1442  0.6528 -0.1598
 7242SOL    HW128317   1.588   2.034   1.599  1.6863  1.9775  0.9291
 7242SOL    HW228318   1.450   2.061   1.683 -1.1799 -1.9714 -2.2721
 7243SOL     OW28319   8.987   5.824   4.691 -0.1717 -0.2174 -0.5250
 7243SOL    HW128320   9.086   5.822   4.672  0.0546 -1.4589  0.6484
 7243SOL    HW228321   8.942   5.886   4.627  1.2595 -0.2512 -1.6070
 7244SOL     OW28322   3.490   7.221   2.758 -0.2095 -0.0752 -0.5545
 7244SOL    HW128323   3.516   7.245   2.664 -1.4127 -0.2152 -0.9286
 7244SOL    HW228324   3.392   7.202   2.762  0.1797 -2.0560  0.3167
 7245SOL     OW28325   7.397   3.119   1.878 -0.1054  0.4440 -0.0793
 7245SOL    HW128326   7.339   3.044   1.908 -0.9659  0.8928 -0.5951
 7245SOL    HW228327   7.435   3.166   1.958 -0.9650  0.5388  0.2822
 7246SOL     OW28328   0.800   4.873   0.111  0.0149  0.3550 -0.4302
 7246SOL    HW128329   0.887   4.837   0.079  0.4666  2.1840 -1.3412
 7246SOL    HW228330   0.800   4.876   0.211 -0.8040 -3.9109 -0.1951
 7247SOL     OW28331   4.267   0.164   2.056 -0.1128  0.3866 -0.1637
 7247SOL    HW128332   4.313   0.076   2.070  0.0857  0.7122  1.3704
 7247SOL    HW228333   4.312   0.234   2.112 -0.9508  1.2327 -0.5344
 7249SOL     OW28334   2.500   0.439   4.019 -0.3137  0.0248 -0.1688
 7249SOL    HW128335   2.461   0.368   4.079  0.0625  0.9098  1.1606
 7249SOL    HW228336   2.430   0.507   3.999 -0.7533 -0.8734 -1.6817
 7250SOL     OW28337   6.854   4.289   1.226  0.1521  0.4906 -0.2625
 7250SOL    HW128338   6.831   4.329   1.315  1.4585  1.4022 -0.3297
 7250SOL    HW228339   6.809   4.342   1.154 -2.4193 -1.3385 -0.0843
 7251SOL     OW28340   3.257   9.568   4.283  0.7857 -0.0730 -0.0128
 7251SOL    HW128341   3.212   9.545   4.196  3.8178 -0.7144 -1.4966
 7251SOL    HW228342   3.224   9.506   4.354 -0.1668 -0.9534 -1.1811
 7252SOL     OW28343   1.849   0.008   1.244 -0.2434  0.0331 -0.6525
 7252SOL    HW128344   1.949   0.003   1.243 -0.3666 -3.1358 -1.4706
 7252SOL    HW228345   1.818   0.065   1.167  0.8780  0.1408 -1.0375
 7253SOL     OW28346   4.884   0.632   2.481  0.2276  0.4543  0.0364
 7253SOL    HW128347   4.871   0.576   2.564 -2.8064  1.3292  0.2160
 7253SOL    HW228348   4.817   0.605   2.413 -0.2450  2.8319 -0.4516
 7254SOL     OW28349   7.998   4.882   5.124 -0.6720  0.2594 -0.2021
 7254SOL    HW128350   7.986   4.864   5.222 -3.1056  0.7864 -0.3823
 7254SOL    HW228351   8.030   4.799   5.079 -3.8997 -1.3657  0.3248
 7255SOL     OW28352   1.241   7.583   3.779  0.2672 -0.4957  0.3782
 7255SOL    HW128353   1.153   7.563   3.736 -0.7837  2.6819  0.9492
 7255SOL    HW228354   1.228   7.599   3.877  1.5440 -0.3428  0.5346
 7256SOL     OW28355   4.612   9.959   0.743  0.3450  0.3098 -0.0953
 7256SOL    HW128356   4.518   9.993   0.738 -0.2245 -1.2700 -0.5116
 7256SOL    HW228357   4.613   9.872   0.792  1.7366  0.8071  0.7729
 7257SOL     OW28358   9.460   3.654   2.113 -0.1252 -0.4086  0.2166
 7257SOL    HW128359   9.501   3.739   2.147 -0.4075 -1.0782  2.3245
 7257SOL    HW228360   9.520   3.614   2.043  0.2310  1.2694 -0.4663
 7258SOL     OW28361   8.205   8.196   4.257 -0.0458 -0.0356  0.6819
 7258SOL    HW128362   8.209   8.150   4.346 -0.7922  0.0174  0.7495
 7258SOL    HW228363   8.160   8.135   4.191  2.8376 -1.1310 -0.3293
 7259SOL     OW28364   8.332   1.114   4.654  0.3359  0.0292 -0.2326
 7259SOL    HW128365   8.343   1.213   4.657 -0.1608  0.1412 -1.6521
 7259SOL    HW228366   8.375   1.073   4.734 -1.4840  1.5731  1.5826
 7260SOL     OW28367   8.428   5.452   3.921  0.4820  0.3501  0.0150
 7260SOL    HW128368   8.464   5.461   4.013 -0.3429  1.2603  0.2513
 7260SOL    HW228369   8.418   5.542   3.879  2.6445 -0.1551 -1.6725
 7261SOL     OW28370   2.822   3.929   0.947  0.6664  0.7142  0.2006
 7261SOL    HW128371   2.896   3.929   1.014 -0.1896 -1.7581  1.2122
 7261SOL    HW228372   2.858   3.955   0.857  2.2896  1.6969  1.1015
 7262SOL     OW28373   0.366   3.809   4.990  0.2660  0.5781 -0.5514
 7262SOL    HW128374   0.464   3.789   5.002 -0.2564 -0.9414  1.4821
 7262SOL    HW228375   0.345   3.811   4.892  2.2423  0.4825 -1.0193
 7263SOL     OW28376   2.924   4.437   3.275  0.5101  0.2547  0.1058
 7263SOL    HW128377   2.960   4.344   3.283  0.1091 -0.0208 -1.1333
 7263SOL    HW228378   2.919   4.479   3.366  1.7185 -0.5408  0.5477
 7264SOL     OW28379   7.943   3.312   1.111  0.0413  0.2476  0.5763
 7264SOL    HW128380   8.038   3.296   1.138  0.1400 -2.4431 -1.2223
 7264SOL    HW228381   7.882   3.271   1.178  0.1047  1.7299  1.5798
 7267SOL     OW28382   2.899   9.681   4.708 -0.0047  0.5689  0.2433
 7267SOL    HW128383   2.948   9.707   4.625 -0.3618  2.0860  0.5027
 7267SOL    HW228384   2.800   9.687   4.692 -0.0881 -0.1424  0.4674
 7268SOL     OW28385   3.275   8.061   3.203 -0.0880  0.9890  0.3247
 7268SOL    HW128386   3.314   8.029   3.117 -1.3313  1.1604 -0.3069
 7268SOL    HW228387   3.233   7.984   3.251 -1.7119  1.3527 -0.4701
 7269SOL     OW28388   8.985   8.491   4.255  0.5174 -0.2174  0.1981
 7269SOL    HW128389   8.893   8.453   4.269  0.0049  0.5248 -1.0248
 7269SOL    HW228390   9.031   8.439   4.182  0.7294 -0.0148  0.1894
 7270SOL     OW28391   8.241   0.205   2.392  0.0939 -0.1113  0.0893
 7270SOL    HW128392   8.295   0.121   2.394 -0.7903 -0.6771  0.1751
 7270SOL    HW228393   8.293   0.279   2.436 -0.1173 -1.2212  2.3077
 7271SOL     OW28394   7.946   0.315   3.929 -0.2437 -0.1210 -0.0832
 7271SOL    HW128395   7.891   0.258   3.991 -1.5855 -0.0003 -1.1220
 7271SOL    HW228396   7.913   0.409   3.932  1.2749  0.3981  0.8224
 7272SOL     OW28397   8.657   4.417   4.312  0.5143 -0.1229 -0.4798
 7272SOL    HW128398   8.656   4.446   4.407 -0.1369  0.3187 -0.6165
 7272SOL    HW228399   8.639   4.318   4.307 -2.9223  0.4179 -0.3166
 7273SOL     OW28400   4.976   3.348   2.532 -0.2049 -0.0233  0.0859
 7273SOL    HW128401   5.009   3.435   2.495 -1.2963  0.5521  0.4256
 7273SOL    HW228402   4.998   3.343   2.629  1.2337 -0.8223 -0.2685
 7274SOL     OW28403   8.409   0.710   0.687  0.3464  0.7266 -0.0490
 7274SOL    HW128404   8.342   0.739   0.619  0.7348  0.1862 -0.6691
 7274SOL    HW228405   8.492   0.765   0.679  1.4731 -1.1750 -1.9008
 7275SOL     OW28406   0.267   9.304   2.470  0.0311  0.0662 -0.0212
 7275SOL    HW128407   0.350   9.259   2.502  0.8959  2.9181  1.9001
 7275SOL    HW228408   0.206   9.321   2.547 -0.6371  1.4373 -0.8372
 7276SOL     OW28409   8.436   3.138   0.573  0.7911  0.4508 -0.7659
 7276SOL    HW128410   8.443   3.076   0.495  1.8239  0.5681 -0.7663
 7276SOL    HW228411   8.498   3.109   0.645  1.6409  1.7609 -0.9631
 7279SOL     OW28412   3.288   4.017   1.686  0.0921  0.3294 -0.1349
 7279SOL    HW128413   3.349   3.975   1.619 -0.2566 -0.8576  0.2780
 7279SOL    HW228414   3.200   4.036   1.643 -0.1866 -0.5868  0.0184
 7280SOL     OW28415   0.500   9.472   4.812 -0.6087  0.1328 -0.2073
 7280SOL    HW128416   0.524   9.478   4.715 -1.5140 -1.2962 -0.5312
 7280SOL    HW228417   0.466   9.561   4.843  0.7376  0.9114 -0.9023
 7282SOL     OW28418   6.038   0.996   2.289  0.2028  0.2847 -0.1038
 7282SOL    HW128419   6.055   1.043   2.202  1.1737 -0.6836 -0.4523
 7282SOL    HW228420   6.117   0.938   2.312 -0.2834  0.0886  1.1380
 7284SOL     OW28421   2.069   9.266   4.927 -0.0203  0.7363  0.1639
 7284SOL    HW128422   2.099   9.293   5.018  0.1717 -1.6492  0.8303
 7284SOL    HW228423   1.983   9.216   4.934  1.2764 -1.6862 -0.6827
 7285SOL     OW28424   9.925   1.866   3.011  0.0735  0.0918  0.5551
 7285SOL    HW128425   9.966   1.930   2.945 -2.5206  0.5073 -0.7091
 7285SOL    HW228426   9.918   1.910   3.100  0.5217  0.7081  0.2927
 7286SOL     OW28427   9.647   0.653   2.732  0.1967  0.1028 -0.1785
 7286SOL    HW128428   9.672   0.613   2.820  0.1184 -2.2338 -1.1814
 7286SOL    HW228429   9.726   0.701   2.694  0.9079 -0.7621  0.1726
 7287SOL     OW28430   3.547   5.325   4.749  0.1618 -0.3502 -0.6392
 7287SOL    HW128431   3.567   5.386   4.825 -0.0697  0.3579 -1.1422
 7287SOL    HW228432   3.628   5.270   4.728  0.0851 -0.8811  0.4091
 7289SOL     OW28433   8.097   2.607   0.867  0.0736 -0.7389  0.4796
 7289SOL    HW128434   8.128   2.580   0.958  0.0766 -2.9667 -0.1485
 7289SOL    HW228435   8.159   2.567   0.798 -0.1600  0.5843 -0.5081
 7290SOL     OW28436   1.493   9.298   4.260 -0.1818 -0.1157  0.5079
 7290SOL    HW128437   1.480   9.363   4.335  0.3040  1.3779 -0.6755
 7290SOL    HW228438   1.404   9.271   4.223 -0.3430  1.5783 -0.4001
 7291SOL     OW28439   7.389   8.343   3.309  0.4683 -0.4237 -0.5008
 7291SOL    HW128440   7.296   8.353   3.274  0.5481  1.6208 -0.2151
 7291SOL    HW228441   7.454   8.360   3.235  0.6160  0.7005 -0.1239
 7292SOL     OW28442   3.182   2.990   1.612 -0.2223  0.3061  0.3922
 7292SOL    HW128443   3.117   3.065   1.600  0.6261  1.0331  0.3033
 7292SOL    HW228444   3.223   2.996   1.703  0.1328  0.1719  0.2399
 7293SOL     OW28445   4.106   1.842   0.287 -0.1251  0.2327 -0.2695
 7293SOL    HW128446   4.185   1.867   0.343  0.9628 -1.2775 -1.0734
 7293SOL    HW228447   4.119   1.875   0.193 -0.4793  0.0326 -0.3919
 7295SOL     OW28448   0.017   3.244   0.911  0.6043  0.0530  0.1102
 7295SOL    HW128449   0.083   3.179   0.947  1.1238  0.4194 -0.1791
 7295SOL    HW228450  -0.054   3.261   0.979  0.2936 -1.0435  0.0789
 7296SOL     OW28451   9.163   7.548   0.130  0.4756 -0.2216  0.8666
 7296SOL    HW128452   9.129   7.542   0.224  1.3354 -2.8771  1.0526
 7296SOL    HW228453   9.257   7.581   0.131  0.7758 -1.0662  1.0233
 7298SOL     OW28454   1.179   5.970   2.794  0.6103 -0.1347  0.2046
 7298SOL    HW128455   1.197   6.000   2.888  0.7230 -0.0262  0.1470
 7298SOL    HW228456   1.119   5.890   2.796  0.1901  0.1778  0.3524
 7299SOL     OW28457   8.333   4.616   3.936  0.6324  0.2594  0.3089
 7299SOL    HW128458   8.367   4.581   4.023  1.4212  0.3782  0.0521
 7299SOL    HW228459   8.411   4.639   3.877  0.1681  3.0021  0.6919
 7302SOL     OW28460   6.989   0.811   4.709  0.1124  0.3836 -0.2992
 7302SOL    HW128461   6.912   0.875   4.709  0.0730  0.4267  2.8974
 7302SOL    HW228462   7.060   0.845   4.770  0.9076 -1.6876 -0.0531
 7303SOL     OW28463   3.723   2.325   4.604  0.4814  0.5180  0.5710
 7303SOL    HW128464   3.774   2.240   4.595  0.5459  0.7534 -1.5949
 7303SOL    HW228465   3.632   2.306   4.639  1.2222 -0.1906  2.1255
 7304SOL     OW28466   8.596   8.243   0.346 -0.2348  0.7973  0.2687
 7304SOL    HW128467   8.690   8.276   0.336 -0.0019  0.0326 -0.0890
 7304SOL    HW228468   8.579   8.219   0.442  1.0044 -2.2436 -0.2319
 7306SOL     OW28469   0.483   1.506   0.800 -0.5157  0.0100 -0.3697
 7306SOL    HW128470   0.513   1.561   0.878 -0.7050 -0.9496  0.3854
 7306SOL    HW228471   0.387   1.481   0.812  0.0889 -2.1335  0.2793
 7307SOL     OW28472   9.539   8.529   3.353  0.3349  0.0836 -0.2378
 7307SOL    HW128473   9.463   8.472   3.320  0.5125 -1.6244  2.0940
 7307SOL    HW228474   9.546   8.518   3.453  1.0621  3.4344  0.1232
 7309SOL     OW28475   9.895   7.668   4.768 -0.1688 -0.0312  0.4424
 7309SOL    HW128476   9.815   7.629   4.812 -0.2098 -1.6986 -1.0026
 7309SOL    HW228477   9.872   7.756   4.727 -2.0134 -1.6596 -2.1828
 7310SOL     OW28478   5.826   9.916   2.689 -0.0718  0.2149 -0.2767
 7310SOL    HW128479   5.775   9.947   2.770  0.4003  0.9175 -0.2422
 7310SOL    HW228480   5.850   9.820   2.700 -1.6179 -0.2024 -0.4098
 7311SOL     OW28481   3.191   7.077   3.949 -0.0179  0.3347 -0.0622
 7311SOL    HW128482   3.276   7.078   3.896  0.7100 -0.4532  1.0718
 7311SOL    HW228483   3.192   7.153   4.014 -0.4272  0.6547 -0.4299
 7312SOL     OW28484   2.757   1.143   3.359  0.1634  0.0289 -0.0717
 7312SOL    HW128485   2.825   1.208   3.324 -0.0327  0.1638 -0.1991
 7312SOL    HW228486   2.666   1.172   3.332  0.1625 -0.8973 -1.1056
 7313SOL     OW28487   9.086   7.616   0.838 -0.3556 -0.4340  0.2746
 7313SOL    HW128488   9.066   7.535   0.783  3.1889 -1.7120  0.7482
 7313SOL    HW228489   9.094   7.696   0.777  1.1866 -1.3977 -0.8268
 7314SOL     OW28490   0.291   4.695   4.778  0.2119  0.0215 -0.2279
 7314SOL    HW128491   0.372   4.651   4.818 -0.5969 -0.3264  1.0510
 7314SOL    HW228492   0.269   4.651   4.691  0.2390 -1.1852  0.3674
 7315SOL     OW28493   9.598   3.413   0.274  0.0130  0.2652  0.8953
 7315SOL    HW128494   9.679   3.359   0.248 -0.4144 -0.6112  1.3584
 7315SOL    HW228495   9.593   3.494   0.217  0.4332 -0.4112 -0.1265
 7317SOL     OW28496   9.330   6.701   1.953 -0.4307  0.1725 -0.7708
 7317SOL    HW128497   9.309   6.793   1.989 -0.0641 -0.0675  0.0623
 7317SOL    HW228498   9.278   6.633   2.004 -0.7713 -0.0878 -1.4524
 7319SOL     OW28499   8.886   9.165   1.232  0.3802 -0.0759 -0.5467
 7319SOL    HW128500   8.886   9.264   1.246 -2.4258 -0.1938  0.6680
 7319SOL    HW228501   8.823   9.142   1.158  1.3414 -0.9495 -1.1126
 7321SOL     OW28502   0.360   0.769   0.079  0.2902  0.3520  0.1423
 7321SOL    HW128503   0.308   0.693   0.117  1.2864 -0.1579  0.5051
 7321SOL    HW228504   0.334   0.854   0.126 -1.9069  0.4951 -1.2936
 7322SOL     OW28505   3.853   4.994   5.107  0.0806  0.3680  0.6045
 7322SOL    HW128506   3.810   4.904   5.120  0.6986 -0.1327 -0.7185
 7322SOL    HW228507   3.785   5.058   5.071 -0.3881  0.4738  1.6438
 7323SOL     OW28508   3.437   7.297   5.084 -0.1809 -0.0665  0.3755
 7323SOL    HW128509   3.383   7.238   5.143 -0.3885 -0.8169 -0.5470
 7323SOL    HW228510   3.513   7.244   5.045  0.7033  0.7522  0.9746
 7326SOL     OW28511   8.486   2.835   2.874 -0.8110 -0.4290 -0.3445
 7326SOL    HW128512   8.513   2.814   2.968 -1.4182  1.3624  0.2522
 7326SOL    HW228513   8.524   2.766   2.812 -0.2050 -1.4923  1.1769
 7327SOL     OW28514   2.864   0.813   0.809  0.1645 -0.1827 -0.0798
 7327SOL    HW128515   2.924   0.893   0.810 -1.7887  1.3312  1.7093
 7327SOL    HW228516   2.840   0.789   0.715 -0.3387  2.2244 -0.5910
 7329SOL     OW28517   1.072   8.680   2.749 -0.4148  0.4359 -0.2180
 7329SOL    HW128518   1.146   8.615   2.766 -2.2405 -1.2073  1.7326
 7329SOL    HW228519   1.014   8.644   2.676 -1.8677 -0.5425  1.3916
 7330SOL     OW28520   4.117   9.720   1.920  0.3495 -0.1873  0.3242
 7330SOL    HW128521   4.207   9.677   1.915  0.6574  0.5828 -1.2833
 7330SOL    HW228522   4.125   9.818   1.901 -0.8305 -0.1398  0.0077
 7333SOL     OW28523   7.075   8.690   3.627 -0.2571  0.2977 -0.0488
 7333SOL    HW128524   7.127   8.632   3.691 -0.9095  0.4407  0.6117
 7333SOL    HW228525   6.981   8.698   3.658 -0.7413 -0.1435 -1.3781
 7334SOL     OW28526   6.127   2.046   4.321 -0.2006  0.3140 -0.0586
 7334SOL    HW128527   6.176   2.128   4.293 -0.9616  0.4824 -0.9210
 7334SOL    HW228528   6.045   2.035   4.265 -0.4453 -0.6873  0.4748
 7335SOL     OW28529   6.838   1.259   4.633 -0.0783  0.3623 -0.5797
 7335SOL    HW128530   6.787   1.327   4.579  0.8190  2.6287  1.3154
 7335SOL    HW228531   6.936   1.277   4.624  0.0730  1.1030  2.1343
 7336SOL     OW28532   8.032   1.715   0.473 -0.4609 -0.7422 -0.1925
 7336SOL    HW128533   8.122   1.671   0.466  0.6036  1.4368 -0.5592
 7336SOL    HW228534   7.975   1.687   0.395  0.4973 -0.8266 -0.8702
 7337SOL     OW28535   2.104   2.721   1.780  0.3087 -0.1602  0.2552
 7337SOL    HW128536   2.173   2.649   1.778  1.6157  1.0558  0.6968
 7337SOL    HW228537   2.124   2.787   1.707 -1.0381 -0.3677 -0.3214
 7338SOL     OW28538   3.029   7.593   4.644  0.1340 -0.2900 -0.1449
 7338SOL    HW128539   3.052   7.558   4.735  1.1058 -0.6809 -0.5358
 7338SOL    HW228540   2.978   7.679   4.653  0.5881 -0.1149  0.7580
 7339SOL     OW28541   8.026   8.919   4.845  0.3245  0.2598 -0.0649
 7339SOL    HW128542   8.058   8.862   4.921 -1.2453  0.9626  1.1494
 7339SOL    HW228543   7.927   8.927   4.848  0.4161  2.0887 -0.9278
 7340SOL     OW28544   9.809   0.453   4.100 -0.2387 -0.6153 -0.2078
 7340SOL    HW128545   9.715   0.448   4.066 -1.5381 -1.3322  3.2896
 7340SOL    HW228546   9.830   0.370   4.152  2.4667 -0.5954 -1.1774
 7341SOL     OW28547   0.899   4.817   3.938  0.3151  0.0285  0.1042
 7341SOL    HW128548   0.867   4.753   3.869 -0.9469  0.1393  0.5702
 7341SOL    HW228549   0.880   4.911   3.908  0.0821  0.0900  0.4402
 7342SOL     OW28550   5.082   0.866   2.481  0.4351  0.3959  0.5366
 7342SOL    HW128551   5.003   0.804   2.479 -1.4854  2.8170 -0.4355
 7342SOL    HW228552   5.103   0.889   2.576 -0.5795  0.3900  0.7742
 7344SOL     OW28553   4.135   8.672   0.003 -0.0108 -0.1520 -0.0982
 7344SOL    HW128554   4.051   8.635   0.042 -1.1937  0.3091 -2.1331
 7344SOL    HW228555   4.112   8.745  -0.061  2.0074  0.6413  0.0519
 7345SOL     OW28556   6.316   9.060   4.669 -0.0262 -0.4292 -0.1309
 7345SOL    HW128557   6.338   8.963   4.680 -2.0655 -0.6978  1.8184
 7345SOL    HW228558   6.270   9.094   4.751 -0.6843  1.8162 -1.3851
 7346SOL     OW28559   4.800   0.367   4.738 -0.3955  0.0775 -0.1425
 7346SOL    HW128560   4.723   0.343   4.680  1.0222 -3.4251 -0.6965
 7346SOL    HW228561   4.783   0.337   4.832  0.9281 -2.1638 -0.6009
 7347SOL     OW28562   6.560   7.512   3.443  0.6748 -0.6829 -0.5677
 7347SOL    HW128563   6.555   7.540   3.347  0.8116  2.5310  0.3061
 7347SOL    HW228564   6.519   7.583   3.500  0.4287 -2.6447  1.7532
 7348SOL     OW28565   7.773   8.298   2.865  0.0315 -0.4173  0.1028
 7348SOL    HW128566   7.779   8.213   2.916 -1.2772 -0.0153  0.9632
 7348SOL    HW228567   7.798   8.375   2.926 -0.5731 -0.0252 -0.1464
 7349SOL     OW28568   1.600   2.734   4.580  0.1097 -0.3033  0.1714
 7349SOL    HW128569   1.521   2.672   4.574 -2.0566  2.4047 -0.3896
 7349SOL    HW228570   1.663   2.714   4.505 -0.7047 -1.6060 -0.1991
 7350SOL     OW28571   2.196   7.626   0.759 -0.7888 -0.6089 -0.0475
 7350SOL    HW128572   2.219   7.594   0.851 -1.6990 -1.2018 -0.0226
 7350SOL    HW228573   2.099   7.651   0.756 -0.9316 -1.2729 -1.0395
 7351SOL     OW28574   6.868   2.487   0.461 -0.2015 -0.6682 -0.2582
 7351SOL    HW128575   6.795   2.536   0.508  0.1621  1.0147 -1.4290
 7351SOL    HW228576   6.955   2.534   0.476  0.1852 -1.0646 -1.2317
 7353SOL     OW28577   2.081   0.684   2.516 -0.0226  0.8588  0.1565
 7353SOL    HW128578   2.129   0.657   2.600 -0.4296  0.6556  0.3226
 7353SOL    HW228579   2.126   0.765   2.477  0.9816  0.1527 -0.1525
 7355SOL     OW28580   4.393   0.614   1.960  0.1837 -0.1066  0.5786
 7355SOL    HW128581   4.375   0.707   1.991  0.2071  0.0627  0.0918
 7355SOL    HW228582   4.490   0.605   1.937  0.1177 -0.1628  0.3229
 7356SOL     OW28583   3.667   6.690   1.501 -0.4502 -0.3125 -0.0428
 7356SOL    HW128584   3.752   6.735   1.476  1.1575 -1.9652  2.1788
 7356SOL    HW228585   3.599   6.758   1.528 -0.2520  1.0837 -2.8813
 7357SOL     OW28586  10.000   3.944   0.257 -0.1235 -0.0596  0.2091
 7357SOL    HW128587   9.995   3.852   0.218  3.5544  0.3007 -1.2866
 7357SOL    HW228588   9.965   4.010   0.190  2.3368  0.1338 -0.9412
 7358SOL     OW28589   4.960   0.517   0.446  0.1978 -0.5758 -0.0221
 7358SOL    HW128590   4.927   0.458   0.373 -1.3924 -0.2018  0.3779
 7358SOL    HW228591   4.924   0.485   0.534  1.1171 -0.3133  0.4608
 7359SOL     OW28592   3.746   8.900   3.475 -0.3273 -0.1448  0.2634
 7359SOL    HW128593   3.798   8.858   3.550 -1.5262  1.8801  2.3229
 7359SOL    HW228594   3.660   8.851   3.462 -0.9923  0.6049  1.5835
 7360SOL     OW28595   9.960   9.541   3.873 -0.0299 -0.2700  0.8304
 7360SOL    HW128596  10.021   9.621   3.874 -0.9379  0.4359  0.6108
 7360SOL    HW228597   9.865   9.571   3.884 -0.6188 -1.0800 -1.6690
 7361SOL     OW28598   7.643   9.664   3.493  0.4391 -0.3335  0.3400
 7361SOL    HW128599   7.598   9.666   3.404 -0.5219  0.4023  0.8419
 7361SOL    HW228600   7.629   9.575   3.536  0.4905 -0.5167 -0.0188
 7362SOL     OW28601   4.892   5.562   1.158 -0.2694  0.3369  0.0398
 7362SOL    HW128602   4.980   5.552   1.204  0.2462 -0.1318 -1.0308
 7362SOL    HW228603   4.880   5.657   1.129 -1.0031  0.8394  1.9254
 7363SOL     OW28604   7.553   2.351   1.980  0.9187 -0.7189 -0.1579
 7363SOL    HW128605   7.616   2.303   1.919  1.2704  0.7363 -0.9451
 7363SOL    HW228606   7.584   2.339   2.075 -0.3328 -4.0532 -0.0889
 7365SOL     OW28607   2.353   0.283   0.131  0.0083 -0.0727  0.6324
 7365SOL    HW128608   2.261   0.245   0.124 -0.2416  0.7489 -0.5528
 7365SOL    HW228609   2.348   0.383   0.137  0.9228  0.1627 -1.9682
 7366SOL     OW28610   2.209   0.441   1.746  0.0827  0.1987  0.3514
 7366SOL    HW128611   2.228   0.390   1.829 -0.7985 -0.5803  0.0826
 7366SOL    HW228612   2.237   0.387   1.666 -0.3806  0.3477  0.0872
 7367SOL     OW28613   2.940   8.376   2.590  0.2671  0.0894 -0.3411
 7367SOL    HW128614   3.005   8.338   2.523  0.8526 -0.3425  0.4633
 7367SOL    HW228615   2.987   8.444   2.646 -0.6455  1.6608 -1.4366
 7368SOL     OW28616   8.283   2.754   4.245 -0.2019 -0.0149  0.7338
 7368SOL    HW128617   8.260   2.831   4.305 -2.9732  0.7026 -1.1229
 7368SOL    HW228618   8.199   2.721   4.201  1.6502 -0.8696 -2.2663
 7369SOL     OW28619   0.614   6.218   0.447  0.2989  0.1946  0.1687
 7369SOL    HW128620   0.688   6.156   0.474 -1.4415 -2.1882 -0.3938
 7369SOL    HW228621   0.541   6.215   0.515 -0.4177  0.5969 -0.5789
 7370SOL     OW28622   9.355   6.849   4.035 -0.2146 -0.5117  0.3787
 7370SOL    HW128623   9.416   6.777   4.002 -1.2608 -0.3393 -1.9616
 7370SOL    HW228624   9.365   6.931   3.978 -0.5288  0.5319  1.7731
 7371SOL     OW28625   9.763   0.881   2.363 -0.2441 -0.3676 -0.1119
 7371SOL    HW128626   9.687   0.941   2.389 -0.8448 -1.0685 -0.2335
 7371SOL    HW228627   9.781   0.816   2.437  1.5091  1.0209  0.7252
 7372SOL     OW28628   5.330   0.163   1.136 -0.2967  0.1130  0.0992
 7372SOL    HW128629   5.345   0.164   1.037 -0.4049  0.0668  0.0824
 7372SOL    HW228630   5.403   0.214   1.182  0.0395 -0.3022  0.0322
 7373SOL     OW28631   9.432   1.679   1.496 -0.1805 -0.0074 -0.6527
 7373SOL    HW128632   9.510   1.730   1.460  0.9098 -0.4002  1.1535
 7373SOL    HW228633   9.389   1.731   1.570 -0.4118 -0.7000 -0.2952
 7374SOL     OW28634   7.461   4.288   0.602 -0.2064 -0.2390  0.0526
 7374SOL    HW128635   7.384   4.248   0.551 -0.2238 -2.8793  2.0108
 7374SOL    HW228636   7.538   4.302   0.540 -1.0814 -0.9046 -1.2217
 7375SOL     OW28637   1.887   7.020   1.832 -0.0249  0.4997  0.1165
 7375SOL    HW128638   1.788   7.012   1.841 -0.1341  1.2181 -0.4332
 7375SOL    HW228639   1.931   6.954   1.893 -0.7966  2.1810  2.5365
 7376SOL     OW28640   4.540   0.744   3.189 -0.5765  0.0204  0.5382
 7376SOL    HW128641   4.480   0.816   3.221  0.9918  1.2522  0.7562
 7376SOL    HW228642   4.595   0.778   3.112 -2.1092 -1.9387 -1.4900
 7377SOL     OW28643   6.569   7.992   3.143  0.2718  0.3908  0.5303
 7377SOL    HW128644   6.657   8.034   3.120  0.0570  1.3314  1.4023
 7377SOL    HW228645   6.552   7.916   3.081  1.2220  0.8442 -0.3134
 7378SOL     OW28646   7.426   9.454   4.605 -0.4787  0.1476 -0.0278
 7378SOL    HW128647   7.515   9.479   4.640 -1.1017 -0.4791  2.0561
 7378SOL    HW228648   7.360   9.528   4.622 -0.6770  0.0491 -0.3453
 7379SOL     OW28649   1.155   5.837   0.294  0.1417 -0.0888 -0.9704
 7379SOL    HW128650   1.154   5.821   0.195  0.2456 -0.3987 -0.9237
 7379SOL    HW228651   1.217   5.771   0.338 -0.9958 -0.9020 -0.5513
 7380SOL     OW28652   3.832   4.334   2.430  0.0868  0.4002 -0.3921
 7380SOL    HW128653   3.795   4.369   2.516 -0.0800  2.0726 -1.1288
 7380SOL    HW228654   3.932   4.336   2.433  0.0899 -0.7949  0.2661
 7381SOL     OW28655   6.562   8.520   4.388  0.0573  0.1292 -0.5277
 7381SOL    HW128656   6.592   8.615   4.387  0.3645  0.0392 -0.0977
 7381SOL    HW228657   6.639   8.460   4.409 -0.7512  0.0455  2.5097
 7382SOL     OW28658   7.471   1.010   1.668  0.6653 -0.3142  0.4200
 7382SOL    HW128659   7.554   0.962   1.695  1.4336  0.2225 -0.9496
 7382SOL    HW228660   7.492   1.106   1.650 -0.2031 -0.2217 -0.1390
 7384SOL     OW28661   7.277   2.545   3.243  0.2440  0.5613  0.3134
 7384SOL    HW128662   7.356   2.561   3.184 -0.3799  0.7364 -0.4769
 7384SOL    HW228663   7.233   2.632   3.264 -0.6261  0.3237 -0.4854
 7385SOL     OW28664   7.428   0.526   2.938  0.4540 -1.0545 -0.3349
 7385SOL    HW128665   7.357   0.525   3.009  0.9502  2.1440  0.2719
 7385SOL    HW228666   7.518   0.515   2.980  0.7414  0.7280 -0.4572
 7386SOL     OW28667   2.035   4.754   3.144 -0.0964 -0.3408  0.6376
 7386SOL    HW128668   1.957   4.693   3.158 -0.4638 -0.3282 -1.2400
 7386SOL    HW228669   2.012   4.846   3.175 -0.8409 -0.3332  0.0686
 7387SOL     OW28670   7.091   2.933   2.615  0.1473  0.2754  0.2907
 7387SOL    HW128671   7.023   2.937   2.689 -1.0895  0.5445 -0.8404
 7387SOL    HW228672   7.166   2.995   2.636 -0.4629  0.7702  1.0640
 7388SOL     OW28673   9.369   7.961   4.587  0.0383  0.4493 -0.1078
 7388SOL    HW128674   9.376   8.004   4.498  0.4410 -0.7549 -0.6676
 7388SOL    HW228675   9.453   7.974   4.638 -0.3040  1.4010  0.2199
 7390SOL     OW28676   8.481   0.221   0.508  0.8255  0.3076  0.5426
 7390SOL    HW128677   8.544   0.206   0.432 -0.8894 -0.5049 -0.7312
 7390SOL    HW228678   8.508   0.304   0.558  0.1837  2.5863 -2.7757
 7392SOL     OW28679   1.394   0.212   0.558 -0.3983 -0.2170 -0.4473
 7392SOL    HW128680   1.487   0.231   0.589 -0.7883 -0.4684  0.9456
 7392SOL    HW228681   1.364   0.125   0.597 -1.2072 -0.1461 -0.9112
 7393SOL     OW28682   3.286   2.437   3.812  0.0490 -0.5876  0.3538
 7393SOL    HW128683   3.222   2.484   3.874 -0.2929 -1.4280  0.6497
 7393SOL    HW228684   3.256   2.452   3.718  1.2149  1.6474  0.2942
 7395SOL     OW28685   2.851   1.582   5.224 -0.6200 -0.5155 -0.0686
 7395SOL    HW128686   2.808   1.626   5.145  0.4183 -0.5702 -0.6867
 7395SOL    HW228687   2.870   1.650   5.294  1.6542  0.2059 -1.3238
 7396SOL     OW28688   2.288   5.404   1.227  0.0725  0.3614  0.2754
 7396SOL    HW128689   2.226   5.459   1.282 -1.2408 -0.3758 -0.4314
 7396SOL    HW228690   2.291   5.310   1.262 -0.5532 -0.0409 -0.7226
 7397SOL     OW28691   4.805   9.811   5.100 -0.0972 -0.3487 -0.2438
 7397SOL    HW128692   4.882   9.872   5.117 -0.7322 -0.0455  1.5982
 7397SOL    HW228693   4.745   9.851   5.031 -0.7591  1.3557  1.2854
 7399SOL     OW28694   3.061   0.302   1.805  0.1257  0.1162 -0.2458
 7399SOL    HW128695   3.125   0.226   1.813 -0.7826 -0.6014  0.4001
 7399SOL    HW228696   3.063   0.338   1.712 -0.9090 -2.0429 -1.1482
 7401SOL     OW28697   3.089   4.128   4.100  0.2685 -0.0054 -0.7122
 7401SOL    HW128698   3.021   4.154   4.168  0.4894 -0.5845 -0.2705
 7401SOL    HW228699   3.166   4.191   4.104  1.1993 -1.2079  0.9511
 7402SOL     OW28700   1.641   7.853   1.465  0.1112  0.0528  0.8043
 7402SOL    HW128701   1.707   7.917   1.504  1.0933 -0.7843  0.5386
 7402SOL    HW228702   1.675   7.759   1.475 -0.4511 -0.2970 -0.4603
 7404SOL     OW28703   9.680   9.494   3.066  0.4321  0.1106  0.6540
 7404SOL    HW128704   9.718   9.405   3.091  0.9519  0.4675  1.1503
 7404SOL    HW228705   9.587   9.502   3.102  1.0033  0.4383  2.0899
 7405SOL     OW28706   3.322   8.277   0.476 -0.2674 -0.4900 -0.7179
 7405SOL    HW128707   3.388   8.248   0.406  1.0423  0.6643  0.0283
 7405SOL    HW228708   3.370   8.296   0.561 -1.6797 -0.4243  0.0734
 7406SOL     OW28709   3.731   7.649   3.752 -0.0886  0.3980  0.1280
 7406SOL    HW128710   3.733   7.588   3.673  0.2973  2.0070 -1.1209
 7406SOL    HW228711   3.775   7.605   3.830 -0.2054 -1.0781 -0.6310
 7407SOL     OW28712   3.215   5.630   0.541 -0.7938  0.1253  0.1693
 7407SOL    HW128713   3.148   5.559   0.517 -0.4616  0.1523 -0.8436
 7407SOL    HW228714   3.286   5.590   0.599  0.0709 -0.6769 -1.4277
 7409SOL     OW28715   4.457   1.751   1.827 -0.3414  0.4916 -0.7329
 7409SOL    HW128716   4.492   1.783   1.739  0.1444  0.7581 -0.4418
 7409SOL    HW228717   4.426   1.830   1.881  1.2683  0.5347  0.1689
 7412SOL     OW28718   6.181   1.302   0.827  0.2999 -0.2799  0.7039
 7412SOL    HW128719   6.100   1.269   0.779  0.0082 -0.5176  1.3653
 7412SOL    HW228720   6.178   1.402   0.833  0.5941 -0.2083 -0.2327
 7414SOL     OW28721   3.628   4.120   1.715 -0.2348  0.8725  0.0433
 7414SOL    HW128722   3.724   4.109   1.690  0.0459 -0.4619  1.5961
 7414SOL    HW228723   3.573   4.051   1.668 -0.1029  0.1755  0.9014
 7415SOL     OW28724   0.462   8.127   1.674 -0.3910  0.5271 -0.1123
 7415SOL    HW128725   0.385   8.152   1.732 -0.3001 -0.1408  0.2934
 7415SOL    HW228726   0.540   8.103   1.731  0.0800  1.0697 -0.5222
 7416SOL     OW28727   8.322   7.334   3.594  0.4511 -0.4082 -0.1611
 7416SOL    HW128728   8.303   7.285   3.508  1.2904 -1.7355  0.3878
 7416SOL    HW228729   8.283   7.283   3.671  2.0679 -0.6980  0.4976
 7417SOL     OW28730   1.403   8.160   0.798  0.4115 -0.4862 -0.3490
 7417SOL    HW128731   1.361   8.176   0.709  0.1070 -0.4865 -0.2064
 7417SOL    HW228732   1.412   8.062   0.814 -0.8203 -0.5157  0.2161
 7419SOL     OW28733   1.076   7.370   2.206  0.2029  0.5253 -0.0863
 7419SOL    HW128734   1.090   7.354   2.108  2.2184  1.9997 -0.0644
 7419SOL    HW228735   0.981   7.350   2.230 -0.3104  0.1543 -2.3378
 7420SOL     OW28736   4.723   2.706   0.123  0.2186  0.1024 -0.1999
 7420SOL    HW128737   4.723   2.617   0.077 -1.3348 -0.5666  1.0254
 7420SOL    HW228738   4.663   2.769   0.074  1.0748  0.3794 -0.8938
 7421SOL     OW28739   6.103   9.587   4.498  0.0881  0.0881  0.8033
 7421SOL    HW128740   6.126   9.538   4.582  0.6137  0.4034  0.8471
 7421SOL    HW228741   6.004   9.589   4.487  0.1202 -3.1804 -0.5126
 7422SOL     OW28742   9.395   2.218   3.015  0.3255  0.2816 -0.1813
 7422SOL    HW128743   9.440   2.302   2.984 -0.0962  0.3092 -0.7389
 7422SOL    HW228744   9.396   2.151   2.940  3.0081 -1.1884  1.1037
 7423SOL     OW28745   4.657   2.880   1.646  0.1938 -0.3013  0.0284
 7423SOL    HW128746   4.723   2.899   1.720 -0.0367 -0.8180  0.3688
 7423SOL    HW228747   4.572   2.930   1.664 -0.0289 -0.7957  0.3614
 7424SOL     OW28748   6.811   0.537   3.462 -0.4623 -0.0382  0.4678
 7424SOL    HW128749   6.724   0.587   3.467 -1.6876 -2.1054  0.4853
 7424SOL    HW228750   6.800   0.447   3.504  0.7823 -1.5424 -2.2717
 7425SOL     OW28751   6.960   0.856   2.145  0.2559  0.6952  0.0772
 7425SOL    HW128752   6.958   0.955   2.162 -2.5449  0.5677  0.7418
 7425SOL    HW228753   7.005   0.810   2.221 -0.6813  1.2552  0.9872
 7426SOL     OW28754   4.472   7.941   2.813 -0.1694 -0.3250 -0.0130
 7426SOL    HW128755   4.536   7.995   2.867  0.7322 -1.0339 -0.3521
 7426SOL    HW228756   4.512   7.851   2.795  0.1418  0.3418 -2.9706
 7427SOL     OW28757   7.584   7.719   5.290  0.3631 -0.4128  0.1470
 7427SOL    HW128758   7.624   7.810   5.302  0.4825 -0.2537 -1.3857
 7427SOL    HW228759   7.625   7.655   5.354 -0.7413  0.9268  2.2472
 7428SOL     OW28760   2.153   8.468   1.809 -0.4563 -0.0364 -0.3273
 7428SOL    HW128761   2.212   8.424   1.877  0.9591  1.5275 -0.4809
 7428SOL    HW228762   2.074   8.411   1.790  0.8037 -2.0043  0.2225
 7430SOL     OW28763   0.095   6.463   2.406 -0.4326 -0.2688  0.3287
 7430SOL    HW128764   0.138   6.453   2.495 -1.2267 -0.9487  0.6452
 7430SOL    HW228765   0.165   6.472   2.335  0.1959  1.4458  1.1404
 7431SOL     OW28766   4.799   5.570   3.152 -0.2248 -0.3943  0.1659
 7431SOL    HW128767   4.881   5.536   3.199  0.1172  1.4854  0.9895
 7431SOL    HW228768   4.827   5.639   3.084 -0.8977 -1.6556 -1.4144
 7432SOL     OW28769   4.925   3.205   2.195 -0.0606  0.1550 -0.3747
 7432SOL    HW128770   4.881   3.119   2.220 -0.6494  0.3664 -0.6657
 7432SOL    HW228771   4.929   3.266   2.274 -0.5818  0.2552 -0.4221
 7433SOL     OW28772   2.851   7.058   3.562 -0.0874 -0.1313 -0.1711
 7433SOL    HW128773   2.788   7.058   3.639  0.7502  0.9389  0.5173
 7433SOL    HW228774   2.818   7.121   3.492 -0.4988 -0.6102 -0.4164
 7434SOL     OW28775   6.506   7.097   4.677 -0.1872 -0.4155 -0.0824
 7434SOL    HW128776   6.482   7.183   4.723 -0.1219 -0.4515  0.0209
 7434SOL    HW228777   6.591   7.062   4.717  0.4311  0.0828 -0.9368
 7435SOL     OW28778   3.320   2.337   4.915  0.0115 -0.2436 -0.7582
 7435SOL    HW128779   3.249   2.408   4.910 -0.1533 -0.3412  0.0717
 7435SOL    HW228780   3.369   2.333   4.829 -1.5784 -0.7829 -1.6642
 7436SOL     OW28781   2.093   5.360   3.987 -0.0786  0.2615 -0.5400
 7436SOL    HW128782   2.139   5.442   4.022  0.7876  0.1987 -1.4815
 7436SOL    HW228783   2.010   5.343   4.040  0.6743  0.7182  0.8370
 7438SOL     OW28784   1.837   8.942   4.001 -0.1909 -0.2842  0.2354
 7438SOL    HW128785   1.873   8.882   4.072 -1.1933  0.0906  1.0814
 7438SOL    HW228786   1.899   9.019   3.987  0.9852 -1.3930 -0.6913
 7439SOL     OW28787   7.265   8.998   3.988 -0.3094 -0.0824  0.1974
 7439SOL    HW128788   7.182   9.046   3.959 -1.4038 -1.3816  1.1250
 7439SOL    HW228789   7.308   9.049   4.062 -0.2301  0.6294 -0.3259
 7440SOL     OW28790   2.271   5.303   0.280  0.1897 -0.7222  0.0059
 7440SOL    HW128791   2.305   5.216   0.316 -0.1747 -0.7414  0.3089
 7440SOL    HW228792   2.197   5.284   0.215  0.1330 -0.6413  0.0469
 7441SOL     OW28793   7.451   3.222   0.496 -0.1677 -0.3193  0.0093
 7441SOL    HW128794   7.457   3.319   0.522 -0.1051 -0.5588  0.8844
 7441SOL    HW228795   7.477   3.213   0.400 -0.0556  0.5201 -0.0486
 7442SOL     OW28796   8.171   5.260   4.415 -0.0803 -0.4259 -0.2578
 7442SOL    HW128797   8.241   5.198   4.378  0.6006  0.2809 -0.1865
 7442SOL    HW228798   8.133   5.315   4.340  0.4749  0.1950 -0.0958
 7443SOL     OW28799   2.660   0.982   4.758  0.4707  0.0966  0.9181
 7443SOL    HW128800   2.759   0.988   4.758  0.5524 -0.5165  3.8369
 7443SOL    HW228801   2.630   0.917   4.689  2.1125  0.1243  0.1655
 7444SOL     OW28802   3.488   5.969   1.318 -0.1983  0.2224  0.8723
 7444SOL    HW128803   3.533   5.880   1.323 -1.2628 -0.2620  2.1532
 7444SOL    HW228804   3.556   6.042   1.325  0.6092 -0.4889  0.4801
 7445SOL     OW28805   2.574   7.337   4.105 -0.1177  0.5705 -0.1259
 7445SOL    HW128806   2.571   7.402   4.029 -2.0418 -1.5435 -1.9089
 7445SOL    HW228807   2.493   7.348   4.162  0.6131  1.1604  0.8240
 7446SOL     OW28808   0.395   6.789   1.897 -0.1988 -0.2037 -0.4386
 7446SOL    HW128809   0.322   6.811   1.961 -0.4756  1.3273 -1.2686
 7446SOL    HW228810   0.417   6.870   1.842  0.5983 -1.2709 -1.7124
 7448SOL     OW28811   8.348   9.147   1.085  0.5487 -0.0478 -0.4715
 7448SOL    HW128812   8.360   9.091   1.003 -1.0470  1.1754 -1.5390
 7448SOL    HW228813   8.319   9.088   1.161  2.2077 -1.2103 -0.6934
 7449SOL     OW28814   9.954   5.061   4.601 -0.0988  0.0645  0.2031
 7449SOL    HW128815  10.042   5.041   4.557 -1.0742 -2.0006 -0.8902
 7449SOL    HW228816   9.882   5.007   4.558 -1.8934  1.5741  1.2303
 7450SOL     OW28817   2.350   5.672   2.758 -0.2069  0.5349  0.1499
 7450SOL    HW128818   2.294   5.656   2.839  0.6978  2.8624  1.2985
 7450SOL    HW228819   2.300   5.729   2.693  0.5171  2.0029  0.8549
 7451SOL     OW28820   1.611   3.294   3.986 -0.4830 -0.3534 -0.2217
 7451SOL    HW128821   1.640   3.332   3.898 -3.2633  1.2023 -0.5371
 7451SOL    HW228822   1.542   3.223   3.970 -0.5884 -0.4524  0.6771
 7452SOL     OW28823   8.303   5.373   1.113  0.0865  0.2556  0.0079
 7452SOL    HW128824   8.362   5.390   1.192 -0.1290  0.7227  0.0756
 7452SOL    HW228825   8.359   5.361   1.031  0.3009  0.0179  0.1889
 7453SOL     OW28826   1.285   8.045   1.776 -0.3654  0.0392 -0.3890
 7453SOL    HW128827   1.310   8.004   1.688  0.3793  1.3223 -0.8006
 7453SOL    HW228828   1.335   7.999   1.849  0.6939  0.3871 -0.8739
 7454SOL     OW28829   9.536   6.034   4.311 -0.0680  0.0770 -0.2179
 7454SOL    HW128830   9.630   6.060   4.288 -0.4908  0.7913 -1.1600
 7454SOL    HW228831   9.496   6.106   4.368  0.3327 -0.7710  1.1514
 7455SOL     OW28832   8.453   5.907   0.602 -0.1066 -0.4711  0.1882
 7455SOL    HW128833   8.446   6.003   0.628 -0.9398 -0.4253 -0.1996
 7455SOL    HW228834   8.535   5.867   0.644 -0.9916 -0.2023  2.2451
 7456SOL     OW28835   8.443   3.635   5.181  0.0030  0.0062  0.3432
 7456SOL    HW128836   8.401   3.562   5.127  0.2661  0.0678  0.0506
 7456SOL    HW228837   8.406   3.634   5.273 -0.9155  0.3130 -0.0231
 7457SOL     OW28838   9.019   0.435   4.900  0.6047  0.1986  0.2089
 7457SOL    HW128839   9.116   0.458   4.910  0.8999 -1.5359  1.6437
 7457SOL    HW228840   8.963   0.516   4.916  1.7845  1.0301  0.1372
 7459SOL     OW28841   2.511   4.184   2.315  0.1227 -0.1417  0.4012
 7459SOL    HW128842   2.552   4.189   2.224 -0.2919 -0.0361  0.2181
 7459SOL    HW228843   2.583   4.180   2.384  0.4705  1.6701  0.1856
 7460SOL     OW28844   1.142   7.757   4.445 -0.4129 -0.7329 -0.4852
 7460SOL    HW128845   1.228   7.745   4.396  0.5474  0.1560  0.9360
 7460SOL    HW228846   1.095   7.669   4.451  1.0921 -1.5284 -0.0193
 7461SOL     OW28847   0.587   8.637   0.002 -0.0341 -0.3443 -0.6147
 7461SOL    HW128848   0.496   8.617   0.038  0.8303 -2.0222  0.7122
 7461SOL    HW228849   0.621   8.721   0.043 -0.5334 -0.3066 -0.2689
 7462SOL     OW28850   0.534   5.253   2.690  0.0663 -0.4479  0.0937
 7462SOL    HW128851   0.582   5.341   2.685 -1.7382  0.5789  0.3555
 7462SOL    HW228852   0.471   5.245   2.612 -1.6123 -0.3892  1.4167
 7463SOL     OW28853   9.711   3.889   0.032 -0.4413 -0.8577 -0.3077
 7463SOL    HW128854   9.778   3.962   0.028  0.0758 -1.2258  1.3495
 7463SOL    HW228855   9.640   3.913   0.099 -0.3968 -1.7531  0.0656
 7464SOL     OW28856   0.960   4.446   3.544 -0.6183  0.4812 -0.5022
 7464SOL    HW128857   0.963   4.375   3.474  1.6569 -0.2080  0.2544
 7464SOL    HW228858   0.972   4.536   3.502 -2.5197  0.3726 -1.3414
 7465SOL     OW28859   8.726   4.520   3.403 -0.2317  0.0684 -0.0684
 7465SOL    HW128860   8.805   4.581   3.401 -0.1581 -0.0069  0.4989
 7465SOL    HW228861   8.715   4.477   3.313 -0.1610  0.7540 -0.4114
 7467SOL     OW28862   8.219   4.247   3.556  0.1359 -0.0235 -0.3675
 7467SOL    HW128863   8.250   4.312   3.626 -4.4052  1.0735  0.7717
 7467SOL    HW228864   8.187   4.163   3.600 -1.3979  0.1089 -1.2047
 7468SOL     OW28865   1.971   7.834   1.767  0.4011  0.2977  0.3689
 7468SOL    HW128866   1.990   7.782   1.683  0.9241  1.3888 -0.2060
 7468SOL    HW228867   2.057   7.852   1.814  0.4067  1.9516 -0.2395
 7470SOL     OW28868   6.262   9.807   2.329  0.0298 -0.0690 -0.1291
 7470SOL    HW128869   6.288   9.891   2.376 -2.1703  0.4737  0.1830
 7470SOL    HW228870   6.270   9.820   2.230  1.8237 -0.2527 -0.0345
 7471SOL     OW28871   6.922   0.039   5.322 -0.3191  0.5542 -0.1188
 7471SOL    HW128872   6.896   0.006   5.231 -3.3195  1.4023  0.3530
 7471SOL    HW228873   6.841   0.043   5.380  1.3316  1.2745  2.2112
 7473SOL     OW28874   9.596   5.017   3.630  0.4550  0.4969 -0.2067
 7473SOL    HW128875   9.689   4.980   3.626  0.5281  0.8508 -2.2658
 7473SOL    HW228876   9.532   4.943   3.655  1.1281 -0.0405 -0.0513
 7474SOL     OW28877   1.774   4.155   4.366  0.4804 -0.2435 -0.3709
 7474SOL    HW128878   1.716   4.099   4.425  2.1676 -0.5459  1.0606
 7474SOL    HW228879   1.730   4.244   4.350 -0.8587 -0.8693 -0.2229
 7475SOL     OW28880   3.099   2.634   1.048  0.0579 -0.0759 -0.0963
 7475SOL    HW128881   3.188   2.608   1.011  0.5087  0.1967  0.7814
 7475SOL    HW228882   3.081   2.581   1.130 -0.1816  0.5305  0.2428
 7476SOL     OW28883   2.743   9.476   5.227 -0.2700  0.7076 -0.0902
 7476SOL    HW128884   2.767   9.571   5.242  0.7318  0.3424  0.6949
 7476SOL    HW228885   2.694   9.441   5.307 -1.4613  0.8234 -0.7615
 7477SOL     OW28886   1.522   3.410   0.796  0.3530 -0.3134 -0.2707
 7477SOL    HW128887   1.478   3.414   0.885  2.3946  0.2448  0.7433
 7477SOL    HW228888   1.509   3.497   0.748  0.4396 -0.1128  0.0689
 7478SOL     OW28889   6.075   9.032   1.823  0.1693 -0.0858 -0.2570
 7478SOL    HW128890   6.123   9.118   1.837  0.5175 -0.5324  1.4789
 7478SOL    HW228891   5.982   9.040   1.860  0.7131 -0.9237  1.3611
 7479SOL     OW28892   8.035   0.556   2.526 -0.2117  0.2920  0.1135
 7479SOL    HW128893   8.027   0.529   2.430  0.0229  1.5683 -0.2754
 7479SOL    HW228894   8.112   0.618   2.536  0.9958 -1.4072  1.4882
 7480SOL     OW28895   7.228   2.937   1.515  0.0482 -0.1479 -0.6917
 7480SOL    HW128896   7.141   2.975   1.546 -0.4564 -1.7358 -0.0919
 7480SOL    HW228897   7.287   3.010   1.481  0.4948  1.6423  3.6739
 7481SOL     OW28898   3.516   1.825   2.921  0.2056  0.2365  1.0174
 7481SOL    HW128899   3.536   1.799   3.016  0.2688 -0.1438  0.9006
 7481SOL    HW228900   3.484   1.920   2.919  0.1780  0.2390  1.4233
 7483SOL     OW28901   9.862   9.241   3.230  0.6182 -0.8279  0.4376
 7483SOL    HW128902   9.766   9.217   3.246  0.1138 -0.5035 -1.9882
 7483SOL    HW228903   9.921   9.174   3.274 -0.7298 -2.2022  0.1657
 7484SOL     OW28904   0.391   7.946   3.869 -0.1110  0.3660 -0.9583
 7484SOL    HW128905   0.382   7.998   3.784  1.2961  0.5841 -0.9947
 7484SOL    HW228906   0.440   7.860   3.850 -1.6022 -0.5560 -0.7315
 7485SOL     OW28907   9.253   4.575   0.036 -0.4216  0.2799 -0.2264
 7485SOL    HW128908   9.219   4.536   0.122 -2.0587  1.3799 -0.3488
 7485SOL    HW228909   9.334   4.525   0.007 -0.9040 -1.2843  1.0256
 7486SOL     OW28910   2.047   8.094   0.404 -0.1386 -0.8444 -0.2663
 7486SOL    HW128911   1.971   8.043   0.445 -1.3206 -0.3650 -1.8213
 7486SOL    HW228912   2.012   8.179   0.364  1.3625 -0.1948 -0.2255
 7488SOL     OW28913   3.511   5.275   0.178 -0.4383  0.4275  0.7213
 7488SOL    HW128914   3.515   5.201   0.246  0.8813  0.3085  0.5281
 7488SOL    HW228915   3.597   5.277   0.126 -0.1142  2.6755  1.3211
 7489SOL     OW28916   5.058   7.642   2.332  0.6492 -0.5153  0.4254
 7489SOL    HW128917   5.115   7.588   2.270  1.4885 -1.8477  2.3123
 7489SOL    HW228918   5.104   7.729   2.353  1.0728 -0.7329  0.3923
 7490SOL     OW28919   9.133   9.651   5.153  0.2053 -0.2409 -0.5723
 7490SOL    HW128920   9.228   9.664   5.180  0.0158  1.0578 -0.5105
 7490SOL    HW228921   9.089   9.586   5.215  0.5503  0.5760  0.5416
 7491SOL     OW28922   3.071   2.783   1.860 -0.8222 -0.0991  0.3062
 7491SOL    HW128923   3.086   2.881   1.879 -0.2592  0.0229 -0.7606
 7491SOL    HW228924   3.082   2.766   1.763  0.7286 -1.5306  0.7222
 7492SOL     OW28925   1.205   9.274   0.679  0.3564 -0.0680 -0.3564
 7492SOL    HW128926   1.278   9.224   0.726  1.2551  1.9998  0.5110
 7492SOL    HW228927   1.120   9.222   0.685  0.9322 -0.8142  1.7910
 7494SOL     OW28928   1.771   2.412   4.999 -0.0803  0.0102  0.4211
 7494SOL    HW128929   1.745   2.476   4.927  1.4033 -1.5929 -1.5898
 7494SOL    HW228930   1.816   2.463   5.073 -1.2775  1.6188  0.0776
 7495SOL     OW28931   5.195   8.159   4.979 -0.2983 -0.1992  0.6814
 7495SOL    HW128932   5.262   8.111   5.036  0.5626  0.8978  0.6169
 7495SOL    HW228933   5.221   8.152   4.883 -0.2672  0.2368  0.6568
 7497SOL     OW28934   1.146   8.136   1.308  0.1151 -0.3986 -0.8335
 7497SOL    HW128935   1.231   8.141   1.361  1.1045  0.2985 -2.4418
 7497SOL    HW228936   1.166   8.155   1.212 -1.4711 -2.7273 -1.6590
 7498SOL     OW28937   3.379   2.101   4.150 -0.5542 -0.2723  0.1893
 7498SOL    HW128938   3.320   2.132   4.076  0.4849  0.7210 -0.2426
 7498SOL    HW228939   3.394   2.175   4.216  0.3686 -0.4394  0.1837
 7499SOL     OW28940   7.586   4.070   1.415 -0.1621 -0.8069 -0.0851
 7499SOL    HW128941   7.498   4.052   1.371  0.2563 -0.7664 -0.9452
 7499SOL    HW228942   7.596   4.010   1.494 -0.9092 -0.9022 -0.0578
 7500SOL     OW28943   8.792   5.457   4.137  0.2504 -0.2098  0.3227
 7500SOL    HW128944   8.846   5.374   4.139 -1.3239 -1.2219  2.3894
 7500SOL    HW228945   8.841   5.530   4.185  0.1763 -0.8721  1.4123
 7501SOL     OW28946   1.036   9.820   1.847 -0.2491 -0.2026 -0.3258
 7501SOL    HW128947   1.081   9.905   1.875 -1.3550 -0.0245  0.9676
 7501SOL    HW228948   1.025   9.820   1.747  2.0335  0.0094 -0.5862
 7502SOL     OW28949   8.802   9.607   4.235 -0.1320  0.7275 -0.9144
 7502SOL    HW128950   8.891   9.562   4.234 -0.9629 -1.0374  0.9280
 7502SOL    HW228951   8.734   9.549   4.192 -1.4382 -0.3983  2.4973
 7503SOL     OW28952   1.397   3.054   1.314  0.0165  0.0498 -0.5038
 7503SOL    HW128953   1.481   3.021   1.356 -0.8617 -1.2103  0.2895
 7503SOL    HW228954   1.352   2.978   1.266 -0.7849  0.6581 -0.7235
 7504SOL     OW28955   5.568   1.342   1.283  0.4970  0.1623  0.0418
 7504SOL    HW128956   5.664   1.342   1.254  0.5584 -0.2130  0.2374
 7504SOL    HW228957   5.519   1.269   1.235  0.6433 -0.5917  1.0198
 7505SOL     OW28958   8.421   8.263   3.074  0.3050  0.1573 -0.0268
 7505SOL    HW128959   8.476   8.231   3.151  1.1051 -1.0037 -1.0492
 7505SOL    HW228960   8.387   8.355   3.093  0.6265 -0.0457  1.6313
 7506SOL     OW28961   2.692   5.938   0.682 -0.1450 -0.2210 -0.5160
 7506SOL    HW128962   2.609   5.975   0.723 -0.5282 -1.5981 -0.0226
 7506SOL    HW228963   2.697   5.840   0.699  0.3015 -0.6101 -2.7270
 7507SOL     OW28964   7.159   9.321   2.092 -1.0630  0.5962 -0.3190
 7507SOL    HW128965   7.216   9.268   2.028 -1.2035 -0.1698  0.1777
 7507SOL    HW228966   7.205   9.406   2.115 -1.1632  1.0349 -1.7101
 7508SOL     OW28967   2.503   6.410   4.434 -0.3240  0.1603  0.0921
 7508SOL    HW128968   2.567   6.478   4.468  0.3365 -0.6846  0.5418
 7508SOL    HW228969   2.410   6.446   4.441  0.1321  1.6474 -1.1907
 7509SOL     OW28970   0.332   5.237   3.502 -0.4034  0.3664 -0.1936
 7509SOL    HW128971   0.369   5.181   3.427  1.5830  1.0406  0.2528
 7509SOL    HW228972   0.232   5.230   3.502 -0.1950 -4.4470  0.8262
 7510SOL     OW28973   8.092   7.399   4.902 -0.4120  0.4637 -0.1335
 7510SOL    HW128974   8.013   7.461   4.892 -0.5852  0.2816  0.1113
 7510SOL    HW228975   8.108   7.380   4.999 -1.6010 -1.4586 -0.2754
 7511SOL     OW28976   2.971   9.317   2.826 -0.1464 -0.7821  0.7450
 7511SOL    HW128977   2.961   9.301   2.924  0.9516 -1.2263  0.7864
 7511SOL    HW228978   2.981   9.415   2.808  0.1068 -0.7427  1.1173
 7512SOL     OW28979   2.486   8.679   4.815 -0.1806 -0.0465  0.5896
 7512SOL    HW128980   2.547   8.731   4.875  0.3388  0.1789 -0.1266
 7512SOL    HW228981   2.429   8.618   4.870 -1.0803  1.5629  1.4660
 7513SOL     OW28982   8.411   6.311   3.566  0.6406 -0.1448 -0.2094
 7513SOL    HW128983   8.351   6.308   3.486  2.0036 -0.6874 -1.2289
 7513SOL    HW228984   8.361   6.279   3.646 -0.6613  0.1411 -0.8806
 7514SOL     OW28985   0.977   8.600   2.510  0.3518  0.7022  0.4607
 7514SOL    HW128986   0.921   8.628   2.432  1.7412  2.3022  0.0213
 7514SOL    HW228987   1.014   8.509   2.492 -0.6354  0.3872 -0.0299
 7515SOL     OW28988   0.831   1.988   1.537  0.5295 -0.6855  0.0849
 7515SOL    HW128989   0.876   1.903   1.565  0.7270 -0.1239  1.5405
 7515SOL    HW228990   0.810   2.042   1.619  0.2601  0.5898 -0.8198
 7516SOL     OW28991   3.733   3.774   2.354  0.4048 -0.3243 -0.0891
 7516SOL    HW128992   3.789   3.696   2.381 -0.8066 -0.2642  2.7671
 7516SOL    HW228993   3.782   3.859   2.371  0.3021 -0.3434  0.3035
 7517SOL     OW28994   4.033   2.605   1.905  0.0223  0.2023 -0.4022
 7517SOL    HW128995   4.130   2.583   1.917  0.3228  1.9999  0.6627
 7517SOL    HW228996   4.019   2.647   1.816  0.1790 -0.2678 -0.6501
 7518SOL     OW28997   2.911   0.813   1.322  0.2696  0.0726  0.2461
 7518SOL    HW128998   2.887   0.818   1.225 -0.7192  0.1200  0.4928
 7518SOL    HW228999   2.908   0.905   1.361  4.7374  0.7228 -0.6240
 7519SOL     OW29000   8.314   4.397   0.142 -0.2293  0.3743  0.2678
 7519SOL    HW129001   8.390   4.386   0.205 -1.0388  1.8668  1.5446
 7519SOL    HW229002   8.228   4.396   0.192 -1.0644 -1.1744 -1.1508
 7521SOL     OW29003   7.076   2.751   3.274  0.1437 -0.2276  0.1058
 7521SOL    HW129004   7.076   2.778   3.178  0.0581 -0.3850  0.0620
 7521SOL    HW229005   6.984   2.761   3.311 -0.4928 -2.9912 -0.6157
 7522SOL     OW29006   8.000   0.637   1.479  0.3499  0.2947 -0.5103
 7522SOL    HW129007   7.975   0.552   1.431 -0.8666  1.3422 -1.7694
 7522SOL    HW229008   8.017   0.709   1.412 -0.7370  1.6155  0.6209
 7523SOL     OW29009   0.330   1.632   1.180  0.4113 -0.2929 -0.1632
 7523SOL    HW129010   0.346   1.659   1.275 -0.7808 -1.4801  0.3893
 7523SOL    HW229011   0.416   1.607   1.137  1.0307  0.7592  0.4473
 7524SOL     OW29012   1.406   3.611   3.294 -0.1510  0.1475  0.0054
 7524SOL    HW129013   1.394   3.519   3.331  2.0198  0.4730  1.6042
 7524SOL    HW229014   1.352   3.620   3.211  1.3083 -3.3355 -1.4482
 7527SOL     OW29015   2.580   7.918   1.998  0.1173  0.3393  0.1379
 7527SOL    HW129016   2.649   7.925   1.925 -0.2549 -1.5453 -0.4138
 7527SOL    HW229017   2.532   7.831   1.990 -0.6438  0.5698  2.0256
 7528SOL     OW29018   5.200   6.307   2.303  1.0494  0.3897  0.0706
 7528SOL    HW129019   5.265   6.311   2.379  2.3755  1.6644 -1.1105
 7528SOL    HW229020   5.178   6.211   2.284  1.9622 -0.0204  1.0208
 7529SOL     OW29021   7.826   9.298   3.943 -0.2423  0.1151  0.1776
 7529SOL    HW129022   7.742   9.279   3.993  0.2666 -1.6386  0.4019
 7529SOL    HW229023   7.890   9.348   4.002 -0.7690  0.6340  0.3078
 7530SOL     OW29024   7.945   2.021   0.939  0.1963  0.3637  0.0541
 7530SOL    HW129025   8.000   2.103   0.921 -0.7837  1.0941  0.3248
 7530SOL    HW229026   7.978   1.945   0.883 -0.3421  1.5547 -1.9306
 7531SOL     OW29027   4.406   7.219   3.689  0.3693  0.0256 -0.4546
 7531SOL    HW129028   4.309   7.200   3.672  0.5653 -0.0719 -1.4695
 7531SOL    HW229029   4.450   7.137   3.725  0.1322 -0.0016 -0.2196
 7532SOL     OW29030   3.760   8.504   5.075 -0.2396  0.3250 -0.0711
 7532SOL    HW129031   3.695   8.434   5.045 -0.3410  0.4135 -0.0567
 7532SOL    HW229032   3.842   8.500   5.018 -1.3052  1.9216 -1.7724
 7533SOL     OW29033   9.589   6.555   1.962 -0.3499 -0.8121 -0.4638
 7533SOL    HW129034   9.501   6.513   1.939 -0.3988 -0.4482 -0.9384
 7533SOL    HW229035   9.632   6.504   2.036 -1.7167 -0.0238  0.8872
 7534SOL     OW29036   8.261   9.396   0.925  0.6083  0.3196 -0.3193
 7534SOL    HW129037   8.272   9.377   0.828 -1.0405  0.2033 -0.4932
 7534SOL    HW229038   8.285   9.314   0.978  1.0257  0.2291 -0.6465
 7538SOL     OW29039   1.472   3.362   4.879  0.9505  0.1905  0.4046
 7538SOL    HW129040   1.490   3.355   4.780  0.9147 -1.0868  0.4848
 7538SOL    HW229041   1.517   3.443   4.915  2.6381 -0.4207 -0.2866
 7539SOL     OW29042   2.049   8.770   4.920  0.2900  0.2665 -0.0246
 7539SOL    HW129043   2.125   8.776   4.855  0.8091 -0.8788  0.4619
 7539SOL    HW229044   1.988   8.696   4.893  0.4525 -0.1480  0.7365
 7540SOL     OW29045   2.980   2.390   3.242  0.3109  0.8684 -0.5419
 7540SOL    HW129046   2.996   2.463   3.309 -0.7006  0.9673 -0.4058
 7540SOL    HW229047   2.898   2.410   3.188 -0.4257 -0.5388  0.0165
 7541SOL     OW29048   3.954   1.851   3.257  0.1656  0.3204 -0.1683
 7541SOL    HW129049   3.934   1.801   3.342  2.2492  1.8968  1.3112
 7541SOL    HW229050   4.053   1.855   3.243 -0.0628  1.9158 -1.5539
 7542SOL     OW29051   0.911   9.404   3.955 -0.1784  0.2746 -0.1253
 7542SOL    HW129052   0.871   9.325   4.001  0.5147  0.5537  0.9764
 7542SOL    HW229053   0.902   9.485   4.013  1.3543  0.4819 -0.1532
 7543SOL     OW29054   9.501   8.548   5.148 -0.4762 -0.3880  0.3455
 7543SOL    HW129055   9.500   8.497   5.234  0.1204 -0.6478  0.2003
 7543SOL    HW229056   9.504   8.483   5.072 -0.3691 -0.1489  0.1450
 7544SOL     OW29057   7.960   9.022   1.889 -0.1684 -0.0935  0.1971
 7544SOL    HW129058   8.049   9.061   1.866  0.5898 -1.1129  1.3622
 7544SOL    HW229059   7.972   8.936   1.937 -1.8186 -1.0308 -1.0143
 7545SOL     OW29060   0.702   7.865   4.092 -0.0566 -0.5073  0.4046
 7545SOL    HW129061   0.662   7.827   4.008  2.0236  0.7818 -1.2125
 7545SOL    HW229062   0.801   7.852   4.090  0.3967  2.4771  1.1172
 7546SOL     OW29063   7.000   0.638   3.016  0.3059 -0.3820  0.1850
 7546SOL    HW129064   6.926   0.608   3.077 -0.2488  1.5438  0.5030
 7546SOL    HW229065   6.960   0.690   2.940  1.2719 -0.0495 -0.0942
 7548SOL     OW29066   2.195   7.471   5.215  0.5932 -0.2694  0.6510
 7548SOL    HW129067   2.143   7.410   5.154  1.7863 -0.4576 -0.2014
 7548SOL    HW229068   2.181   7.442   5.310 -1.9445  0.5373  0.5540
 7549SOL     OW29069   9.151   1.628   1.413  0.4374  0.2975  0.4491
 7549SOL    HW129070   9.091   1.552   1.437  1.4177 -0.5535  0.2570
 7549SOL    HW229071   9.241   1.613   1.454  1.3515  0.1362 -1.5880
 7550SOL     OW29072   7.245   1.278   2.543  0.0771  0.4022  0.2271
 7550SOL    HW129073   7.245   1.377   2.527 -1.2088  0.3299 -0.2862
 7550SOL    HW229074   7.322   1.254   2.603  0.1272  1.7671  0.7333
 7551SOL     OW29075   6.960   0.447   1.089 -0.0282  0.0508  0.0884
 7551SOL    HW129076   6.930   0.536   1.056 -0.0689  0.0573  0.1419
 7551SOL    HW229077   6.949   0.378   1.017  2.1720  0.5258 -0.7444
 7553SOL     OW29078   5.276   0.488   1.526  0.3339  0.4031  0.4600
 7553SOL    HW129079   5.272   0.516   1.430  0.5660  0.4793  0.4745
 7553SOL    HW229080   5.249   0.392   1.533  1.3666  0.0870  0.1886
 7554SOL     OW29081   1.034   6.599   2.505  0.4262  0.3053  0.2501
 7554SOL    HW129082   1.057   6.502   2.490 -2.4730 -0.1319 -1.8572
 7554SOL    HW229083   1.089   6.655   2.443  2.7525  0.1303  2.0870
 7555SOL     OW29084   6.017   0.046   5.150 -0.3012 -0.3437  0.5046
 7555SOL    HW129085   5.946   0.005   5.207 -1.5965  0.0506 -0.7889
 7555SOL    HW229086   6.019  -0.002   5.062 -0.6834  1.2700 -0.3930
 7556SOL     OW29087   3.261   0.999   3.246  0.5691  0.2226 -0.3848
 7556SOL    HW129088   3.282   1.085   3.198 -0.9342  0.9109  0.1729
 7556SOL    HW229089   3.284   1.009   3.342 -0.1669  0.1928 -0.2090
 7557SOL     OW29090   6.709   7.525   2.951 -0.0108  0.0554 -0.2300
 7557SOL    HW129091   6.721   7.575   3.037 -1.4037  1.7774 -1.0110
 7557SOL    HW229092   6.614   7.495   2.943  0.6614 -2.2684 -0.0625
 7558SOL     OW29093   0.794   6.748   3.462 -0.0474  0.1456  0.2526
 7558SOL    HW129094   0.885   6.720   3.432  0.0111  0.6627 -0.0515
 7558SOL    HW229095   0.745   6.669   3.499 -0.0652 -0.4700 -1.0590
 7559SOL     OW29096   1.431   8.357   1.137  0.0742  0.9490  0.2394
 7559SOL    HW129097   1.504   8.375   1.071 -0.6379  0.5380 -0.6754
 7559SOL    HW229098   1.365   8.432   1.135 -0.1956  0.7098  0.1318
 7560SOL     OW29099   9.779   6.766   4.328 -0.6075 -0.2643  0.0736
 7560SOL    HW129100   9.857   6.705   4.333 -1.1212 -0.8879  0.4773
 7560SOL    HW229101   9.810   6.861   4.332  0.2777 -0.4595 -1.5626
 7561SOL     OW29102   1.073   4.756   0.089  0.3157  0.2211 -0.2556
 7561SOL    HW129103   1.162   4.754   0.045  0.7871  0.3884  0.6759
 7561SOL    HW229104   1.085   4.757   0.189 -0.7378 -1.3105 -0.0925
 7562SOL     OW29105   1.703   7.617   0.515 -0.0975 -0.2796  0.4718
 7562SOL    HW129106   1.638   7.541   0.503  0.1826 -0.4395 -0.0432
 7562SOL    HW229107   1.698   7.678   0.436  0.2199 -0.1716  0.5367
 7565SOL     OW29108   8.794   7.833   1.288  0.3082  0.1126  0.5579
 7565SOL    HW129109   8.786   7.744   1.333 -0.0224 -1.0194 -1.6375
 7565SOL    HW229110   8.855   7.824   1.209 -0.7055  1.5451 -0.4032
 7566SOL     OW29111   2.935   0.938   4.725  0.2904 -0.0757 -0.0544
 7566SOL    HW129112   3.029   0.970   4.734 -0.4053  1.8214  0.5531
 7566SOL    HW229113   2.906   0.947   4.629  0.5106 -0.0911 -0.1230
 7567SOL     OW29114   1.235   9.321   1.050  0.2530  0.0825  0.6776
 7567SOL    HW129115   1.178   9.398   1.022  0.7306  0.7404  1.4864
 7567SOL    HW229116   1.219   9.301   1.147  1.5169  0.3789  0.9523
 7569SOL     OW29117   8.429   2.020   5.200 -0.3437  0.0855  0.6904
 7569SOL    HW129118   8.409   2.063   5.112  3.2440 -0.2010 -0.3277
 7569SOL    HW229119   8.421   2.089   5.273  0.6180  1.3053 -0.3494
 7571SOL     OW29120   7.855   8.505   3.453  0.4538 -0.5644  0.1341
 7571SOL    HW129121   7.875   8.590   3.501  0.3606 -0.8674  0.7207
 7571SOL    HW229122   7.757   8.501   3.431  0.4147 -0.6287  0.3209
 7572SOL     OW29123   7.884   3.116   3.202 -0.3921  0.6681 -0.7031
 7572SOL    HW129124   7.870   3.020   3.178  0.4939  0.3068  0.1408
 7572SOL    HW229125   7.843   3.134   3.292  1.7486  0.3666  0.3761
 7573SOL     OW29126   8.810   2.415   2.633 -0.1078 -0.6024  0.6935
 7573SOL    HW129127   8.837   2.454   2.721  0.9091 -0.6471  0.4000
 7573SOL    HW229128   8.735   2.350   2.647 -0.6152  0.1227  1.3986
 7574SOL     OW29129   0.542   9.252   3.448 -0.0488  0.2122 -0.2490
 7574SOL    HW129130   0.573   9.332   3.398 -1.3993  0.5399 -0.5674
 7574SOL    HW229131   0.582   9.169   3.407  0.8344  0.6564 -0.3079
 7576SOL     OW29132   9.947   2.273   4.527  0.0327 -0.0420 -0.0197
 7576SOL    HW129133  10.042   2.242   4.537 -0.5649 -1.7269  0.7600
 7576SOL    HW229134   9.912   2.246   4.437  0.3868  0.8365 -0.4186
 7577SOL     OW29135   6.821   1.819   1.908  0.1141  0.0065  0.3013
 7577SOL    HW129136   6.916   1.842   1.885  0.2734 -0.6619  0.2794
 7577SOL    HW229137   6.820   1.739   1.969 -0.5197 -1.5729 -1.7297
 7578SOL     OW29138   8.531   8.023   4.255 -0.0095 -0.5536 -0.4358
 7578SOL    HW129139   8.461   7.952   4.245  0.5008 -1.3299  1.2935
 7578SOL    HW229140   8.590   8.001   4.333  1.4182  0.7211 -1.1286
 7579SOL     OW29141   9.842   6.599   2.191 -0.2492 -0.3991  0.2518
 7579SOL    HW129142   9.930   6.595   2.142 -0.2168 -0.1715  0.2910
 7579SOL    HW229143   9.840   6.681   2.248 -1.3141  0.6703 -1.3075
 7581SOL     OW29144   9.294   8.886   0.036 -0.2347 -0.6670  1.2060
 7581SOL    HW129145   9.238   8.819   0.084 -0.1503 -1.0744  0.7312
 7581SOL    HW229146   9.388   8.853   0.030 -0.5708 -1.3357 -0.6312
 7583SOL     OW29147   1.750   3.222   1.328 -0.2497  0.3825 -0.3989
 7583SOL    HW129148   1.690   3.205   1.406 -0.9017  0.0612 -0.9673
 7583SOL    HW229149   1.759   3.320   1.313 -1.1326  0.4189 -0.7007
 7585SOL     OW29150   9.577   2.077   0.897 -0.1923 -0.0133  0.1898
 7585SOL    HW129151   9.486   2.075   0.937  0.8498 -0.0005  2.6099
 7585SOL    HW229152   9.639   2.130   0.955  1.5474 -0.6115 -1.0526
 7586SOL     OW29153   3.257   2.608   4.646  0.1303 -0.2008 -0.2452
 7586SOL    HW129154   3.233   2.679   4.581 -0.2956 -1.0058 -0.9655
 7586SOL    HW229155   3.274   2.522   4.598  0.5746 -0.6098  0.6229
 7587SOL     OW29156   2.458   7.902   0.205  0.0652  0.6197 -0.2552
 7587SOL    HW129157   2.454   7.886   0.303  0.3173  0.2515 -0.3026
 7587SOL    HW229158   2.512   7.829   0.162 -0.8598  0.2369 -0.7844
 7589SOL     OW29159   2.954   2.114   2.998 -0.1057 -0.1137  0.6632
 7589SOL    HW129160   3.016   2.191   3.013  0.8220 -0.9253  1.0632
 7589SOL    HW229161   2.875   2.121   3.059  0.1244  0.3615  0.9072
 7590SOL     OW29162   1.553   3.857   0.545 -0.0281 -0.5671 -0.4176
 7590SOL    HW129163   1.545   3.863   0.645 -1.0582 -0.0778 -0.5159
 7590SOL    HW229164   1.536   3.947   0.506  1.9433 -0.4157 -0.9488
 7591SOL     OW29165   3.642   8.255   4.581  0.0654  0.6609  0.6016
 7591SOL    HW129166   3.671   8.308   4.502 -0.0629  1.2757  0.9616
 7591SOL    HW229167   3.591   8.314   4.644 -1.0357 -0.1516  0.4798
 7593SOL     OW29168   2.010   8.616   1.600  0.0960 -0.5485 -0.0519
 7593SOL    HW129169   1.957   8.699   1.616 -1.6578 -1.3419 -1.5516
 7593SOL    HW229170   2.074   8.603   1.675 -0.5761  1.4087  0.9036
 7594SOL     OW29171   5.321   4.552   1.448  0.1439  0.0421 -0.5039
 7594SOL    HW129172   5.331   4.479   1.516  0.1267 -1.0760 -1.6785
 7594SOL    HW229173   5.398   4.615   1.455 -0.0845  0.1829  0.8388
 7595SOL     OW29174   9.061   1.685   0.536 -0.4859  0.4479  0.5737
 7595SOL    HW129175   8.987   1.747   0.562  1.0790  1.9950  1.4168
 7595SOL    HW229176   9.107   1.719   0.454 -0.1519 -0.0485  0.5483
 7596SOL     OW29177   6.610   1.361   5.035  0.1748 -0.1019 -0.4983
 7596SOL    HW129178   6.515   1.342   5.057 -0.6101 -1.0912 -4.4918
 7596SOL    HW229179   6.657   1.276   5.011  1.5782  0.6158 -0.3768
 7598SOL     OW29180   0.743   7.220   0.995  0.4889 -0.1256  0.0636
 7598SOL    HW129181   0.790   7.143   1.038  0.4069  0.2661  0.8566
 7598SOL    HW229182   0.799   7.303   1.005 -1.3216  0.8377  2.9741
 7599SOL     OW29183   6.833   9.829   2.965 -0.4975  0.4668 -0.2283
 7599SOL    HW129184   6.773   9.750   2.955  0.1226 -0.3142  1.9106
 7599SOL    HW229185   6.801   9.885   3.042  1.5622 -0.0438  1.0387
 7600SOL     OW29186   0.582   9.722   3.564  0.2054  0.1568  0.7944
 7600SOL    HW129187   0.588   9.814   3.601  1.2647  0.5777 -0.4083
 7600SOL    HW229188   0.488   9.689   3.572 -0.4926  1.8820 -0.0752
 7601SOL     OW29189   8.179   9.310   3.287 -0.2099  0.7943 -0.2561
 7601SOL    HW129190   8.202   9.334   3.193 -0.6305 -0.5111 -0.7018
 7601SOL    HW229191   8.262   9.301   3.341  0.4384 -3.4492 -1.7458
 7602SOL     OW29192   9.715   5.808   4.767 -0.4733 -0.5605  0.0089
 7602SOL    HW129193   9.787   5.857   4.815 -1.1447  0.0793  0.3784
 7602SOL    HW229194   9.731   5.811   4.668 -0.5169  0.4115  0.0300
 7604SOL     OW29195   1.339   7.326   2.263 -0.1592  0.4585 -0.0322
 7604SOL    HW129196   1.388   7.403   2.224 -1.3991  0.4387 -1.6613
 7604SOL    HW229197   1.240   7.338   2.250 -0.3546 -1.6115 -0.7635
 7605SOL     OW29198   9.401   7.226   4.696  0.0568  0.0675  0.1519
 7605SOL    HW129199   9.348   7.309   4.712  1.8431  1.4127 -0.7322
 7605SOL    HW229200   9.486   7.249   4.648  1.1517 -2.1055  0.9584
 7606SOL     OW29201   8.330   0.096   3.039 -0.3791 -0.0974  0.2020
 7606SOL    HW129202   8.407   0.147   3.077 -0.4663 -0.7729  1.3113
 7606SOL    HW229203   8.272   0.158   2.987  0.3896  0.6082  0.1735
 7607SOL     OW29204   4.095   2.192   2.732  0.3979  0.5605  0.2533
 7607SOL    HW129205   4.137   2.104   2.754  1.8232  1.0179 -0.5331
 7607SOL    HW229206   4.058   2.233   2.815  1.0797 -0.0854  0.8867
 7608SOL     OW29207   1.987   7.576   1.286  0.2732 -0.0205 -0.1985
 7608SOL    HW129208   1.939   7.503   1.237  0.1965  0.3466 -0.6666
 7608SOL    HW229209   2.038   7.633   1.221 -0.4069  0.9011  0.0708
 7609SOL     OW29210   2.796   3.876   5.237  0.0413  0.2454 -0.4730
 7609SOL    HW129211   2.870   3.933   5.272  1.0238  0.3442 -2.6227
 7609SOL    HW229212   2.834   3.805   5.178 -1.5736  0.3393 -1.6591
 7610SOL     OW29213   2.207   6.686   0.118 -0.0486  0.8648 -0.1785
 7610SOL    HW129214   2.227   6.744   0.039 -1.6893 -2.1737 -2.9637
 7610SOL    HW229215   2.277   6.616   0.126 -1.0928 -0.2002 -0.3251
 7611SOL     OW29216   6.501   8.547   2.605 -0.1154  0.5076  0.3407
 7611SOL    HW129217   6.543   8.565   2.516  1.4524 -1.9921  0.5221
 7611SOL    HW229218   6.440   8.468   2.598  1.6804 -1.0935  1.8790
 7614SOL     OW29219   9.600   1.952   1.860 -0.2868  0.1236  0.0944
 7614SOL    HW129220   9.604   1.953   1.760 -0.8940  0.9818  0.0769
 7614SOL    HW229221   9.553   2.034   1.892 -1.5430 -0.9427  1.0255
 7616SOL     OW29222   9.440   8.662   2.400 -0.2825  0.1484  0.3447
 7616SOL    HW129223   9.456   8.601   2.478  1.0522 -1.7104 -1.3307
 7616SOL    HW229224   9.506   8.641   2.328 -3.9160 -0.8270 -2.8220
 7618SOL     OW29225   9.633   3.749   5.250 -0.4351 -0.1768 -0.0298
 7618SOL    HW129226   9.597   3.753   5.343  1.3090 -0.9095  0.7104
 7618SOL    HW229227   9.561   3.771   5.184 -2.5711 -2.8498  1.2936
 7619SOL     OW29228   9.971   0.348   2.600 -0.7337  0.5627  0.3695
 7619SOL    HW129229   9.983   0.302   2.513  1.2914  2.2231 -0.2761
 7619SOL    HW229230   9.873   0.355   2.621 -1.2034 -0.7058 -1.2712
 7620SOL     OW29231   5.203   8.747   3.773  0.0189 -0.0436  0.0701
 7620SOL    HW129232   5.137   8.789   3.835  0.4199  0.6904  0.0042
 7620SOL    HW229233   5.193   8.647   3.776 -1.4822  0.0835 -0.3803
 7622SOL     OW29234   2.655   2.576   2.835 -0.3584  0.0224 -0.2256
 7622SOL    HW129235   2.609   2.489   2.814  2.0789 -1.2507 -0.5424
 7622SOL    HW229236   2.591   2.651   2.823 -1.8404 -1.5116 -2.5267
 7623SOL     OW29237   9.235   1.181   1.792  0.0680  0.0365  0.2595
 7623SOL    HW129238   9.329   1.214   1.803 -0.0246  0.3142  0.2082
 7623SOL    HW229239   9.233   1.106   1.727  0.3661 -0.4527  0.8054
 7624SOL     OW29240   5.219   9.902   2.452 -0.0358 -0.2872  0.2306
 7624SOL    HW129241   5.201   9.807   2.426  2.8456 -0.7200 -0.3597
 7624SOL    HW229242   5.306   9.931   2.412  0.0067  2.0227  1.9350
 7626SOL     OW29243   8.410   5.985   4.307  0.2685  0.4102  0.0486
 7626SOL    HW129244   8.419   5.995   4.406 -0.6597  0.8810  0.0986
 7626SOL    HW229245   8.434   6.072   4.263  1.3257 -0.0007 -0.1876
 7627SOL     OW29246   9.903   6.853   2.995 -0.1931 -0.2736  0.0328
 7627SOL    HW129247   9.860   6.912   2.927 -1.1754  1.2548  1.9314
 7627SOL    HW229248  10.002   6.849   2.979 -0.6941 -1.9676 -2.9703
 7628SOL     OW29249   2.126   7.478   4.479  0.0458 -0.2239 -0.0243
 7628SOL    HW129250   2.189   7.555   4.464 -0.4346  0.0135 -0.8723
 7628SOL    HW229251   2.045   7.491   4.422 -0.3521 -1.0078  0.3657
 7629SOL     OW29252   8.083   3.579   3.276 -0.1713 -0.0769 -0.5131
 7629SOL    HW129253   8.062   3.643   3.201 -0.0918  0.8292  0.2318
 7629SOL    HW229254   8.127   3.629   3.351  0.0450 -1.0452  0.0087
 7630SOL     OW29255   4.970   7.548   3.433 -0.2678  0.4693  0.1220
 7630SOL    HW129256   5.049   7.507   3.478 -0.9859 -0.6270  0.4101
 7630SOL    HW229257   4.915   7.597   3.501  0.4740  1.7555 -0.1837
 7631SOL     OW29258   2.723   7.531   3.216  0.3432  0.3299  0.2308
 7631SOL    HW129259   2.783   7.510   3.293  1.0002  0.9686 -0.1003
 7631SOL    HW229260   2.734   7.462   3.145 -1.7788 -1.4374  1.5320
 7632SOL     OW29261   2.164   8.443   3.484 -0.0666 -0.2819  0.2061
 7632SOL    HW129262   2.105   8.462   3.405  0.6483  0.5126 -0.1435
 7632SOL    HW229263   2.132   8.496   3.562 -0.5160 -0.7415  0.3369
 7633SOL     OW29264   9.473   4.169   0.333 -0.1143  0.3516 -0.4489
 7633SOL    HW129265   9.390   4.207   0.374  0.1419 -0.5941  1.0085
 7633SOL    HW229266   9.455   4.141   0.239 -1.4396  0.1910 -0.1511
 7635SOL     OW29267   4.550   2.117   1.515 -0.5232  0.1552  0.1785
 7635SOL    HW129268   4.556   2.143   1.611  5.2257 -1.2857  0.4146
 7635SOL    HW229269   4.534   2.019   1.508 -1.7711  0.3933 -0.3646
 7636SOL     OW29270   7.297   1.932   4.350 -0.0008  0.9168  0.0622
 7636SOL    HW129271   7.211   1.965   4.389 -0.6007 -1.0273  0.3906
 7636SOL    HW229272   7.373   1.981   4.393 -0.8133  0.9737  1.4619
 7637SOL     OW29273   7.405   1.057   3.677 -0.7151  0.0234 -0.4043
 7637SOL    HW129274   7.489   1.104   3.706 -0.2910 -1.4521  0.8438
 7637SOL    HW229275   7.328   1.093   3.729 -0.1877 -1.5438  1.5314
 7638SOL     OW29276   2.517   7.238   5.306  0.0534 -0.8223 -0.2464
 7638SOL    HW129277   2.599   7.186   5.328  0.0710 -0.7826 -0.2187
 7638SOL    HW229278   2.437   7.178   5.311  0.3396 -1.4665 -2.6262
 7639SOL     OW29279   0.821   4.418   1.650  0.5736  0.1416  0.8410
 7639SOL    HW129280   0.919   4.420   1.666  0.5574 -1.2320  1.1843
 7639SOL    HW229281   0.773   4.399   1.735  0.1754 -1.6947  0.2364
 7641SOL     OW29282   6.329   0.493   0.898 -0.2286 -0.1383  0.5313
 7641SOL    HW129283   6.338   0.592   0.911 -1.0013 -0.1323  1.0133
 7641SOL    HW229284   6.420   0.455   0.879  0.0234  0.7078 -0.0235
 7642SOL     OW29285   1.417   5.826   5.022 -0.2933  0.3032  0.0937
 7642SOL    HW129286   1.476   5.895   5.065 -0.4697 -0.6020  1.8230
 7642SOL    HW229287   1.343   5.872   4.974  0.9987  1.4030 -0.8917
 7643SOL     OW29288   0.412   8.798   1.022 -0.3797  0.2032  0.2038
 7643SOL    HW129289   0.473   8.770   0.948 -1.8061 -1.0893 -0.5154
 7643SOL    HW229290   0.355   8.720   1.049 -0.8360  1.0449  1.7299
 7644SOL     OW29291   3.771   5.102   4.712  0.5866 -0.0626  0.3680
 7644SOL    HW129292   3.692   5.042   4.726  0.9018 -0.3325  0.9835
 7644SOL    HW229293   3.855   5.048   4.718  0.7908  0.0452 -1.2251
 7645SOL     OW29294   9.033   9.713   2.665  0.1735  0.1556  0.6929
 7645SOL    HW129295   9.113   9.686   2.612 -0.0439  0.5727  0.1425
 7645SOL    HW229296   9.051   9.699   2.763  0.4512 -0.9297  0.4867
 7648SOL     OW29297   3.869   8.568   1.140  0.2921  0.3017 -0.2826
 7648SOL    HW129298   3.779   8.600   1.171 -0.0662 -0.3402 -0.6393
 7648SOL    HW229299   3.872   8.468   1.144  0.7532  0.2854 -0.9080
 7649SOL     OW29300   2.601   2.032   2.988 -0.2708 -0.1767 -0.0411
 7649SOL    HW129301   2.672   2.016   2.920 -0.1309 -0.7212  0.2303
 7649SOL    HW229302   2.640   2.082   3.066  0.1926 -1.8419  0.8101
 7650SOL     OW29303   9.297   7.601   0.453  0.4115  0.4360 -0.2149
 7650SOL    HW129304   9.258   7.691   0.470 -0.6825 -0.0510 -0.1383
 7650SOL    HW229305   9.349   7.602   0.367  2.3295  1.7446  0.9278
 7651SOL     OW29306   8.647   8.408   2.204 -0.1018 -0.6668 -0.4612
 7651SOL    HW129307   8.709   8.334   2.177  1.3217  0.3971 -0.1190
 7651SOL    HW229308   8.669   8.491   2.153  2.0505  1.1372  3.1708
 7652SOL     OW29309   1.630   7.846   5.013 -0.1025  0.1407 -0.7205
 7652SOL    HW129310   1.703   7.786   5.045 -1.6980 -0.7363  1.3345
 7652SOL    HW229311   1.607   7.912   5.084 -2.3158 -0.5307 -0.7845
 7653SOL     OW29312   2.895   9.547   0.144 -0.1588 -0.0596 -0.9458
 7653SOL    HW129313   2.830   9.532   0.218 -2.7700 -0.3186 -3.2177
 7653SOL    HW229314   2.899   9.645   0.122  1.2151  0.1168  0.0500
 7654SOL     OW29315   5.430   8.768   3.598 -0.4807  0.3945  0.0394
 7654SOL    HW129316   5.349   8.754   3.655 -0.2001  0.9163  0.5724
 7654SOL    HW229317   5.512   8.766   3.656 -0.0229 -1.1699 -0.6380
 7655SOL     OW29318   3.076   8.085   4.343  0.3730 -0.1874 -0.4277
 7655SOL    HW129319   3.129   8.034   4.411 -0.1160  0.7555  0.6785
 7655SOL    HW229320   3.005   8.026   4.306 -0.9822  0.0262  1.7517
 7656SOL     OW29321   0.205   4.075   0.395  0.2321  0.0751  0.1352
 7656SOL    HW129322   0.115   4.057   0.357 -0.1246 -0.2375  1.1183
 7656SOL    HW229323   0.239   3.992   0.440  0.5478  0.5097  0.7007
 7657SOL     OW29324   4.249   1.261   4.481  0.2877  0.3822 -0.6242
 7657SOL    HW129325   4.179   1.259   4.552  0.5234  1.7020 -0.3365
 7657SOL    HW229326   4.282   1.168   4.464 -0.4822 -0.0652  0.2717
 7658SOL     OW29327   8.607   6.984   2.910  0.4098  0.0616  0.1540
 7658SOL    HW129328   8.591   7.067   2.857 -0.1299  0.7883  1.4151
 7658SOL    HW229329   8.572   6.905   2.861 -2.9780  1.0844  0.8024
 7659SOL     OW29330   9.884   8.226   2.415  0.1012 -0.0657 -0.3912
 7659SOL    HW129331   9.928   8.315   2.422 -1.3023  0.5850  0.1561
 7659SOL    HW229332   9.931   8.172   2.345  0.7500  1.2034 -0.9556
 7660SOL     OW29333   1.204   4.534   4.168 -0.0587  0.0852  0.5687
 7660SOL    HW129334   1.151   4.619   4.168 -0.8824 -0.4101 -1.2264
 7660SOL    HW229335   1.298   4.554   4.198 -0.0743  1.7418 -0.3719
 7662SOL     OW29336   8.849   4.247   3.925  0.1848  0.4936 -0.1945
 7662SOL    HW129337   8.947   4.244   3.942  0.3958 -1.1569 -1.6724
 7662SOL    HW229338   8.825   4.335   3.884  1.4709 -0.1179 -2.3086
 7663SOL     OW29339   7.245   1.556   2.540 -0.0556  0.2543 -0.3043
 7663SOL    HW129340   7.332   1.539   2.585 -0.0406 -2.1455 -1.1845
 7663SOL    HW229341   7.258   1.621   2.465  1.1330 -0.7421 -0.9728
 7664SOL     OW29342   5.307   6.416   2.086  0.0932 -0.2818 -0.6058
 7664SOL    HW129343   5.246   6.440   2.011  0.0693  0.4900 -0.3402
 7664SOL    HW229344   5.254   6.389   2.166  0.0318  2.1734  0.2328
 7665SOL     OW29345   5.166   9.261   1.725  0.2046  0.3668 -0.5918
 7665SOL    HW129346   5.120   9.176   1.700 -1.6981  1.3287 -0.4773
 7665SOL    HW229347   5.186   9.260   1.823  0.0061  0.1277 -0.5525
 7666SOL     OW29348   6.574   9.091   3.570 -0.4204 -0.0595 -0.0490
 7666SOL    HW129349   6.566   9.189   3.588  1.2811  0.1272 -0.2425
 7666SOL    HW229350   6.486   9.056   3.538 -1.0693  1.3890  0.1108
 7667SOL     OW29351   1.414   7.300   2.612  0.2622 -0.0778  0.1596
 7667SOL    HW129352   1.449   7.253   2.530 -1.8260  1.9336 -1.9588
 7667SOL    HW229353   1.412   7.398   2.596 -2.3834  0.1749  1.7581
 7669SOL     OW29354   7.479   1.460   2.658 -0.3820  0.2575  0.2939
 7669SOL    HW129355   7.541   1.461   2.579 -1.8833 -0.7494 -0.9508
 7669SOL    HW229356   7.527   1.489   2.740  1.5625  0.0828 -0.7718
 7670SOL     OW29357   1.560   7.374   4.785 -0.1843  0.8110 -0.0001
 7670SOL    HW129358   1.586   7.349   4.692  0.6949  3.2159 -0.4388
 7670SOL    HW229359   1.628   7.436   4.824 -1.4553  1.2574  1.5868
 7671SOL     OW29360   4.381   9.336   2.891  0.0905 -0.0694  0.6387
 7671SOL    HW129361   4.346   9.247   2.918 -0.8021  0.6610  1.9682
 7671SOL    HW229362   4.387   9.341   2.791 -0.6882 -1.2931  0.5200
 7673SOL     OW29363   7.031   0.077   1.597  0.2490 -0.1376 -0.2497
 7673SOL    HW129364   7.015   0.031   1.510  1.2395 -0.6840 -0.1563
 7673SOL    HW229365   7.001   0.172   1.591 -1.0347 -0.5657 -0.7189
 7674SOL     OW29366   0.722   0.380   1.143 -0.3170 -0.4704  0.3857
 7674SOL    HW129367   0.783   0.414   1.215  0.0282  1.8760 -0.9507
 7674SOL    HW229368   0.775   0.359   1.062 -0.8818 -1.7389  0.3366
 7675SOL     OW29369   6.129   7.363   4.290  0.3186  0.2511  0.0339
 7675SOL    HW129370   6.184   7.331   4.213 -0.9992  0.1024 -0.8764
 7675SOL    HW229371   6.149   7.307   4.371  0.0805 -1.0836 -0.8086
 7676SOL     OW29372   0.989   9.191   0.436 -0.1663  0.0649 -0.5599
 7676SOL    HW129373   0.970   9.167   0.531  2.3027  0.3973  0.0574
 7676SOL    HW229374   1.000   9.290   0.428  2.0818 -0.1649 -0.6769
 7677SOL     OW29375   0.255   2.371   2.360 -0.3747  0.0143 -0.1178
 7677SOL    HW129376   0.334   2.417   2.319 -1.0256  1.1742 -0.1070
 7677SOL    HW229377   0.265   2.370   2.460  0.5881 -1.6538 -0.2140
 7679SOL     OW29378   8.142   1.012   4.436 -0.1527  0.3036 -0.2531
 7679SOL    HW129379   8.206   1.024   4.512  0.5544 -0.6557 -0.6754
 7679SOL    HW229380   8.072   0.946   4.462  0.3400 -0.3583 -0.5673
 7680SOL     OW29381   3.054   8.579   2.770 -0.2417  0.6939  0.7356
 7680SOL    HW129382   3.098   8.667   2.752  1.6980 -0.4710 -0.5301
 7680SOL    HW229383   3.122   8.515   2.805 -1.4698 -0.4939  0.9721
 7681SOL     OW29384   6.031   2.235   3.715  0.3113 -0.2478 -0.1457
 7681SOL    HW129385   5.958   2.219   3.649  0.4898 -1.1583 -0.1242
 7681SOL    HW229386   6.108   2.281   3.670 -0.6435  1.5883  0.0445
 7683SOL     OW29387   5.203   1.507   3.836  0.3964 -0.5182  0.3079
 7683SOL    HW129388   5.137   1.479   3.767  0.2489  1.0169 -0.2015
 7683SOL    HW229389   5.295   1.484   3.806  0.3801  0.6406 -0.6802
 7685SOL     OW29390   0.397   4.214   2.592  0.1821  0.0867 -0.2619
 7685SOL    HW129391   0.417   4.260   2.679  0.9870  0.7545 -0.7919
 7685SOL    HW229392   0.475   4.158   2.565  0.2986  0.6011 -1.0029
 7686SOL     OW29393   8.836   0.981   4.983  0.1514 -0.0175  0.0195
 7686SOL    HW129394   8.755   1.029   4.949  0.2478 -0.7091 -1.1955
 7686SOL    HW229395   8.842   0.891   4.941  2.0432  0.3755 -0.6042
 7689SOL     OW29396   1.535   5.240   5.286  0.4455  0.2061 -0.3517
 7689SOL    HW129397   1.540   5.340   5.275  0.7080  0.2220 -0.0748
 7689SOL    HW229398   1.606   5.197   5.231  1.6028  0.2735  1.0527
 7690SOL     OW29399   7.461   0.489   4.086  0.2531 -0.6381  0.7869
 7690SOL    HW129400   7.431   0.418   4.022 -0.4151 -1.7600  2.3186
 7690SOL    HW229401   7.558   0.508   4.071  0.0255 -0.6206 -0.7982
 7691SOL     OW29402   4.373   7.700   3.812  0.0061 -0.0635  0.7184
 7691SOL    HW129403   4.425   7.638   3.754  0.4749  0.4869  0.5482
 7691SOL    HW229404   4.430   7.779   3.836 -1.0864  1.0627 -0.3402
 7693SOL     OW29405   9.273   7.718   1.157 -0.1721 -0.1789 -0.0934
 7693SOL    HW129406   9.268   7.680   1.065  0.0881 -1.3254  0.3512
 7693SOL    HW229407   9.343   7.789   1.161  3.1724 -3.3848  0.3256
 7694SOL     OW29408   3.338   8.636   3.654  0.2904 -0.1181  0.6681
 7694SOL    HW129409   3.349   8.594   3.564 -1.5398 -1.8982  1.2364
 7694SOL    HW229410   3.299   8.727   3.644  0.1221 -0.2994 -0.3592
 7695SOL     OW29411   0.792   0.304   2.506 -0.6509 -0.1821 -0.4887
 7695SOL    HW129412   0.746   0.273   2.590  0.3267  2.1145  0.9554
 7695SOL    HW229413   0.884   0.335   2.528 -1.4300  3.3697 -1.8207
 7697SOL     OW29414   4.030   3.108   5.215 -0.2636 -0.1572 -0.0015
 7697SOL    HW129415   4.074   3.075   5.131 -0.0194 -0.6941  0.3325
 7697SOL    HW229416   3.943   3.152   5.192  0.2261  0.5053 -0.6234
 7699SOL     OW29417   0.315   3.088   2.076 -0.0355 -0.3501 -0.0240
 7699SOL    HW129418   0.354   3.021   2.012  0.2656 -1.2780  1.1196
 7699SOL    HW229419   0.291   3.043   2.162  0.4311  1.0748  0.8719
 7700SOL     OW29420   4.856   2.805   4.080  0.1523 -0.1982  0.6601
 7700SOL    HW129421   4.922   2.864   4.125 -0.1474  0.4497  0.2590
 7700SOL    HW229422   4.798   2.859   4.019 -1.8022 -0.4722  2.2030
 7701SOL     OW29423   4.204   4.753   2.392  0.0038 -0.5307 -0.5489
 7701SOL    HW129424   4.242   4.700   2.467 -0.2969 -1.9061 -1.3469
 7701SOL    HW229425   4.240   4.846   2.395 -0.4397 -0.4012  1.6142
 7702SOL     OW29426   0.058   6.589   4.893  0.0147  0.1070 -0.8081
 7702SOL    HW129427   0.124   6.627   4.958  1.1158 -0.8346 -1.3504
 7702SOL    HW229428   0.056   6.489   4.902 -1.6958  0.1545 -0.4676
 7703SOL     OW29429   1.570   0.951   3.159 -0.2685 -0.6081  0.2859
 7703SOL    HW129430   1.620   0.895   3.224  0.4582 -0.1252  0.1448
 7703SOL    HW229431   1.501   1.005   3.207 -1.0998 -1.7495  0.4014
 7704SOL     OW29432   0.186   1.393   2.123  0.5420  1.0638  0.0462
 7704SOL    HW129433   0.235   1.455   2.184  1.0042  2.3475 -1.5783
 7704SOL    HW229434   0.245   1.369   2.046 -0.8521  1.4622 -1.1747
 7705SOL     OW29435   1.392   7.261   1.828  0.0621 -0.2318  0.3906
 7705SOL    HW129436   1.447   7.239   1.909  0.3673 -1.1694 -0.0598
 7705SOL    HW229437   1.349   7.350   1.840  2.5560  1.0338  0.3013
 7706SOL     OW29438   5.725   8.857   4.992  0.3226 -0.0857 -0.3291
 7706SOL    HW129439   5.740   8.949   4.955  1.6666 -0.2203 -0.1277
 7706SOL    HW229440   5.627   8.842   5.004  0.1769  2.0665  1.4849
 7707SOL     OW29441   9.804   4.832   3.647 -0.2216  0.1301  0.5930
 7707SOL    HW129442   9.836   4.789   3.562 -0.3720 -1.7051  1.4260
 7707SOL    HW229443   9.882   4.862   3.701 -0.1060  0.8473  0.0232
 7708SOL     OW29444   0.729   8.892   3.288  0.1265  0.2401 -0.1466
 7708SOL    HW129445   0.779   8.974   3.262  1.7266 -0.7979 -0.4040
 7708SOL    HW229446   0.748   8.870   3.383  1.8004 -1.2919 -0.8096
 7709SOL     OW29447   1.170   8.909   5.208 -0.0693 -0.0499 -0.3274
 7709SOL    HW129448   1.075   8.909   5.177  0.2267 -0.6369 -1.2466
 7709SOL    HW229449   1.227   8.863   5.141  0.6530 -0.9748  0.9099
 7710SOL     OW29450   2.254   0.730   2.210 -0.2608 -0.4114  0.1546
 7710SOL    HW129451   2.256   0.633   2.186 -1.3054 -0.1663 -1.0126
 7710SOL    HW229452   2.162   0.756   2.239  0.4423 -0.1592  2.2425
 7712SOL     OW29453   2.281   0.624   4.007 -0.0585 -0.1142  0.0033
 7712SOL    HW129454   2.213   0.633   3.934  0.4758  0.0592 -0.4827
 7712SOL    HW229455   2.235   0.615   4.095 -0.7174 -0.7587 -0.4039
 7713SOL     OW29456   2.408   7.665   2.531  0.3440  0.2722 -0.4394
 7713SOL    HW129457   2.442   7.758   2.546 -0.2162  0.5099 -0.6147
 7713SOL    HW229458   2.485   7.605   2.508  0.5586  0.9592 -1.6073
 7715SOL     OW29459   4.523   7.029   3.065  0.0434  0.5383  0.0820
 7715SOL    HW129460   4.543   6.972   3.144 -0.3083  1.2726  0.7039
 7715SOL    HW229461   4.424   7.035   3.052  0.1138  0.0301 -0.6999
 7717SOL     OW29462   1.110   9.644   2.796 -0.4185  0.2009  0.3384
 7717SOL    HW129463   1.203   9.672   2.775 -0.6586  1.0444  0.3564
 7717SOL    HW229464   1.047   9.686   2.731 -0.8432  0.1338  0.7031
 7718SOL     OW29465   3.743   9.590   0.180 -0.4493 -0.2107  0.0567
 7718SOL    HW129466   3.647   9.616   0.178 -0.4702 -0.2479  0.5583
 7718SOL    HW229467   3.755   9.507   0.235 -0.2347 -0.6524 -0.6486
 7720SOL     OW29468   4.910   1.382   2.007 -0.3842  0.2296 -0.5476
 7720SOL    HW129469   4.942   1.366   1.914  0.4739  3.9054 -0.9782
 7720SOL    HW229470   4.980   1.354   2.072  0.2027  0.3285 -1.1338
 7721SOL     OW29471   5.084   1.907   3.093 -0.0516  0.4798 -0.0214
 7721SOL    HW129472   5.144   1.870   3.164 -2.4451  0.3946  2.0049
 7721SOL    HW229473   5.030   1.982   3.131 -1.6508  0.1718 -1.6387
 7722SOL     OW29474   1.040   7.335   3.118  0.3311  0.0631  0.6437
 7722SOL    HW129475   1.111   7.402   3.138  1.7951 -1.0295 -0.7332
 7722SOL    HW229476   1.079   7.243   3.123 -1.0398 -0.5595  0.1066
 7723SOL     OW29477   2.994   7.505   1.114  0.5679  0.1264  0.0804
 7723SOL    HW129478   2.895   7.496   1.100  0.4594 -0.8736  1.3960
 7723SOL    HW229479   3.042   7.461   1.039  0.0157  0.3177 -0.3914
 7724SOL     OW29480   0.103   2.296   4.115  0.3572  0.2310  0.2166
 7724SOL    HW129481   0.198   2.317   4.091  0.8084 -1.9922 -0.0826
 7724SOL    HW229482   0.100   2.255   4.206 -0.7243  3.3972  1.6636
 7725SOL     OW29483   3.205   8.227   1.419  0.3200  0.2469 -0.0530
 7725SOL    HW129484   3.278   8.158   1.420  0.6775  0.6198  1.3309
 7725SOL    HW229485   3.152   8.220   1.505  0.2082  1.5352 -0.0129
 7726SOL     OW29486   3.661   6.511   4.389 -0.0120  0.2085  0.1269
 7726SOL    HW129487   3.664   6.414   4.414 -1.8958  0.1557  0.2170
 7726SOL    HW229488   3.658   6.520   4.290 -1.1236  0.1258  0.1504
 7727SOL     OW29489   0.026   0.688   0.370 -0.3271  0.1582  0.1918
 7727SOL    HW129490  -0.029   0.765   0.338 -1.2022  0.1224  1.6022
 7727SOL    HW229491   0.027   0.685   0.470  1.1670 -0.6175  0.1767
 7728SOL     OW29492   8.286   4.256   3.134  0.2439  0.1373  0.6215
 7728SOL    HW129493   8.355   4.284   3.202 -0.0806  2.5503  0.0066
 7728SOL    HW229494   8.195   4.275   3.171 -0.0045 -0.3687  0.2680
 7729SOL     OW29495   5.432   9.321   1.355 -0.7406 -0.4116 -0.3023
 7729SOL    HW129496   5.462   9.316   1.450  0.3595 -0.0133 -0.6229
 7729SOL    HW229497   5.491   9.263   1.299 -0.9424 -0.0888 -0.8493
 7730SOL     OW29498   0.795   4.690   3.186 -0.8791 -0.0320 -0.1818
 7730SOL    HW129499   0.714   4.680   3.244  0.2117  1.4273  1.6876
 7730SOL    HW229500   0.874   4.651   3.233 -0.0536  0.7999 -0.8512
 7732SOL     OW29501   7.723   7.667   3.557 -0.0275 -0.0458  0.7885
 7732SOL    HW129502   7.729   7.767   3.554 -0.5009 -0.0616 -1.2074
 7732SOL    HW229503   7.787   7.628   3.491 -1.9100 -0.9756 -0.5175
 7734SOL     OW29504   8.570   7.459   1.615  0.4777 -0.1253  0.4772
 7734SOL    HW129505   8.613   7.483   1.701 -1.5674  1.5928  1.0428
 7734SOL    HW229506   8.572   7.359   1.604 -0.7125 -0.5094  3.3076
 7735SOL     OW29507   3.453   6.950   2.854 -0.0910  0.0231  0.5773
 7735SOL    HW129508   3.443   6.951   2.953  1.0892  1.0765  0.6996
 7735SOL    HW229509   3.484   7.040   2.823  1.6499 -0.9235 -0.5141
 7736SOL     OW29510   8.660   7.631   0.919 -0.5120 -0.0556 -0.4384
 7736SOL    HW129511   8.561   7.623   0.930 -0.4770  0.6167  0.4474
 7736SOL    HW229512   8.705   7.612   1.007  0.2511 -2.0402 -1.2333
 7739SOL     OW29513   0.020   4.517   0.441 -0.9534  0.4088  0.1253
 7739SOL    HW129514   0.021   4.595   0.503 -1.3548  0.3277  0.2386
 7739SOL    HW229515  -0.016   4.545   0.352 -0.6827  0.4528  0.0302
 7740SOL     OW29516   8.680   5.048   3.752  0.0333  0.0870 -0.6144
 7740SOL    HW129517   8.755   4.995   3.712 -1.2751 -2.1008 -0.2084
 7740SOL    HW229518   8.683   5.041   3.851  0.5072  1.7291 -0.4892
 7741SOL     OW29519   2.032   0.259   2.684 -0.4397 -0.8869 -0.4315
 7741SOL    HW129520   2.062   0.170   2.647 -0.6742 -1.1431 -0.0072
 7741SOL    HW229521   2.014   0.322   2.608  0.0921 -1.0831 -0.7255
 7742SOL     OW29522   9.872   5.988   0.908  0.6495 -0.5482  0.2174
 7742SOL    HW129523   9.958   6.012   0.863  0.7517  0.9407  1.1975
 7742SOL    HW229524   9.886   5.983   1.007  0.0291 -2.1360  0.2473
 7743SOL     OW29525   1.339   9.806   4.461 -1.2235  0.2351 -0.8210
 7743SOL    HW129526   1.343   9.838   4.556 -0.1471  0.4856 -0.9408
 7743SOL    HW229527   1.291   9.718   4.458  0.0573 -0.5252  0.1736
 7744SOL     OW29528   1.558   5.656   4.852 -0.1932 -0.5584  0.0809
 7744SOL    HW129529   1.530   5.731   4.912 -1.7493  0.7845 -2.2471
 7744SOL    HW229530   1.556   5.687   4.757  1.3482 -2.9086 -0.7525
 7745SOL     OW29531   9.577   3.309   4.629 -0.2320 -0.8048 -0.3373
 7745SOL    HW129532   9.490   3.352   4.653  0.9644  0.4001  1.9775
 7745SOL    HW229533   9.570   3.210   4.640 -1.3670 -0.7346 -0.3844
 7746SOL     OW29534   1.453   3.475   4.133  0.3296  0.3640  0.0132
 7746SOL    HW129535   1.506   3.398   4.097 -0.4049  0.4186 -1.1815
 7746SOL    HW229536   1.471   3.556   4.078 -1.3054  0.2849 -0.6666
 7748SOL     OW29537   8.504   8.542   3.418  0.3602  0.1932 -0.0992
 7748SOL    HW129538   8.421   8.488   3.428 -1.4464  2.7945 -0.5456
 7748SOL    HW229539   8.554   8.544   3.504 -0.8148 -0.1757  0.5929
 7752SOL     OW29540   9.809   9.172   1.045  0.2012  0.0398 -0.4261
 7752SOL    HW129541   9.788   9.219   1.130  1.2945 -2.8692  1.5350
 7752SOL    HW229542   9.896   9.205   1.009 -0.1104  1.0546 -0.2698
 7753SOL     OW29543   3.453   8.179   2.061  0.4621 -0.0962  0.3946
 7753SOL    HW129544   3.543   8.222   2.055 -0.2658  1.4355  0.2599
 7753SOL    HW229545   3.428   8.170   2.158  0.3575  0.3374  0.4093
 7755SOL     OW29546   0.761   1.982   0.541  0.4655  0.1863 -0.1637
 7755SOL    HW129547   0.709   1.906   0.581  1.3326  0.4336  1.4618
 7755SOL    HW229548   0.747   1.983   0.442  1.0664 -2.6021 -0.3289
 7757SOL     OW29549   7.693   0.432   4.281 -0.4910  0.4475 -0.2124
 7757SOL    HW129550   7.713   0.522   4.241  0.4492  0.4941  0.3538
 7757SOL    HW229551   7.596   0.428   4.307 -0.6513  1.1146 -0.6901
 7758SOL     OW29552   6.849   8.713   3.432  0.1842  0.2228  0.4058
 7758SOL    HW129553   6.777   8.757   3.485  0.7187  2.2916 -0.5227
 7758SOL    HW229554   6.862   8.762   3.345  1.3997 -1.2635 -0.2930
 7759SOL     OW29555   9.599   7.758   1.907 -0.3398  0.7732 -0.1630
 7759SOL    HW129556   9.615   7.796   1.816  0.9695 -0.3446 -0.4159
 7759SOL    HW229557   9.536   7.680   1.900  0.2471  0.2977 -0.2049
 7760SOL     OW29558   9.163   6.096   4.692  0.3043  0.1291  0.0168
 7760SOL    HW129559   9.249   6.045   4.696 -0.3742 -0.9136  2.0955
 7760SOL    HW229560   9.161   6.152   4.609  2.9169  0.0621 -0.1350
 7761SOL     OW29561   3.047   3.656   1.656  0.0721  0.3190 -0.6611
 7761SOL    HW129562   3.073   3.714   1.733  1.3088  0.2594 -1.0284
 7761SOL    HW229563   3.105   3.575   1.653 -0.9474 -0.4164 -0.7807
 7762SOL     OW29564   9.462   4.137   4.190 -0.5696  0.0935  0.5353
 7762SOL    HW129565   9.402   4.067   4.229  0.7312 -2.0769 -1.2534
 7762SOL    HW229566   9.551   4.134   4.235  0.3547 -1.2285 -1.3088
 7763SOL     OW29567   4.995   8.251   3.409  0.3443  0.0901  0.3341
 7763SOL    HW129568   4.939   8.168   3.414  0.6804 -0.2261 -1.0136
 7763SOL    HW229569   4.955   8.322   3.467 -1.3113 -0.2241 -0.4141
 7765SOL     OW29570   2.572   1.544   2.519 -0.0044  0.0606 -0.3962
 7765SOL    HW129571   2.519   1.628   2.530  0.5791  0.4235 -0.3346
 7765SOL    HW229572   2.582   1.525   2.421  0.5816  0.5295 -0.4338
 7766SOL     OW29573   1.562   9.798   0.451 -0.0052  0.4333  0.0633
 7766SOL    HW129574   1.537   9.882   0.500  0.3490 -0.1592  1.2775
 7766SOL    HW229575   1.608   9.822   0.366 -1.8188  1.4970 -0.6492
 7769SOL     OW29576   1.177   5.111   2.627  0.0179  0.2748  0.2809
 7769SOL    HW129577   1.148   5.078   2.717 -1.4617  0.8052  0.0152
 7769SOL    HW229578   1.244   5.048   2.588 -0.5081 -0.7928  1.0757
 7770SOL     OW29579   1.794   6.196   2.295  0.0730 -0.7856  0.0249
 7770SOL    HW129580   1.880   6.150   2.271  0.1314 -0.8374  0.3339
 7770SOL    HW229581   1.766   6.170   2.387  0.7404  0.7435  0.6795
 7772SOL     OW29582   3.799   1.755   1.434  0.1569  0.2275 -0.2076
 7772SOL    HW129583   3.757   1.730   1.347 -0.0791  0.5009 -0.1742
 7772SOL    HW229584   3.898   1.746   1.427  0.0099 -1.6956  0.1321
 7773SOL     OW29585   9.269   7.383   5.009  0.8107 -0.1027  0.4687
 7773SOL    HW129586   9.256   7.292   4.968  2.7889  0.0697 -0.6654
 7773SOL    HW229587   9.227   7.386   5.099  0.9089 -2.2269  0.6059
 7775SOL     OW29588   9.396   7.605   4.938 -0.0674  0.3010 -0.5742
 7775SOL    HW129589   9.382   7.680   5.003 -0.8216 -0.6358  0.3615
 7775SOL    HW229590   9.347   7.524   4.970  2.3417 -1.1939 -0.5419
 7776SOL     OW29591   9.248   7.004   0.752 -0.0433  0.5051  0.7953
 7776SOL    HW129592   9.166   7.049   0.787  0.3914  2.1022 -0.2320
 7776SOL    HW229593   9.329   7.051   0.785  0.4557 -0.5521  1.1001
 7777SOL     OW29594   4.691   6.648   1.007 -0.0008 -0.4055 -0.1530
 7777SOL    HW129595   4.605   6.662   0.959 -0.6021 -0.2139  0.9444
 7777SOL    HW229596   4.709   6.728   1.066  2.0117  0.5202 -1.9779
 7778SOL     OW29597   2.008   4.558   4.940  0.2739  0.1440 -0.3026
 7778SOL    HW129598   2.058   4.478   4.974  0.6235  1.1745  1.6656
 7778SOL    HW229599   2.064   4.640   4.949 -0.3338  0.7358 -1.6744
 7779SOL     OW29600   4.174   3.149   0.258  0.0363  0.5198 -0.1814
 7779SOL    HW129601   4.274   3.149   0.256  0.0758 -2.2318  0.3094
 7779SOL    HW229602   4.143   3.157   0.353 -0.2444  1.5453 -0.3478
 7780SOL     OW29603   3.272   1.758   2.799  0.3369  0.3887  0.0251
 7780SOL    HW129604   3.195   1.784   2.856 -1.1769 -3.9936  0.1578
 7780SOL    HW229605   3.357   1.771   2.850 -0.9245 -2.5991  3.0624
 7781SOL     OW29606   8.141   1.037   5.017 -0.1714 -0.3823 -0.2823
 7781SOL    HW129607   8.219   0.990   5.057 -0.9445 -2.1435 -0.7754
 7781SOL    HW229608   8.061   1.025   5.075 -0.0413  1.6535  0.3659
 7783SOL     OW29609   9.294   3.354   1.518  0.4399  0.1614 -0.3069
 7783SOL    HW129610   9.270   3.307   1.603  3.3433 -0.1573  0.3840
 7783SOL    HW229611   9.357   3.297   1.465  0.5450  1.3953 -1.5497
 7784SOL     OW29612   1.879   7.660   3.968  0.1690 -0.0442 -0.6065
 7784SOL    HW129613   1.962   7.687   3.919  0.4880  1.8405  0.9313
 7784SOL    HW229614   1.892   7.568   4.006  0.7638 -0.5981 -2.0937
 7788SOL     OW29615   9.315   3.040   4.396 -0.3950  0.4096 -0.1062
 7788SOL    HW129616   9.388   2.971   4.397 -0.5918  0.1877 -1.0769
 7788SOL    HW229617   9.308   3.082   4.487  1.2489  0.7670 -0.1418
 7791SOL     OW29618   4.426   3.237   1.284 -0.2691  0.4025  0.0966
 7791SOL    HW129619   4.428   3.197   1.376 -2.1815 -0.8785 -0.3992
 7791SOL    HW229620   4.336   3.277   1.268 -1.0538 -2.2481 -2.4152
 7792SOL     OW29621   1.663   8.642   2.453  0.0421 -0.3187 -0.0975
 7792SOL    HW129622   1.649   8.622   2.356  1.4739  0.5596 -0.5110
 7792SOL    HW229623   1.624   8.732   2.475  1.3554  0.3152 -0.3084
 7793SOL     OW29624   4.516   4.914   3.416 -0.7063 -0.4240  0.2516
 7793SOL    HW129625   4.463   4.914   3.331  0.6457  0.1123 -0.6179
 7793SOL    HW229626   4.588   4.984   3.410  0.6815 -1.7448  1.0253
 7794SOL     OW29627   4.137   0.289   5.016 -0.4455  0.0032  0.5275
 7794SOL    HW129628   4.164   0.252   4.927  0.0099 -0.5082  0.8741
 7794SOL    HW229629   4.058   0.348   5.004  0.0763  0.5452 -0.3334
 7795SOL     OW29630   7.393   9.298   3.787  0.5657  0.1594 -0.1543
 7795SOL    HW129631   7.374   9.340   3.876  2.1194 -1.0451  0.7927
 7795SOL    HW229632   7.421   9.203   3.801 -0.2366 -0.3754 -2.0367
 7796SOL     OW29633   0.757   1.422   0.812 -0.4060 -0.1564 -0.3713
 7796SOL    HW129634   0.667   1.455   0.784 -0.4152  0.5551  0.5016
 7796SOL    HW229635   0.748   1.363   0.892  0.0531  1.0890  0.6048
 7797SOL     OW29636   4.418   2.529   4.582 -1.0456 -0.3787  0.5054
 7797SOL    HW129637   4.462   2.482   4.659  0.3394  1.1150  0.6421
 7797SOL    HW229638   4.488   2.565   4.520 -2.1021  0.5136 -0.1855
 7798SOL     OW29639   2.799   6.873   1.171  0.0587 -0.0513 -0.1628
 7798SOL    HW129640   2.789   6.837   1.079 -1.8203 -1.2685  0.4890
 7798SOL    HW229641   2.896   6.881   1.194  0.5082 -1.3272 -1.6189
 7799SOL     OW29642   3.432   2.362   2.556 -0.3056  0.4001  0.1686
 7799SOL    HW129643   3.423   2.445   2.502  0.5119  0.5592  0.2725
 7799SOL    HW229644   3.349   2.349   2.611 -1.0657  0.3332 -0.9721
 7800SOL     OW29645   2.377   8.251   1.061  0.1231 -0.6839  0.1463
 7800SOL    HW129646   2.305   8.193   1.022  0.4210 -1.3267  0.5511
 7800SOL    HW229647   2.416   8.206   1.142 -0.0617  0.3537  0.8184
 7801SOL     OW29648   9.974   4.091   1.365 -0.2633  0.2345  0.9811
 7801SOL    HW129649  10.018   4.003   1.350 -0.0103  0.6617 -0.8578
 7801SOL    HW229650   9.995   4.123   1.458  2.3024 -0.1378  0.5613
 7802SOL     OW29651   2.052   3.553   2.378 -0.1625 -0.4032 -0.5576
 7802SOL    HW129652   2.099   3.488   2.439 -0.7132 -1.1649 -0.9331
 7802SOL    HW229653   1.958   3.522   2.363  0.3924 -1.0109 -2.9560
 7803SOL     OW29654   4.446   9.145   1.975 -0.1301 -0.1595  0.3041
 7803SOL    HW129655   4.496   9.061   1.955 -1.5053 -0.7052 -0.9418
 7803SOL    HW229656   4.507   9.224   1.967  1.0145 -0.9795  0.8576
 7804SOL     OW29657   9.129   5.221   0.154  0.3169 -0.1495 -0.8759
 7804SOL    HW129658   9.178   5.266   0.079 -0.1834  2.9166  0.5709
 7804SOL    HW229659   9.044   5.182   0.119 -1.2895  3.6604 -1.4977
 7805SOL     OW29660   0.253   2.832   1.720 -0.2999  0.3006 -0.5121
 7805SOL    HW129661   0.157   2.811   1.738  0.2154 -0.0622  2.1064
 7805SOL    HW229662   0.262   2.927   1.690 -1.2687  1.1426  1.7124
 7806SOL     OW29663   8.158   6.669   2.960 -0.0572  0.8310 -0.1990
 7806SOL    HW129664   8.234   6.733   2.951 -0.2715  1.1521  0.2840
 7806SOL    HW229665   8.172   6.611   3.040 -1.1062  1.9654  0.8392
 7809SOL     OW29666   6.416   1.460   2.652  0.1856  0.1067  0.1644
 7809SOL    HW129667   6.474   1.393   2.605  0.9444  0.3270  0.7751
 7809SOL    HW229668   6.463   1.494   2.733 -1.6925 -1.3639  1.9323
 7810SOL     OW29669   9.316   8.658   2.798 -0.1383 -0.1066 -0.3483
 7810SOL    HW129670   9.272   8.611   2.874 -0.4910  1.8253  0.6793
 7810SOL    HW229671   9.391   8.714   2.833 -2.6573  3.7764 -0.8445
 7811SOL     OW29672   1.097   2.920   5.023 -0.1944  0.7768 -0.3842
 7811SOL    HW129673   1.075   3.016   5.040  0.3369  0.7093  0.7144
 7811SOL    HW229674   1.190   2.914   4.986 -0.2022  0.6779 -0.3887
 7812SOL     OW29675   1.906   8.269   4.316 -0.0086 -0.4792 -0.3048
 7812SOL    HW129676   1.909   8.173   4.340 -0.8537 -0.1783  1.0687
 7812SOL    HW229677   1.912   8.279   4.217 -2.7702 -2.1285 -0.7010
 7813SOL     OW29678   2.781   0.545   3.295 -0.5484  0.1886 -0.0359
 7813SOL    HW129679   2.873   0.584   3.296 -0.6316  0.3887 -0.0828
 7813SOL    HW229680   2.756   0.521   3.201 -0.4651 -0.0541  0.0042
 7814SOL     OW29681   8.366   5.448   0.059 -0.0478  0.4686 -0.3961
 7814SOL    HW129682   8.294   5.488   0.116  0.0683  1.2207 -0.7652
 7814SOL    HW229683   8.352   5.349   0.052 -0.7369  0.5341 -0.0274
 7817SOL     OW29684   9.658   6.301   3.179 -0.4315 -0.1736  0.0619
 7817SOL    HW129685   9.729   6.232   3.167 -0.2895 -0.1841  0.9224
 7817SOL    HW229686   9.603   6.279   3.260 -0.9614  0.2248 -0.1833
 7818SOL     OW29687   2.625   6.443   3.790  0.0798 -0.1625  0.7095
 7818SOL    HW129688   2.552   6.461   3.724  0.4644  0.5022  0.4633
 7818SOL    HW229689   2.603   6.489   3.876  0.5914  0.7088  0.3837
 7819SOL     OW29690   1.111   0.785   2.879 -0.2192 -0.0547 -0.2496
 7819SOL    HW129691   1.105   0.705   2.939 -1.8804  0.1371 -0.1540
 7819SOL    HW229692   1.041   0.851   2.904  3.0433  2.8345  1.6369
 7820SOL     OW29693   4.812   1.863   1.740 -0.1967  0.6284 -0.5235
 7820SOL    HW129694   4.863   1.783   1.773  0.5134  1.3869  0.2380
 7820SOL    HW229695   4.752   1.896   1.812 -1.1809  0.2372 -1.1472
 7822SOL     OW29696   0.636   3.055   1.038  0.3809 -0.0066  0.3912
 7822SOL    HW129697   0.598   2.968   1.005  1.5836 -0.5623  0.4656
 7822SOL    HW229698   0.726   3.039   1.078 -0.1344  0.9912  2.0067
 7823SOL     OW29699   2.799   0.914   3.994 -0.1992  0.1319  0.3762
 7823SOL    HW129700   2.704   0.889   3.980 -0.6735  0.5100  2.6539
 7823SOL    HW229701   2.857   0.861   3.932 -1.8658 -0.1870 -0.9489
 7824SOL     OW29702   1.134   8.399   0.473  0.0560  0.4034  0.4135
 7824SOL    HW129703   1.175   8.485   0.506  0.6621  0.7400 -1.1271
 7824SOL    HW229704   1.102   8.412   0.379  1.9156 -1.6121 -0.5368
 7826SOL     OW29705   3.694   6.464   5.227 -0.1369  0.1195 -0.0194
 7826SOL    HW129706   3.683   6.414   5.141  0.1764 -1.6512  0.9383
 7826SOL    HW229707   3.773   6.427   5.277 -0.2303  1.2251  0.9540
 7827SOL     OW29708   8.412   2.509   4.440  0.4476 -0.3201  0.3495
 7827SOL    HW129709   8.451   2.530   4.351  0.5509  0.0656  0.4834
 7827SOL    HW229710   8.383   2.413   4.443  1.4045 -0.6172  0.2525
 7828SOL     OW29711   4.521   7.840   4.976 -0.5899  0.3787  0.0264
 7828SOL    HW129712   4.528   7.887   5.064 -0.3458  2.1144 -0.8975
 7828SOL    HW229713   4.599   7.779   4.965 -0.9904 -0.3904  1.3095
 7829SOL     OW29714   1.859   3.417   0.439  0.0443  0.0899 -0.1076
 7829SOL    HW129715   1.924   3.493   0.434  0.3949 -0.1597  0.6123
 7829SOL    HW229716   1.890   3.350   0.507 -2.3895  1.3559  2.3684
 7830SOL     OW29717   9.767   0.229   3.321 -0.5784  0.1233 -0.0841
 7830SOL    HW129718   9.832   0.278   3.378 -0.1143  0.3296 -0.7954
 7830SOL    HW229719   9.816   0.172   3.255 -1.1133  1.6160 -1.7780
 7831SOL     OW29720   6.077   1.410   1.412 -0.9938  0.6959  0.2235
 7831SOL    HW129721   6.023   1.460   1.344  0.4996  1.2113 -0.6044
 7831SOL    HW229722   6.150   1.359   1.367 -0.5088  0.3444  1.3694
 7832SOL     OW29723   4.170   0.799   3.769 -0.0339  0.2467  0.6314
 7832SOL    HW129724   4.094   0.865   3.775 -1.2443 -1.1362  0.6989
 7832SOL    HW229725   4.250   0.844   3.728 -0.7657  1.8195  0.8812
 7833SOL     OW29726   7.985   2.733   4.742 -0.8795 -0.5136  0.0415
 7833SOL    HW129727   8.067   2.680   4.759  0.5362  1.6123  0.1146
 7833SOL    HW229728   7.974   2.747   4.643  0.3653  1.4258  0.1436
 7834SOL     OW29729   2.336   7.905   4.921  0.2264  0.2015  0.5396
 7834SOL    HW129730   2.353   8.000   4.894 -2.7399  0.9063  0.9811
 7834SOL    HW229731   2.312   7.852   4.840 -2.1006  0.7872  0.8154
 7836SOL     OW29732   2.364   8.683   0.496 -0.2933  0.2086 -0.3442
 7836SOL    HW129733   2.461   8.688   0.522 -0.3146 -2.6334  0.4684
 7836SOL    HW229734   2.356   8.702   0.398  1.0104  1.1393 -0.2840
 7837SOL     OW29735   3.333   9.111   0.728 -0.1517  0.0760 -0.6008
 7837SOL    HW129736   3.252   9.104   0.786 -0.2834 -0.9849 -0.9018
 7837SOL    HW229737   3.404   9.162   0.776 -0.7798  0.4887 -0.0972
 7838SOL     OW29738   3.898   2.281   3.361  0.2506  0.3168  0.7609
 7838SOL    HW129739   3.991   2.310   3.384  0.0877  0.4600  1.2476
 7838SOL    HW229740   3.856   2.237   3.440  0.1063 -0.2683  0.3590
 7839SOL     OW29741   1.185   3.538   0.913 -0.5725 -0.0321  0.3182
 7839SOL    HW129742   1.223   3.446   0.926 -0.1822  0.3219  1.7846
 7839SOL    HW229743   1.218   3.575   0.826  3.0624  0.5320  1.8533
 7840SOL     OW29744   6.051   9.670   2.413  0.5303 -0.6182  0.6133
 7840SOL    HW129745   6.111   9.734   2.365 -0.7307  0.1059 -0.0435
 7840SOL    HW229746   5.996   9.621   2.346 -0.3149 -0.5430  1.2496
 7841SOL     OW29747   9.754   5.868   4.512 -0.2590 -0.2677  0.4295
 7841SOL    HW129748   9.657   5.886   4.523  0.2776  2.1261  1.7937
 7841SOL    HW229749   9.769   5.810   4.432 -2.8500 -1.4404  0.7619
 7843SOL     OW29750   1.422   8.190   0.340 -0.5839 -0.0413 -0.7751
 7843SOL    HW129751   1.485   8.262   0.309  0.4861 -0.0944  1.2104
 7843SOL    HW229752   1.465   8.101   0.327  0.0776 -0.0401  1.2455
 7844SOL     OW29753   8.442   4.301   1.015  0.4203 -0.8092  0.2090
 7844SOL    HW129754   8.452   4.353   0.930 -1.9155 -1.5299 -0.5580
 7844SOL    HW229755   8.387   4.355   1.079  0.3442 -1.1694  0.4417
 7846SOL     OW29756   4.336   1.954   1.970 -0.1955 -0.2085  0.2496
 7846SOL    HW129757   4.249   1.910   1.994 -0.8152  1.6953  1.6079
 7846SOL    HW229758   4.393   1.962   2.051 -0.2639  1.8130  0.1142
 7848SOL     OW29759   8.810   6.644   4.584  0.7047 -0.8836 -0.7146
 7848SOL    HW129760   8.845   6.553   4.605 -1.3951 -1.3316  1.0068
 7848SOL    HW229761   8.773   6.645   4.491  1.0309 -1.6969 -0.8565
 7849SOL     OW29762   7.614   1.150   2.732 -0.0074 -0.0144 -0.3437
 7849SOL    HW129763   7.610   1.053   2.708 -1.3115  0.2476 -1.2494
 7849SOL    HW229764   7.561   1.203   2.666  0.4032  1.2763  0.3463
 7851SOL     OW29765   2.434   2.578   0.629 -0.0695 -0.4016 -0.1042
 7851SOL    HW129766   2.379   2.661   0.617 -0.2667 -0.4886  0.1809
 7851SOL    HW229767   2.405   2.510   0.562 -0.3134 -0.4483  0.0476
 7853SOL     OW29768   3.881   9.587   4.192  0.3490  0.2164 -0.5177
 7853SOL    HW129769   3.813   9.641   4.242 -0.2220 -0.4223 -0.5953
 7853SOL    HW229770   3.973   9.612   4.224  0.1355  1.7799 -1.1022
 7855SOL     OW29771   1.251   6.625   2.095  0.5995  0.5005 -0.0543
 7855SOL    HW129772   1.334   6.571   2.113  0.7645  0.3729 -1.1725
 7855SOL    HW229773   1.215   6.660   2.181  0.0704 -2.0347  0.7962
 7856SOL     OW29774   8.592   4.270   5.153  0.0986  0.6036  0.1490
 7856SOL    HW129775   8.513   4.216   5.183  0.0498 -0.1308 -1.2163
 7856SOL    HW229776   8.563   4.332   5.080  0.1423  2.5533  1.7658
 7857SOL     OW29777   8.473   2.092   3.421 -0.2586  0.7089  0.5009
 7857SOL    HW129778   8.423   2.169   3.460 -0.5072  0.7679  0.0652
 7857SOL    HW229779   8.571   2.111   3.425 -0.3343  1.2267  0.0409
 7858SOL     OW29780   1.692   2.854   5.071  0.2889  0.4953  0.2867
 7858SOL    HW129781   1.619   2.891   5.013 -0.8536  0.1737  1.4992
 7858SOL    HW229782   1.750   2.794   5.017 -1.5218 -0.8220 -0.2434
 7859SOL     OW29783   3.571   9.115   4.124 -0.3317  0.7284  0.6700
 7859SOL    HW129784   3.558   9.037   4.185  1.4324 -2.0342 -2.3355
 7859SOL    HW229785   3.492   9.123   4.064  0.8601 -0.7965 -1.1563
 7860SOL     OW29786   0.985   7.889   1.703  0.2178  0.3954  0.5493
 7860SOL    HW129787   1.046   7.961   1.736 -0.9068  0.7432  1.9555
 7860SOL    HW229788   1.038   7.813   1.667  1.4568  2.8608 -3.1670
 7861SOL     OW29789   6.113   8.850   3.724 -0.0934 -0.1543 -0.1188
 7861SOL    HW129790   6.156   8.933   3.687 -1.0814 -0.6628 -2.5222
 7861SOL    HW229791   6.143   8.837   3.819  3.0960  0.8309 -0.9033
 7862SOL     OW29792   1.692   9.885   2.103  0.0964 -0.1308  0.4089
 7862SOL    HW129793   1.622   9.889   2.031  1.1582 -0.6732 -0.6680
 7862SOL    HW229794   1.647   9.885   2.193 -1.4083 -2.3681 -0.2902
 7865SOL     OW29795   7.418   0.443   0.192 -0.1111 -0.4836  0.2162
 7865SOL    HW129796   7.486   0.409   0.257  1.1602  1.9431  0.2211
 7865SOL    HW229797   7.417   0.543   0.194 -2.6555 -0.4545 -0.8680
 7866SOL     OW29798   1.583   6.135   1.561  0.1556 -0.0669  0.2863
 7866SOL    HW129799   1.530   6.051   1.557  1.5827 -0.9005 -1.3882
 7866SOL    HW229800   1.679   6.113   1.575  0.7765  1.2047 -1.8956
 7867SOL     OW29801   4.370   6.302   0.901  0.0150 -0.0452 -0.4025
 7867SOL    HW129802   4.468   6.300   0.885  0.2708 -0.9610  1.1882
 7867SOL    HW229803   4.344   6.226   0.962 -1.7412 -0.1099 -1.1821
 7868SOL     OW29804   4.143   6.383   1.266  0.0461 -0.2811  0.2620
 7868SOL    HW129805   4.175   6.411   1.176 -3.1252 -0.1381 -0.8799
 7868SOL    HW229806   4.137   6.463   1.326 -0.3654  0.0422 -0.2099
 7869SOL     OW29807   8.156   5.843   0.102 -0.0402 -0.1620  0.4273
 7869SOL    HW129808   8.089   5.779   0.141  0.6888 -1.3251 -0.2022
 7869SOL    HW229809   8.118   5.884   0.020 -1.2837  1.7241  1.8984
 7870SOL     OW29810   8.682   5.031   4.011  0.2018 -0.5208 -0.1734
 7870SOL    HW129811   8.637   4.942   4.019  0.8104 -0.8443 -0.2953
 7870SOL    HW229812   8.627   5.101   4.057 -0.2325 -0.9765  0.0033
 7871SOL     OW29813   2.644   4.614   3.837  0.0128 -0.4604  0.4289
 7871SOL    HW129814   2.551   4.576   3.836 -0.4855  0.6508  1.6932
 7871SOL    HW229815   2.679   4.613   3.931  0.5157  0.8843  0.2758
 7873SOL     OW29816   0.886   8.133   1.496 -0.2051  0.0501 -0.2727
 7873SOL    HW129817   0.902   8.137   1.397 -1.0104  1.0558 -0.3641
 7873SOL    HW229818   0.974   8.134   1.543  0.1362  1.1325 -0.9253
 7875SOL     OW29819   0.197   4.963   4.165  0.0287  0.6552 -0.1437
 7875SOL    HW129820   0.202   5.000   4.257  4.0217 -0.2185  0.0704
 7875SOL    HW229821   0.225   5.033   4.099  1.5746 -0.0292 -0.2527
 7876SOL     OW29822   7.105   1.075   0.722  0.0603  0.0319 -0.4277
 7876SOL    HW129823   7.020   1.080   0.669 -1.2794 -5.8126  0.7864
 7876SOL    HW229824   7.179   1.045   0.663  0.5413  1.7617 -0.7309
 7877SOL     OW29825   4.163   0.784   0.931  0.3929 -0.8553 -0.0036
 7877SOL    HW129826   4.116   0.736   1.005  0.5209  1.4882  1.6358
 7877SOL    HW229827   4.118   0.871   0.913  0.5772 -1.2257 -2.4798
 7879SOL     OW29828   9.143   5.416   3.433 -0.1556 -0.1021  0.6793
 7879SOL    HW129829   9.093   5.331   3.448  0.7069 -0.9832 -1.2589
 7879SOL    HW229830   9.079   5.488   3.405 -0.6497 -0.5566  0.6344
 7881SOL     OW29831   5.452   0.600   2.309  0.0753 -0.4508  0.2937
 7881SOL    HW129832   5.489   0.547   2.234 -1.4694  3.0444 -3.1138
 7881SOL    HW229833   5.365   0.561   2.338 -0.1855 -0.8259 -0.9737
 7882SOL     OW29834   5.285   0.541   2.717  0.4830  0.5472 -0.6524
 7882SOL    HW129835   5.336   0.461   2.687 -1.6652 -0.6542 -1.1990
 7882SOL    HW229836   5.249   0.524   2.809  1.3557  1.5443 -0.1100
 7883SOL     OW29837   9.903   8.952   0.669 -1.0681 -0.2341  0.2232
 7883SOL    HW129838   9.898   8.852   0.670 -2.3587 -0.1623  1.0464
 7883SOL    HW229839   9.969   8.983   0.737 -1.1535 -0.4936  0.4239
 7884SOL     OW29840   9.689   6.566   0.112  0.0880  0.3945  0.0676
 7884SOL    HW129841   9.599   6.528   0.091 -1.1942  2.6724  1.2822
 7884SOL    HW229842   9.739   6.502   0.171 -0.6989 -0.8881 -0.6267
 7886SOL     OW29843   0.579   4.627   0.131 -0.1279 -0.2043  0.2930
 7886SOL    HW129844   0.501   4.603   0.074 -0.8515 -2.6759  2.2171
 7886SOL    HW229845   0.662   4.584   0.095 -0.1681  0.0504 -0.1095
 7887SOL     OW29846   9.468   5.825   4.526 -0.5456  0.3979 -0.5498
 7887SOL    HW129847   9.390   5.769   4.553  1.5346 -2.4215 -0.1903
 7887SOL    HW229848   9.469   5.836   4.427 -0.9002 -0.3331 -0.6337
 7888SOL     OW29849   1.332   6.254   5.221  0.2010 -0.1285  0.3165
 7888SOL    HW129850   1.352   6.293   5.311  0.1713  1.8548 -0.5035
 7888SOL    HW229851   1.251   6.196   5.227 -0.9340  1.4956  1.2067
 7889SOL     OW29852   2.702   0.199   4.426 -0.3155 -0.0799 -0.4681
 7889SOL    HW129853   2.740   0.292   4.426  3.0393 -1.3834 -2.2155
 7889SOL    HW229854   2.658   0.181   4.338  1.4604 -1.0522 -1.1791
 7891SOL     OW29855   1.847   5.402   1.377  0.0735  0.2043 -0.2756
 7891SOL    HW129856   1.796   5.430   1.458  1.4386 -0.8675  1.0014
 7891SOL    HW229857   1.784   5.383   1.302 -1.6427 -3.2722  1.9016
 7893SOL     OW29858   3.536   8.034   4.921  0.0724  0.2934  0.2555
 7893SOL    HW129859   3.626   8.027   4.878 -0.0975 -1.5634  0.1747
 7893SOL    HW229860   3.470   7.979   4.870 -0.6222 -0.1387  1.5833
 7894SOL     OW29861   8.816   0.140   2.005  0.2942 -0.2796  0.5595
 7894SOL    HW129862   8.724   0.127   2.044  0.4379  1.1042  1.3801
 7894SOL    HW229863   8.847   0.233   2.024  0.8700  0.0423 -1.8296
 7896SOL     OW29864   9.862   2.709   3.809  0.4910 -0.7926  0.3280
 7896SOL    HW129865   9.854   2.789   3.867  0.6227 -0.0130 -0.7213
 7896SOL    HW229866   9.771   2.671   3.791  0.2516  0.2134 -0.6716
 7897SOL     OW29867   0.890   6.783   3.028 -0.5383  0.3427  0.4651
 7897SOL    HW129868   0.989   6.777   3.040 -0.7847 -0.2248  2.3243
 7897SOL    HW229869   0.855   6.856   3.086 -1.2952  0.1265  0.2770
 7898SOL     OW29870   7.547   0.709   3.832 -0.0935 -0.0468  0.0255
 7898SOL    HW129871   7.564   0.611   3.827 -2.6873 -0.6010  0.9965
 7898SOL    HW229872   7.493   0.738   3.754  0.3558  0.5456 -0.0692
 7900SOL     OW29873   1.879   9.699   0.129 -0.5886  0.3942  0.2683
 7900SOL    HW129874   1.823   9.756   0.069  1.9916  0.7363 -1.9424
 7900SOL    HW229875   1.852   9.603   0.117 -2.1368  0.7473  0.8606
 7901SOL     OW29876   6.057   0.640   3.709 -0.3849  0.1685 -0.2373
 7901SOL    HW129877   6.140   0.600   3.671 -0.5574 -2.2567  1.7510
 7901SOL    HW229878   5.979   0.618   3.650 -0.1704 -0.7932 -0.1758
 7902SOL     OW29879   7.298   0.758   1.531  0.0021 -0.4523 -0.1308
 7902SOL    HW129880   7.228   0.751   1.603 -0.6357 -1.8723 -0.8567
 7902SOL    HW229881   7.365   0.827   1.557 -0.9349 -0.0075  1.2150
 7904SOL     OW29882   7.922   1.601   2.525 -0.1936  0.2960 -0.0454
 7904SOL    HW129883   7.940   1.650   2.440  2.1548 -0.2754  0.0877
 7904SOL    HW229884   7.862   1.522   2.507 -1.3532  1.3297 -0.7938
 7906SOL     OW29885   4.174   2.332   3.489 -0.1461  0.5157 -0.7666
 7906SOL    HW129886   4.144   2.344   3.583  0.6235 -0.0881 -0.4450
 7906SOL    HW229887   4.247   2.397   3.468  3.3635 -2.8369  0.6890
 7908SOL     OW29888   7.196   7.785   3.273 -0.0356 -0.5327 -0.6177
 7908SOL    HW129889   7.283   7.760   3.231 -0.2551  0.5816 -1.7820
 7908SOL    HW229890   7.121   7.765   3.210 -0.3871  0.9787 -0.7039
 7909SOL     OW29891   7.897  10.004   1.700 -0.1445  0.3716  0.3145
 7909SOL    HW129892   7.851   9.915   1.693 -2.4239  1.3665  1.8657
 7909SOL    HW229893   7.963  10.013   1.626 -0.1029 -2.4754 -0.0633
 7910SOL     OW29894   3.307   8.413   2.287  0.6681  0.4013 -0.1263
 7910SOL    HW129895   3.350   8.325   2.307  1.4570  1.0346  1.0395
 7910SOL    HW229896   3.253   8.405   2.203 -1.9613 -2.0973  1.7263
 7911SOL     OW29897   0.795   0.098   1.567  0.0206 -0.5966  0.0436
 7911SOL    HW129898   0.845   0.011   1.570  1.6486  0.3418  0.8373
 7911SOL    HW229899   0.728   0.096   1.493  0.7783 -2.1342 -0.6163
 7912SOL     OW29900   2.941   0.413   1.189 -0.3661  0.0299  0.1729
 7912SOL    HW129901   3.040   0.419   1.186 -0.4362  1.0512 -0.2414
 7912SOL    HW229902   2.910   0.423   1.284 -0.1321  0.8214  0.1729
 7913SOL     OW29903   0.457   2.512   1.928 -0.3762 -1.1663  0.4789
 7913SOL    HW129904   0.528   2.444   1.907  1.3194  0.2650  1.5293
 7913SOL    HW229905   0.444   2.572   1.849  0.6824 -0.4634  0.8386
 7914SOL     OW29906   8.229   6.985   2.342 -0.4272  0.0091 -0.2337
 7914SOL    HW129907   8.243   7.041   2.424  0.0313  0.3364 -0.5363
 7914SOL    HW229908   8.206   6.892   2.370 -1.9774  0.5324  0.2732
 7915SOL     OW29909   3.272   0.432   4.431 -0.2611  0.5142  0.3289
 7915SOL    HW129910   3.256   0.429   4.332  0.5715 -4.2140  0.2038
 7915SOL    HW229911   3.357   0.481   4.450 -0.4040  1.4362 -1.2675
 7916SOL     OW29912   9.716   6.348   3.513 -0.1862 -0.1785  0.0203
 7916SOL    HW129913   9.725   6.269   3.573 -1.6387 -1.4886 -1.4516
 7916SOL    HW229914   9.770   6.334   3.430 -1.1640 -0.0183 -0.6498
 7917SOL     OW29915   9.413   0.214   1.103  0.0087  0.3575 -0.2028
 7917SOL    HW129916   9.371   0.272   1.172 -1.6754 -0.7261 -0.2910
 7917SOL    HW229917   9.345   0.151   1.066  1.3609 -0.4185 -1.4379
 7918SOL     OW29918   3.058   7.272   2.378  0.3413 -0.3032 -0.5815
 7918SOL    HW129919   3.090   7.342   2.314  0.0863 -0.7697 -1.2325
 7918SOL    HW229920   3.002   7.314   2.449  1.3389  0.3365 -0.1641
 7919SOL     OW29921   0.491   9.754   1.556  0.3067 -0.1434  0.1392
 7919SOL    HW129922   0.432   9.691   1.506 -1.4204  0.9440  0.7347
 7919SOL    HW229923   0.435   9.827   1.596  1.9621  0.4194  1.4960
 7921SOL     OW29924   3.908   8.558   2.014  0.1569  0.4165  0.2225
 7921SOL    HW129925   3.876   8.626   1.947  0.1017 -0.5174 -0.7146
 7921SOL    HW229926   3.854   8.566   2.098 -0.4172  0.9661 -0.1974
 7922SOL     OW29927   4.539   2.351   0.885  0.2323 -0.3374 -0.1527
 7922SOL    HW129928   4.551   2.392   0.975 -1.4421  0.8918 -0.4558
 7922SOL    HW229929   4.576   2.258   0.885 -2.1759 -1.3975  2.6455
 7923SOL     OW29930   0.861   5.867   3.894  0.4294  0.3989  0.3608
 7923SOL    HW129931   0.957   5.871   3.924  0.2573  0.4962  0.9056
 7923SOL    HW229932   0.802   5.852   3.974  0.0935 -1.0512 -0.1497
 7925SOL     OW29933   9.045   5.244   3.087  0.3014  0.8203  0.1319
 7925SOL    HW129934   9.062   5.212   3.180  0.6640  0.2347 -0.1292
 7925SOL    HW229935   8.947   5.243   3.068  0.4350 -2.0334 -0.5286
 7926SOL     OW29936   3.143   0.116   3.365  0.3294  0.3474 -0.4578
 7926SOL    HW129937   3.074   0.144   3.298 -0.1676  0.1813 -0.0166
 7926SOL    HW229938   3.099   0.067   3.440  0.4628  3.2698  1.5833
 7927SOL     OW29939   3.811   0.146   2.516  0.5480  0.2487  0.4695
 7927SOL    HW129940   3.856   0.213   2.457  0.3917 -0.1984 -0.1580
 7927SOL    HW229941   3.721   0.124   2.478  0.0498  0.6767  1.3865
 7928SOL     OW29942   8.744   0.068   1.567  0.2586  0.1131 -0.5418
 7928SOL    HW129943   8.794  -0.003   1.617  0.0371 -0.0275 -0.5193
 7928SOL    HW229944   8.675   0.025   1.509 -0.8150  0.3680  0.5157
 7929SOL     OW29945   7.199   2.010   1.648 -0.2440 -0.3003  0.1140
 7929SOL    HW129946   7.113   2.051   1.620 -0.7991 -1.4473  0.1296
 7929SOL    HW229947   7.263   2.008   1.571 -0.3277  0.2851  0.0289
 7930SOL     OW29948   7.430   9.416   1.586  0.0347  0.2447  0.1913
 7930SOL    HW129949   7.331   9.432   1.591  0.0148  0.0288  0.5240
 7930SOL    HW229950   7.468   9.464   1.507 -0.7274 -1.6957 -1.3879
 7931SOL     OW29951   7.904   8.112   3.000 -0.4457 -0.0321  0.5049
 7931SOL    HW129952   8.001   8.102   2.978 -0.5607  0.1808 -0.1144
 7931SOL    HW229953   7.894   8.135   3.097  0.0480 -1.4078  0.9022
 7932SOL     OW29954   2.227   7.612   4.179 -0.9177 -0.6517  0.0075
 7932SOL    HW129955   2.157   7.651   4.240 -2.0233 -1.4396 -0.7430
 7932SOL    HW229956   2.287   7.685   4.147 -1.4599  0.0555  0.5717
 7933SOL     OW29957   7.114   4.486   0.268  0.0275  0.1575  0.4274
 7933SOL    HW129958   7.069   4.453   0.185  1.0314  0.0284 -0.0621
 7933SOL    HW229959   7.059   4.559   0.308 -0.8984 -0.3585  0.1207
 7934SOL     OW29960   8.270   5.602   2.986 -0.7134  0.2452  0.2399
 7934SOL    HW129961   8.233   5.585   3.078  1.0477  0.9750  1.1078
 7934SOL    HW229962   8.213   5.556   2.918 -1.4238 -1.1962  1.7866
 7936SOL     OW29963   3.316   6.586   2.582  0.0677 -0.4361  0.3616
 7936SOL    HW129964   3.413   6.572   2.563  0.1725  0.4387  0.2210
 7936SOL    HW229965   3.304   6.673   2.629 -0.8535  0.4686 -1.4922
 7937SOL     OW29966   7.399   3.113   1.307 -0.4321  0.1175 -0.3926
 7937SOL    HW129967   7.304   3.107   1.277 -0.2491  1.0675 -1.1876
 7937SOL    HW229968   7.456   3.146   1.232  0.6826 -1.3589 -0.2088
 7938SOL     OW29969   4.309   1.377   1.612  0.5155 -0.2815  0.4606
 7938SOL    HW129970   4.346   1.353   1.702  0.7845 -0.2676  0.3547
 7938SOL    HW229971   4.362   1.331   1.541  0.6037  0.0810  0.2873
 7940SOL     OW29972   7.302   7.608   4.963  0.1282  0.1989 -0.3739
 7940SOL    HW129973   7.313   7.671   5.039 -1.0241  0.2718 -0.2636
 7940SOL    HW229974   7.315   7.514   4.996 -0.8995  0.1915  0.0320
 7941SOL     OW29975   9.504   8.802   3.112  0.4457 -0.9442 -0.4321
 7941SOL    HW129976   9.413   8.826   3.144  0.5560  2.2071 -2.2677
 7941SOL    HW229977   9.568   8.804   3.190 -0.4710  0.0360  0.3215
 7942SOL     OW29978   9.135   2.733   2.937 -0.1525 -0.3583 -0.7185
 7942SOL    HW129979   9.225   2.767   2.910  0.9740 -0.5312  2.6408
 7942SOL    HW229980   9.079   2.809   2.969  0.3229 -0.8107  1.2472
 7944SOL     OW29981   4.513   1.988   3.904  0.4874 -0.1037 -0.8280
 7944SOL    HW129982   4.508   2.049   3.825 -1.2586 -0.1956 -0.8157
 7944SOL    HW229983   4.458   1.906   3.886 -1.8779  0.9312  1.3557
 7945SOL     OW29984   8.542   4.063   0.244  0.1664  0.1558  0.2459
 7945SOL    HW129985   8.601   4.068   0.324 -0.4443 -2.7357  0.9390
 7945SOL    HW229986   8.546   3.971   0.205  0.3873  1.4662 -3.0187
 7946SOL     OW29987   3.136   7.312   1.576 -0.0832  0.4126  0.0481
 7946SOL    HW129988   3.085   7.354   1.501  1.6831  1.2504 -0.7306
 7946SOL    HW229989   3.084   7.319   1.661 -1.1807  1.3802 -0.6999
 7947SOL     OW29990   3.702   1.580   1.183  0.1968  0.2932  0.0725
 7947SOL    HW129991   3.737   1.506   1.126  4.1063  0.7746  1.6683
 7947SOL    HW229992   3.659   1.542   1.266 -0.7889 -0.2418 -0.6755
 7948SOL     OW29993   6.374   1.592   0.672 -0.5915 -0.0146  0.1731
 7948SOL    HW129994   6.466   1.624   0.695 -0.2489 -0.2324 -0.8556
 7948SOL    HW229995   6.378   1.496   0.647 -0.4800  0.8186 -3.2909
 7949SOL     OW29996   9.542   6.020   1.099  0.1203 -0.9929  0.4928
 7949SOL    HW129997   9.553   6.055   1.006  1.8350 -0.5453  0.8408
 7949SOL    HW229998   9.607   5.946   1.116  0.0833 -0.8208  1.4546
 7950SOL     OW29999   7.290   2.103   4.003  0.0687  0.0563  0.6757
 7950SOL    HW130000   7.378   2.059   4.021  0.8701  1.5218  0.4259
 7950SOL    HW230001   7.222   2.072   4.070  0.8931 -0.7031  1.1679
 7951SOL     OW30002   1.282   2.002   2.510 -0.1356  0.0696 -0.3455
 7951SOL    HW130003   1.300   1.925   2.449  0.8090  1.0490 -1.3292
 7951SOL    HW230004   1.356   2.069   2.501 -1.6680  1.7514 -0.5567
 7952SOL     OW30005   5.581   4.119   0.468  0.0566 -0.7361  0.2025
 7952SOL    HW130006   5.543   4.028   0.451 -1.7699 -0.0351  0.4177
 7952SOL    HW230007   5.558   4.147   0.561 -0.0074  0.2300 -0.1004
 7953SOL     OW30008   0.055   2.689   1.422 -0.0370  0.5465  0.0210
 7953SOL    HW130009   0.081   2.625   1.494 -3.2843  2.0037  2.6273
 7953SOL    HW230010   0.133   2.745   1.396  1.7677 -1.5999  0.6747
 7954SOL     OW30011   0.122   9.340   3.197  0.4304 -0.1095  0.1353
 7954SOL    HW130012   0.033   9.335   3.244  0.4610  1.9292  0.4253
 7954SOL    HW230013   0.168   9.251   3.205 -0.8256 -0.6672  1.4769
 7955SOL     OW30014   8.698   7.960   4.462  0.2797 -0.1326 -0.0275
 7955SOL    HW130015   8.735   8.023   4.530  1.2271 -0.9441  0.2209
 7955SOL    HW230016   8.722   7.866   4.487 -0.0513 -0.4951 -1.0509
 7960SOL     OW30017   7.892   3.396   5.098 -0.0423  0.7799  0.2784
 7960SOL    HW130018   7.968   3.342   5.063  1.4286  1.7728  1.8999
 7960SOL    HW230019   7.883   3.481   5.046  0.0587  0.7428  0.2011
 7961SOL     OW30020   1.939   1.758   4.800 -0.1740  0.3919 -0.6134
 7961SOL    HW130021   1.895   1.839   4.838  0.7693  2.1116 -3.1010
 7961SOL    HW230022   1.869   1.699   4.759 -0.9371 -0.4164  1.7717
 7962SOL     OW30023   2.563   2.254   4.422  0.1152  0.5003 -0.3412
 7962SOL    HW130024   2.652   2.251   4.467  0.6019 -1.2144 -1.3334
 7962SOL    HW230025   2.550   2.169   4.370 -1.2721  1.5606 -1.7696
 7963SOL     OW30026   4.444   7.152   4.895  0.5859  0.0790 -0.1682
 7963SOL    HW130027   4.532   7.192   4.923  0.7469 -0.0684 -0.4631
 7963SOL    HW230028   4.379   7.159   4.970  1.4083 -1.5108  0.7118
 7964SOL     OW30029   0.950   3.489   3.240 -0.0105  0.2118 -0.3809
 7964SOL    HW130030   0.892   3.408   3.229 -0.6488  0.5069  0.6942
 7964SOL    HW230031   1.044   3.461   3.258 -0.8812 -0.3789  3.6266
 7965SOL     OW30032   1.740   5.332   2.390 -0.8073  0.2556 -0.5434
 7965SOL    HW130033   1.686   5.402   2.437  0.2387 -0.3072  1.5946
 7965SOL    HW230034   1.836   5.340   2.417 -0.5354 -1.4424 -0.9187
 7967SOL     OW30035   6.785   7.806   2.251  0.2796 -0.3329  0.3895
 7967SOL    HW130036   6.738   7.840   2.333  0.8245 -0.1666  0.6307
 7967SOL    HW230037   6.727   7.822   2.171  0.0804  0.2177  0.6421
 7968SOL     OW30038   3.416   5.525   0.723 -0.4890 -0.1784  0.4824
 7968SOL    HW130039   3.367   5.444   0.755 -0.8103 -0.3473 -0.4181
 7968SOL    HW230040   3.465   5.566   0.800 -0.4525 -1.1312  0.9858
 7969SOL     OW30041   0.186   4.022   1.020  0.2518  0.9329 -0.2083
 7969SOL    HW130042   0.240   4.100   1.052 -0.4239  0.9975  0.8087
 7969SOL    HW230043   0.245   3.943   1.009  0.8186  1.3996 -0.5681
 7970SOL     OW30044   1.153   3.334   4.107  0.1628 -0.3857  0.4592
 7970SOL    HW130045   1.227   3.399   4.089 -0.1892  0.2334  1.2233
 7970SOL    HW230046   1.186   3.241   4.090  1.0210 -0.0965  0.4888
 7971SOL     OW30047   9.863   9.897   4.409 -0.6999  0.2950  0.0839
 7971SOL    HW130048   9.848   9.861   4.316 -3.6928  2.5168 -0.3553
 7971SOL    HW230049   9.905   9.988   4.403 -0.1550  0.1065  0.9542
 7972SOL     OW30050   9.860   8.003   2.191 -0.7564 -0.6203 -0.2933
 7972SOL    HW130051   9.824   7.909   2.189  1.1118 -1.3742 -0.3370
 7972SOL    HW230052   9.892   8.028   2.100 -0.8292 -0.1078 -0.1770
 7973SOL     OW30053   8.576   0.437   3.600 -0.5235 -0.0007 -0.2713
 7973SOL    HW130054   8.584   0.348   3.555  0.4171 -0.3170  0.5090
 7973SOL    HW230055   8.527   0.500   3.539 -0.6747 -0.8707 -1.0737
 7974SOL     OW30056   3.288   4.056   5.206  0.7233  0.3006 -0.0720
 7974SOL    HW130057   3.260   3.997   5.130  0.1278 -0.8931  1.0637
 7974SOL    HW230058   3.340   4.003   5.273  1.0497  1.2977  0.4875
 7975SOL     OW30059   0.932   1.991   1.198 -0.1397 -0.3696 -0.4502
 7975SOL    HW130060   0.971   2.016   1.287  1.3543 -0.5892 -1.0287
 7975SOL    HW230061   0.973   2.047   1.126  1.0652 -2.4044 -1.3867
 7976SOL     OW30062   7.461   9.244   5.213  0.0663  0.1890 -0.4708
 7976SOL    HW130063   7.373   9.224   5.169 -1.1011 -0.1192  1.9078
 7976SOL    HW230064   7.531   9.258   5.143 -1.9020  0.6026 -2.4132
 7977SOL     OW30065   1.712   4.021   1.684 -0.1400 -0.5151 -0.0304
 7977SOL    HW130066   1.756   4.055   1.601 -0.9290 -0.7797 -0.5604
 7977SOL    HW230067   1.650   4.091   1.721  0.3067 -0.3480  0.4101
 7980SOL     OW30068   4.017   3.113   3.301  0.0066 -0.1228 -0.7727
 7980SOL    HW130069   3.940   3.147   3.355 -0.3932 -0.0429 -1.3824
 7980SOL    HW230070   4.087   3.075   3.362  0.0286  0.9030 -0.1354
 7981SOL     OW30071   9.031   5.371   3.968 -0.2011  0.4645 -0.0558
 7981SOL    HW130072   8.996   5.451   3.919 -1.1967 -0.1721 -0.4036
 7981SOL    HW230073   9.031   5.292   3.907 -1.2307 -0.2775  0.8771
 7982SOL     OW30074   3.110   2.465   4.837  0.1017  0.3730 -0.5120
 7982SOL    HW130075   3.059   2.389   4.797  2.0876 -1.0363 -0.4546
 7982SOL    HW230076   3.145   2.523   4.763 -0.6629  0.7234 -0.5978
 7983SOL     OW30077   6.320   8.323   4.457 -0.6624  0.0539  0.3995
 7983SOL    HW130078   6.391   8.267   4.415  0.2037 -0.1421  2.0768
 7983SOL    HW230079   6.354   8.417   4.467 -1.1811  0.2998 -0.0980
 7984SOL     OW30080   4.269   3.250   4.848 -0.0323  0.0610  0.0456
 7984SOL    HW130081   4.187   3.252   4.791  0.4489  0.8909 -0.6288
 7984SOL    HW230082   4.300   3.156   4.859 -0.3892 -0.1399 -0.6903
 7985SOL     OW30083   0.953   7.559   4.420  0.3222  0.4316 -0.1866
 7985SOL    HW130084   0.982   7.491   4.488 -0.9280  0.8697  0.8040
 7985SOL    HW230085   0.966   7.522   4.328  1.8849 -0.2326  0.2878
 7986SOL     OW30086   3.945   8.327   4.893  0.3686 -0.3455  0.0113
 7986SOL    HW130087   4.008   8.260   4.853  0.4645 -0.7396  0.8121
 7986SOL    HW230088   3.994   8.412   4.910  0.1855  0.0339 -1.2500
 7987SOL     OW30089   1.723   6.837   4.240  0.2006  0.5366  0.3873
 7987SOL    HW130090   1.772   6.758   4.203 -1.7053  0.4992 -2.1451
 7987SOL    HW230091   1.644   6.806   4.293  0.2370  0.7241  0.5543
 7988SOL     OW30092   1.489   2.193   0.337 -0.1629 -0.4383  0.2145
 7988SOL    HW130093   1.582   2.166   0.316  0.1256  1.2712 -0.8135
 7988SOL    HW230094   1.425   2.149   0.274  0.0429 -0.8807  0.3207
 7989SOL     OW30095   4.892   0.996   1.235 -0.0439 -0.2141 -0.1626
 7989SOL    HW130096   4.925   1.086   1.207  2.0282 -1.0835 -0.6462
 7989SOL    HW230097   4.841   0.955   1.159 -1.2685  0.6646  0.1707
 7990SOL     OW30098   7.123   0.010   4.986  0.0827  0.2456  0.5715
 7990SOL    HW130099   7.215   0.015   5.024  0.6145 -0.3011 -0.6166
 7990SOL    HW230100   7.099   0.097   4.943  0.5810 -0.0550 -0.3207
 7991SOL     OW30101   1.465   4.878   4.488 -0.6301  0.7474  0.1992
 7991SOL    HW130102   1.502   4.843   4.574 -0.6206  0.1349 -0.0460
 7991SOL    HW230103   1.466   4.804   4.420 -1.8362  0.8739  0.0400
 7992SOL     OW30104   8.434   6.918   1.203  0.1437 -0.8363  0.2396
 7992SOL    HW130105   8.488   6.868   1.271  0.1301 -1.6841 -0.3786
 7992SOL    HW230106   8.475   6.906   1.113 -2.4678 -3.5144 -0.6409
 7993SOL     OW30107   9.587   7.588   1.096  0.0296 -0.0245 -0.1748
 7993SOL    HW130108   9.585   7.608   0.998  1.7941  2.0326  0.1751
 7993SOL    HW230109   9.530   7.654   1.145  0.2533 -0.1859  0.3074
 7994SOL     OW30110   7.142   7.581   4.293 -0.4075  0.4925  0.6085
 7994SOL    HW130111   7.136   7.488   4.330 -2.5949  0.6874  0.8074
 7994SOL    HW230112   7.175   7.642   4.365  2.5783 -0.3531  0.0263
 7996SOL     OW30113   8.112   2.099   4.740  0.0146 -0.0639  0.0396
 7996SOL    HW130114   8.013   2.087   4.742 -0.1774  1.3967  0.2452
 7996SOL    HW230115   8.143   2.134   4.828  0.5051  0.8110 -0.4680
 7998SOL     OW30116   3.783   0.798   2.315 -0.0399 -0.2653  0.7438
 7998SOL    HW130117   3.819   0.728   2.254  1.2976  0.0084  1.1966
 7998SOL    HW230118   3.686   0.813   2.295 -0.9356 -3.8008  2.1204
 7999SOL     OW30119   7.175   9.730   3.354 -0.2011 -0.7986 -0.3149
 7999SOL    HW130120   7.231   9.729   3.437 -0.2853 -2.7841 -0.2554
 7999SOL    HW230121   7.216   9.791   3.287  0.6200 -0.2438  0.6769
 8000SOL     OW30122   1.256   5.165   5.132  0.0689 -0.6168  0.0934
 8000SOL    HW130123   1.202   5.101   5.077  0.4176 -0.3784 -0.5423
 8000SOL    HW230124   1.283   5.122   5.218 -0.6392 -0.9324  0.1538
 8001SOL     OW30125   3.239   6.827   2.726  0.1946  0.5163  0.6769
 8001SOL    HW130126   3.310   6.888   2.760 -1.0774  0.4755  3.6064
 8001SOL    HW230127   3.160   6.881   2.696  0.5879  0.4643 -0.4719
 8003SOL     OW30128   3.212   6.785   0.686  0.1415  0.6615  0.4386
 8003SOL    HW130129   3.293   6.845   0.688  0.0563  0.8359 -0.6454
 8003SOL    HW230130   3.139   6.825   0.741 -0.0909  1.8466 -0.6880
 8004SOL     OW30131   0.058   4.523   2.543 -0.2856 -0.0251  0.3308
 8004SOL    HW130132   0.027   4.615   2.566  0.4403 -0.0214  1.3315
 8004SOL    HW230133  -0.017   4.472   2.499 -1.2224  0.4832  1.3090
 8005SOL     OW30134   2.341   6.596   1.827  0.1380 -0.2111  0.0633
 8005SOL    HW130135   2.270   6.594   1.756 -0.8649  1.8919  0.9841
 8005SOL    HW230136   2.411   6.662   1.802 -0.2599  0.5989  1.0597
 8006SOL     OW30137   8.108   8.312   2.468 -0.0087 -0.0665 -0.1927
 8006SOL    HW130138   8.166   8.392   2.454  1.0230 -0.6490  0.7067
 8006SOL    HW230139   8.024   8.340   2.515 -0.4586  0.7689 -1.4776
 8007SOL     OW30140   0.314   3.337   4.531 -0.4224 -0.1976  0.0824
 8007SOL    HW130141   0.375   3.294   4.464 -1.4224  0.8281 -1.5128
 8007SOL    HW230142   0.275   3.267   4.591  1.9553 -0.9114  0.8366
 8008SOL     OW30143   5.385   0.139   4.419  0.6687 -0.5930  0.2255
 8008SOL    HW130144   5.362   0.214   4.481 -0.3953 -0.5612 -0.1914
 8008SOL    HW230145   5.319   0.065   4.430  1.6001 -1.3947  0.4923
 8009SOL     OW30146   1.407   4.569   0.024  0.1943  0.2622  0.2068
 8009SOL    HW130147   1.329   4.514   0.051  0.3014 -0.7112 -1.4208
 8009SOL    HW230148   1.379   4.665   0.014 -0.3557  0.2319  1.4398
 8010SOL     OW30149   4.867   9.774   2.662  0.2143  0.2195 -0.0368
 8010SOL    HW130150   4.960   9.738   2.672  0.7296  0.8807 -2.1753
 8010SOL    HW230151   4.867   9.848   2.595 -1.7672  0.5838  0.3461
 8011SOL     OW30152   5.870   7.702   3.111 -0.3645  0.1452  0.4447
 8011SOL    HW130153   5.961   7.699   3.153  0.8704  1.0626 -2.0818
 8011SOL    HW230154   5.812   7.767   3.161  1.3487  1.8950  0.2143
 8012SOL     OW30155   3.031   6.821   3.924  0.0633 -0.3971 -0.0037
 8012SOL    HW130156   3.062   6.914   3.942 -0.5260 -0.4313  1.2775
 8012SOL    HW230157   3.080   6.783   3.846  1.3745  0.4521  0.4035
 8014SOL     OW30158   1.542   8.954   4.038 -0.3209 -0.2575 -0.7579
 8014SOL    HW130159   1.520   8.953   4.135 -1.6852  2.0001 -0.9887
 8014SOL    HW230160   1.641   8.946   4.025  0.1603  2.4992  0.9688
 8015SOL     OW30161   0.798   6.516   2.915  0.1595 -0.0479 -0.3536
 8015SOL    HW130162   0.874   6.535   2.977 -0.3156  1.6908 -0.2752
 8015SOL    HW230163   0.724   6.580   2.932 -1.8661 -2.5190  0.4150
 8016SOL     OW30164   2.004   5.469   2.520  0.3537  0.2428 -0.2742
 8016SOL    HW130165   1.982   5.452   2.616 -1.3381  1.3195 -0.4519
 8016SOL    HW230166   1.954   5.550   2.488 -0.1126 -0.8579 -2.4196
 8017SOL     OW30167   6.526   9.860   3.535 -0.2181  0.3242 -1.0449
 8017SOL    HW130168   6.602   9.914   3.500  0.2137 -0.3608 -1.1851
 8017SOL    HW230169   6.558   9.766   3.553 -0.8196  0.2561 -0.3109
 8018SOL     OW30170   4.464   4.033   4.167  0.1858 -0.4376  0.2438
 8018SOL    HW130171   4.378   4.043   4.217 -0.0422 -0.3716 -0.1622
 8018SOL    HW230172   4.524   3.971   4.217  0.2848  0.2774  1.0347
 8019SOL     OW30173   3.080   5.626   4.676 -0.5728 -0.8976  0.6882
 8019SOL    HW130174   3.106   5.569   4.753  0.1782 -1.4066  0.0669
 8019SOL    HW230175   3.038   5.570   4.605 -0.9831 -0.4815  0.6000
 8020SOL     OW30176   4.190   3.468   0.061 -0.0739 -0.3671  0.1860
 8020SOL    HW130177   4.195   3.467  -0.038  1.1859 -0.2309  0.2400
 8020SOL    HW230178   4.101   3.433   0.091  0.0672 -1.7054 -0.9430
 8021SOL     OW30179   9.668   6.925   1.241  0.5150 -0.3030  0.7223
 8021SOL    HW130180   9.737   6.944   1.312  0.0554  0.9629  0.8353
 8021SOL    HW230181   9.623   6.838   1.262  1.2000 -0.5202  1.3451
 8022SOL     OW30182   7.623   4.638   1.422 -0.5580 -0.2674 -0.7049
 8022SOL    HW130183   7.619   4.733   1.391  2.1370  0.2380  0.3683
 8022SOL    HW230184   7.622   4.635   1.522 -0.2801 -1.3461 -0.7235
 8023SOL     OW30185   5.437   1.993   2.033  0.3534 -0.2209 -0.2483
 8023SOL    HW130186   5.523   2.002   2.083  0.4852  0.3523 -0.5817
 8023SOL    HW230187   5.439   1.908   1.979 -0.1670 -1.3326  1.4379
 8024SOL     OW30188   9.960   4.799   2.124 -0.2709 -0.0383  0.5251
 8024SOL    HW130189   9.869   4.760   2.117 -1.0664  1.5717  1.5889
 8024SOL    HW230190  10.006   4.761   2.205 -0.1294 -0.5674  0.1994
 8025SOL     OW30191   1.418   8.456   0.602 -0.0126  0.1354 -0.1441
 8025SOL    HW130192   1.393   8.535   0.658 -1.5278  0.3070 -1.0124
 8025SOL    HW230193   1.353   8.382   0.619  0.8373 -0.5917 -0.0365
 8026SOL     OW30194   5.685   1.479   3.560 -0.1346  0.3282  0.3932
 8026SOL    HW130195   5.725   1.396   3.520 -0.4887  1.3797 -2.3028
 8026SOL    HW230196   5.702   1.557   3.499 -3.5157  1.3995  0.6967
 8027SOL     OW30197   2.436   5.103   1.804 -0.1227  0.7720  0.1920
 8027SOL    HW130198   2.381   5.161   1.865  0.9133  1.8572  0.1075
 8027SOL    HW230199   2.532   5.110   1.829  0.1463  0.0621 -0.6294
 8028SOL     OW30200   1.386   4.793   3.997  0.0080 -0.3648 -0.4925
 8028SOL    HW130201   1.430   4.881   3.977 -0.4575  0.5109  2.1557
 8028SOL    HW230202   1.290   4.808   4.020 -0.4073 -1.7211 -1.3016
 8029SOL     OW30203   0.500   8.641   4.867 -0.2313  0.0956  0.0181
 8029SOL    HW130204   0.582   8.663   4.921  1.1307 -2.7263 -0.7565
 8029SOL    HW230205   0.484   8.542   4.872 -2.1988  0.2982 -1.8387
 8030SOL     OW30206   9.803   4.365   5.267 -0.3033  0.4623 -0.0929
 8030SOL    HW130207   9.746   4.433   5.222 -0.3138 -0.3547 -1.3365
 8030SOL    HW230208   9.771   4.351   5.360 -0.2309  2.2377  0.2164
 8032SOL     OW30209   5.934   1.358   3.790 -0.3375  0.1884 -0.0596
 8032SOL    HW130210   5.979   1.270   3.772 -0.0181  0.4190 -0.3676
 8032SOL    HW230211   5.863   1.373   3.722 -0.8886 -0.1750  0.4253
 8033SOL     OW30212   0.668   8.148   2.791 -0.1447  0.2406  0.0809
 8033SOL    HW130213   0.739   8.219   2.790  0.2766 -0.1177  1.8971
 8033SOL    HW230214   0.606   8.162   2.715  1.7762  0.6677 -1.4566
 8034SOL     OW30215   8.674   4.169   0.029  0.1867  0.2542  0.0206
 8034SOL    HW130216   8.623   4.141   0.110  0.3261 -2.1679 -0.6731
 8034SOL    HW230217   8.720   4.089  -0.010  0.7953  1.5377 -1.9731
 8036SOL     OW30218   1.113   0.656   5.115 -0.6287 -0.4484 -0.3615
 8036SOL    HW130219   1.187   0.722   5.103 -2.8404  2.1302 -0.4423
 8036SOL    HW230220   1.132   0.597   5.194  0.7374  1.2517  0.6128
 8037SOL     OW30221   9.293   5.846   3.754  0.1469 -0.1999 -0.1105
 8037SOL    HW130222   9.288   5.905   3.834  1.9546  1.0042 -0.8488
 8037SOL    HW230223   9.264   5.754   3.779  0.8806  0.1039  1.9839
 8038SOL     OW30224   3.944   1.418   3.928 -0.5315  0.2407 -0.0913
 8038SOL    HW130225   3.918   1.438   4.022  0.6051  1.2885  0.0175
 8038SOL    HW230226   3.889   1.343   3.893 -0.2891 -0.8024  1.7248
 8039SOL     OW30227   3.367   3.357   0.555 -0.1397  0.0209  0.0468
 8039SOL    HW130228   3.416   3.301   0.487 -0.2348  1.4824 -1.2436
 8039SOL    HW230229   3.433   3.394   0.620  0.0077 -1.0263  0.5130
 8040SOL     OW30230   4.947   7.599   4.623 -0.0959 -0.1171  0.2250
 8040SOL    HW130231   5.024   7.626   4.566  1.4561 -3.3551  0.6990
 8040SOL    HW230232   4.864   7.647   4.592  1.8816  2.7843 -0.8021
 8041SOL     OW30233   1.737   4.231   3.578 -0.2883  0.4944 -0.1842
 8041SOL    HW130234   1.664   4.173   3.613 -0.0996  0.5525  0.2993
 8041SOL    HW230235   1.793   4.179   3.513  0.2755 -0.0580  0.7475
 8042SOL     OW30236   0.580   0.003   3.399  0.2352  0.0774  0.0752
 8042SOL    HW130237   0.601   0.096   3.368  0.7547  0.2255  0.8445
 8042SOL    HW230238   0.500   0.005   3.458  1.9353  0.4620  2.4058
 8043SOL     OW30239   0.572   9.719   5.140 -0.3109 -0.0761  0.1675
 8043SOL    HW130240   0.584   9.627   5.176  1.4953  0.7201  1.6804
 8043SOL    HW230241   0.550   9.781   5.216  1.5840  1.2859 -0.3686
 8044SOL     OW30242   9.910   0.229   1.436  0.2814  0.0139 -0.2150
 8044SOL    HW130243   9.990   0.234   1.497  0.1002 -0.8079  0.0990
 8044SOL    HW230244   9.941   0.210   1.343  0.5170  0.6208 -0.2622
 8045SOL     OW30245   8.659   6.509   5.056 -0.5881  0.0302  0.2569
 8045SOL    HW130246   8.684   6.412   5.058  2.0202  0.6286 -1.0342
 8045SOL    HW230247   8.710   6.559   5.127 -1.0126  0.6541  0.1314
 8046SOL     OW30248   1.960   2.314   1.800  0.1308 -0.3540  0.0513
 8046SOL    HW130249   1.878   2.365   1.825 -1.1830 -2.2904 -0.1715
 8046SOL    HW230250   1.983   2.249   1.872  1.5409  0.2474  0.1567
 8047SOL     OW30251   8.063   5.510   4.910  0.0256  0.1681  0.0755
 8047SOL    HW130252   8.003   5.529   4.833 -2.5875 -0.3093  1.9366
 8047SOL    HW230253   8.098   5.596   4.947 -1.4494  0.6256  0.4442
 8048SOL     OW30254   6.866   0.984   4.431  0.4367 -0.0988  0.6871
 8048SOL    HW130255   6.894   1.063   4.377  0.4512 -0.2701  0.4439
 8048SOL    HW230256   6.806   1.013   4.505 -0.8194 -0.0449 -0.3278
 8049SOL     OW30257   9.367   4.000   3.759 -0.1379 -0.0969 -0.0122
 8049SOL    HW130258   9.414   3.946   3.690 -0.9675 -0.3249 -0.3987
 8049SOL    HW230259   9.435   4.045   3.818  0.5619 -0.2418 -0.7041
 8050SOL     OW30260   3.569   3.773   3.370  0.5214 -0.1512  0.1733
 8050SOL    HW130261   3.573   3.855   3.427  1.6130 -0.5282  0.6543
 8050SOL    HW230262   3.554   3.693   3.429  0.2175 -0.3872 -0.2205
 8051SOL     OW30263   8.920   8.966   4.037  0.3154  0.0226 -0.4912
 8051SOL    HW130264   8.880   8.901   4.102  0.3310 -0.8373 -1.3282
 8051SOL    HW230265   9.011   8.992   4.068  0.8669 -1.4226 -0.8372
 8052SOL     OW30266   3.532   3.731   1.193  0.2656  0.4227 -0.1622
 8052SOL    HW130267   3.543   3.649   1.137  2.2828  1.6493 -1.6387
 8052SOL    HW230268   3.442   3.772   1.175 -0.5468 -1.1831  0.2156
 8053SOL     OW30269   6.165   9.391   4.695  0.0563  0.5799  0.3460
 8053SOL    HW130270   6.145   9.350   4.784 -0.0061 -0.5095 -0.1505
 8053SOL    HW230271   6.263   9.409   4.689  0.4956 -1.8212 -0.3440
 8054SOL     OW30272   9.632   7.160   4.372  0.2102 -0.0542 -0.0704
 8054SOL    HW130273   9.576   7.077   4.375 -0.5070  0.4627  1.1819
 8054SOL    HW230274   9.728   7.135   4.358  0.3464 -1.2616  2.6965
 8055SOL     OW30275   2.315   5.264   4.763  0.3481  0.6300  0.1133
 8055SOL    HW130276   2.404   5.225   4.785 -0.4412 -1.4789 -0.2655
 8055SOL    HW230277   2.293   5.247   4.667 -0.5439  0.9377  0.2508
 8056SOL     OW30278   2.440   2.469   4.593 -0.1555 -0.0633  0.4571
 8056SOL    HW130279   2.458   2.401   4.522 -1.4498  1.0694 -0.9928
 8056SOL    HW230280   2.469   2.560   4.561  0.9879  0.1940  2.1255
 8058SOL     OW30281   8.822   3.685   3.770 -0.3191  0.6648  0.2503
 8058SOL    HW130282   8.861   3.774   3.790  0.0838  0.2822  1.1991
 8058SOL    HW230283   8.895   3.619   3.752 -0.5833  0.3577  0.2800
 8059SOL     OW30284   8.745   7.195   4.748 -0.6033  0.5433  0.2008
 8059SOL    HW130285   8.839   7.222   4.769 -0.5121  1.1716 -0.9779
 8059SOL    HW230286   8.716   7.122   4.811  0.9523 -0.2138  0.0538
 8060SOL     OW30287   1.844   9.364   4.564  0.5579  0.0660 -0.6405
 8060SOL    HW130288   1.856   9.460   4.587  1.8828 -0.4248  0.7712
 8060SOL    HW230289   1.759   9.353   4.512 -3.2646  1.1194  4.9803
 8061SOL     OW30290   8.069   2.806   3.942  0.5098 -0.8512 -0.2807
 8061SOL    HW130291   8.012   2.873   3.894  0.7775 -0.5623 -0.1977
 8061SOL    HW230292   8.096   2.734   3.879  1.5468 -0.0348 -0.7895
 8062SOL     OW30293   3.526   0.886   4.475 -0.6207 -0.1123  0.1587
 8062SOL    HW130294   3.606   0.906   4.531 -0.4422  0.7560 -0.4024
 8062SOL    HW230295   3.452   0.948   4.499  0.0894  1.5917 -1.9096
 8063SOL     OW30296   4.274   8.437   2.684 -0.0678 -0.0892  0.2047
 8063SOL    HW130297   4.239   8.492   2.760 -0.9283 -1.4477  0.8124
 8063SOL    HW230298   4.198   8.400   2.632  0.4905 -0.9746  0.0008
 8065SOL     OW30299   1.888   5.885   4.195  0.2542  0.3851  0.3832
 8065SOL    HW130300   1.874   5.824   4.117  2.1343  0.9888 -0.4607
 8065SOL    HW230301   1.986   5.903   4.206  0.0198  0.1870  3.0022
 8068SOL     OW30302   0.758   0.945   3.606 -0.5669 -0.1200  0.2031
 8068SOL    HW130303   0.665   0.978   3.592 -0.2060  1.0416  0.5290
 8068SOL    HW230304   0.763   0.896   3.694 -0.1825  2.4467  1.6585
 8069SOL     OW30305   0.663   2.052   4.800 -0.3896 -0.8600  0.7991
 8069SOL    HW130306   0.705   2.103   4.725 -2.3346  0.6982  0.7419
 8069SOL    HW230307   0.617   1.971   4.764 -0.4091 -0.6931  0.4492
 8070SOL     OW30308   4.523   1.933   2.639  0.0626  0.0753  0.0803
 8070SOL    HW130309   4.607   1.904   2.685 -1.0968  0.0087  2.2249
 8070SOL    HW230310   4.471   1.993   2.699 -1.7457 -0.4025 -0.9573
 8071SOL     OW30311   7.929   6.680   2.804  0.0918 -0.1900  0.0007
 8071SOL    HW130312   8.013   6.664   2.855  0.9899  0.2997 -1.3073
 8071SOL    HW230313   7.943   6.661   2.707 -1.5746 -1.0099 -0.1127
 8072SOL     OW30314   8.768   0.438   2.120  0.3584 -0.7836  0.2228
 8072SOL    HW130315   8.678   0.402   2.142  0.2136  1.2781  3.2768
 8072SOL    HW230316   8.759   0.517   2.060  0.1618 -0.7648  0.2770
 8073SOL     OW30317   9.157   2.641   5.253 -0.1549 -0.1164  0.2429
 8073SOL    HW130318   9.090   2.708   5.284 -0.9972 -0.3515 -1.0331
 8073SOL    HW230319   9.197   2.672   5.166  0.8740 -0.3193  0.6403
 8074SOL     OW30320   5.048   5.441   3.253  0.4216 -0.4768 -0.6267
 8074SOL    HW130321   5.105   5.403   3.180  1.3857 -1.1916  0.4845
 8074SOL    HW230322   5.098   5.440   3.339 -1.1077 -0.6864  0.2825
 8075SOL     OW30323   2.460   0.608   4.738 -0.2071  0.5987 -0.0098
 8075SOL    HW130324   2.369   0.567   4.751 -0.0034 -0.0021 -0.4734
 8075SOL    HW230325   2.530   0.537   4.744  0.0619  0.6742 -1.9904
 8076SOL     OW30326   7.506   0.143   2.370  0.1619  0.1370 -0.2861
 8076SOL    HW130327   7.482   0.062   2.316 -0.1095 -0.9717  1.4417
 8076SOL    HW230328   7.434   0.159   2.438  0.1547  1.9167 -0.7077
 8078SOL     OW30329   9.935   1.975   4.200  0.3645 -0.3644 -0.8702
 8078SOL    HW130330   9.990   1.923   4.135 -0.2308 -1.8875 -0.1800
 8078SOL    HW230331   9.962   1.950   4.293 -0.5568 -0.1073 -0.5330
 8079SOL     OW30332   0.377   6.749   3.680 -0.0171  0.2501  0.2237
 8079SOL    HW130333   0.439   6.822   3.708  0.4617  0.1679 -0.6339
 8079SOL    HW230334   0.289   6.788   3.653  0.4064  0.5493 -0.7215
 8080SOL     OW30335   5.084   0.940   3.240  0.5531  0.6127 -0.9797
 8080SOL    HW130336   4.994   0.902   3.216 -0.5145  1.9895  0.7416
 8080SOL    HW230337   5.097   0.935   3.339  3.2878 -1.4783 -1.3680
 8081SOL     OW30338   8.062   7.210   4.152 -0.3479 -0.0725 -0.0466
 8081SOL    HW130339   8.133   7.273   4.182  0.2871 -0.2090 -1.2688
 8081SOL    HW230340   7.980   7.224   4.208 -0.3580  2.1054 -0.5652
 8082SOL     OW30341   7.950   7.736   4.504  0.2107  0.0388 -0.0047
 8082SOL    HW130342   8.047   7.744   4.483  0.7662 -1.7963  1.7235
 8082SOL    HW230343   7.932   7.647   4.546 -2.3763 -0.0187 -1.1144
 8083SOL     OW30344   0.848   3.373   2.065  0.1846 -0.5826  0.0303
 8083SOL    HW130345   0.772   3.309   2.065  0.2146 -0.6181  0.1306
 8083SOL    HW230346   0.892   3.374   2.155 -0.1102 -0.0735  0.1712
 8085SOL     OW30347   8.910   0.647   0.774 -0.0153  0.0017  0.5229
 8085SOL    HW130348   8.876   0.563   0.733 -1.4061  1.3813 -1.2422
 8085SOL    HW230349   8.836   0.692   0.825 -0.2329  1.8072 -1.3154
 8086SOL     OW30350   8.409   1.993   2.269 -0.1132 -0.4118  0.4514
 8086SOL    HW130351   8.491   1.965   2.219 -1.8233 -0.4352 -2.4882
 8086SOL    HW230352   8.364   1.912   2.307  1.4075 -0.3570  2.4120
 8087SOL     OW30353   3.933   1.969   2.374 -0.2834 -0.1383 -0.4329
 8087SOL    HW130354   4.006   2.034   2.395 -0.3410  0.0514 -0.8148
 8087SOL    HW230355   3.962   1.877   2.401 -1.0769  0.3423  2.1424
 8089SOL     OW30356   9.058   2.709   4.036  0.3966  0.1433 -0.0318
 8089SOL    HW130357   9.148   2.665   4.034  0.6835  0.7535 -1.2293
 8089SOL    HW230358   9.067   2.800   4.076 -0.0378 -0.5225  1.6070
 8090SOL     OW30359   2.602   0.541   3.515 -0.4339  0.1366 -0.1647
 8090SOL    HW130360   2.617   0.639   3.532  0.3732 -0.0992  0.5429
 8090SOL    HW230361   2.664   0.510   3.443 -0.5561  0.1139 -0.2582
 8091SOL     OW30362   1.773   2.083   1.080 -0.0355  0.1455  0.2377
 8091SOL    HW130363   1.715   2.011   1.119 -1.8012  1.5584  0.2791
 8091SOL    HW230364   1.804   2.144   1.153  0.9244 -0.1969  0.1184
 8093SOL     OW30365   2.940   4.569   3.519 -0.3357  0.0934 -0.2564
 8093SOL    HW130366   2.928   4.666   3.538 -0.3289 -0.0667  0.5643
 8093SOL    HW230367   2.859   4.518   3.547 -0.2274 -0.1757 -0.4239
 8094SOL     OW30368   5.879   8.807   3.560  0.2877  0.1008 -0.0199
 8094SOL    HW130369   5.846   8.902   3.563  1.4611  0.5008  0.9560
 8094SOL    HW230370   5.972   8.804   3.598  0.2600 -1.4396 -0.0774
 8095SOL     OW30371   0.713   5.158   2.329 -0.6443 -0.1115  1.2246
 8095SOL    HW130372   0.620   5.193   2.327 -0.8854 -0.7589 -0.9902
 8095SOL    HW230373   0.711   5.062   2.358 -0.9875 -0.8331 -1.0025
 8096SOL     OW30374   9.042   9.524   4.930  0.0756  0.0308 -0.2750
 8096SOL    HW130375   9.076   9.564   5.015 -0.2872 -0.1018 -0.0727
 8096SOL    HW230376   9.037   9.595   4.860 -1.1404  0.4641  0.2511
 8097SOL     OW30377   2.812   4.789   4.643  0.2350  0.3488 -0.1795
 8097SOL    HW130378   2.759   4.766   4.724 -0.3286 -1.7949 -1.0952
 8097SOL    HW230379   2.753   4.834   4.576 -0.3134 -1.4589 -0.9437
 8098SOL     OW30380   2.056   1.237   2.023  0.4926 -0.3315  0.4213
 8098SOL    HW130381   2.098   1.319   1.984 -0.2987 -0.1671 -0.0896
 8098SOL    HW230382   2.117   1.159   2.008  1.5348  0.2712  1.4696
 8099SOL     OW30383   1.885   3.396   1.011  0.0953 -0.3312 -0.2838
 8099SOL    HW130384   1.818   3.328   0.984  0.0478  0.4554 -2.1990
 8099SOL    HW230385   1.861   3.485   0.971  1.5771  0.2324  0.0356
 8100SOL     OW30386   0.493   2.319   0.528 -0.1120  0.0757  0.4054
 8100SOL    HW130387   0.586   2.354   0.535  0.4352 -1.2286 -0.1608
 8100SOL    HW230388   0.471   2.266   0.609  0.0482 -0.5465  0.0486
 8101SOL     OW30389   8.061   0.921   1.893 -0.4347 -0.0295  0.2223
 8101SOL    HW130390   8.091   0.993   1.831  0.6339 -0.1154  0.6298
 8101SOL    HW230391   8.034   0.840   1.839  0.4702 -0.0980 -0.1245
 8102SOL     OW30392   8.278   9.724   1.630  0.3730 -0.0331  0.3060
 8102SOL    HW130393   8.179   9.732   1.634  0.2392 -0.5837 -1.3200
 8102SOL    HW230394   8.320   9.809   1.660 -0.5887  0.1447  1.1498
 8104SOL     OW30395   0.634   7.926   0.402 -0.1430 -0.2818  0.2076
 8104SOL    HW130396   0.718   7.979   0.412 -1.1357  0.9113  2.4956
 8104SOL    HW230397   0.600   7.936   0.308  1.1179  0.9140 -0.1498
 8106SOL     OW30398   0.838   1.678   2.900 -0.3659 -0.3214 -0.0679
 8106SOL    HW130399   0.838   1.748   2.972 -1.7984  0.0183 -0.3946
 8106SOL    HW230400   0.786   1.599   2.931  0.6961 -0.9850  0.0381
 8108SOL     OW30401   2.091   6.011   1.516 -0.4779  0.2046 -0.0606
 8108SOL    HW130402   2.177   6.047   1.481 -1.2410  1.5068 -0.6334
 8108SOL    HW230403   2.099   5.997   1.615  0.1423  1.0719  0.0227
 8109SOL     OW30404   5.359   0.279   4.181 -0.3780  0.5205  0.1267
 8109SOL    HW130405   5.347   0.226   4.265 -1.0200 -0.1991 -0.4149
 8109SOL    HW230406   5.270   0.291   4.136  0.1861 -0.5860 -1.3401
 8110SOL     OW30407   1.537   4.890   3.659 -0.4080  0.1430 -0.4387
 8110SOL    HW130408   1.547   4.989   3.669  1.8035  0.1375 -1.9867
 8110SOL    HW230409   1.554   4.845   3.747  0.8027  1.0348 -0.1991
 8111SOL     OW30410   3.221   8.025   0.656  0.1470 -0.1625  0.8197
 8111SOL    HW130411   3.289   7.991   0.721  1.6664 -1.4454 -1.3470
 8111SOL    HW230412   3.249   8.114   0.622  1.4959 -1.2557 -1.0446
 8112SOL     OW30413   7.732   7.504   4.364 -0.2860  0.0051  0.4935
 8112SOL    HW130414   7.762   7.584   4.311 -1.0128 -0.3542 -0.4802
 8112SOL    HW230415   7.638   7.482   4.340  0.7754 -2.7861 -1.2889
 8113SOL     OW30416   4.819   8.172   5.165  0.3242  0.2477 -0.0149
 8113SOL    HW130417   4.758   8.103   5.206  0.7591  0.4723  1.0265
 8113SOL    HW230418   4.812   8.167   5.065 -0.6188 -0.4346  0.0749
 8114SOL     OW30419   1.680   4.498   0.095  0.2572 -0.0595 -0.2151
 8114SOL    HW130420   1.707   4.500  -0.001 -0.0756  0.7806 -0.3001
 8114SOL    HW230421   1.587   4.461   0.103 -0.6534  2.0604 -0.4756
 8116SOL     OW30422   1.224   8.696   2.190  0.2612 -0.0282 -0.2716
 8116SOL    HW130423   1.215   8.596   2.181  1.0937 -0.2045  0.7644
 8116SOL    HW230424   1.187   8.740   2.109  1.0343 -1.2478 -1.3038
 8117SOL     OW30425   9.294   6.084   2.150  0.7978 -0.6657  0.0489
 8117SOL    HW130426   9.356   6.009   2.126  1.6125  0.2253 -0.6910
 8117SOL    HW230427   9.229   6.099   2.076  0.7914 -0.4849  0.0899
 8118SOL     OW30428   0.980   8.364   4.588  0.1234  0.0001 -0.2396
 8118SOL    HW130429   0.928   8.281   4.569  0.9690 -1.1454  2.2380
 8118SOL    HW230430   0.927   8.422   4.650 -0.4612  1.3515 -1.9555
 8119SOL     OW30431   9.229   5.513   4.124  0.1525 -0.5918 -0.3695
 8119SOL    HW130432   9.271   5.450   4.188 -0.0907  0.5950  0.9756
 8119SOL    HW230433   9.142   5.475   4.091  1.6291 -2.4895 -2.2256
 8120SOL     OW30434   2.529   2.457   1.608 -0.0969 -0.7125  0.5543
 8120SOL    HW130435   2.510   2.504   1.522  0.4989 -0.6341  0.4662
 8120SOL    HW230436   2.457   2.478   1.674  0.4573  0.8017  0.6963
 8122SOL     OW30437   9.597   2.667   1.720  0.1661 -0.5521 -0.1916
 8122SOL    HW130438   9.593   2.736   1.647 -1.9869 -1.8523 -1.3300
 8122SOL    HW230439   9.689   2.629   1.724  0.8061  0.8635 -0.9666
 8123SOL     OW30440   9.435   9.111   0.192 -0.2039 -0.2497  0.1117
 8123SOL    HW130441   9.375   9.032   0.179  0.7674 -1.1302  0.8479
 8123SOL    HW230442   9.462   9.148   0.103 -2.0588  0.3425 -0.2253
 8124SOL     OW30443   7.733   8.953   4.188 -0.1663 -0.0292  0.0077
 8124SOL    HW130444   7.833   8.956   4.190 -0.0853 -2.4830  0.8246
 8124SOL    HW230445   7.702   8.923   4.098 -0.2300  1.6623 -0.5589
 8126SOL     OW30446   3.544   8.560   3.853 -0.7593 -0.2139 -0.7425
 8126SOL    HW130447   3.544   8.639   3.914  2.1838 -0.5472 -0.2338
 8126SOL    HW230448   3.516   8.589   3.761 -0.2195  1.3345 -0.4360
 8127SOL     OW30449   9.834   9.258   2.247 -0.2834 -0.0265  0.1690
 8127SOL    HW130450   9.779   9.257   2.164  1.3539  4.4713 -1.0867
 8127SOL    HW230451   9.891   9.176   2.250 -2.9849 -2.0379 -1.2298
 8129SOL     OW30452   2.710   1.221   4.898 -0.0648  0.7805 -0.0563
 8129SOL    HW130453   2.685   1.187   4.988  2.2741 -1.1270 -0.0694
 8129SOL    HW230454   2.673   1.313   4.885 -1.2061  0.7058  2.4577
 8131SOL     OW30455   6.170   9.592   5.047 -0.0821 -0.4467  0.6367
 8131SOL    HW130456   6.258   9.602   5.000  0.2378  1.4292  1.6306
 8131SOL    HW230457   6.117   9.520   5.002  2.4343 -2.4458  0.7611
 8132SOL     OW30458   0.099   3.628   1.697 -0.6511 -0.2203 -0.0166
 8132SOL    HW130459   0.005   3.629   1.734 -0.8677  2.0968 -0.5207
 8132SOL    HW230460   0.125   3.721   1.672  1.8533 -0.8204  0.2255
 8133SOL     OW30461   0.099   3.614   1.209 -0.0968 -0.3139 -0.1255
 8133SOL    HW130462   0.085   3.577   1.301  0.1190  0.6034  0.2881
 8133SOL    HW230463   0.177   3.569   1.166 -1.7847 -2.6043 -0.8836
 8134SOL     OW30464   9.894   4.106   0.055 -0.6915  0.6203  0.0240
 8134SOL    HW130465   9.976   4.127   0.001  0.3769 -0.7257  1.0888
 8134SOL    HW230466   9.852   4.191   0.086  1.8675  1.2793  1.7917
 8135SOL     OW30467   0.787   2.790   0.823  0.4552  0.4646  0.5909
 8135SOL    HW130468   0.786   2.882   0.784  0.5982 -0.0337 -0.5975
 8135SOL    HW230469   0.880   2.766   0.851  0.6545  0.1777 -0.3108
 8136SOL     OW30470   8.067   7.363   2.269 -1.1929 -0.2032  0.0510
 8136SOL    HW130471   8.071   7.360   2.369  0.8261  0.4138  0.0156
 8136SOL    HW230472   8.082   7.272   2.232  2.3228  0.2153  0.2583
 8137SOL     OW30473   8.653   4.191   1.774 -0.2385  0.4492  0.5646
 8137SOL    HW130474   8.565   4.172   1.816  0.3410 -1.8537  0.8167
 8137SOL    HW230475   8.639   4.217   1.678 -1.3416  2.6127  1.2943
 8138SOL     OW30476   0.558   4.879   3.093  0.4865 -0.6529  0.2703
 8138SOL    HW130477   0.517   4.935   3.021  1.0555  0.3403  0.7192
 8138SOL    HW230478   0.592   4.938   3.166  2.0895 -1.5002  0.2356
 8140SOL     OW30479   0.365   1.180   2.351 -0.3722 -0.1095 -0.5892
 8140SOL    HW130480   0.316   1.253   2.304  1.0688 -0.3009 -2.4641
 8140SOL    HW230481   0.432   1.219   2.414  1.2620  0.2456 -2.4992
 8141SOL     OW30482   8.085   4.609   4.764 -0.4044  0.6384  0.1182
 8141SOL    HW130483   8.096   4.579   4.669 -2.8016 -0.0489  0.0370
 8141SOL    HW230484   8.085   4.709   4.767 -0.9924  0.6684 -0.6976
 8142SOL     OW30485   4.488   7.862   4.497 -0.1414  0.2384 -0.4101
 8142SOL    HW130486   4.457   7.866   4.592  0.0013 -0.4903 -0.3300
 8142SOL    HW230487   4.545   7.781   4.484  0.1431  0.5358 -1.0283
 8143SOL     OW30488   2.395   7.930   0.961  0.1717  0.1535 -0.2285
 8143SOL    HW130489   2.319   7.930   1.027  0.8263  0.9484  0.5412
 8143SOL    HW230490   2.377   7.997   0.889  0.7308  1.2812  0.6627
 8144SOL     OW30491   0.212   1.613   2.929  0.6615  0.6851  0.4518
 8144SOL    HW130492   0.281   1.543   2.908 -0.2279  0.1481 -0.7098
 8144SOL    HW230493   0.137   1.572   2.980 -0.2242  0.6026 -0.8813
 8145SOL     OW30494   4.296   2.724   0.998  0.1416 -0.1969 -0.2320
 8145SOL    HW130495   4.207   2.697   1.033  0.1355 -0.1776 -0.2325
 8145SOL    HW230496   4.329   2.656   0.933 -0.5729  0.5788 -1.4151
 8146SOL     OW30497   0.620   4.308   3.764 -0.0713 -0.2200 -0.3621
 8146SOL    HW130498   0.709   4.345   3.792 -0.1538 -1.7709  2.0946
 8146SOL    HW230499   0.553   4.382   3.762  1.0121  0.7838 -1.2534
 8147SOL     OW30500   1.316   8.476   2.774  0.1264  0.0893  0.0984
 8147SOL    HW130501   1.330   8.518   2.684  0.7546  1.9914  1.0667
 8147SOL    HW230502   1.404   8.449   2.813 -0.2107 -1.5021 -0.1895
 8148SOL     OW30503   2.929   3.353   5.166 -0.4121 -0.5076  0.0308
 8148SOL    HW130504   2.992   3.374   5.092  2.2773 -0.2807  2.3120
 8148SOL    HW230505   2.974   3.295   5.234 -2.6700 -0.4075  1.7036
 8149SOL     OW30506   0.162   4.982   1.626 -0.3241 -0.0990 -0.4754
 8149SOL    HW130507   0.205   4.960   1.713 -0.3520  2.9937  0.3965
 8149SOL    HW230508   0.077   4.931   1.616 -1.3906  1.0482  2.2791
 8150SOL     OW30509   3.353   0.175   0.915  0.4100 -0.0737  0.6780
 8150SOL    HW130510   3.385   0.203   0.824 -0.0658 -0.7269  0.3003
 8150SOL    HW230511   3.305   0.088   0.907 -0.3925  0.2962  1.4275
 8153SOL     OW30512   7.935   5.278   2.005 -0.1353  0.3156 -0.5230
 8153SOL    HW130513   8.003   5.221   2.052 -2.5563 -1.4001  1.0441
 8153SOL    HW230514   7.962   5.374   2.012  2.2906 -0.3515 -0.2336
 8154SOL     OW30515   9.043   7.424   0.667 -0.1470  0.3373  0.2182
 8154SOL    HW130516   9.031   7.340   0.720 -0.8474 -0.0750 -0.5734
 8154SOL    HW230517   9.115   7.411   0.599  0.4845  0.7376  0.8054
 8155SOL     OW30518   1.005   7.681   5.138  0.2591  0.0105  0.2135
 8155SOL    HW130519   1.058   7.717   5.062 -0.0552 -1.0914 -0.5497
 8155SOL    HW230520   0.982   7.755   5.201  0.3549  0.9813 -0.8646
 8156SOL     OW30521   9.635   6.741   0.512 -0.1901  0.1257  0.1202
 8156SOL    HW130522   9.565   6.685   0.470 -2.2130  1.8325  1.1323
 8156SOL    HW230523   9.692   6.783   0.441 -0.0212 -1.4663 -0.6932
 8157SOL     OW30524   1.989   9.881   2.169  0.3993 -0.2687  0.2579
 8157SOL    HW130525   1.894   9.863   2.194 -0.1634 -1.0138 -2.2883
 8157SOL    HW230526   1.993   9.934   2.085  2.2385 -0.7286  0.0196
 8159SOL     OW30527   3.748   7.299   0.917  0.0352  0.4834  0.1893
 8159SOL    HW130528   3.704   7.327   1.002  0.2363  2.0467 -0.2074
 8159SOL    HW230529   3.714   7.356   0.841  0.7128 -0.1179 -0.5780
 8160SOL     OW30530   7.011   4.103   1.582  0.6400 -0.8746 -0.7473
 8160SOL    HW130531   7.043   4.014   1.614  1.6282 -0.9609 -1.9439
 8160SOL    HW230532   7.084   4.148   1.530  0.7741  1.3811  1.2967
 8161SOL     OW30533   2.254   2.330   3.929 -0.0205  0.4222  0.4344
 8161SOL    HW130534   2.193   2.254   3.951  2.1394 -1.6161 -0.4914
 8161SOL    HW230535   2.283   2.375   4.014 -2.7528  1.4202  0.8919
 8164SOL     OW30536   2.239   2.878   5.236  0.4184  0.0704  0.8187
 8164SOL    HW130537   2.268   2.970   5.264  0.6246  0.0156  0.7848
 8164SOL    HW230538   2.317   2.829   5.197 -0.0946  0.4898 -0.7688
 8165SOL     OW30539   7.861   3.752   4.456 -0.4781  0.1794 -0.2691
 8165SOL    HW130540   7.784   3.760   4.392 -0.4397  2.1821 -0.0719
 8165SOL    HW230541   7.838   3.685   4.527 -2.1289  0.8931 -0.1013
 8166SOL     OW30542   3.942   6.458   0.640 -0.2442 -0.0774 -0.6153
 8166SOL    HW130543   4.018   6.401   0.671  0.8274  0.6589 -1.8456
 8166SOL    HW230544   3.857   6.406   0.646  0.6257 -1.5953 -1.1141
 8167SOL     OW30545   1.778   0.438   1.140  0.1153  0.6738 -0.6895
 8167SOL    HW130546   1.870   0.446   1.179 -0.8298  1.6532  1.4576
 8167SOL    HW230547   1.761   0.516   1.080  0.7353  0.3889 -1.2493
 8168SOL     OW30548   9.125   1.010   4.966  0.5281  0.0121  0.0777
 8168SOL    HW130549   9.150   1.083   5.031  1.7379  0.4613 -0.8747
 8168SOL    HW230550   9.033   0.978   4.987 -1.0256  3.4884 -0.9279
 8169SOL     OW30551   3.560   4.068   2.039  0.0323 -0.0770  0.8072
 8169SOL    HW130552   3.595   4.020   1.959 -0.9767 -0.8315  0.8146
 8169SOL    HW230553   3.607   4.036   2.121 -0.1566 -0.5642  0.7273
 8170SOL     OW30554   2.339   3.779   0.169  0.0896  0.0822 -0.5646
 8170SOL    HW130555   2.427   3.761   0.126  0.2927 -0.0100 -0.1206
 8170SOL    HW230556   2.353   3.798   0.266 -0.4768 -0.9811 -0.2634
 8171SOL     OW30557   3.225   9.401   2.225 -0.1565  0.2998  0.6951
 8171SOL    HW130558   3.309   9.403   2.279  0.5367  2.1907 -0.4181
 8171SOL    HW230559   3.226   9.320   2.167  0.5751 -0.0500  1.1783
 8172SOL     OW30560   1.213   8.929   2.362  0.3094  0.5467  0.0242
 8172SOL    HW130561   1.271   8.917   2.443 -0.2339  2.6766  0.7480
 8172SOL    HW230562   1.212   8.844   2.309  2.1654 -0.2774  1.2658
 8173SOL     OW30563   8.244   7.155   1.826  0.0226 -0.7547 -0.3223
 8173SOL    HW130564   8.229   7.192   1.917  0.3684  1.4359 -1.1282
 8173SOL    HW230565   8.273   7.059   1.833 -0.0819 -0.6423  1.8454
 8174SOL     OW30566   4.436   1.716   0.590  0.5643 -0.3288 -0.2634
 8174SOL    HW130567   4.403   1.787   0.653  1.1105 -1.1202  0.9416
 8174SOL    HW230568   4.514   1.751   0.538  0.8771 -0.0517  0.3808
 8175SOL     OW30569   5.994   2.609   3.541 -0.1418 -0.2880  0.1072
 8175SOL    HW130570   6.036   2.640   3.627 -1.0499  1.6655 -0.1363
 8175SOL    HW230571   6.066   2.576   3.480  0.4727 -2.1798  1.7774
 8176SOL     OW30572   3.450   2.311   3.415  0.0586 -0.6692  0.2199
 8176SOL    HW130573   3.357   2.304   3.380 -0.9439 -1.5275  2.8583
 8176SOL    HW230574   3.515   2.285   3.344 -1.8923 -3.0588 -0.7716
 8177SOL     OW30575   0.750   5.808   5.023 -0.4598  0.3520  0.1956
 8177SOL    HW130576   0.699   5.797   5.108  1.1594 -0.8349  1.0622
 8177SOL    HW230577   0.717   5.743   4.955 -0.7156  0.2226  0.4423
 8178SOL     OW30578   5.285   1.301   3.349 -0.3228 -0.3903 -0.0652
 8178SOL    HW130579   5.372   1.344   3.323 -0.5228  0.0779  0.0300
 8178SOL    HW230580   5.284   1.286   3.448 -1.7222  2.7561  0.4539
 8179SOL     OW30581   0.109   6.302   0.918 -0.4695  0.0611 -0.2799
 8179SOL    HW130582   0.043   6.306   0.993 -0.6884  0.0870 -0.4764
 8179SOL    HW230583   0.068   6.336   0.834  0.5145  2.3182  0.1204
 8180SOL     OW30584   4.847   4.101   1.128 -0.3370  0.5197  0.6099
 8180SOL    HW130585   4.852   4.193   1.167 -0.4926  0.3815  0.9511
 8180SOL    HW230586   4.801   4.039   1.192  1.6286 -0.2800  1.3215
 8181SOL     OW30587   6.388   1.805   1.036  0.2858  0.0650  0.4409
 8181SOL    HW130588   6.346   1.718   1.060 -1.5535  0.0559 -2.4328
 8181SOL    HW230589   6.335   1.880   1.076  0.2558 -0.0664  0.6467
 8183SOL     OW30590   9.097   2.205   5.313 -0.2876  0.0586 -0.2415
 8183SOL    HW130591   9.072   2.115   5.349  1.3810 -0.0573  0.6807
 8183SOL    HW230592   9.039   2.227   5.234 -0.8664 -1.7104 -0.3286
 8185SOL     OW30593   3.236   7.889   2.377  0.1645 -0.0381 -0.0818
 8185SOL    HW130594   3.315   7.882   2.438  0.2508  0.6174 -0.1245
 8185SOL    HW230595   3.153   7.901   2.432  0.0598 -0.9518 -0.0256
 8186SOL     OW30596   5.273   8.182   3.396 -0.2831 -0.2139  0.0724
 8186SOL    HW130597   5.299   8.161   3.490 -1.8439  1.5282  0.9409
 8186SOL    HW230598   5.186   8.137   3.374 -1.4963  1.7999  0.5455
 8188SOL     OW30599   4.429   7.952   3.550  0.1545  0.2742  0.3301
 8188SOL    HW130600   4.395   7.970   3.458  0.8016 -0.0074  0.0310
 8188SOL    HW230601   4.515   7.901   3.544  0.6246  0.9631  1.0685
 8189SOL     OW30602   4.937   0.726   2.144 -0.2137 -0.2252 -0.4597
 8189SOL    HW130603   5.031   0.704   2.169 -0.4316 -0.5749  0.0508
 8189SOL    HW230604   4.930   0.824   2.125  0.5267 -0.4032 -1.7191
 8190SOL     OW30605   7.714   7.592   4.013  0.0147 -0.1234  0.0677
 8190SOL    HW130606   7.740   7.524   4.082  0.4049  0.8757  0.9293
 8190SOL    HW230607   7.641   7.650   4.049 -1.6600 -1.2840 -1.3904
 8192SOL     OW30608   8.198   0.820   0.395 -0.0863 -0.5841  0.3937
 8192SOL    HW130609   8.193   0.809   0.296  1.7085 -0.9140  0.3168
 8192SOL    HW230610   8.185   0.731   0.439  2.0191 -0.9690  0.3046
 8193SOL     OW30611   9.920   5.334   4.826  0.5028  0.9336 -0.0171
 8193SOL    HW130612   9.845   5.372   4.880  0.5174  2.7236 -1.2304
 8193SOL    HW230613   9.889   5.319   4.732  0.5990 -1.7797  0.3275
 8194SOL     OW30614   7.254   9.641   5.196  0.0294 -0.0506  0.0600
 8194SOL    HW130615   7.155   9.652   5.209 -0.0893 -0.4972 -0.4399
 8194SOL    HW230616   7.294   9.603   5.280 -0.4147 -1.0335 -0.1652
 8195SOL     OW30617   2.638   1.695   5.074  0.2188 -0.5406  0.0474
 8195SOL    HW130618   2.573   1.705   5.149  0.4097  0.6286  0.0630
 8195SOL    HW230619   2.663   1.785   5.038  1.8469 -0.9675  0.0444
 8196SOL     OW30620   9.815   2.241   4.265  0.5369  0.2559  0.6160
 8196SOL    HW130621   9.810   2.305   4.188  1.7651  0.1229  0.4171
 8196SOL    HW230622   9.837   2.150   4.230  1.1970  0.2140  1.1313
 8197SOL     OW30623   2.913   7.059   1.570  0.3142  0.3036 -0.3276
 8197SOL    HW130624   2.859   7.136   1.537 -0.9047 -0.0575  0.7466
 8197SOL    HW230625   2.852   6.981   1.585  1.2577 -0.3307  0.2422
 8198SOL     OW30626   0.129   7.585   5.031  0.0312 -0.1726  0.4299
 8198SOL    HW130627   0.170   7.505   4.988 -0.2066  1.0436 -2.1457
 8198SOL    HW230628   0.201   7.650   5.055 -0.0075 -0.0174  0.1199
 8199SOL     OW30629   3.122   5.428   2.486 -0.5350  0.0742  0.1541
 8199SOL    HW130630   3.033   5.439   2.530 -1.1405  1.1234 -1.3088
 8199SOL    HW230631   3.194   5.461   2.547 -1.0545 -1.5368  1.6732
 8202SOL     OW30632   1.194   4.282   2.032 -0.3520 -0.0145 -0.8877
 8202SOL    HW130633   1.249   4.198   2.031  1.0549  0.8850 -0.1783
 8202SOL    HW230634   1.103   4.261   2.067  0.6573 -0.8515  1.3184
 8204SOL     OW30635   0.607   8.390   3.057  0.3515  0.0247  0.2452
 8204SOL    HW130636   0.606   8.455   3.134  1.8007 -0.7614  0.9597
 8204SOL    HW230637   0.525   8.403   3.001 -0.0854  1.4915  1.1908
 8206SOL     OW30638   7.338   2.357   0.656 -0.4282  0.1937  0.0353
 8206SOL    HW130639   7.390   2.441   0.640 -1.0161  0.4939 -0.3114
 8206SOL    HW230640   7.399   2.278   0.647 -0.2924  0.4658 -1.6135
 8207SOL     OW30641   2.915   3.765   0.050 -0.5549  0.8967 -0.1269
 8207SOL    HW130642   2.934   3.701  -0.025 -0.6956  0.1070  0.5133
 8207SOL    HW230643   2.932   3.721   0.137 -0.8247  1.6800  0.3269
 8208SOL     OW30644   5.082   0.058   2.048  0.0881 -0.2130  0.0047
 8208SOL    HW130645   5.001   0.091   2.096  0.8719 -0.3276  1.4366
 8208SOL    HW230646   5.145   0.134   2.033 -0.2530 -0.1390 -1.0334
 8209SOL     OW30647   3.941   6.671   2.033 -0.5774 -0.0505  0.0214
 8209SOL    HW130648   3.921   6.657   2.130 -0.8819 -0.2195 -0.0659
 8209SOL    HW230649   3.875   6.734   1.994 -1.2851 -1.0271 -0.3931
 8211SOL     OW30650   3.282   0.479   4.898  0.2640 -0.4124 -0.5115
 8211SOL    HW130651   3.260   0.564   4.850  0.1184 -0.0934  0.1151
 8211SOL    HW230652   3.379   0.458   4.885 -0.1924 -1.3811 -2.5811
 8212SOL     OW30653   5.259   3.924   0.979 -0.0959  0.1347 -0.5899
 8212SOL    HW130654   5.201   3.979   1.039  0.4777 -0.0543  0.1592
 8212SOL    HW230655   5.348   3.911   1.022 -0.0643 -0.9842 -0.9615
 8213SOL     OW30656   5.310   2.110   2.584  0.3940 -0.0379 -0.0759
 8213SOL    HW130657   5.295   2.065   2.496 -0.0770  1.4977 -0.7817
 8213SOL    HW230658   5.276   2.051   2.657 -0.2071 -0.8409 -0.9905
 8215SOL     OW30659   4.098   3.654   0.391 -0.3411  0.2029 -0.4518
 8215SOL    HW130660   4.147   3.567   0.393 -1.0720 -0.3337 -3.3222
 8215SOL    HW230661   4.000   3.636   0.401 -0.2637  0.9664  1.8237
 8216SOL     OW30662   5.138   7.746   5.296 -0.0654 -0.1638 -0.0494
 8216SOL    HW130663   5.176   7.811   5.362 -0.8653 -0.9038  1.1514
 8216SOL    HW230664   5.213   7.699   5.249  0.5257  1.7359 -1.0762
 8217SOL     OW30665   9.238   7.452   4.641 -0.2571 -0.0756  0.0843
 8217SOL    HW130666   9.184   7.491   4.567 -1.7852 -1.2772  0.5512
 8217SOL    HW230667   9.260   7.523   4.708  0.3379  0.8135 -1.0358
 8218SOL     OW30668   4.660   9.016   2.272  0.2774  0.1639 -0.5183
 8218SOL    HW130669   4.713   8.946   2.319  1.2415  0.7354 -0.7529
 8218SOL    HW230670   4.714   9.100   2.263 -1.1259  1.2025  0.4358
 8220SOL     OW30671   8.395   5.253   1.982 -0.6007  0.3266  0.1294
 8220SOL    HW130672   8.301   5.245   2.015 -0.2167 -0.8246  0.9856
 8220SOL    HW230673   8.439   5.163   1.983  0.5009  0.8438 -0.2877
 8221SOL     OW30674   2.967   4.538   4.778  0.0034 -0.1512 -0.4268
 8221SOL    HW130675   2.976   4.604   4.852  3.0316 -1.3338  0.3488
 8221SOL    HW230676   2.942   4.449   4.816 -0.0279 -0.3890 -1.0030
 8223SOL     OW30677   8.218   0.973   4.158 -0.2663  0.0126 -0.2954
 8223SOL    HW130678   8.259   1.036   4.093  1.8768  1.3049  2.2127
 8223SOL    HW230679   8.188   1.023   4.239  0.6922 -2.0532  1.3810
 8224SOL     OW30680   8.919   8.321   2.429  0.1040  0.5460 -0.5584
 8224SOL    HW130681   8.951   8.283   2.516 -0.7911  1.2329  0.0809
 8224SOL    HW230682   8.830   8.282   2.407  0.3949  0.2685 -1.2430
 8225SOL     OW30683   9.766   6.268   1.878  0.0392  0.1578  0.2299
 8225SOL    HW130684   9.789   6.349   1.823  1.6823 -0.2761  0.2730
 8225SOL    HW230685   9.744   6.297   1.971 -1.7020  0.7842 -0.3480
 8226SOL     OW30686   5.748   7.404   3.612 -0.3124  0.0264  0.3197
 8226SOL    HW130687   5.793   7.375   3.528  1.0730 -1.0750  1.4063
 8226SOL    HW230688   5.652   7.378   3.610  0.1937 -1.8961 -0.0551
 8227SOL     OW30689   9.496   1.530   0.627 -0.2984  0.0724 -0.2175
 8227SOL    HW130690   9.442   1.590   0.686 -1.2116 -1.5861  0.6645
 8227SOL    HW230691   9.576   1.497   0.676  0.0941  0.4136 -0.6294
 8228SOL     OW30692   4.760   4.512   2.683  0.6342  0.0497 -0.1548
 8228SOL    HW130693   4.781   4.420   2.650  2.5087  0.0895  0.8637
 8228SOL    HW230694   4.772   4.578   2.609 -0.3710 -0.4688 -0.7936
 8230SOL     OW30695   3.544   2.238   3.905 -0.2717  0.4485  0.6349
 8230SOL    HW130696   3.630   2.250   3.953  0.3125 -1.1626  0.0012
 8230SOL    HW230697   3.539   2.303   3.829  0.8726 -0.2075 -0.0013
 8231SOL     OW30698   1.782   5.424   1.912  0.5033 -0.3224  0.4229
 8231SOL    HW130699   1.694   5.470   1.904  0.5798 -0.1216  0.7824
 8231SOL    HW230700   1.769   5.336   1.958  0.8677  0.7750  2.6925
 8232SOL     OW30701   8.562   8.166   3.809 -0.1985 -0.2997  0.4787
 8232SOL    HW130702   8.603   8.125   3.890 -1.5107  0.7077  1.6798
 8232SOL    HW230703   8.549   8.264   3.824 -1.2672 -0.2677 -0.5936
 8234SOL     OW30704   8.838   1.786   0.302  0.4038 -0.6914 -0.0479
 8234SOL    HW130705   8.812   1.854   0.370 -0.6833  1.7993 -2.8566
 8234SOL    HW230706   8.930   1.806   0.267  0.7947 -1.7248  0.3506
 8235SOL     OW30707   8.399   5.459   4.805 -0.7633 -0.1749 -0.2936
 8235SOL    HW130708   8.407   5.484   4.902  1.6654 -1.5093 -0.0818
 8235SOL    HW230709   8.341   5.524   4.758  0.3568  2.1813  1.4750
 8236SOL     OW30710   3.518   7.219   2.474 -0.1704 -0.2443  0.1030
 8236SOL    HW130711   3.506   7.307   2.428  1.8765  0.1412  0.2704
 8236SOL    HW230712   3.509   7.145   2.407 -0.4001  0.1553 -0.3147
 8237SOL     OW30713   8.528   8.652   0.222 -0.4002 -0.1442 -0.5617
 8237SOL    HW130714   8.439   8.612   0.242  0.4139 -0.7312  2.0351
 8237SOL    HW230715   8.586   8.582   0.181 -0.4268 -0.3835 -0.1953
 8238SOL     OW30716   6.461   7.266   5.067  0.1714 -0.1304 -0.0165
 8238SOL    HW130717   6.361   7.263   5.076  0.1710  0.6954  0.2503
 8238SOL    HW230718   6.485   7.300   4.976  0.2069  2.0898  0.7904
 8240SOL     OW30719   4.116   8.954   2.001  0.1867 -0.2064 -0.0024
 8240SOL    HW130720   4.194   8.906   1.960  1.5832  0.6060  1.6551
 8240SOL    HW230721   4.101   8.920   2.093 -0.4824  0.7053  0.2289
 8241SOL     OW30722   2.601   6.962   3.339 -0.5202  0.1853  0.0401
 8241SOL    HW130723   2.511   6.964   3.382  0.6646  0.3826  2.5660
 8241SOL    HW230724   2.631   6.868   3.329 -1.9039 -0.0152 -2.8398
 8242SOL     OW30725   2.930   4.076   0.721 -0.4860 -0.4826  0.2954
 8242SOL    HW130726   2.929   4.175   0.733 -1.5020 -0.4154 -0.2886
 8242SOL    HW230727   2.886   4.052   0.634  1.9267 -1.3085 -0.7352
 8243SOL     OW30728   1.502   2.360   0.040 -0.2523 -0.3304  0.1495
 8243SOL    HW130729   1.472   2.418  -0.035  0.3157  1.3094  1.1766
 8243SOL    HW230730   1.433   2.363   0.113 -1.4541 -2.9566 -0.8023
 8244SOL     OW30731   7.146   2.529   1.831 -0.3117  0.6754  0.3622
 8244SOL    HW130732   7.182   2.614   1.793 -0.9150  0.9880  0.4793
 8244SOL    HW230733   7.106   2.474   1.758  0.4781  0.2876  0.2186
 8245SOL     OW30734   7.488   1.301   1.627 -0.3028  0.2226 -0.3523
 8245SOL    HW130735   7.529   1.307   1.718  0.3991 -1.8637 -0.5007
 8245SOL    HW230736   7.392   1.325   1.632 -0.4417 -0.5675  1.0969
 8246SOL     OW30737   1.158   3.159   3.160 -0.4835  0.5566 -0.5313
 8246SOL    HW130738   1.168   3.230   3.229  0.0807 -1.0235  1.0375
 8246SOL    HW230739   1.193   3.193   3.072  0.3914  1.9767  0.3584
 8247SOL     OW30740   0.238   9.969   1.286  0.1763 -0.2744 -0.5842
 8247SOL    HW130741   0.245  10.068   1.280  0.7009 -0.2903 -0.2885
 8247SOL    HW230742   0.218   9.942   1.380  2.3075 -0.5562 -0.1900
 8248SOL     OW30743   4.424   1.288   2.111  0.1348  0.1437 -0.3262
 8248SOL    HW130744   4.509   1.339   2.128  1.5771 -2.0495 -0.7492
 8248SOL    HW230745   4.435   1.194   2.145 -1.0617 -1.0101 -3.0466
 8249SOL     OW30746   1.664   2.065   5.269  0.1509  0.0816 -1.0333
 8249SOL    HW130747   1.634   2.141   5.212  0.6611  1.0130 -0.0697
 8249SOL    HW230748   1.631   1.979   5.230 -1.6425  0.8971 -1.3579
 8251SOL     OW30749   9.836   7.629   4.472  0.1641 -0.0229  0.1111
 8251SOL    HW130750   9.863   7.541   4.432  0.6133  0.9484 -1.7152
 8251SOL    HW230751   9.891   7.647   4.553  0.7034 -0.9905 -0.0356
 8252SOL     OW30752   9.211   6.394   3.400  0.2216  0.0255  0.0758
 8252SOL    HW130753   9.141   6.427   3.463  1.7508  2.9571  0.3272
 8252SOL    HW230754   9.204   6.443   3.313  0.1805 -1.6805 -0.8968
 8254SOL     OW30755   8.102   4.951   4.521  0.3011  0.1461 -0.1169
 8254SOL    HW130756   8.117   5.022   4.453  0.0843 -0.8601 -1.2400
 8254SOL    HW230757   8.188   4.928   4.566  1.3426 -2.2107 -3.1164
 8255SOL     OW30758   7.857   5.589   1.201 -0.2748 -0.4878  0.3941
 8255SOL    HW130759   7.762   5.570   1.175 -1.7037  0.9679  4.2577
 8255SOL    HW230760   7.888   5.671   1.153 -2.2204  1.1027  1.7671
 8256SOL     OW30761   8.264   3.461   1.578  0.2013 -0.1873 -0.3372
 8256SOL    HW130762   8.244   3.439   1.674 -1.0022  2.6818  0.1134
 8256SOL    HW230763   8.352   3.420   1.552  0.4288 -1.1992  1.9173
 8257SOL     OW30764   3.944   0.092   0.138  0.2909 -0.2643 -0.3876
 8257SOL    HW130765   4.034   0.077   0.098  1.1195  0.5280  1.1087
 8257SOL    HW230766   3.902   0.004   0.158  0.9612 -0.6443 -0.6103
 8258SOL     OW30767   5.943   1.126   5.050 -0.2850  0.3088 -0.3841
 8258SOL    HW130768   5.994   1.206   5.081  0.0091  0.2826 -0.7969
 8258SOL    HW230769   5.845   1.148   5.048 -0.3508  0.1610  0.9976
 8259SOL     OW30770   2.971   7.549   2.547  0.2178  0.4035 -0.2461
 8259SOL    HW130771   2.888   7.593   2.582 -0.7933 -1.2241 -0.5746
 8259SOL    HW230772   3.016   7.500   2.621  0.2447  0.2918 -0.3366
 8260SOL     OW30773   1.504   5.158   3.711 -0.4818  0.5512 -0.2762
 8260SOL    HW130774   1.407   5.177   3.694 -0.4669  0.4041 -0.5220
 8260SOL    HW230775   1.560   5.231   3.672 -0.4877  0.5889 -0.2142
 8261SOL     OW30776   9.618   4.393   4.262  0.3012 -0.1034 -0.1100
 8261SOL    HW130777   9.620   4.426   4.356 -0.3714 -0.4975  0.0463
 8261SOL    HW230778   9.527   4.357   4.241  0.3522  0.2564 -1.0035
 8263SOL     OW30779   8.155   5.159   2.121  0.3026 -0.6157  0.2196
 8263SOL    HW130780   8.177   5.080   2.064  1.2802  1.1872 -1.9719
 8263SOL    HW230781   8.220   5.166   2.196  1.0170 -1.1471 -0.3513
 8264SOL     OW30782   8.316   4.253   4.384 -0.4265  0.4257 -0.2714
 8264SOL    HW130783   8.337   4.168   4.336 -0.7258  1.2390 -1.8648
 8264SOL    HW230784   8.218   4.269   4.382 -0.5552 -0.0111  1.4629
 8266SOL     OW30785   8.872   1.514   0.800 -0.3705 -0.1626  0.2615
 8266SOL    HW130786   8.970   1.532   0.795 -0.5973  1.0661  0.0814
 8266SOL    HW230787   8.850   1.433   0.746  0.5577 -0.4979  0.3822
 8267SOL     OW30788   1.221   2.279   2.531 -0.7524  0.2746  0.2844
 8267SOL    HW130789   1.213   2.180   2.531 -1.7934  0.3491 -0.7866
 8267SOL    HW230790   1.314   2.305   2.504 -0.4992 -0.4056  0.5028
 8268SOL     OW30791   2.568   8.183   0.749 -0.1660 -0.0404 -0.9326
 8268SOL    HW130792   2.472   8.158   0.763  0.5903 -2.2637  0.6326
 8268SOL    HW230793   2.600   8.239   0.825  0.4146 -1.3159 -0.2215
 8269SOL     OW30794   7.379   3.729   1.302  0.6876  0.4961 -0.2388
 8269SOL    HW130795   7.357   3.827   1.302  1.5904  0.7351 -1.5875
 8269SOL    HW230796   7.368   3.691   1.393 -0.8714  1.5839  0.0325
 8270SOL     OW30797   8.625   3.921   4.890 -0.1134 -0.6654  0.0409
 8270SOL    HW130798   8.576   3.908   4.976  0.0951  0.6207  0.3649
 8270SOL    HW230799   8.595   4.006   4.847 -0.5656 -1.5421 -1.4004
 8271SOL     OW30800   9.090   9.659   3.077  0.1018  0.4188 -0.5228
 8271SOL    HW130801   9.111   9.740   3.132 -0.2861 -0.7720  1.4258
 8271SOL    HW230802   9.158   9.650   3.005  1.0627  1.6050  0.2102
 8272SOL     OW30803   2.586   7.737   4.062 -0.1216 -0.5225  0.1352
 8272SOL    HW130804   2.507   7.799   4.063  2.2537  2.8696 -4.6928
 8272SOL    HW230805   2.656   7.771   4.125  0.8706  1.3479 -1.9423
 8273SOL     OW30806   0.026   5.891   4.499  0.2582  0.4196 -0.0775
 8273SOL    HW130807   0.050   5.988   4.504  1.1194  0.3141 -1.7852
 8273SOL    HW230808  -0.072   5.880   4.516  0.1248  1.5973 -0.0272
 8274SOL     OW30809   0.504   8.169   1.108 -0.2018 -0.2316 -0.5275
 8274SOL    HW130810   0.557   8.106   1.165  0.0044 -0.4494 -0.9599
 8274SOL    HW230811   0.524   8.153   1.012 -1.4218 -0.6507 -0.7268
 8276SOL     OW30812   5.708   3.981   0.207 -0.3281 -0.1338  0.3359
 8276SOL    HW130813   5.664   4.010   0.292 -1.3750  0.5805 -0.4213
 8276SOL    HW230814   5.637   3.955   0.141  0.4446 -0.0450 -0.5333
 8277SOL     OW30815   7.566   3.877   0.033 -0.0016 -0.5383  0.2227
 8277SOL    HW130816   7.604   3.892   0.124  0.3907 -1.3505  0.2014
 8277SOL    HW230817   7.634   3.900  -0.036 -1.1724  2.6307  0.0319
 8278SOL     OW30818   2.589   9.489   1.993 -0.2807  0.7613  0.1918
 8278SOL    HW130819   2.575   9.539   1.907  2.4582  0.8275 -0.2315
 8278SOL    HW230820   2.641   9.545   2.057  0.8886 -0.7005  0.5396
 8279SOL     OW30821   4.990   2.101   4.634  0.1098  0.2371 -0.6528
 8279SOL    HW130822   4.909   2.128   4.686  0.0052 -0.5166 -0.4246
 8279SOL    HW230823   5.056   2.176   4.634 -0.3790  0.6677 -0.4187
 8281SOL     OW30824   1.408   7.429   5.204 -0.1231 -0.2406 -0.1003
 8281SOL    HW130825   1.403   7.506   5.268 -0.7451 -0.0217 -0.4128
 8281SOL    HW230826   1.351   7.354   5.238 -0.6115 -0.0508 -0.4969
 8282SOL     OW30827   2.079   9.613   2.195  0.0369  0.5992 -0.4131
 8282SOL    HW130828   2.056   9.702   2.155 -1.4600 -0.3546 -1.7340
 8282SOL    HW230829   2.140   9.564   2.132 -0.4879  0.0166 -0.4675
 8284SOL     OW30830   1.410   0.096   4.081  0.3867 -0.6785 -0.2253
 8284SOL    HW130831   1.376   0.178   4.034 -2.2277 -1.3706  0.3624
 8284SOL    HW230832   1.392   0.016   4.024  0.6708 -1.1168  0.2964
 8285SOL     OW30833   4.000   2.990   2.394  0.6333 -0.0317  0.0498
 8285SOL    HW130834   4.009   2.901   2.440  1.0335 -0.7986 -1.4829
 8285SOL    HW230835   3.934   2.982   2.319 -0.8185  1.4854  1.1282
 8287SOL     OW30836   3.906   1.279   1.582  0.0555  0.1328 -0.0317
 8287SOL    HW130837   3.962   1.348   1.536 -1.0270  1.2466  0.2877
 8287SOL    HW230838   3.858   1.321   1.659 -0.5895 -0.9937  0.2009
 8288SOL     OW30839   0.424   3.383   0.637  0.5924 -0.9736  0.0567
 8288SOL    HW130840   0.502   3.409   0.580  0.3480  0.1003  0.1908
 8288SOL    HW230841   0.412   3.451   0.710 -0.0142 -1.5303  0.4825
 8289SOL     OW30842   5.183   0.854   2.741 -0.4027  0.4362  0.0277
 8289SOL    HW130843   5.093   0.813   2.759 -0.6105  1.1908  0.7626
 8289SOL    HW230844   5.238   0.791   2.687 -1.2250 -0.2143 -0.0668
 8290SOL     OW30845   1.518   4.994   0.080 -0.6624  0.2115  0.3677
 8290SOL    HW130846   1.515   4.977   0.178 -0.7231  0.6807  0.4485
 8290SOL    HW230847   1.612   4.981   0.047 -0.8265 -0.9021  0.3091
 8291SOL     OW30848   1.741   1.056   5.009  0.4032 -0.0142  0.1926
 8291SOL    HW130849   1.839   1.068   4.992  0.2675  2.2431  0.8737
 8291SOL    HW230850   1.724   1.052   5.107 -0.3046  0.6064  0.0972
 8292SOL     OW30851   4.584   5.553   2.101 -0.3726 -0.3076 -0.3172
 8292SOL    HW130852   4.675   5.523   2.131  0.6117  1.3612 -1.5363
 8292SOL    HW230853   4.531   5.473   2.073  1.0342 -1.2326 -0.4117
 8293SOL     OW30854   2.859   3.077   0.223  0.0407  0.0755  0.4874
 8293SOL    HW130855   2.929   3.041   0.284  1.7756 -0.5456 -1.7956
 8293SOL    HW230856   2.835   3.007   0.155 -0.9622  1.1606 -0.2990
 8296SOL     OW30857   0.720   5.767   2.445 -0.0432 -0.8800 -0.2266
 8296SOL    HW130858   0.681   5.773   2.354 -1.7109 -0.9662  0.4702
 8296SOL    HW230859   0.661   5.814   2.510  2.6376  1.8180  0.3662
 8297SOL     OW30860   9.513   7.485   2.315 -0.1213 -0.0767  0.3695
 8297SOL    HW130861   9.610   7.507   2.303 -0.0248 -0.2408  0.8288
 8297SOL    HW230862   9.460   7.570   2.321 -0.1381  0.0122 -0.8750
 8298SOL     OW30863   5.448   0.364   3.015  0.4062 -0.1737 -0.0287
 8298SOL    HW130864   5.472   0.351   3.111 -1.1614  1.4036  0.6064
 8298SOL    HW230865   5.430   0.275   2.973 -0.2335 -0.7855  1.5079
 8299SOL     OW30866   3.018   8.699   4.066 -0.0461 -0.5497 -0.6155
 8299SOL    HW130867   3.020   8.658   3.974  0.9711 -0.0242 -0.8368
 8299SOL    HW230868   3.067   8.786   4.064 -0.0696 -0.5128  0.4208
 8300SOL     OW30869   4.212   8.646   0.826 -0.2061  0.7646  0.3180
 8300SOL    HW130870   4.275   8.723   0.837  0.2408  0.3625  0.6174
 8300SOL    HW230871   4.135   8.657   0.889  1.3159 -0.4811  2.5134
 8301SOL     OW30872   3.699   3.076   3.345  0.1810  0.1210  0.0920
 8301SOL    HW130873   3.622   3.045   3.401  0.3671  0.7493  0.6871
 8301SOL    HW230874   3.708   3.015   3.265  0.4288 -1.2773  1.1571
 8302SOL     OW30875   1.811   8.222   5.193 -0.2771  0.3619 -0.0043
 8302SOL    HW130876   1.774   8.282   5.123 -0.1303  1.8727  1.1886
 8302SOL    HW230877   1.881   8.271   5.246  1.2068 -1.4518 -0.2306
 8303SOL     OW30878   4.448   1.336   1.374 -0.2749  0.1578  0.0803
 8303SOL    HW130879   4.496   1.279   1.307 -1.7792  0.0468 -0.9327
 8303SOL    HW230880   4.515   1.382   1.432  1.0487 -0.3154 -1.0241
 8304SOL     OW30881   0.507   1.933   1.495  0.4034  0.0191  0.3949
 8304SOL    HW130882   0.513   1.976   1.406 -0.0162  0.2690  0.4890
 8304SOL    HW230883   0.598   1.928   1.536  0.5928 -0.0874 -0.0412
 8305SOL     OW30884   2.429   4.706   4.103 -0.2001  0.5931  0.4098
 8305SOL    HW130885   2.430   4.625   4.162  0.5587 -0.4904 -1.0580
 8305SOL    HW230886   2.505   4.766   4.129  0.2472  0.0305  0.4158
 8307SOL     OW30887   8.215   3.893   1.879 -0.4428  0.3639  0.5873
 8307SOL    HW130888   8.182   3.983   1.907 -1.4616  1.0117 -2.5176
 8307SOL    HW230889   8.282   3.904   1.805  0.4690 -1.3849  1.1207
 8308SOL     OW30890   6.439   5.283   0.767 -0.4206 -0.0519 -0.4019
 8308SOL    HW130891   6.513   5.331   0.720 -0.5415  1.6031  1.0628
 8308SOL    HW230892   6.457   5.185   0.764  0.9207  0.2058 -1.6107
 8309SOL     OW30893   8.738   3.414   3.497 -0.7375  0.6742  0.1644
 8309SOL    HW130894   8.746   3.453   3.406  1.8794  0.0022  0.0757
 8309SOL    HW230895   8.774   3.321   3.497  0.3188  1.0524  2.1251
 8310SOL     OW30896   7.573   1.265   1.305 -0.5507  0.1455 -0.0627
 8310SOL    HW130897   7.476   1.271   1.282 -0.6778 -1.8376 -0.0866
 8310SOL    HW230898   7.592   1.325   1.384 -1.9459 -0.0698  0.4562
 8311SOL     OW30899   9.913   9.039   2.058  0.1731 -0.5779  0.4253
 8311SOL    HW130900   9.993   9.032   1.999 -1.0126 -0.4874 -1.2307
 8311SOL    HW230901   9.935   9.006   2.149  1.7065 -1.8631 -0.3999
 8312SOL     OW30902   6.916   1.571   1.999 -0.4705  0.5427 -0.5412
 8312SOL    HW130903   6.991   1.590   2.061  0.1051 -1.4375 -0.6039
 8312SOL    HW230904   6.856   1.501   2.038 -0.4994 -0.2097 -1.8944
 8313SOL     OW30905   8.752   2.210   3.161  0.4930 -0.7428  0.1949
 8313SOL    HW130906   8.849   2.220   3.139  0.3851  1.0854  0.4914
 8313SOL    HW230907   8.742   2.144   3.236  1.3365 -2.4104 -1.1325
 8314SOL     OW30908   4.163   5.012   3.400 -0.0389  0.0111 -0.2176
 8314SOL    HW130909   4.200   5.014   3.307 -0.1322 -0.4149 -0.2669
 8314SOL    HW230910   4.191   5.094   3.449  0.4081  0.0126 -0.4732
 8315SOL     OW30911   5.497   1.735   3.455 -0.6127 -0.2926  0.3066
 8315SOL    HW130912   5.454   1.648   3.432 -0.2691 -0.3415 -0.1710
 8315SOL    HW230913   5.589   1.738   3.414 -0.1065 -0.2506  1.4204
 8316SOL     OW30914   9.181   5.850   1.395 -0.7357  1.0686  0.1586
 8316SOL    HW130915   9.254   5.915   1.372  0.9064 -1.0121 -0.6803
 8316SOL    HW230916   9.160   5.857   1.493  1.1136  1.2089  0.5683
 8318SOL     OW30917   2.094   5.927   4.980 -0.2693 -0.8327  0.0252
 8318SOL    HW130918   2.047   5.984   4.913  0.0597 -1.0927 -0.4316
 8318SOL    HW230919   2.106   5.978   5.065 -1.3957 -0.7750  0.1538
 8319SOL     OW30920   9.799   8.907   4.802  0.0493  0.1345 -0.2801
 8319SOL    HW130921   9.841   8.991   4.768  0.7450  0.1332  0.5725
 8319SOL    HW230922   9.814   8.899   4.901 -0.7896 -0.5398 -0.1952
 8321SOL     OW30923   2.622   3.915   2.128 -0.0842  0.0295 -0.4124
 8321SOL    HW130924   2.606   4.002   2.081 -1.7270 -0.8348 -1.5142
 8321SOL    HW230925   2.715   3.883   2.109  0.1833  1.0452 -0.8329
 8322SOL     OW30926   3.109   2.569   2.450  0.4131  0.1172  0.2480
 8322SOL    HW130927   3.028   2.570   2.392  1.4772  2.5977 -1.3047
 8322SOL    HW230928   3.115   2.656   2.501  0.6771 -1.1310  2.4115
 8323SOL     OW30929   2.386   0.298   4.260  0.2449 -0.0569 -0.9080
 8323SOL    HW130930   2.432   0.228   4.206  0.9697 -0.9607  0.8551
 8323SOL    HW230931   2.292   0.268   4.280  0.0598  0.1640 -1.4354
 8324SOL     OW30932   7.476   2.549   0.512 -0.1894  0.0841 -0.1916
 8324SOL    HW130933   7.452   2.646   0.511 -1.5349 -0.2360  0.4820
 8324SOL    HW230934   7.547   2.532   0.443  1.8746  2.0118  1.3424
 8325SOL     OW30935   2.698   2.337   4.065 -0.7135  0.1324 -0.2765
 8325SOL    HW130936   2.653   2.277   4.132  0.6142 -0.2247  0.3077
 8325SOL    HW230937   2.661   2.429   4.074  0.1053  0.2941  1.6001
 8326SOL     OW30938   7.716   0.021   3.966 -0.3569  0.0023  0.1592
 8326SOL    HW130939   7.777   0.045   4.041  0.4364  2.0229 -1.0960
 8326SOL    HW230940   7.754  -0.057   3.915  0.7258  0.6724 -0.0662
 8327SOL     OW30941   9.583   9.876   3.650 -0.2409 -0.5025 -0.6954
 8327SOL    HW130942   9.498   9.876   3.703  1.4526  1.2552  2.1455
 8327SOL    HW230943   9.620   9.969   3.647  2.4052 -1.5160 -0.5152
 8328SOL     OW30944   7.960   6.820   3.641  0.3788 -0.4226  0.9326
 8328SOL    HW130945   7.999   6.739   3.597 -0.2040 -0.4245  0.4069
 8328SOL    HW230946   8.018   6.899   3.623 -0.9082 -0.0266 -1.5396
 8329SOL     OW30947   9.393   6.703   5.000  0.2117 -0.0009  0.6449
 8329SOL    HW130948   9.348   6.762   4.932  0.2113 -0.6916  0.0360
 8329SOL    HW230949   9.325   6.669   5.065 -0.1466 -0.9596 -0.2109
 8330SOL     OW30950   1.204   3.491   2.533 -0.1968 -0.2149 -0.7033
 8330SOL    HW130951   1.209   3.549   2.614  1.2969  0.8811 -1.5489
 8330SOL    HW230952   1.279   3.424   2.535 -1.4815 -1.6717 -0.0905
 8331SOL     OW30953   8.988   1.700   2.890 -0.2624 -0.9226 -0.0200
 8331SOL    HW130954   8.928   1.620   2.889  0.1649 -1.2377 -0.2305
 8331SOL    HW230955   9.083   1.671   2.885 -0.1214 -0.3797 -0.5201
 8332SOL     OW30956   5.293   8.329   3.011  0.8270  0.1848 -0.2320
 8332SOL    HW130957   5.204   8.318   2.966  0.5473 -0.4550  0.4592
 8332SOL    HW230958   5.293   8.414   3.064  0.9400  0.6278 -0.9321
 8335SOL     OW30959   0.825   6.674   4.435 -0.2351 -0.5635  0.3848
 8335SOL    HW130960   0.804   6.708   4.526 -0.3662  0.0231  0.1390
 8335SOL    HW230961   0.802   6.576   4.429 -0.4816 -0.5361  0.8919
 8336SOL     OW30962   8.011   3.121   1.538  0.1281  0.0155  0.3010
 8336SOL    HW130963   8.085   3.149   1.599 -0.5086 -0.0005  1.0836
 8336SOL    HW230964   7.958   3.048   1.581  0.3465 -0.7672 -0.7367
 8337SOL     OW30965   4.891   5.616   2.209 -0.0167 -0.1199  0.5318
 8337SOL    HW130966   4.982   5.618   2.169 -0.1589 -1.6605  0.1030
 8337SOL    HW230967   4.871   5.704   2.252  1.2882  0.5433 -0.2128
 8338SOL     OW30968   4.971   3.360   0.568 -0.3284  0.1989  0.4127
 8338SOL    HW130969   4.941   3.265   0.559  0.6826 -0.2061  1.1895
 8338SOL    HW230970   4.993   3.379   0.664  0.5067  0.8980  0.0945
 8339SOL     OW30971   9.016   3.849   0.085 -0.0230  0.2822  0.0290
 8339SOL    HW130972   9.050   3.886   0.171  0.6252 -0.0255 -0.0972
 8339SOL    HW230973   9.092   3.811   0.032 -0.6394 -0.9714  0.0211
 8340SOL     OW30974   8.079   7.426   2.575  0.0560  0.1704  0.1216
 8340SOL    HW130975   8.041   7.518   2.580  0.8262  0.4824  0.3222
 8340SOL    HW230976   8.048   7.373   2.654 -0.2473  0.3141  0.0973
 8341SOL     OW30977   2.171   3.547   3.884 -0.0845  0.3727 -0.4744
 8341SOL    HW130978   2.268   3.543   3.910  0.2596  0.9484 -1.6492
 8341SOL    HW230979   2.155   3.630   3.831 -0.9949 -0.3070 -1.2523
 8342SOL     OW30980   7.269   0.649   0.486 -0.3585 -0.2897 -0.3930
 8342SOL    HW130981   7.180   0.660   0.441  0.0799  2.5879 -0.6450
 8342SOL    HW230982   7.341   0.650   0.416 -0.0207 -1.0646 -0.0549
 8343SOL     OW30983   2.916   5.157   4.413  0.0438  0.1198  0.8613
 8343SOL    HW130984   2.960   5.227   4.357  0.1211 -0.5524  0.0685
 8343SOL    HW230985   2.983   5.115   4.473  0.0439  0.5556  1.1726
 8344SOL     OW30986   2.340   9.424   1.791 -0.2225 -0.0739 -0.0587
 8344SOL    HW130987   2.330   9.325   1.778  2.9439 -0.4801  0.1894
 8344SOL    HW230988   2.326   9.446   1.888  0.6327 -0.4870  0.1567
 8345SOL     OW30989   3.083   0.668   1.705  0.0137  0.5861 -0.1338
 8345SOL    HW130990   2.983   0.671   1.710  0.0735  0.3519  1.8812
 8345SOL    HW230991   3.116   0.748   1.657 -1.1060  1.3360  0.3121
 8346SOL     OW30992   8.999   4.583   1.019 -0.0467 -0.1795 -0.2170
 8346SOL    HW130993   9.008   4.683   1.018  0.7430 -0.2281  0.8728
 8346SOL    HW230994   9.056   4.543   0.948  0.7902  0.0729  0.3030
 8347SOL     OW30995   2.531   7.126   2.609 -0.7823 -0.8061  0.2650
 8347SOL    HW130996   2.467   7.180   2.664 -0.6263  0.1321 -0.4506
 8347SOL    HW230997   2.624   7.143   2.641 -0.6937 -0.2817 -0.2504
 8348SOL     OW30998   2.275   5.377   0.680  0.1423 -0.4133 -0.7885
 8348SOL    HW130999   2.318   5.297   0.722  0.9117  0.3687 -0.0385
 8348SOL    HW231000   2.188   5.396   0.725 -0.1346 -0.9504 -1.1028
 8349SOL     OW31001   2.254   9.893   4.137 -0.2958 -0.3529  1.0297
 8349SOL    HW131002   2.216   9.859   4.050  0.0538  2.0339 -0.0798
 8349SOL    HW231003   2.182   9.937   4.190 -0.1802 -0.4406  1.2619
 8350SOL     OW31004   2.563   9.754   3.524  0.1591  0.4481  0.4448
 8350SOL    HW131005   2.544   9.656   3.518 -1.3844  0.7639 -0.0738
 8350SOL    HW231006   2.570   9.792   3.432 -0.2146  0.9954  0.6391
 8351SOL     OW31007   0.861   0.081   0.292 -0.1848  0.1317  0.2449
 8351SOL    HW131008   0.947   0.053   0.335  0.8906  2.1964 -0.5262
 8351SOL    HW231009   0.858   0.180   0.285 -1.0046 -0.0885 -3.1052
 8352SOL     OW31010   1.379   6.905   1.420  0.0454  0.1473  0.5711
 8352SOL    HW131011   1.315   6.904   1.496  0.9896  0.0585  1.3738
 8352SOL    HW231012   1.465   6.948   1.449  0.0006  1.2129 -0.7815
 8353SOL     OW31013   5.247   7.482   3.081  0.0587 -0.1694 -0.2332
 8353SOL    HW131014   5.202   7.445   3.000 -1.0826 -0.5922  0.5771
 8353SOL    HW231015   5.197   7.563   3.113  0.4354 -0.0739  0.1147
 8354SOL     OW31016   5.574   8.072   4.787 -0.3322  0.4012  0.8855
 8354SOL    HW131017   5.559   8.038   4.880  1.7344  1.2872  1.5758
 8354SOL    HW231018   5.585   8.172   4.790  3.3511  0.0803  0.2047
 8356SOL     OW31019   4.787   2.625   1.259  0.4413  0.4064 -0.1291
 8356SOL    HW131020   4.750   2.612   1.350  0.5155  2.1638  0.1603
 8356SOL    HW231021   4.745   2.705   1.216  0.5322 -0.2934 -1.5739
 8357SOL     OW31022   0.798   7.820   1.929 -0.4260  0.2429 -0.0863
 8357SOL    HW131023   0.870   7.876   1.969  0.4594 -1.1880  0.3780
 8357SOL    HW231024   0.830   7.782   1.841 -1.2159  0.8984 -0.6633
 8358SOL     OW31025   4.087   8.069   2.607 -0.1197 -0.3096  0.2082
 8358SOL    HW131026   4.033   8.148   2.635 -0.8977 -0.7051 -0.1859
 8358SOL    HW231027   4.036   8.014   2.541  0.1464 -1.5144  0.9800
 8359SOL     OW31028   2.978   8.484   4.597 -0.5877 -0.2852 -0.5383
 8359SOL    HW131029   2.987   8.499   4.695 -0.9685 -1.4715 -0.3134
 8359SOL    HW231030   3.064   8.449   4.561 -0.3672  0.3913 -0.6830
 8360SOL     OW31031   5.269   0.958   4.660 -0.1039  0.2017  0.9288
 8360SOL    HW131032   5.219   1.044   4.674  0.6987  0.6090  1.2852
 8360SOL    HW231033   5.334   0.969   4.585 -0.6091 -0.3587  0.4058
 8361SOL     OW31034   1.421   6.476   1.089 -0.0935 -0.8110  0.3203
 8361SOL    HW131035   1.415   6.558   1.146 -1.3896 -0.4880 -0.2654
 8361SOL    HW231036   1.348   6.412   1.115 -1.1697 -0.3377 -1.4706
 8362SOL     OW31037   9.485   5.260   1.943 -0.4057 -0.1004 -0.3160
 8362SOL    HW131038   9.561   5.215   1.896  0.7427  1.3310  0.1062
 8362SOL    HW231039   9.468   5.214   2.030  0.8283  0.3084  0.1595
 8363SOL     OW31040   1.869   6.201   1.917 -0.0541 -0.0867 -0.1219
 8363SOL    HW131041   1.919   6.226   1.834 -0.1677  0.8181  0.0744
 8363SOL    HW231042   1.926   6.222   1.997 -0.9582  1.4420  0.1215
 8365SOL     OW31043   4.351   5.927   2.737 -0.0070 -0.0247 -0.4415
 8365SOL    HW131044   4.311   5.855   2.680 -0.3920 -1.5465  1.6572
 8365SOL    HW231045   4.293   6.008   2.734 -1.1356 -0.8242 -0.5547
 8366SOL     OW31046   4.577   9.269   3.771  0.5463 -0.3450 -0.4260
 8366SOL    HW131047   4.631   9.193   3.806  0.2181 -0.0875  0.6518
 8366SOL    HW231048   4.482   9.241   3.762  0.4381 -0.0753 -0.0976
 8367SOL     OW31049   4.510   8.372   3.714 -0.7104 -0.6597 -0.2357
 8367SOL    HW131050   4.587   8.407   3.767 -0.5162 -0.3049 -0.7459
 8367SOL    HW231051   4.482   8.283   3.750  1.5088 -1.9355 -1.5190
 8368SOL     OW31052   5.342   5.096   0.100  0.1344  0.2296  0.9080
 8368SOL    HW131053   5.426   5.042   0.091  0.3910  0.6160  0.9852
 8368SOL    HW231054   5.363   5.181   0.147 -0.0923  0.8203 -0.0454
 8369SOL     OW31055   9.749   3.983   3.876 -0.4448 -0.1642  0.2658
 8369SOL    HW131056   9.682   4.054   3.896  0.0877  0.6376 -0.7223
 8369SOL    HW231057   9.832   3.998   3.930 -0.6023 -0.4573  0.5920
 8370SOL     OW31058   3.932   4.125   4.839 -0.4243 -0.2952 -0.8034
 8370SOL    HW131059   3.907   4.184   4.916  0.0482 -1.0839 -0.0480
 8370SOL    HW231060   4.026   4.094   4.850 -0.3807 -0.4757 -1.6651
 8371SOL     OW31061   1.593   4.855   3.143  0.1100 -0.0162 -0.1770
 8371SOL    HW131062   1.656   4.812   3.077 -0.3976 -1.1844  0.0927
 8371SOL    HW231063   1.516   4.794   3.161 -0.9654  1.2807 -0.2680
 8372SOL     OW31064   1.969   4.567   2.873  0.2658  0.1556  0.1059
 8372SOL    HW131065   1.944   4.500   2.943 -0.2825  0.4817  0.2272
 8372SOL    HW231066   2.066   4.559   2.852  0.1909 -0.7121  0.0827
 8373SOL     OW31067   3.824   0.592   0.448  0.2184  0.4661 -0.0598
 8373SOL    HW131068   3.892   0.637   0.506  1.1601 -1.1770  0.1722
 8373SOL    HW231069   3.841   0.615   0.353  0.4515  0.9130  0.0905
 8374SOL     OW31070   4.212   8.869   4.957 -0.2064 -0.6544 -0.3002
 8374SOL    HW131071   4.259   8.944   5.002  0.4060 -2.5307  2.2665
 8374SOL    HW231072   4.160   8.904   4.879  0.2062  2.3868  0.7498
 8375SOL     OW31073   4.140   3.493   1.538 -0.1465 -0.1224  0.3583
 8375SOL    HW131074   4.094   3.423   1.592 -0.4463  0.6762  1.1526
 8375SOL    HW231075   4.237   3.472   1.532 -0.0093  0.0510  1.6775
 8376SOL     OW31076   9.602   1.995   3.168 -0.0883 -0.4139  0.3911
 8376SOL    HW131077   9.555   1.981   3.255 -0.0244 -1.7239  0.2337
 8376SOL    HW231078   9.635   1.907   3.134 -0.0102  0.1000 -0.8996
 8377SOL     OW31079   8.672   9.057   1.880  0.0309  0.2622 -0.1109
 8377SOL    HW131080   8.760   9.024   1.914  1.0513  1.3583 -1.6266
 8377SOL    HW231081   8.687   9.112   1.798 -2.4709 -3.5412 -3.3182
 8378SOL     OW31082   1.264   1.876   2.913 -0.3751  0.4949 -0.4801
 8378SOL    HW131083   1.320   1.926   2.980 -0.0631 -0.4304 -0.0422
 8378SOL    HW231084   1.230   1.940   2.844  0.2794  1.2613 -0.1065
 8379SOL     OW31085   3.098   3.858   2.339 -0.7963  0.0720 -0.4434
 8379SOL    HW131086   3.088   3.765   2.375  2.4151 -0.0246  0.4047
 8379SOL    HW231087   3.174   3.859   2.273  0.3233  2.4167  0.8152
 8380SOL     OW31088   6.640   0.278   2.521  0.2809  0.5880  0.0470
 8380SOL    HW131089   6.572   0.331   2.470 -0.6961 -1.6930 -1.1018
 8380SOL    HW231090   6.611   0.269   2.616 -0.8861 -0.1138 -0.3651
 8382SOL     OW31091   6.128   1.598   0.824  0.4193  0.2496  0.5272
 8382SOL    HW131092   6.147   1.642   0.912  1.0814 -0.4469  0.7357
 8382SOL    HW231093   6.209   1.604   0.765 -0.1275  0.9922 -0.1528
 8383SOL     OW31094   7.819   6.677   4.987 -0.1597  0.1605 -0.0083
 8383SOL    HW131095   7.896   6.688   4.925  0.1873  1.2282  0.5988
 8383SOL    HW231096   7.817   6.583   5.022  0.9936  0.1822  0.1305
 8384SOL     OW31097   1.515   6.688   3.596  0.0483 -0.0340  0.2306
 8384SOL    HW131098   1.587   6.719   3.659  0.7752 -2.0886  0.4487
 8384SOL    HW231099   1.557   6.647   3.515 -0.8380 -1.7779  0.6250
 8386SOL     OW31100   3.472   8.328   4.348  0.0401 -0.4426 -0.5047
 8386SOL    HW131101   3.567   8.297   4.346  0.7199  1.5055  0.3317
 8386SOL    HW231102   3.418   8.275   4.283  1.8204 -1.1790 -1.4038
 8387SOL     OW31103   5.179   2.581   1.835  0.5203 -0.2785  0.3131
 8387SOL    HW131104   5.267   2.558   1.877  0.6466 -1.2777 -0.5110
 8387SOL    HW231105   5.125   2.498   1.821 -0.9570  0.4122  1.6701
 8388SOL     OW31106   8.104   8.832   3.158  0.7041  0.6253  0.2086
 8388SOL    HW131107   8.027   8.844   3.095  1.4693  3.2522 -0.3218
 8388SOL    HW231108   8.185   8.802   3.107  0.2755 -1.3204  0.6358
 8389SOL     OW31109   5.096   1.019   1.476 -0.4549  0.7717  0.1394
 8389SOL    HW131110   5.055   0.988   1.390 -2.4750  0.7869  1.0837
 8389SOL    HW231111   5.060   1.109   1.501 -0.8760  0.1969  1.6646
 8390SOL     OW31112   3.381   1.280   0.822  0.8124  0.8307  0.2408
 8390SOL    HW131113   3.399   1.378   0.817 -0.2542  1.0110 -0.0729
 8390SOL    HW231114   3.344   1.248   0.735  1.1366  0.1466  0.3497
 8393SOL     OW31115   4.812   1.904   0.308 -0.0445 -0.4669  0.0002
 8393SOL    HW131116   4.881   1.954   0.361 -2.1762  1.0172  1.4257
 8393SOL    HW231117   4.791   1.955   0.225  0.0568 -0.5702 -0.0891
 8394SOL     OW31118   2.832   2.044   5.031 -0.2929  0.0860 -0.0518
 8394SOL    HW131119   2.808   2.128   5.080  0.3056  0.3957 -0.2912
 8394SOL    HW231120   2.837   1.968   5.096  0.3557  0.4660  0.3513
 8396SOL     OW31121   1.787   0.194   1.610  0.1558  0.2541 -0.4234
 8396SOL    HW131122   1.801   0.102   1.574  4.1353  0.2422  0.9142
 8396SOL    HW231123   1.851   0.257   1.566 -0.7451  1.8931  0.5482
 8397SOL     OW31124   8.589   9.366   3.148 -0.0317  0.9141  0.0156
 8397SOL    HW131125   8.579   9.363   3.248 -1.4612  1.0362 -0.1040
 8397SOL    HW231126   8.563   9.278   3.109 -1.7748  1.5768 -0.4001
 8398SOL     OW31127   3.352   9.755   1.020  0.2370  0.6901  0.2922
 8398SOL    HW131128   3.334   9.712   1.108  0.3756 -1.4039 -0.6535
 8398SOL    HW231129   3.440   9.723   0.985 -0.0877  1.0234 -0.8618
 8399SOL     OW31130   7.256   3.878   1.869  0.5130  0.2017 -0.6092
 8399SOL    HW131131   7.220   3.894   1.777 -0.0226  2.2818 -0.0547
 8399SOL    HW231132   7.297   3.962   1.904  0.5131 -0.5087  1.1477
 8400SOL     OW31133   4.152   8.515   2.917 -0.2282 -0.1999  0.0223
 8400SOL    HW131134   4.075   8.459   2.948 -0.4306 -0.4965 -1.0002
 8400SOL    HW231135   4.126   8.612   2.923 -1.0200 -0.3309 -1.2010
 8401SOL     OW31136   1.023   4.357   2.254 -0.0678 -0.0667 -0.4363
 8401SOL    HW131137   0.949   4.340   2.190 -0.5520 -1.9608  0.5974
 8401SOL    HW231138   0.985   4.371   2.346  0.7033  1.3673 -0.3167
 8402SOL     OW31139   1.482   4.635   1.875  0.2677  0.0954  0.1011
 8402SOL    HW131140   1.400   4.584   1.902 -1.0114  1.1413 -1.7050
 8402SOL    HW231141   1.551   4.570   1.843 -0.6785 -0.6658 -0.4678
 8404SOL     OW31142   4.690   0.846   2.647  0.1295 -0.8003  0.1850
 8404SOL    HW131143   4.660   0.939   2.667 -0.4861 -0.8599 -0.4081
 8404SOL    HW231144   4.612   0.784   2.652  0.5957 -1.3434  0.8906
 8405SOL     OW31145   1.207   6.392   4.848 -0.1869  0.7262  0.2451
 8405SOL    HW131146   1.115   6.369   4.881 -0.1543  0.9946  0.5264
 8405SOL    HW231147   1.208   6.389   4.748 -0.3826  0.2720  0.2532
 8406SOL     OW31148   4.628   1.049   0.847  0.1697  0.2598 -0.4083
 8406SOL    HW131149   4.584   1.003   0.770  0.3402  0.7320 -0.7908
 8406SOL    HW231150   4.646   0.983   0.920  1.4916 -0.5175 -1.4128
 8408SOL     OW31151   8.592   1.827   3.579 -0.6186  0.2809  0.5453
 8408SOL    HW131152   8.541   1.908   3.550 -0.2557 -0.5340 -2.5061
 8408SOL    HW231153   8.689   1.839   3.556 -0.6236 -1.1570 -0.2730
 8409SOL     OW31154   6.948   0.059   3.749  0.4578 -0.1032  0.4419
 8409SOL    HW131155   6.944   0.159   3.742  2.6457 -0.0718 -0.6710
 8409SOL    HW231156   6.998   0.022   3.671 -0.1473 -2.0744  0.9568
 8410SOL     OW31157   0.078   2.821   4.756  0.3517  0.2386 -0.1664
 8410SOL    HW131158   0.119   2.875   4.830 -1.4831 -0.6143  1.4926
 8410SOL    HW231159   0.095   2.724   4.773 -0.8885 -0.0134 -0.3621
 8411SOL     OW31160   0.707   4.097   2.675 -0.0139 -0.2198  0.7070
 8411SOL    HW131161   0.745   4.187   2.696  0.9674 -0.7922  1.4428
 8411SOL    HW231162   0.684   4.050   2.761  0.3769 -1.0433  0.3661
 8413SOL     OW31163   2.026   0.218   3.999 -0.0031  0.0140 -0.1334
 8413SOL    HW131164   1.957   0.150   4.022 -1.0465  1.1696  0.2284
 8413SOL    HW231165   2.055   0.206   3.904  0.8925 -1.8388  0.3506
 8415SOL     OW31166   3.565   0.153   2.375 -0.0194 -0.1634 -0.1443
 8415SOL    HW131167   3.573   0.199   2.287  1.9115 -1.2656 -0.5707
 8415SOL    HW231168   3.482   0.097   2.376  0.6072 -1.1384 -1.7348
 8416SOL     OW31169   2.144   0.327   4.511 -0.5665  0.0404 -0.3756
 8416SOL    HW131170   2.120   0.345   4.416 -1.6118  1.0295  0.0643
 8416SOL    HW231171   2.173   0.232   4.521 -0.2128  0.0010 -1.7233
 8417SOL     OW31172   2.617   4.418   2.850 -0.2157  0.0918 -0.2592
 8417SOL    HW131173   2.541   4.354   2.845 -1.2893  1.3722 -0.4891
 8417SOL    HW231174   2.672   4.412   2.766  0.5398 -1.5541  0.3355
 8418SOL     OW31175   8.687   5.958   0.894  0.3672 -0.4266  0.4117
 8418SOL    HW131176   8.771   6.010   0.912  0.2802 -0.9274  2.3458
 8418SOL    HW231177   8.656   5.914   0.978 -1.0703 -1.4030 -0.6034
 8419SOL     OW31178   0.141   6.856   1.582  0.0536 -0.1022  0.2283
 8419SOL    HW131179   0.130   6.778   1.521  1.2843  0.7832 -1.1634
 8419SOL    HW231180   0.116   6.829   1.675  0.6920 -2.2160 -0.1789
 8421SOL     OW31181   9.671   8.379   1.998  0.5543  0.1637 -0.2903
 8421SOL    HW131182   9.659   8.281   2.007  1.2156  0.0346 -0.7824
 8421SOL    HW231183   9.730   8.399   1.920  0.7763  0.9328  0.0653
 8422SOL     OW31184   8.014   9.792   4.685 -0.5278  0.1319 -0.3999
 8422SOL    HW131185   7.925   9.824   4.716 -0.6125 -1.0086  0.6000
 8422SOL    HW231186   8.084   9.816   4.754 -0.5002 -1.2547  0.0742
 8423SOL     OW31187   9.278   1.065   4.379 -0.5709  0.2516  0.4051
 8423SOL    HW131188   9.331   1.035   4.458  0.8006  0.7686 -0.2984
 8423SOL    HW231189   9.249   0.986   4.326 -1.0109 -0.0645  1.1094
 8424SOL     OW31190   2.235   6.824   4.340 -0.1842 -0.0729  0.0200
 8424SOL    HW131191   2.305   6.896   4.337  1.1266 -1.2278  1.6338
 8424SOL    HW231192   2.150   6.862   4.376  0.3117  0.8144  0.2742
 8425SOL     OW31193   8.879   2.752   0.989  0.0942 -0.5331  0.0585
 8425SOL    HW131194   8.809   2.683   1.007  0.5981 -0.9686  0.3542
 8425SOL    HW231195   8.968   2.718   1.019  0.5462 -0.2476 -0.9194
 8426SOL     OW31196   7.101   1.826   4.041  0.1539  0.3008 -0.6176
 8426SOL    HW131197   7.042   1.831   3.960  0.2558 -0.4571 -0.7372
 8426SOL    HW231198   7.072   1.895   4.107  1.4568  2.4562 -2.2241
 8427SOL     OW31199   8.577   1.399   2.415  0.0023  0.0746 -0.1399
 8427SOL    HW131200   8.585   1.306   2.450 -1.5223  0.4717  1.3200
 8427SOL    HW231201   8.490   1.409   2.367 -0.6846  1.2641  1.3376
 8428SOL     OW31202   2.410   6.230   1.854 -0.0326  0.3177  0.3846
 8428SOL    HW131203   2.486   6.230   1.790 -0.1549  0.7878  0.2401
 8428SOL    HW231204   2.345   6.159   1.828  0.9638 -0.9284  1.2366
 8429SOL     OW31205   1.045   5.292   4.756  0.9993  0.2807  0.6880
 8429SOL    HW131206   1.127   5.314   4.703 -0.8244  3.5960 -0.9235
 8429SOL    HW231207   0.967   5.280   4.694 -0.1088 -1.0175  2.2967
 8430SOL     OW31208   7.539   2.666   4.857  0.4137  0.4110  0.0040
 8430SOL    HW131209   7.464   2.610   4.819 -0.3112  1.5039 -0.2012
 8430SOL    HW231210   7.531   2.759   4.823  2.0791  0.4655 -0.2729
 8432SOL     OW31211   0.775   3.003   1.405  0.9471 -0.1012  0.1008
 8432SOL    HW131212   0.815   2.936   1.343 -0.2242 -0.5055 -0.2334
 8432SOL    HW231213   0.681   3.022   1.378  0.7080  0.3918  1.2179
 8433SOL     OW31214   4.294   2.198   5.070 -0.4893 -0.3089  0.0053
 8433SOL    HW131215   4.359   2.273   5.054  1.4383 -1.9518  0.0374
 8433SOL    HW231216   4.302   2.131   4.996 -1.3032 -1.1161  0.6527
 8434SOL     OW31217   2.694   2.780   4.382  0.2434 -0.1370  0.2872
 8434SOL    HW131218   2.746   2.695   4.375  1.8433  0.7752  0.9049
 8434SOL    HW231219   2.659   2.806   4.292  0.0024 -1.2719  0.0430
 8435SOL     OW31220   8.968   2.026   1.774 -0.1637  0.2752  0.1273
 8435SOL    HW131221   8.934   1.963   1.704  0.9630 -1.0762  0.7703
 8435SOL    HW231222   9.054   1.990   1.812  0.9670  2.6358 -0.1077
 8436SOL     OW31223   8.340   1.983   1.390 -0.4589  0.5083  0.1535
 8436SOL    HW131224   8.270   1.917   1.418 -1.7019  2.1499  1.0158
 8436SOL    HW231225   8.395   1.945   1.316 -1.0600 -1.5437  0.7419
 8437SOL     OW31226   0.650   6.297   0.919 -0.3235 -0.5671  0.7256
 8437SOL    HW131227   0.651   6.397   0.915 -0.9690 -0.5272  1.5287
 8437SOL    HW231228   0.736   6.264   0.959 -0.6545 -0.2812  1.6629
 8439SOL     OW31229   1.925   3.661   3.026 -0.0572 -0.0258  0.3875
 8439SOL    HW131230   1.840   3.622   2.991 -0.9321  1.2013  1.0992
 8439SOL    HW231231   1.941   3.628   3.119 -1.5050  2.2865  1.5069
 8440SOL     OW31232   5.785   1.350   2.911  0.1826  0.1199  0.5255
 8440SOL    HW131233   5.737   1.369   2.826  0.8958  0.1403  0.1260
 8440SOL    HW231234   5.880   1.327   2.892  0.4597  0.5556  1.3424
 8441SOL     OW31235   4.492   5.236   1.692  0.4143 -0.2075 -0.7458
 8441SOL    HW131236   4.584   5.273   1.701  0.8316 -1.5178  0.4126
 8441SOL    HW231237   4.426   5.302   1.730  1.1081 -0.4058  0.8131
 8442SOL     OW31238   4.648   1.015   4.103  0.3446 -0.0490  0.0361
 8442SOL    HW131239   4.643   0.931   4.048  0.8782  0.0035 -0.0885
 8442SOL    HW231240   4.720   1.007   4.171 -0.3104 -0.1074  0.7343
 8444SOL     OW31241   1.340   8.646   4.375 -0.4964 -0.1324 -0.1301
 8444SOL    HW131242   1.283   8.619   4.452  0.3857  0.8059  0.8699
 8444SOL    HW231243   1.413   8.579   4.363  0.7496  0.9355  1.3415
 8445SOL     OW31244   7.176   0.204   2.939 -0.3156  0.2498  0.2056
 8445SOL    HW131245   7.156   0.287   2.992 -0.7907 -0.5673  1.3129
 8445SOL    HW231246   7.274   0.202   2.917 -0.4616  1.5906 -0.6828
 8447SOL     OW31247   2.471   6.636   2.188 -0.5147 -0.1168 -0.0845
 8447SOL    HW131248   2.435   6.637   2.281  0.9588 -0.7940  0.5177
 8447SOL    HW231249   2.420   6.570   2.133  0.4662 -1.8838  1.0550
 8450SOL     OW31250   9.414   6.925   0.138  0.2342 -0.1417  0.0572
 8450SOL    HW131251   9.416   6.998   0.070 -0.3018 -0.5584 -0.4088
 8450SOL    HW231252   9.502   6.877   0.137  1.1279  1.3974  1.3746
 8451SOL     OW31253   2.088   1.324   1.134 -0.4452 -0.3575 -1.0846
 8451SOL    HW131254   2.050   1.399   1.188  0.7795  1.3570 -2.5269
 8451SOL    HW231255   2.176   1.296   1.173 -0.0276  0.2209 -1.5930
 8452SOL     OW31256   8.957   4.971   4.503 -0.3276 -0.5161  0.1122
 8452SOL    HW131257   9.052   4.985   4.474 -0.5583  1.9496  0.4293
 8452SOL    HW231258   8.939   4.873   4.512  0.4626 -1.3930 -5.7973
 8453SOL     OW31259   1.729   4.634   4.925  0.0591 -0.1950  0.0521
 8453SOL    HW131260   1.654   4.581   4.884  1.3344  0.1456 -2.8360
 8453SOL    HW231261   1.815   4.585   4.911  0.5875  0.1637  1.9937
 8455SOL     OW31262   2.782   2.962   1.582 -0.1221 -0.0986  0.0810
 8455SOL    HW131263   2.811   3.001   1.494  0.4790  0.4901  0.5374
 8455SOL    HW231264   2.779   2.862   1.574  0.0808 -0.0600 -0.5632
 8456SOL     OW31265   9.299   0.551   5.009 -0.1622  0.6976  0.6178
 8456SOL    HW131266   9.325   0.456   4.993  0.2178  0.9508 -0.2962
 8456SOL    HW231267   9.349   0.611   4.947  0.5998  1.6322  2.1047
 8457SOL     OW31268   8.958   5.581   3.303 -0.1270 -0.2310 -0.3461
 8457SOL    HW131269   8.870   5.613   3.338  1.3265  0.3555  2.9779
 8457SOL    HW231270   9.004   5.655   3.256 -0.2083  0.2619  0.3438
 8458SOL     OW31271   9.876   0.603   3.014 -0.4610 -0.2212  1.1112
 8458SOL    HW131272   9.877   0.554   3.101  1.5995 -0.6912  0.8429
 8458SOL    HW231273   9.893   0.539   2.939 -1.3796  0.3214  0.4172
 8459SOL     OW31274   7.011   8.489   4.949 -0.2942 -0.4666 -0.1660
 8459SOL    HW131275   7.042   8.419   5.015 -1.2788  0.8000  1.7032
 8459SOL    HW231276   7.088   8.520   4.894  0.6194 -1.3760  0.5764
 8460SOL     OW31277   1.821   1.900   3.105 -0.3637 -0.1184 -0.0907
 8460SOL    HW131278   1.760   1.901   3.185 -0.2980 -1.9292 -0.0060
 8460SOL    HW231279   1.906   1.852   3.129 -0.8473 -1.7508 -1.6030
 8461SOL     OW31280   2.529   5.512   0.609 -0.1629  0.0064  0.6869
 8461SOL    HW131281   2.500   5.569   0.532 -2.0497  0.0909  1.4342
 8461SOL    HW231282   2.448   5.470   0.652  1.0519 -1.9456  1.1474
 8462SOL     OW31283   9.108   6.985   3.769  0.6638  0.3146  0.7873
 8462SOL    HW131284   9.024   6.976   3.822  0.4646  1.7353  0.7439
 8462SOL    HW231285   9.163   6.902   3.779 -1.2481 -1.0957 -0.1052
 8463SOL     OW31286   3.552   0.680   5.213 -0.6881  0.4141  0.7946
 8463SOL    HW131287   3.575   0.732   5.131  1.6367  1.3888  2.0002
 8463SOL    HW231288   3.524   0.588   5.187 -0.5343  0.8851 -1.1297
 8464SOL     OW31289   9.965   8.296   3.212  0.0627  0.4371  0.6082
 8464SOL    HW131290   9.956   8.262   3.118 -2.1607  1.5796  0.3722
 8464SOL    HW231291   9.932   8.227   3.276 -0.0878  0.3475  0.4346
 8465SOL     OW31292   3.012   6.027   1.615 -0.4202 -0.0438 -0.0297
 8465SOL    HW131293   3.090   6.012   1.554 -0.6065 -0.8022 -0.0866
 8465SOL    HW231294   2.944   6.083   1.569 -0.0025  0.4400 -0.0609
 8466SOL     OW31295   9.632   1.140   1.535 -0.0805 -0.1071 -0.3653
 8466SOL    HW131296   9.666   1.171   1.624 -2.6774 -1.3741  1.1273
 8466SOL    HW231297   9.688   1.064   1.503  0.1038 -0.5005  0.8389
 8468SOL     OW31298   8.982   9.796   0.204 -0.5143  0.1616 -0.2330
 8468SOL    HW131299   8.996   9.735   0.126 -0.8137 -0.5800  0.2767
 8468SOL    HW231300   9.069   9.833   0.234  0.0036 -1.9663  0.9915
 8469SOL     OW31301   0.588   8.859   0.602  0.3018  0.1267 -0.3689
 8469SOL    HW131302   0.556   8.805   0.679  1.8342  0.9777  0.8894
 8469SOL    HW231303   0.527   8.937   0.588 -0.1767 -0.2268 -0.2581
 8470SOL     OW31304   2.317   7.459   3.769  0.5912 -0.5643 -0.1426
 8470SOL    HW131305   2.257   7.469   3.849 -0.7416  1.0715 -1.3090
 8470SOL    HW231306   2.268   7.410   3.697  2.1478 -2.9581  0.3814
 8471SOL     OW31307   0.015   9.908   5.137  0.5032 -0.0332 -0.4761
 8471SOL    HW131308  -0.039   9.835   5.180 -0.3595  0.4227 -0.7749
 8471SOL    HW231309  -0.043   9.987   5.120  1.8790  1.4454  1.5552
 8473SOL     OW31310   4.843   8.029   3.455 -0.6092 -0.7579  0.1057
 8473SOL    HW131311   4.802   7.944   3.423 -1.6836 -0.1084 -0.2739
 8473SOL    HW231312   4.774   8.101   3.456  0.3618  0.1870  0.1298
 8474SOL     OW31313   2.737   7.285   0.950 -0.4158 -0.3559  0.4329
 8474SOL    HW131314   2.693   7.213   0.896  1.7731 -1.0674 -0.4905
 8474SOL    HW231315   2.762   7.361   0.890  1.7723 -1.0211  0.4560
 8475SOL     OW31316   1.375   9.715   5.292  0.3527  0.5343 -0.0483
 8475SOL    HW131317   1.285   9.672   5.302 -0.9477  2.8662 -1.4227
 8475SOL    HW231318   1.444   9.644   5.275 -1.2181 -1.2611  0.9277
 8476SOL     OW31319   9.502   2.853   4.135 -0.0542 -0.0801  0.2727
 8476SOL    HW131320   9.435   2.919   4.099  0.4059  1.2295  1.7281
 8476SOL    HW231321   9.592   2.872   4.097  0.0612  0.0756  0.6237
 8477SOL     OW31322   1.721   6.903   4.609 -0.3534 -0.5689  0.4798
 8477SOL    HW131323   1.725   6.903   4.709  1.9387 -1.8310  0.4400
 8477SOL    HW231324   1.760   6.817   4.575  0.0354  0.3830 -1.5354
 8478SOL     OW31325   7.095   5.156   0.147  0.2118  0.2874 -0.2260
 8478SOL    HW131326   7.058   5.189   0.234  1.1252  0.0807  0.2375
 8478SOL    HW231327   7.177   5.101   0.164  1.3605  1.6347 -1.3283
 8479SOL     OW31328   0.259   4.541   3.150  0.8405 -0.2568  0.3610
 8479SOL    HW131329   0.349   4.564   3.112  0.8825 -0.7322  0.1776
 8479SOL    HW231330   0.192   4.610   3.119  0.4977 -1.6227 -2.0781
 8480SOL     OW31331   9.424   3.734   1.512  0.7554 -0.4962 -0.4297
 8480SOL    HW131332   9.353   3.696   1.454  0.4409 -1.0941  0.3393
 8480SOL    HW231333   9.387   3.750   1.604  1.4367 -0.2096 -0.1987
 8481SOL     OW31334   0.228   4.822   0.131 -0.6227 -0.1941 -0.0227
 8481SOL    HW131335   0.131   4.840   0.119 -0.5284 -0.1535 -0.7088
 8481SOL    HW231336   0.277   4.841   0.046  0.0768  0.4344  0.5139
 8482SOL     OW31337   0.100   6.304   1.416 -0.3952  0.0855 -0.0198
 8482SOL    HW131338   0.124   6.228   1.357 -0.5205 -0.4655  0.6359
 8482SOL    HW231339   0.115   6.390   1.367 -0.6266 -0.3657 -0.8965
 8484SOL     OW31340   0.661   4.682   5.037 -0.2084 -0.0945 -0.0156
 8484SOL    HW131341   0.699   4.589   5.041 -1.9995 -0.8711 -0.6644
 8484SOL    HW231342   0.725   4.741   4.988 -0.1527 -1.5647 -1.7749
 8485SOL     OW31343   2.629   7.928   0.660 -0.4581 -0.7010  0.0119
 8485SOL    HW131344   2.681   7.940   0.576 -2.3961 -1.3551 -1.3367
 8485SOL    HW231345   2.625   8.014   0.711 -0.7712  0.1921 -1.4865
 8486SOL     OW31346   4.282   3.522   4.519 -0.2500  0.7299  0.3855
 8486SOL    HW131347   4.354   3.508   4.587  0.7022  1.2219 -0.5075
 8486SOL    HW231348   4.320   3.571   4.440 -1.3880  0.3361 -0.4157
 8489SOL     OW31349   4.686   1.771   0.517  0.3217 -0.1248  0.1152
 8489SOL    HW131350   4.670   1.826   0.599  1.5057 -0.0642  0.3005
 8489SOL    HW231351   4.721   1.830   0.444 -0.2857 -0.2693 -0.3059
 8490SOL     OW31352   4.443   5.521   0.266 -0.1232  0.5349  0.1289
 8490SOL    HW131353   4.540   5.529   0.241 -0.2112  0.0126 -0.3943
 8490SOL    HW231354   4.407   5.435   0.230 -0.0331 -0.6469  2.7032
 8491SOL     OW31355   2.790   0.226   4.708  0.0298 -0.0680  0.0184
 8491SOL    HW131356   2.755   0.270   4.625  0.5071  2.6066  1.1606
 8491SOL    HW231357   2.890   0.237   4.712 -0.0350  0.1917  1.1381
 8492SOL     OW31358   9.604   8.244   2.396 -0.6328 -0.6655 -0.9178
 8492SOL    HW131359   9.691   8.196   2.380 -0.1336  0.3677 -1.3424
 8492SOL    HW231360   9.590   8.256   2.495 -0.2174 -0.6948 -0.8548
 8493SOL     OW31361   2.969   6.425   3.960  0.4531  0.1476 -0.1788
 8493SOL    HW131362   3.002   6.475   3.880  0.0425  1.2020  0.3037
 8493SOL    HW231363   2.889   6.371   3.935 -0.4769  1.5106 -0.1815
 8494SOL     OW31364   1.898   6.354   4.367  0.3030  0.5110 -0.1559
 8494SOL    HW131365   1.899   6.342   4.267  1.0253  1.6763 -0.3053
 8494SOL    HW231366   1.982   6.316   4.406  0.3613  0.7100 -0.0838
 8495SOL     OW31367   4.716   2.381   4.001 -0.6923 -0.2601  0.0550
 8495SOL    HW131368   4.625   2.418   3.984 -0.5800 -0.7464 -1.7421
 8495SOL    HW231369   4.755   2.424   4.082 -2.3870  0.1888  0.6556
 8496SOL     OW31370   4.677   1.430   1.787 -0.3669 -0.0404 -0.0787
 8496SOL    HW131371   4.616   1.407   1.863  2.1644 -2.8605  1.1861
 8496SOL    HW231372   4.752   1.486   1.820  0.7353 -1.2628 -0.4771
 8497SOL     OW31373   2.867   8.786   0.091 -0.1002  0.0339  0.5936
 8497SOL    HW131374   2.791   8.850   0.083  1.2117  1.6573  0.5807
 8497SOL    HW231375   2.947   8.823   0.043  1.2882 -0.6364  2.2962
 8498SOL     OW31376   7.906   2.758   1.889 -0.0598 -0.0702 -0.6687
 8498SOL    HW131377   7.822   2.708   1.912  0.0919  0.0696  0.2208
 8498SOL    HW231378   7.977   2.735   1.955  0.2133  0.7870 -0.6551
 8499SOL     OW31379   8.125   1.845   3.246  0.0039 -0.3679  0.1140
 8499SOL    HW131380   8.029   1.845   3.217 -0.1160  0.5677  0.4914
 8499SOL    HW231381   8.130   1.859   3.345  0.4974 -1.3578  0.2323
 8500SOL     OW31382   0.492   0.984   3.533 -0.0319 -0.0903  0.1844
 8500SOL    HW131383   0.444   0.978   3.621 -0.3472 -0.1184  0.0088
 8500SOL    HW231384   0.447   1.051   3.475  0.5564  0.3982  0.2831
 8501SOL     OW31385   8.304   0.840   5.124 -0.0481 -0.1280 -0.6704
 8501SOL    HW131386   8.267   0.751   5.151 -0.8476  0.6070  0.7276
 8501SOL    HW231387   8.402   0.842   5.142 -0.0134 -0.7605 -0.7816
 8502SOL     OW31388   9.659   3.342   2.484  0.1323 -0.1147 -0.1344
 8502SOL    HW131389   9.561   3.344   2.469  0.0090  0.7529  0.7833
 8502SOL    HW231390   9.704   3.300   2.405 -0.8859  0.3216 -0.9471
 8503SOL     OW31391   5.684   1.606   3.803  0.7524  0.0327 -0.2110
 8503SOL    HW131392   5.651   1.542   3.873 -1.3882  1.4472  0.1170
 8503SOL    HW231393   5.678   1.562   3.713  1.1830 -0.9240  0.2184
 8505SOL     OW31394   1.794   5.179   3.301 -0.4245 -0.0592 -0.6230
 8505SOL    HW131395   1.834   5.200   3.389  0.3978 -2.6791 -0.3242
 8505SOL    HW231396   1.701   5.143   3.314  0.2612 -1.8900 -0.6920
 8506SOL     OW31397   2.959   0.210   3.139 -0.2046 -0.3243 -0.1721
 8506SOL    HW131398   2.904   0.252   3.211  2.3522  0.0403  1.6364
 8506SOL    HW231399   2.899   0.180   3.065 -2.5405  2.5540  0.4431
 8507SOL     OW31400   4.267   9.919   1.288  0.0226  0.1223  0.2233
 8507SOL    HW131401   4.240   9.825   1.271  1.7274 -0.3281 -0.1324
 8507SOL    HW231402   4.305   9.959   1.204 -0.3666  1.0178  0.4596
 8508SOL     OW31403   9.945   6.585   4.629 -0.0154  0.5298 -0.0552
 8508SOL    HW131404   9.977   6.564   4.721  1.1539  0.3101 -0.5059
 8508SOL    HW231405   9.845   6.596   4.630 -0.1746 -0.9285  0.9476
 8509SOL     OW31406   4.248   8.642   3.920 -0.4594 -0.2363  0.8241
 8509SOL    HW131407   4.242   8.732   3.877 -1.1015 -0.4328  0.4895
 8509SOL    HW231408   4.330   8.595   3.889  1.0615  1.1097  2.7043
 8510SOL     OW31409   8.828   3.121   0.551 -0.0527  0.0300  0.1227
 8510SOL    HW131410   8.910   3.109   0.606 -0.7135 -0.4857  1.0174
 8510SOL    HW231411   8.748   3.090   0.603 -0.6359 -0.9866 -1.3245
 8511SOL     OW31412   9.278   4.419   3.652  0.3015  0.0415 -0.1909
 8511SOL    HW131413   9.250   4.347   3.716 -1.3234  0.8049 -0.0335
 8511SOL    HW231414   9.311   4.377   3.567  0.6789 -0.9183  0.4133
 8512SOL     OW31415   2.301   6.528   1.422  0.7695 -0.0087  0.6535
 8512SOL    HW131416   2.286   6.468   1.500  0.1160 -1.7861 -0.7989
 8512SOL    HW231417   2.226   6.517   1.356  2.2338  0.0313 -1.0785
 8514SOL     OW31418   4.921   4.148   4.058  0.0484  0.2043  0.5738
 8514SOL    HW131419   4.927   4.048   4.057 -1.2386  0.1170 -0.8931
 8514SOL    HW231420   4.882   4.178   4.145  0.3527 -0.5830  0.9852
 8515SOL     OW31421   3.771   1.699   1.711  0.0381  0.1822 -0.1746
 8515SOL    HW131422   3.767   1.742   1.621 -1.8443  0.6486  0.1251
 8515SOL    HW231423   3.798   1.603   1.701 -1.4542 -0.1320 -1.3504
 8516SOL     OW31424   8.571   5.703   1.406  0.1831  0.0966 -0.4661
 8516SOL    HW131425   8.503   5.731   1.473 -0.0324 -0.2111 -0.5586
 8516SOL    HW231426   8.655   5.675   1.452 -0.1541 -0.6392 -0.3054
 8517SOL     OW31427   6.961   9.005   4.938 -0.0227  0.6461 -0.2130
 8517SOL    HW131428   6.947   9.068   4.862  0.3982 -0.0576 -0.8842
 8517SOL    HW231429   7.042   8.950   4.921  0.7763  1.3087  1.3181
 8518SOL     OW31430   9.891   4.011   4.190  0.1955 -0.2632 -0.4042
 8518SOL    HW131431   9.863   3.916   4.198  0.1288 -0.0087  2.9348
 8518SOL    HW231432   9.990   4.017   4.184  0.1835 -0.5492 -0.8855
 8519SOL     OW31433   1.373   0.246   4.863 -0.3248  0.0391 -0.4858
 8519SOL    HW131434   1.280   0.278   4.843 -0.3255 -0.0282 -0.5899
 8519SOL    HW231435   1.384   0.153   4.830  0.3866  0.7256 -2.2711
 8520SOL     OW31436   3.944   8.596   4.698 -0.3108  0.2351 -0.0622
 8520SOL    HW131437   3.890   8.680   4.703  0.6743  0.8527  0.2558
 8520SOL    HW231438   3.995   8.584   4.783 -0.1010 -0.4564 -0.2814
 8521SOL     OW31439   4.488   0.184   3.477  0.1001 -0.6644  0.3650
 8521SOL    HW131440   4.573   0.237   3.478  0.2701 -0.9194 -0.3230
 8521SOL    HW231441   4.490   0.116   3.550  0.3874 -0.5125  0.5005
 8522SOL     OW31442   8.700   6.601   2.363  0.1380  0.3919  0.5369
 8522SOL    HW131443   8.694   6.514   2.412  0.5218 -0.4749 -0.9228
 8522SOL    HW231444   8.611   6.645   2.363 -0.4236 -0.7160  0.0144
 8523SOL     OW31445   8.793   3.971   4.094 -0.1016 -0.6346  0.2799
 8523SOL    HW131446   8.744   4.045   4.047 -1.4119 -0.7504  1.4401
 8523SOL    HW231447   8.758   3.883   4.063  0.7935 -0.7664 -0.3841
 8524SOL     OW31448   1.829   3.765   3.559  0.5503  0.2392  0.4280
 8524SOL    HW131449   1.780   3.720   3.484  0.9074  1.5006 -0.5863
 8524SOL    HW231450   1.782   3.748   3.645 -0.8861  0.2577 -0.3381
 8527SOL     OW31451   3.713   6.311   0.623 -0.0425 -0.2179 -0.0518
 8527SOL    HW131452   3.700   6.221   0.664 -0.5459 -0.4820 -0.7903
 8527SOL    HW231453   3.629   6.365   0.635 -0.3098 -0.4098 -1.0169
 8528SOL     OW31454   4.773   8.905   3.076 -0.4867  0.0391 -0.7745
 8528SOL    HW131455   4.712   8.940   3.005  0.7578  1.6007 -1.1101
 8528SOL    HW231456   4.803   8.981   3.134  0.6142 -0.8083 -0.2163
 8529SOL     OW31457   1.680   9.146   1.789  0.3325  0.1132 -0.2970
 8529SOL    HW131458   1.631   9.210   1.849  0.2703  0.2083 -0.4492
 8529SOL    HW231459   1.676   9.054   1.828 -1.2361 -0.1568 -1.0436
 8530SOL     OW31460   1.725   4.163   3.899  0.1053 -0.2867 -0.0012
 8530SOL    HW131461   1.652   4.118   3.847  0.2289 -0.1247 -0.3166
 8530SOL    HW231462   1.813   4.124   3.872  0.2763  0.6604 -0.8121
 8531SOL     OW31463   2.143   9.027   2.548 -0.4421  0.8821  0.5439
 8531SOL    HW131464   2.191   9.083   2.616 -2.2771  2.8017  0.2956
 8531SOL    HW231465   2.057   9.072   2.522 -1.0924 -1.1875 -0.9978
 8532SOL     OW31466   0.911   6.302   4.581  0.1525 -0.6174 -0.1305
 8532SOL    HW131467   0.932   6.382   4.637  1.5556  0.2778 -1.8965
 8532SOL    HW231468   0.970   6.225   4.608  3.0555  0.7178 -2.3925
 8533SOL     OW31469   0.306   1.933   0.595 -0.0360 -0.1935  0.2276
 8533SOL    HW131470   0.227   1.876   0.618 -1.1473  1.5463  0.8618
 8533SOL    HW231471   0.277   2.029   0.589  1.8768  0.3697 -0.3557
 8535SOL     OW31472   3.157   0.675   4.039 -0.2006  0.4041  0.1394
 8535SOL    HW131473   3.083   0.715   4.094  0.0845  0.6246  0.3639
 8535SOL    HW231474   3.203   0.603   4.091  1.5749  2.1814  1.0989
 8536SOL     OW31475   4.369   1.302   0.153 -0.1625  0.2659 -0.7203
 8536SOL    HW131476   4.381   1.205   0.177 -1.4740  0.6343  1.5774
 8536SOL    HW231477   4.273   1.327   0.166  0.0860  1.7944 -1.7280
 8538SOL     OW31478   3.832   3.740   2.714 -0.4251  0.1211 -0.5978
 8538SOL    HW131479   3.835   3.825   2.660  1.3363 -0.1083 -0.8860
 8538SOL    HW231480   3.775   3.755   2.796  0.5235  1.8340 -0.2219
 8539SOL     OW31481   2.682   9.225   1.293  0.2993  0.1304 -0.0916
 8539SOL    HW131482   2.770   9.217   1.339  0.6895  1.8926 -0.5083
 8539SOL    HW231483   2.625   9.292   1.342 -0.8881 -1.1088  0.2765
 8540SOL     OW31484   4.501   9.101   3.151  0.2072 -0.1655  0.0336
 8540SOL    HW131485   4.420   9.050   3.123  0.3181 -0.6165  0.5232
 8540SOL    HW231486   4.550   9.133   3.070  1.5225 -3.0167 -0.3689
 8541SOL     OW31487   4.681   4.253   2.207 -0.4786  0.7593  0.1117
 8541SOL    HW131488   4.615   4.216   2.142 -0.6211  0.6538  0.3170
 8541SOL    HW231489   4.700   4.348   2.184  0.0731  0.4953 -0.5668
 8542SOL     OW31490   2.263   6.630   4.133  0.2769  0.7751  0.6386
 8542SOL    HW131491   2.237   6.691   4.208  1.5491  1.5846  0.4414
 8542SOL    HW231492   2.362   6.631   4.123  0.0889  0.9430 -1.2811
 8543SOL     OW31493   5.191   4.246   1.373 -0.3818 -0.2189  0.4235
 8543SOL    HW131494   5.181   4.275   1.469  0.7488 -0.9033  0.7587
 8543SOL    HW231495   5.151   4.315   1.313 -0.8940  0.3280  1.3802
 8544SOL     OW31496   1.905   7.673   4.622  0.3136  0.4047  0.1287
 8544SOL    HW131497   1.838   7.739   4.657 -1.1994 -1.0479  0.0186
 8544SOL    HW231498   1.927   7.606   4.693 -0.8604 -1.0707 -0.8828
 8545SOL     OW31499   2.571   2.753   4.952  0.2547 -0.2644  0.9788
 8545SOL    HW131500   2.506   2.815   4.908  1.1457  0.5995  0.8709
 8545SOL    HW231501   2.635   2.806   5.007  0.6913 -1.1393  1.3223
 8546SOL     OW31502   9.586   6.688   4.737  0.3420  0.1663  0.0178
 8546SOL    HW131503   9.599   6.628   4.659 -1.1793  0.4950 -0.4957
 8546SOL    HW231504   9.519   6.648   4.800  1.9074 -0.3261  1.4043
 8547SOL     OW31505   1.402   6.619   2.454 -0.8152  0.1314 -0.0993
 8547SOL    HW131506   1.418   6.578   2.364  1.6507  0.8899 -0.0466
 8547SOL    HW231507   1.450   6.565   2.524 -0.2183  1.2640  0.3697
 8548SOL     OW31508   5.832   8.945   3.003 -0.4755 -0.7794 -0.3064
 8548SOL    HW131509   5.833   8.850   2.973  0.7453 -0.4799 -1.2811
 8548SOL    HW231510   5.791   9.002   2.932  0.2933 -0.3725 -0.4333
 8549SOL     OW31511   0.645   0.347   2.062  0.4091  0.0467  0.1170
 8549SOL    HW131512   0.596   0.275   2.013  1.2077  0.4796 -1.3421
 8549SOL    HW231513   0.723   0.307   2.110 -1.6271 -0.7314  2.8927
 8550SOL     OW31514   6.530   5.096   0.515  0.1824 -0.2966 -0.3285
 8550SOL    HW131515   6.621   5.101   0.555 -0.1230  1.2681  0.1979
 8550SOL    HW231516   6.531   5.032   0.438  2.4943  2.0286 -2.3440
 8552SOL     OW31517   6.207   8.257   3.469  0.3175 -0.0923 -0.2441
 8552SOL    HW131518   6.283   8.257   3.405  1.2498 -0.2598  0.8532
 8552SOL    HW231519   6.233   8.304   3.553 -0.5710 -0.6999  0.3912
 8554SOL     OW31520   2.252   5.406   1.740 -0.0595 -0.0682 -0.0594
 8554SOL    HW131521   2.303   5.470   1.798 -0.9246  1.4479 -0.9142
 8554SOL    HW231522   2.160   5.395   1.777  0.2362 -1.2104  0.3490
 8555SOL     OW31523   8.821   6.953   1.209 -0.5696  0.2075  0.2119
 8555SOL    HW131524   8.815   6.945   1.308 -2.0154  0.6606  0.1746
 8555SOL    HW231525   8.810   7.049   1.182 -0.1077  0.1030 -0.3884
 8557SOL     OW31526   2.378   2.926   1.397  1.1381  1.1676 -0.2631
 8557SOL    HW131527   2.320   3.007   1.382  2.6633  1.7506 -3.5235
 8557SOL    HW231528   2.324   2.844   1.382  0.0992  1.6195  0.9536
 8558SOL     OW31529   5.630   2.517   2.252 -0.5341  0.3555  0.2802
 8558SOL    HW131530   5.560   2.505   2.323 -0.3556 -2.1890  0.0727
 8558SOL    HW231531   5.704   2.450   2.266  1.2643  2.1973 -0.2286
 8559SOL     OW31532   4.959   7.464   2.060 -0.2371  0.0879  0.1183
 8559SOL    HW131533   4.913   7.479   2.148  0.7711 -0.6536  0.7789
 8559SOL    HW231534   4.927   7.532   1.994 -0.0850  1.4268  1.3977
 8560SOL     OW31535   0.610   8.887   2.018 -0.3307  0.4185 -0.2631
 8560SOL    HW131536   0.614   8.947   2.098 -0.7800  1.1945 -0.8211
 8560SOL    HW231537   0.687   8.823   2.022 -0.5489  0.2200  0.9683
 8562SOL     OW31538   7.160   8.425   2.641 -0.5413 -0.3110 -0.3775
 8562SOL    HW131539   7.161   8.523   2.621 -2.3770 -0.5942 -2.0542
 8562SOL    HW231540   7.066   8.394   2.650  0.0210 -1.9815 -0.0988
 8563SOL     OW31541   7.181   1.058   4.240 -0.4880  0.5564 -0.1306
 8563SOL    HW131542   7.172   0.997   4.319 -0.1475  1.5029  0.6483
 8563SOL    HW231543   7.275   1.053   4.206 -0.2045  1.3452  0.5189
 8564SOL     OW31544   1.340   4.211   1.145 -0.1677  0.3650 -0.5460
 8564SOL    HW131545   1.342   4.208   1.045  0.8325 -3.2969 -0.4916
 8564SOL    HW231546   1.273   4.146   1.179 -0.5670  1.6608  1.1856
 8566SOL     OW31547   0.105   8.324   1.371  0.1364 -0.6537 -0.8829
 8566SOL    HW131548   0.150   8.413   1.379 -0.6007 -0.3151 -0.3510
 8566SOL    HW231549   0.173   8.251   1.374  0.6719 -0.1414 -0.3972
 8567SOL     OW31550   4.312   7.610   2.629 -0.5755 -0.0874  0.0171
 8567SOL    HW131551   4.267   7.678   2.571 -0.2522  0.7677  0.7528
 8567SOL    HW231552   4.352   7.539   2.572 -2.2974 -0.5228 -0.6875
 8568SOL     OW31553   0.185   5.903   5.247  0.5103 -0.1663  0.4847
 8568SOL    HW131554   0.183   5.879   5.150 -0.0157  0.6623  0.2774
 8568SOL    HW231555   0.137   5.834   5.300 -0.6096  0.1943 -0.0434
 8569SOL     OW31556   4.132   2.947   0.844  0.2342  0.0518 -0.1127
 8569SOL    HW131557   4.204   2.932   0.912  0.2624  1.7346  0.2493
 8569SOL    HW231558   4.171   2.994   0.765 -0.5965  1.6682  0.4143
 8571SOL     OW31559   5.744   0.428   4.650 -0.5772 -0.3404  0.1602
 8571SOL    HW131560   5.691   0.359   4.601 -1.1498  1.3459 -1.6694
 8571SOL    HW231561   5.682   0.493   4.693 -0.0399  0.7179 -0.6335
 8572SOL     OW31562   6.746   0.708   1.030  0.8462  0.0689  0.0126
 8572SOL    HW131563   6.724   0.710   1.128  0.5218  0.0471 -0.0601
 8572SOL    HW231564   6.830   0.760   1.014  0.3585  0.9033  0.1596
 8573SOL     OW31565   3.082   5.474   0.202 -0.1695  0.2377  0.1414
 8573SOL    HW131566   3.026   5.405   0.156  0.1547 -0.1692  0.3557
 8573SOL    HW231567   3.047   5.489   0.295 -1.1630  1.4614 -0.4180
 8574SOL     OW31568   0.606   5.103   3.984 -0.1135  0.2358  0.4966
 8574SOL    HW131569   0.546   5.107   3.904  0.7564 -0.3023 -0.2015
 8574SOL    HW231570   0.629   5.196   4.013 -0.0553  0.4378 -0.1822
 8575SOL     OW31571   7.267   2.097   2.377  0.2381  0.1468 -0.3736
 8575SOL    HW131572   7.199   2.116   2.306  0.5125  0.2202 -0.6155
 8575SOL    HW231573   7.346   2.052   2.336  0.7312  0.8963 -0.2397
 8577SOL     OW31574   4.985   3.494   3.831  0.3048  0.0047  0.2968
 8577SOL    HW131575   4.937   3.439   3.762  1.8962 -0.0979 -0.7561
 8577SOL    HW231576   5.058   3.438   3.873  0.5406  0.6490  0.7497
 8578SOL     OW31577   2.739   5.351   4.515 -0.3908  0.3506 -0.5722
 8578SOL    HW131578   2.779   5.278   4.459  0.1731  0.8731 -0.8715
 8578SOL    HW231579   2.754   5.331   4.612 -0.6514 -0.1607 -0.6370
 8579SOL     OW31580   1.319   2.412   2.199  0.1750  0.4552  0.3972
 8579SOL    HW131581   1.266   2.328   2.190  1.1783 -0.1170 -0.3338
 8579SOL    HW231582   1.375   2.407   2.282 -0.7120  0.9460  1.0273
 8580SOL     OW31583   4.363   0.922   3.600 -0.2309  0.5127 -0.2349
 8580SOL    HW131584   4.452   0.880   3.584  0.0757  0.9719  0.2661
 8580SOL    HW231585   4.375   1.013   3.639 -0.8797  1.2330 -1.6533
 8581SOL     OW31586   3.949   8.385   3.041  0.1334 -0.0902 -0.4288
 8581SOL    HW131587   3.906   8.365   3.130 -0.5626  0.0306 -0.7339
 8581SOL    HW231588   3.985   8.300   3.002  1.4804  0.0349  0.5013
 8582SOL     OW31589   2.849   7.566   0.034  0.2409  0.1848 -0.0974
 8582SOL    HW131590   2.797   7.481   0.023  0.9601 -0.3418  0.4972
 8582SOL    HW231591   2.947   7.544   0.040  0.5639  1.1891 -1.5559
 8583SOL     OW31592   3.324   7.687   0.743  0.1382  0.2629 -0.5955
 8583SOL    HW131593   3.378   7.755   0.793  2.1956 -0.3726 -1.8826
 8583SOL    HW231594   3.335   7.597   0.785 -0.4163  0.2377 -0.4994
 8584SOL     OW31595   2.587   3.572   1.680 -0.2935  0.3007  0.1477
 8584SOL    HW131596   2.634   3.598   1.596 -1.0893 -1.6431 -0.9529
 8584SOL    HW231597   2.488   3.577   1.666 -0.4338 -0.0440  0.9709
 8585SOL     OW31598   3.099   5.192   5.288 -0.1578  0.2285 -0.0772
 8585SOL    HW131599   3.165   5.152   5.352  0.5267  0.4782 -0.6278
 8585SOL    HW231600   3.084   5.129   5.212 -0.4050  0.2622 -0.0584
 8586SOL     OW31601   2.786   2.142   3.203  0.1544  0.5006 -0.4859
 8586SOL    HW131602   2.858   2.120   3.269  0.3894 -1.0344 -1.2391
 8586SOL    HW231603   2.731   2.218   3.239  0.7403  0.1948  1.1314
 8588SOL     OW31604   2.168   3.253   3.467  0.7423  0.0180  0.7733
 8588SOL    HW131605   2.212   3.164   3.457  1.5597  0.5056 -0.1077
 8588SOL    HW231606   2.217   3.320   3.411 -2.0809  0.2184 -1.5984
 8589SOL     OW31607   1.142   1.574   0.572  0.5427 -0.2226  0.1763
 8589SOL    HW131608   1.089   1.596   0.491 -0.8929 -1.8025  0.6463
 8589SOL    HW231609   1.129   1.645   0.641 -0.0011  0.0180 -0.1680
 8590SOL     OW31610   9.751   5.321   5.246  0.1609  0.0812 -0.0986
 8590SOL    HW131611   9.666   5.333   5.297 -0.7822 -0.5380 -1.4739
 8590SOL    HW231612   9.733   5.332   5.148  1.3614 -1.5498 -0.5255
 8591SOL     OW31613   3.947   3.050   1.517 -0.3107  0.3674 -0.3169
 8591SOL    HW131614   3.962   3.047   1.418 -2.0423  0.3488 -0.5891
 8591SOL    HW231615   3.883   2.978   1.543  1.3903 -0.6594  1.0549
 8592SOL     OW31616   6.970   7.315   4.872  0.3612 -0.2213 -0.3337
 8592SOL    HW131617   7.013   7.232   4.908  1.6097  0.2143 -0.7762
 8592SOL    HW231618   7.041   7.380   4.845 -0.5830  2.1441  2.6325
 8594SOL     OW31619   7.969   0.689   1.788  0.1848 -0.1439  0.5599
 8594SOL    HW131620   7.967   0.603   1.840  1.4286 -0.8274 -0.4812
 8594SOL    HW231621   7.994   0.669   1.693  2.0207  1.5283  0.6689
 8595SOL     OW31622   9.422   3.801   5.114 -0.3163  0.0109  0.6341
 8595SOL    HW131623   9.395   3.897   5.106  0.5528  0.1559 -0.8461
 8595SOL    HW231624   9.364   3.745   5.055 -0.0734 -0.2237  0.6180
 8596SOL     OW31625   9.624   7.001   3.998  0.2214  0.8198 -0.6027
 8596SOL    HW131626   9.653   6.907   3.979 -0.7003  0.5244 -0.5841
 8596SOL    HW231627   9.562   7.031   3.925 -0.9566  0.7497  0.3475
 8597SOL     OW31628   0.961   5.325   3.620 -0.0709  0.1041  0.0046
 8597SOL    HW131629   0.927   5.292   3.533 -1.1007  0.1684  0.3675
 8597SOL    HW231630   0.886   5.328   3.686  0.4584  1.1084  0.5776
 8598SOL     OW31631   3.764   1.051   1.343 -0.3085  0.1725  0.6887
 8598SOL    HW131632   3.836   1.099   1.293 -1.0574 -1.2672 -1.8886
 8598SOL    HW231633   3.789   1.043   1.439  1.9821  1.5147  0.2409
 8599SOL     OW31634   1.884   5.873   2.162 -0.5489 -1.0957  0.3411
 8599SOL    HW131635   1.784   5.874   2.151 -0.7566 -0.3419  2.0925
 8599SOL    HW231636   1.910   5.792   2.216 -0.2679 -1.0169  0.3216
 8600SOL     OW31637   2.679   5.156   3.820 -0.3291 -0.0700  0.0092
 8600SOL    HW131638   2.610   5.096   3.860 -0.1987 -0.5729 -0.5229
 8600SOL    HW231639   2.770   5.120   3.838 -0.2852 -0.5706 -1.1688
 8602SOL     OW31640   3.510   7.270   2.143 -0.1981  0.3911  0.0326
 8602SOL    HW131641   3.500   7.180   2.186 -3.5381  1.1577  1.0531
 8602SOL    HW231642   3.510   7.340   2.214 -0.1211  1.3359 -0.8964
 8603SOL     OW31643   4.964   8.831   3.907 -0.1831 -0.0123 -0.1874
 8603SOL    HW131644   4.896   8.824   3.835 -2.7067 -1.7353  2.2627
 8603SOL    HW231645   4.957   8.921   3.952 -0.5291 -0.0217 -0.2271
 8604SOL     OW31646   7.463   8.642   3.638 -0.1779  0.0777 -0.2758
 8604SOL    HW131647   7.419   8.731   3.628 -0.5973 -0.2084 -1.0153
 8604SOL    HW231648   7.395   8.573   3.660  0.1738 -0.0272  0.4870
 8605SOL     OW31649   5.122   0.347   4.073  0.0087  0.0098 -0.0287
 8605SOL    HW131650   5.109   0.376   4.168  0.3760  3.6274 -0.9840
 8605SOL    HW231651   5.056   0.395   4.015 -0.0740 -2.0154 -1.6370
 8606SOL     OW31652   1.146   8.417   2.075  0.0917  0.0966  0.0787
 8606SOL    HW131653   1.122   8.342   2.137 -0.1030 -1.5732 -1.9731
 8606SOL    HW231654   1.064   8.447   2.025  0.0434  2.1057  1.2950
 8607SOL     OW31655   4.020   0.111   0.752  0.1402 -0.1243 -0.5732
 8607SOL    HW131656   4.088   0.183   0.740 -0.5518  0.8762  1.3484
 8607SOL    HW231657   3.950   0.141   0.817 -0.5579 -2.2391 -0.3034
 8608SOL     OW31658   6.146   1.004   3.438  0.2688  0.5025  0.6388
 8608SOL    HW131659   6.121   1.043   3.526 -0.6339 -0.5301  0.8555
 8608SOL    HW231660   6.099   1.055   3.365  0.3860  0.8550  0.8082
 8609SOL     OW31661   0.225   1.769   3.180  0.1031 -0.2339 -0.0941
 8609SOL    HW131662   0.298   1.734   3.239  0.2396  1.0663  0.5378
 8609SOL    HW231663   0.237   1.733   3.087  2.6177  1.3558 -0.4510
 8610SOL     OW31664   0.854   8.333   4.904  0.1060 -0.3875 -0.2374
 8610SOL    HW131665   0.947   8.299   4.888  0.1283 -0.8850  0.8740
 8610SOL    HW231666   0.830   8.400   4.834  0.1894 -2.4773 -2.3331
 8611SOL     OW31667   4.158   2.537   1.363  0.1924  0.1499  0.2506
 8611SOL    HW131668   4.129   2.574   1.275  1.4737 -1.9810 -1.1065
 8611SOL    HW231669   4.246   2.578   1.389  1.7411 -2.0633 -1.3762
 8612SOL     OW31670   8.628   2.697   2.680 -0.0902  0.5646  0.0473
 8612SOL    HW131671   8.694   2.672   2.752  1.5411  0.2550 -1.5259
 8612SOL    HW231672   8.576   2.616   2.653  0.0517  0.4550  0.1016
 8613SOL     OW31673   1.307   7.202   1.574 -0.5450  0.0577  0.5791
 8613SOL    HW131674   1.394   7.192   1.524 -1.5329 -1.7416 -0.8331
 8613SOL    HW231675   1.325   7.201   1.672  1.1443  0.8571  0.2986
 8614SOL     OW31676   2.193   1.573   0.618 -0.0091  0.2721  0.1509
 8614SOL    HW131677   2.239   1.655   0.585 -1.2306 -0.5412 -3.9455
 8614SOL    HW231678   2.224   1.494   0.565 -1.5661 -1.3004  1.5018
 8616SOL     OW31679   3.819   0.483   2.429  0.3593 -0.4229 -0.0206
 8616SOL    HW131680   3.747   0.552   2.436  0.3949 -0.4584  0.6757
 8616SOL    HW231681   3.805   0.429   2.345 -0.5142 -0.5335  0.1869
 8617SOL     OW31682   1.325   7.887   5.150 -0.4207 -0.9308  0.1368
 8617SOL    HW131683   1.281   7.886   5.240 -0.9820  0.6181 -0.1099
 8617SOL    HW231684   1.409   7.833   5.154  0.1789  0.0778  1.8993
 8618SOL     OW31685   9.343   5.057   5.158 -0.6872  0.2498  0.1556
 8618SOL    HW131686   9.418   4.992   5.161 -0.5238  0.3986 -0.5292
 8618SOL    HW231687   9.306   5.071   5.250 -1.9859 -2.2706  0.0720
 8620SOL     OW31688   2.150   1.947   4.148  0.0700  0.0837  0.5515
 8620SOL    HW131689   2.054   1.919   4.146  0.2054 -0.4267  1.0322
 8620SOL    HW231690   2.165   2.009   4.225 -0.2784  1.6820 -0.6439
 8621SOL     OW31691   3.905   8.077   0.610  0.0722  0.0358 -0.4827
 8621SOL    HW131692   3.880   7.992   0.563  1.7612 -1.2127  0.8003
 8621SOL    HW231693   3.827   8.109   0.664 -1.0579  0.1260 -2.1379
 8625SOL     OW31694   1.689   2.263   2.917  0.1880 -0.0250  0.5999
 8625SOL    HW131695   1.728   2.243   3.008 -1.4996 -1.5277  1.0131
 8625SOL    HW231696   1.738   2.209   2.848 -0.0804 -0.6916  0.9224
 8627SOL     OW31697   6.719   7.803   3.701  0.2924 -0.2676 -0.3350
 8627SOL    HW131698   6.793   7.804   3.634  0.3258  1.9935 -0.3071
 8627SOL    HW231699   6.745   7.859   3.780 -0.8558 -0.6742  0.3447
 8629SOL     OW31700   3.214   4.557   3.172 -0.0397  0.2913  0.0089
 8629SOL    HW131701   3.181   4.542   3.265 -1.2232  1.0868 -0.2680
 8629SOL    HW231702   3.269   4.640   3.169  2.3468 -1.2459  0.5483
 8630SOL     OW31703   8.785   1.377   4.270  0.1419 -0.2355 -0.1097
 8630SOL    HW131704   8.791   1.452   4.335 -0.6043 -1.0701  0.9411
 8630SOL    HW231705   8.691   1.345   4.265  0.5215 -1.3485 -0.2522
 8631SOL     OW31706   2.212   9.730   4.504  0.2481  0.0191  0.7051
 8631SOL    HW131707   2.303   9.694   4.482  0.8055  2.5498 -1.4371
 8631SOL    HW231708   2.148   9.702   4.432  0.3048  1.7742 -0.0497
 8634SOL     OW31709   7.198   0.444   4.507 -0.1544  0.3772  0.0028
 8634SOL    HW131710   7.233   0.367   4.454  0.4686  0.4808  0.2661
 8634SOL    HW231711   7.108   0.420   4.545 -0.2266 -0.0018 -0.4060
 8635SOL     OW31712   2.889   8.074   3.060 -1.1955  0.2820 -0.0582
 8635SOL    HW131713   2.817   8.138   3.088 -1.9339 -0.7579  0.4592
 8635SOL    HW231714   2.939   8.043   3.140  0.2280  1.4555 -0.4811
 8636SOL     OW31715   7.151   9.131   5.282 -0.4220  0.5917  0.5219
 8636SOL    HW131716   7.202   9.066   5.338 -0.3041  1.6151  1.6418
 8636SOL    HW231717   7.059   9.095   5.265  0.0403 -0.4076  0.0805
 8637SOL     OW31718   8.540   3.673   2.853 -0.1205  0.6266  0.1278
 8637SOL    HW131719   8.496   3.639   2.936 -1.0396  0.0055 -0.6036
 8637SOL    HW231720   8.472   3.683   2.781  1.3926 -3.4147 -2.0261
 8638SOL     OW31721   7.731   7.086   3.985 -0.4442  0.4807 -0.3015
 8638SOL    HW131722   7.716   7.089   3.886 -3.8259  1.9244  0.1725
 8638SOL    HW231723   7.712   6.994   4.019  0.8413 -0.0472 -1.0091
 8639SOL     OW31724   2.812   1.642   2.652 -0.3083 -0.6889  0.2225
 8639SOL    HW131725   2.902   1.653   2.610 -0.8479 -0.1309 -0.8032
 8639SOL    HW231726   2.753   1.588   2.591 -1.5489  1.3320 -0.4366
 8642SOL     OW31727   3.267   8.597   2.491 -0.0129  0.5291 -0.4789
 8642SOL    HW131728   3.276   8.522   2.425  0.8251 -1.2291  1.5782
 8642SOL    HW231729   3.265   8.684   2.442 -1.0770 -0.8115 -2.9304
 8643SOL     OW31730   8.673   1.328   1.735 -0.5609 -0.4150 -0.7385
 8643SOL    HW131731   8.598   1.308   1.798 -1.1614 -1.4197 -1.7607
 8643SOL    HW231732   8.719   1.412   1.764  0.4167 -1.8788  2.1748
 8644SOL     OW31733   1.789   5.833   4.692  0.2802 -0.0411 -0.0751
 8644SOL    HW131734   1.777   5.813   4.595  0.4812 -0.5782  0.0086
 8644SOL    HW231735   1.847   5.763   4.734  0.1812  0.1772  0.4368
 8645SOL     OW31736   6.933   9.044   2.275  0.5984  0.2982 -0.1096
 8645SOL    HW131737   6.944   9.011   2.369  0.4379  0.8455  0.1061
 8645SOL    HW231738   7.004   9.004   2.217  0.4645 -0.3374  0.1637
 8646SOL     OW31739   7.104   4.135   0.633  0.1228 -0.1909 -0.0544
 8646SOL    HW131740   7.108   4.153   0.535 -0.5162  3.4821  0.5427
 8646SOL    HW231741   7.194   4.104   0.664  1.0623  1.1570 -1.3519
 8647SOL     OW31742   2.282   3.191   0.696  0.7166  0.3462  0.7241
 8647SOL    HW131743   2.241   3.210   0.785  0.1322  1.3128  0.2488
 8647SOL    HW231744   2.341   3.110   0.703  0.2220  0.0814  1.8480
 8648SOL     OW31745   8.110   0.804   0.132 -0.2631  0.1966  0.1074
 8648SOL    HW131746   8.150   0.890   0.102 -2.2290  0.9685 -0.4229
 8648SOL    HW231747   8.010   0.812   0.132 -0.4730 -1.9892  0.3173
 8649SOL     OW31748   5.381   7.310   2.183  0.1802 -0.4572  0.3035
 8649SOL    HW131749   5.332   7.397   2.189  0.4066 -0.3993  1.3183
 8649SOL    HW231750   5.460   7.321   2.124 -0.4373 -0.2789 -0.5077
 8651SOL     OW31751   5.199   4.950   0.624 -0.1045  0.3549 -0.5376
 8651SOL    HW131752   5.107   4.918   0.605 -0.4567  0.2105  1.3559
 8651SOL    HW231753   5.212   4.961   0.722  2.3321 -0.9753 -0.6534
 8652SOL     OW31754   1.709   0.235   2.564 -0.0604  0.0287 -0.0350
 8652SOL    HW131755   1.654   0.156   2.593 -0.1323 -0.5291 -1.5890
 8652SOL    HW231756   1.790   0.202   2.515 -0.0030  0.9190 -0.5442
 8653SOL     OW31757   6.601   7.307   2.291  0.5024 -0.5267  0.2213
 8653SOL    HW131758   6.670   7.235   2.282  0.6372 -0.5446  1.3119
 8653SOL    HW231759   6.524   7.273   2.345  0.4565  0.0640  0.5342
 8654SOL     OW31760   4.250   4.785   5.134 -0.6245  0.4727  0.1507
 8654SOL    HW131761   4.241   4.833   5.047 -1.4653 -0.8824 -0.5471
 8654SOL    HW231762   4.342   4.747   5.142 -0.5552  0.5672 -0.1842
 8656SOL     OW31763   1.415   6.432   5.034  0.1598  0.1630 -0.7410
 8656SOL    HW131764   1.365   6.410   4.951 -1.3309  1.1735 -0.1462
 8656SOL    HW231765   1.386   6.371   5.108  1.0901 -0.3896 -0.8296
 8657SOL     OW31766   4.343   9.294   3.401 -0.1092  0.4845 -0.4119
 8657SOL    HW131767   4.383   9.210   3.361  0.1129  1.2474 -1.8326
 8657SOL    HW231768   4.316   9.355   3.327 -0.2055  1.7037  0.6306
 8659SOL     OW31769   2.527   6.492   5.011 -0.2244  1.0831 -0.1930
 8659SOL    HW131770   2.577   6.408   5.028  1.5404  2.5837  2.3416
 8659SOL    HW231771   2.530   6.550   5.092 -3.1816  2.7109 -1.1626
 8660SOL     OW31772   9.375   5.837   2.616  0.2042 -0.1936 -0.5040
 8660SOL    HW131773   9.319   5.889   2.552 -0.0363 -0.9652 -0.9243
 8660SOL    HW231774   9.317   5.797   2.687  0.3560 -0.1119 -0.3335
 8661SOL     OW31775   4.776   1.237   2.600 -0.4342 -0.4049  0.1212
 8661SOL    HW131776   4.828   1.197   2.524 -0.8652  0.0795 -0.4315
 8661SOL    HW231777   4.794   1.185   2.684  1.0701 -0.1417 -0.0269
 8662SOL     OW31778   6.976   8.673   2.074 -0.2264  0.3484  0.1929
 8662SOL    HW131779   6.976   8.604   2.002 -0.5688  0.3883  0.1522
 8662SOL    HW231780   6.882   8.707   2.087  0.2459  2.2385 -1.1526
 8663SOL     OW31781   3.057   3.468   4.272  0.4405 -0.6625  0.3777
 8663SOL    HW131782   3.087   3.558   4.240  0.4606 -0.8096 -0.0177
 8663SOL    HW231783   3.031   3.474   4.368  1.8199 -0.5613  0.7527
 8664SOL     OW31784   0.367   2.337   4.038 -0.4884  0.3211  0.0153
 8664SOL    HW131785   0.325   2.323   3.949 -0.3438 -0.9058  0.1336
 8664SOL    HW231786   0.460   2.373   4.026 -0.4661  0.1508 -0.3260
 8665SOL     OW31787   0.181   2.033   3.313 -0.7588  0.4247  0.3855
 8665SOL    HW131788   0.096   2.046   3.365 -0.0775 -0.9293  1.8679
 8665SOL    HW231789   0.180   1.943   3.269  0.4146 -0.0670  1.3638
 8666SOL     OW31790   4.109   0.071   0.399 -0.7789  0.7259 -0.7082
 8666SOL    HW131791   4.039   0.141   0.416  0.3537  1.3902  1.4654
 8666SOL    HW231792   4.176   0.106   0.335 -1.0877  1.0311 -0.8700
 8668SOL     OW31793   8.036   4.322   2.389  0.2400 -0.0816 -0.4806
 8668SOL    HW131794   7.974   4.396   2.414 -0.0557 -1.1728  2.1567
 8668SOL    HW231795   7.985   4.251   2.339 -0.3052 -0.2137  0.2478
 8669SOL     OW31796   6.275   7.587   4.721  0.0267  0.2998  0.1981
 8669SOL    HW131797   6.177   7.594   4.702 -0.2680 -2.8115  0.3410
 8669SOL    HW231798   6.293   7.619   4.813 -0.9299  0.4326  0.3477
 8670SOL     OW31799   5.831   1.290   1.534  0.3497 -0.0359 -0.8334
 8670SOL    HW131800   5.768   1.363   1.560  0.3299 -0.1643 -0.5129
 8670SOL    HW231801   5.911   1.328   1.488  0.7861  0.2739  0.1733
 8671SOL     OW31802   3.896   2.090   0.053  0.0374  0.2433 -0.0948
 8671SOL    HW131803   3.945   2.113  -0.032  0.0573  0.5134 -0.0119
 8671SOL    HW231804   3.854   2.000   0.044 -0.7198  0.6499 -0.7235
 8673SOL     OW31805   1.764   9.637   0.573 -0.6829 -0.5886 -0.3143
 8673SOL    HW131806   1.843   9.675   0.621  0.6752 -0.0333 -2.8450
 8673SOL    HW231807   1.700   9.711   0.550 -2.2427 -1.1147  2.2115
 8674SOL     OW31808   8.965   9.395   3.948  0.0858  1.0921 -0.4824
 8674SOL    HW131809   8.971   9.489   3.983 -0.1994  1.2184 -0.7721
 8674SOL    HW231810   8.988   9.395   3.850  0.0990  0.8584 -0.4779
 8675SOL     OW31811   2.231   7.773   2.122  0.2823  0.4811  0.0026
 8675SOL    HW131812   2.243   7.856   2.175 -0.7392  0.9097 -0.4237
 8675SOL    HW231813   2.227   7.795   2.025 -1.4274  0.1144 -0.0321
 8676SOL     OW31814   5.858   1.282   3.420 -0.4536 -0.0945 -0.8329
 8676SOL    HW131815   5.940   1.277   3.362 -0.7712 -0.3742 -1.2612
 8676SOL    HW231816   5.777   1.273   3.363 -0.7960  0.5304 -0.4482
 8678SOL     OW31817   0.862   5.487   2.036  0.6292  0.0093 -0.5548
 8678SOL    HW131818   0.786   5.441   1.991 -0.6901  1.7688 -0.1760
 8678SOL    HW231819   0.874   5.578   1.997  2.1865 -0.0337 -0.2224
 8679SOL     OW31820   7.452   8.959   2.884  0.2559  0.7174  0.0881
 8679SOL    HW131821   7.543   8.994   2.905 -0.5217  3.1592 -0.5181
 8679SOL    HW231822   7.395   9.032   2.847 -1.7142 -0.9706 -0.3278
 8680SOL     OW31823   0.384   6.279   1.031  0.1185  0.3670  0.1743
 8680SOL    HW131824   0.459   6.287   0.966  0.4175  1.0648  0.6011
 8680SOL    HW231825   0.297   6.293   0.984  0.2585 -0.3030 -0.2923
 8681SOL     OW31826   8.109   3.026   2.643  0.3999 -0.1636 -0.0975
 8681SOL    HW131827   8.030   3.068   2.688  0.5271 -0.4289  0.3798
 8681SOL    HW231828   8.093   3.021   2.545 -0.0186  0.1315 -0.0465
 8682SOL     OW31829   3.390   2.558   1.321 -0.0972 -1.0009 -0.2255
 8682SOL    HW131830   3.414   2.584   1.415 -0.8321  0.7483 -0.5074
 8682SOL    HW231831   3.298   2.520   1.320 -0.1863 -0.7833 -0.2761
 8683SOL     OW31832   1.892   4.325   4.055 -0.4244  0.5332 -0.3729
 8683SOL    HW131833   1.840   4.384   4.116 -1.1909 -0.8537  0.3183
 8683SOL    HW231834   1.832   4.255   4.016  0.7305 -0.6008 -0.1618
 8684SOL     OW31835   1.860   7.073   5.162  0.0979 -0.2547  0.3766
 8684SOL    HW131836   1.762   7.087   5.171 -0.1498 -2.0039  0.6070
 8684SOL    HW231837   1.893   7.017   5.238  1.4085  0.9158  0.6908
 8685SOL     OW31838   3.777   3.559   4.353 -0.2862 -0.5242 -0.6517
 8685SOL    HW131839   3.872   3.581   4.376  0.5533 -2.4637 -2.1459
 8685SOL    HW231840   3.717   3.631   4.387  1.9340  1.8510 -1.6088
 8687SOL     OW31841   3.859   2.646   2.145  0.4066 -0.2100 -0.0346
 8687SOL    HW131842   3.836   2.586   2.221  1.2218 -0.9859 -0.3840
 8687SOL    HW231843   3.939   2.609   2.097 -0.1238  0.2427 -1.2919
 8688SOL     OW31844   9.437   5.770   0.187  0.5588  0.0016 -0.0240
 8688SOL    HW131845   9.497   5.837   0.232  0.0087  1.0041 -0.7615
 8688SOL    HW231846   9.362   5.745   0.249  0.9945 -0.2466  0.4061
 8691SOL     OW31847   3.372   5.146   1.371 -0.2174  0.1006  0.1300
 8691SOL    HW131848   3.425   5.219   1.329 -1.1696  1.9503  2.0517
 8691SOL    HW231849   3.415   5.058   1.352  1.8532  1.2955 -0.8493
 8692SOL     OW31850   5.999   1.754   2.210  0.4858  0.2493  0.1385
 8692SOL    HW131851   6.002   1.659   2.243 -0.1390  0.2124  0.0797
 8692SOL    HW231852   5.954   1.811   2.279  1.5542  0.6484  0.5242
 8693SOL     OW31853   0.070   4.029   1.748 -0.1709  0.5302  0.2761
 8693SOL    HW131854   0.103   3.997   1.837 -1.0213  1.6641  1.0216
 8693SOL    HW231855   0.145   4.074   1.699 -0.0512  1.1702  1.0344
 8695SOL     OW31856   5.883   2.441   3.918  0.4216 -0.1211  0.3423
 8695SOL    HW131857   5.869   2.538   3.937 -0.7916 -0.5044  1.5248
 8695SOL    HW231858   5.977   2.426   3.888  0.7024  1.3738  0.4341
 8697SOL     OW31859   2.430   0.100   4.069  0.2710 -0.4356  0.2398
 8697SOL    HW131860   2.387   0.013   4.092  0.4390 -0.5039  0.2984
 8697SOL    HW231861   2.393   0.134   3.982 -1.0925  0.3110  1.0879
 8699SOL     OW31862   7.897   1.563   4.957  0.1854  0.0157 -0.2590
 8699SOL    HW131863   7.817   1.618   4.978  1.6396  1.6827  1.1268
 8699SOL    HW231864   7.914   1.566   4.858  0.8701  3.0333 -0.1059
 8700SOL     OW31865   0.615   7.431   5.258  0.0714 -0.5498 -0.1780
 8700SOL    HW131866   0.666   7.428   5.343 -0.9651  0.4122  0.4970
 8700SOL    HW231867   0.649   7.505   5.200 -0.2759 -0.1691  0.0989
 8702SOL     OW31868   8.525   6.254   2.846 -0.2819 -0.1171  0.1197
 8702SOL    HW131869   8.579   6.170   2.848 -2.6073 -1.6676 -0.4016
 8702SOL    HW231870   8.574   6.323   2.792  0.9835 -1.5993 -0.6787
 8704SOL     OW31871   0.583   6.412   1.803 -0.1587  0.0369 -0.2736
 8704SOL    HW131872   0.588   6.468   1.720  1.6658 -1.2744 -1.0718
 8704SOL    HW231873   0.528   6.331   1.785  0.2127 -0.2323 -0.1946
 8705SOL     OW31874   8.944   0.344   2.530 -0.3633 -0.3719 -0.4241
 8705SOL    HW131875   8.886   0.329   2.610  0.6700  0.4515  0.4930
 8705SOL    HW231876   8.931   0.437   2.496 -0.7108 -0.6787 -1.1583
 8706SOL     OW31877   0.493   7.620   2.194  0.1709 -0.0611 -0.3997
 8706SOL    HW131878   0.403   7.626   2.237  0.9828 -0.5541  1.4143
 8706SOL    HW231879   0.500   7.534   2.143 -1.1098  0.9248 -2.3050
 8707SOL     OW31880   8.756   8.495   1.274  0.0303 -0.1545 -0.0248
 8707SOL    HW131881   8.721   8.491   1.367 -0.3028 -0.3506 -0.1596
 8707SOL    HW231882   8.735   8.410   1.226 -3.2629  1.3915 -1.5182
 8709SOL     OW31883   0.339   1.184   1.434  0.1300 -0.0796  0.5789
 8709SOL    HW131884   0.278   1.253   1.393  1.1323  0.9558  0.8017
 8709SOL    HW231885   0.418   1.171   1.375 -0.0962 -1.1189  0.4989
 8711SOL     OW31886   4.399   3.855   1.707  0.5431  0.2599  0.2905
 8711SOL    HW131887   4.339   3.884   1.782  0.5496  0.9720  0.0258
 8711SOL    HW231888   4.393   3.756   1.697  1.1133  0.0569  1.7252
 8713SOL     OW31889   2.341   2.422   1.081 -0.2200  0.8938 -0.4552
 8713SOL    HW131890   2.318   2.492   1.014 -1.7322  2.2411  1.3869
 8713SOL    HW231891   2.386   2.465   1.159  1.7479 -0.6813 -0.7030
 8714SOL     OW31892   7.953   8.222   4.583 -0.6938  0.3940  0.0658
 8714SOL    HW131893   7.955   8.253   4.679 -3.5359  1.2268 -0.0943
 8714SOL    HW231894   7.865   8.179   4.564  0.0350 -0.1901 -2.0697
 8716SOL     OW31895   3.309   6.291   4.637 -0.0544 -0.3852 -0.3020
 8716SOL    HW131896   3.404   6.276   4.664 -0.6786  0.5126  2.4995
 8716SOL    HW231897   3.306   6.356   4.560  1.5285  0.6034  0.4469
 8718SOL     OW31898   9.135   5.708   2.785 -0.5640  0.5432 -0.5551
 8718SOL    HW131899   9.150   5.668   2.875 -3.4555 -1.5383 -0.9230
 8718SOL    HW231900   9.136   5.808   2.792 -1.4948  0.4091  1.9223
 8719SOL     OW31901   4.308   8.412   0.721 -0.1500  0.6176 -0.3621
 8719SOL    HW131902   4.278   8.492   0.772 -0.2054  0.2613  0.1778
 8719SOL    HW231903   4.229   8.369   0.677  0.1262  1.8454 -2.1037
 8721SOL     OW31904   9.357   8.733   0.355 -0.3344  0.1734  0.0835
 8721SOL    HW131905   9.441   8.680   0.347 -1.1597 -1.3239  1.1003
 8721SOL    HW231906   9.366   8.800   0.429 -0.4133 -0.7399  0.9302
 8722SOL     OW31907   3.555   7.552   3.402  0.2755  0.5218 -0.1658
 8722SOL    HW131908   3.516   7.519   3.316 -0.7115 -1.1563  0.9033
 8722SOL    HW231909   3.481   7.589   3.460  0.9957  2.0829 -0.2113
 8723SOL     OW31910   5.231   0.798   2.242  0.0861 -0.2645  0.3835
 8723SOL    HW131911   5.298   0.726   2.261 -1.6479 -2.2658 -0.9017
 8723SOL    HW231912   5.188   0.827   2.328 -0.7826 -2.3612  0.6901
 8724SOL     OW31913   3.452   2.861   2.868  0.1317 -0.3799 -0.5591
 8724SOL    HW131914   3.387   2.921   2.821  0.0534 -0.4645 -0.5583
 8724SOL    HW231915   3.447   2.876   2.966 -1.3122 -1.8128 -0.3969
 8725SOL     OW31916   8.414   9.165   2.028  0.1790 -0.5219 -0.2711
 8725SOL    HW131917   8.441   9.260   2.043 -0.8347 -0.3582  0.5250
 8725SOL    HW231918   8.489   9.117   1.982  2.1364 -0.2506  2.5235
 8726SOL     OW31919   3.673   1.360   2.127  0.2942  0.1269  0.0208
 8726SOL    HW131920   3.617   1.304   2.188 -1.5376  0.1038 -1.6298
 8726SOL    HW231921   3.676   1.454   2.161 -1.2376  0.2514 -0.1541
 8727SOL     OW31922   2.221   4.050   3.486  0.2415 -0.4687 -0.2989
 8727SOL    HW131923   2.181   3.968   3.444 -0.3693  0.1758 -0.9718
 8727SOL    HW231924   2.308   4.070   3.440 -1.0749  1.0287 -2.2256
 8729SOL     OW31925   5.505   7.864   3.496  0.5770  0.0211  0.4768
 8729SOL    HW131926   5.424   7.825   3.540  0.2074  2.0722  1.7297
 8729SOL    HW231927   5.582   7.860   3.559  1.4219 -1.7701 -0.6508
 8731SOL     OW31928   3.937   1.010   3.227  0.0594 -0.0315  0.3316
 8731SOL    HW131929   3.954   0.920   3.268  0.0855  0.2807  1.0168
 8731SOL    HW231930   3.854   1.049   3.267 -0.2766 -0.0030 -0.3919
 8733SOL     OW31931   4.234   4.132   4.860 -0.1104  0.3537  0.2365
 8733SOL    HW131932   4.219   4.225   4.825 -0.0271  0.1653 -0.3000
 8733SOL    HW231933   4.325   4.127   4.901 -0.8930  1.0681  2.1120
 8734SOL     OW31934   1.095   1.848   2.198  0.2620  1.0750 -1.1182
 8734SOL    HW131935   1.035   1.893   2.264  0.5149 -0.6672  0.3510
 8734SOL    HW231936   1.188   1.845   2.235 -0.0324 -1.9258 -0.4944
 8735SOL     OW31937   2.333   7.151   0.704  0.4936  0.0439 -0.1045
 8735SOL    HW131938   2.370   7.227   0.650  0.6755  1.0365  1.3838
 8735SOL    HW231939   2.270   7.098   0.647 -1.0489  2.3906 -0.6985
 8737SOL     OW31940   2.062   6.593   1.600  0.2084 -0.1445 -0.2700
 8737SOL    HW131941   1.970   6.609   1.564 -0.1490 -0.8042  0.3405
 8737SOL    HW231942   2.129   6.599   1.525 -0.2278  1.2643 -0.5516
 8738SOL     OW31943   9.883   0.748   2.584  0.1679  0.2518  0.1281
 8738SOL    HW131944   9.931   0.663   2.563  0.3877  0.8734 -2.0364
 8738SOL    HW231945   9.939   0.805   2.643  1.3434  0.2028 -0.9295
 8739SOL     OW31946   7.486   3.493   1.965  0.0066 -0.2540 -0.0755
 8739SOL    HW131947   7.547   3.545   1.904  1.6027 -0.1475  1.5416
 8739SOL    HW231948   7.391   3.510   1.939  0.5945  1.1061 -1.4732
 8740SOL     OW31949   6.493   5.151   0.157  0.0701 -0.1774 -0.4159
 8740SOL    HW131950   6.469   5.237   0.202  0.6994  0.0225 -0.4490
 8740SOL    HW231951   6.524   5.170   0.064 -0.3707 -0.5031 -0.6302
 8741SOL     OW31952   3.845   3.079   1.932  0.3896 -0.2688 -0.0563
 8741SOL    HW131953   3.922   3.141   1.946 -0.5300  0.9006 -0.1438
 8741SOL    HW231954   3.844   3.011   2.006  0.4874  0.7695  0.9148
 8742SOL     OW31955   9.539   8.770   0.081 -0.5020 -0.8722 -0.2865
 8742SOL    HW131956   9.627   8.785   0.127 -1.1028  0.8051  0.3474
 8742SOL    HW231957   9.524   8.671   0.070  1.2322 -1.1959  0.0177
 8743SOL     OW31958   4.413   2.527   3.134  0.2709  0.0431 -0.3245
 8743SOL    HW131959   4.362   2.462   3.077  1.1584 -1.0026  0.0609
 8743SOL    HW231960   4.463   2.591   3.074  1.1347 -1.0019 -0.7486
 8744SOL     OW31961   0.698   9.085   4.388  0.8763  0.3000 -0.0793
 8744SOL    HW131962   0.604   9.089   4.421  1.4331 -0.0202  1.5805
 8744SOL    HW231963   0.721   9.172   4.344  0.4243  1.1143  1.2509
 8745SOL     OW31964   8.826   3.640   4.238  0.4178  0.2005 -0.3666
 8745SOL    HW131965   8.792   3.655   4.145  1.0255  0.7266 -0.5152
 8745SOL    HW231966   8.749   3.632   4.301 -0.0117 -0.9070 -1.0192
 8746SOL     OW31967   9.670   1.648   2.692  0.5256  0.3765  0.3629
 8746SOL    HW131968   9.768   1.645   2.678  0.2868 -0.2092 -1.2004
 8746SOL    HW231969   9.622   1.616   2.610 -1.0152  2.7033  0.2874
 8747SOL     OW31970   7.783   9.685   4.876  0.3166  0.0215  0.3998
 8747SOL    HW131971   7.844   9.699   4.954  0.6316 -0.3507  0.2239
 8747SOL    HW231972   7.726   9.766   4.863  0.7489  0.3555  0.5877
 8748SOL     OW31973   5.706   0.283   3.775 -0.0005  0.8332  0.3488
 8748SOL    HW131974   5.805   0.293   3.789  0.0879  0.5745 -0.0813
 8748SOL    HW231975   5.658   0.308   3.859  0.4475  0.6705  0.6550
 8749SOL     OW31976   0.946   2.318   1.954  0.1864  0.9477 -0.2123
 8749SOL    HW131977   0.979   2.327   2.048  1.0289  2.4280 -0.6278
 8749SOL    HW231978   0.932   2.409   1.915  0.0974  0.3500 -1.5987
 8751SOL     OW31979   0.554   2.434   0.266 -0.2334 -0.1774 -0.3573
 8751SOL    HW131980   0.532   2.426   0.363  0.9806 -0.5871 -0.1062
 8751SOL    HW231981   0.534   2.348   0.220  1.5338 -0.8264  0.0293
 8752SOL     OW31982   2.606   5.608   2.854  0.0855 -0.5902 -0.4851
 8752SOL    HW131983   2.507   5.613   2.863  0.1487 -0.6197  0.2876
 8752SOL    HW231984   2.635   5.512   2.850  0.0094 -0.5700 -1.6343
 8753SOL     OW31985   8.133   5.134   1.757  0.6778 -0.4853 -0.6605
 8753SOL    HW131986   8.046   5.101   1.720  0.8011 -1.3380 -0.2192
 8753SOL    HW231987   8.205   5.066   1.738  0.7461 -0.9360  1.1175
 8754SOL     OW31988   1.395   4.723   5.094  0.4868  0.0883 -0.0602
 8754SOL    HW131989   1.466   4.785   5.129 -0.3858  1.4456 -0.6502
 8754SOL    HW231990   1.305   4.756   5.123 -0.2495  1.1638 -3.3357
 8755SOL     OW31991   4.182   4.467   3.385  0.2502  0.1814  0.3073
 8755SOL    HW131992   4.265   4.464   3.440 -0.9797  1.9395  2.3365
 8755SOL    HW231993   4.157   4.374   3.357  2.3561 -0.4594  0.4800
 8756SOL     OW31994   8.195   3.199   1.745  0.4179 -0.0155  0.0731
 8756SOL    HW131995   8.225   3.277   1.800  1.4654  0.1779 -0.7428
 8756SOL    HW231996   8.274   3.142   1.723  0.2895  0.7105 -2.4590
 8757SOL     OW31997   9.284   7.995   2.993 -0.6983 -0.0767 -0.5757
 8757SOL    HW131998   9.377   8.003   3.029 -0.7171  0.8976 -0.7386
 8757SOL    HW231999   9.276   8.048   2.909 -0.5569 -2.6367 -2.2715
 8758SOL     OW32000   3.031   1.037   0.831  0.1963 -0.2514  0.4637
 8758SOL    HW132001   3.092   1.040   0.910 -0.3224 -0.2439  0.8725
 8758SOL    HW232002   2.978   1.122   0.828  0.7160  0.0430 -0.2951
 8759SOL     OW32003   6.639   8.569   2.340 -0.1755 -0.0798 -0.5732
 8759SOL    HW132004   6.647   8.657   2.293 -1.8411  0.8912  0.8939
 8759SOL    HW232005   6.558   8.521   2.305 -0.2932 -0.2196 -0.1055
 8760SOL     OW32006   5.980   0.298   5.032  0.0003  0.2202 -0.3779
 8760SOL    HW132007   5.990   0.217   5.091  0.9182 -0.3855 -1.3531
 8760SOL    HW232008   6.070   0.339   5.016 -0.2892  0.5996 -1.0486
 8761SOL     OW32009   5.556   0.036   2.086 -0.1932 -0.5361  0.2210
 8761SOL    HW132010   5.551   0.123   2.036  0.1251 -0.7373 -0.1643
 8761SOL    HW232011   5.550  -0.040   2.021 -0.1036 -0.7985  0.5222
 8762SOL     OW32012   1.180   9.559   1.994  0.3924  0.4038 -0.5594
 8762SOL    HW132013   1.172   9.628   1.922 -0.7113  0.0376 -0.7900
 8762SOL    HW232014   1.090   9.524   2.017  0.9662 -1.1391 -0.5992
 8763SOL     OW32015   1.029   9.350   1.666  0.1122  0.6017  0.5547
 8763SOL    HW132016   1.085   9.433   1.659 -0.9557  1.4059  1.3570
 8763SOL    HW232017   1.087   9.273   1.695  1.3681  0.7534 -1.4184
 8764SOL     OW32018   7.985   0.108   1.297 -0.4936  0.0432 -0.5166
 8764SOL    HW132019   8.012   0.131   1.203 -1.1277 -1.1872 -0.9946
 8764SOL    HW232020   8.068   0.096   1.353 -0.0857 -1.2697 -1.4011
 8765SOL     OW32021   4.704   1.575   3.266  0.3487 -0.0255  0.0721
 8765SOL    HW132022   4.653   1.661   3.275 -0.6503 -0.5169 -0.7839
 8765SOL    HW232023   4.783   1.577   3.327  0.5925  1.6853 -0.2742
 8766SOL     OW32024   4.741   3.912   3.369  0.7458 -0.3062 -0.2679
 8766SOL    HW132025   4.682   3.832   3.376  1.6962 -1.2078 -2.3787
 8766SOL    HW232026   4.695   3.991   3.412 -0.8270 -1.5916  0.4750
 8767SOL     OW32027   4.416   1.356   4.994 -0.3358  0.6640 -0.5267
 8767SOL    HW132028   4.440   1.449   4.967  1.2732  0.6644  0.7792
 8767SOL    HW232029   4.387   1.304   4.914 -0.7059  2.1321 -1.3535
 8769SOL     OW32030   1.115   8.269   4.874 -0.1980  0.4220  0.2484
 8769SOL    HW132031   1.139   8.202   4.944  0.3795  0.1976 -0.1622
 8769SOL    HW232032   1.094   8.222   4.788  0.8030  0.7920 -0.2088
 8770SOL     OW32033   9.049   2.025   3.747 -0.2889  0.3732  0.2713
 8770SOL    HW132034   8.975   1.971   3.787 -0.7883  0.7144 -0.1824
 8770SOL    HW232035   9.097   2.076   3.819  0.9299 -1.5457  0.8683
 8771SOL     OW32036   2.920   7.269   3.199 -0.3442  0.4899 -0.3107
 8771SOL    HW132037   2.933   7.179   3.157 -1.4863  0.3177 -0.3210
 8771SOL    HW232038   3.007   7.317   3.202  0.1425 -0.3293 -0.9711
 8772SOL     OW32039   8.539   2.869   4.313 -0.1064  0.6113 -0.6590
 8772SOL    HW132040   8.450   2.823   4.309  0.5346 -0.5792 -2.2127
 8772SOL    HW232041   8.577   2.862   4.405 -1.6615  1.2393  0.0472
 8773SOL     OW32042   8.080   1.367   2.923  0.5527  0.0830 -0.1598
 8773SOL    HW132043   8.171   1.403   2.942  0.7145 -0.5005  0.1638
 8773SOL    HW232044   8.062   1.287   2.981 -0.3339  0.4593  0.1073
 8774SOL     OW32045   5.268   5.778   1.757 -0.0469  0.2575 -0.1492
 8774SOL    HW132046   5.237   5.845   1.824  0.6477 -0.3960  0.8504
 8774SOL    HW232047   5.195   5.712   1.740 -0.2471  0.4596 -0.0726
 8776SOL     OW32048   8.250   5.552   0.273  0.0761  0.3084  0.3158
 8776SOL    HW132049   8.339   5.567   0.316 -0.2439  1.0160  0.7432
 8776SOL    HW232050   8.182   5.532   0.343 -0.0779 -0.3770 -0.0214
 8777SOL     OW32051   4.445   3.038   4.964 -0.1194 -0.3666 -0.1759
 8777SOL    HW132052   4.494   3.063   4.880 -1.2268  1.2228 -0.3704
 8777SOL    HW232053   4.459   3.110   5.033  0.0489 -1.2321  0.7081
 8778SOL     OW32054   0.503   1.910   3.491 -0.8800  0.6128 -0.1639
 8778SOL    HW132055   0.580   1.877   3.545 -0.0296  2.1945 -0.3844
 8778SOL    HW232056   0.472   1.837   3.429  0.9322  0.2041 -0.6297
 8779SOL     OW32057   1.484   4.860   1.716  0.2666  0.2260  0.3716
 8779SOL    HW132058   1.472   4.783   1.779  1.2935  0.2828  0.6592
 8779SOL    HW232059   1.414   4.856   1.645 -0.2544 -0.4499  0.9093
 8780SOL     OW32060   7.975   3.977   1.149 -0.1862 -0.3754  0.4404
 8780SOL    HW132061   8.058   3.963   1.203 -0.7185 -0.0549  1.3469
 8780SOL    HW232062   7.951   4.074   1.147 -0.4291 -0.4403  0.0143
 8781SOL     OW32063   8.235   9.426   1.947  0.1528 -0.2147  0.6179
 8781SOL    HW132064   8.192   9.336   1.937  2.0274 -0.9751 -0.9284
 8781SOL    HW232065   8.178   9.494   1.901 -0.1283 -0.9864 -0.2109
 8782SOL     OW32066   5.020   3.363   0.829  0.2868 -0.2794 -0.3602
 8782SOL    HW132067   4.985   3.446   0.871  0.0477 -0.3147 -0.4906
 8782SOL    HW232068   5.000   3.284   0.888  0.2670 -0.2822 -0.3712
 8783SOL     OW32069   3.961   7.838   2.974 -0.2532 -0.0301 -0.0989
 8783SOL    HW132070   4.049   7.875   2.943  1.0944 -1.3766  2.0388
 8783SOL    HW232071   3.929   7.891   3.052 -0.6970 -0.3474 -0.0683
 8784SOL     OW32072   0.026   7.512   3.940 -0.3535  0.2906 -0.2710
 8784SOL    HW132073   0.111   7.462   3.920  0.3291  0.9238  1.0020
 8784SOL    HW232074  -0.020   7.535   3.854  1.8472  1.7856 -1.0910
 8785SOL     OW32075   9.117   9.227   0.492 -0.4226 -0.2218 -0.2954
 8785SOL    HW132076   9.140   9.201   0.586 -2.0085  0.7602  0.3952
 8785SOL    HW232077   9.058   9.308   0.494 -0.2349 -0.0215 -2.1597
 8787SOL     OW32078   0.033   8.894   4.353 -0.6756  0.4446  0.4457
 8787SOL    HW132079  -0.051   8.879   4.403 -0.8190 -0.7464 -0.1331
 8787SOL    HW232080   0.018   8.878   4.255  0.4458 -0.7523  0.4492
 8789SOL     OW32081   4.413   5.316   2.079  0.4876 -0.4344 -0.3896
 8789SOL    HW132082   4.328   5.297   2.128 -0.1445 -1.6207 -1.9081
 8789SOL    HW232083   4.489   5.266   2.121  0.0039 -1.2210 -0.4599
 8791SOL     OW32084   6.146   1.275   1.163 -0.4836  0.3862  0.5519
 8791SOL    HW132085   6.213   1.212   1.203 -0.4000  0.5716  0.7016
 8791SOL    HW232086   6.158   1.277   1.063 -0.5316  0.1137  0.5386
 8792SOL     OW32087   1.533   3.693   1.300 -0.2803  0.1437 -0.0101
 8792SOL    HW132088   1.461   3.747   1.257 -0.6124 -0.6004 -0.3910
 8792SOL    HW232089   1.549   3.728   1.393 -0.9267  0.4943 -0.0224
 8793SOL     OW32090   8.262   7.801   4.459 -0.2227  0.0421  0.0346
 8793SOL    HW132091   8.343   7.781   4.514 -1.2326 -0.7633  1.2727
 8793SOL    HW232092   8.287   7.808   4.363  0.9960 -2.2505  0.1633
 8794SOL     OW32093   4.277   3.934   1.923 -0.6431  0.7504 -0.6502
 8794SOL    HW132094   4.264   4.031   1.946 -0.6500  0.5183  0.3644
 8794SOL    HW232095   4.236   3.878   1.995  1.0446  0.0008 -0.2678
 8795SOL     OW32096   0.626   4.019   3.329 -0.2022  0.5765  0.1972
 8795SOL    HW132097   0.678   4.064   3.402  1.4431 -0.6419 -0.1709
 8795SOL    HW232098   0.690   3.983   3.261 -1.5180 -1.0898 -0.1980
 8796SOL     OW32099   8.993   7.314   4.730 -0.1387 -0.1804 -0.4215
 8796SOL    HW132100   9.023   7.318   4.635  0.4352  0.9170 -0.2114
 8796SOL    HW232101   9.064   7.273   4.786 -0.6421 -1.1959 -0.5269
 8797SOL     OW32102   6.703   0.517   5.114 -0.3590  0.2594  0.1307
 8797SOL    HW132103   6.617   0.468   5.123  0.0083 -0.2829  0.7436
 8797SOL    HW232104   6.773   0.472   5.169  0.2206  0.9214 -0.0537
 8798SOL     OW32105   2.433   3.519   3.903 -0.2875  0.2392  0.1416
 8798SOL    HW132106   2.519   3.496   3.857 -0.2571  0.3905  0.1227
 8798SOL    HW232107   2.450   3.541   3.999 -0.6402 -2.3219  0.8251
 8800SOL     OW32108   1.877   1.379   5.113 -0.3335  0.9641  0.4314
 8800SOL    HW132109   1.931   1.342   5.037 -0.9248  0.9320  0.0266
 8800SOL    HW232110   1.832   1.304   5.161 -0.9280  1.0942  0.0740
 8801SOL     OW32111   5.539   4.708   1.136 -0.1205  0.4837 -0.6959
 8801SOL    HW132112   5.604   4.632   1.125 -0.5213  0.4530 -2.9697
 8801SOL    HW232113   5.477   4.687   1.212  0.3156 -1.0840 -0.7454
 8803SOL     OW32114   5.536   2.335   3.098  0.1552  0.2202 -0.0663
 8803SOL    HW132115   5.483   2.253   3.117 -1.0246  0.9646 -0.0814
 8803SOL    HW232116   5.486   2.393   3.033  0.1099  1.7948  1.3424
 8804SOL     OW32117   7.804   6.226   4.409 -0.6368 -0.0482 -0.0719
 8804SOL    HW132118   7.776   6.314   4.371 -0.9277 -0.3823 -0.6475
 8804SOL    HW232119   7.843   6.239   4.500  0.2269  0.7864 -0.5529
 8805SOL     OW32120   2.519   6.446   1.255 -0.0499  0.2522  0.0309
 8805SOL    HW132121   2.601   6.412   1.301 -0.2464 -2.1207 -1.3147
 8805SOL    HW232122   2.465   6.500   1.320  2.0964  1.0529  1.1879
 8806SOL     OW32123   0.205   8.111   2.574 -0.4856 -0.5293  0.3059
 8806SOL    HW132124   0.201   8.021   2.616  0.9008 -1.1795 -0.9113
 8806SOL    HW232125   0.113   8.149   2.567 -0.8305 -0.7011  3.1990
 8807SOL     OW32126   2.835   5.232   4.122 -0.3154  0.5587  0.0023
 8807SOL    HW132127   2.840   5.139   4.159 -2.1175 -0.1849 -1.5270
 8807SOL    HW232128   2.913   5.247   4.060 -1.1925 -0.7619 -1.4826
 8808SOL     OW32129   0.605   2.115   4.056 -0.3667 -0.7033  0.2639
 8808SOL    HW132130   0.561   2.187   4.109  0.8269  0.0077  0.2875
 8808SOL    HW232131   0.540   2.040   4.043 -1.6472  0.4035  0.1490
 8809SOL     OW32132   3.559   6.954   0.153 -0.0789 -0.2776  0.1458
 8809SOL    HW132133   3.549   6.885   0.080  0.9759 -0.6878  0.3832
 8809SOL    HW232134   3.553   7.045   0.112 -0.2419 -0.5022 -0.3485
 8810SOL     OW32135   5.590   7.482   4.520 -0.1960 -0.5892  0.3972
 8810SOL    HW132136   5.551   7.410   4.463  1.8122 -2.2295  1.0674
 8810SOL    HW232137   5.590   7.568   4.469 -0.1198 -1.6411 -1.4028
 8811SOL     OW32138   1.535   8.209   2.617 -0.3258  0.7576  0.1149
 8811SOL    HW132139   1.521   8.115   2.648 -3.4753  0.4107 -2.1785
 8811SOL    HW232140   1.535   8.270   2.697 -3.8467 -0.6104  1.2719
 8813SOL     OW32141   6.513   4.644   0.768  0.7365  0.3693 -0.0464
 8813SOL    HW132142   6.507   4.743   0.773  0.4760  0.3702 -0.4345
 8813SOL    HW232143   6.446   4.609   0.703  0.4934 -0.0994  0.4495
 8814SOL     OW32144   8.086   3.727   0.975 -0.3346  0.1317  0.0993
 8814SOL    HW132145   8.114   3.823   0.972 -1.2074  0.3466 -1.7518
 8814SOL    HW232146   7.986   3.722   0.979 -0.4658 -0.6698 -2.6986
 8815SOL     OW32147   9.280   5.710   0.965  0.2676 -0.2338 -0.4412
 8815SOL    HW132148   9.291   5.614   0.993  0.7729 -0.2863 -0.8145
 8815SOL    HW232149   9.279   5.715   0.865  3.0355  0.4504 -0.4793
 8816SOL     OW32150   5.101   0.419   3.293  0.5139 -0.2806  0.7378
 8816SOL    HW132151   5.112   0.325   3.262  0.3043 -0.1473  0.2559
 8816SOL    HW232152   5.137   0.482   3.224 -0.2033  0.0244  0.6364
 8817SOL     OW32153   8.292   9.309   2.745  0.1229 -0.0199 -0.4679
 8817SOL    HW132154   8.287   9.398   2.790  0.3976 -0.4900  0.5085
 8817SOL    HW232155   8.337   9.319   2.656 -0.1162  0.8581 -0.4974
 8818SOL     OW32156   4.766   5.000   1.491 -0.7061 -0.2155  0.1646
 8818SOL    HW132157   4.813   4.918   1.526  0.8858  0.4106 -0.4689
 8818SOL    HW232158   4.768   4.999   1.391 -1.9998 -0.1438  0.1355
 8819SOL     OW32159   3.925   1.152   2.995 -0.6808  0.1961  0.6119
 8819SOL    HW132160   3.908   1.099   3.079 -1.2504 -2.2676 -1.0014
 8819SOL    HW232161   3.986   1.101   2.935 -0.6509  1.7242 -0.6925
 8820SOL     OW32162   0.138   8.420   0.771 -0.6115 -0.0424  0.4393
 8820SOL    HW132163   0.179   8.421   0.680  0.9969 -1.4868  1.1004
 8820SOL    HW232164   0.038   8.420   0.764 -0.4970 -1.5224 -1.3580
 8821SOL     OW32165   0.760   2.536   1.114 -0.0617 -0.4442 -0.4440
 8821SOL    HW132166   0.807   2.453   1.084  0.4671 -0.3798  0.1975
 8821SOL    HW232167   0.688   2.559   1.049  1.8439  0.3693 -2.3330
 8823SOL     OW32168   3.144   1.111   2.470  0.6259  0.2699  0.5564
 8823SOL    HW132169   3.140   1.208   2.492  0.3508  0.6947 -1.2819
 8823SOL    HW232170   3.152   1.099   2.371  0.6021 -1.5810  0.7504
 8824SOL     OW32171   3.928   4.902   0.469 -0.4608  0.3156 -0.3344
 8824SOL    HW132172   3.947   4.807   0.494  3.0029  1.0992  0.2694
 8824SOL    HW232173   3.977   4.924   0.384 -2.8198  1.0252 -1.5492
 8825SOL     OW32174   0.291   7.075   4.352 -0.6790  0.2433 -0.2413
 8825SOL    HW132175   0.303   6.979   4.378 -0.9548 -0.3439 -2.2071
 8825SOL    HW232176   0.363   7.130   4.394  0.4050 -1.0624 -0.3455
 8827SOL     OW32177   5.488   0.251   1.894  0.4659 -0.4227 -0.2119
 8827SOL    HW132178   5.399   0.261   1.939  0.0384 -0.0631 -1.1208
 8827SOL    HW232179   5.500   0.325   1.828  2.1067  0.4418  0.9932
 8828SOL     OW32180   5.463   1.786   1.058 -0.2251  0.0232  0.2071
 8828SOL    HW132181   5.483   1.690   1.077  0.0973 -0.0364 -0.4431
 8828SOL    HW232182   5.430   1.830   1.142  1.4219 -0.1842  0.9775
 8829SOL     OW32183   8.831   6.644   5.192 -0.3455 -0.5207 -0.1174
 8829SOL    HW132184   8.794   6.699   5.267 -0.0697 -0.6795  0.1355
 8829SOL    HW232185   8.909   6.590   5.225 -0.8683 -1.3684 -0.2676
 8830SOL     OW32186   1.220   9.172   4.147 -0.1579  0.2515  0.2372
 8830SOL    HW132187   1.164   9.254   4.139  0.7541  0.8114 -0.5629
 8830SOL    HW232188   1.192   9.120   4.228  0.2808  2.1474  1.6422
 8831SOL     OW32189   2.508   0.120   4.858 -0.6670  0.7775  0.6851
 8831SOL    HW132190   2.547   0.074   4.778 -0.2345  0.5093  1.0448
 8831SOL    HW232191   2.577   0.123   4.931  0.0977  3.9397 -0.0596
 8832SOL     OW32192   5.244   6.932   3.004 -0.3984 -0.6694  0.6437
 8832SOL    HW132193   5.266   6.875   2.925  1.9657 -1.5870  1.9018
 8832SOL    HW232194   5.146   6.952   3.006 -0.8658 -2.7257 -1.1161
 8833SOL     OW32195   2.507   2.009   1.037 -0.5938 -0.9149  0.3523
 8833SOL    HW132196   2.480   2.105   1.046 -0.6312 -1.0508  1.8815
 8833SOL    HW232197   2.473   1.972   0.951 -0.3453  0.5209 -0.3701
 8834SOL     OW32198   6.285   9.557   2.993  0.0694 -0.3104 -0.8252
 8834SOL    HW132199   6.313   9.461   2.998  1.4410  0.0372 -1.6715
 8834SOL    HW232200   6.338   9.610   3.059 -0.6686 -0.1093 -0.3813
 8835SOL     OW32201   4.077   9.400   2.822  0.5289  0.2542  0.3236
 8835SOL    HW132202   4.173   9.411   2.850  0.7040  0.6331 -0.4108
 8835SOL    HW232203   4.052   9.475   2.762 -0.0566 -0.1716  0.0392
 8836SOL     OW32204   9.095   2.980   4.107  0.4111  0.2746 -0.6604
 8836SOL    HW132205   9.171   3.026   4.062  1.9404 -0.5354  1.0165
 8836SOL    HW232206   9.082   3.019   4.198 -2.3297  1.5674 -1.5516
 8839SOL     OW32207   8.764   3.546   0.982  0.3803  0.0306  0.3782
 8839SOL    HW132208   8.732   3.477   0.917  1.1873  1.1085 -1.2034
 8839SOL    HW232209   8.857   3.522   1.012  0.9763  0.7873 -0.7759
 8840SOL     OW32210   1.922   4.198   2.866  0.3823  0.0129  0.5828
 8840SOL    HW132211   1.956   4.236   2.952  1.1558 -0.1554  0.3568
 8840SOL    HW232212   1.978   4.232   2.790  0.9211 -1.3715  0.3561
 8841SOL     OW32213   1.001   2.697   0.983  0.2252 -0.3390  0.3958
 8841SOL    HW132214   1.011   2.628   0.912  0.9741 -0.9198  1.0611
 8841SOL    HW232215   0.964   2.655   1.066  0.6054  0.0721  0.7811
 8842SOL     OW32216   4.578   4.208   3.714 -0.3917 -0.1486  0.3410
 8842SOL    HW132217   4.675   4.201   3.737 -0.6421 -0.8055  1.2087
 8842SOL    HW232218   4.529   4.130   3.753 -1.5219  0.9677  1.1817
 8843SOL     OW32219   9.773   4.558   2.395  0.1921 -0.3211  0.2646
 8843SOL    HW132220   9.803   4.466   2.421  0.7353 -0.5346 -1.0717
 8843SOL    HW232221   9.780   4.569   2.296 -0.2287  1.0376  0.3690
 8845SOL     OW32222   3.645   7.255   3.155 -0.4695 -0.2714 -0.4211
 8845SOL    HW132223   3.683   7.162   3.147 -0.7472 -0.4096 -0.1741
 8845SOL    HW232224   3.668   7.308   3.074  0.6393 -0.2131 -0.0724
 8848SOL     OW32225   0.351   5.735   0.762 -0.4299 -0.1041 -0.0181
 8848SOL    HW132226   0.251   5.739   0.754 -0.7038 -2.1170  2.0954
 8848SOL    HW232227   0.385   5.656   0.712  0.0309  0.0766  0.0099
 8849SOL     OW32228   3.739   6.764   4.048  0.5579  0.3286 -0.2479
 8849SOL    HW132229   3.647   6.803   4.054  1.0496  1.4393  0.0285
 8849SOL    HW232230   3.792   6.815   3.980  0.3686 -1.5308 -1.8649
 8850SOL     OW32231   0.968   2.876   2.609 -0.5149 -0.1264 -0.1493
 8850SOL    HW132232   0.885   2.924   2.580 -0.4327 -0.2556 -0.6060
 8850SOL    HW232233   1.009   2.830   2.530 -0.9231 -1.4544  0.4073
 8851SOL     OW32234   8.904   8.184   3.647  0.4309 -0.3291  0.3621
 8851SOL    HW132235   8.959   8.143   3.575  1.2207 -0.7120  1.1671
 8851SOL    HW232236   8.814   8.141   3.649 -0.1804  0.8192 -1.4550
 8852SOL     OW32237   3.475   3.395   1.929 -0.4488 -0.0669  0.3845
 8852SOL    HW132238   3.376   3.384   1.923 -0.4292 -0.0333 -0.0263
 8852SOL    HW232239   3.507   3.452   1.853 -0.1056 -0.1351  0.4752
 8853SOL     OW32240   1.956   2.499   4.754 -0.0989 -0.7033  0.1909
 8853SOL    HW132241   2.035   2.452   4.716  0.5444  0.8722 -0.4490
 8853SOL    HW232242   1.872   2.460   4.716  0.4403 -1.0324 -0.6676
 8854SOL     OW32243   1.752   5.766   4.405 -0.3299 -0.0963 -0.2836
 8854SOL    HW132244   1.761   5.690   4.341 -1.5945 -1.3502  0.9813
 8854SOL    HW232245   1.838   5.815   4.412  0.7777 -2.0017 -0.4029
 8855SOL     OW32246   1.240   9.876   3.109 -0.2568  0.3927 -0.5873
 8855SOL    HW132247   1.325   9.866   3.160  0.1513 -0.1825 -1.3571
 8855SOL    HW232248   1.182   9.796   3.123  0.0562  0.0191 -1.3749
 8856SOL     OW32249   0.499   6.422   4.215  0.0646  0.0247  0.2967
 8856SOL    HW132250   0.569   6.389   4.279 -0.1097 -0.4671  0.2350
 8856SOL    HW232251   0.526   6.399   4.122 -0.0655  0.0388  0.2558
 8857SOL     OW32252   8.227   2.959   4.426  0.3436  0.0196 -0.3424
 8857SOL    HW132253   8.281   3.040   4.404 -0.1867  0.6945  0.7896
 8857SOL    HW232254   8.267   2.912   4.505 -1.1383  0.9793  1.0219
 8858SOL     OW32255   5.951   9.280   4.558 -0.0310 -0.0581 -0.3086
 8858SOL    HW132256   5.982   9.189   4.531  1.1621 -0.1132  1.1436
 8858SOL    HW232257   6.021   9.322   4.617 -2.1247  0.3698  1.9474
 8859SOL     OW32258   6.093   7.661   3.258  0.1941 -0.1457 -0.4931
 8859SOL    HW132259   6.181   7.705   3.276  0.8061 -1.7948  0.6147
 8859SOL    HW232260   6.096   7.566   3.289 -2.4468  0.1773  0.8166
 8860SOL     OW32261   4.847   3.706   2.942 -0.5570  0.3621  0.5649
 8860SOL    HW132262   4.838   3.718   2.843 -1.8036  1.9995  0.8572
 8860SOL    HW232263   4.892   3.787   2.981 -0.2206 -0.2026  1.3711
 8861SOL     OW32264   0.383   5.267   0.962  0.1222 -0.3762 -0.1341
 8861SOL    HW132265   0.402   5.350   1.015 -0.7934 -0.3023  0.0958
 8861SOL    HW232266   0.469   5.222   0.938  0.5773 -0.0307  0.8232
 8862SOL     OW32267   0.183   7.077   2.331 -0.0700 -0.1061  0.2030
 8862SOL    HW132268   0.097   7.112   2.370 -1.6076 -2.2314 -1.1884
 8862SOL    HW232269   0.230   7.151   2.283 -0.5809  1.3325  1.8600
 8863SOL     OW32270   4.475   3.505   2.273 -0.1560  0.5356  0.1884
 8863SOL    HW132271   4.427   3.557   2.202 -1.2927 -0.1155  0.4686
 8863SOL    HW232272   4.444   3.536   2.363  0.5879  0.7006  0.3895
 8864SOL     OW32273   4.280   2.037   4.108  0.8653  0.3007  0.1530
 8864SOL    HW132274   4.221   1.987   4.045 -0.5710 -0.0503  1.7223
 8864SOL    HW232275   4.358   1.979   4.132  1.5663  0.5415 -1.4835
 8865SOL     OW32276   2.396   3.860   4.082  0.6196  0.0483 -0.0368
 8865SOL    HW132277   2.381   3.886   3.987 -1.4023  1.0088  0.5026
 8865SOL    HW232278   2.310   3.871   4.133  1.4222 -1.3692  1.6854
 8866SOL     OW32279   8.673   3.732   2.537  0.3397 -0.0016  0.4346
 8866SOL    HW132280   8.728   3.694   2.611 -0.0526 -0.6037  0.4132
 8866SOL    HW232281   8.721   3.811   2.498  1.5126 -0.9279 -0.0340
 8867SOL     OW32282   5.976   2.023   2.451  0.0938  0.0588 -0.4151
 8867SOL    HW132283   5.910   2.075   2.396 -0.0977  2.4455  1.9728
 8867SOL    HW232284   6.064   2.069   2.450  0.9569 -1.5978 -1.2762
 8868SOL     OW32285   3.900   3.857   5.161  0.0738 -0.1256 -0.4721
 8868SOL    HW132286   3.974   3.840   5.096  3.2322  0.2833  2.9018
 8868SOL    HW232287   3.883   3.955   5.168  0.1011 -0.1410 -0.2148
 8870SOL     OW32288   3.599   1.651   4.216 -0.5844 -0.2017  0.1861
 8870SOL    HW132289   3.525   1.718   4.209 -1.5907 -1.2587  0.4955
 8870SOL    HW232290   3.561   1.562   4.244  1.1564 -0.0628  3.2298
 8871SOL     OW32291   2.360   3.862   0.431 -0.0840 -0.4337  0.0724
 8871SOL    HW132292   2.261   3.873   0.446 -0.5075 -0.3080 -2.5896
 8871SOL    HW232293   2.399   3.811   0.507 -2.0453  0.2571  1.5954
 8873SOL     OW32294   7.606   9.381   3.612  0.4367  0.0697 -0.1911
 8873SOL    HW132295   7.627   9.305   3.549 -0.6930  0.9443 -1.6517
 8873SOL    HW232296   7.516   9.366   3.653 -0.3042  1.2119 -1.3927
 8874SOL     OW32297   2.130   9.734   1.808  0.4381  0.2428  0.0666
 8874SOL    HW132298   2.052   9.793   1.831  1.4799  1.5797  0.1955
 8874SOL    HW232299   2.106   9.679   1.728 -0.6357  0.6664  0.0767
 8875SOL     OW32300   5.181   9.936   4.396 -0.2309 -0.5730 -0.3107
 8875SOL    HW132301   5.181   9.869   4.470 -2.4320 -1.0213 -0.6744
 8875SOL    HW232302   5.093   9.984   4.394  0.4759  0.7352 -1.4882
 8876SOL     OW32303   8.572   2.455   0.720 -0.2334 -0.0983  0.2315
 8876SOL    HW132304   8.519   2.398   0.657 -0.2930  0.0210  0.1737
 8876SOL    HW232305   8.622   2.396   0.784 -0.4376 -0.2102  0.2872
 8879SOL     OW32306   8.588   7.061   0.735  0.4119  0.1812 -0.3275
 8879SOL    HW132307   8.681   7.067   0.772 -0.1750  2.0932  0.9009
 8879SOL    HW232308   8.574   7.135   0.669 -0.3438  0.0422 -0.3213
 8880SOL     OW32309   4.148   2.170   2.406 -0.7313 -0.1552 -0.2444
 8880SOL    HW132310   4.199   2.094   2.366 -1.4948 -0.3530 -0.8515
 8880SOL    HW232311   4.211   2.231   2.454  0.0591 -0.4752 -0.8670
 8881SOL     OW32312   3.760   7.064   2.559  0.1872 -0.2384 -0.2059
 8881SOL    HW132313   3.759   7.052   2.658 -0.1334  0.0720 -0.1705
 8881SOL    HW232314   3.703   7.142   2.534  0.1008 -0.4418 -0.6529
 8882SOL     OW32315   7.479   4.627   0.775  0.1716 -0.0726 -0.1571
 8882SOL    HW132316   7.478   4.556   0.845  2.6221  2.3567  2.4751
 8882SOL    HW232317   7.538   4.598   0.699  0.3216 -1.2507  0.4003
 8883SOL     OW32318   3.294   9.007   5.286 -0.0576 -0.2946 -0.2605
 8883SOL    HW132319   3.298   9.094   5.337  0.0991 -0.2152 -0.4083
 8883SOL    HW232320   3.237   9.019   5.205  1.0762  0.0667 -1.0338
 8884SOL     OW32321   0.172   6.846   4.688 -0.1950 -0.3936 -0.4394
 8884SOL    HW132322   0.076   6.871   4.704  0.0270  0.0857  0.1763
 8884SOL    HW232323   0.190   6.843   4.590 -0.9031 -0.7255 -0.5619
 8885SOL     OW32324   7.538   2.355   3.335  0.5837  0.1171  0.4804
 8885SOL    HW132325   7.501   2.441   3.369  0.0353 -0.3532  1.0919
 8885SOL    HW232326   7.476   2.280   3.360  1.9059 -0.6753  1.4414
 8886SOL     OW32327   8.574   1.554   3.076 -0.1095  0.0048 -0.0631
 8886SOL    HW132328   8.652   1.555   3.015 -0.5875  1.4355 -0.6586
 8886SOL    HW232329   8.491   1.531   3.025 -0.5327  1.3466  0.0045
 8887SOL     OW32330   9.671   4.024   0.466  0.3502  0.0904  0.1487
 8887SOL    HW132331   9.692   3.948   0.405 -0.1932  0.3042 -0.3169
 8887SOL    HW232332   9.601   4.082   0.424  0.3745  0.5526  0.7316
 8888SOL     OW32333   7.407   2.815   0.515 -0.7072 -0.0456  0.2944
 8888SOL    HW132334   7.419   2.874   0.595 -2.0602  0.4713  0.1439
 8888SOL    HW232335   7.369   2.868   0.440 -1.7032 -1.0413  0.0703
 8889SOL     OW32336   5.489   1.428   4.975  0.3599  0.1608  0.0091
 8889SOL    HW132337   5.517   1.425   5.071 -1.8972 -1.2335  0.6715
 8889SOL    HW232338   5.390   1.410   4.969  0.4366  0.4334 -2.5661
 8890SOL     OW32339   9.432   5.718   3.050 -0.5074  0.2783  0.2616
 8890SOL    HW132340   9.441   5.677   3.140  2.1375 -0.6473 -0.3929
 8890SOL    HW232341   9.521   5.719   3.004 -1.6872  1.2772 -2.1053
 8891SOL     OW32342   7.517   3.268   0.228 -0.3044  0.0952 -0.1258
 8891SOL    HW132343   7.445   3.249   0.160  0.1655  0.3721 -0.7076
 8891SOL    HW232344   7.556   3.359   0.210 -0.0916  0.1155  0.4408
 8892SOL     OW32345   9.647   5.098   3.315 -0.5750  0.1808 -0.7914
 8892SOL    HW132346   9.612   5.137   3.229  0.0774 -0.5937 -1.4161
 8892SOL    HW232347   9.589   5.127   3.391 -1.3461  0.6203 -1.5413
 8893SOL     OW32348   1.333   0.965   3.917  0.5471 -0.2228 -0.2553
 8893SOL    HW132349   1.324   0.980   4.016 -1.4672  0.0222 -0.4563
 8893SOL    HW232350   1.428   0.940   3.896  0.6350 -2.0437  1.9810
 8894SOL     OW32351   2.006   7.006   2.800 -0.3068 -0.1390 -0.3457
 8894SOL    HW132352   2.044   7.067   2.731  0.7599  0.8950  1.1197
 8894SOL    HW232353   1.906   7.006   2.793 -0.1812 -1.0646 -2.6989
 8895SOL     OW32354   4.441   3.790   0.084 -0.0666 -0.2281 -0.0031
 8895SOL    HW132355   4.354   3.833   0.108  0.2316  0.6577 -0.5058
 8895SOL    HW232356   4.516   3.851   0.107  0.2747  0.2997 -2.3794
 8896SOL     OW32357   1.415   4.509   4.907 -0.5990  0.2955 -0.5365
 8896SOL    HW132358   1.365   4.544   4.828 -1.3436  0.7683  0.1369
 8896SOL    HW232359   1.394   4.565   4.987 -1.7637 -1.6401  0.5551
 8897SOL     OW32360   8.503   8.920   4.934 -0.0086  0.0710 -0.0524
 8897SOL    HW132361   8.426   8.967   4.892 -2.0248  0.1632  3.6234
 8897SOL    HW232362   8.555   8.984   4.990  1.3248 -0.5684 -0.5221
 8899SOL     OW32363   7.261   0.944   0.550  0.0584  0.0772  0.7012
 8899SOL    HW132364   7.242   0.851   0.518  1.3247 -0.2806  0.9290
 8899SOL    HW232365   7.271   1.005   0.472 -1.0285  0.0737  0.5593
 8901SOL     OW32366   8.771   7.488   4.696  0.3184 -0.7436 -0.1105
 8901SOL    HW132367   8.687   7.461   4.744 -0.1273 -0.8666 -0.9408
 8901SOL    HW232368   8.841   7.419   4.711  0.3072 -0.5823  0.6894
 8902SOL     OW32369   8.732   1.316   1.426 -0.1572  0.0971  0.1983
 8902SOL    HW132370   8.727   1.255   1.347  1.2564  1.0577 -0.6354
 8902SOL    HW232371   8.639   1.344   1.452 -0.5906  0.3290 -1.5409
 8903SOL     OW32372   2.341   9.054   2.352  0.1310  0.2720 -0.0533
 8903SOL    HW132373   2.267   9.022   2.411  0.2819  1.5944  0.8525
 8903SOL    HW232374   2.393   8.975   2.319 -1.9414 -0.7118 -1.0682
 8904SOL     OW32375   3.437   8.889   2.111  0.1370  0.0557 -0.3282
 8904SOL    HW132376   3.516   8.937   2.073 -0.7521  2.3381  0.6097
 8904SOL    HW232377   3.398   8.828   2.042  2.0111 -0.2245 -1.1584
 8905SOL     OW32378   8.339   2.811   4.644 -0.2140 -0.0515 -0.6899
 8905SOL    HW132379   8.370   2.720   4.672 -1.4378 -0.1737  0.2894
 8905SOL    HW232380   8.271   2.845   4.709  1.1106  2.0850 -0.3571
 8906SOL     OW32381   2.996   1.789   3.727  0.4513  0.4119  0.0033
 8906SOL    HW132382   2.914   1.767   3.674  0.7775  0.1718 -0.3939
 8906SOL    HW232383   3.000   1.888   3.742 -0.6223  0.2962  1.1705
 8908SOL     OW32384   4.762   7.704   2.170 -0.0218 -0.2918 -0.3690
 8908SOL    HW132385   4.820   7.761   2.228 -0.3633 -1.0385  0.7269
 8908SOL    HW232386   4.711   7.762   2.107 -2.7246  0.9704  2.8186
 8909SOL     OW32387   7.812   9.439   1.564 -0.3814  0.0743 -0.1434
 8909SOL    HW132388   7.772   9.391   1.643 -0.4750  0.1660 -0.1348
 8909SOL    HW232389   7.903   9.404   1.546  1.0868  2.5188  2.2366
 8910SOL     OW32390   2.840   1.424   4.218 -0.2868 -0.0183 -0.3432
 8910SOL    HW132391   2.839   1.354   4.147  3.7752 -0.2367 -0.2516
 8910SOL    HW232392   2.817   1.513   4.177 -0.2642 -0.5292 -1.4802
 8911SOL     OW32393   2.238   8.444   2.914  0.0256  0.3159  0.2024
 8911SOL    HW132394   2.195   8.419   2.827  0.4957  1.4134 -0.3534
 8911SOL    HW232395   2.184   8.406   2.989 -1.1894  0.5641 -0.5280
 8912SOL     OW32396   9.035   9.976   2.398 -0.3321 -0.6036 -0.4613
 8912SOL    HW132397   8.951   9.945   2.443  0.4850 -0.4129  1.2642
 8912SOL    HW232398   9.093   9.896   2.378  0.9645 -0.4218  2.3201
 8913SOL     OW32399   4.885   5.218   2.986 -0.0333 -0.7382  0.0509
 8913SOL    HW132400   4.910   5.301   2.936  2.0806 -1.0586  0.5188
 8913SOL    HW232401   4.867   5.242   3.082  0.5714 -0.8117  0.1845
 8914SOL     OW32402   0.395   0.709   3.440 -0.5750 -0.0284 -0.5086
 8914SOL    HW132403   0.429   0.801   3.460  0.9192 -0.9291  1.1400
 8914SOL    HW232404   0.467   0.642   3.459 -2.0889 -1.6504 -0.4489
 8915SOL     OW32405   2.907   5.816   1.751 -0.5680  0.6538 -0.5680
 8915SOL    HW132406   2.830   5.840   1.810  0.5405  0.0906  1.1630
 8915SOL    HW232407   2.966   5.896   1.737  0.5627  0.1815  1.2742
 8916SOL     OW32408   1.887   9.439   2.325  0.5334  0.7457  0.6590
 8916SOL    HW132409   1.948   9.492   2.265 -1.1993  2.2801  0.1985
 8916SOL    HW232410   1.810   9.405   2.271  0.7149 -0.7930  1.3400
 8917SOL     OW32411   1.341   7.236   4.904  0.4065  0.6403  0.1984
 8917SOL    HW132412   1.415   7.287   4.861  0.1965  0.6540 -0.1454
 8917SOL    HW232413   1.356   7.138   4.892 -0.9436  0.6890 -2.0770
 8918SOL     OW32414   4.662   1.050   3.636  0.1490 -0.1077 -0.4429
 8918SOL    HW132415   4.716   1.056   3.720 -0.4720 -1.3301  0.0453
 8918SOL    HW232416   4.649   1.142   3.599  2.5953  0.2197 -0.6063
 8919SOL     OW32417   1.625   4.498   1.671  0.2257  0.4066 -0.6910
 8919SOL    HW132418   1.686   4.458   1.740 -0.1468 -0.6281 -0.9465
 8919SOL    HW232419   1.674   4.566   1.618  1.7163 -1.7539 -2.1368
 8920SOL     OW32420   2.505   3.001   0.736  0.2602  0.4022 -0.0765
 8920SOL    HW132421   2.544   3.041   0.819 -0.7503  0.6459  0.2860
 8920SOL    HW232422   2.573   3.004   0.662  0.7623  1.2600  0.4163
 8922SOL     OW32423   7.310   3.012   0.914  0.2220 -0.0166  0.7206
 8922SOL    HW132424   7.211   3.022   0.906 -0.0114 -1.8975  0.9514
 8922SOL    HW232425   7.332   2.959   0.995  1.5804  2.4485  2.0159
 8923SOL     OW32426   6.172   1.789   2.472  0.5745  0.6503 -0.2759
 8923SOL    HW132427   6.093   1.846   2.452  0.8718  1.0879 -0.2146
 8923SOL    HW232428   6.250   1.819   2.418  0.0985 -1.2527 -2.0726
 8924SOL     OW32429   7.623   9.727   5.248 -0.6165  0.3244 -0.2999
 8924SOL    HW132430   7.702   9.735   5.187 -0.8193  0.3156 -0.5618
 8924SOL    HW232431   7.629   9.640   5.297 -1.4190 -0.5278 -1.6750
 8925SOL     OW32432   8.981   5.838   1.015 -0.2719  0.3619 -0.3910
 8925SOL    HW132433   8.959   5.934   1.002 -0.2205  0.7788  2.2074
 8925SOL    HW232434   9.078   5.822   0.997 -0.6835  0.3985 -2.7010
 8926SOL     OW32435   9.217   1.132   2.550 -0.1985  0.6727 -0.2780
 8926SOL    HW132436   9.285   1.074   2.596 -0.3909  0.8357  0.2158
 8926SOL    HW232437   9.163   1.076   2.487  0.6706  0.6213 -0.9984
 8928SOL     OW32438   1.271   6.766   0.176  0.0513  0.4264  0.7548
 8928SOL    HW132439   1.222   6.681   0.159  1.2388 -0.4397  1.6239
 8928SOL    HW232440   1.260   6.826   0.096 -1.6041 -0.1211  0.5367
 8929SOL     OW32441   4.005   9.985   1.427 -0.3025 -0.1213  0.0888
 8929SOL    HW132442   3.972   9.900   1.469  2.1510 -0.6023  1.1444
 8929SOL    HW232443   4.078   9.964   1.362 -1.4927  0.9806 -1.6622
 8932SOL     OW32444   4.454   3.098   1.037  0.0966  0.1071  0.4395
 8932SOL    HW132445   4.396   3.170   0.997  0.8144  0.3541 -0.1641
 8932SOL    HW232446   4.491   3.130   1.124  1.6295  1.0665 -0.5467
 8934SOL     OW32447   9.364   3.110   3.995  0.1643 -0.4620  0.0591
 8934SOL    HW132448   9.302   3.113   3.916  0.1591  1.0839  0.1166
 8934SOL    HW232449   9.449   3.157   3.972 -0.0580  0.4952  1.1602
 8937SOL     OW32450   4.923   3.953   3.082  0.1517  0.3840  0.2308
 8937SOL    HW132451   4.914   4.017   3.005  0.9678  1.5275  1.0818
 8937SOL    HW232452   4.836   3.950   3.132 -0.2379 -0.0141 -0.4503
 8938SOL     OW32453   6.182   0.012   3.643 -0.1598 -0.4486 -0.2717
 8938SOL    HW132454   6.205   0.049   3.554 -1.1840 -0.4137 -0.5350
 8938SOL    HW232455   6.261   0.017   3.703  0.0859  0.9851 -0.6914
 8939SOL     OW32456   2.035   2.343   3.618  0.3695 -0.2432 -0.1577
 8939SOL    HW132457   1.992   2.428   3.587  1.1673  0.3153  0.2632
 8939SOL    HW232458   2.125   2.363   3.656 -1.0110 -0.7423  3.5600
 8940SOL     OW32459   4.279   4.371   4.168  0.1446 -0.3365 -0.0494
 8940SOL    HW132460   4.234   4.328   4.246  2.4875 -0.9719  1.0176
 8940SOL    HW232461   4.378   4.370   4.183  0.4934  1.4477 -2.0785
 8943SOL     OW32462   9.856   0.028   0.415  0.3448 -0.0627 -0.3485
 8943SOL    HW132463   9.858   0.078   0.501  0.0205  0.7260 -0.8033
 8943SOL    HW232464   9.817  -0.063   0.431  1.0328 -0.2284  0.4909
 8944SOL     OW32465   8.998   7.126   0.097  0.6069 -0.0140 -0.0735
 8944SOL    HW132466   9.077   7.173   0.058 -0.3024 -0.1417 -2.1549
 8944SOL    HW232467   9.026   7.040   0.138  1.6773  0.3827  0.0258
 8945SOL     OW32468   5.083   0.690   1.567 -0.8967 -0.4561 -0.0894
 8945SOL    HW132469   5.156   0.622   1.569  1.9618  2.5084  0.6812
 8945SOL    HW232470   5.080   0.734   1.477 -0.2331  0.9558  0.5649
 8947SOL     OW32471   1.956   8.343   1.636  0.3491 -1.0282  0.8127
 8947SOL    HW132472   1.933   8.430   1.592  1.7290 -1.4135 -0.7516
 8947SOL    HW232473   1.876   8.307   1.683 -0.6775  0.3103  0.1221
 8948SOL     OW32474   2.644   2.271   0.411  0.2656 -0.1131  0.4360
 8948SOL    HW132475   2.600   2.325   0.339 -0.6996 -1.1872  0.1954
 8948SOL    HW232476   2.727   2.317   0.442  0.1384  0.8660 -0.6502
 8950SOL     OW32477   7.299   1.922   2.818  0.4782 -0.0871 -0.2638
 8950SOL    HW132478   7.393   1.903   2.846  0.2628  0.8781  1.1599
 8950SOL    HW232479   7.258   1.989   2.881 -1.3889 -1.0242 -0.4492
 8951SOL     OW32480   1.947   4.371   1.615  0.0263 -0.1885 -0.1214
 8951SOL    HW132481   1.934   4.339   1.709  1.1550  0.1733  0.1643
 8951SOL    HW232482   1.939   4.294   1.553 -1.1757 -0.3550  0.2294
 8952SOL     OW32483   8.059   7.650   2.868 -0.3751 -0.2233  0.3319
 8952SOL    HW132484   7.981   7.699   2.831 -0.2733  0.0403  0.4693
 8952SOL    HW232485   8.144   7.688   2.832 -0.2998 -0.3778  0.3404
 8956SOL     OW32486   0.743   3.200   3.028 -1.1372  0.4831 -0.1218
 8956SOL    HW132487   0.809   3.131   3.000 -1.3846 -0.2797  1.1580
 8956SOL    HW232488   0.769   3.237   3.117 -2.1252  0.5746  0.1379
 8957SOL     OW32489   6.956   0.891   1.011 -0.1392 -0.0361 -0.7890
 8957SOL    HW132490   7.008   0.893   1.096  1.3448  0.1673 -1.6940
 8957SOL    HW232491   6.980   0.971   0.955  0.6459 -1.3984 -2.4357
 8959SOL     OW32492   7.635   2.842   0.216  0.2843 -0.1526  0.0888
 8959SOL    HW132493   7.686   2.761   0.189  2.8579  1.0782  1.0437
 8959SOL    HW232494   7.650   2.859   0.314 -0.9822  0.9480  0.1051
 8960SOL     OW32495   4.738   5.770   1.296  0.4391 -0.0255  0.2689
 8960SOL    HW132496   4.669   5.749   1.365  1.6933 -1.6195  1.0731
 8960SOL    HW232497   4.704   5.747   1.206 -1.4105  2.5374  0.2695
 8961SOL     OW32498   3.048   1.992   4.110 -0.8114 -0.3767 -0.5338
 8961SOL    HW132499   3.117   2.040   4.056  0.9051 -2.5805 -0.3878
 8961SOL    HW232500   3.086   1.970   4.200 -1.4190 -2.2471 -0.7061
 8962SOL     OW32501   9.892   0.065   3.124  0.3680  0.0253  0.3181
 8962SOL    HW132502   9.894   0.088   3.027  0.6674  0.3170  0.3884
 8962SOL    HW232503   9.985   0.071   3.161  0.3839 -0.8884  0.4379
 8963SOL     OW32504   0.649   3.736   3.546 -0.0616 -0.5044  0.3823
 8963SOL    HW132505   0.576   3.752   3.479  0.8030 -1.0240 -0.6952
 8963SOL    HW232506   0.654   3.815   3.608 -0.1050  0.5176 -0.8827
 8964SOL     OW32507   8.253   5.127   1.446  0.4361  0.1219  1.0939
 8964SOL    HW132508   8.350   5.122   1.468  0.7611 -1.6884 -0.5917
 8964SOL    HW232509   8.231   5.061   1.374 -2.7727 -2.2693  4.0423
 8965SOL     OW32510   9.388   9.508   4.052  0.3294 -0.0998  0.3558
 8965SOL    HW132511   9.397   9.553   3.964  1.4377 -2.4919 -0.7881
 8965SOL    HW232512   9.340   9.568   4.116 -2.0786  0.9815 -2.3860
 8966SOL     OW32513   7.782   2.020   3.550  0.5476 -0.3578 -0.6851
 8966SOL    HW132514   7.778   1.987   3.456  1.5420 -0.6126 -0.6357
 8966SOL    HW232515   7.773   2.120   3.550 -1.8822 -0.5492 -0.8699
 8967SOL     OW32516   5.261   1.231   1.241  0.0549  0.2140  0.1116
 8967SOL    HW132517   5.253   1.132   1.233  3.7089 -0.2111  0.9306
 8967SOL    HW232518   5.235   1.260   1.333  1.0428 -0.2599  0.5473
 8968SOL     OW32519   3.241   4.951   3.057 -0.4370 -0.1979  0.2935
 8968SOL    HW132520   3.302   4.958   2.978 -1.3789  1.1981 -0.3408
 8968SOL    HW232521   3.151   4.987   3.032 -0.8270 -0.0002  1.9293
 8969SOL     OW32522   7.282   4.883   0.896 -0.2164  0.6682  0.2548
 8969SOL    HW132523   7.364   4.897   0.840 -0.8156  1.9510 -0.3171
 8969SOL    HW232524   7.302   4.908   0.991 -0.0507  1.3388  0.0452
 8972SOL     OW32525   9.838   1.059   4.597  0.3191  0.5264  0.1601
 8972SOL    HW132526   9.824   0.979   4.656  1.8546 -0.7973 -1.1942
 8972SOL    HW232527   9.782   1.049   4.515  2.1420 -0.2743 -1.0249
 8974SOL     OW32528   2.534   6.898   5.052 -0.3790 -0.6294 -0.2017
 8974SOL    HW132529   2.566   6.981   5.098 -1.4732  0.4313 -1.3086
 8974SOL    HW232530   2.584   6.887   4.966 -0.1621 -1.1686 -0.0043
 8975SOL     OW32531   9.173   2.223   1.993 -0.2219  0.3271 -0.0229
 8975SOL    HW132532   9.117   2.237   1.911 -1.8261  0.7228  1.1163
 8975SOL    HW232533   9.130   2.268   2.071  2.0869  1.2670  0.7551
 8976SOL     OW32534   2.569   2.352   4.831  0.0653  0.1645  0.2952
 8976SOL    HW132535   2.646   2.411   4.854  1.0357 -0.7804 -0.5263
 8976SOL    HW232536   2.523   2.387   4.749 -0.8655  1.1622  1.2205
 8977SOL     OW32537   1.234   7.062   2.088  0.1698 -0.1103 -0.3330
 8977SOL    HW132538   1.281   7.150   2.091  0.5396 -0.3080 -0.2988
 8977SOL    HW232539   1.285   6.998   2.030 -0.5358 -0.0473 -1.0478
 8978SOL     OW32540   4.547   8.508   0.277 -0.6954  0.8633 -0.3681
 8978SOL    HW132541   4.561   8.439   0.348  0.1051  0.0185 -1.3397
 8978SOL    HW232542   4.453   8.503   0.244 -0.6303  0.2280 -0.4574
 8979SOL     OW32543   4.083   4.377   2.080 -0.3337 -0.0838  0.5610
 8979SOL    HW132544   3.999   4.338   2.114 -0.8009  2.1682  2.0844
 8979SOL    HW232545   4.122   4.439   2.148  1.8223 -0.0336 -0.6580
 8980SOL     OW32546   5.455   0.339   2.548  0.1922 -0.1723 -0.8228
 8980SOL    HW132547   5.442   0.247   2.586  2.1698  0.0181  0.4097
 8980SOL    HW232548   5.549   0.349   2.515  0.6867  2.1028  1.1114
 8981SOL     OW32549   2.919   2.733   1.271 -0.3300 -0.3192  0.4285
 8981SOL    HW132550   2.954   2.820   1.305  1.1720 -1.5168  2.1056
 8981SOL    HW232551   2.952   2.719   1.178  0.3050  0.4435  0.5252
 8982SOL     OW32552   7.904   9.299   2.468  0.2251 -0.3638 -0.4167
 8982SOL    HW132553   7.978   9.281   2.532  0.7085 -0.1784 -0.9224
 8982SOL    HW232554   7.934   9.365   2.399 -0.6716  0.3463 -0.1445
 8983SOL     OW32555   5.996   8.781   1.797  0.3626  0.0473  0.0283
 8983SOL    HW132556   6.041   8.869   1.809  0.9969 -0.0509 -1.5938
 8983SOL    HW232557   6.029   8.717   1.867  0.6345  0.7906  0.5873
 8984SOL     OW32558   1.210   0.351   3.309 -0.0464  0.3908 -0.3829
 8984SOL    HW132559   1.206   0.393   3.400  1.3055  0.1291 -0.1982
 8984SOL    HW232560   1.142   0.395   3.250  0.3129  1.8313  0.2371
 8985SOL     OW32561   9.165   6.718   2.435  0.4979  0.3008 -0.1121
 8985SOL    HW132562   9.126   6.731   2.527 -0.3374 -0.0068 -0.4193
 8985SOL    HW232563   9.106   6.763   2.368  0.4997 -0.4402 -0.6152
 8986SOL     OW32564   7.694   8.130   4.524 -1.1072  0.2991  0.6451
 8986SOL    HW132565   7.622   8.162   4.586 -0.8686  1.4560  0.3316
 8986SOL    HW232566   7.679   8.167   4.432 -0.1805  0.4577  0.5470
 8987SOL     OW32567   2.101   5.550   1.346  0.2694 -0.4048 -0.7718
 8987SOL    HW132568   2.088   5.639   1.303 -0.6935 -0.4496 -0.5985
 8987SOL    HW232569   2.015   5.522   1.390  0.5107 -1.4955 -0.9842
 8988SOL     OW32570   3.782   2.834   2.684 -0.0153 -0.1103  0.4975
 8988SOL    HW132571   3.755   2.924   2.720  0.9896  0.3700  0.0902
 8988SOL    HW232572   3.706   2.794   2.634 -0.9507 -0.1341  1.9127
 8989SOL     OW32573   1.360   3.321   0.051 -0.1014 -0.0718 -0.0515
 8989SOL    HW132574   1.365   3.246  -0.015 -1.2109  1.7491 -2.2987
 8989SOL    HW232575   1.412   3.399   0.017  1.4178  0.0782  2.4636
 8990SOL     OW32576   3.376   8.887   1.107 -0.5734 -0.4988 -0.2841
 8990SOL    HW132577   3.338   8.945   1.035  0.1881 -0.7585 -0.8998
 8990SOL    HW232578   3.432   8.815   1.067 -0.3363 -0.7949  0.5535
 8991SOL     OW32579   0.222   1.031   1.076 -0.1481  0.0966 -0.0154
 8991SOL    HW132580   0.159   1.006   1.002 -0.5427  0.4975  0.1794
 8991SOL    HW232581   0.250   0.948   1.125  0.0820 -0.1670 -0.5856
 8992SOL     OW32582   6.617   1.667   1.115  0.6771  0.0946  0.0986
 8992SOL    HW132583   6.551   1.729   1.073 -0.4102 -0.8619  0.3709
 8992SOL    HW232584   6.604   1.575   1.080  2.6201  0.0937 -0.6799
 8993SOL     OW32585   9.105   2.118   4.715  0.3437 -0.0551 -0.4870
 8993SOL    HW132586   9.162   2.171   4.652  0.5737 -1.1719 -1.2426
 8993SOL    HW232587   9.137   2.023   4.717 -0.4887 -0.3304  0.3207
 8994SOL     OW32588   0.002   8.751   2.966  0.3195 -0.5722  0.0114
 8994SOL    HW132589   0.032   8.671   3.018  0.0224 -1.3122 -0.9519
 8994SOL    HW232590  -0.020   8.825   3.029  1.4827 -0.9370  0.8717
 8995SOL     OW32591   0.652   5.485   2.614  0.7164 -0.3432  0.1487
 8995SOL    HW132592   0.635   5.583   2.605  0.9855 -0.1992  1.1596
 8995SOL    HW232593   0.697   5.451   2.531 -1.6440 -0.1248 -1.2617
 8996SOL     OW32594   4.893   8.989   4.955 -0.0343  0.1578 -0.4470
 8996SOL    HW132595   4.828   9.005   5.029  1.6579  0.7301  0.9418
 8996SOL    HW232596   4.987   9.001   4.989  0.7486  1.0828 -2.8415
 8997SOL     OW32597   9.244   6.824   0.958 -0.0451 -0.1589  0.3550
 8997SOL    HW132598   9.146   6.815   0.975 -0.4596 -0.8659 -2.2090
 8997SOL    HW232599   9.259   6.874   0.873  1.7139 -2.7615 -0.9551
 8998SOL     OW32600   3.758   9.263   1.154 -1.1253 -0.1893 -0.0259
 8998SOL    HW132601   3.704   9.337   1.195 -2.0350  0.3238 -2.0913
 8998SOL    HW232602   3.855   9.282   1.167 -1.3731  0.5339  0.8676
 8999SOL     OW32603   9.397   6.411   3.600  0.6361 -0.1914  0.2184
 8999SOL    HW132604   9.363   6.401   3.507 -0.7450 -0.7612  0.7696
 8999SOL    HW232605   9.369   6.332   3.654 -1.0490  1.4790  1.8646
 9001SOL     OW32606   5.690   9.144   4.982  0.1607 -0.5652 -0.3354
 9001SOL    HW132607   5.779   9.149   5.028 -0.3985 -0.3779  0.7182
 9001SOL    HW232608   5.683   9.218   4.915  0.7796 -0.5649 -0.4066
 9002SOL     OW32609   0.226   9.790   4.053  0.1036 -0.2324  0.1372
 9002SOL    HW132610   0.317   9.823   4.029  0.1202 -1.0786 -1.0252
 9002SOL    HW232611   0.234   9.699   4.095 -0.1391  0.0584  0.8124
 9003SOL     OW32612   0.826   2.462   5.037 -0.2780  0.0282 -0.6496
 9003SOL    HW132613   0.820   2.561   5.027 -1.0586  0.0895  0.3345
 9003SOL    HW232614   0.909   2.429   4.992 -0.6993  0.9574 -2.1413
 9006SOL     OW32615   8.774   8.522   3.051 -0.6091  0.4359 -0.9252
 9006SOL    HW132616   8.766   8.499   2.954 -1.6550 -0.5278 -0.6219
 9006SOL    HW232617   8.691   8.568   3.081 -1.3030 -1.3902  0.0598
 9008SOL     OW32618   7.954   0.621   3.230 -0.0417  0.6991 -0.0919
 9008SOL    HW132619   7.982   0.624   3.326  0.0777 -1.2953 -0.0472
 9008SOL    HW232620   7.900   0.703   3.208  0.8708  1.7082  1.3633
 9010SOL     OW32621   8.754   0.236   5.261  0.1010 -0.2514  0.4033
 9010SOL    HW132622   8.812   0.241   5.180  0.5085  0.1812  0.7157
 9010SOL    HW232623   8.692   0.158   5.254  1.4469 -1.3508  0.5411
 9012SOL     OW32624   2.022   4.523   3.565 -0.6695 -0.0831  0.2415
 9012SOL    HW132625   2.029   4.456   3.638 -0.2947 -0.3166 -0.0066
 9012SOL    HW232626   1.943   4.583   3.581 -1.4162 -1.0125  0.1000
 9013SOL     OW32627   2.067   7.198   3.200  0.0343 -0.6827  0.1848
 9013SOL    HW132628   2.134   7.202   3.274  2.0110  0.7950 -1.6306
 9013SOL    HW232629   2.027   7.289   3.188 -2.6596 -1.6280  1.5107
 9014SOL     OW32630   9.780   1.241   2.389  0.7094 -0.1620  0.3165
 9014SOL    HW132631   9.787   1.291   2.302  0.7711  1.5829  1.2957
 9014SOL    HW232632   9.838   1.286   2.458 -0.7645 -0.4350  1.7578
 9015SOL     OW32633   9.682   6.537   4.521  0.6105 -0.5802  0.2581
 9015SOL    HW132634   9.723   6.449   4.501  0.5019 -0.6055  0.1471
 9015SOL    HW232635   9.690   6.597   4.441 -1.4375 -1.2881 -0.5052
 9017SOL     OW32636   8.786   2.546   5.120  0.4688 -0.4183 -0.5208
 9017SOL    HW132637   8.701   2.522   5.166  0.3720 -0.9392 -0.9704
 9017SOL    HW232638   8.799   2.646   5.122  0.8299 -0.4844  1.2707
 9018SOL     OW32639   1.164   4.538   1.153  0.0781  0.0427  0.2070
 9018SOL    HW132640   1.251   4.585   1.165  0.1247  0.0812 -0.2587
 9018SOL    HW232641   1.099   4.570   1.222  0.8198 -0.9459  1.3783
 9019SOL     OW32642   3.937   5.450   1.077  0.1760 -0.2519  0.5261
 9019SOL    HW132643   3.964   5.389   1.152  2.7633 -0.5309 -0.5985
 9019SOL    HW232644   3.924   5.543   1.113 -2.0249 -1.0353  1.9093
 9021SOL     OW32645   8.922   1.539   4.982  0.2588 -0.1540  0.6260
 9021SOL    HW132646   8.838   1.565   4.934  0.9918  0.8888 -0.1137
 9021SOL    HW232647   8.983   1.618   4.987  1.6709 -1.1932  0.1554
 9022SOL     OW32648   1.525   3.543   0.002 -0.2615  0.2098  0.0419
 9022SOL    HW132649   1.600   3.541   0.068  0.6960 -0.7012 -1.0820
 9022SOL    HW232650   1.561   3.552  -0.090 -1.5125 -0.8178 -0.5588
 9023SOL     OW32651   9.513   4.575   0.189  0.1335  0.0590 -0.0329
 9023SOL    HW132652   9.564   4.661   0.191  0.6172 -0.1622 -1.8545
 9023SOL    HW232653   9.430   4.583   0.246  1.0164  1.1642  1.1087
 9024SOL     OW32654   9.392   3.286   2.319  0.2147  0.0592 -0.9158
 9024SOL    HW132655   9.359   3.237   2.400 -0.4487 -0.2670 -1.3767
 9024SOL    HW232656   9.449   3.224   2.265  0.5425  0.2351 -0.7723
 9025SOL     OW32657   9.566   3.206   3.404  0.0153 -0.6697 -0.2049
 9025SOL    HW132658   9.604   3.219   3.312  0.5428 -2.1474 -0.2194
 9025SOL    HW232659   9.466   3.206   3.400  0.0117  1.4601 -0.4428
 9026SOL     OW32660   1.689   0.502   2.241 -0.8521 -0.0525 -0.4526
 9026SOL    HW132661   1.657   0.539   2.328 -1.5880  1.7390 -1.4655
 9026SOL    HW232662   1.687   0.402   2.244  0.8078 -0.0450  2.1954
 9028SOL     OW32663   9.529   0.261   3.105  0.0646  0.2809  0.1479
 9028SOL    HW132664   9.585   0.199   3.050 -0.6114 -0.1808 -0.0413
 9028SOL    HW232665   9.444   0.214   3.131 -0.2722  0.9912  0.3436
 9029SOL     OW32666   0.968   7.473   1.457  0.1541 -0.3334 -0.0057
 9029SOL    HW132667   1.053   7.502   1.412 -0.6899  0.0044 -1.4219
 9029SOL    HW232668   0.967   7.374   1.465  0.2940 -0.4068 -0.7932
 9030SOL     OW32669   4.007   0.941   5.103 -0.1605  0.5239  0.1106
 9030SOL    HW132670   3.963   1.024   5.070  0.7075  1.7482  1.9421
 9030SOL    HW232671   4.052   0.960   5.191  3.2386 -0.8988 -1.2266
 9031SOL     OW32672   0.979   1.683   3.193  0.3135 -0.2199 -0.1499
 9031SOL    HW132673   1.072   1.708   3.166  0.5395 -0.1384  0.6831
 9031SOL    HW232674   0.935   1.761   3.239 -0.1101 -0.3118 -0.3937
 9032SOL     OW32675   4.770   4.183   4.290 -0.6983  0.4303  0.2634
 9032SOL    HW132676   4.693   4.233   4.250 -2.3537 -1.3706  1.0623
 9032SOL    HW232677   4.735   4.115   4.355  1.5054 -1.0710 -0.0415
 9033SOL     OW32678   4.822   7.366   4.711  0.5034 -0.1687 -0.2383
 9033SOL    HW132679   4.872   7.446   4.681  1.8229 -1.4679 -1.6015
 9033SOL    HW232680   4.771   7.327   4.633 -0.4633 -0.4224  0.5016
 9034SOL     OW32681   3.451   5.992   2.058 -0.2328 -0.1675 -0.1167
 9034SOL    HW132682   3.370   6.026   2.009 -0.7307 -0.4294  0.5143
 9034SOL    HW232683   3.520   5.963   1.992 -0.9479 -0.6356 -0.6670
 9035SOL     OW32684   2.824   8.239   3.651 -0.2390 -0.1039 -0.5259
 9035SOL    HW132685   2.921   8.217   3.642  0.1743  1.4106  0.1443
 9035SOL    HW232686   2.796   8.302   3.579 -0.3404  0.7303  0.2362
 9036SOL     OW32687   8.478   0.348   2.485  0.5010  0.0358 -0.4050
 9036SOL    HW132688   8.547   0.277   2.472  1.3983  0.5494  1.3730
 9036SOL    HW232689   8.468   0.367   2.583  0.6000  2.7093 -0.8743
 9037SOL     OW32690   1.660   2.471   2.697 -0.0489 -0.0221  0.1813
 9037SOL    HW132691   1.651   2.421   2.783 -1.4687 -0.7319 -0.3817
 9037SOL    HW232692   1.649   2.409   2.620 -2.2493  1.2113 -0.5319
 9038SOL     OW32693   8.090   0.895   3.283 -0.4917  0.6574  0.2456
 9038SOL    HW132694   8.141   0.974   3.247  0.2593 -0.2857 -0.7822
 9038SOL    HW232695   8.086   0.823   3.214 -0.9337 -0.3271  1.2793
 9039SOL     OW32696   9.452   7.633   1.657  0.5666 -0.3064 -0.4053
 9039SOL    HW132697   9.404   7.708   1.704 -0.2026 -0.9305 -0.1998
 9039SOL    HW232698   9.414   7.620   1.566 -1.7925 -2.8648  0.8900
 9040SOL     OW32699   4.289   4.389   0.347 -0.4662  0.4208  0.0144
 9040SOL    HW132700   4.276   4.314   0.283 -0.4044 -0.1462  0.6582
 9040SOL    HW232701   4.301   4.475   0.297 -0.8625  0.0508 -0.7135
 9042SOL     OW32702   4.785   9.520   0.749  0.1034 -0.2456 -0.6722
 9042SOL    HW132703   4.879   9.548   0.769  0.5950 -1.8464 -0.6225
 9042SOL    HW232704   4.752   9.569   0.669  0.9212  0.4642 -0.5840
 9043SOL     OW32705   0.027   9.929   1.475 -0.0105 -0.3833 -0.1416
 9043SOL    HW132706  -0.017   9.863   1.414 -0.3053  1.9185 -2.4949
 9043SOL    HW232707  -0.005  10.021   1.454  2.4578  0.8548  1.2244
 9044SOL     OW32708   3.419   7.972   3.703  0.3409 -0.5291  0.0116
 9044SOL    HW132709   3.513   7.951   3.675  1.1441  2.6482  0.0695
 9044SOL    HW232710   3.421   8.041   3.776 -2.0664  0.6562 -0.9795
 9045SOL     OW32711   5.438   8.654   4.072  0.3122 -0.6777 -0.5286
 9045SOL    HW132712   5.350   8.608   4.061  0.7659 -1.3530 -1.4073
 9045SOL    HW232713   5.444   8.730   4.006 -0.8305  1.2981  1.5637
 9047SOL     OW32714   1.185   5.996   4.985  0.3198 -0.2327  0.1137
 9047SOL    HW132715   1.193   6.021   5.081  1.3398  1.1586 -0.3106
 9047SOL    HW232716   1.241   6.058   4.930 -1.5409  0.0702 -1.5254
 9049SOL     OW32717   6.838   1.498   3.934 -0.2227 -0.4382 -0.5410
 9049SOL    HW132718   6.936   1.480   3.924  0.1037  0.8662  0.1497
 9049SOL    HW232719   6.825   1.574   3.998 -1.6494 -0.0897 -1.2322
 9050SOL     OW32720   2.259   4.300   3.128  0.0090 -0.7859 -0.1394
 9050SOL    HW132721   2.300   4.356   3.056 -1.4501 -1.0499 -1.1944
 9050SOL    HW232722   2.263   4.350   3.215  3.5819 -1.2883  0.0440
 9051SOL     OW32723   0.356   5.772   1.127  0.1933  0.1521  0.2435
 9051SOL    HW132724   0.281   5.790   1.191 -0.4904  2.6604 -1.1813
 9051SOL    HW232725   0.411   5.855   1.117  2.1915 -1.1646 -0.0161
 9052SOL     OW32726   0.471   5.096   3.306  0.0074 -0.5170 -0.8143
 9052SOL    HW132727   0.470   5.177   3.247 -0.6082  0.0022 -0.0966
 9052SOL    HW232728   0.562   5.055   3.303  0.7170  0.9534 -0.1683
 9053SOL     OW32729   6.670   9.615   2.867  0.0586  0.2518  0.1453
 9053SOL    HW132730   6.667   9.624   2.767  2.9228  0.1142 -0.0046
 9053SOL    HW232731   6.671   9.518   2.892 -0.1401  0.2876  0.2938
 9054SOL     OW32732   4.160   3.538   1.026 -0.0660  0.3151  0.2568
 9054SOL    HW132733   4.150   3.547   0.927 -3.6716 -3.8804  0.0586
 9054SOL    HW232734   4.078   3.573   1.071  0.3971 -0.2583  1.5673
 9055SOL     OW32735   7.678   2.021   0.944  0.0424  0.0315  0.0130
 9055SOL    HW132736   7.777   2.023   0.934  0.0576 -1.0623 -0.1671
 9055SOL    HW232737   7.636   2.081   0.875  0.6260  1.5670  0.9800
 9056SOL     OW32738   7.885   4.174   0.580  0.1532  0.1286 -0.1920
 9056SOL    HW132739   7.922   4.267   0.590 -3.1602  1.6229 -1.0989
 9056SOL    HW232740   7.960   4.110   0.567  2.5258  2.6931  0.3197
 9057SOL     OW32741   0.462   5.308   3.115 -0.2043 -0.3005 -0.3083
 9057SOL    HW132742   0.397   5.364   3.166  1.5109  0.8581  0.6608
 9057SOL    HW232743   0.544   5.362   3.096  0.4304 -1.7005 -1.6222
 9058SOL     OW32744   2.282   3.390   0.189 -0.4476  0.2160 -0.2010
 9058SOL    HW132745   2.194   3.342   0.192 -0.9753  1.0989 -1.2427
 9058SOL    HW232746   2.291   3.448   0.270 -0.6545 -0.1830  0.1065
 9060SOL     OW32747   2.033   3.637   0.448 -0.0495  0.3271  0.2684
 9060SOL    HW132748   2.071   3.724   0.479 -0.4988  0.7471 -0.3608
 9060SOL    HW232749   2.107   3.573   0.428  0.2703  0.3048  1.4515
 9061SOL     OW32750   2.398   3.134   4.619 -0.1193 -0.4154 -0.6673
 9061SOL    HW132751   2.350   3.088   4.544 -0.1470 -0.5822 -0.5480
 9061SOL    HW232752   2.342   3.210   4.652 -1.0055 -1.5404  0.4827
 9062SOL     OW32753   2.385   3.400   1.477 -0.2550  0.2434  0.2793
 9062SOL    HW132754   2.480   3.399   1.447 -0.0761 -1.3836  0.8866
 9062SOL    HW232755   2.338   3.318   1.446 -1.1987  0.5486  0.8522
 9063SOL     OW32756   1.773   5.686   3.759  0.7498 -0.3861  0.3649
 9063SOL    HW132757   1.816   5.676   3.670  1.0236 -0.1156  0.4671
 9063SOL    HW232758   1.677   5.659   3.753  0.7563 -0.3216 -0.0189
 9064SOL     OW32759   1.833   3.959   1.226  0.3321  0.4625 -0.0348
 9064SOL    HW132760   1.734   3.968   1.212  0.1169  0.7007  1.4654
 9064SOL    HW232761   1.862   3.867   1.199 -0.2685  0.4467 -0.6464
 9065SOL     OW32762   8.743   2.966   1.086  0.2444 -0.2399  0.3276
 9065SOL    HW132763   8.690   2.927   1.161  0.5026  0.6619  0.9822
 9065SOL    HW232764   8.805   2.896   1.049  1.5225 -0.1673  2.2369
 9066SOL     OW32765   0.173   9.059   3.950 -0.3609 -0.0381  0.3733
 9066SOL    HW132766   0.100   9.120   3.919  0.5337  1.2215  0.6815
 9066SOL    HW232767   0.184   8.984   3.885 -3.1761 -1.3048  1.2836
 9067SOL     OW32768   0.636   7.262   0.582 -0.1056  0.2408 -0.3917
 9067SOL    HW132769   0.634   7.241   0.485  0.0854 -0.6485 -0.2064
 9067SOL    HW232770   0.643   7.177   0.635 -0.4337  0.7027  0.4038
 9068SOL     OW32771   0.714   7.899   0.736  0.1718 -0.1762 -0.0210
 9068SOL    HW132772   0.658   7.894   0.653  1.5849  2.1040 -1.1851
 9068SOL    HW232773   0.656   7.921   0.814 -1.0696 -1.5433 -0.5422
 9070SOL     OW32774   4.173   6.694   3.592 -0.8204 -0.4643  0.3165
 9070SOL    HW132775   4.148   6.609   3.638  2.1640 -1.2411  0.5934
 9070SOL    HW232776   4.154   6.686   3.494  0.4723 -1.8748  0.1659
 9071SOL     OW32777   5.409   7.096   3.172  0.4271 -0.0164 -0.2381
 9071SOL    HW132778   5.355   7.054   3.099  0.8884 -1.0017 -0.0070
 9071SOL    HW232779   5.370   7.186   3.193 -0.1967 -0.0643 -1.1375
 9072SOL     OW32780   1.695   8.993   1.353  0.6215 -0.3216  0.7199
 9072SOL    HW132781   1.713   9.084   1.390  0.5764  0.4179 -1.0143
 9072SOL    HW232782   1.757   8.975   1.277 -0.5971 -0.9941 -0.1307
 9074SOL     OW32783   0.902   0.206   4.397 -0.4785  0.2143 -0.0853
 9074SOL    HW132784   0.889   0.303   4.377 -0.4003  0.1315 -0.5467
 9074SOL    HW232785   0.952   0.163   4.322 -0.8735 -0.2695 -0.0718
 9075SOL     OW32786   0.427   1.042   2.949 -0.3589  0.6210  0.3654
 9075SOL    HW132787   0.438   0.991   2.864 -0.9620  2.7129 -1.0140
 9075SOL    HW232788   0.404   0.980   3.024  0.0941 -1.2305 -1.0174
 9076SOL     OW32789   7.258   0.704   3.976  0.5945  0.3345  0.2198
 9076SOL    HW132790   7.198   0.739   4.049 -0.0083 -1.3353  0.5423
 9076SOL    HW232791   7.353   0.709   4.007  0.3505 -0.2605  1.0800
 9079SOL     OW32792   1.073   2.683   0.260  0.5355  0.1250  0.2610
 9079SOL    HW132793   1.077   2.635   0.348  0.4061 -0.5892 -0.1176
 9079SOL    HW232794   1.011   2.635   0.199  2.2024 -0.5697 -0.9368
 9080SOL     OW32795   0.147   5.857   4.980  0.4274 -0.1101 -0.1951
 9080SOL    HW132796   0.141   5.758   4.987  2.7447 -0.1904  1.3889
 9080SOL    HW232797   0.224   5.882   4.921  0.7802  0.7308  0.6006
 9081SOL     OW32798   0.110   9.412   0.451  0.2606 -0.0801 -0.2234
 9081SOL    HW132799   0.098   9.322   0.492 -0.7884 -0.2369 -0.8585
 9081SOL    HW232800   0.050   9.421   0.372 -1.6358  2.1186  1.3977
 9082SOL     OW32801   1.416   5.460   4.455 -0.0610 -0.1646  0.1048
 9082SOL    HW132802   1.326   5.416   4.456 -0.8158  1.3054 -2.0284
 9082SOL    HW232803   1.466   5.432   4.374  0.3503  1.1288 -0.0945
 9083SOL     OW32804   5.260   6.894   2.003  0.1667  0.0271 -0.3261
 9083SOL    HW132805   5.308   6.931   2.083  1.9849  0.2160 -1.4811
 9083SOL    HW232806   5.194   6.826   2.034 -0.5346  1.4817  1.4974
 9084SOL     OW32807   2.667   4.934   2.134 -0.4862 -0.0431  0.0317
 9084SOL    HW132808   2.700   4.852   2.181  1.9221  1.3861  0.9110
 9084SOL    HW232809   2.655   4.914   2.037  1.7950 -0.9913 -0.0934
 9085SOL     OW32810   1.243   5.911   0.873 -0.2192  0.1620 -0.1828
 9085SOL    HW132811   1.202   5.927   0.963 -0.3236  1.1764 -0.4075
 9085SOL    HW232812   1.221   5.987   0.812  1.0928  0.2020 -0.6220
 9086SOL     OW32813   1.037   0.271   1.874  0.3110  0.0860  0.1658
 9086SOL    HW132814   1.080   0.190   1.914 -3.0920 -1.0900  1.6673
 9086SOL    HW232815   0.986   0.245   1.792 -0.6949  0.7109  0.5807
 9087SOL     OW32816   1.331   0.199   1.741  0.5780  0.2123 -0.7350
 9087SOL    HW132817   1.320   0.206   1.840  0.2555 -1.2853 -0.6554
 9087SOL    HW232818   1.416   0.245   1.714  0.0351  1.7149  0.0679
 9088SOL     OW32819   6.989   9.518   4.270  0.0814 -0.8318  0.2236
 9088SOL    HW132820   7.012   9.615   4.262  2.0157 -1.3331 -0.5089
 9088SOL    HW232821   7.047   9.465   4.208 -4.1996 -1.9864 -2.9910
 9089SOL     OW32822   2.150   3.281   1.839 -0.3303 -0.1073 -0.3877
 9089SOL    HW132823   2.082   3.312   1.772 -1.4681 -1.3189  0.1952
 9089SOL    HW232824   2.219   3.226   1.793 -0.1460  0.5038 -0.8524
 9090SOL     OW32825   3.877   6.346   3.535  0.3151 -0.4732  0.0499
 9090SOL    HW132826   3.952   6.366   3.597 -0.0123  0.7600  0.0543
 9090SOL    HW232827   3.797   6.401   3.560  0.1096 -0.1204 -1.3145
 9091SOL     OW32828   8.694   4.342   2.081 -0.0986 -0.0497 -0.2812
 9091SOL    HW132829   8.750   4.341   1.998 -0.1943  1.4529 -0.3699
 9091SOL    HW232830   8.617   4.280   2.070 -0.9834  1.2925 -1.9273
 9092SOL     OW32831   3.991   2.667   0.231 -0.2660  0.5867  0.6933
 9092SOL    HW132832   3.907   2.693   0.278  0.3935  0.5395  1.9076
 9092SOL    HW232833   3.968   2.619   0.146 -1.4602  0.0015  1.3369
 9093SOL     OW32834   4.826   9.270   2.257 -0.0323  0.3706 -0.3523
 9093SOL    HW132835   4.814   9.364   2.224 -0.6785  0.3814 -0.0877
 9093SOL    HW232836   4.864   9.214   2.183 -0.2016  0.7096 -0.6991
 9095SOL     OW32837   0.560   8.180   3.406 -0.0037 -0.5176  0.4603
 9095SOL    HW132838   0.564   8.280   3.403  0.3234 -0.5724 -1.1461
 9095SOL    HW232839   0.613   8.148   3.484  0.3192  0.5412  0.6938
 9096SOL     OW32840   2.740   4.081   4.974  0.0810 -0.3903 -0.3119
 9096SOL    HW132841   2.750   4.100   5.072 -1.1744  0.7131 -0.3877
 9096SOL    HW232842   2.654   4.034   4.958  0.9736 -1.9171 -0.7193
 9097SOL     OW32843   0.201   7.795   3.051  0.0957  0.0979  0.2504
 9097SOL    HW132844   0.280   7.736   3.066 -0.0112 -0.8364 -2.5185
 9097SOL    HW232845   0.118   7.738   3.044 -0.4183  0.8332  0.2725
 9099SOL     OW32846   9.666   7.098   5.079 -0.4350 -0.0743  0.0199
 9099SOL    HW132847   9.649   7.075   4.983  0.5325 -0.0581 -0.1592
 9099SOL    HW232848   9.646   7.195   5.095 -2.0037 -0.4107  0.1774
 9100SOL     OW32849   1.024   3.194   5.062  0.4414 -0.0659 -0.8334
 9100SOL    HW132850   1.111   3.244   5.062  0.0423  0.6452  0.4380
 9100SOL    HW232851   0.958   3.242   5.005  0.7869 -0.4675 -1.5881
 9101SOL     OW32852   9.149   6.826   1.654  0.9114 -0.0202  0.0922
 9101SOL    HW132853   9.232   6.772   1.663  1.4226  1.0615  2.1595
 9101SOL    HW232854   9.085   6.801   1.727 -0.3370 -0.3726 -1.0868
 9102SOL     OW32855   5.225   3.602   0.796 -0.6457  0.1934 -0.7981
 9102SOL    HW132856   5.161   3.656   0.743 -2.4550 -0.0652  1.0670
 9102SOL    HW232857   5.192   3.508   0.804  0.3126 -0.1209 -0.4052
 9103SOL     OW32858   0.170   7.709   3.791  0.2504  0.4858 -0.5874
 9103SOL    HW132859   0.088   7.720   3.733 -1.1337 -1.6806  0.9163
 9103SOL    HW232860   0.143   7.711   3.887  1.7555 -1.7255 -0.0883
 9104SOL     OW32861   6.518   2.446   3.513 -0.2098  0.2935  0.2205
 9104SOL    HW132862   6.509   2.507   3.434  1.0096  0.0067 -0.1510
 9104SOL    HW232863   6.604   2.396   3.507  0.2737  0.8538  2.1526
 9105SOL     OW32864   2.149   4.080   0.664  0.3041  0.4472 -0.3501
 9105SOL    HW132865   2.210   4.040   0.733  0.0365  0.9291  0.1724
 9105SOL    HW232866   2.185   4.169   0.635  0.6298  0.0628 -1.1354
 9106SOL     OW32867   0.446   7.033   1.147  0.2350 -0.0426  0.2342
 9106SOL    HW132868   0.525   6.971   1.149 -0.4612 -0.9620  0.0190
 9106SOL    HW232869   0.370   6.990   1.195  0.6049  1.9092  2.6318
 9109SOL     OW32870   0.231   0.647   4.784  0.1076  0.1889  0.6793
 9109SOL    HW132871   0.280   0.732   4.802 -1.2423  0.8467  1.3043
 9109SOL    HW232872   0.251   0.581   4.856  0.0567  0.4583  0.9401
 9110SOL     OW32873   5.133   7.726   3.837  0.9094 -0.0777 -0.6538
 9110SOL    HW132874   5.163   7.631   3.826  1.4985  0.2445 -1.9001
 9110SOL    HW232875   5.193   7.772   3.903  0.0491 -0.8147  0.6682
 9111SOL     OW32876   9.861   3.503   1.791  0.2299 -0.2086  0.5652
 9111SOL    HW132877   9.817   3.585   1.827 -1.4946 -0.1846 -1.5462
 9111SOL    HW232878   9.793   3.432   1.776  1.3715 -1.2407  0.1938
 9112SOL     OW32879   2.341   1.476   2.819  0.3524  0.2437 -0.0726
 9112SOL    HW132880   2.289   1.544   2.767  1.1740  0.7470 -0.2382
 9112SOL    HW232881   2.405   1.430   2.758  1.8317  1.3367  0.6323
 9113SOL     OW32882   0.637   3.172   4.579 -0.3196  0.3717  0.0004
 9113SOL    HW132883   0.581   3.123   4.645  1.0459  0.3249  1.1517
 9113SOL    HW232884   0.590   3.174   4.490 -1.9503  0.0387  0.8400
 9114SOL     OW32885   5.075   6.720   2.113 -0.4118  0.4715 -0.0241
 9114SOL    HW132886   5.002   6.745   2.050 -0.4141  0.4299 -0.0381
 9114SOL    HW232887   5.037   6.708   2.205 -0.7142 -1.1989 -0.3523
 9115SOL     OW32888   9.107   9.346   0.998 -0.2207  0.5356  0.3701
 9115SOL    HW132889   9.179   9.288   0.959 -0.4935  1.3111 -1.3142
 9115SOL    HW232890   9.018   9.317   0.963 -0.7445 -0.3609  2.3746
 9117SOL     OW32891   1.077   4.873   1.169 -0.0296  0.0320  0.7522
 9117SOL    HW132892   1.135   4.857   1.089 -1.6712  2.7227 -1.0890
 9117SOL    HW232893   1.011   4.798   1.178 -0.3775  0.1081 -0.9448
 9118SOL     OW32894   4.160   7.711   4.119 -0.0276  0.0705 -0.6645
 9118SOL    HW132895   4.182   7.617   4.090  0.3816  0.3023 -1.1169
 9118SOL    HW232896   4.243   7.767   4.115  0.0161  0.1235  0.9022
 9119SOL     OW32897   0.457   7.704   0.173  0.1681 -0.3153 -0.4968
 9119SOL    HW132898   0.490   7.797   0.157 -1.0964  0.0406 -1.1142
 9119SOL    HW232899   0.427   7.696   0.269 -0.5561  0.1907 -0.6723
 9120SOL     OW32900   3.598   5.355   1.680 -0.1329  0.3337  0.8672
 9120SOL    HW132901   3.648   5.292   1.620  1.8101  0.8124  1.9730
 9120SOL    HW232902   3.519   5.307   1.719  1.5029 -1.5638  1.9749
 9121SOL     OW32903   8.855   6.267   2.316 -0.2527 -0.3921 -0.1535
 9121SOL    HW132904   8.936   6.289   2.370  0.1087 -1.3532 -0.2942
 9121SOL    HW232905   8.775   6.311   2.357  0.2226 -0.0340  0.3994
 9122SOL     OW32906   5.648   4.324   0.800 -0.1715  0.3736  0.3783
 9122SOL    HW132907   5.594   4.241   0.786 -1.1178  0.7601  1.6587
 9122SOL    HW232908   5.590   4.404   0.789  0.1490  0.7945  1.6579
 9123SOL     OW32909   8.637   2.995   0.727  0.0938 -0.0753  0.6084
 9123SOL    HW132910   8.680   2.993   0.817 -1.9253 -0.2921  1.5947
 9123SOL    HW232911   8.617   2.901   0.697 -0.8478  0.0677  0.7531
 9124SOL     OW32912   1.413   5.599   3.899 -0.2211 -0.1969 -0.2202
 9124SOL    HW132913   1.433   5.683   3.849 -1.7077  0.8203  0.8166
 9124SOL    HW232914   1.354   5.540   3.844  0.5930 -0.4388 -0.8371
 9125SOL     OW32915   0.141   1.083   2.820 -0.5667 -0.5155 -0.2889
 9125SOL    HW132916   0.055   1.128   2.796  0.5325  0.2516 -2.8407
 9125SOL    HW232917   0.205   1.149   2.858 -0.8231 -0.9552  0.9435
 9126SOL     OW32918   2.055   2.792   3.282 -0.4414 -0.2323  0.3870
 9126SOL    HW132919   1.957   2.809   3.275 -0.1359  1.4935  0.2485
 9126SOL    HW232920   2.091   2.770   3.191 -0.4814  0.3083  0.2410
 9127SOL     OW32921   9.115   0.007   0.746  0.1709 -0.1326  0.1496
 9127SOL    HW132922   9.063   0.008   0.660  1.0453 -1.0754 -0.3985
 9127SOL    HW232923   9.052   0.000   0.823 -0.6642  1.3190 -0.3773
 9128SOL     OW32924   8.497   6.142   1.602 -0.2024 -0.0865  0.6050
 9128SOL    HW132925   8.528   6.073   1.536  0.7938  1.0701 -0.1415
 9128SOL    HW232926   8.462   6.222   1.554 -0.4519  0.3386  1.4751
 9129SOL     OW32927   7.498   2.323   4.308  0.2054 -0.0517  0.4794
 9129SOL    HW132928   7.487   2.415   4.344  0.0315  0.3416 -0.5616
 9129SOL    HW232929   7.522   2.327   4.211  0.1691 -1.1008  0.4135
 9130SOL     OW32930   2.761   0.170   4.976 -0.5287 -0.4686 -0.3317
 9130SOL    HW132931   2.787   0.258   5.016 -0.5946 -0.8796  0.6257
 9130SOL    HW232932   2.786   0.169   4.879 -0.6724  0.6617 -0.3861
 9131SOL     OW32933   3.224   2.771   0.285  0.0236  0.1324  0.1630
 9131SOL    HW132934   3.266   2.841   0.228  0.6008  0.5970  1.1505
 9131SOL    HW232935   3.152   2.811   0.340  1.6398  0.3635  2.1510
 9132SOL     OW32936   4.181   1.656   3.089  0.0880 -0.0484  0.2114
 9132SOL    HW132937   4.275   1.650   3.054 -0.5598  1.3268 -1.9057
 9132SOL    HW232938   4.153   1.568   3.126  0.8676 -1.6372 -2.7773
 9133SOL     OW32939   1.573   5.107   4.365  0.3325 -0.7298  0.1323
 9133SOL    HW132940   1.637   5.158   4.423 -0.8706 -1.2705  1.9659
 9133SOL    HW232941   1.527   5.037   4.419 -0.6845 -1.3783 -1.5285
 9134SOL     OW32942   9.609   1.599   4.126 -0.3019  0.5364  0.2522
 9134SOL    HW132943   9.605   1.695   4.153 -2.6267  0.5346  0.0177
 9134SOL    HW232944   9.579   1.542   4.202  0.0738  0.0711  0.0506
 9135SOL     OW32945   0.621   9.961   3.711 -0.1099  0.0923  0.0986
 9135SOL    HW132946   0.699  10.020   3.693  0.8079 -0.6922  1.4015
 9135SOL    HW232947   0.537  10.015   3.707  0.3075  0.6144 -2.9999
 9136SOL     OW32948   6.265   0.134   3.414  0.7337  0.1392  0.2427
 9136SOL    HW132949   6.189   0.152   3.352  1.3834 -0.4092 -0.7448
 9136SOL    HW232950   6.331   0.210   3.407  1.5706 -0.6773 -0.9506
 9137SOL     OW32951   1.055   5.118   0.691 -0.0444 -0.5248  0.0313
 9137SOL    HW132952   1.041   5.033   0.642  1.1006  1.0557 -3.1494
 9137SOL    HW232953   1.150   5.147   0.683 -0.5417  1.3568  0.5166
 9138SOL     OW32954   1.813   1.831   0.528 -0.3930  0.1526 -0.3667
 9138SOL    HW132955   1.750   1.816   0.452 -0.8807 -0.0979  0.0857
 9138SOL    HW232956   1.869   1.749   0.542 -1.1890 -0.2610  0.3698
 9139SOL     OW32957   9.252   0.943   3.724 -0.1210  0.0561  0.1721
 9139SOL    HW132958   9.268   0.999   3.642 -0.8626  0.9191  0.6211
 9139SOL    HW232959   9.200   0.995   3.791  1.1847 -0.3580  1.5446
 9140SOL     OW32960   7.848   2.385   1.989  0.0654 -0.3483 -0.0816
 9140SOL    HW132961   7.810   2.408   2.079 -1.6492 -0.6486 -0.7171
 9140SOL    HW232962   7.920   2.450   1.966 -2.0953  2.1044 -0.1461
 9141SOL     OW32963   3.721   6.546   1.739  0.0645  0.3071 -0.6525
 9141SOL    HW132964   3.809   6.514   1.703  0.5510  2.5051 -1.4787
 9141SOL    HW232965   3.691   6.626   1.688 -1.4147  0.8416  1.0076
 9142SOL     OW32966   6.011   4.130   0.549  0.0786 -0.3728 -0.6815
 9142SOL    HW132967   6.079   4.080   0.603 -0.6083  0.1565  0.7260
 9142SOL    HW232968   5.924   4.079   0.550 -0.7631  1.0226  1.1607
 9143SOL     OW32969   7.148   2.207   5.215 -0.2424  0.4698 -0.4496
 9143SOL    HW132970   7.057   2.247   5.206 -1.3796 -1.6628  1.2665
 9143SOL    HW232971   7.150   2.117   5.173 -0.3385 -1.5441  3.6104
 9144SOL     OW32972   7.879   3.133   1.296 -0.1584 -0.1758  0.5108
 9144SOL    HW132973   7.786   3.101   1.312 -0.4805  1.5958  2.3537
 9144SOL    HW232974   7.930   3.132   1.382  0.3902  2.3792  0.2491
 9146SOL     OW32975   0.579   4.231   1.359 -0.3647 -0.8978  0.2879
 9146SOL    HW132976   0.625   4.180   1.431 -0.1588  0.1908  0.9390
 9146SOL    HW232977   0.544   4.317   1.396  0.5365  0.1025 -1.0982
 9148SOL     OW32978   4.958   1.779   0.806  0.4645 -0.1400 -0.2056
 9148SOL    HW132979   4.955   1.879   0.807 -0.7375 -0.1649  0.6344
 9148SOL    HW232980   4.869   1.743   0.836  0.8433 -1.4611 -0.6239
 9149SOL     OW32981   0.145   4.204   4.404  0.7056  0.5156  0.5151
 9149SOL    HW132982   0.242   4.189   4.425  0.7133 -0.2128 -0.0170
 9149SOL    HW232983   0.134   4.215   4.305 -0.1175 -2.4112  0.2324
 9151SOL     OW32984   7.223   4.665   1.131 -0.2634 -0.1188  0.0197
 9151SOL    HW132985   7.220   4.679   1.032  2.3580  0.6374 -0.0033
 9151SOL    HW232986   7.264   4.746   1.175 -0.4499 -0.8639  1.6063
 9152SOL     OW32987   1.863   6.907   4.909 -0.0368 -0.6977  0.0642
 9152SOL    HW132988   1.935   6.908   4.840  1.2004 -0.9063  1.3199
 9152SOL    HW232989   1.870   6.989   4.966  1.0119 -2.0878  1.9925
 9153SOL     OW32990   7.367   0.667   2.004 -0.1030  0.3026  0.4020
 9153SOL    HW132991   7.274   0.686   1.972 -0.3897  1.0907  1.6483
 9153SOL    HW232992   7.366   0.589   2.067  0.3036 -0.5985 -0.6966
 9154SOL     OW32993   9.671   0.558   0.791 -0.8092 -0.6213 -0.5739
 9154SOL    HW132994   9.597   0.503   0.829  0.6112 -1.7487  0.5909
 9154SOL    HW232995   9.702   0.516   0.705 -0.0268 -1.4140  0.0856
 9155SOL     OW32996   9.240   9.590   0.385 -0.1229 -0.2038 -0.0567
 9155SOL    HW132997   9.171   9.558   0.320  1.1978 -0.3680 -1.3918
 9155SOL    HW232998   9.282   9.512   0.430  1.6697 -0.2909 -1.8336
 9157SOL     OW32999   2.724   0.291   2.120 -0.5459 -0.0267 -0.1858
 9157SOL    HW133000   2.691   0.199   2.137 -0.4137 -0.1790 -0.7262
 9157SOL    HW233001   2.648   0.355   2.124 -0.6533 -0.1732  0.0945
 9158SOL     OW33002   7.477   2.987   4.769  0.4821  0.4308  0.0161
 9158SOL    HW133003   7.487   2.939   4.683 -1.9949  0.3944 -0.2830
 9158SOL    HW233004   7.562   3.037   4.789  2.4292 -2.5266 -0.5424
 9159SOL     OW33005   0.597   9.520   3.908 -0.0040 -0.1800  0.3140
 9159SOL    HW133006   0.590   9.505   4.007  0.0389  0.4227  0.4083
 9159SOL    HW233007   0.560   9.441   3.860 -1.4997  0.1979  0.8157
 9160SOL     OW33008   2.415   2.262   5.061 -0.4365  0.1365  0.1072
 9160SOL    HW133009   2.472   2.213   5.127  0.4663  0.2851 -0.5524
 9160SOL    HW233010   2.474   2.311   4.996 -1.2865 -1.1082 -1.6467
 9161SOL     OW33011   2.329   2.978   4.116 -0.0720  0.9388 -0.3676
 9161SOL    HW133012   2.401   2.910   4.101 -0.0473  1.1670 -1.2916
 9161SOL    HW233013   2.241   2.941   4.089  0.2002  1.9309 -2.6712
 9162SOL     OW33014   3.130   7.952   3.744 -0.3406  0.2554  0.4513
 9162SOL    HW133015   3.230   7.945   3.748 -0.4045  0.3805  2.7847
 9162SOL    HW233016   3.104   8.014   3.670  1.3821  1.8077  1.1157
 9164SOL     OW33017   1.585   5.358   3.980  0.3914 -0.8045 -0.5271
 9164SOL    HW133018   1.656   5.326   3.918  0.2075  0.0072 -1.1675
 9164SOL    HW233019   1.508   5.393   3.927  0.2140 -0.1359  0.1574
 9165SOL     OW33020   4.622   3.505   3.603 -0.2060  0.3937  0.7603
 9165SOL    HW133021   4.604   3.578   3.536 -0.1420  0.1183  0.4393
 9165SOL    HW233022   4.541   3.446   3.610  0.9378 -1.5575 -1.5800
 9166SOL     OW33023   3.419   0.610   1.996  0.0307  0.6551 -0.8073
 9166SOL    HW133024   3.346   0.541   1.995  0.9429 -0.3780  1.2585
 9166SOL    HW233025   3.400   0.676   2.069  1.6997 -0.2270  0.4387
 9167SOL     OW33026   0.856   0.058   4.609  0.0647  0.0030  0.1358
 9167SOL    HW133027   0.865   0.100   4.519  0.3688 -0.8959 -0.2503
 9167SOL    HW233028   0.843   0.130   4.677  1.9266  0.8449 -0.3445
 9170SOL     OW33029   0.657   8.765   2.671  0.6758 -0.2449  0.2264
 9170SOL    HW133030   0.565   8.781   2.635  0.5753 -0.6984  0.2764
 9170SOL    HW233031   0.702   8.852   2.689 -0.1175 -0.0216  1.1351
 9171SOL     OW33032   1.418   0.815   2.102  0.6418 -0.3278  0.3140
 9171SOL    HW133033   1.397   0.850   2.011 -1.1918  1.3923  1.3392
 9171SOL    HW233034   1.448   0.890   2.161  0.3839 -1.1545  1.5240
 9172SOL     OW33035   9.147   8.000   4.747 -0.0172 -0.1581  0.3944
 9172SOL    HW133036   9.106   8.088   4.770  1.0437  0.8941 -1.5291
 9172SOL    HW233037   9.240   8.015   4.712  1.0185 -2.2463  2.1450
 9175SOL     OW33038   0.121   7.930   3.995  0.4285  0.0875 -0.3208
 9175SOL    HW133039   0.198   7.932   3.933  1.2666  0.5839  0.7129
 9175SOL    HW233040   0.044   7.980   3.955  1.1879  1.0054 -0.6511
 9176SOL     OW33041   8.307   0.980   3.820  0.0522  0.0623 -0.1590
 9176SOL    HW133042   8.315   1.080   3.825 -0.9052  0.1245  0.1916
 9176SOL    HW233043   8.300   0.951   3.725  1.0888  0.2675 -0.3019
 9177SOL     OW33044   2.084   3.552   2.717  0.1337 -0.0209  0.3640
 9177SOL    HW133045   2.034   3.469   2.693 -0.2632 -0.2256  1.8602
 9177SOL    HW233046   2.022   3.630   2.714  0.5167  0.2498 -1.0831
 9178SOL     OW33047   2.205   5.918   0.055  0.0513  0.2185  0.3684
 9178SOL    HW133048   2.163   6.009   0.052  0.9911  0.6820  1.1013
 9178SOL    HW233049   2.280   5.914  -0.010 -0.5739 -0.3330 -0.3202
 9179SOL     OW33050   2.581   6.784   0.890 -0.4354 -1.2758  0.1658
 9179SOL    HW133051   2.681   6.788   0.881 -0.7231 -0.4659 -3.3798
 9179SOL    HW233052   2.545   6.711   0.832 -2.2854  1.8723 -2.8184
 9180SOL     OW33053   0.896   2.285   1.570 -0.1933 -0.0524  0.3536
 9180SOL    HW133054   0.803   2.317   1.552  0.1302  0.6251 -0.1487
 9180SOL    HW233055   0.903   2.254   1.664 -0.9417 -0.1504  0.3806
 9181SOL     OW33056   7.297   3.608   0.406 -0.0355 -0.2617 -0.3081
 9181SOL    HW133057   7.317   3.672   0.332  1.6711 -0.2349  0.1474
 9181SOL    HW233058   7.234   3.537   0.374 -1.1719  1.0905 -1.0914
 9182SOL     OW33059   4.115   1.453   2.045 -0.1336  0.4665 -0.1155
 9182SOL    HW133060   4.152   1.490   2.131 -0.9208 -0.5341  0.6607
 9182SOL    HW233061   4.179   1.472   1.971  0.7404  0.9945  0.7573
 9183SOL     OW33062   0.316   3.453   3.538  0.0979 -0.0500 -0.0111
 9183SOL    HW133063   0.253   3.522   3.574 -1.0898 -1.6102  0.9618
 9183SOL    HW233064   0.295   3.436   3.442 -1.7389 -1.3661  0.5969
 9184SOL     OW33065   3.378   7.212   3.448 -0.8130 -0.0815 -0.4361
 9184SOL    HW133066   3.364   7.266   3.531 -2.8023 -0.7661 -0.3046
 9184SOL    HW233067   3.432   7.265   3.383 -0.2067  0.9057  0.8359
 9186SOL     OW33068   0.761   8.626   5.275 -0.6627 -0.1493  0.8017
 9186SOL    HW133069   0.839   8.624   5.337  0.2950  0.5776 -0.3410
 9186SOL    HW233070   0.676   8.624   5.327  0.1255  0.2986  2.1214
 9187SOL     OW33071   0.464   1.495   2.773  0.2843 -0.4696 -0.2707
 9187SOL    HW133072   0.455   1.554   2.693  0.0069  1.7355  1.3327
 9187SOL    HW233073   0.524   1.540   2.841 -0.6210 -1.6316  1.3216
 9189SOL     OW33074   7.656   2.760   1.168  0.0243  0.3192  0.3097
 9189SOL    HW133075   7.711   2.695   1.220 -0.7486 -0.8449 -0.2949
 9189SOL    HW233076   7.600   2.710   1.101 -1.1139  1.5441  0.3243
 9190SOL     OW33077   0.675   0.058   2.384  0.4147  0.1215 -0.3167
 9190SOL    HW133078   0.689   0.157   2.391  0.6647  0.1393 -1.0061
 9190SOL    HW233079   0.602   0.039   2.319 -1.7433 -0.0448  2.0980
 9193SOL     OW33080   7.175   1.438   0.731  0.5780  0.8232  0.4879
 9193SOL    HW133081   7.149   1.535   0.726  2.2774  1.3286  1.3472
 9193SOL    HW233082   7.259   1.428   0.782 -1.0835 -1.4355  2.9095
 9194SOL     OW33083   1.792   2.842   0.384  0.0239  0.1586 -0.4965
 9194SOL    HW133084   1.787   2.873   0.479 -2.6930 -1.8875  0.1083
 9194SOL    HW233085   1.836   2.911   0.328 -0.0206  2.2128  1.9261
 9197SOL     OW33086   9.210   7.219   3.688  0.6434 -0.7241 -0.7375
 9197SOL    HW133087   9.187   7.208   3.591  1.2629 -2.3920 -0.7096
 9197SOL    HW233088   9.173   7.142   3.740 -2.3677  1.6797  0.8741
 9198SOL     OW33089   0.651   6.563   1.002  0.2868 -0.2457  0.1333
 9198SOL    HW133090   0.561   6.602   1.020 -0.2309 -1.3678 -0.0381
 9198SOL    HW233091   0.686   6.598   0.915 -0.6514 -1.0092 -0.5557
 9199SOL     OW33092   4.920   8.280   4.422  0.0305 -0.5032  0.1837
 9199SOL    HW133093   4.843   8.336   4.392  0.0809 -0.1155  0.7589
 9199SOL    HW233094   4.889   8.187   4.440 -0.2326 -0.4366  0.0706
 9200SOL     OW33095   5.129   1.006   0.260 -0.2886 -0.5337  0.5086
 9200SOL    HW133096   5.121   1.084   0.323  1.1899 -0.7816  1.0248
 9200SOL    HW233097   5.142   0.922   0.313 -1.2530 -1.0503 -0.0665
 9201SOL     OW33098   7.140   9.773   2.031  0.5224  0.1673  0.2330
 9201SOL    HW133099   7.191   9.709   2.088  0.2025 -0.7469 -0.4984
 9201SOL    HW233100   7.201   9.846   2.001  0.4871  1.1313  2.4386
 9202SOL     OW33101   0.990   3.314   1.675 -0.0651 -0.4056  0.5330
 9202SOL    HW133102   0.974   3.301   1.577  0.9682  1.1310  0.1475
 9202SOL    HW233103   1.039   3.235   1.712  1.4814 -0.0348 -0.6693
 9203SOL     OW33104   0.079   0.885   4.391 -0.0802 -0.2112  0.2607
 9203SOL    HW133105   0.160   0.882   4.332 -0.5692 -0.0302 -0.4249
 9203SOL    HW233106   0.033   0.796   4.389 -0.5181  0.0200 -0.2341
 9204SOL     OW33107   1.163   0.236   4.506 -0.4924 -0.5784 -0.8685
 9204SOL    HW133108   1.199   0.174   4.437  0.4641 -0.4571 -0.4832
 9204SOL    HW233109   1.070   0.209   4.530 -0.1357 -1.7789 -0.8176
 9205SOL     OW33110   1.276   2.504   4.955  0.3353  0.5533 -0.2494
 9205SOL    HW133111   1.263   2.545   5.046  1.4876 -0.6585  0.4745
 9205SOL    HW233112   1.207   2.434   4.940  0.6414  0.1966  0.0148
 9206SOL     OW33113   9.267   3.369   3.447 -0.4234  0.5393  0.6703
 9206SOL    HW133114   9.341   3.415   3.496  0.9283 -0.8396 -0.0372
 9206SOL    HW233115   9.258   3.408   3.355 -1.6629  1.7969  1.3079
 9208SOL     OW33116   3.509   6.125   1.014 -0.0008 -0.1113  0.1831
 9208SOL    HW133117   3.505   6.027   0.993 -1.9508  0.1552 -0.8085
 9208SOL    HW233118   3.432   6.149   1.074 -0.3479  1.0639 -0.7221
 9209SOL     OW33119   0.448   7.369   3.734 -0.0626 -0.2577  0.2234
 9209SOL    HW133120   0.366   7.312   3.733 -0.9165  0.9319  0.8424
 9209SOL    HW233121   0.478   7.386   3.641 -1.8095  1.0996 -0.1105
 9212SOL     OW33122   2.376   4.475   0.925  0.8437  0.1671  0.3085
 9212SOL    HW133123   2.368   4.555   0.983  1.6839  0.0463  0.6011
 9212SOL    HW233124   2.459   4.423   0.950  0.3925 -0.7054  0.0295
 9213SOL     OW33125   8.765   2.991   0.327 -0.4428 -0.4667 -0.1502
 9213SOL    HW133126   8.729   3.057   0.261 -1.2132  1.4677  2.1259
 9213SOL    HW233127   8.811   3.039   0.401  0.3619 -2.5914  0.7794
 9214SOL     OW33128   1.364   6.040   4.312 -0.2294  0.4208  0.2549
 9214SOL    HW133129   1.422   5.977   4.261 -0.1826  0.5533  0.1478
 9214SOL    HW233130   1.317   5.989   4.385  0.1224  0.3393  0.4292
 9216SOL     OW33131   4.203   9.900   5.083  0.2674 -0.9055  0.4743
 9216SOL    HW133132   4.192   9.817   5.138 -2.1843  1.3532  3.5528
 9216SOL    HW233133   4.232   9.975   5.142  3.4926  0.3126 -2.4354
 9217SOL     OW33134   5.278   8.260   5.294 -0.2004  0.3052 -0.0264
 9217SOL    HW133135   5.180   8.268   5.279  0.0069 -0.9156 -2.2723
 9217SOL    HW233136   5.325   8.250   5.206  1.8073 -0.3521  1.0754
 9218SOL     OW33137   5.911   7.883   4.918 -0.3907  0.3763 -0.1254
 9218SOL    HW133138   5.914   7.983   4.926  0.6153  0.3234  0.3303
 9218SOL    HW233139   5.846   7.846   4.984  0.7648  0.6061  1.1785
 9219SOL     OW33140   0.712   0.905   2.761 -0.1601  0.3205  0.3757
 9219SOL    HW133141   0.718   0.873   2.666  0.5933  0.0744  0.4959
 9219SOL    HW233142   0.665   0.993   2.764  1.0283  1.0136 -0.3996
 9220SOL     OW33143   3.982   5.569   5.238  0.1465  0.4311  0.2531
 9220SOL    HW133144   4.061   5.519   5.275 -0.5772 -0.3455  0.7689
 9220SOL    HW233145   3.960   5.534   5.147  2.1943  2.6327 -1.1481
 9221SOL     OW33146   0.134   8.691   1.328  0.8878  0.1207 -0.5025
 9221SOL    HW133147   0.074   8.717   1.403 -1.5163 -0.6304 -2.0842
 9221SOL    HW233148   0.185   8.609   1.354  0.0349 -0.1732  0.3065
 9222SOL     OW33149   5.137   1.591   0.253 -0.0236 -0.5168  0.0168
 9222SOL    HW133150   5.135   1.524   0.179 -0.8191 -0.5782  0.0929
 9222SOL    HW233151   5.221   1.579   0.306  1.3422  0.5929 -1.8387
 9223SOL     OW33152   6.674   7.840   2.501  0.2176 -0.1814 -0.3406
 9223SOL    HW133153   6.705   7.874   2.590 -0.4242  1.0731 -0.5808
 9223SOL    HW233154   6.708   7.747   2.487  1.2945  0.0421  0.7065
 9224SOL     OW33155   7.021   2.033   1.067 -0.1648 -0.3495  0.4152
 9224SOL    HW133156   7.007   2.054   1.163  3.1127  1.0773  0.6571
 9224SOL    HW233157   7.111   1.991   1.055 -0.7713 -1.0587 -1.9504
 9225SOL     OW33158   4.915   9.716   3.338  1.0100 -0.3395 -0.1929
 9225SOL    HW133159   4.907   9.643   3.406  0.7551 -1.2732 -1.2121
 9225SOL    HW233160   4.991   9.696   3.276  1.5465  0.7484  0.1036
 9226SOL     OW33161   5.895   1.172   2.550 -0.0705  0.1498  0.1994
 9226SOL    HW133162   5.862   1.083   2.518  0.5718  0.0275 -0.1194
 9226SOL    HW233163   5.919   1.166   2.647 -0.3302  0.0656  0.2611
 9228SOL     OW33164   4.323   0.235   0.272 -0.4667 -0.3757  0.6786
 9228SOL    HW133165   4.293   0.311   0.329  0.0929  0.8189 -0.6026
 9228SOL    HW233166   4.309   0.258   0.176 -2.3422 -2.7482  0.3233
 9229SOL     OW33167   0.968   4.408   0.304 -0.0982  0.0030  0.3309
 9229SOL    HW133168   0.899   4.462   0.256 -0.1028 -0.3449 -0.0511
 9229SOL    HW233169   0.944   4.401   0.401  0.4578  1.6100  0.6006
 9230SOL     OW33170   0.698   1.147   4.995  0.1654 -0.0296 -0.0809
 9230SOL    HW133171   0.645   1.205   4.933  2.7240  0.8773 -1.4946
 9230SOL    HW233172   0.744   1.075   4.942  2.7275  1.0168  0.6353
 9232SOL     OW33173   0.531   1.457   3.683 -0.0907  0.3463  0.3146
 9232SOL    HW133174   0.501   1.447   3.778 -1.4643 -2.1042 -0.3250
 9232SOL    HW233175   0.618   1.409   3.670 -0.5603 -0.4453  0.0505
 9235SOL     OW33176   2.760   8.015   3.369 -0.3262  0.2076  0.0281
 9235SOL    HW133177   2.673   8.060   3.391  0.2085  0.6942  1.1684
 9235SOL    HW233178   2.742   7.930   3.318 -1.5558 -0.5092  1.6104
 9236SOL     OW33179   1.570   2.105   1.955  0.2556  0.2670  0.3953
 9236SOL    HW133180   1.517   2.190   1.950  1.0052  0.7573  0.6435
 9236SOL    HW233181   1.579   2.066   1.864  0.9615  1.1248  0.0851
 9237SOL     OW33182   4.119   5.587   3.345 -0.2078 -0.5497 -0.1354
 9237SOL    HW133183   4.069   5.646   3.282  0.9352  1.5678  0.8991
 9237SOL    HW233184   4.213   5.618   3.353  0.1140 -1.8167  1.3253
 9238SOL     OW33185   4.264   0.443   0.465  0.3864  0.1781  0.4931
 9238SOL    HW133186   4.185   0.477   0.516  1.5817 -0.2483  2.7033
 9238SOL    HW233187   4.330   0.517   0.453 -0.5198  0.6495 -1.7451
 9240SOL     OW33188   2.286   6.301   0.194  0.3706 -0.1853  0.4629
 9240SOL    HW133189   2.274   6.397   0.221 -3.0674 -0.4822  0.1951
 9240SOL    HW233190   2.314   6.247   0.273 -1.0137  0.4849  1.4363
 9241SOL     OW33191   0.864   9.488   0.300 -0.8213  0.0991 -0.0329
 9241SOL    HW133192   0.819   9.447   0.380  0.1258 -0.8137  0.0384
 9241SOL    HW233193   0.894   9.416   0.237  0.1913  0.7069 -0.2643
 9242SOL     OW33194   3.565   7.672   0.469  0.1348  0.3935 -0.0872
 9242SOL    HW133195   3.629   7.669   0.393  0.1309 -2.3642 -0.0292
 9242SOL    HW233196   3.476   7.638   0.439 -0.7244  2.1258  0.3978
 9243SOL     OW33197   6.982   2.844   3.031 -0.3950 -0.3128 -0.1292
 9243SOL    HW133198   7.055   2.788   2.995 -0.0152  0.1657 -0.1123
 9243SOL    HW233199   6.897   2.792   3.033 -0.2709 -0.5542 -1.0671
 9245SOL     OW33200   3.419   4.155   3.007 -0.1673  0.1581  0.2640
 9245SOL    HW133201   3.417   4.065   3.050 -0.4927  0.7016  1.4398
 9245SOL    HW233202   3.337   4.206   3.034  0.3498  1.0493  0.1852
 9246SOL     OW33203   8.987   6.173   1.736 -0.4913  0.0425  0.8948
 9246SOL    HW133204   9.034   6.261   1.730  1.4553 -1.0073  0.3966
 9246SOL    HW233205   9.039   6.110   1.794 -2.0618 -0.6896  1.5768
 9247SOL     OW33206   5.101   0.681   1.875 -0.3404  0.3276  0.1149
 9247SOL    HW133207   5.075   0.674   1.778 -0.1475 -0.7918  0.1338
 9247SOL    HW233208   5.083   0.773   1.908 -0.6610  0.6430 -0.9208
 9249SOL     OW33209   2.262   6.181   0.864 -0.5268 -0.1900  0.1833
 9249SOL    HW133210   2.199   6.129   0.806 -0.8695  1.7169 -1.2264
 9249SOL    HW233211   2.209   6.235   0.930 -0.3278  0.6896 -0.3728
 9250SOL     OW33212   3.049   9.762   1.187  0.4754  0.6248  0.1807
 9250SOL    HW133213   2.985   9.754   1.262  0.4386 -0.2922  0.0552
 9250SOL    HW233214   2.999   9.763   1.100  0.7347 -2.4447 -0.0537
 9251SOL     OW33215   2.974   1.355   3.896  0.5347  0.6277  0.1734
 9251SOL    HW133216   2.897   1.318   3.947  1.5127 -2.1963 -0.2809
 9251SOL    HW233217   3.057   1.303   3.919  1.6912  1.6737 -1.5452
 9252SOL     OW33218   7.644   5.424   5.124  0.5533  0.4472  0.1117
 9252SOL    HW133219   7.718   5.384   5.069  0.4954  1.1718 -0.4941
 9252SOL    HW233220   7.662   5.406   5.221 -0.0760 -2.0739 -0.2091
 9254SOL     OW33221   5.336   7.658   4.622 -0.7645  0.2282  0.2730
 9254SOL    HW133222   5.368   7.753   4.622 -1.1404  0.3562  0.4261
 9254SOL    HW233223   5.409   7.598   4.657 -0.9585  0.6137  1.3742
 9255SOL     OW33224   8.714   8.081   4.868 -0.2199 -0.2128  0.5438
 9255SOL    HW133225   8.642   8.120   4.811  0.4607  1.2232  0.6335
 9255SOL    HW233226   8.692   7.986   4.890 -0.3292 -0.9039 -2.3913
 9256SOL     OW33227   8.986   4.070   3.452 -0.3359  0.0203 -0.1327
 9256SOL    HW133228   8.905   4.087   3.509  0.5571 -0.3711  1.2908
 9256SOL    HW233229   8.971   4.107   3.361 -2.1345 -0.0729  0.1014
 9257SOL     OW33230   5.267   2.279   5.034 -0.2333  0.9033  0.0147
 9257SOL    HW133231   5.342   2.221   5.001 -0.6058  0.3217  0.1917
 9257SOL    HW233232   5.297   2.326   5.117  0.1496  1.1386 -0.2551
 9258SOL     OW33233   8.805   3.142   0.908 -0.4033  0.8547  0.3078
 9258SOL    HW133234   8.772   3.098   0.992  0.1449  1.0890  0.6406
 9258SOL    HW233235   8.899   3.115   0.891 -0.2913  1.3539  0.1345
 9259SOL     OW33236   0.041   8.378   4.947  0.3890 -0.1324  0.2298
 9259SOL    HW133237   0.030   8.477   4.956  0.9924 -0.2388  2.5559
 9259SOL    HW233238   0.086   8.357   4.860  2.6318  1.8382  0.8695
 9260SOL     OW33239   0.348   1.385   0.338 -0.3225  0.0265  0.7951
 9260SOL    HW133240   0.363   1.481   0.315 -0.3809  0.1749  1.3681
 9260SOL    HW233241   0.424   1.330   0.302 -1.1406  0.0414 -1.0300
 9261SOL     OW33242   1.919   2.835   4.493 -0.3724 -0.1567 -0.0504
 9261SOL    HW133243   1.968   2.917   4.464 -0.8226 -0.1312 -0.7618
 9261SOL    HW233244   1.910   2.834   4.593 -0.6959  0.8477 -0.0699
 9263SOL     OW33245   8.188   4.590   0.820 -0.3842 -0.1441 -0.6859
 9263SOL    HW133246   8.206   4.589   0.722  0.0205  0.4602 -0.6205
 9263SOL    HW233247   8.141   4.675   0.845 -1.7269 -0.9022 -0.5657
 9265SOL     OW33248   8.781   1.497   2.897 -0.0076  0.2721  0.4169
 9265SOL    HW133249   8.820   1.405   2.896  1.3982  0.8668 -0.0701
 9265SOL    HW233250   8.744   1.518   2.807 -0.1372  0.2798  0.4708
 9266SOL     OW33251   4.415   3.663   4.792 -0.1923 -0.1317  0.0726
 9266SOL    HW133252   4.355   3.603   4.844 -0.4084 -0.3421 -0.4180
 9266SOL    HW233253   4.371   3.752   4.779 -0.5931 -0.4380 -0.6843
 9267SOL     OW33254   1.157   3.671   2.738  0.2659  0.4168 -0.1346
 9267SOL    HW133255   1.178   3.735   2.811 -0.7163  0.6083 -0.0213
 9267SOL    HW233256   1.059   3.671   2.720  0.2650 -0.9967 -0.1830
 9269SOL     OW33257   9.782   4.008   2.724  0.2736 -0.3623 -0.7062
 9269SOL    HW133258   9.720   4.006   2.802  0.2519  2.3599 -0.6298
 9269SOL    HW233259   9.770   3.924   2.670 -1.3217 -1.2227  0.9299
 9270SOL     OW33260   9.947   5.661   3.752  0.4986  0.2380  0.2273
 9270SOL    HW133261   9.957   5.562   3.743 -1.0687  0.0001  0.9347
 9270SOL    HW233262   9.862   5.681   3.799 -0.0977  1.9860 -1.5355
 9271SOL     OW33263   3.539   1.076   0.293 -0.1985  0.0300  0.0679
 9271SOL    HW133264   3.633   1.105   0.314 -0.2139  1.3862 -1.6102
 9271SOL    HW233265   3.539   0.979   0.269  0.8057  0.0450 -0.0194
 9274SOL     OW33266   1.712   7.430   0.782 -0.5045  0.3108 -0.1141
 9274SOL    HW133267   1.696   7.498   0.711 -1.6953 -0.2606 -0.4033
 9274SOL    HW233268   1.800   7.385   0.766 -0.7353  0.2410 -1.1711
 9275SOL     OW33269   0.466   3.728   1.583  0.4014 -0.1102 -0.1815
 9275SOL    HW133270   0.479   3.731   1.682  1.1084 -2.2430 -0.1732
 9275SOL    HW233271   0.552   3.704   1.538 -0.7600 -3.1397 -0.9844
 9276SOL     OW33272   7.116   8.418   3.218  0.8047 -0.1544  0.0380
 9276SOL    HW133273   7.140   8.500   3.165 -0.2787 -0.7382 -1.4020
 9276SOL    HW233274   7.073   8.446   3.304 -0.5044  0.8123 -0.8922
 9277SOL     OW33275   6.686   2.443   3.055  0.1927 -0.1468 -0.0185
 9277SOL    HW133276   6.587   2.452   3.049  0.1943 -0.1323 -0.0192
 9277SOL    HW233277   6.730   2.520   3.009  0.2044 -0.2135 -0.1204
 9278SOL     OW33278   3.868   8.642   0.865  0.2038  0.0167 -0.2690
 9278SOL    HW133279   3.899   8.735   0.884  0.1930 -0.1477  0.5480
 9278SOL    HW233280   3.871   8.588   0.948 -0.7952 -0.4332 -0.5187
 9279SOL     OW33281   8.868   2.846   5.098 -0.5118  0.1357  0.7987
 9279SOL    HW133282   8.872   2.924   5.161  1.9391 -1.2999  2.5211
 9279SOL    HW233283   8.940   2.856   5.028 -0.3471 -0.4288  0.8801
 9280SOL     OW33284   1.401   4.234   2.517 -0.3368 -0.3738  0.2192
 9280SOL    HW133285   1.337   4.269   2.449  0.1820  0.9601  0.3973
 9280SOL    HW233286   1.353   4.221   2.604 -0.8709 -1.5474 -0.2442
 9282SOL     OW33287   5.074   0.759   1.294  0.6030  0.4821 -0.6924
 9282SOL    HW133288   5.122   0.672   1.279 -0.2896 -0.0737 -0.3769
 9282SOL    HW233289   4.982   0.753   1.256 -0.4362  0.3278  1.7431
 9283SOL     OW33290   4.608   1.989   3.113  0.1020 -0.0123 -0.3925
 9283SOL    HW133291   4.660   1.904   3.102  0.2360 -0.1268  1.0961
 9283SOL    HW233292   4.665   2.058   3.157 -0.6472  0.2108  0.2374
 9285SOL     OW33293   4.158   9.356   0.519 -0.1013 -0.2626  0.0576
 9285SOL    HW133294   4.197   9.312   0.438 -0.6449 -0.1978 -0.2416
 9285SOL    HW233295   4.064   9.325   0.532 -0.9183  1.7089 -0.8749
 9286SOL     OW33296   4.863   2.414   1.981 -0.2366 -0.1941  0.0797
 9286SOL    HW133297   4.907   2.329   2.012 -0.0260 -0.0078  0.2900
 9286SOL    HW233298   4.894   2.434   1.888 -1.2951 -1.0502 -0.4690
 9288SOL     OW33299   9.415   6.162   3.026 -0.3181 -0.2399 -0.3776
 9288SOL    HW133300   9.492   6.222   3.047 -0.4929 -0.5046  1.0736
 9288SOL    HW233301   9.376   6.127   3.112 -1.5477 -0.7319 -1.1304
 9289SOL     OW33302   0.471   3.474   2.098 -0.3229 -0.2067 -0.4331
 9289SOL    HW133303   0.420   3.560   2.093  0.4618  0.3628  1.2720
 9289SOL    HW233304   0.441   3.421   2.176 -1.6895 -2.0914 -2.1816
 9290SOL     OW33305   6.650   1.502   4.531  0.2045 -0.3926  0.4168
 9290SOL    HW133306   6.594   1.518   4.449  1.6573  1.6407 -0.1967
 9290SOL    HW233307   6.589   1.483   4.608 -1.2298 -1.0121 -0.8168
 9292SOL     OW33308   3.074   4.039   2.735 -0.0995  0.2849  0.0945
 9292SOL    HW133309   3.041   3.982   2.661 -1.4507  0.7473  0.3212
 9292SOL    HW233310   3.050   4.135   2.717  0.9904  0.6125  0.3413
 9293SOL     OW33311   4.531   1.756   3.350 -0.1596  0.3169 -0.2406
 9293SOL    HW133312   4.459   1.784   3.413  0.8518  0.0735  1.0602
 9293SOL    HW233313   4.615   1.808   3.370  0.6756 -1.0136 -0.2057
 9294SOL     OW33314   9.346   7.308   3.247 -0.7322 -0.0978  0.5405
 9294SOL    HW133315   9.371   7.404   3.242  0.5065 -0.3363  1.7809
 9294SOL    HW233316   9.349   7.267   3.156 -1.1611  0.9986  0.0309
 9295SOL     OW33317   6.388   0.840   4.128 -0.0647  0.0493 -0.5698
 9295SOL    HW133318   6.356   0.852   4.034 -0.3575  1.2414 -0.3284
 9295SOL    HW233319   6.463   0.904   4.146  0.3810 -0.5819 -0.1730
 9296SOL     OW33320   4.017   4.836   3.099 -0.3306  0.1043 -0.0152
 9296SOL    HW133321   4.027   4.797   3.190  0.5568  1.5692  0.5176
 9296SOL    HW233322   3.920   4.856   3.082 -0.4547  0.1233  0.7116
 9297SOL     OW33323   5.869   7.987   3.274  0.5305 -0.1735  0.5695
 9297SOL    HW133324   5.911   8.035   3.351 -0.0901  2.1674 -0.5141
 9297SOL    HW233325   5.799   8.045   3.232 -0.0732 -1.9351 -0.9474
 9298SOL     OW33326   0.778   8.988   2.801  0.0649 -0.1481 -0.1008
 9298SOL    HW133327   0.755   8.933   2.882 -1.1706 -0.7130 -0.8159
 9298SOL    HW233328   0.795   9.082   2.829  1.2449 -0.6761  1.0227
 9299SOL     OW33329   3.301   9.552   3.104  0.5457  0.2005  0.0277
 9299SOL    HW133330   3.361   9.511   3.036  1.3078 -0.3705  1.0205
 9299SOL    HW233331   3.336   9.642   3.130  0.1795  0.4773 -0.4327
 9301SOL     OW33332   0.398   6.826   3.070  0.0172  0.2048 -0.3724
 9301SOL    HW133333   0.423   6.749   3.129 -0.2405 -0.7116 -1.4444
 9301SOL    HW233334   0.422   6.912   3.116  0.1732 -0.5013  0.8957
 9302SOL     OW33335   0.622   5.377   4.058 -0.2658  0.4458  0.2777
 9302SOL    HW133336   0.688   5.450   4.075  0.1344  0.1907 -0.1602
 9302SOL    HW233337   0.555   5.375   4.132 -0.3344  1.3119  0.2480
 9303SOL     OW33338   5.125   9.117   0.305  0.1679 -0.6100  0.8616
 9303SOL    HW133339   5.096   9.092   0.213 -1.6110 -2.2468  1.8179
 9303SOL    HW233340   5.167   9.208   0.304 -0.3901 -0.3608 -1.4412
 9305SOL     OW33341   7.865   0.993   4.140 -0.1454  0.0471 -0.0504
 9305SOL    HW133342   7.919   1.005   4.057 -0.6652 -0.9698 -0.5423
 9305SOL    HW233343   7.914   0.932   4.203 -0.2667 -0.0898 -0.0878
 9306SOL     OW33344   9.022   5.561   4.833  0.2662 -0.0076 -0.4089
 9306SOL    HW133345   9.024   5.651   4.790 -1.5445  0.6095  0.7430
 9306SOL    HW233346   9.116   5.528   4.846  0.9204  1.2945 -1.6463
 9308SOL     OW33347   2.116   7.239   2.906  0.0142 -0.3785  0.6781
 9308SOL    HW133348   2.116   7.140   2.892  0.8016 -0.4630  1.2186
 9308SOL    HW233349   2.099   7.259   3.002 -1.3372  0.0591  0.3575
 9309SOL     OW33350   9.814   5.216   2.674 -0.3012  0.2917  0.1355
 9309SOL    HW133351   9.737   5.160   2.703  0.6732 -0.4835  1.2821
 9309SOL    HW233352   9.899   5.179   2.712  0.5305  1.6958 -0.2949
 9310SOL     OW33353   7.684   1.035   4.511 -0.0617 -0.5126 -0.2251
 9310SOL    HW133354   7.666   1.076   4.421 -2.4792  1.2301  1.0011
 9310SOL    HW233355   7.668   1.103   4.582  1.0746 -2.0992  1.5789
 9311SOL     OW33356   9.164   9.179   3.309 -0.0574 -0.1234 -0.2816
 9311SOL    HW133357   9.189   9.262   3.359  0.1082 -0.0990 -0.4083
 9311SOL    HW233358   9.183   9.192   3.212 -0.4617 -0.1413 -0.3646
 9312SOL     OW33359   1.463   1.035   0.196 -0.8486  0.1887  0.0580
 9312SOL    HW133360   1.389   1.096   0.225 -1.9217 -0.0168 -2.1887
 9312SOL    HW233361   1.499   1.065   0.108 -0.3360 -1.5219 -0.3280
 9314SOL     OW33362   4.689   8.573   2.007  0.3214 -0.0439  0.3922
 9314SOL    HW133363   4.684   8.476   1.986  0.8229 -0.1055  0.5634
 9314SOL    HW233364   4.661   8.589   2.101 -0.8766  0.1105  0.0183
 9315SOL     OW33365   2.553   4.641   3.003 -0.3333 -0.6889 -0.6981
 9315SOL    HW133366   2.599   4.569   2.950 -1.6440 -1.6589 -0.5424
 9315SOL    HW233367   2.579   4.633   3.099 -0.5732 -1.0244 -0.6617
 9316SOL     OW33368   0.257   8.468   3.744  0.1598  0.3804 -0.8655
 9316SOL    HW133369   0.228   8.444   3.837  1.6103 -0.1263 -0.5335
 9316SOL    HW233370   0.203   8.546   3.712 -0.1672  0.7400  0.5091
 9317SOL     OW33371   4.811   8.846   3.472  0.3298 -0.4769  0.6331
 9317SOL    HW133372   4.887   8.786   3.450 -0.9175 -1.8945  0.1728
 9317SOL    HW233373   4.815   8.928   3.415  0.7704 -1.1440 -0.2953
 9318SOL     OW33374   1.352   1.732   3.321  0.2181 -0.2218 -0.1493
 9318SOL    HW133375   1.297   1.719   3.238  0.2555  1.1314 -0.3946
 9318SOL    HW233376   1.417   1.657   3.330 -0.3326 -0.7967 -0.9201
 9320SOL     OW33377   3.603   2.331   3.654 -0.5636 -0.5376  0.9131
 9320SOL    HW133378   3.674   2.270   3.620 -1.2349 -1.4390  1.1203
 9320SOL    HW233379   3.533   2.343   3.584  0.1755  0.9967  0.4009
 9321SOL     OW33380   8.862   6.038   1.518  0.5737 -0.2583  0.0211
 9321SOL    HW133381   8.913   6.120   1.543 -1.5204  1.2787 -0.6324
 9321SOL    HW233382   8.886   6.011   1.425 -0.3157  0.8936 -0.5578
 9322SOL     OW33383   5.300   9.918   1.527  0.0175 -0.1097 -0.2188
 9322SOL    HW133384   5.247   9.913   1.612  1.7905 -0.2415  0.8889
 9322SOL    HW233385   5.269   9.846   1.465 -4.3803  2.6777 -1.5511
 9324SOL     OW33386   2.994   2.476   2.892  0.4323 -0.0783 -0.3335
 9324SOL    HW133387   3.070   2.533   2.923  0.7782  0.4174 -2.0139
 9324SOL    HW233388   2.921   2.477   2.960  2.6899 -2.1147  2.2347
 9325SOL     OW33389   1.879   3.979   4.184  0.2302  0.4073 -0.3474
 9325SOL    HW133390   1.881   3.998   4.086 -0.4960 -1.0152 -0.6565
 9325SOL    HW233391   1.840   4.058   4.233 -1.6406  0.2070 -1.4647
 9326SOL     OW33392   9.368   0.085   3.483 -0.2222 -0.4602  0.8010
 9326SOL    HW133393   9.425   0.013   3.443 -0.9387  0.1124 -1.3449
 9326SOL    HW233394   9.415   0.173   3.476  0.3179 -0.5886  2.6964
 9329SOL     OW33395   0.835   8.994   2.426  1.0295  0.1996 -0.5133
 9329SOL    HW133396   0.843   9.064   2.355 -0.0764 -0.7277 -1.5832
 9329SOL    HW233397   0.910   9.004   2.492  0.0749  3.3201  0.2004
 9331SOL     OW33398   7.268   8.770   2.913 -0.3928 -0.4332  0.3548
 9331SOL    HW133399   7.273   8.709   2.992  2.2921 -0.2182  0.3920
 9331SOL    HW233400   7.344   8.835   2.915 -2.5555  2.2236 -0.2941
 9332SOL     OW33401   7.598   8.367   4.780 -0.4678 -0.2472 -0.0390
 9332SOL    HW133402   7.682   8.418   4.795 -1.5243  1.0357  1.6815
 9332SOL    HW233403   7.569   8.378   4.685 -0.1951  1.6581  0.0746
 9333SOL     OW33404   6.460   2.088   2.665 -0.1705 -0.2099  0.0732
 9333SOL    HW133405   6.518   2.163   2.633  0.7976 -0.9706  0.0163
 9333SOL    HW233406   6.470   2.079   2.764 -0.0721 -0.4350  0.0430
 9334SOL     OW33407   1.709   7.389   0.132 -0.7760 -0.2352 -0.1644
 9334SOL    HW133408   1.760   7.324   0.188 -1.3847 -0.7065 -0.1508
 9334SOL    HW233409   1.740   7.383   0.037 -0.5660 -0.2759 -0.0928
 9335SOL     OW33410   2.717   7.799   3.232 -0.0531 -0.0459  0.4830
 9335SOL    HW133411   2.718   7.699   3.224 -1.8657 -0.0697  0.2285
 9335SOL    HW233412   2.753   7.840   3.148 -1.1157 -0.4757 -0.1891
 9336SOL     OW33413   2.964   3.950   1.197 -0.8266 -0.0157  0.0574
 9336SOL    HW133414   2.928   3.933   1.289 -0.7576  0.2201  0.1279
 9336SOL    HW233415   2.972   4.048   1.182  0.9227 -0.0839  0.4805
 9337SOL     OW33416   2.106   3.681   4.653  0.0587  0.5388  0.3267
 9337SOL    HW133417   2.044   3.608   4.623  2.3962 -0.6453 -1.8546
 9337SOL    HW233418   2.157   3.651   4.733 -1.3161  1.0508  1.3985
 9338SOL     OW33419   3.397   9.771   4.496  0.1192 -0.7038 -0.1290
 9338SOL    HW133420   3.425   9.708   4.569  2.4808 -0.6914 -0.9776
 9338SOL    HW233421   3.332   9.726   4.435 -0.7699 -1.1884  1.1718
 9340SOL     OW33422   3.718   5.958   3.514 -0.2211 -0.0381 -0.3727
 9340SOL    HW133423   3.731   5.882   3.450 -1.4576  1.0853 -1.9911
 9340SOL    HW233424   3.630   5.949   3.560 -0.7182  0.8220 -1.1451
 9341SOL     OW33425   3.200   7.076   0.467 -0.4730  0.3873  0.1059
 9341SOL    HW133426   3.221   7.068   0.565  1.7958 -1.3208 -0.4746
 9341SOL    HW233427   3.112   7.123   0.455 -0.2313  1.6512  2.9167
 9342SOL     OW33428   6.322   7.622   4.983 -0.1470  1.1244 -0.2873
 9342SOL    HW133429   6.235   7.657   5.015 -0.4182  0.4040 -0.2440
 9342SOL    HW233430   6.383   7.607   5.061 -0.4966  0.2253 -0.1840
 9343SOL     OW33431   0.308   5.474   3.242 -0.3703 -0.3569  0.0620
 9343SOL    HW133432   0.222   5.433   3.270 -0.5186 -0.4286 -0.4942
 9343SOL    HW233433   0.312   5.569   3.272  0.2094 -0.9265  1.8469
 9344SOL     OW33434   7.912   2.838   2.667 -0.0082  0.2395  0.2019
 9344SOL    HW133435   7.990   2.900   2.656 -0.1030  0.1146 -1.3341
 9344SOL    HW233436   7.923   2.785   2.751  0.7220  1.4158  0.8571
 9345SOL     OW33437   3.868   8.753   0.385 -0.1855 -0.8346 -0.0999
 9345SOL    HW133438   3.920   8.753   0.471  0.5908 -0.6085 -0.5666
 9345SOL    HW233439   3.770   8.754   0.406 -0.0144 -1.6365  0.7851
 9346SOL     OW33440   2.219   2.100   2.048 -0.2595 -0.0886  0.7994
 9346SOL    HW133441   2.190   2.083   2.142 -1.5006 -0.2007  0.4130
 9346SOL    HW233442   2.220   2.015   1.997 -0.6462  0.1251  0.4296
 9347SOL     OW33443   5.735   1.972   1.861  0.3441  0.2004  0.4623
 9347SOL    HW133444   5.717   1.998   1.956  0.8596  2.8155 -0.1234
 9347SOL    HW233445   5.830   1.943   1.852 -0.0167 -1.1587  0.9661
 9348SOL     OW33446   9.917   7.189   1.338  0.0870 -0.0937 -0.0050
 9348SOL    HW133447   9.835   7.244   1.320 -1.2566 -1.9348  0.3577
 9348SOL    HW233448   9.968   7.176   1.253 -2.7363 -3.2373 -1.3221
 9349SOL     OW33449   1.948   7.711   0.677 -0.5983 -0.2383 -0.0704
 9349SOL    HW133450   1.873   7.672   0.624 -1.5301  2.4498 -0.8265
 9349SOL    HW233451   1.914   7.788   0.731  1.6498  1.1198 -0.5418
 9351SOL     OW33452   0.813   4.622   1.068  0.4242  0.1072 -0.6898
 9351SOL    HW133453   0.802   4.541   1.127  0.2584 -0.3136 -1.2902
 9351SOL    HW233454   0.894   4.610   1.011  0.0632  0.0993 -1.2021
 9352SOL     OW33455   0.190   6.408   2.126  0.0879 -0.4000 -0.3970
 9352SOL    HW133456   0.139   6.322   2.120 -0.1705 -0.3118  0.5153
 9352SOL    HW233457   0.280   6.396   2.085  0.0442 -1.1063 -0.2872
 9353SOL     OW33458   0.319   7.286   2.177 -0.3399 -0.5716 -0.1183
 9353SOL    HW133459   0.274   7.375   2.181  0.1412 -0.3695  1.2969
 9353SOL    HW233460   0.386   7.285   2.103 -0.1756  0.3308  0.0150
 9354SOL     OW33461   9.709   6.850   0.732 -0.0821  0.3211  0.4117
 9354SOL    HW133462   9.807   6.867   0.742 -0.3205  1.3307  1.0296
 9354SOL    HW233463   9.691   6.812   0.641  0.8604  0.2971  0.2333
 9355SOL     OW33464   9.454   7.496   4.445  0.3561  0.2593 -0.2968
 9355SOL    HW133465   9.533   7.484   4.505 -0.7318 -1.3253  0.8348
 9355SOL    HW233466   9.384   7.429   4.468 -1.7300  2.2697 -0.6652
 9356SOL     OW33467   6.210   7.589   4.085 -0.1830  0.1925 -0.0734
 9356SOL    HW133468   6.235   7.685   4.083 -2.0135  0.7034  0.5530
 9356SOL    HW233469   6.225   7.552   4.177 -0.0126  0.0179 -0.1696
 9357SOL     OW33470   0.952   5.886   4.381  0.2804  0.4603  0.1728
 9357SOL    HW133471   0.946   5.791   4.410  1.7347  0.1824 -0.3706
 9357SOL    HW233472   0.896   5.943   4.441 -1.9484 -0.9364 -0.5086
 9359SOL     OW33473   1.711   8.202   2.984  0.3306 -0.3756 -0.5249
 9359SOL    HW133474   1.692   8.187   3.081 -0.2699 -0.3570 -0.6353
 9359SOL    HW233475   1.713   8.114   2.937 -1.2289 -0.2642 -0.8220
 9360SOL     OW33476   9.379   6.048   1.351  0.3017  0.5462  0.1323
 9360SOL    HW133477   9.386   6.147   1.368 -1.8918  0.4229  1.9490
 9360SOL    HW233478   9.407   6.029   1.257  2.7061  2.6201  0.3564
 9361SOL     OW33479   7.877   4.310   0.190 -0.5532 -0.3869 -0.4637
 9361SOL    HW133480   7.833   4.352   0.110  0.3932  0.1385 -0.7167
 9361SOL    HW233481   7.937   4.237   0.160 -0.3481 -0.3221 -0.2100
 9362SOL     OW33482   8.293   0.769   1.958 -0.0753 -0.0438  0.1328
 9362SOL    HW133483   8.199   0.802   1.947  0.1603  0.2277 -1.0716
 9362SOL    HW233484   8.292   0.686   2.014 -1.3436 -1.6458 -2.1872
 9363SOL     OW33485   0.728   1.659   2.625  0.1863 -0.4585 -0.4825
 9363SOL    HW133486   0.781   1.688   2.705 -0.3176  1.9281 -0.9588
 9363SOL    HW233487   0.715   1.560   2.627 -0.0354 -0.4043  2.5110
 9364SOL     OW33488   0.182   7.442   1.402 -0.3792 -0.0002 -0.4874
 9364SOL    HW133489   0.152   7.407   1.490 -0.9695 -0.8390 -1.0201
 9364SOL    HW233490   0.247   7.378   1.360  0.2092  0.5868 -0.4880
 9365SOL     OW33491   2.792   1.728   4.246 -0.5704 -0.4853 -0.2619
 9365SOL    HW133492   2.742   1.713   4.332 -1.7618  1.0388 -0.6531
 9365SOL    HW233493   2.885   1.695   4.255 -0.3573  0.6183  1.9947
 9366SOL     OW33494   2.374   2.059   5.293 -0.0339  0.1105  0.2007
 9366SOL    HW133495   2.454   1.999   5.294  0.3447  0.6107 -0.4088
 9366SOL    HW233496   2.292   2.004   5.276  0.5355  0.0185 -2.3684
 9368SOL     OW33497   2.866   4.194   3.597  0.3749  0.1128 -0.0274
 9368SOL    HW133498   2.915   4.192   3.684 -0.3539 -0.2367  0.3787
 9368SOL    HW233499   2.828   4.285   3.582 -0.1703 -0.0420  0.3997
 9371SOL     OW33500   9.706   0.735   3.721  0.0000 -0.2740 -0.0274
 9371SOL    HW133501   9.784   0.685   3.760  0.1060  0.2789  0.4882
 9371SOL    HW233502   9.647   0.672   3.672  0.9314 -0.6562 -0.6764
 9372SOL     OW33503   6.459   9.060   2.048 -0.3703  0.2164 -0.2270
 9372SOL    HW133504   6.431   9.155   2.063 -1.6319 -0.0365 -0.9402
 9372SOL    HW233505   6.558   9.052   2.065 -0.3470  1.5311  0.3687
 9373SOL     OW33506   6.368   8.472   3.805  0.1016 -0.1148 -0.3029
 9373SOL    HW133507   6.394   8.467   3.708 -0.9778  2.8496 -0.8049
 9373SOL    HW233508   6.420   8.545   3.849 -1.4586  0.4240  0.6606
 9374SOL     OW33509   0.490   6.234   0.674  0.2516 -0.0710 -0.2618
 9374SOL    HW133510   0.568   6.263   0.730  1.8973 -2.6328 -1.1509
 9374SOL    HW233511   0.459   6.145   0.705  0.0864 -0.7452 -2.3339
 9375SOL     OW33512   4.042   9.597   2.162  0.1445  0.0105 -0.4285
 9375SOL    HW133513   4.041   9.636   2.070 -0.3855 -3.0751 -1.7895
 9375SOL    HW233514   3.954   9.614   2.207  1.1128  3.3049  0.3524
 9376SOL     OW33515   2.334   1.825   3.989 -0.5738  0.0789 -0.7643
 9376SOL    HW133516   2.317   1.726   3.992 -0.4396  0.0822  0.8861
 9376SOL    HW233517   2.282   1.869   4.062  3.1263  0.6169  1.6615
 9377SOL     OW33518   7.862   2.345   4.611 -0.6759 -0.2753 -0.2293
 9377SOL    HW133519   7.930   2.396   4.558 -0.5155  1.1072  1.3008
 9377SOL    HW233520   7.840   2.394   4.695 -1.9567 -1.7828  0.3485
 9379SOL     OW33521   0.553   2.393   2.945 -0.4928  0.1922 -0.2282
 9379SOL    HW133522   0.540   2.294   2.946  1.0740 -0.0192  0.0192
 9379SOL    HW233523   0.542   2.429   3.037 -1.0277  0.2454 -0.3125
 9380SOL     OW33524   2.213   4.837   1.856  0.4648 -0.1645  0.1973
 9380SOL    HW133525   2.181   4.757   1.805  1.5776 -0.1569 -0.5431
 9380SOL    HW233526   2.283   4.885   1.803  0.0209  1.1369  0.7696
 9381SOL     OW33527   4.513   1.891   1.073 -0.0898 -0.5104 -0.0238
 9381SOL    HW133528   4.441   1.833   1.035 -0.1185 -0.0829 -0.6336
 9381SOL    HW233529   4.546   1.852   1.158  0.7551 -2.0597 -1.0453
 9382SOL     OW33530   3.555   5.655   4.675  0.4067 -0.4040 -0.0471
 9382SOL    HW133531   3.563   5.564   4.634 -2.7195  0.3633 -2.5318
 9382SOL    HW233532   3.475   5.658   4.735  0.3349  0.7666 -0.1848
 9383SOL     OW33533   0.128   1.212   0.665 -0.1925 -0.0808 -0.3496
 9383SOL    HW133534   0.216   1.190   0.708 -0.6485 -2.1719 -0.4306
 9383SOL    HW233535   0.057   1.218   0.735 -0.3838 -0.5363 -0.5041
 9384SOL     OW33536   5.204   9.733   4.569  0.6439  0.0142 -0.4760
 9384SOL    HW133537   5.290   9.684   4.586  0.7615  0.2190 -0.4833
 9384SOL    HW233538   5.138   9.709   4.640 -0.3422 -2.5631 -2.1702
 9385SOL     OW33539   0.268   2.338   2.640  0.1142  0.2485 -0.0424
 9385SOL    HW133540   0.316   2.253   2.661 -0.9948 -0.3248  0.2233
 9385SOL    HW233541   0.239   2.382   2.725 -0.5177  0.1887 -0.2292
 9387SOL     OW33542   2.643   6.196   1.071 -0.3588 -0.7043  0.2708
 9387SOL    HW133543   2.624   6.282   1.118  1.4314  1.1965 -2.2976
 9387SOL    HW233544   2.601   6.120   1.120 -3.3518  1.8161  1.7330
 9388SOL     OW33545   8.736   7.600   1.456 -0.3656 -0.0727  0.1510
 9388SOL    HW133546   8.660   7.557   1.503 -0.4757  1.2717  1.2302
 9388SOL    HW233547   8.819   7.593   1.512  0.1561 -0.8875 -0.6920
 9389SOL     OW33548   5.189   8.334   4.438  0.4000 -0.2243  0.0740
 9389SOL    HW133549   5.099   8.299   4.413  0.8122 -0.9039 -0.4627
 9389SOL    HW233550   5.193   8.433   4.420 -0.6958  0.0786  1.4106
 9390SOL     OW33551   3.893   5.506   2.089 -0.4007  0.6133  0.5173
 9390SOL    HW133552   3.821   5.441   2.067  1.0980 -0.7802 -0.3724
 9390SOL    HW233553   3.966   5.500   2.021  1.3705  0.7542  2.3694
 9392SOL     OW33554   0.360   2.934   3.852  0.0974  0.2666  0.2734
 9392SOL    HW133555   0.428   2.925   3.925 -0.0015  0.6335  0.4088
 9392SOL    HW233556   0.388   3.006   3.788  0.8895 -0.9882 -0.8279
 9393SOL     OW33557   4.958   9.089   4.062 -0.4343 -0.2723 -0.0151
 9393SOL    HW133558   5.012   9.046   4.135  0.3164  0.3616 -0.1871
 9393SOL    HW233559   4.893   9.154   4.102 -0.0635  0.0315  0.0970
 9395SOL     OW33560   4.342   2.074   1.729 -0.3050  0.3073  0.1906
 9395SOL    HW133561   4.298   2.162   1.744  0.0749  0.3998  0.7879
 9395SOL    HW233562   4.330   2.017   1.810 -3.0073 -1.2685 -1.2279
 9397SOL     OW33563   7.848   5.567   4.745  0.0481 -0.1491 -0.2420
 9397SOL    HW133564   7.829   5.583   4.648  0.0312  1.6189  0.0240
 9397SOL    HW233565   7.764   5.576   4.797  0.5012  1.5251  0.2252
 9398SOL     OW33566   2.520   7.035   1.743  0.0910  0.1100  0.0469
 9398SOL    HW133567   2.473   6.948   1.731  0.5711 -0.4390  2.0323
 9398SOL    HW233568   2.618   7.019   1.753  0.0044  0.7025  2.1361
 9399SOL     OW33569   7.045   2.101   0.556 -0.0079 -0.4000 -0.7708
 9399SOL    HW133570   7.026   2.165   0.482  0.8981  0.5918 -0.1683
 9399SOL    HW233571   7.065   2.152   0.640 -0.9434 -1.5013  0.1421
 9400SOL     OW33572   1.617   9.896   3.594  0.0524  0.5271  0.2752
 9400SOL    HW133573   1.583   9.804   3.612  2.5071 -0.5913 -0.5577
 9400SOL    HW233574   1.548   9.948   3.544 -0.1898 -1.9170 -2.0498
 9401SOL     OW33575   3.844   5.357   4.754 -0.0532  0.0623 -0.2605
 9401SOL    HW133576   3.825   5.261   4.730 -0.6018 -0.3383  1.7030
 9401SOL    HW233577   3.867   5.408   4.671  2.0628 -2.1916 -1.1495
 9402SOL     OW33578   2.260   3.198   1.364 -0.0705  0.2750  0.0432
 9402SOL    HW133579   2.252   3.229   1.269  0.9558  1.1942  0.2563
 9402SOL    HW233580   2.169   3.196   1.406 -0.4486  0.5019 -0.7640
 9403SOL     OW33581   9.211   1.599   1.121  0.0430  0.3326  0.2689
 9403SOL    HW133582   9.185   1.599   1.217 -0.1466 -2.9652  0.2758
 9403SOL    HW233583   9.129   1.599   1.064  0.1298  0.2463  0.1428
 9404SOL     OW33584   4.267   5.277   0.894  0.0454 -0.1081 -0.3549
 9404SOL    HW133585   4.324   5.343   0.941 -1.2072 -0.2733  1.4497
 9404SOL    HW233586   4.179   5.320   0.872  0.7008  0.0534 -2.8216
 9405SOL     OW33587   4.731   3.623   4.451  0.3118 -0.1304 -0.4447
 9405SOL    HW133588   4.827   3.605   4.473  0.1218  0.1210  0.6601
 9405SOL    HW233589   4.672   3.573   4.515 -0.2776  0.2545 -0.6800
 9406SOL     OW33590   6.640   8.791   3.591 -0.0370 -0.1147  0.0344
 9406SOL    HW133591   6.597   8.882   3.596  0.2016 -0.0586  1.3237
 9406SOL    HW233592   6.597   8.730   3.657  0.5584 -0.6178 -0.0337
 9407SOL     OW33593   8.308   9.649   0.914 -0.3021 -0.0552  0.2798
 9407SOL    HW133594   8.279   9.554   0.910  1.0022 -0.5493  1.7559
 9407SOL    HW233595   8.316   9.677   1.010 -1.5173  1.8163 -0.1365
 9409SOL     OW33596   9.746   0.823   0.843 -0.1900 -0.1481 -0.1190
 9409SOL    HW133597   9.697   0.858   0.763 -0.7818 -0.8409 -0.0649
 9409SOL    HW233598   9.754   0.723   0.836 -0.5253 -0.2473  0.8354
 9412SOL     OW33599   4.658   8.602   3.988  0.2604  0.5731 -0.2572
 9412SOL    HW133600   4.570   8.624   4.031 -0.3015 -0.8112 -0.6479
 9412SOL    HW233601   4.725   8.671   4.012 -0.1611  0.1089  2.4578
 9413SOL     OW33602   7.624   2.387   2.767  0.2823 -0.6419  0.1440
 9413SOL    HW133603   7.612   2.290   2.746  2.9510 -1.4095  1.9391
 9413SOL    HW233604   7.616   2.401   2.866 -1.5063  1.2205 -0.2327
 9415SOL     OW33605   4.386   4.524   5.035 -0.2624 -0.1867  0.4640
 9415SOL    HW133606   4.443   4.598   5.069  1.5059 -1.8074  1.0876
 9415SOL    HW233607   4.317   4.501   5.104 -0.4830  0.5002  0.4804
 9416SOL     OW33608   0.576   4.974   4.218 -0.0143 -0.1348 -0.6788
 9416SOL    HW133609   0.576   5.025   4.132  2.9413  2.0570  0.5330
 9416SOL    HW233610   0.643   4.901   4.213  0.4404  0.2404 -0.1132
 9417SOL     OW33611   3.382   2.770   3.755 -0.2935  0.4871  0.0529
 9417SOL    HW133612   3.301   2.732   3.710  0.0826 -1.2410  0.7658
 9417SOL    HW233613   3.361   2.785   3.852 -0.0491  0.9355  0.0354
 9420SOL     OW33614   2.673   1.353   3.096  0.5105 -0.1171  0.9684
 9420SOL    HW133615   2.754   1.349   3.155  0.9147 -1.9846  0.3274
 9420SOL    HW233616   2.697   1.395   3.009  0.8757 -0.9136  0.6760
 9421SOL     OW33617   5.160   8.305   4.719 -0.0985 -0.1982 -0.2856
 9421SOL    HW133618   5.074   8.356   4.712  1.2312  2.2163  0.1572
 9421SOL    HW233619   5.208   8.308   4.632  0.8071  0.8712  0.2337
 9423SOL     OW33620   8.434   1.742   4.948 -0.8415 -0.5177 -0.5758
 9423SOL    HW133621   8.467   1.769   4.857 -0.0222 -1.7732 -0.6505
 9423SOL    HW233622   8.504   1.760   5.016 -0.6529 -1.5732 -0.4919
 9424SOL     OW33623   9.560   7.402   1.731  0.3396 -0.6241  0.2590
 9424SOL    HW133624   9.503   7.353   1.797 -0.5941  0.2367  0.1105
 9424SOL    HW233625   9.532   7.498   1.728 -0.1556 -0.8054 -1.9344
 9428SOL     OW33626   6.075   9.920   4.585  0.0122 -0.0510 -0.0640
 9428SOL    HW133627   6.026   9.853   4.528 -0.4597  0.6758 -0.5128
 9428SOL    HW233628   6.100   9.999   4.529  1.4092 -0.2738  0.2462
 9429SOL     OW33629   7.877   3.810   0.466 -0.2584  0.2045  0.9877
 9429SOL    HW133630   7.913   3.718   0.451  2.0026  1.2998 -0.5134
 9429SOL    HW233631   7.947   3.866   0.512 -0.0265  2.3327 -1.8445
 9430SOL     OW33632   3.939   5.745   1.129 -0.2566  0.5014  0.1486
 9430SOL    HW133633   4.017   5.707   1.079  0.1503  0.3017  0.9232
 9430SOL    HW233634   3.972   5.801   1.204 -0.8222 -1.5502  1.9816
 9431SOL     OW33635   8.762   0.413   4.313 -0.0555 -0.3730 -0.0927
 9431SOL    HW133636   8.763   0.508   4.346  0.4673  0.1322 -1.5327
 9431SOL    HW233637   8.851   0.390   4.273 -0.0766 -1.5823  0.5275
 9432SOL     OW33638   3.339   6.329   2.759  0.5852  0.0644  0.1209
 9432SOL    HW133639   3.396   6.410   2.746  0.7118  0.2045  1.5358
 9432SOL    HW233640   3.251   6.343   2.713  1.4783  0.0450 -1.6391
 9433SOL     OW33641   8.997   6.952   4.442 -0.1906  0.1833 -0.4723
 9433SOL    HW133642   8.914   7.007   4.457 -0.1282  0.0471  0.3835
 9433SOL    HW233643   9.077   7.012   4.440 -0.3462  0.3650 -1.7274
 9434SOL     OW33644   4.194   7.662   1.781  0.3610  0.3014  0.1150
 9434SOL    HW133645   4.098   7.665   1.808  0.5777  2.0792  0.7217
 9434SOL    HW233646   4.245   7.604   1.845 -0.0033  0.6830  0.7528
 9435SOL     OW33647   2.390   8.767   4.034  1.0367 -0.0062  0.1314
 9435SOL    HW133648   2.373   8.864   4.051  1.2967 -0.3298  2.2896
 9435SOL    HW233649   2.473   8.756   3.979  0.6029  1.0166 -0.7362
 9436SOL     OW33650   0.494   1.824   4.749  0.4306  0.4706  0.1044
 9436SOL    HW133651   0.464   1.739   4.793  0.0724  0.4160 -0.2444
 9436SOL    HW233652   0.416   1.868   4.705  0.4437  1.4208  1.0082
 9437SOL     OW33653   8.960   5.842   2.365  0.4525 -0.0331  0.0543
 9437SOL    HW133654   8.923   5.749   2.366  2.0707 -0.7274 -1.4816
 9437SOL    HW233655   8.889   5.906   2.334 -0.5655 -0.7738  0.8021
 9438SOL     OW33656   4.032   7.490   5.014 -0.1503  0.1218 -0.0909
 9438SOL    HW133657   4.094   7.564   5.039 -0.7792  0.3802  0.7502
 9438SOL    HW233658   4.022   7.487   4.914 -0.1831  1.2303 -0.1364
 9439SOL     OW33659   3.686   5.870   4.562  0.5623 -0.9397  0.3640
 9439SOL    HW133660   3.656   5.788   4.611 -1.5858  0.1947  1.0367
 9439SOL    HW233661   3.673   5.857   4.464 -0.4231 -1.1631  0.5181
 9440SOL     OW33662   7.508   7.793   4.041  0.1687  0.1472 -0.2095
 9440SOL    HW133663   7.432   7.811   3.980  0.0413  0.7480  0.1114
 9440SOL    HW233664   7.482   7.816   4.135  0.9004  0.8427 -0.1648
 9441SOL     OW33665   1.560   4.982   0.370 -0.1264 -0.5999 -0.2156
 9441SOL    HW133666   1.534   5.079   0.363  2.6969  0.3203  1.3566
 9441SOL    HW233667   1.579   4.960   0.465 -1.4144 -2.9229 -0.4738
 9442SOL     OW33668   2.609   9.508   3.089 -0.4289  0.3125  0.1645
 9442SOL    HW133669   2.690   9.506   3.147 -0.8222  0.4850  0.7173
 9442SOL    HW233670   2.630   9.556   3.004 -0.1018  0.8133  0.5297
 9443SOL     OW33671   5.232   7.552   2.079  0.4538 -0.0266  0.6414
 9443SOL    HW133672   5.156   7.496   2.046  0.2698  0.7793 -0.3498
 9443SOL    HW233673   5.310   7.541   2.018  0.0048  1.7291 -0.2878
 9444SOL     OW33674   4.932   1.581   4.800 -0.9701 -0.3207 -0.5278
 9444SOL    HW133675   4.851   1.539   4.759 -1.5466  1.7263 -1.5399
 9444SOL    HW233676   4.916   1.679   4.813  1.3683  0.1389 -0.8906
 9445SOL     OW33677   4.661   1.501   0.433  0.1910 -0.5933  0.4284
 9445SOL    HW133678   4.732   1.491   0.363 -2.3027  1.3325 -2.4499
 9445SOL    HW233679   4.675   1.588   0.481  0.4655 -0.7791  0.6897
 9446SOL     OW33680   8.631   6.846   4.657  0.5744 -0.8023 -0.2433
 9446SOL    HW133681   8.709   6.787   4.638  0.9897 -0.7332  1.1618
 9446SOL    HW233682   8.601   6.832   4.751 -1.3952 -1.1408 -0.9143
 9447SOL     OW33683   3.594   4.107   5.028 -0.0171  0.7148 -0.1152
 9447SOL    HW133684   3.595   4.021   4.977  0.1049  0.2569  0.6657
 9447SOL    HW233685   3.645   4.176   4.976  3.1021 -0.6715  0.9943
 9448SOL     OW33686   7.670   2.660   4.261 -0.5139 -0.0046 -0.2085
 9448SOL    HW133687   7.643   2.755   4.273 -0.7475 -0.0875 -0.0776
 9448SOL    HW233688   7.696   2.620   4.349 -2.6236 -0.7266  0.1060
 9449SOL     OW33689   6.686   8.542   4.827  0.0022  0.4310  0.2077
 9449SOL    HW133690   6.747   8.583   4.895 -0.5282  1.6548 -0.0500
 9449SOL    HW233691   6.624   8.478   4.872  1.0823 -0.3970  0.5565
 9450SOL     OW33692   2.068   8.745   0.261 -0.5517 -0.5534 -0.3505
 9450SOL    HW133693   2.042   8.829   0.214 -0.2770 -0.4206 -0.2713
 9450SOL    HW233694   2.165   8.726   0.245 -0.8667 -1.4486 -1.2766
 9451SOL     OW33695   1.843   9.092   0.430 -0.1471  0.0896  0.3573
 9451SOL    HW133696   1.762   9.145   0.406 -0.7869 -1.2532 -0.4522
 9451SOL    HW233697   1.862   9.102   0.528 -0.1803  1.9025  0.2049
 9452SOL     OW33698   1.718   5.788   1.532  0.5834 -0.6441 -0.1170
 9452SOL    HW133699   1.637   5.825   1.577 -0.3294 -2.3289 -0.3373
 9452SOL    HW233700   1.792   5.777   1.599  0.6491  0.9188  0.0775
 9455SOL     OW33701   2.112   0.642   4.228 -0.2205 -0.9296 -0.2443
 9455SOL    HW133702   2.147   0.658   4.320  0.0756  1.2504 -0.7195
 9455SOL    HW233703   2.016   0.667   4.223 -0.0865 -0.4926 -0.6769
 9456SOL     OW33704   1.015   2.444   4.276  0.2704 -0.0724  0.1195
 9456SOL    HW133705   1.066   2.381   4.334  1.4455 -1.1738 -2.0248
 9456SOL    HW233706   1.067   2.462   4.193 -1.2242  1.7008 -0.4631
 9457SOL     OW33707   8.456   4.074   0.787  0.2028  0.3118 -0.3181
 9457SOL    HW133708   8.552   4.091   0.762 -0.1267  2.1020 -0.4507
 9457SOL    HW233709   8.426   4.144   0.852 -1.0963 -0.0799 -0.4842
 9458SOL     OW33710   0.463   8.803   1.672 -0.4017 -0.3211 -0.3638
 9458SOL    HW133711   0.485   8.899   1.691 -0.6847 -0.5055  0.9580
 9458SOL    HW233712   0.441   8.792   1.576 -0.4836  0.9672 -0.5011
 9460SOL     OW33713   0.495   6.549   0.356  0.0689  0.2783  0.2666
 9460SOL    HW133714   0.448   6.472   0.397 -0.5738 -0.0525 -1.0700
 9460SOL    HW233715   0.437   6.591   0.286  1.8610 -0.3283 -1.6226
 9461SOL     OW33716   9.426   9.920   1.703  0.8941  0.6179 -0.3970
 9461SOL    HW133717   9.470   9.975   1.774  2.4577 -0.9223 -0.1488
 9461SOL    HW233718   9.329   9.942   1.700  1.0129  1.5048  1.4645
 9462SOL     OW33719   5.001   9.661   4.735 -0.6577  0.0705 -0.0172
 9462SOL    HW133720   5.005   9.562   4.723 -0.8292  0.0422  0.1787
 9462SOL    HW233721   5.027   9.685   4.828 -1.9831  0.1137  0.3539
 9463SOL     OW33722   3.531   9.586   0.399 -0.3771 -0.4414 -0.3273
 9463SOL    HW133723   3.495   9.670   0.359  0.1475 -0.5224 -0.9755
 9463SOL    HW233724   3.480   9.508   0.364 -0.2587 -0.4706 -0.4360
 9465SOL     OW33725   1.087   8.936   3.691 -0.1733  0.6670 -0.1236
 9465SOL    HW133726   1.150   8.981   3.753 -0.0519  1.2913 -0.6994
 9465SOL    HW233727   1.114   8.840   3.680  1.5965  1.3053 -1.5731
 9466SOL     OW33728   3.745   7.209   4.962  0.8350 -0.5302  0.4384
 9466SOL    HW133729   3.735   7.276   4.889 -0.6425 -0.5403  0.6295
 9466SOL    HW233730   3.729   7.117   4.925  0.6700 -0.5887  0.6572
 9468SOL     OW33731   9.615   5.295   4.427  0.0017 -0.1924 -0.1898
 9468SOL    HW133732   9.644   5.310   4.333  0.0460 -2.5369 -0.5839
 9468SOL    HW233733   9.694   5.299   4.488 -0.1671  2.3753 -0.0789
 9469SOL     OW33734   7.050   1.433   1.380 -0.3140 -0.6696  0.1967
 9469SOL    HW133735   7.036   1.365   1.308  0.6243  1.2114 -1.8121
 9469SOL    HW233736   6.967   1.488   1.391 -0.3006 -0.6617  0.2656
 9471SOL     OW33737   8.437   4.256   3.376 -0.4481  0.0077 -0.3055
 9471SOL    HW133738   8.349   4.253   3.424  0.8276 -0.0031  2.0616
 9471SOL    HW233739   8.499   4.188   3.414  0.9669  0.7666 -1.2011
 9472SOL     OW33740   7.122   1.006   2.524 -0.6347  0.1254 -0.7660
 9472SOL    HW133741   7.151   1.101   2.534 -1.9873  0.4922 -0.2698
 9472SOL    HW233742   7.156   0.952   2.601  1.5989 -0.1893 -1.9035
 9473SOL     OW33743   5.583   8.741   6.749 -0.4030  0.1102 -0.7714
 9473SOL    HW133744   5.555   8.724   6.654 -3.5270 -0.7042  0.2355
 9473SOL    HW233745   5.554   8.665   6.806 -0.7717  1.7348  1.2550
 9475SOL     OW33746   0.015   4.782   4.949  0.2063  0.1480  0.3334
 9475SOL    HW133747   0.043   4.869   4.908  0.2128 -0.4938 -1.0485
 9475SOL    HW233748   0.079   4.710   4.922 -1.6998 -0.9715 -1.3770
 9477SOL     OW33749   3.295   2.252   5.315 -0.0262  0.1622 -0.1198
 9477SOL    HW133750   3.318   2.329   5.374  0.4694  0.2723 -0.4538
 9477SOL    HW233751   3.378   2.211   5.280 -0.2821 -0.7412  0.3254
 9478SOL     OW33752   0.011   5.700   2.130  0.0463 -0.0531 -0.0643
 9478SOL    HW133753  -0.013   5.783   2.180  0.8713  0.3379 -0.3085
 9478SOL    HW233754   0.051   5.724   2.042  2.1480 -0.6326  0.6847
 9479SOL     OW33755   0.340   3.905   5.241 -0.2504 -0.1181  0.3957
 9479SOL    HW133756   0.338   3.874   5.146 -0.1658  2.6800 -0.5554
 9479SOL    HW233757   0.252   3.944   5.266  0.2889  0.7916  0.9048
 9481SOL     OW33758   4.705   1.413   1.072 -0.2648  0.1699 -0.0182
 9481SOL    HW133759   4.622   1.358   1.079  0.8202 -1.2781  1.7801
 9481SOL    HW233760   4.760   1.381   0.995 -0.3873 -0.2554  0.0701
 9482SOL     OW33761   0.759   4.368   2.712  0.8125 -0.0968 -0.8623
 9482SOL    HW133762   0.667   4.365   2.671 -0.2414  0.8825  1.3288
 9482SOL    HW233763   0.759   4.434   2.787  2.7524 -1.6929  0.5684
 9485SOL     OW33764   3.663   9.533   1.641 -0.3487 -0.7707 -0.6234
 9485SOL    HW133765   3.579   9.479   1.650 -0.8595  0.2609  0.9538
 9485SOL    HW233766   3.644   9.629   1.662  0.8567 -0.2101 -2.0271
 9486SOL     OW33767   3.410   9.326   5.262  0.1074  0.3872  0.4462
 9486SOL    HW133768   3.413   9.263   5.184 -1.6903  2.0314 -1.0057
 9486SOL    HW233769   3.501   9.337   5.300  0.7130 -1.8362 -0.2832
 9487SOL     OW33770   4.613   7.623   1.793  1.0723 -0.4397 -0.0738
 9487SOL    HW133771   4.621   7.658   1.699  1.2526 -0.9853 -0.2637
 9487SOL    HW233772   4.568   7.534   1.791 -0.0360  0.1036  0.4755
 9488SOL     OW33773   9.364   2.856   4.631  0.2198  0.2349  0.6722
 9488SOL    HW133774   9.375   2.778   4.692  3.2685  0.7473  0.8899
 9488SOL    HW233775   9.401   2.834   4.541 -0.5541  0.8200  0.2061
 9489SOL     OW33776   6.248   2.104   2.494  0.3235  0.4977  0.2296
 9489SOL    HW133777   6.304   2.110   2.577 -0.1699  0.1348  0.5954
 9489SOL    HW233778   6.306   2.080   2.416  0.6538 -0.0563  0.6400
 9490SOL     OW33779   1.896   1.905   5.200  0.8397 -0.7532  0.4951
 9490SOL    HW133780   1.903   1.814   5.158  0.9272 -0.9744  0.9825
 9490SOL    HW233781   1.800   1.928   5.214  0.8399 -1.0602  0.9967
 9491SOL     OW33782   1.555   0.648   0.767 -0.7686  0.6603  0.3331
 9491SOL    HW133783   1.501   0.693   0.696 -0.6027 -0.8181 -0.7774
 9491SOL    HW233784   1.578   0.555   0.736 -0.2721  0.1757  2.1252
 9492SOL     OW33785   7.452   9.939   4.800 -0.5668  0.4837  0.0710
 9492SOL    HW133786   7.541   9.924   4.756 -0.5279  0.9656 -0.0148
 9492SOL    HW233787   7.445   9.880   4.881 -0.4338 -0.0301 -0.2881
 9494SOL     OW33788   4.584   8.143   2.272  0.3872  0.3769 -0.3417
 9494SOL    HW133789   4.547   8.195   2.195  0.5035  0.0687 -0.6092
 9494SOL    HW233790   4.511   8.090   2.315  1.0294 -2.5977 -2.7466
 9495SOL     OW33791   8.867   3.993   2.084 -0.0450 -0.4830  0.8084
 9495SOL    HW133792   8.849   4.075   2.137  0.2478 -0.8654  1.5103
 9495SOL    HW233793   8.912   3.925   2.142 -1.4058 -1.6037  0.5780
 9496SOL     OW33794   2.666   3.450   0.272 -0.4224 -0.4053 -0.3368
 9496SOL    HW133795   2.733   3.416   0.206 -1.1628 -1.1836 -0.6958
 9496SOL    HW233796   2.656   3.383   0.346 -0.0285  0.1922  0.2512
 9497SOL     OW33797   5.985   2.910   3.849 -0.3999  0.4495  0.1720
 9497SOL    HW133798   5.991   2.912   3.948  0.6346  0.9953  0.1008
 9497SOL    HW233799   6.025   2.825   3.814  0.1308  0.7083  0.1563
 9498SOL     OW33800   0.227   3.186   2.690 -0.8132  0.1423 -0.3017
 9498SOL    HW133801   0.217   3.163   2.786 -0.5707  1.0653 -0.0518
 9498SOL    HW233802   0.176   3.121   2.634  1.5392 -2.2911  0.2651
 9499SOL     OW33803   0.989   2.693   3.943 -0.1901  0.5036 -0.0085
 9499SOL    HW133804   0.972   2.752   4.022 -1.0330 -0.9152  0.8984
 9499SOL    HW233805   1.048   2.617   3.970 -5.4553 -3.5518  1.0260
 9500SOL     OW33806   8.027   9.436   0.703 -0.4437  0.3587 -0.1582
 9500SOL    HW133807   8.017   9.452   0.801  1.7257  2.3008 -0.2273
 9500SOL    HW233808   7.975   9.504   0.652  0.6588  1.0593 -0.3655
 9501SOL     OW33809   8.680   9.212   1.050  0.3448 -0.2155  0.1618
 9501SOL    HW133810   8.711   9.301   1.014  0.3081  0.2425  1.2399
 9501SOL    HW233811   8.620   9.227   1.128 -0.5394 -1.1742 -0.3137
 9502SOL     OW33812   3.615   5.383   2.750 -0.4297 -0.6669 -1.0405
 9502SOL    HW133813   3.694   5.432   2.713  0.7027 -1.4777  0.2616
 9502SOL    HW233814   3.622   5.286   2.727 -0.3192 -0.9734  0.2878
 9503SOL     OW33815   2.679   4.456   0.397 -0.3076  0.0679 -1.0400
 9503SOL    HW133816   2.777   4.464   0.380 -0.6133 -0.8317 -3.4201
 9503SOL    HW233817   2.662   4.385   0.465  0.7539  1.0462  0.2554
 9505SOL     OW33818   0.971   1.996   2.638  0.5612 -0.3595 -0.1841
 9505SOL    HW133819   1.027   2.041   2.707 -0.7497 -0.9013  1.2647
 9505SOL    HW233820   0.978   1.897   2.649  0.1979 -0.4437 -0.7005
 9506SOL     OW33821   6.394   0.502   1.806  0.1323 -0.2855 -0.6399
 9506SOL    HW133822   6.374   0.424   1.748  0.5923 -0.6106 -0.3679
 9506SOL    HW233823   6.354   0.488   1.896 -1.9363  0.9278 -1.3347
 9507SOL     OW33824   9.963   5.569   4.118  0.3348  0.0207  0.0720
 9507SOL    HW133825  10.031   5.615   4.061  0.8658 -0.8989 -0.0359
 9507SOL    HW233826   9.929   5.488   4.072 -1.1894  0.7190 -0.0775
 9508SOL     OW33827   2.301   8.153   0.505 -0.0126  0.5232  0.1267
 9508SOL    HW133828   2.355   8.221   0.456 -1.1863  0.8328 -0.7337
 9508SOL    HW233829   2.212   8.141   0.461 -0.5459 -0.2101  1.3581
 9510SOL     OW33830   1.651   5.312   1.194 -0.3795 -0.2032 -0.0982
 9510SOL    HW133831   1.553   5.329   1.178 -0.4373 -0.1484  0.3079
 9510SOL    HW233832   1.661   5.235   1.257 -0.1297 -1.6159 -1.8047
 9511SOL     OW33833   8.518   9.940   3.850 -0.0891 -0.4076  0.5132
 9511SOL    HW133834   8.588   9.872   3.827 -1.2572 -1.3434 -0.3210
 9511SOL    HW233835   8.535   9.976   3.942  1.1316 -1.0735  0.5543
 9512SOL     OW33836   9.499   1.466   3.453  0.3923  0.0685 -0.8153
 9512SOL    HW133837   9.472   1.549   3.501 -1.0444 -0.0482 -1.3953
 9512SOL    HW233838   9.558   1.411   3.512  0.2349  0.8593  0.0774
 9513SOL     OW33839   4.602   2.482   2.216  0.3485  0.4341 -0.9613
 9513SOL    HW133840   4.605   2.516   2.122 -0.0687  0.7610 -0.8591
 9513SOL    HW233841   4.695   2.475   2.251  0.4003  2.7348 -0.5508
 9514SOL     OW33842   5.792   1.225   0.847  0.3304  0.0598  0.0477
 9514SOL    HW133843   5.833   1.138   0.819  0.8351  0.3927 -0.2524
 9514SOL    HW233844   5.715   1.246   0.787  0.3457 -0.0707 -0.0170
 9515SOL     OW33845   7.076   1.248   3.741  0.1343 -0.1775 -0.0197
 9515SOL    HW133846   6.995   1.193   3.721 -1.3645  1.4521  1.4004
 9515SOL    HW233847   7.125   1.209   3.819  0.7983 -1.2086 -0.9280
 9516SOL     OW33848   3.394   9.806   1.753 -0.0798 -0.1922 -0.4551
 9516SOL    HW133849   3.430   9.775   1.665  0.9162  0.7085 -0.3775
 9516SOL    HW233850   3.343   9.732   1.796 -0.2796 -0.7473 -1.6355
 9517SOL     OW33851   0.460   5.516   1.442 -0.2033  0.6790  0.2387
 9517SOL    HW133852   0.464   5.432   1.497 -0.9841  0.6465  0.2507
 9517SOL    HW233853   0.368   5.525   1.402  1.1759 -0.8712 -3.5138
 9518SOL     OW33854   8.553   1.909   4.303 -0.8109  0.4320 -0.0178
 9518SOL    HW133855   8.609   1.916   4.220  0.5235  0.7094  0.8806
 9518SOL    HW233856   8.479   1.976   4.299 -0.6320  0.5873 -0.8847
 9519SOL     OW33857   0.883   7.020   0.694  0.1450 -0.3010 -0.7611
 9519SOL    HW133858   0.917   7.112   0.674  0.4165 -0.3399 -0.4917
 9519SOL    HW233859   0.787   7.025   0.721  0.1550 -0.0956 -0.7636
 9520SOL     OW33860   4.185   5.309   3.227 -0.3663 -0.0739  0.3193
 9520SOL    HW133861   4.242   5.277   3.303  1.0149  0.4828 -0.4740
 9520SOL    HW233862   4.159   5.405   3.243  0.0630  0.0937  0.0000
 9523SOL     OW33863   1.977   4.226   0.425  0.0957 -0.1041 -0.2142
 9523SOL    HW133864   1.989   4.285   0.345  2.2689 -0.2266 -0.0040
 9523SOL    HW233865   1.934   4.278   0.499  0.4841  0.7384 -0.5848
 9524SOL     OW33866   8.801   4.483   3.806 -0.4594  0.0774  0.2118
 9524SOL    HW133867   8.886   4.535   3.806 -1.1864  1.2928  0.7220
 9524SOL    HW233868   8.791   4.434   3.720  1.0977 -0.6475  0.4312
 9525SOL     OW33869   1.340   3.889   4.361  0.2730 -0.2376  0.1770
 9525SOL    HW133870   1.271   3.960   4.349  0.9238 -0.1247 -3.8027
 9525SOL    HW233871   1.296   3.805   4.393 -1.5830  0.1397 -1.2598
 9527SOL     OW33872   5.236   8.547   1.532 -0.5570  0.4748  0.0375
 9527SOL    HW133873   5.219   8.546   1.631 -2.1220  0.5080 -0.2111
 9527SOL    HW233874   5.182   8.620   1.490 -0.6825 -0.1935 -0.9734
 9529SOL     OW33875   8.179   0.576   0.518  0.3738  0.4842  0.0322
 9529SOL    HW133876   8.180   0.476   0.516 -1.1625  0.4773 -0.7981
 9529SOL    HW233877   8.108   0.607   0.582 -1.1938  1.0406 -1.9439
 9530SOL     OW33878   3.539   7.260   1.629  0.3606 -0.3635 -0.6493
 9530SOL    HW133879   3.591   7.193   1.681  1.4793  0.9512 -0.0305
 9530SOL    HW233880   3.472   7.305   1.689  0.5512  0.0289 -0.7279
 9532SOL     OW33881   1.387   8.617   3.878  0.5984  0.2333 -0.2807
 9532SOL    HW133882   1.478   8.581   3.856  0.5197 -0.6353  0.7934
 9532SOL    HW233883   1.394   8.684   3.951  0.1386 -1.4664  1.3667
 9533SOL     OW33884   1.695   6.755   5.087 -0.1973  0.0316 -0.7139
 9533SOL    HW133885   1.747   6.812   5.024  1.3861 -0.0898  0.4612
 9533SOL    HW233886   1.713   6.785   5.181 -0.6799 -1.3210 -0.1858
 9534SOL     OW33887   8.480   8.278   4.361  0.1785  0.1523  0.0629
 9534SOL    HW133888   8.470   8.179   4.348 -1.2038  0.0494  1.7359
 9534SOL    HW233889   8.404   8.325   4.318  1.1072  0.5483 -1.1799
 9536SOL     OW33890   0.467   1.390   5.149 -0.2660 -0.2588 -0.3812
 9536SOL    HW133891   0.373   1.375   5.180 -0.1480 -3.3192 -1.2925
 9536SOL    HW233892   0.529   1.328   5.198  1.2133  1.3459 -0.1732
 9537SOL     OW33893   6.569   1.155   3.138 -0.0665 -0.2433  0.6657
 9537SOL    HW133894   6.502   1.100   3.188 -0.6079  1.2698  1.6378
 9537SOL    HW233895   6.550   1.252   3.152  0.6567  0.2080 -1.3287
 9538SOL     OW33896   2.313   9.465   2.061 -0.3393  0.4887 -0.1565
 9538SOL    HW133897   2.412   9.477   2.058 -0.1608 -1.2498 -2.0090
 9538SOL    HW233898   2.289   9.402   2.134 -0.2719  2.4309  1.5848
 9539SOL     OW33899   4.973   1.282   1.514  0.4108  0.2735 -0.6141
 9539SOL    HW133900   4.911   1.244   1.583  0.2511 -0.8360 -1.3642
 9539SOL    HW233901   4.920   1.334   1.448  0.1533 -1.3764 -1.7341
 9540SOL     OW33902   7.697   9.225   2.129 -0.3925  0.0670 -0.2478
 9540SOL    HW133903   7.711   9.128   2.151  0.5811  0.1367 -0.5124
 9540SOL    HW233904   7.782   9.275   2.148  0.1657  0.2997 -3.1562
 9541SOL     OW33905   8.180   9.909   0.990 -0.0762 -0.2839  0.0777
 9541SOL    HW133906   8.276   9.897   0.965 -0.2284 -1.7122  0.1188
 9541SOL    HW233907   8.129   9.942   0.911  0.2139 -0.7661 -0.3130
 9542SOL     OW33908   0.994   1.034   4.028 -0.4020 -0.1729  0.1758
 9542SOL    HW133909   0.929   1.025   4.104 -0.8612 -0.0621 -0.2010
 9542SOL    HW233910   1.067   1.097   4.055 -1.5504  1.3275 -0.1229
 9543SOL     OW33911   2.587   6.212   5.093  0.2755  0.2771 -0.0570
 9543SOL    HW133912   2.561   6.137   5.033 -0.5949  1.2310 -0.8821
 9543SOL    HW233913   2.660   6.181   5.155  0.0794 -1.1707 -0.5252
 9544SOL     OW33914   1.443   9.732   2.784  0.2034 -0.0048 -0.0662
 9544SOL    HW133915   1.407   9.817   2.745 -0.2944  0.3591  1.1683
 9544SOL    HW233916   1.410   9.721   2.878  0.5023 -1.4206 -0.1102
 9545SOL     OW33917   1.666   3.902   2.065 -0.0644  0.8771  0.1890
 9545SOL    HW133918   1.648   3.874   2.159 -0.3384  3.0254  0.8139
 9545SOL    HW233919   1.723   3.985   2.066  0.2395  0.6941 -1.5465
 9546SOL     OW33920   8.833   6.434   2.922  0.2356 -0.4013  0.2425
 9546SOL    HW133921   8.790   6.385   2.999  0.1313 -0.5903  0.0637
 9546SOL    HW233922   8.913   6.383   2.891  0.3555 -0.2541  0.3125
 9548SOL     OW33923   8.132   6.833   5.015 -0.3118 -0.0421  0.7233
 9548SOL    HW133924   8.171   6.910   5.065 -2.3413  0.8745  0.9394
 9548SOL    HW233925   8.057   6.865   4.957 -0.5137 -1.6963  0.0374
 9549SOL     OW33926   0.573   1.168   1.259 -0.5570 -0.4452  0.3564
 9549SOL    HW133927   0.619   1.243   1.307  0.9678  0.1327 -1.9476
 9549SOL    HW233928   0.625   1.084   1.270 -1.4421 -0.8573  1.6117
 9550SOL     OW33929   1.457   8.637   1.552  0.2987  0.0902 -0.2643
 9550SOL    HW133930   1.455   8.694   1.470 -0.5025  0.2147 -0.1680
 9550SOL    HW233931   1.446   8.694   1.633  0.2407 -0.1192 -0.1239
 9551SOL     OW33932   9.934   2.233   5.313  0.2733  0.3979 -0.5651
 9551SOL    HW133933   9.915   2.156   5.252 -0.1064  0.2714 -0.2874
 9551SOL    HW233934  10.026   2.224   5.350  0.7452  0.8162 -1.6258
 9552SOL     OW33935   8.199   1.923   1.048 -0.1784  0.2013  0.4030
 9552SOL    HW133936   8.290   1.926   1.091 -0.0255  0.5787  0.0454
 9552SOL    HW233937   8.131   1.959   1.112  0.0777  0.9449  0.2513
 9555SOL     OW33938   0.056   6.633   3.514 -0.4389  0.4555 -0.0325
 9555SOL    HW133939   0.040   6.650   3.416 -0.3268 -1.5442 -0.4222
 9555SOL    HW233940   0.066   6.721   3.561  0.3555  1.4393 -1.9512
 9557SOL     OW33941   3.784   6.486   1.398  0.4686 -0.4009  0.5619
 9557SOL    HW133942   3.822   6.509   1.308  2.8718  0.0793  1.6797
 9557SOL    HW233943   3.732   6.563   1.433  0.7642 -0.0580  0.2486
 9558SOL     OW33944   2.310   4.941   2.947  0.2948 -0.1705 -0.0414
 9558SOL    HW133945   2.353   4.928   3.037 -0.7583 -0.5319  0.4185
 9558SOL    HW233946   2.294   5.038   2.931  0.3418 -0.1154  0.2355
 9559SOL     OW33947   1.593   1.827   2.476  0.0543 -0.2143 -0.3938
 9559SOL    HW133948   1.563   1.732   2.489 -0.8979 -0.1329 -1.8503
 9559SOL    HW233949   1.561   1.860   2.387 -3.4450  2.9311  1.8788
 9560SOL     OW33950   6.076   1.413   1.902  0.1491  0.2553 -0.2577
 9560SOL    HW133951   6.084   1.497   1.957 -1.3742 -0.4328  1.0360
 9560SOL    HW233952   6.121   1.428   1.814 -0.7247  2.6998 -0.3435
 9562SOL     OW33953   7.884   3.139   2.701  0.0616 -0.4241 -0.5511
 9562SOL    HW133954   7.871   3.157   2.799 -2.3927 -2.0247 -0.5436
 9562SOL    HW233955   7.822   3.197   2.648  0.0932 -0.8433 -1.0508
 9563SOL     OW33956   6.784   4.953   0.769 -0.0984  0.1299  0.4647
 9563SOL    HW133957   6.763   4.969   0.866  1.7385 -1.7020  1.2174
 9563SOL    HW233958   6.810   5.039   0.726 -1.3157  1.0309  1.5126
 9564SOL     OW33959   3.327   9.586   3.511  0.0643  0.2183 -0.1788
 9564SOL    HW133960   3.382   9.608   3.592 -0.2982  0.0153  0.1238
 9564SOL    HW233961   3.336   9.660   3.444 -0.2676  0.7701  0.3762
 9566SOL     OW33962   9.757   4.556   1.498  0.3572  0.0203  0.1519
 9566SOL    HW133963   9.854   4.579   1.488 -0.2452  2.4468 -0.3961
 9566SOL    HW233964   9.748   4.459   1.518  2.9730 -0.0459  1.2558
 9567SOL     OW33965   4.125   5.584   0.750 -0.3340  0.3063  0.1602
 9567SOL    HW133966   4.158   5.624   0.665 -0.3975 -0.4227 -0.2053
 9567SOL    HW233967   4.106   5.487   0.737 -0.0345  0.1183  1.0903
 9568SOL     OW33968   1.319   1.844   5.132  0.7636 -1.0739 -0.0334
 9568SOL    HW133969   1.250   1.865   5.063  0.4446 -2.2356 -0.0640
 9568SOL    HW233970   1.326   1.921   5.196 -0.3865 -0.8585 -0.1618
 9569SOL     OW33971   6.648   1.295   3.892 -0.3230  0.2606  0.0311
 9569SOL    HW133972   6.709   1.374   3.887 -0.5072  0.4037  0.0526
 9569SOL    HW233973   6.684   1.230   3.958  0.0891  0.1016 -0.3425
 9570SOL     OW33974   1.202   0.194   2.794 -0.1716 -0.2405 -0.3402
 9570SOL    HW133975   1.249   0.263   2.848 -1.2576 -0.6937  1.2210
 9570SOL    HW233976   1.136   0.237   2.734 -0.1824  0.1463 -0.0485
 9571SOL     OW33977   3.738   3.476   2.056  1.0647 -0.2684  0.3433
 9571SOL    HW133978   3.655   3.458   2.003  1.4239  0.1649 -0.3624
 9571SOL    HW233979   3.774   3.566   2.033  1.1592 -0.0233  1.4102
 9572SOL     OW33980   4.600   1.335   3.332 -0.0254  0.0601  0.5208
 9572SOL    HW133981   4.526   1.333   3.266  0.0101  1.7102  0.4046
 9572SOL    HW233982   4.650   1.422   3.324 -0.1048  0.3523  2.7888
 9573SOL     OW33983   8.817   7.238   3.047 -0.2835  0.4783  0.2954
 9573SOL    HW133984   8.828   7.209   3.142  0.2628  0.0416  0.1041
 9573SOL    HW233985   8.865   7.174   2.987  0.4029  1.4301 -0.1843
 9574SOL     OW33986   8.091   7.019   2.920  0.2704 -0.8597 -0.0917
 9574SOL    HW133987   8.088   6.985   3.014 -2.3734 -0.6813 -0.0691
 9574SOL    HW233988   7.998   7.025   2.883  1.0366  1.5867 -1.8215
 9575SOL     OW33989   6.545   7.326   3.666  0.2029  0.2217 -0.0626
 9575SOL    HW133990   6.478   7.380   3.717  0.5266  0.9833 -0.4307
 9575SOL    HW233991   6.563   7.369   3.578 -0.6031 -1.2859 -0.9764
 9577SOL     OW33992   8.445   2.095   1.797 -0.4547  0.0987  0.4454
 9577SOL    HW133993   8.542   2.081   1.815 -0.4009 -0.2351 -0.1170
 9577SOL    HW233994   8.419   2.188   1.823  0.4581  0.8491 -1.3139
 9578SOL     OW33995   1.068   7.266   1.963 -0.3003 -0.1591 -1.0882
 9578SOL    HW133996   1.099   7.183   2.009 -0.3448  0.1650 -0.4709
 9578SOL    HW233997   1.065   7.250   1.864  0.3335 -0.6801 -1.0255
 9579SOL     OW33998   8.612   7.359   4.957 -0.4227 -0.8763  0.2365
 9579SOL    HW133999   8.568   7.269   4.954 -0.3201 -0.9490  0.7943
 9579SOL    HW234000   8.576   7.410   5.035  0.5157 -0.9525  0.7180
 9580SOL     OW34001   9.245   6.943   2.943  0.7010 -0.6676  0.0334
 9580SOL    HW134002   9.205   6.901   3.025 -1.2817  0.8877 -0.1090
 9580SOL    HW234003   9.295   6.873   2.891 -0.9966 -2.4601  0.7480
 9581SOL     OW34004   1.931   7.989   2.560  0.0467 -0.6396  0.4979
 9581SOL    HW134005   1.875   7.988   2.642 -1.3844 -2.1385 -0.4804
 9581SOL    HW234006   1.957   7.896   2.535 -1.1152 -0.4016 -1.8037
 9582SOL     OW34007   9.090   5.695   1.625 -0.2596 -0.1205 -0.5117
 9582SOL    HW134008   9.157   5.710   1.697 -0.4014 -0.7971 -0.2361
 9582SOL    HW234009   9.113   5.612   1.574 -1.8222 -1.3045  0.6665
 9584SOL     OW34010   9.024   3.667   0.688 -0.2936  0.0447  0.6027
 9584SOL    HW134011   8.980   3.619   0.613  0.2089 -0.7664  0.8203
 9584SOL    HW234012   8.966   3.743   0.718  0.7377  2.1621 -2.4675
 9585SOL     OW34013   7.809   3.506   4.704 -0.7236 -0.5964  0.2457
 9585SOL    HW134014   7.739   3.444   4.739 -0.4588 -0.4687  1.0031
 9585SOL    HW234015   7.893   3.454   4.687 -0.3298 -0.3499  1.4039
 9586SOL     OW34016   9.314   6.352   1.382  0.0209 -0.1398  0.0221
 9586SOL    HW134017   9.333   6.442   1.341  1.5342  0.2322  1.5013
 9586SOL    HW234018   9.216   6.345   1.400 -0.0002  1.6093  0.7442
 9589SOL     OW34019   4.928   7.940   4.477  0.1887  0.3491 -0.4385
 9589SOL    HW134020   5.009   7.898   4.437  0.2100  1.3577 -1.4711
 9589SOL    HW234021   4.947   7.967   4.572  0.0078 -2.4232  0.4365
 9591SOL     OW34022   8.051   5.752   3.274 -0.1928  0.3311  0.1509
 9591SOL    HW134023   7.983   5.799   3.329 -0.5390  2.5555 -2.0631
 9591SOL    HW234024   8.084   5.814   3.202  2.8424 -1.2899  0.0725
 9592SOL     OW34025   3.642   6.668   1.008 -0.3943  0.5710  0.0278
 9592SOL    HW134026   3.714   6.667   0.940 -0.5041 -0.4679 -0.0917
 9592SOL    HW234027   3.590   6.582   1.002 -0.8545  0.7806  0.9259
 9593SOL     OW34028   4.830   4.750   3.489  0.1998 -0.7255 -0.5763
 9593SOL    HW134029   4.812   4.731   3.393 -0.0275 -0.0034 -0.6799
 9593SOL    HW234030   4.813   4.667   3.543 -1.4818 -0.6187 -0.9254
 9594SOL     OW34031   8.108   4.284   4.803  0.2640  0.1386 -0.4281
 9594SOL    HW134032   8.202   4.284   4.768  0.0246  0.7823 -1.0875
 9594SOL    HW234033   8.053   4.349   4.750 -0.5256 -0.1556  0.0272
 9595SOL     OW34034   8.605   6.530   2.811 -0.3346 -0.2597 -0.2997
 9595SOL    HW134035   8.581   6.520   2.714  0.5902  0.2833 -0.5917
 9595SOL    HW234036   8.694   6.488   2.828 -0.5114 -0.3850  0.3191
 9596SOL     OW34037   8.935   6.255   4.395  0.1271  0.3871 -0.7898
 9596SOL    HW134038   8.904   6.320   4.327 -0.9908  0.4861 -0.1864
 9596SOL    HW234039   9.018   6.210   4.362 -0.6188  0.1487 -2.3778
 9597SOL     OW34040   4.136   9.355   2.142 -0.2171 -0.4966 -0.6299
 9597SOL    HW134041   4.226   9.371   2.102 -0.8603 -1.1974 -2.4156
 9597SOL    HW234042   4.093   9.442   2.164  1.0766 -0.1625  0.7245
 9598SOL     OW34043   8.573   0.677   0.091  0.0781 -0.0377 -0.4839
 9598SOL    HW134044   8.531   0.676   0.181 -2.0786  0.4635 -1.4596
 9598SOL    HW234045   8.623   0.591   0.076 -0.5505 -0.6163  0.7040
 9599SOL     OW34046   9.565   0.108   2.389 -0.3844 -0.0147 -0.4978
 9599SOL    HW134047   9.469   0.131   2.368 -0.6160 -2.3956 -2.3268
 9599SOL    HW234048   9.573   0.082   2.485 -1.1860  2.0282  0.1470
 9600SOL     OW34049   7.961   5.996   4.557 -0.5216 -0.0225  0.1572
 9600SOL    HW134050   7.962   5.951   4.468  1.4347 -1.3932  0.8303
 9600SOL    HW234051   7.906   5.942   4.621 -0.8267  0.2560  0.1322
 9601SOL     OW34052   1.900   9.467   1.928 -0.5662 -0.1356  0.2687
 9601SOL    HW134053   1.819   9.505   1.974 -0.5232 -0.3477  0.5206
 9601SOL    HW234054   1.972   9.536   1.924  0.3718 -0.9262  2.8637
 9602SOL     OW34055   9.586   1.082   2.523  0.0342  0.1277 -0.2878
 9602SOL    HW134056   9.522   1.054   2.452  0.1796  1.3932 -0.9411
 9602SOL    HW234057   9.653   1.146   2.485  0.8636 -0.1212  0.7034
 9603SOL     OW34058   6.781   1.675   4.178  0.5599  0.3960  0.0762
 9603SOL    HW134059   6.686   1.645   4.170  0.9874 -1.3944  1.3508
 9603SOL    HW234060   6.784   1.774   4.180 -1.3275  0.4757  0.4565
 9604SOL     OW34061   5.575   9.058   2.466 -0.4224 -0.3228 -0.2582
 9604SOL    HW134062   5.511   9.026   2.396  0.3831  0.6577 -1.4857
 9604SOL    HW234063   5.659   9.005   2.461 -0.0479  0.2985 -0.5969
 9606SOL     OW34064   5.077   0.768   0.982  0.0671  0.0454 -0.0870
 9606SOL    HW134065   5.158   0.758   0.925  1.5217  0.8389  1.8081
 9606SOL    HW234066   5.045   0.863   0.979 -0.1615 -0.0269  0.0217
 9607SOL     OW34067   8.148   2.889   1.299 -0.4110  0.4843 -0.3791
 9607SOL    HW134068   8.089   2.812   1.322  0.5970 -0.4816 -1.0013
 9607SOL    HW234069   8.108   2.940   1.223 -0.9714  0.4495 -0.1073
 9608SOL     OW34070   3.258   5.760   0.859  0.0192 -0.7116  0.0347
 9608SOL    HW134071   3.292   5.667   0.845  1.5748 -0.1128 -0.2989
 9608SOL    HW234072   3.319   5.808   0.923  0.5597  0.7985 -1.5827
 9609SOL     OW34073   3.541   7.287   1.369  0.2539  0.1265 -0.6315
 9609SOL    HW134074   3.558   7.277   1.467 -0.5682 -1.3238 -0.6181
 9609SOL    HW234075   3.450   7.326   1.354  0.3214  0.2142 -0.8200
 9610SOL     OW34076   4.303   1.593   3.979  0.0966  0.1052 -0.0646
 9610SOL    HW134077   4.290   1.643   4.065 -0.9287 -0.3930  0.0788
 9610SOL    HW234078   4.356   1.510   3.997 -0.5589 -0.2649  0.1863
 9611SOL     OW34079   3.127   3.236   0.988 -0.2003  0.1172  0.1053
 9611SOL    HW134080   3.162   3.196   0.904 -0.4517  0.6357 -0.2472
 9611SOL    HW234081   3.027   3.223   0.993 -0.2875  0.7109 -0.0232
 9612SOL     OW34082   0.164   1.064   4.588  0.2412  0.3122  0.3507
 9612SOL    HW134083   0.129   1.015   4.508  1.3997 -2.4710  1.4762
 9612SOL    HW234084   0.091   1.072   4.656  0.1460 -0.2310  0.3180
 9614SOL     OW34085   4.158   0.164   5.289  0.0891 -0.1183 -0.5994
 9614SOL    HW134086   4.184   0.218   5.209 -0.2963  0.0991 -0.5811
 9614SOL    HW234087   4.071   0.117   5.272  0.2126 -0.3984 -0.4598
 9615SOL     OW34088   9.675   4.245   2.655  0.0886 -0.5249  0.3524
 9615SOL    HW134089   9.704   4.150   2.663 -0.0398 -0.6060 -0.1405
 9615SOL    HW234090   9.576   4.249   2.644  0.2500 -0.4285 -1.2190
 9616SOL     OW34091   0.080   3.632   2.060 -0.2503 -0.2809 -0.2534
 9616SOL    HW134092   0.053   3.548   2.013  0.5227 -1.0065  0.5802
 9616SOL    HW234093   0.178   3.646   2.050 -0.0594 -0.4785  1.1883
 9617SOL     OW34094   7.142   9.013   1.869  0.1277  0.3265  0.6431
 9617SOL    HW134095   7.181   8.963   1.792  0.9612  0.1150  1.2009
 9617SOL    HW234096   7.160   8.963   1.954 -3.0357 -0.8114  0.7200
 9618SOL     OW34097   8.536   8.749   4.674  0.0810 -0.0782 -0.0444
 9618SOL    HW134098   8.439   8.742   4.648  0.4005  0.7060 -1.5012
 9618SOL    HW234099   8.548   8.825   4.737 -0.4600 -1.0465  1.2601
 9620SOL     OW34100   1.488   7.883   0.538 -0.5454  0.8063 -0.0484
 9620SOL    HW134101   1.446   7.852   0.453 -0.7274  0.7840  0.0477
 9620SOL    HW234102   1.427   7.860   0.615 -0.9248  1.8581 -0.0290
 9621SOL     OW34103   3.914   6.109   3.407  0.1130  0.1565  0.0132
 9621SOL    HW134104   3.896   6.197   3.453  0.5636  0.1837  0.1418
 9621SOL    HW234105   3.864   6.037   3.454 -0.6743  0.4273 -0.4136
 9622SOL     OW34106   8.481   4.169   2.054  0.0465  0.3041  0.0647
 9622SOL    HW134107   8.516   4.076   2.066  0.3068  0.2248 -1.1822
 9622SOL    HW234108   8.404   4.184   2.116  1.1101 -0.1464  1.5272
 9623SOL     OW34109   6.433   8.059   2.709 -0.2072  0.0469 -0.1088
 9623SOL    HW134110   6.523   8.015   2.716 -1.7090 -2.8572  1.5619
 9623SOL    HW234111   6.384   8.048   2.795 -2.3650  1.2123 -1.1653
 9624SOL     OW34112   0.157   2.417   2.909  0.3336 -0.5140 -0.2719
 9624SOL    HW134113   0.186   2.339   2.963 -1.5351 -1.1656 -0.1563
 9624SOL    HW234114   0.147   2.497   2.968  0.3102 -0.6959 -0.0288
 9625SOL     OW34115   9.846   3.572   2.828 -0.1686  0.3636 -0.3003
 9625SOL    HW134116   9.861   3.663   2.790 -1.0497  0.1425 -1.1826
 9625SOL    HW234117   9.918   3.510   2.796 -0.2789  0.4486 -0.7095
 9626SOL     OW34118   3.623   9.916   0.704 -0.2313  0.6737  0.3246
 9626SOL    HW134119   3.565   9.990   0.735 -1.8409 -0.7072  0.6893
 9626SOL    HW234120   3.683   9.948   0.630 -3.1694  1.5286 -1.7594
 9628SOL     OW34121   2.612   5.184   2.924  0.4582  0.4310  0.0341
 9628SOL    HW134122   2.627   5.085   2.924  0.6961  0.4637  0.8828
 9628SOL    HW234123   2.533   5.206   2.868 -0.7886 -0.4240  1.4314
 9629SOL     OW34124   5.336   2.417   1.158  0.1055 -0.3193 -0.3157
 9629SOL    HW134125   5.261   2.403   1.094 -0.1398 -0.7085  0.0509
 9629SOL    HW234126   5.396   2.490   1.125 -1.2724  1.0426  0.1518
 9631SOL     OW34127   3.210   3.606   0.948  0.2436 -0.3037  0.6449
 9631SOL    HW134128   3.143   3.616   1.021 -0.4117  1.2104 -0.1312
 9631SOL    HW234129   3.249   3.514   0.950 -1.6121 -1.0899  1.3128
 9632SOL     OW34130   7.007   9.566   4.564 -0.2275 -0.0286 -0.0981
 9632SOL    HW134131   6.943   9.643   4.576  0.0189  0.4834 -1.9132
 9632SOL    HW234132   6.978   9.511   4.486  0.5824 -0.7818  0.1292
 9633SOL     OW34133   9.965   9.314   2.921  0.1321 -0.1592 -0.0999
 9633SOL    HW134134   9.986   9.362   3.006  0.2975 -1.2095  0.4628
 9633SOL    HW234135   9.967   9.215   2.937 -2.3711 -0.3421 -0.7274
 9634SOL     OW34136   1.303   4.175   6.749 -0.1483 -0.1502  0.2757
 9634SOL    HW134137   1.278   4.138   6.660 -0.5844 -0.0309  0.3474
 9634SOL    HW234138   1.260   4.264   6.762  0.5992  0.2204  0.2568
 9635SOL     OW34139   1.948   3.489   4.530  0.2463  0.4853 -0.3433
 9635SOL    HW134140   1.849   3.477   4.521  0.0603  1.0177  1.0168
 9635SOL    HW234141   1.982   3.541   4.452 -0.9380  2.5878  0.5160
 9638SOL     OW34142   7.015   1.138   1.852 -0.3322 -0.0710  0.3059
 9638SOL    HW134143   7.054   1.192   1.927 -0.8456 -0.6788  1.0205
 9638SOL    HW234144   6.934   1.089   1.885 -0.5527 -0.3503 -0.6483
 9639SOL     OW34145   0.413   2.348   4.731 -0.4554 -0.1633 -0.2494
 9639SOL    HW134146   0.457   2.344   4.821 -1.5145  1.4482  0.3691
 9639SOL    HW234147   0.347   2.273   4.723  0.6876 -1.1770 -0.2609
 9641SOL     OW34148   5.611   0.085   0.951  0.0883 -0.1190 -0.6390
 9641SOL    HW134149   5.632   0.001   1.000 -0.4211  0.0279 -0.1757
 9641SOL    HW234150   5.676   0.156   0.978 -1.0506  0.3649  0.8764
 9642SOL     OW34151   4.041   2.154   1.077 -0.1297 -0.0953 -0.2377
 9642SOL    HW134152   4.082   2.079   1.026  1.3868  0.0552  0.7205
 9642SOL    HW234153   4.076   2.153   1.171 -0.6212  1.3971 -0.0273
 9643SOL     OW34154   7.847   7.923   2.612  0.8009 -0.0645  0.0336
 9643SOL    HW134155   7.799   7.935   2.525  0.5869  0.4932  0.2247
 9643SOL    HW234156   7.934   7.973   2.609  0.9530 -0.3305  0.0144
 9644SOL     OW34157   4.360   3.051   2.266 -0.3157  0.1528  0.1084
 9644SOL    HW134158   4.308   3.101   2.335 -2.0530  0.7147 -1.5696
 9644SOL    HW234159   4.370   2.955   2.296 -2.5829 -0.0406  0.3318
 9645SOL     OW34160   9.322   4.536   1.770  0.2989 -0.1976 -0.0705
 9645SOL    HW134161   9.247   4.483   1.809 -0.1556 -0.7143 -1.5920
 9645SOL    HW234162   9.404   4.478   1.765 -0.3316 -0.9614 -2.1944
 9646SOL     OW34163   9.434   4.414   4.542  0.6378 -0.2980  1.1673
 9646SOL    HW134164   9.496   4.353   4.590  0.4719 -2.4746 -1.2854
 9646SOL    HW234165   9.340   4.382   4.554  0.6252 -1.0866 -0.8410
 9648SOL     OW34166   3.508   3.446   1.079  0.0736  0.7459  0.7591
 9648SOL    HW134167   3.516   3.411   1.172 -3.2058 -0.6128  0.5903
 9648SOL    HW234168   3.539   3.376   1.014  0.6848  1.0175  0.7604
 9649SOL     OW34169   3.787   4.514   1.546 -0.2030 -0.3152 -0.7224
 9649SOL    HW134170   3.755   4.607   1.561  0.3170 -0.1331 -0.7452
 9649SOL    HW234171   3.734   4.472   1.472 -2.0075 -0.8339  0.8035
 9650SOL     OW34172   8.109   3.531   4.725 -0.7160 -0.4725 -0.4196
 9650SOL    HW134173   8.160   3.617   4.719 -0.3965 -0.6152  0.2729
 9650SOL    HW234174   8.146   3.465   4.660  1.1202 -1.1731  1.3137
 9651SOL     OW34175   2.485   0.223   1.065 -0.1113 -0.5134 -0.1276
 9651SOL    HW134176   2.432   0.174   0.996 -0.9644  0.8240 -0.4331
 9651SOL    HW234177   2.575   0.247   1.029 -0.9423  1.1167 -1.1685
 9653SOL     OW34178   9.848   0.119   5.088  0.1176  0.5043 -0.5759
 9653SOL    HW134179   9.752   0.096   5.073  0.3662 -0.2401 -1.0749
 9653SOL    HW234180   9.886   0.160   5.006 -0.3007  2.6824  0.2872
 9654SOL     OW34181   6.779   6.785   4.623 -0.3698  0.1482  0.0565
 9654SOL    HW134182   6.869   6.773   4.583  0.5748  3.1845  1.0896
 9654SOL    HW234183   6.714   6.814   4.552  0.2401  1.0855 -0.1297
 9655SOL     OW34184   2.941   9.839   0.285  0.1661  0.0708 -0.2257
 9655SOL    HW134185   2.988   9.917   0.328  0.5534  0.3095 -1.0786
 9655SOL    HW234186   2.875   9.873   0.218 -1.2664 -0.2591  0.9919
 9656SOL     OW34187   6.626   0.702   4.058  0.0698 -0.0427 -0.2777
 9656SOL    HW134188   6.693   0.719   4.130 -0.8489  1.7920  0.1742
 9656SOL    HW234189   6.534   0.712   4.096 -0.4300 -0.0070 -1.4887
 9657SOL     OW34190   3.031   5.919   2.267  0.2679  0.1340  0.7327
 9657SOL    HW134191   2.967   5.848   2.238  1.5687  0.2687 -2.7550
 9657SOL    HW234192   3.125   5.886   2.258  0.7856  0.9117  3.0360
 9658SOL     OW34193   7.566   3.450   4.316 -0.0645 -0.3788 -0.7001
 9658SOL    HW134194   7.633   3.401   4.372  1.6645  1.0377 -1.4746
 9658SOL    HW234195   7.491   3.482   4.374  0.2478 -1.4148  0.2965
 9659SOL     OW34196   7.593   9.854   2.017 -0.4573 -0.1791  0.3494
 9659SOL    HW134197   7.531   9.805   1.956 -0.5159  0.2387  0.0662
 9659SOL    HW234198   7.632   9.932   1.968 -1.2734  0.7386  1.1504
 9660SOL     OW34199   0.657   1.747   4.129 -0.2226 -0.0742  0.0897
 9660SOL    HW134200   0.588   1.695   4.181  1.3584 -0.4474  1.8635
 9660SOL    HW234201   0.677   1.699   4.044 -0.5325 -1.1383  0.6018
 9661SOL     OW34202   1.232   0.215   0.928  0.0837  0.0493  0.3434
 9661SOL    HW134203   1.170   0.268   0.986 -1.5665 -1.1751 -0.2444
 9661SOL    HW234204   1.179   0.145   0.879  1.9667 -1.1013 -0.0798
 9663SOL     OW34205   9.251   7.415   1.136 -0.7912 -0.0325 -0.1123
 9663SOL    HW134206   9.311   7.360   1.079 -0.9777 -0.4989  0.1422
 9663SOL    HW234207   9.276   7.512   1.128 -1.0564 -0.0590 -1.2745
 9664SOL     OW34208   8.234   7.163   3.795 -0.1010 -0.4396  0.0041
 9664SOL    HW134209   8.164   7.219   3.838  0.7410  0.3878  0.3150
 9664SOL    HW234210   8.285   7.114   3.867  0.4339 -0.0936 -0.1397
 9665SOL     OW34211   9.351   0.029   5.204  0.2800 -0.5837  0.0491
 9665SOL    HW134212   9.356  -0.070   5.213  1.1694 -0.7186 -1.7312
 9665SOL    HW234213   9.430   0.071   5.249  1.5725 -0.8874 -1.8938
 9666SOL     OW34214   0.252   7.696   2.024 -0.0896 -0.1925 -0.4767
 9666SOL    HW134215   0.202   7.767   2.075  1.5735  0.1144  0.7599
 9666SOL    HW234216   0.254   7.720   1.927 -3.0596 -0.6456 -0.7029
 9667SOL     OW34217   9.012   6.101   0.255  0.1972 -0.3868 -0.0409
 9667SOL    HW134218   9.019   6.007   0.222  0.1202 -0.9949  1.6764
 9667SOL    HW234219   8.918   6.121   0.281  0.6464 -0.5826  1.7850
 9668SOL     OW34220   4.047   5.950   3.087  0.2705 -0.0301 -0.2222
 9668SOL    HW134221   4.019   6.045   3.083 -0.0993 -0.1130  0.3627
 9668SOL    HW234222   4.147   5.945   3.094  0.3950  0.2736 -1.7697
 9669SOL     OW34223   2.699   3.643   1.909 -0.1678 -0.2988  0.5044
 9669SOL    HW134224   2.685   3.563   1.968 -0.6891 -0.9787 -0.5151
 9669SOL    HW234225   2.654   3.627   1.821  0.4252  0.7834 -0.0015
 9670SOL     OW34226   0.349   2.623   2.821  0.3805  0.2704 -0.4803
 9670SOL    HW134227   0.279   2.561   2.857 -0.0281  0.2270 -1.3455
 9670SOL    HW234228   0.370   2.598   2.726 -0.1131  1.7332 -0.9831
 9671SOL     OW34229   8.671   5.273   0.443  0.2077 -0.5429  0.4786
 9671SOL    HW134230   8.687   5.242   0.537  0.4500 -1.4045  0.1541
 9671SOL    HW234231   8.700   5.369   0.434  0.5123 -0.5684  1.1885
 9672SOL     OW34232   9.639   1.158   2.109 -0.0654  0.3745 -0.2055
 9672SOL    HW134233   9.626   1.113   2.021 -1.2723 -0.4123  0.3761
 9672SOL    HW234234   9.724   1.125   2.151 -0.2163 -0.2851 -0.4212
 9673SOL     OW34235   9.000   7.385   3.324  0.4065 -0.5279  0.0380
 9673SOL    HW134236   9.015   7.420   3.417  2.5323  0.3215 -0.5850
 9673SOL    HW234237   9.027   7.456   3.258 -1.2433 -1.0625 -1.2307
 9674SOL     OW34238   1.568   4.013   4.467 -0.2912 -0.6634  0.8926
 9674SOL    HW134239   1.512   3.946   4.418 -0.4605  0.2173 -0.1396
 9674SOL    HW234240   1.509   4.066   4.529 -0.9225  1.2652 -1.2711
 9675SOL     OW34241   5.671   7.419   4.791 -0.2924 -0.2432 -0.6307
 9675SOL    HW134242   5.626   7.446   4.705 -0.3386  0.5947 -0.3452
 9675SOL    HW234243   5.760   7.377   4.770  1.2044  2.9535 -0.9689
 9676SOL     OW34244   4.779   9.789   4.578 -0.5323  0.7833  0.0740
 9676SOL    HW134245   4.800   9.765   4.483 -2.0602  1.6643 -0.5050
 9676SOL    HW234246   4.841   9.740   4.640 -0.0599 -0.4193 -1.3320
 9677SOL     OW34247   9.730   9.287   4.702 -0.7372  0.4070  0.8689
 9677SOL    HW134248   9.790   9.364   4.725 -2.4498  1.5736  1.5176
 9677SOL    HW234249   9.783   9.216   4.656  1.0577  1.5830  1.0823
 9679SOL     OW34250   1.087   9.649   2.274 -0.3512  0.0671  0.4480
 9679SOL    HW134251   1.053   9.633   2.181  1.7725 -1.2211 -0.1353
 9679SOL    HW234252   1.069   9.568   2.330  0.7483 -0.1909  0.4325
 9680SOL     OW34253   9.436   2.874   2.382  0.5129 -0.2964 -0.1647
 9680SOL    HW134254   9.454   2.898   2.287 -1.0357  0.4310 -0.2898
 9680SOL    HW234255   9.500   2.923   2.442  1.8898 -1.2242 -0.8538
 9681SOL     OW34256   7.295   2.066   0.864  0.2302 -0.2339 -0.0739
 9681SOL    HW134257   7.389   2.100   0.856 -0.1878  1.1236  0.8765
 9681SOL    HW234258   7.275   2.046   0.959 -0.1457 -1.4237 -0.3948
 9682SOL     OW34259   0.692   8.193   3.636 -0.0621  0.2541  0.0730
 9682SOL    HW134260   0.620   8.195   3.705  0.5188  0.5913  0.6761
 9682SOL    HW234261   0.771   8.246   3.668  0.8718 -0.9746 -0.1180
 9683SOL     OW34262   3.002   4.595   2.053  0.5784  0.1849  0.1408
 9683SOL    HW134263   3.100   4.574   2.053  0.8144  1.1028  2.8875
 9683SOL    HW234264   2.984   4.668   1.988  1.7565  0.1959 -0.1897
 9684SOL     OW34265   3.608   0.888   3.580  0.5351  0.1013  0.2915
 9684SOL    HW134266   3.532   0.929   3.630  1.5561  0.4556  1.5817
 9684SOL    HW234267   3.667   0.838   3.643  2.7105  1.8690 -0.2704
 9685SOL     OW34268   2.817   2.892   2.555  0.0659 -0.1283  0.0255
 9685SOL    HW134269   2.779   2.800   2.540 -1.1466  0.4566 -0.5073
 9685SOL    HW234270   2.743   2.957   2.569  0.9260  0.7751  0.4587
 9686SOL     OW34271   0.945   6.238   3.737 -0.1888 -0.0923  0.4597
 9686SOL    HW134272   0.858   6.243   3.687  0.4039  0.5505 -0.5122
 9686SOL    HW234273   0.930   6.190   3.823 -1.1961 -1.3371 -0.3827
 9687SOL     OW34274   3.162   8.809   0.255 -0.2931 -0.0808 -0.0740
 9687SOL    HW134275   3.136   8.853   0.342 -0.6595  0.4825 -0.4640
 9687SOL    HW234276   3.152   8.710   0.263 -1.0113  0.0189  0.2971
 9688SOL     OW34277   3.066   1.936   4.373  0.2288 -0.4851 -0.3562
 9688SOL    HW134278   2.988   1.955   4.434  0.6812  0.9871 -0.2101
 9688SOL    HW234279   3.064   1.840   4.346 -2.0426 -0.3106 -0.9122
 9689SOL     OW34280   2.927   4.046   2.230 -0.1051  0.4995 -0.8282
 9689SOL    HW134281   2.913   4.008   2.138 -2.0650  1.4396 -0.9409
 9689SOL    HW234282   2.960   3.974   2.291  0.4847 -0.3120 -2.0820
 9690SOL     OW34283   8.230   3.666   4.160  0.5305  0.1083 -0.2846
 9690SOL    HW134284   8.160   3.634   4.225  1.1437  1.5752  1.1168
 9690SOL    HW234285   8.204   3.755   4.124  1.1869  0.1992 -0.5338
 9691SOL     OW34286   8.839   6.658   3.389  0.8970 -0.6272 -0.2775
 9691SOL    HW134287   8.902   6.735   3.389  1.6373 -1.2282 -0.3905
 9691SOL    HW234288   8.765   6.675   3.323 -0.6999  1.3785  1.9698
 9692SOL     OW34289   5.357   8.065   2.356 -0.1264  0.0523 -0.1048
 9692SOL    HW134290   5.413   8.076   2.437  0.5197  1.7938 -0.7667
 9692SOL    HW234291   5.412   8.081   2.274 -1.3586  0.8568 -0.8048
 9693SOL     OW34292   3.512   1.504   2.394 -0.5255 -0.1465  0.4772
 9693SOL    HW134293   3.470   1.593   2.377 -0.1288 -0.0871 -0.1931
 9693SOL    HW234294   3.577   1.512   2.470 -1.5287 -0.1816  1.3378
 9694SOL     OW34295   2.294   3.041   2.459  0.2916 -0.0938  0.0957
 9694SOL    HW134296   2.374   3.046   2.519 -0.2898  1.2130  0.7649
 9694SOL    HW234297   2.231   2.972   2.493  1.1998 -1.2548 -0.5307
 9695SOL     OW34298   9.610   5.736   0.474  0.9951  0.0945  0.8604
 9695SOL    HW134299   9.591   5.834   0.464 -0.3972 -0.2214  0.2014
 9695SOL    HW234300   9.704   5.717   0.446  0.5264  0.8963 -1.3897
 9696SOL     OW34301   2.903   9.383   4.278  0.2387 -0.0153 -0.2234
 9696SOL    HW134302   2.923   9.461   4.219 -0.6003  1.0513  0.8524
 9696SOL    HW234303   2.927   9.406   4.372  0.1899 -1.1446  0.0751
 9698SOL     OW34304   4.355   4.884   4.680  0.6245  0.3128 -0.8580
 9698SOL    HW134305   4.295   4.957   4.711  0.3813  0.3000 -1.2991
 9698SOL    HW234306   4.333   4.800   4.729  0.3020  0.3160 -0.9962
 9699SOL     OW34307   9.950   5.121   0.532  0.5636  0.9260  0.3197
 9699SOL    HW134308  10.036   5.073   0.548 -0.0447 -0.0401  0.7018
 9699SOL    HW234309   9.937   5.190   0.604  0.2745  0.0239  1.1420
 9700SOL     OW34310   6.406   1.102   4.793 -0.0900 -0.1991 -0.3979
 9700SOL    HW134311   6.427   1.023   4.737  0.2083 -1.1474  1.0136
 9700SOL    HW234312   6.431   1.083   4.888 -3.9286 -0.0039  0.7252
 9701SOL     OW34313   1.992   0.596   5.289  0.4955  0.2523 -0.2194
 9701SOL    HW134314   2.072   0.542   5.263  0.5258  0.2926 -0.2110
 9701SOL    HW234315   1.915   0.535   5.309  0.3220  0.2407 -0.9060
 9702SOL     OW34316   0.895   0.367   1.595  0.4067  0.0574  0.1035
 9702SOL    HW134317   0.994   0.372   1.582  0.2618  0.5174 -0.8241
 9702SOL    HW234318   0.864   0.273   1.582  0.8116 -0.2148  1.0611
 9703SOL     OW34319   4.755   3.064   3.629  0.0399 -0.0835 -0.0544
 9703SOL    HW134320   4.766   3.162   3.614 -0.3838  0.0225  0.3063
 9703SOL    HW234321   4.720   3.021   3.545  0.2543  0.0679 -0.2211
 9704SOL     OW34322   0.509   6.000   1.073 -0.1407  0.0443  0.5288
 9704SOL    HW134323   0.583   5.989   1.139 -1.4669 -0.8961  1.8929
 9704SOL    HW234324   0.474   6.094   1.078  1.0348  0.5318 -0.2193
 9705SOL     OW34325   8.945   2.885   3.090 -0.0165 -0.6153 -0.7774
 9705SOL    HW134326   8.906   2.795   3.111 -2.0079  0.0662 -1.3840
 9705SOL    HW234327   8.885   2.932   3.024  0.3387  1.6490  0.4794
 9706SOL     OW34328   0.343   6.030   4.329  0.1145 -0.6804  0.4798
 9706SOL    HW134329   0.400   5.998   4.253 -0.9243 -1.6412  0.0951
 9706SOL    HW234330   0.303   5.952   4.376 -0.1046 -0.0447  1.3593
 9708SOL     OW34331   7.764   7.145   5.095  0.2102  0.8989 -0.4148
 9708SOL    HW134332   7.734   7.049   5.095  1.0408  0.6314 -1.3077
 9708SOL    HW234333   7.713   7.196   5.026 -1.4251  1.4988  1.1981
 9709SOL     OW34334   3.417   9.717   0.628 -0.6289  0.1099 -0.1479
 9709SOL    HW134335   3.442   9.641   0.569 -1.0721 -0.8483  0.8801
 9709SOL    HW234336   3.498   9.773   0.647 -0.4722  0.3860 -1.5838
 9710SOL     OW34337   5.882   0.510   1.519 -0.0664  0.1195 -0.6873
 9710SOL    HW134338   5.836   0.596   1.541  0.4401  0.9622 -2.8090
 9710SOL    HW234339   5.981   0.521   1.529 -0.0812 -0.6791  0.5038
 9711SOL     OW34340   9.532   1.685   1.884 -0.6089  0.2226 -0.3102
 9711SOL    HW134341   9.570   1.777   1.885 -0.0161 -0.0286  1.0517
 9711SOL    HW234342   9.514   1.655   1.978  0.7226 -1.6715 -0.6309
 9712SOL     OW34343   1.971   7.171   1.313 -0.5568  0.2621  0.8153
 9712SOL    HW134344   1.901   7.105   1.341 -1.2976  0.9767  0.6530
 9712SOL    HW234345   1.934   7.232   1.244  0.5732 -0.0525 -0.0834
 9713SOL     OW34346   9.253   8.855   4.083  0.5206  0.5599 -0.5701
 9713SOL    HW134347   9.209   8.942   4.104 -2.2140 -0.8328 -0.3778
 9713SOL    HW234348   9.279   8.810   4.168  1.3482  0.8670 -0.6529
 9714SOL     OW34349   0.455   0.778   1.339  0.4216  0.2678  0.0364
 9714SOL    HW134350   0.358   0.804   1.341  0.3017 -0.2773  1.1875
 9714SOL    HW234351   0.465   0.690   1.293  0.5339  0.9901 -1.3583
 9715SOL     OW34352   8.757   9.625   3.245  0.4242  0.4925 -0.1905
 9715SOL    HW134353   8.686   9.575   3.294  0.1674  0.7872 -0.2580
 9715SOL    HW234354   8.781   9.577   3.161  0.2517  0.4346 -0.2049
 9716SOL     OW34355   6.823   1.723   4.564 -0.6981 -0.1995  0.2622
 9716SOL    HW134356   6.910   1.673   4.575 -0.3845  0.0180 -1.1746
 9716SOL    HW234357   6.753   1.660   4.531 -0.4290  0.2018 -1.0743
 9717SOL     OW34358   4.433   0.227   2.482 -0.3233  0.2478  0.4808
 9717SOL    HW134359   4.462   0.162   2.411 -1.6259 -0.1322  0.2844
 9717SOL    HW234360   4.421   0.179   2.568 -2.2449  0.0147  0.1096
 9718SOL     OW34361   2.678   1.218   2.782 -0.1957  0.2047 -1.0983
 9718SOL    HW134362   2.582   1.237   2.762 -0.0546  1.8867 -0.2784
 9718SOL    HW234363   2.717   1.162   2.708 -1.5860  0.1887 -1.8339
 9719SOL     OW34364   9.539   5.498   1.263  0.0878 -0.3069  0.1644
 9719SOL    HW134365   9.460   5.553   1.292  0.7138  0.0488  1.2298
 9719SOL    HW234366   9.518   5.401   1.271 -0.5793 -0.2254 -0.5073
 9720SOL     OW34367   1.547   4.206   0.725 -0.1541 -0.4443  0.4208
 9720SOL    HW134368   1.624   4.144   0.739 -0.5631 -1.2486 -0.8716
 9720SOL    HW234369   1.523   4.209   0.628  0.6505  2.6925  0.2441
 9721SOL     OW34370   1.659   1.630   1.029 -0.0309  0.4244  0.1428
 9721SOL    HW134371   1.746   1.603   0.988  0.4940  2.2612 -0.0124
 9721SOL    HW234372   1.671   1.643   1.128 -0.3039 -0.0191  0.2351
 9722SOL     OW34373   1.657   1.029   1.633  0.2245 -0.2623  0.1470
 9722SOL    HW134374   1.751   1.065   1.629  0.1684  0.1124  1.6565
 9722SOL    HW234375   1.595   1.104   1.656 -0.3115 -0.7143  0.1584
 9723SOL     OW34376   4.683   9.713   3.640  0.5777 -0.6492  0.0541
 9723SOL    HW134377   4.610   9.676   3.582 -0.3817  0.0900  0.7613
 9723SOL    HW234378   4.765   9.657   3.631 -0.0871 -1.5050 -0.7473
 9724SOL     OW34379   4.727   1.870   3.446 -0.0443  0.4245 -0.4402
 9724SOL    HW134380   4.768   1.831   3.528  1.5525  0.0790 -1.3811
 9724SOL    HW234381   4.773   1.956   3.423 -1.5924  1.3837 -0.0396
 9725SOL     OW34382   8.358   9.974   4.672  0.3947  0.1043 -0.3586
 9725SOL    HW134383   8.402   9.893   4.634  1.8691  0.9639 -0.5012
 9725SOL    HW234384   8.334  10.037   4.598  1.3539  0.8304 -0.0566
 9726SOL     OW34385   3.372   6.468   5.190 -0.6540 -0.7914 -0.1746
 9726SOL    HW134386   3.435   6.545   5.203 -1.1322 -0.4054 -0.0989
 9726SOL    HW234387   3.283   6.492   5.229 -1.0880 -1.0076 -1.0142
 9727SOL     OW34388   2.847   9.148   0.316 -0.3075  0.4896 -0.1142
 9727SOL    HW134389   2.942   9.135   0.287 -0.7914 -2.8353 -0.4562
 9727SOL    HW234390   2.833   9.104   0.405 -1.9394 -0.6335 -0.9045
 9728SOL     OW34391   7.165   8.042   3.559  0.3421  0.2569  0.4247
 9728SOL    HW134392   7.160   7.944   3.573  0.2254  0.1648 -0.2478
 9728SOL    HW234393   7.084   8.086   3.599  0.4529  0.0952  0.8272
 9729SOL     OW34394   0.456   6.871   0.850 -0.1318  1.1202 -0.8017
 9729SOL    HW134395   0.390   6.853   0.777 -1.4358  2.8779 -0.0867
 9729SOL    HW234396   0.427   6.824   0.933  0.8831 -0.1593 -1.1534
 9731SOL     OW34397   3.102   8.689   2.144 -0.2710  0.7732 -0.4054
 9731SOL    HW134398   3.069   8.703   2.238 -0.1978 -0.7951 -0.1268
 9731SOL    HW234399   3.133   8.775   2.106  1.6040  1.0769  1.7434
 9732SOL     OW34400   9.376   4.376   1.335 -0.4087 -0.4364  0.3576
 9732SOL    HW134401   9.438   4.453   1.352 -1.4996  0.2192  1.4467
 9732SOL    HW234402   9.417   4.292   1.369  1.0084 -0.4352 -1.2904
 9733SOL     OW34403   8.343   7.879   2.126  0.0973  0.9232  0.2239
 9733SOL    HW134404   8.381   7.788   2.140 -2.2518 -0.1961 -0.4297
 9733SOL    HW234405   8.251   7.883   2.165 -0.9211  2.1485 -2.2028
 9734SOL     OW34406   5.565   1.130   3.443 -0.1866  0.1527 -0.1959
 9734SOL    HW134407   5.614   1.043   3.439 -0.9279 -0.3377  0.8005
 9734SOL    HW234408   5.500   1.136   3.368 -0.9392 -0.6746  0.3781
 9735SOL     OW34409   3.860   3.119   4.641 -0.0181 -0.1279  0.2730
 9735SOL    HW134410   3.921   3.186   4.683 -0.7413  0.9373 -0.3509
 9735SOL    HW234411   3.785   3.167   4.594 -1.3171 -1.3987  0.9978
 9736SOL     OW34412   0.316   9.601   0.218 -0.3810 -0.0866 -0.4411
 9736SOL    HW134413   0.386   9.537   0.250  0.3927  0.9431 -0.0585
 9736SOL    HW234414   0.225   9.561   0.234 -0.0376  0.3290  3.0366
 9737SOL     OW34415   9.730   6.342   2.130 -0.1577 -0.1458  0.0864
 9737SOL    HW134416   9.726   6.277   2.206 -1.5139  0.7970  0.8366
 9737SOL    HW234417   9.768   6.429   2.163 -4.0579  1.4801  0.6323
 9738SOL     OW34418   8.789   8.455   3.707 -0.1320 -0.2642  0.6527
 9738SOL    HW134419   8.819   8.362   3.685 -1.7171 -0.5260 -0.4207
 9738SOL    HW234420   8.697   8.452   3.744 -0.6604  0.9857 -0.5380
 9739SOL     OW34421   0.536   2.976   4.065 -0.2612 -0.3686  0.2354
 9739SOL    HW134422   0.569   2.936   4.150  0.5756  0.0749  0.1334
 9739SOL    HW234423   0.585   3.062   4.048 -0.2295 -0.5830 -0.8176
 9740SOL     OW34424   1.778   1.419   0.719 -0.1085  0.4186  0.4987
 9740SOL    HW134425   1.833   1.430   0.802  0.8137 -1.1700  0.1038
 9740SOL    HW234426   1.702   1.485   0.721  0.4346  1.0224  2.1572
 9741SOL     OW34427   3.174   4.813   0.978 -0.3771 -0.0833 -0.2874
 9741SOL    HW134428   3.166   4.713   0.984 -0.0644 -0.1518 -0.8689
 9741SOL    HW234429   3.150   4.854   1.065 -1.0939 -0.6327 -0.2200
 9742SOL     OW34430   9.608   2.877   1.528  0.4221 -0.1334 -0.5845
 9742SOL    HW134431   9.676   2.897   1.457 -0.7255 -1.7761 -2.1953
 9742SOL    HW234432   9.518   2.869   1.486 -0.8069  1.9939  1.5357
 9743SOL     OW34433   4.283   5.163   4.744 -0.2546 -0.1462  0.4300
 9743SOL    HW134434   4.269   5.211   4.658  0.5259  0.7353  0.7838
 9743SOL    HW234435   4.335   5.221   4.807  0.0625 -1.1641  1.1317
 9744SOL     OW34436   3.908   0.618   2.994  0.6541 -0.7303 -0.0760
 9744SOL    HW134437   3.872   0.576   3.078 -0.0177 -2.8153 -1.3709
 9744SOL    HW234438   3.834   0.664   2.946  1.1403  0.8974  0.7026
 9745SOL     OW34439   3.697   7.799   2.239 -0.1765  0.3651 -0.0314
 9745SOL    HW134440   3.765   7.777   2.169  1.1019  0.6789  1.0931
 9745SOL    HW234441   3.661   7.891   2.223  1.0517  0.9391  0.4529
 9746SOL     OW34442   3.286   6.743   2.102 -0.0711 -0.0218  0.4477
 9746SOL    HW134443   3.276   6.714   2.197 -1.6690 -0.9547  0.0092
 9746SOL    HW234444   3.196   6.762   2.063  0.3132 -2.5151 -1.7666
 9748SOL     OW34445   0.272   6.959   2.780  0.2314 -0.1841 -0.1949
 9748SOL    HW134446   0.284   6.889   2.850  0.6741 -0.2744 -0.3595
 9748SOL    HW234447   0.178   6.957   2.746 -0.2884  0.5416  1.1313
 9749SOL     OW34448   2.172   1.702   2.715  0.1195  0.5159  0.4714
 9749SOL    HW134449   2.175   1.792   2.672  0.7060  0.1129 -0.3534
 9749SOL    HW234450   2.092   1.651   2.682  0.2057  0.4548  0.3555
 9751SOL     OW34451   1.318   9.994   1.127 -0.4706 -0.0852 -0.2811
 9751SOL    HW134452   1.386  10.064   1.149 -0.1588 -0.6715  0.6477
 9751SOL    HW234453   1.346   9.906   1.166  0.6176 -1.4248 -3.9242
 9752SOL     OW34454   1.057   6.870   1.438 -0.3660 -0.2427  0.5349
 9752SOL    HW134455   1.120   6.877   1.515 -2.3786 -0.1839  2.2325
 9752SOL    HW234456   1.047   6.960   1.394 -0.3366  0.0439  1.1177
 9753SOL     OW34457   2.236   7.665   1.131 -0.3557 -0.3676 -0.0289
 9753SOL    HW134458   2.228   7.765   1.142 -1.7191 -0.5118  0.3761
 9753SOL    HW234459   2.311   7.632   1.187 -1.5279  0.1078  1.8530
 9754SOL     OW34460   0.025   3.687   0.133 -0.1656 -0.1899  0.0056
 9754SOL    HW134461  -0.009   3.622   0.065  1.1417 -2.1609  1.2235
 9754SOL    HW234462   0.125   3.688   0.132 -0.1501  0.7737  0.9807
 9755SOL     OW34463   3.776   9.860   1.121 -0.2472  0.2847 -0.1897
 9755SOL    HW134464   3.856   9.876   1.063  0.4274 -0.4442  0.5316
 9755SOL    HW234465   3.704   9.817   1.066  0.2338 -0.0171 -0.5890
 9756SOL     OW34466   2.398   4.898   5.091  0.1775 -0.0079  0.1618
 9756SOL    HW134467   2.483   4.879   5.140 -0.9085 -0.8942  1.7482
 9756SOL    HW234468   2.419   4.926   4.998  2.1904 -0.5636  0.4225
 9757SOL     OW34469   6.437   8.830   4.494 -0.2347 -0.0303 -0.3044
 9757SOL    HW134470   6.360   8.810   4.433 -1.2728  0.5885  0.7836
 9757SOL    HW234471   6.416   8.796   4.586  1.1763 -0.6558 -0.1944
 9758SOL     OW34472   0.307   6.204   3.626 -0.1080 -0.2649  0.3983
 9758SOL    HW134473   0.356   6.164   3.703 -0.1671  0.6734  0.9293
 9758SOL    HW234474   0.247   6.277   3.659  0.6974  0.8976 -0.6615
 9759SOL     OW34475   8.341   0.219   3.360  0.1469 -0.0647  0.1473
 9759SOL    HW134476   8.306   0.274   3.436  0.3362  2.5596 -1.5969
 9759SOL    HW234477   8.265   0.181   3.309  0.0022 -0.6162  0.7594
 9760SOL     OW34478   5.235   9.921   2.714  0.1705  0.3727  0.0125
 9760SOL    HW134479   5.330   9.892   2.728  0.3226  1.5183  1.4952
 9760SOL    HW234480   5.214   9.922   2.616  1.9212  0.8294 -0.3714
 9761SOL     OW34481   8.305   6.777   0.456  0.2954  0.1574  0.6282
 9761SOL    HW134482   8.293   6.686   0.416 -1.9384  0.6347  0.1508
 9761SOL    HW234483   8.376   6.773   0.526 -0.5687 -2.2370  1.4420
 9762SOL     OW34484   2.323   4.409   1.578  0.0196 -0.2278 -0.3345
 9762SOL    HW134485   2.304   4.479   1.509  1.3806 -1.7089 -2.2695
 9762SOL    HW234486   2.409   4.430   1.624  0.2678 -0.4544 -0.6939
 9764SOL     OW34487   4.483   9.305   2.621  0.1425 -0.2280 -0.0027
 9764SOL    HW134488   4.485   9.328   2.524  1.1587 -0.9634 -0.1631
 9764SOL    HW234489   4.538   9.223   2.637  1.0254  0.6106  1.3746
 9765SOL     OW34490   3.401   5.825   5.109 -0.0379 -0.5003  0.1172
 9765SOL    HW134491   3.420   5.918   5.078 -3.5344  0.0436 -0.5607
 9765SOL    HW234492   3.367   5.827   5.203 -1.7969 -0.9032 -0.4942
 9766SOL     OW34493   1.612   1.807   5.168 -0.1829 -0.3845  0.3297
 9766SOL    HW134494   1.517   1.791   5.140  0.0188 -0.1900 -0.5042
 9766SOL    HW234495   1.636   1.746   5.243 -1.3013  0.3253  1.2703
 9767SOL     OW34496   4.185   4.549   1.172 -0.2409 -0.3344 -0.0974
 9767SOL    HW134497   4.134   4.466   1.146 -2.1795  1.2820 -1.6150
 9767SOL    HW234498   4.152   4.626   1.118  1.1791  1.5546  1.6733
 9768SOL     OW34499   3.931   2.101   3.165  0.3317  0.3676 -0.1382
 9768SOL    HW134500   3.933   2.011   3.209 -2.5841  0.1600 -0.2961
 9768SOL    HW234501   3.924   2.172   3.235  0.1791  0.3135 -0.0974
 9770SOL     OW34502   4.379   2.293   1.397 -0.8749  0.3788  1.0321
 9770SOL    HW134503   4.286   2.291   1.434 -1.0701 -0.4685  0.5100
 9770SOL    HW234504   4.435   2.225   1.444 -0.7366  0.3387  0.8115
 9771SOL     OW34505   3.011   3.078   3.614 -0.3387  0.3611  0.6226
 9771SOL    HW134506   3.070   3.145   3.569  1.5239 -0.7821  1.2964
 9771SOL    HW234507   3.060   3.037   3.692 -2.3416  0.0059  1.7268
 9772SOL     OW34508   0.556   6.614   1.618 -0.2239  0.7080 -0.4295
 9772SOL    HW134509   0.642   6.660   1.597  0.6768  1.0264  3.5867
 9772SOL    HW234510   0.496   6.676   1.669 -2.4279  0.1017 -2.1586
 9773SOL     OW34511   9.301   8.292   2.524 -0.0818  0.3128  0.1284
 9773SOL    HW134512   9.349   8.378   2.536  0.2224  0.3114 -1.0810
 9773SOL    HW234513   9.283   8.276   2.427  2.0371 -2.1350  0.0685
 9774SOL     OW34514   9.187   7.137   3.409  0.4607 -0.0811 -0.1800
 9774SOL    HW134515   9.281   7.165   3.389  0.5265 -0.7290 -0.7871
 9774SOL    HW234516   9.124   7.211   3.384  0.7619  0.1211 -0.3423
 9775SOL     OW34517   1.007   4.515   4.837 -0.5534  0.0031 -0.2083
 9775SOL    HW134518   0.913   4.488   4.859 -0.4478  0.4791  0.8984
 9775SOL    HW234519   1.051   4.549   4.920  0.9353 -1.1700 -0.5079
 9776SOL     OW34520   8.269   1.707   2.125 -0.1985 -0.3513 -0.2104
 9776SOL    HW134521   8.179   1.669   2.102 -1.3328  1.4517  1.1067
 9776SOL    HW234522   8.263   1.756   2.212  1.8522  0.6324 -0.5947
 9777SOL     OW34523   5.000   5.797   1.403  0.1358  1.2762 -0.0942
 9777SOL    HW134524   4.921   5.767   1.349  1.9550 -0.5355 -1.8494
 9777SOL    HW234525   5.032   5.885   1.369  0.4874  0.7520 -1.1419
 9778SOL     OW34526   2.320   1.089   3.738  0.1556 -0.2504  0.4557
 9778SOL    HW134527   2.252   1.157   3.767  0.2881 -0.7832  2.0582
 9778SOL    HW234528   2.411   1.122   3.761  0.2074 -1.0551  1.4372
 9779SOL     OW34529   2.299   6.514   1.048  0.3922 -1.2602 -0.2487
 9779SOL    HW134530   2.379   6.500   1.106  0.3849 -2.0157 -0.4034
 9779SOL    HW234531   2.219   6.532   1.105  0.7677  0.0142 -0.1154
 9780SOL     OW34532   6.910   3.314   0.646  0.0591  0.4023  0.0303
 9780SOL    HW134533   6.835   3.364   0.690 -0.0608 -0.6561  1.0406
 9780SOL    HW234534   6.974   3.379   0.606 -1.6557  1.3134 -1.2780
 9782SOL     OW34535   1.204   8.320   1.819 -0.1001 -0.2553  0.4579
 9782SOL    HW134536   1.210   8.331   1.918  0.2564 -0.2936  0.4415
 9782SOL    HW234537   1.239   8.230   1.793  0.9379  0.2216  0.1781
 9784SOL     OW34538   8.952   9.256   2.942 -0.0111  0.5920  0.0230
 9784SOL    HW134539   8.886   9.209   3.001  1.5428 -1.3270  0.2889
 9784SOL    HW234540   8.933   9.235   2.846 -0.3171  0.7424  0.0517
 9785SOL     OW34541   2.890   1.847   1.781  0.5137  0.0405 -0.3763
 9785SOL    HW134542   2.829   1.768   1.787  1.2474 -0.4527  0.6311
 9785SOL    HW234543   2.980   1.817   1.746  0.6344  0.5203 -0.4823
 9786SOL     OW34544   1.921   0.717   0.012  0.3302  0.4033  0.0728
 9786SOL    HW134545   2.015   0.747   0.028  0.2841 -0.6109  2.3145
 9786SOL    HW234546   1.918   0.617   0.008 -0.3423  0.4856 -2.1166
 9787SOL     OW34547   4.728   1.678   2.740  0.4166 -0.5401  0.5092
 9787SOL    HW134548   4.691   1.587   2.722 -2.5080  0.9328 -1.5070
 9787SOL    HW234549   4.713   1.702   2.836  0.9157 -2.0445  0.9649
 9789SOL     OW34550   5.346   0.120   0.874 -0.2020 -0.2925  0.3264
 9789SOL    HW134551   5.428   0.072   0.903 -0.3591 -0.0341  1.2325
 9789SOL    HW234552   5.370   0.191   0.807  0.0903 -1.2966 -0.6459
 9790SOL     OW34553   8.107   5.717   1.513 -0.0819 -0.7152 -0.1737
 9790SOL    HW134554   8.092   5.650   1.586 -0.1932 -1.8216 -1.2049
 9790SOL    HW234555   8.193   5.765   1.530 -0.9335  0.2629  1.6092
 9791SOL     OW34556   1.588   5.676   2.820  0.2604 -0.2531  0.0320
 9791SOL    HW134557   1.536   5.639   2.743  2.2137  0.7461 -1.8020
 9791SOL    HW234558   1.558   5.770   2.838 -1.0360 -0.8819  1.3204
 9792SOL     OW34559   8.501   7.397   2.373 -0.1492  0.3206 -0.0484
 9792SOL    HW134560   8.450   7.415   2.458 -0.1663 -2.4161  0.5721
 9792SOL    HW234561   8.598   7.388   2.394 -0.0585  0.4143 -0.4326
 9793SOL     OW34562   2.233   3.925   5.019  0.5303 -0.0276  0.7076
 9793SOL    HW134563   2.321   3.971   5.009  1.3982 -1.5550  1.0318
 9793SOL    HW234564   2.244   3.828   4.995 -0.9776 -0.3189  1.1398
 9794SOL     OW34565   0.070   2.076   0.237 -0.1340 -0.0271 -0.0849
 9794SOL    HW134566   0.105   2.166   0.264 -0.5611  0.2131 -0.3234
 9794SOL    HW234567   0.085   2.063   0.139 -2.3966  0.8670 -0.5765
 9796SOL     OW34568   0.761   3.703   4.396 -0.7950  0.2445  0.3007
 9796SOL    HW134569   0.707   3.713   4.312  0.0399 -0.4945 -0.3345
 9796SOL    HW234570   0.858   3.697   4.372 -0.6427 -1.1371  1.2306
 9797SOL     OW34571   4.269   0.841   3.219 -0.3800 -0.1182  0.3802
 9797SOL    HW134572   4.263   0.817   3.122  1.8845  1.9063 -0.3199
 9797SOL    HW234573   4.266   0.758   3.274  1.0240 -1.5240 -1.5760
 9798SOL     OW34574   5.827   1.621   2.934  0.2303 -0.0754  0.2624
 9798SOL    HW134575   5.811   1.541   2.993 -1.0867 -0.6823 -0.8945
 9798SOL    HW234576   5.790   1.604   2.843  3.8538  0.1589 -1.3323
 9799SOL     OW34577   1.466   7.498   3.409  0.4332  0.1248  0.5189
 9799SOL    HW134578   1.464   7.425   3.341 -1.8250 -0.4644  1.1820
 9799SOL    HW234579   1.535   7.477   3.478  2.1336  0.3008 -1.0788
 9800SOL     OW34580   4.471   2.494   3.918 -0.5671  0.6292 -0.2440
 9800SOL    HW134581   4.415   2.577   3.909 -0.8564  0.4335 -0.2534
 9800SOL    HW234582   4.411   2.415   3.932 -0.2212  0.6262  1.2108
 9806SOL     OW34583   0.215   0.538   0.229 -0.4096 -0.0099  0.2127
 9806SOL    HW134584   0.248   0.453   0.269 -1.2247 -0.6430 -0.4434
 9806SOL    HW234585   0.163   0.589   0.298 -2.6417 -1.5555 -0.2736
 9807SOL     OW34586   6.113   0.809   3.924  0.5579 -0.2831 -0.1483
 9807SOL    HW134587   6.071   0.756   3.850 -2.1815  1.1260  0.3553
 9807SOL    HW234588   6.068   0.787   4.010  3.3315 -1.4717  1.0890
 9808SOL     OW34589   2.675   4.753   4.897  0.4729  0.1764  0.0772
 9808SOL    HW134590   2.737   4.720   4.968  0.2864 -0.7659 -0.1831
 9808SOL    HW234591   2.631   4.675   4.852  0.9198  0.7413 -1.3728
 9809SOL     OW34592   7.836   1.974   2.878 -0.7434 -0.8980  0.3077
 9809SOL    HW134593   7.757   1.934   2.925 -1.5820 -2.3722 -2.2560
 9809SOL    HW234594   7.805   2.049   2.820  0.1938  0.4801  1.5547
 9810SOL     OW34595   1.242   7.931   4.667 -0.7538 -0.4954  0.1285
 9810SOL    HW134596   1.317   7.883   4.712 -0.2176  1.1230  1.0134
 9810SOL    HW234597   1.218   7.883   4.582  0.2379 -1.8908  0.6200
 9811SOL     OW34598   9.940   3.176   3.722  0.0533 -0.5315 -0.0303
 9811SOL    HW134599   9.856   3.193   3.672  0.1609  0.4119  0.0955
 9811SOL    HW234600   9.969   3.081   3.708 -0.1355 -0.3883 -1.4188
 9813SOL     OW34601   1.726   0.720   1.553  0.5595 -0.0235 -0.6796
 9813SOL    HW134602   1.700   0.639   1.500 -0.3776 -0.2242  0.0699
 9813SOL    HW234603   1.776   0.784   1.494 -1.3677  0.2361 -2.1013
 9815SOL     OW34604   1.106   2.263   1.134 -0.0781 -0.1530  0.0845
 9815SOL    HW134605   1.068   2.202   1.203 -2.5067  0.6383 -0.4915
 9815SOL    HW234606   1.147   2.343   1.179  1.5974 -1.3626  0.7488
 9816SOL     OW34607   4.320   1.807   3.826 -0.1123 -0.2765 -0.4868
 9816SOL    HW134608   4.299   1.722   3.874 -0.4990  1.1804  1.9960
 9816SOL    HW234609   4.236   1.857   3.807  0.2771  0.7475  0.3821
 9817SOL     OW34610   4.543   4.241   1.137  0.7226 -1.0125  0.8343
 9817SOL    HW134611   4.558   4.183   1.216 -0.2867 -0.1134  1.7093
 9817SOL    HW234612   4.551   4.187   1.053 -0.2038 -2.4113  1.6278
 9821SOL     OW34613   4.041   1.126   4.078  0.1871  0.6797  0.0700
 9821SOL    HW134614   4.037   1.201   4.145  1.8618  0.5775  0.3044
 9821SOL    HW234615   4.100   1.054   4.113 -1.0360 -0.5526 -0.3767
 9822SOL     OW34616   1.569   4.058   1.212  0.4796 -0.7347  0.4471
 9822SOL    HW134617   1.516   4.139   1.187  1.1177 -0.6024 -0.4999
 9822SOL    HW234618   1.511   3.977   1.206  0.0236 -0.4328  0.7339
 9823SOL     OW34619   0.173   1.328   4.221  0.1112 -0.2409 -0.6569
 9823SOL    HW134620   0.245   1.281   4.171  0.6251  1.5161 -1.5929
 9823SOL    HW234621   0.183   1.308   4.319  0.9396 -1.2435 -0.9350
 9824SOL     OW34622   1.824   8.065   3.251 -0.2791 -0.0329 -0.6611
 9824SOL    HW134623   1.829   8.148   3.306  0.2514 -1.0695  0.8581
 9824SOL    HW234624   1.756   8.003   3.290 -0.2186 -0.5955 -1.4327
 9825SOL     OW34625   9.444   2.557   3.513  0.2139  0.1931 -0.0489
 9825SOL    HW134626   9.440   2.638   3.455  0.1002  1.1921  1.3429
 9825SOL    HW234627   9.539   2.531   3.527  0.2177 -0.5679 -1.3672
 9826SOL     OW34628   8.014   4.334   3.084 -0.5652 -0.3646 -0.0925
 9826SOL    HW134629   8.002   4.320   3.182  1.4651  0.6875  0.3479
 9826SOL    HW234630   8.039   4.430   3.067 -0.1850 -0.7083 -1.5610
 9827SOL     OW34631   1.634   1.224   3.282  0.2173  0.3749 -0.1267
 9827SOL    HW134632   1.696   1.146   3.292  1.1979  1.0092 -1.2053
 9827SOL    HW234633   1.655   1.292   3.352 -1.1053 -0.6084  1.2721
 9828SOL     OW34634   6.832   2.986   2.737 -0.7564  0.4224 -0.0747
 9828SOL    HW134635   6.752   2.932   2.710 -1.4783  1.2063  0.4753
 9828SOL    HW234636   6.816   3.026   2.827 -0.6920  2.4915 -0.9706
 9829SOL     OW34637   5.488   9.917   3.317 -0.6346  0.1204  0.4223
 9829SOL    HW134638   5.522   9.934   3.225 -1.0375  0.6525  0.3702
 9829SOL    HW234639   5.556   9.865   3.368 -0.1019  0.4405  0.0472
 9831SOL     OW34640   8.284   7.803   2.846 -0.1045  0.3470 -0.1103
 9831SOL    HW134641   8.314   7.755   2.928  0.7029  3.3235  1.4227
 9831SOL    HW234642   8.345   7.782   2.770 -1.0859 -2.7392 -0.0964
 9832SOL     OW34643   8.405   7.587   0.888 -0.3973  0.5292  0.6496
 9832SOL    HW134644   8.408   7.504   0.831 -1.0848  0.8165  0.1863
 9832SOL    HW234645   8.382   7.562   0.981  0.6765  0.0588  0.7969
 9833SOL     OW34646   4.734   9.064   3.879 -0.1098  0.4771  0.1453
 9833SOL    HW134647   4.729   9.028   3.972  0.0210  0.5294  0.1730
 9833SOL    HW234648   4.747   8.988   3.815  2.9127  0.6848  0.4426
 9834SOL     OW34649   8.010   0.264   4.525  0.7555  0.2436  0.0879
 9834SOL    HW134650   8.064   0.347   4.511 -2.0436  2.1431  0.1446
 9834SOL    HW234651   8.051   0.189   4.473  2.8983  1.8405 -0.6125
 9835SOL     OW34652   0.109   9.371   1.257 -0.2299 -1.0317  0.2939
 9835SOL    HW134653   0.076   9.334   1.170 -0.1607 -0.9009  0.2131
 9835SOL    HW234654   0.206   9.351   1.267 -0.0469 -0.3362 -0.0307
 9836SOL     OW34655   9.384   1.816   2.812  0.1869 -0.2241  0.1583
 9836SOL    HW134656   9.346   1.726   2.833 -0.1987 -0.0314  0.2962
 9836SOL    HW234657   9.478   1.806   2.780  0.6712 -0.5665  1.6268
 9837SOL     OW34658   3.390   3.276   2.795 -0.0391 -0.6450  0.2743
 9837SOL    HW134659   3.463   3.250   2.857 -0.6986 -1.4998  0.7050
 9837SOL    HW234660   3.367   3.199   2.736  1.2149  0.4524 -1.6738
 9838SOL     OW34661   7.037   9.774   4.212 -0.0856  0.4169 -0.5073
 9838SOL    HW134662   7.010   9.842   4.280 -0.5356 -0.2894  0.0295
 9838SOL    HW234663   7.135   9.782   4.193 -0.0890  1.0384 -0.2518
 9839SOL     OW34664   2.434   5.099   0.976 -0.2677 -0.3598 -0.1859
 9839SOL    HW134665   2.466   5.005   0.961  1.3118  0.1426 -0.1285
 9839SOL    HW234666   2.374   5.101   1.056  1.3620 -1.0105  1.0998
 9841SOL     OW34667   1.169   3.867   5.206 -0.3227  0.2659 -0.4918
 9841SOL    HW134668   1.156   3.963   5.183  1.2101  0.5102 -0.3577
 9841SOL    HW234669   1.080   3.821   5.210 -1.0847  1.7529 -0.2249
 9842SOL     OW34670   2.749   6.331   3.547 -0.4106 -0.1029 -1.1579
 9842SOL    HW134671   2.714   6.344   3.455 -1.2823  1.1045 -0.6553
 9842SOL    HW234672   2.675   6.343   3.614  0.1134 -1.3795 -0.3102
 9843SOL     OW34673   3.694   8.931   2.577 -0.0122  0.0907 -0.4364
 9843SOL    HW134674   3.704   9.027   2.554  1.0203  0.2302  0.5555
 9843SOL    HW234675   3.603   8.899   2.551 -0.3190  1.3076 -0.8456
 9844SOL     OW34676   1.639   6.342   1.924  0.3645 -0.0895  0.3294
 9844SOL    HW134677   1.734   6.312   1.921  0.5890  0.5515  0.8193
 9844SOL    HW234678   1.607   6.362   1.831  0.8071 -0.0162  0.1939
 9845SOL     OW34679   8.948   7.202   1.114  0.3376 -0.1364 -0.1505
 9845SOL    HW134680   9.017   7.139   1.149 -1.5028 -1.3066  1.4625
 9845SOL    HW234681   8.951   7.287   1.165  0.8404 -0.0308 -0.3510
 9846SOL     OW34682   3.409   8.142   2.356 -0.0327 -0.2116 -0.4501
 9846SOL    HW134683   3.430   8.044   2.351 -0.7762 -0.3843 -0.1833
 9846SOL    HW234684   3.482   8.189   2.406  0.5858 -0.5474 -1.0280
 9847SOL     OW34685   7.709   3.160   4.801 -0.0696  0.1855 -0.0212
 9847SOL    HW134686   7.689   3.245   4.850  0.2155  0.0573  0.3195
 9847SOL    HW234687   7.732   3.089   4.867  0.2566 -0.0060 -0.3434
 9848SOL     OW34688   4.283   2.754   4.706  0.5661  0.3123 -0.3408
 9848SOL    HW134689   4.358   2.818   4.690 -0.5547  1.1157 -2.5411
 9848SOL    HW234690   4.288   2.679   4.640 -1.0572  0.8387 -1.0961
 9849SOL     OW34691   9.151   5.477   5.111  0.0519 -0.3737  0.3465
 9849SOL    HW134692   9.188   5.451   5.200  0.9574 -0.8255 -0.1559
 9849SOL    HW234693   9.197   5.560   5.078 -0.9142  0.3134  0.7019
 9850SOL     OW34694   0.140   9.033   0.791  0.3074  0.0233 -0.6160
 9850SOL    HW134695   0.162   8.936   0.790  1.1575  0.1914  1.1132
 9850SOL    HW234696   0.222   9.086   0.811 -0.3477  1.0426 -0.5922
 9852SOL     OW34697   4.513   3.836   2.066  0.3641 -0.2204  0.4736
 9852SOL    HW134698   4.515   3.935   2.049  1.0844 -0.3308 -0.1110
 9852SOL    HW234699   4.550   3.788   1.986 -0.9303 -1.0179  0.3343
 9853SOL     OW34700   4.543   2.246   2.313 -0.5186  0.4786 -0.0863
 9853SOL    HW134701   4.550   2.338   2.273  1.4914  0.4899  0.2233
 9853SOL    HW234702   4.464   2.242   2.374 -1.7899  1.4034 -1.6326
 9854SOL     OW34703   1.250   7.480   3.220  0.5838  0.0233 -0.3070
 9854SOL    HW134704   1.293   7.488   3.310  0.5778 -2.6603 -0.0428
 9854SOL    HW234705   1.234   7.572   3.183  3.8964  1.1233  0.8131
 9855SOL     OW34706   9.289   8.920   1.475  0.0985 -0.9514  0.2585
 9855SOL    HW134707   9.309   8.989   1.544  0.0366  0.4653 -1.1332
 9855SOL    HW234708   9.190   8.904   1.472 -0.1259  0.5752 -0.9951
 9856SOL     OW34709   1.369   4.576   3.819  0.5052 -0.7027 -0.2692
 9856SOL    HW134710   1.426   4.518   3.877  1.2205 -1.1374 -1.3875
 9856SOL    HW234711   1.369   4.669   3.855  0.3704 -1.1070  0.8181
 9857SOL     OW34712   1.811   0.032   4.076 -0.0638 -0.2503  0.5026
 9857SOL    HW134713   1.747   0.006   4.004 -0.8104 -1.1160  1.4621
 9857SOL    HW234714   1.763   0.087   4.145  0.3784 -0.3399  0.8889
 9858SOL     OW34715   9.970   4.774   1.737 -0.2191 -0.0022  0.4386
 9858SOL    HW134716   9.947   4.811   1.647 -1.5519 -2.2933 -0.2104
 9858SOL    HW234717   9.906   4.808   1.805  0.1752  0.9388  0.3478
 9860SOL     OW34718   2.785   6.671   2.235  0.2771  0.3556 -0.2209
 9860SOL    HW134719   2.696   6.624   2.232 -0.1255  1.1195 -0.3714
 9860SOL    HW234720   2.845   6.633   2.165 -0.0766  0.1328 -0.4062
 9861SOL     OW34721   0.328   6.065   3.382  0.7594  0.4534 -0.0438
 9861SOL    HW134722   0.414   6.020   3.407  0.6774  0.6358  0.5448
 9861SOL    HW234723   0.285   6.103   3.463 -1.1526 -1.8526  0.0855
 9862SOL     OW34724   9.135   9.550   0.776 -0.5181  0.1123  0.3343
 9862SOL    HW134725   9.193   9.630   0.760  0.4427 -0.8136 -1.0223
 9862SOL    HW234726   9.125   9.535   0.874  1.9688  0.0344  0.6226
 9863SOL     OW34727   3.467   9.416   2.613 -0.0105 -0.0320 -0.4455
 9863SOL    HW134728   3.478   9.328   2.660 -2.6293 -0.6400 -0.9098
 9863SOL    HW234729   3.457   9.400   2.515 -1.6744  0.6738 -0.3969
 9864SOL     OW34730   0.894   0.642   4.957 -0.2984 -0.1555  0.0316
 9864SOL    HW134731   0.848   0.730   4.946  1.3477  0.3478 -3.2511
 9864SOL    HW234732   0.980   0.655   5.007 -1.1324 -0.3157  1.5678
 9865SOL     OW34733   3.100   7.472   0.077  0.2514 -0.3253  0.1553
 9865SOL    HW134734   3.088   7.529   0.158  0.8283  1.1992 -0.8222
 9865SOL    HW234735   3.117   7.377   0.106  0.2569  0.1596  1.8070
 9867SOL     OW34736   5.114   9.951   4.123 -0.8748 -0.0635  0.0354
 9867SOL    HW134737   5.166   9.975   4.041  0.9656 -2.9178  0.2888
 9867SOL    HW234738   5.176   9.942   4.201 -1.6959 -3.3946  0.3891
 9869SOL     OW34739   1.756   2.689   3.785  0.8757  0.4853  0.0515
 9869SOL    HW134740   1.743   2.621   3.857 -2.9618 -0.6628 -1.6015
 9869SOL    HW234741   1.780   2.643   3.699  1.0199  1.4761 -0.4475
 9870SOL     OW34742   3.381   8.698   1.928 -0.1317  0.0332  0.1339
 9870SOL    HW134743   3.384   8.601   1.950 -0.3539  0.1698  0.7772
 9870SOL    HW234744   3.465   8.724   1.880  1.0291  0.0283  2.0995
 9872SOL     OW34745   9.085   8.318   0.199 -0.6390  0.1289 -0.1058
 9872SOL    HW134746   9.123   8.292   0.288 -2.2836  0.5480  0.7507
 9872SOL    HW234747   9.157   8.358   0.142  0.2085  0.8578  1.4344
 9873SOL     OW34748   2.851   4.342   0.711 -0.4392 -0.2151  0.5108
 9873SOL    HW134749   2.878   4.430   0.673 -0.5762  0.2669  1.5123
 9873SOL    HW234750   2.770   4.308   0.663  0.2605 -0.3230 -0.6039
 9874SOL     OW34751   9.126   4.399   1.405 -0.2057  0.6285  0.2967
 9874SOL    HW134752   9.221   4.410   1.375 -1.4415 -0.1861 -4.2553
 9874SOL    HW234753   9.091   4.488   1.435  1.5142  1.2419  0.5847
 9875SOL     OW34754   0.142   2.472   1.216 -0.5299  0.2522 -0.5487
 9875SOL    HW134755   0.092   2.540   1.270 -1.7816 -0.8105 -0.3507
 9875SOL    HW234756   0.105   2.471   1.123  0.1937  0.5701 -0.8430
 9876SOL     OW34757   9.908   7.539   0.804 -0.1591  0.6015 -0.1078
 9876SOL    HW134758   9.817   7.556   0.842  0.4016  1.4943  0.8892
 9876SOL    HW234759   9.950   7.462   0.852 -0.6884 -0.3142 -1.1018
 9877SOL     OW34760   3.330   6.547   4.429 -0.3760  0.0754 -0.0753
 9877SOL    HW134761   3.427   6.570   4.420 -0.1982 -0.9643 -0.9726
 9877SOL    HW234762   3.277   6.595   4.359 -0.4916  0.5314  0.3233
 9878SOL     OW34763   9.766   6.771   3.575 -0.6554  0.0510  0.0091
 9878SOL    HW134764   9.806   6.735   3.659  1.5215  0.3417 -0.8642
 9878SOL    HW234765   9.732   6.695   3.519  1.4770 -0.5197 -0.5993
 9879SOL     OW34766   9.460   5.779   4.927 -0.2093 -0.0584  1.2292
 9879SOL    HW134767   9.556   5.758   4.905 -1.7656 -4.5920 -2.0273
 9879SOL    HW234768   9.428   5.854   4.868  0.9974  0.7812  1.6177
 9880SOL     OW34769   7.862   1.053   1.539  0.2403  0.1330 -0.0081
 9880SOL    HW134770   7.905   1.142   1.524  1.9661 -0.4540  1.2168
 9880SOL    HW234771   7.836   1.014   1.451  3.3070  0.0341 -0.9468
 9881SOL     OW34772   0.384   9.710   2.096 -0.0751  0.2706 -0.3979
 9881SOL    HW134773   0.376   9.645   2.172  0.4787 -0.2599 -0.7827
 9881SOL    HW234774   0.309   9.696   2.031 -0.8594  1.0930  0.3228
 9883SOL     OW34775   0.367   5.075   0.711 -0.0637  0.0065 -0.2016
 9883SOL    HW134776   0.291   5.053   0.772 -0.4981  2.5771  0.2748
 9883SOL    HW234777   0.331   5.108   0.624  0.4408  1.8635  0.2598
 9884SOL     OW34778   3.471   3.633   5.268 -0.4274  0.5519 -0.5717
 9884SOL    HW134779   3.571   3.640   5.269 -0.4922  1.3535  0.5622
 9884SOL    HW234780   3.435   3.651   5.359 -1.5227 -1.2537 -0.6219
 9885SOL     OW34781   2.609   8.554   2.267 -0.3638 -0.7262  0.4265
 9885SOL    HW134782   2.608   8.462   2.226  0.4124 -0.4484 -0.2210
 9885SOL    HW234783   2.681   8.559   2.336  0.0149 -0.4133  0.0113
 9888SOL     OW34784   9.251   7.771   5.169  0.0492  0.2336 -0.2987
 9888SOL    HW134785   9.183   7.697   5.174 -1.1666  1.2639 -1.5259
 9888SOL    HW234786   9.205   7.859   5.163  1.5042  1.0370  0.0300
 9889SOL     OW34787   8.858   8.815   3.018 -0.1318  0.4418 -0.0467
 9889SOL    HW134788   8.890   8.909   3.037  1.2117 -0.1839  0.8997
 9889SOL    HW234789   8.901   8.752   3.083  0.1823 -1.0389 -1.6505
 9891SOL     OW34790   6.547   2.310   3.909  0.1161 -0.3410 -0.7753
 9891SOL    HW134791   6.607   2.331   3.987 -0.2240  0.2034 -0.6591
 9891SOL    HW234792   6.501   2.223   3.925  1.8735 -1.4386 -1.4586
 9892SOL     OW34793   0.089   0.903   0.871  0.1236 -0.1061 -0.0112
 9892SOL    HW134794   0.099   0.915   0.772 -0.4267  1.0631  0.0633
 9892SOL    HW234795  -0.008   0.909   0.895  0.4203  1.4941  0.8231
 9893SOL     OW34796   3.929   7.952   4.919  0.3220  0.3924  0.1121
 9893SOL    HW134797   3.897   8.024   4.857 -1.4352 -0.9233 -0.5587
 9893SOL    HW234798   4.016   7.915   4.885  0.4239  1.1000 -0.4082
 9895SOL     OW34799   6.275   1.148   1.692  0.1493 -0.1974 -0.3637
 9895SOL    HW134800   6.184   1.127   1.655  0.2530  0.2594 -0.8870
 9895SOL    HW234801   6.277   1.244   1.721 -0.8060 -1.2206  3.4143
 9896SOL     OW34802   3.052   8.877   3.360  0.2334  0.2320  0.1697
 9896SOL    HW134803   3.013   8.884   3.451 -0.3818 -2.0833  0.1194
 9896SOL    HW234804   3.129   8.813   3.361  1.5139  1.7314 -0.5400
 9897SOL     OW34805   9.919   8.968   2.314  0.3148  0.0794 -0.2663
 9897SOL    HW134806   9.837   8.934   2.360 -0.8258  0.0853 -2.1992
 9897SOL    HW234807   9.982   9.007   2.381 -0.6187 -1.2522  1.4107
 9898SOL     OW34808   8.651   3.792   5.195  0.2936  0.3977 -0.3166
 9898SOL    HW134809   8.564   3.744   5.189 -0.0450  0.9296  0.2776
 9898SOL    HW234810   8.694   3.773   5.283  1.0991 -0.3908 -0.8647
 9900SOL     OW34811   1.676   4.325   0.414 -0.4588  0.3630  0.1805
 9900SOL    HW134812   1.619   4.406   0.426 -1.5291 -0.3983  0.3426
 9900SOL    HW234813   1.721   4.329   0.325 -1.7094  0.4011 -0.4593
 9901SOL     OW34814   8.416   1.947   4.030 -0.5201 -0.0425 -0.7178
 9901SOL    HW134815   8.389   1.853   4.010  0.1821 -0.1939 -0.9552
 9901SOL    HW234816   8.493   1.974   3.972  0.6589 -0.0253  0.7870
 9902SOL     OW34817   1.851   6.305   5.128  0.1522  0.0385  0.1369
 9902SOL    HW134818   1.821   6.276   5.038 -1.1934 -1.1274  0.9411
 9902SOL    HW234819   1.784   6.366   5.168  0.8883  0.7905  0.2283
 9904SOL     OW34820   6.437   9.847   4.646  0.4039 -0.3463  0.6371
 9904SOL    HW134821   6.358   9.804   4.604  0.0681 -0.6943  1.6359
 9904SOL    HW234822   6.475   9.788   4.717  1.0609  0.1788  0.7348
 9905SOL     OW34823   1.843   5.206   3.045 -0.0198 -0.1733 -0.5626
 9905SOL    HW134824   1.805   5.140   2.980 -1.1909  2.1568 -2.2847
 9905SOL    HW234825   1.815   5.180   3.138 -0.3912 -2.1351 -1.1940
 9906SOL     OW34826   3.950   0.774   3.440  0.1421 -0.0249 -0.4479
 9906SOL    HW134827   4.050   0.772   3.444  0.2954 -0.0995 -3.2459
 9906SOL    HW234828   3.913   0.706   3.502  1.8040  0.2716  0.9203
 9907SOL     OW34829   8.322   1.267   1.128  0.3061  0.0780 -0.1334
 9907SOL    HW134830   8.351   1.284   1.033 -1.7013 -0.7977 -0.9284
 9907SOL    HW234831   8.240   1.320   1.147  0.2811 -0.3225  0.8824
 9908SOL     OW34832   7.189   7.835   4.418 -0.3125  0.4861 -0.3957
 9908SOL    HW134833   7.276   7.844   4.467  0.7914  1.0507 -2.4181
 9908SOL    HW234834   7.129   7.910   4.445  0.6729  1.3883 -0.6543
 9909SOL     OW34835   8.296   8.517   3.082  0.2368  0.0656  0.6217
 9909SOL    HW134836   8.205   8.548   3.112  1.3430  0.8451  3.3167
 9909SOL    HW234837   8.354   8.596   3.063  0.2414 -0.4309 -1.5336
 9910SOL     OW34838   9.977   2.778   1.696 -0.6254  0.0514 -0.2649
 9910SOL    HW134839   9.959   2.683   1.719 -1.0527 -0.2157 -1.6733
 9910SOL    HW234840   9.947   2.796   1.602  1.8660  0.8935 -0.9275
 9911SOL     OW34841   4.424   8.363   5.280  0.2472 -0.9505  0.2241
 9911SOL    HW134842   4.405   8.460   5.293 -0.3726 -1.2054  1.3361
 9911SOL    HW234843   4.338   8.312   5.278  0.6545 -1.7653  2.1878
 9912SOL     OW34844   9.210   4.377   2.698  0.6065 -0.0269  0.0835
 9912SOL    HW134845   9.154   4.294   2.693  0.2489  0.1613  0.8441
 9912SOL    HW234846   9.151   4.456   2.717  1.1274  0.1563  0.9824
 9915SOL     OW34847   9.048   4.856   1.116 -0.2033 -0.0723  0.1354
 9915SOL    HW134848   9.112   4.793   1.159 -1.0748 -1.5886 -0.7562
 9915SOL    HW234849   9.098   4.934   1.079  0.8121  0.0656  1.7682
 9916SOL     OW34850   4.633   9.566   1.448 -0.1673  0.0777 -0.1197
 9916SOL    HW134851   4.698   9.527   1.513 -0.6529  0.5727  0.6754
 9916SOL    HW234852   4.580   9.492   1.405 -0.9549 -0.1540  1.2367
 9917SOL     OW34853   2.550   2.065   3.736  0.0667 -0.4005 -0.1331
 9917SOL    HW134854   2.558   1.966   3.738 -0.6948 -0.5133 -1.7049
 9917SOL    HW234855   2.581   2.099   3.646 -0.4291  0.7124  0.1056
 9918SOL     OW34856   1.829   2.456   2.180 -0.2186 -0.2343  0.1042
 9918SOL    HW134857   1.848   2.553   2.195 -3.4647  0.5647 -0.5691
 9918SOL    HW234858   1.915   2.408   2.161  1.3826  2.5860 -0.0832
 9920SOL     OW34859   9.755   1.017   1.300  0.3375  0.1129 -0.0537
 9920SOL    HW134860   9.815   0.938   1.299  0.8655  0.4810  1.5470
 9920SOL    HW234861   9.743   1.051   1.206  0.4111 -1.6067 -0.7015
 9923SOL     OW34862   7.923   2.625   5.208 -0.1801  0.1153 -0.1095
 9923SOL    HW134863   7.942   2.677   5.291  1.3690  0.6240 -0.7690
 9923SOL    HW234864   7.838   2.657   5.167 -0.4380  0.5280  0.7417
 9924SOL     OW34865   9.260   4.262   4.882  0.4324  0.4414  0.9690
 9924SOL    HW134866   9.188   4.324   4.914  0.6964  2.2675 -1.7406
 9924SOL    HW234867   9.275   4.190   4.949 -1.6591  1.8888  3.0657
 9926SOL     OW34868   3.493   7.932   0.305 -0.3096  0.3085  0.4626
 9926SOL    HW134869   3.572   7.872   0.316 -0.4317  0.2360  0.9470
 9926SOL    HW234870   3.417   7.898   0.361 -0.0978  1.4154  1.4458
 9927SOL     OW34871   7.287   2.747   1.747  0.2109 -0.0569 -0.0936
 9927SOL    HW134872   7.297   2.807   1.668 -0.2309  0.1147 -0.0185
 9927SOL    HW234873   7.263   2.801   1.827  1.0492 -0.1841  0.2457
 9928SOL     OW34874   3.642   5.851   0.662  0.1842 -0.4248  0.2677
 9928SOL    HW134875   3.559   5.825   0.614  0.3198 -1.2682  0.4677
 9928SOL    HW234876   3.623   5.925   0.726 -0.3352 -0.3868  0.0664
 9929SOL     OW34877   1.571   2.668   2.307  0.0099  0.1036  0.4084
 9929SOL    HW134878   1.590   2.672   2.209  1.2670 -1.6318  0.5585
 9929SOL    HW234879   1.541   2.758   2.339  1.8462  1.2873 -1.1033
 9930SOL     OW34880   2.371   3.257   5.051 -0.4180 -0.4332  0.2489
 9930SOL    HW134881   2.299   3.220   4.992 -0.2067 -0.0927 -0.2221
 9930SOL    HW234882   2.360   3.356   5.060  0.0539 -0.3675  0.0965
 9931SOL     OW34883   3.275   4.529   1.248 -0.1678 -0.6167 -0.2937
 9931SOL    HW134884   3.190   4.554   1.202  0.0741 -0.1429 -0.4822
 9931SOL    HW234885   3.335   4.483   1.183 -1.0026 -2.5990  0.2909
 9932SOL     OW34886   4.837   4.520   3.649 -0.0759 -0.6106 -0.3710
 9932SOL    HW134887   4.856   4.448   3.582  0.7591 -0.5233 -0.2377
 9932SOL    HW234888   4.910   4.522   3.717 -0.1093  0.3312 -0.3503
 9933SOL     OW34889   1.906   2.155   4.268  0.6236 -0.0851  0.5504
 9933SOL    HW134890   1.894   2.057   4.250 -0.3607 -0.1899  1.7337
 9933SOL    HW234891   1.919   2.170   4.366  1.4214  0.9106  0.2959
 9934SOL     OW34892   2.544   9.820   0.688 -0.0121 -0.0633 -0.3980
 9934SOL    HW134893   2.462   9.855   0.642  0.2484 -0.5924 -1.2857
 9934SOL    HW234894   2.623   9.875   0.662  0.7657 -2.4781 -3.4297
 9935SOL     OW34895   8.707   6.230   4.092 -0.0521 -0.5325  0.8982
 9935SOL    HW134896   8.754   6.312   4.125  0.3268 -0.9656  1.4459
 9935SOL    HW234897   8.763   6.185   4.022 -0.3919 -0.1704  0.3892
 9936SOL     OW34898   1.642   5.889   1.277  0.0923  0.1002 -0.2670
 9936SOL    HW134899   1.687   5.833   1.347  0.0094 -0.1527 -0.4157
 9936SOL    HW234900   1.543   5.870   1.279  0.3962 -1.8755 -2.2319
 9937SOL     OW34901   1.585   2.182   0.883 -0.1412  0.1118 -0.1070
 9937SOL    HW134902   1.632   2.186   0.971  1.1524 -1.6587 -0.6737
 9937SOL    HW234903   1.615   2.101   0.833 -0.7251  1.1671 -2.2536
 9938SOL     OW34904   6.770   4.749   0.577 -0.3320  0.0846  0.3570
 9938SOL    HW134905   6.703   4.699   0.630  1.1768 -0.3609  1.8904
 9938SOL    HW234906   6.790   4.836   0.621 -0.3706  0.5020 -0.4322
 9939SOL     OW34907   4.492   4.274   4.968 -0.3889 -0.4046  0.0456
 9939SOL    HW134908   4.458   4.352   5.021  1.1501  0.3818 -0.0807
 9939SOL    HW234909   4.521   4.305   4.878 -0.7124 -1.3092 -0.3704
 9940SOL     OW34910   9.096   8.066   3.470 -0.4538  0.1163  0.1894
 9940SOL    HW134911   9.159   8.076   3.547 -1.1065 -2.6652  1.1255
 9940SOL    HW234912   9.133   7.999   3.406 -3.3164 -3.0633  1.7314
 9941SOL     OW34913   9.046   5.482   0.263 -0.0741  0.1936 -0.0071
 9941SOL    HW134914   9.105   5.403   0.243 -0.0063 -0.1108  1.3545
 9941SOL    HW234915   8.988   5.501   0.183 -0.3060 -1.4332 -0.2491
 9942SOL     OW34916   2.728   4.393   2.590  0.1142  0.3071 -0.4857
 9942SOL    HW134917   2.639   4.436   2.576  0.0277 -0.3368 -2.0977
 9942SOL    HW234918   2.728   4.302   2.549  0.5505 -0.9299  2.2111
 9944SOL     OW34919   1.147   3.918   0.538  0.1429 -0.2871  0.1221
 9944SOL    HW134920   1.098   3.999   0.507 -0.0198 -0.0027  1.0835
 9944SOL    HW234921   1.122   3.840   0.481 -2.8734 -0.5509  1.6872
 9945SOL     OW34922   2.009   5.753   3.605  0.4940  0.2780  0.0921
 9945SOL    HW134923   1.963   5.836   3.572 -1.7387 -0.6409  0.7529
 9945SOL    HW234924   2.086   5.778   3.663  0.1588  1.8990 -0.1429
 9946SOL     OW34925   0.502   4.664   4.446  0.1403  0.1088 -0.1317
 9946SOL    HW134926   0.475   4.760   4.456  1.2302  0.4410 -0.3021
 9946SOL    HW234927   0.601   4.656   4.459  0.3036 -0.7445 -1.7938
 9947SOL     OW34928   4.895   3.840   0.985 -0.4392 -0.5063  0.5057
 9947SOL    HW134929   4.860   3.933   0.993 -2.2074 -0.9712 -1.3436
 9947SOL    HW234930   4.994   3.842   0.967 -1.1955  1.2558 -4.2596
 9948SOL     OW34931   1.875   7.103   0.705  0.1012  0.2460  0.4543
 9948SOL    HW134932   1.897   7.180   0.644  2.5986  0.3383  1.3949
 9948SOL    HW234933   1.777   7.100   0.721 -0.2538  2.0553 -1.1695
 9949SOL     OW34934   2.124   3.917   1.869  0.5000 -0.2355  0.2787
 9949SOL    HW134935   2.136   4.002   1.818  0.6353 -1.1233 -1.1876
 9949SOL    HW234936   2.152   3.930   1.964  1.6421  1.0184 -0.2315
 9951SOL     OW34937   0.478   4.693   0.580  0.4714 -0.1323 -0.1415
 9951SOL    HW134938   0.428   4.703   0.494 -3.2909  2.3254  2.1786
 9951SOL    HW234939   0.533   4.775   0.596 -0.8119  0.5599  0.9066
 9952SOL     OW34940   0.851   2.797   4.181 -0.1650  0.5307  0.3368
 9952SOL    HW134941   0.824   2.701   4.182  1.1910  0.1355  2.0345
 9952SOL    HW234942   0.776   2.854   4.215 -0.4247 -0.1053  0.8312
 9953SOL     OW34943   7.006   4.191   1.000 -0.0835  0.5220  0.0168
 9953SOL    HW134944   7.093   4.239   0.997  0.9339 -1.2838 -0.6597
 9953SOL    HW234945   6.966   4.198   1.091  1.2914  0.5001  0.6241
 9957SOL     OW34946   7.326   1.738   3.153  0.4174 -0.5710  0.3574
 9957SOL    HW134947   7.386   1.818   3.149  0.2239 -0.3729  1.2724
 9957SOL    HW234948   7.248   1.759   3.212 -0.6082 -0.7905 -0.8911
 9958SOL     OW34949   1.526   1.848   0.771  0.7859  0.9544  0.7944
 9958SOL    HW134950   1.519   1.819   0.867  1.9572  0.8848  0.8686
 9958SOL    HW234951   1.552   1.770   0.715  1.6763  1.3305  0.6624
 9959SOL     OW34952   6.093   1.866   4.820 -0.1774  0.4071 -0.2955
 9959SOL    HW134953   6.127   1.788   4.767  0.4677  0.0657  0.6059
 9959SOL    HW234954   6.043   1.928   4.759  1.0984  0.3569 -1.4258
 9960SOL     OW34955   2.174   0.736   1.765 -0.3574  0.1752  0.1203
 9960SOL    HW134956   2.224   0.650   1.769  0.1448  0.3516 -1.6687
 9960SOL    HW234957   2.078   0.719   1.747  0.0020  0.0213 -1.7547
 9961SOL     OW34958   6.628   9.419   2.512  0.0332  0.2437 -0.0606
 9961SOL    HW134959   6.580   9.498   2.473 -0.4305  0.1039  0.2149
 9961SOL    HW234960   6.583   9.335   2.481 -0.0161  0.1180  0.3494
 9962SOL     OW34961   2.218   4.034   0.084 -0.1128  0.5067  0.1192
 9962SOL    HW134962   2.134   3.984   0.063 -0.1618  0.6178  0.0519
 9962SOL    HW234963   2.287   3.970   0.116  0.4587  0.1061 -1.8316
 9963SOL     OW34964   8.824   5.559   0.450  0.0457 -0.0421 -0.0758
 9963SOL    HW134965   8.838   5.564   0.549  1.5542 -1.0025 -0.2153
 9963SOL    HW234966   8.890   5.495   0.410 -0.1496  0.7755 -1.7820
 9964SOL     OW34967   5.695   9.330   4.501 -0.4637  0.1811  0.7982
 9964SOL    HW134968   5.779   9.294   4.541 -1.3266 -0.9049  1.6630
 9964SOL    HW234969   5.648   9.388   4.567  0.6819  2.5979 -0.4273
 9965SOL     OW34970   0.999   6.694   1.019 -0.4222  0.4615  0.0980
 9965SOL    HW134971   0.906   6.720   1.045 -1.1162 -1.5090 -0.3185
 9965SOL    HW234972   1.044   6.649   1.096 -1.3317 -2.4264 -1.0157
 9966SOL     OW34973   9.266   0.639   1.729  0.4734 -1.0034 -0.0679
 9966SOL    HW134974   9.262   0.736   1.753  0.4605 -0.7355 -1.1305
 9966SOL    HW234975   9.312   0.628   1.641 -0.9821 -1.8106 -0.7567
 9968SOL     OW34976   9.909   4.354   0.947  1.0550 -0.3763 -0.5727
 9968SOL    HW134977   9.824   4.405   0.929  2.1131  2.1805  1.4348
 9968SOL    HW234978   9.971   4.366   0.870  1.1226  1.0511 -0.3090
 9969SOL     OW34979   8.054   9.115   1.434 -0.6383  0.6576 -0.3943
 9969SOL    HW134980   7.964   9.101   1.391 -1.4012  0.7005  1.1563
 9969SOL    HW234981   8.062   9.210   1.465 -0.2538  0.5272 -0.0922
 9970SOL     OW34982   1.509   9.564   0.762 -0.2008 -0.3485 -0.1092
 9970SOL    HW134983   1.546   9.501   0.694  1.2979  0.5347 -0.1471
 9970SOL    HW234984   1.483   9.513   0.844 -2.9899 -1.5567 -1.6879
 9971SOL     OW34985   9.056   0.223   2.294  0.6998 -0.5006 -0.3311
 9971SOL    HW134986   9.022   0.276   2.372 -0.5863  0.0272 -1.2245
 9971SOL    HW234987   9.056   0.126   2.317 -1.1631 -0.4971 -0.1795
 9972SOL     OW34988   3.390   3.978   4.492  0.3398  0.0460 -0.3885
 9972SOL    HW134989   3.295   3.959   4.518  0.4261  0.2479  0.0918
 9972SOL    HW234990   3.393   4.060   4.435  0.3521  0.7965  0.6709
 9973SOL     OW34991   1.360   5.595   4.158 -0.4086 -0.2729  0.5960
 9973SOL    HW134992   1.443   5.564   4.203  0.8969  1.9709 -0.1612
 9973SOL    HW234993   1.378   5.609   4.060 -1.7535 -0.0886  0.3581
 9974SOL     OW34994   2.206   7.949   1.167  0.7828  0.6451  0.3172
 9974SOL    HW134995   2.204   7.957   1.267  1.5970 -1.8782  0.5910
 9974SOL    HW234996   2.116   7.971   1.130  0.2986  1.0052  1.6706
 9975SOL     OW34997   1.098   3.255   1.965  0.0463 -0.0245  0.3017
 9975SOL    HW134998   1.042   3.337   1.978  1.2864  0.6500  1.6036
 9975SOL    HW234999   1.040   3.177   1.943 -0.9921  1.6965 -3.6025
 9976SOL     OW35000   2.245   9.741   2.716 -0.1102 -0.1441  0.5059
 9976SOL    HW135001   2.203   9.705   2.633 -0.8910  0.2506  0.7256
 9976SOL    HW235002   2.174   9.757   2.785  0.2451  1.5227  0.5113
 9977SOL     OW35003   2.283   3.988   0.903 -0.1869 -0.5832 -0.4703
 9977SOL    HW135004   2.333   3.911   0.943 -0.2622 -0.5643 -0.3407
 9977SOL    HW235005   2.207   4.013   0.963  0.5804  0.4013  0.1167
 9978SOL     OW35006   2.101   4.936   1.524  0.1503 -0.1676 -0.1557
 9978SOL    HW135007   2.157   5.018   1.536 -0.7747  0.4821 -0.2169
 9978SOL    HW235008   2.085   4.922   1.427 -0.3267  0.0127 -0.1026
 9979SOL     OW35009   4.491   4.506   2.717 -0.9547 -0.5260 -0.3060
 9979SOL    HW135010   4.436   4.424   2.700 -1.7533 -0.2595  0.9054
 9979SOL    HW235011   4.580   4.496   2.674 -0.6482 -2.4979  0.7402
 9981SOL     OW35012   8.819   2.885   4.079  0.3498 -0.2158 -0.9725
 9981SOL    HW135013   8.902   2.857   4.030  1.1417 -0.3420  0.3895
 9981SOL    HW235014   8.805   2.824   4.157 -0.1117  0.7989 -0.2502
 9982SOL     OW35015   0.212   8.778   0.751  0.1651 -0.2675  0.0404
 9982SOL    HW135016   0.238   8.742   0.661  0.9728  0.3201  0.0296
 9982SOL    HW235017   0.265   8.732   0.822 -0.4254 -0.6856  0.2085
 9983SOL     OW35018   1.484   9.814   1.903  0.4764  0.1607  0.3709
 9983SOL    HW135019   1.475   9.862   1.816 -2.7435 -1.7203 -0.4418
 9983SOL    HW235020   1.460   9.718   1.890  1.9937 -0.6130  2.9406
 9984SOL     OW35021   8.309   1.779   2.400 -0.4390 -0.0116  0.4287
 9984SOL    HW135022   8.307   1.684   2.432 -0.4971  0.7606  2.8750
 9984SOL    HW235023   8.256   1.836   2.463  1.9605  2.1071  0.6228
 9985SOL     OW35024   0.847   6.462   2.636  0.5369  0.1101 -0.7447
 9985SOL    HW135025   0.829   6.497   2.728 -0.2239 -0.6924 -0.5830
 9985SOL    HW235026   0.917   6.518   2.592  0.7769  0.6037  0.2582
 9986SOL     OW35027   4.090   5.291   2.106  0.0189  0.2260  0.3260
 9986SOL    HW135028   4.089   5.196   2.073 -0.1886 -0.3092  1.8612
 9986SOL    HW235029   4.003   5.312   2.150  0.6249  0.6436  1.3455
 9987SOL     OW35030   2.460   5.106   1.322  0.4987  0.0660 -0.8311
 9987SOL    HW135031   2.362   5.090   1.323  0.6663 -1.0220  1.4236
 9987SOL    HW235032   2.494   5.115   1.416  2.8682 -1.7519 -1.4400
 9988SOL     OW35033   7.298   0.302   3.973  0.1807  0.2866  0.1355
 9988SOL    HW135034   7.244   0.260   4.047  1.2161  0.6993  1.1382
 9988SOL    HW235035   7.236   0.349   3.910 -0.7926 -0.7984  0.2517
 9989SOL     OW35036   3.557   8.841   3.185  0.6370  0.1158  0.0766
 9989SOL    HW135037   3.652   8.871   3.182  0.9191 -0.6067  1.2976
 9989SOL    HW235038   3.497   8.916   3.157  1.5214  0.7971 -0.0093
 9990SOL     OW35039   7.925   9.423   2.175 -0.2890  0.0778  0.2445
 9990SOL    HW135040   8.020   9.409   2.151 -0.1204 -0.4009  1.1542
 9990SOL    HW235041   7.892   9.508   2.135  1.3581  1.7271  2.2936
 9991SOL     OW35042   3.627   1.404   1.372 -0.1583 -0.0760  0.6229
 9991SOL    HW135043   3.653   1.362   1.459  0.0696 -1.0138  0.1104
 9991SOL    HW235044   3.612   1.333   1.304  0.1303  0.6703 -0.2344
 9992SOL     OW35045   1.811   7.909   0.366 -0.8731 -0.1508  1.0063
 9992SOL    HW135046   1.835   7.816   0.337  0.5080  0.6605 -0.5433
 9992SOL    HW235047   1.727   7.938   0.319 -0.2585  0.0734  0.0317
 9994SOL     OW35048   7.709   9.734   0.645 -0.6583  0.5888  0.6285
 9994SOL    HW135049   7.805   9.732   0.618 -0.8894  2.3199 -0.3501
 9994SOL    HW235050   7.691   9.658   0.709  0.8235 -1.1011 -0.9077
 9995SOL     OW35051   2.517   1.328   2.317  0.1682 -0.1520 -0.3771
 9995SOL    HW135052   2.512   1.231   2.340 -0.6811 -0.0837 -0.2665
 9995SOL    HW235053   2.598   1.345   2.261 -0.5368 -1.2022 -1.7378
 9996SOL     OW35054   0.863   4.088   0.228  0.0128  0.1910 -0.2214
 9996SOL    HW135055   0.823   3.997   0.218  1.1858 -0.2822 -0.8222
 9996SOL    HW235056   0.791   4.156   0.231 -0.8337 -0.6286 -1.3298
 9997SOL     OW35057   0.968   9.725   0.208 -0.0269  0.0338 -0.0407
 9997SOL    HW135058   0.931   9.644   0.255  0.8308 -0.0357  0.5229
 9997SOL    HW235059   0.895   9.768   0.154 -1.5351  1.1478  2.7597
10000SOL     OW35060   8.730   2.631   2.376 -0.1775 -0.1913 -0.3831
10000SOL    HW135061   8.687   2.635   2.466 -2.5102 -0.4888 -1.4332
10000SOL    HW235062   8.763   2.538   2.359  0.3606 -0.1103  0.1969
10001SOL     OW35063   2.833   2.338   0.788  0.3509  0.0538  0.6935
10001SOL    HW135064   2.893   2.314   0.864 -0.2819 -2.0437  0.5607
10001SOL    HW235065   2.779   2.258   0.761 -0.5555  1.1814 -0.9489
10002SOL     OW35066   4.249   2.270   2.084  0.3868  0.1671 -0.1006
10002SOL    HW135067   4.217   2.184   2.044 -0.0778  0.9292 -1.3980
10002SOL    HW235068   4.347   2.280   2.067  0.7363 -0.7543  1.2743
10003SOL     OW35069   2.304   2.581   3.448  0.0856 -0.5269 -0.4950
10003SOL    HW135070   2.320   2.584   3.546  0.8829  0.3705 -0.6440
10003SOL    HW235071   2.243   2.504   3.426 -0.1655 -0.6757  0.6976
10004SOL     OW35072   6.316   7.808   2.171  0.3459  0.0974 -0.4272
10004SOL    HW135073   6.337   7.714   2.197 -0.2173  0.2801  0.7310
10004SOL    HW235074   6.337   7.869   2.247  1.6373  1.0391 -1.5150
10005SOL     OW35075   1.942   7.899   3.507  0.0481 -0.5522  0.1680
10005SOL    HW135076   2.027   7.946   3.527  1.3348 -0.8095 -4.1830
10005SOL    HW235077   1.955   7.800   3.516 -0.1158 -0.5377  0.5804
10006SOL     OW35078   1.096   3.107   1.290 -0.4120 -0.0399  0.3145
10006SOL    HW135079   1.102   3.008   1.302 -0.9392  0.0187  1.1272
10006SOL    HW235080   1.178   3.151   1.326 -0.2852 -0.1661  0.1765
10008SOL     OW35081   0.331   7.108   3.400 -0.0680 -0.0224 -0.0593
10008SOL    HW135082   0.257   7.063   3.350 -0.0480 -0.8803  0.6641
10008SOL    HW235083   0.418   7.089   3.354 -0.4034  1.9785 -1.5922
10009SOL     OW35084   3.110   7.395   0.894 -0.5263  0.1293  0.0744
10009SOL    HW135085   3.207   7.400   0.917 -0.6892 -0.7588  1.0213
10009SOL    HW235086   3.097   7.413   0.797  0.5866  0.2778 -0.0460
10010SOL     OW35087   9.515   5.960   5.155  0.0879 -0.3927 -0.3809
10010SOL    HW135088   9.501   5.885   5.090  1.3789 -0.9712  0.0058
10010SOL    HW235089   9.447   5.953   5.229  0.1957 -1.1683 -0.3550
10011SOL     OW35090   0.199   2.205   4.397  0.0187  0.0131  0.3530
10011SOL    HW135091   0.277   2.143   4.412  0.7348  0.1236 -2.6539
10011SOL    HW235092   0.233   2.292   4.361 -1.3848  0.5559  0.3295
10013SOL     OW35093   3.062   8.301   2.923 -0.2208 -0.2909  0.0814
10013SOL    HW135094   2.970   8.329   2.896  0.4386  1.9426  0.0607
10013SOL    HW235095   3.111   8.267   2.843 -1.0779 -1.6832  0.1311
10014SOL     OW35096   8.743   4.187   4.514  0.4397 -0.1796  0.0006
10014SOL    HW135097   8.822   4.137   4.549  2.2416  1.1353 -2.0552
10014SOL    HW235098   8.707   4.247   4.586  1.5726 -0.4772  0.8309
10015SOL     OW35099   8.173   8.630   3.632  0.4183  0.9088  1.0813
10015SOL    HW135100   8.207   8.538   3.653  2.7130  1.8698  1.6680
10015SOL    HW235101   8.250   8.688   3.604 -1.0337  2.6259  0.6032
10016SOL     OW35102   3.059   1.695   3.365  0.1063 -0.1847  0.2314
10016SOL    HW135103   2.971   1.700   3.412 -0.7132 -1.3855 -1.1203
10016SOL    HW235104   3.045   1.656   3.274  2.3783 -2.6827  0.9097
10017SOL     OW35105   3.154   3.407   4.575  0.8172 -0.1245 -0.3866
10017SOL    HW135106   3.227   3.370   4.518 -0.1203 -1.3764 -0.7939
10017SOL    HW235107   3.104   3.332   4.618  1.2651  0.7878  1.7973
10018SOL     OW35108   3.410   0.312   2.562 -0.3030 -0.0756  0.1597
10018SOL    HW135109   3.465   0.271   2.490  0.8135  0.8009  0.5057
10018SOL    HW235110   3.358   0.241   2.608 -0.6977 -0.6987 -1.2214
10020SOL     OW35111   2.681   0.060   4.163 -0.4632  0.0585 -0.1779
10020SOL    HW135112   2.590   0.075   4.124 -0.4418 -1.3304 -0.7745
10020SOL    HW235113   2.749   0.110   4.109 -0.9927  2.1039  0.9990
10021SOL     OW35114   9.087   8.566   1.070  0.7153 -0.6519 -0.1480
10021SOL    HW135115   9.022   8.558   0.995  1.4655 -2.4481 -0.6385
10021SOL    HW235116   9.066   8.497   1.140  0.9012  0.0557  0.6128
10022SOL     OW35117   6.521   9.000   2.943  0.0966 -0.1053  0.4664
10022SOL    HW135118   6.542   9.053   3.025  0.3322  1.6694 -0.7092
10022SOL    HW235119   6.601   8.999   2.883 -0.0669 -1.4035  0.2713
10023SOL     OW35120   9.572   7.832   2.194  0.2433  0.2022 -0.1499
10023SOL    HW135121   9.562   7.844   2.096 -0.2239 -1.2482 -0.2829
10023SOL    HW235122   9.482   7.824   2.237  0.4959 -2.0320  0.0162
10024SOL     OW35123   4.775   3.150   0.631  0.2277  0.3203  0.0966
10024SOL    HW135124   4.684   3.190   0.620 -0.2891 -0.9111 -0.2807
10024SOL    HW235125   4.769   3.051   0.620  1.5242  0.1623  0.6783
10025SOL     OW35126   8.769   3.747   0.763  0.8805  0.0953 -0.5298
10025SOL    HW135127   8.750   3.701   0.850  1.9574 -1.1750 -0.9421
10025SOL    HW235128   8.700   3.720   0.695 -0.1448  1.3351 -0.0008
10026SOL     OW35129   4.976   9.003   0.497 -0.9083  0.1479  0.0507
10026SOL    HW135130   5.037   9.033   0.424 -0.7321  3.5716  1.5003
10026SOL    HW235131   4.897   8.956   0.458  0.5079 -0.4658 -2.1330
10027SOL     OW35132   0.314   3.221   0.457 -0.1168 -0.3186  0.4416
10027SOL    HW135133   0.382   3.166   0.409  0.3954 -0.5415  1.4106
10027SOL    HW235134   0.360   3.286   0.517 -0.7363 -1.8308  2.6463
10028SOL     OW35135   3.817   8.312   1.818  0.3460  0.6043  0.3113
10028SOL    HW135136   3.898   8.369   1.805  1.6043 -0.9238  1.2255
10028SOL    HW235137   3.767   8.304   1.732  2.1566  0.1063 -0.7334
10030SOL     OW35138   2.827   0.099   1.831  0.1846 -0.8315 -0.0826
10030SOL    HW135139   2.877   0.175   1.874 -1.7506 -0.0400  0.8262
10030SOL    HW235140   2.849   0.014   1.880  1.3926 -0.6598 -0.3114
10032SOL     OW35141   2.102   7.186   4.850  0.3807 -0.5014 -0.3925
10032SOL    HW135142   2.098   7.259   4.782  0.1301 -0.0889  0.0621
10032SOL    HW235143   2.197   7.173   4.879  0.1666  1.0702  1.0532
10033SOL     OW35144   8.299   8.796   3.849  0.4621  0.1263  0.1012
10033SOL    HW135145   8.281   8.811   3.751  0.7706  2.1746  0.3318
10033SOL    HW235146   8.216   8.763   3.894 -0.0087  0.3032 -0.6328
10034SOL     OW35147   3.396   2.216   0.641  0.0820 -0.3165 -0.3204
10034SOL    HW135148   3.377   2.314   0.649  1.3420 -0.2403  1.9414
10034SOL    HW235149   3.339   2.166   0.706 -1.0584 -1.1839 -1.9416
10035SOL     OW35150   8.630   2.442   3.227 -0.0935  0.1699 -0.0794
10035SOL    HW135151   8.684   2.362   3.255 -1.7751 -0.0784  2.5588
10035SOL    HW235152   8.562   2.413   3.159 -0.3042 -0.5226  0.4217
10038SOL     OW35153   3.392   7.335   4.525  0.3835  0.5219 -0.2015
10038SOL    HW135154   3.440   7.310   4.609  1.0132  2.4734  0.0226
10038SOL    HW235155   3.298   7.301   4.529  0.4403  0.5257  1.2529
10039SOL     OW35156   0.226   8.880   2.272 -0.2669 -0.0349 -0.5127
10039SOL    HW135157   0.297   8.826   2.228 -0.4916  0.1377 -1.0809
10039SOL    HW235158   0.177   8.823   2.338 -0.0039 -0.3122 -0.5549
10040SOL     OW35159   9.857   9.655   3.172 -0.5527 -0.7003 -0.1763
10040SOL    HW135160   9.787   9.613   3.115 -1.2594 -0.6491  0.6426
10040SOL    HW235161   9.817   9.680   3.260  0.1972  0.4175 -0.1432
10041SOL     OW35162   9.552   6.307   3.923 -0.2472 -0.1855 -0.4783
10041SOL    HW135163   9.617   6.366   3.875  0.7125 -1.9581 -1.4102
10041SOL    HW235164   9.462   6.313   3.880 -0.3559  1.1621 -0.0887
10043SOL     OW35165   2.689   3.834   2.806  0.3470  0.0881  0.5801
10043SOL    HW135166   2.729   3.925   2.819 -0.5876  0.3305  1.8601
10043SOL    HW235167   2.734   3.770   2.869  0.8840 -0.3073 -0.1976
10044SOL     OW35168   4.322   1.032   2.578 -0.0132  0.1315 -0.5274
10044SOL    HW135169   4.224   1.010   2.579 -0.1580  0.6342 -2.1252
10044SOL    HW235170   4.372   0.961   2.528  0.2099  0.7026 -1.1311
10045SOL     OW35171   2.790   4.664   0.005  0.0964  0.5909  0.0456
10045SOL    HW135172   2.731   4.666   0.086 -2.8619 -0.6055 -1.9990
10045SOL    HW235173   2.846   4.581   0.007  1.0263  1.2389  1.5091
10047SOL     OW35174   0.983   7.973   4.374 -0.3353  0.2833 -0.4922
10047SOL    HW135175   1.031   8.052   4.337 -2.4038  0.9871 -1.7713
10047SOL    HW235176   1.049   7.902   4.399  1.5605  2.3822  0.6674
10048SOL     OW35177   1.036   2.069   3.072 -0.5380 -0.3291 -0.0728
10048SOL    HW135178   1.134   2.049   3.061 -0.6103 -1.1666  0.7602
10048SOL    HW235179   1.003   2.118   2.992  1.0066  1.6754  0.4606
10053SOL     OW35180   2.932   3.907   2.560 -0.2777  0.3280 -0.2350
10053SOL    HW135181   2.979   3.863   2.484 -1.2957 -0.7009 -0.2813
10053SOL    HW235182   2.833   3.902   2.546 -0.4598  0.5810  0.9047
10054SOL     OW35183   1.368   0.326   2.966  0.2786 -0.4792 -0.3059
10054SOL    HW135184   1.370   0.278   3.053 -2.4583  0.5736  0.3687
10054SOL    HW235185   1.462   0.350   2.939  1.1425 -0.8426  2.2882
10055SOL     OW35186   9.501   2.444   2.923 -0.3106 -0.2636  0.3493
10055SOL    HW135187   9.599   2.428   2.912  0.1152  1.2272  1.7785
10055SOL    HW235188   9.469   2.506   2.851 -0.1073 -0.3884  0.1514
10056SOL     OW35189   5.815   9.418   1.294 -0.1342  0.4694  0.2764
10056SOL    HW135190   5.748   9.437   1.221 -0.4549  0.3818  0.5462
10056SOL    HW235191   5.826   9.500   1.350  0.4058  0.6582 -0.1041
10057SOL     OW35192   8.204   0.934   2.193 -0.1758 -0.2374 -0.2154
10057SOL    HW135193   8.237   0.865   2.129 -1.0747  0.5495 -1.5412
10057SOL    HW235194   8.108   0.952   2.176 -1.1686 -1.9193  3.0768
10058SOL     OW35195   7.141   8.802   3.364 -0.0794  0.1459  0.3262
10058SOL    HW135196   7.101   8.755   3.442  0.2123 -0.2868  0.2165
10058SOL    HW235197   7.102   8.894   3.356  0.4629  0.4738  1.4320
10059SOL     OW35198   9.419   9.981   0.248  0.0734 -0.3475 -0.1455
10059SOL    HW135199   9.344   9.965   0.313 -0.7589 -0.4349 -1.1188
10059SOL    HW235200   9.453   9.893   0.215  0.2131 -0.2921 -0.1512
10061SOL     OW35201   4.899   4.995   0.362 -0.1400  0.2644  0.5167
10061SOL    HW135202   4.828   5.064   0.349 -0.4416 -0.0282  0.6017
10061SOL    HW235203   4.939   4.971   0.274 -0.4187  0.1397  0.4247
10063SOL     OW35204   5.380   0.294   3.260  0.5113  0.1794  0.2986
10063SOL    HW135205   5.308   0.254   3.204  0.6955  0.5554 -0.2075
10063SOL    HW235206   5.377   0.253   3.352  1.1634 -1.5271 -0.4206
10065SOL     OW35207   0.341   1.830   2.376  0.3832 -0.0697 -0.5014
10065SOL    HW135208   0.312   1.926   2.378 -1.7131 -0.6768 -0.5058
10065SOL    HW235209   0.371   1.807   2.283 -0.8146  0.1153 -0.9483
10066SOL     OW35210   6.004   0.454   1.116  0.1489  0.1434  0.6426
10066SOL    HW135211   6.066   0.410   1.181 -0.2250  1.5761  2.0210
10066SOL    HW235212   5.976   0.543   1.152  0.0162  1.0290 -1.5592
10067SOL     OW35213   3.264   6.158   1.936 -0.0727 -0.2528  0.1457
10067SOL    HW135214   3.243   6.245   1.981  0.4617 -0.1631  0.2298
10067SOL    HW235215   3.303   6.176   1.846 -3.1024 -0.4614 -1.2643
10068SOL     OW35216   7.630   4.640   0.198 -0.0517 -0.2317 -0.3050
10068SOL    HW135217   7.542   4.609   0.233 -0.4131  1.6797  0.5785
10068SOL    HW235218   7.615   4.713   0.131  0.8542  0.9743  0.7655
10069SOL     OW35219   2.511   1.266   3.292  0.1601 -0.0291  0.0420
10069SOL    HW135220   2.565   1.296   3.213 -0.4142 -0.3294 -0.4704
10069SOL    HW235221   2.434   1.210   3.260 -2.6095  3.3863  0.4231
10070SOL     OW35222   0.607   9.865   2.561 -0.2546  0.3150 -0.5944
10070SOL    HW135223   0.640   9.930   2.493  4.3370 -0.1171  1.0361
10070SOL    HW235224   0.600   9.910   2.650  0.8652 -0.8795  0.1103
10071SOL     OW35225   5.933   2.069   3.109 -0.2010 -0.0950  0.8371
10071SOL    HW135226   5.920   1.987   3.054  0.7550 -0.2006  0.7627
10071SOL    HW235227   5.957   2.146   3.050 -1.5381  0.3474  0.8588
10074SOL     OW35228   0.291   1.164   3.395  0.1438 -0.1411 -0.3519
10074SOL    HW135229   0.277   1.129   3.302 -1.1315 -1.2708  0.2429
10074SOL    HW235230   0.216   1.133   3.454  0.9489  0.5431  1.0597
10075SOL     OW35231   5.226   3.552   3.129 -0.1374 -0.1828  0.0631
10075SOL    HW135232   5.265   3.572   3.039  0.7581 -0.0636  0.4703
10075SOL    HW235233   5.258   3.463   3.160  0.4214  0.2377  0.7217
10076SOL     OW35234   2.360   2.034   0.366 -0.6610 -0.5443  0.1880
10076SOL    HW135235   2.451   2.004   0.340  0.2452  1.0784  1.4340
10076SOL    HW235236   2.308   2.059   0.284 -0.1074 -1.7535 -0.5371
10077SOL     OW35237   7.769   3.794   2.727  0.5048  0.2119 -0.7256
10077SOL    HW135238   7.855   3.838   2.754 -0.0453  0.6602  0.2766
10077SOL    HW235239   7.763   3.704   2.769 -0.1309  0.7189  0.2850
10078SOL     OW35240   0.105   7.043   5.246 -0.0075  0.3125 -0.3723
10078SOL    HW135241   0.049   7.018   5.167  0.5867  1.8906 -1.3174
10078SOL    HW235242   0.148   7.132   5.229  0.9677  0.1683  1.2929
10079SOL     OW35243   0.693   7.201   2.696  0.3322  0.1138 -0.1168
10079SOL    HW135244   0.713   7.151   2.612  0.0619 -0.2848  0.0541
10079SOL    HW235245   0.757   7.277   2.706  0.9849 -0.4216 -0.1897
10080SOL     OW35246   7.426   8.222   2.617  0.5269 -0.5674 -0.2176
10080SOL    HW135247   7.377   8.138   2.596  0.8527 -0.8011 -0.0498
10080SOL    HW235248   7.360   8.295   2.635  0.2420 -0.7787 -0.3856
10081SOL     OW35249   7.533   1.551   1.085 -0.1432 -0.2139  0.1958
10081SOL    HW135250   7.495   1.562   1.177  0.3675 -0.1358  0.4046
10081SOL    HW235251   7.550   1.454   1.067 -1.0726 -0.3090 -0.1593
10082SOL     OW35252   7.086   9.379   5.194 -0.1410  0.4444  0.2058
10082SOL    HW135253   7.125   9.290   5.215  0.2969  0.8782  1.3041
10082SOL    HW235254   7.139   9.422   5.121 -0.4308 -0.2405 -0.4126
10083SOL     OW35255   7.435   9.758   2.490  0.4488  0.6012  0.4815
10083SOL    HW135256   7.431   9.794   2.397 -0.5162 -0.5849  0.0586
10083SOL    HW235257   7.358   9.697   2.506 -0.9933  2.9861  3.0031
10084SOL     OW35258   8.230   1.396   4.719  0.1866  0.2314  0.2225
10084SOL    HW135259   8.318   1.415   4.675  0.7560  1.1876  1.7333
10084SOL    HW235260   8.200   1.477   4.770 -0.0214 -1.1351  2.3028
10085SOL     OW35261   0.057   6.600   1.473 -0.8468  0.2349 -0.6213
10085SOL    HW135262  -0.032   6.631   1.504 -0.8957  0.2556 -0.7837
10085SOL    HW235263   0.114   6.576   1.552 -1.5637 -1.3554 -0.5847
10086SOL     OW35264   8.968   1.129   1.862  0.0730 -0.0390  0.5601
10086SOL    HW135265   9.057   1.166   1.834  0.3931  0.3425  2.0750
10086SOL    HW235266   8.904   1.140   1.786  1.5853 -1.3305 -0.9638
10087SOL     OW35267   7.294   0.027   1.304 -0.4198 -0.0194  0.6799
10087SOL    HW135268   7.260  -0.054   1.353 -1.2477  0.5143  0.9962
10087SOL    HW235269   7.385   0.007   1.267 -0.4453 -0.9622  1.0902
10088SOL     OW35270   3.686   9.579   5.226 -0.1353  0.0171  0.0176
10088SOL    HW135271   3.599   9.630   5.225 -0.5614 -0.6958  0.5873
10088SOL    HW235272   3.670   9.487   5.190  0.5683  0.1612 -0.6876
10089SOL     OW35273   3.250   1.984   1.896 -0.0977  0.9707  0.0426
10089SOL    HW135274   3.350   1.985   1.908 -0.2085  0.8355  0.9886
10089SOL    HW235275   3.207   2.031   1.973 -0.8332 -0.0630  0.2610
10090SOL     OW35276   7.472   8.676   2.343  0.1491  0.2334  0.0604
10090SOL    HW135277   7.478   8.759   2.399 -0.0952  1.5904 -1.8836
10090SOL    HW235278   7.550   8.617   2.364  0.5592  1.1483  1.1789
10091SOL     OW35279   2.488   5.300   5.157  0.0622 -0.4932 -0.5204
10091SOL    HW135280   2.474   5.398   5.169  1.0268 -0.0723 -2.6218
10091SOL    HW235281   2.560   5.268   5.220 -0.2947  0.1147  0.2043
10093SOL     OW35282   8.105   5.713   2.610  0.2989  0.1519  0.3441
10093SOL    HW135283   8.110   5.633   2.670 -0.3137 -0.7280 -0.7587
10093SOL    HW235284   8.178   5.708   2.542  1.7047  1.7253  1.6796
10094SOL     OW35285   1.694   0.934   0.353  0.1363  0.3580  0.4386
10094SOL    HW135286   1.687   0.953   0.451 -4.1214 -1.1270  0.5365
10094SOL    HW235287   1.622   0.983   0.305  0.6575 -0.8673 -1.6273
10096SOL     OW35288   9.553   0.237   1.656  0.2888  0.1388 -0.0312
10096SOL    HW135289   9.631   0.299   1.646  0.0043  0.3390 -1.0695
10096SOL    HW235290   9.553   0.171   1.581  0.7407 -1.3099  1.2183
10097SOL     OW35291   4.478   8.838   2.898 -0.5172  0.4498  0.5381
10097SOL    HW135292   4.439   8.795   2.980 -2.6371 -0.2735 -0.8167
10097SOL    HW235293   4.428   8.807   2.817  1.7992  0.8606 -1.0881
10098SOL     OW35294   1.012   6.570   0.377 -0.0997 -0.0708 -0.2922
10098SOL    HW135295   1.071   6.563   0.458  0.8772  0.8501 -0.9138
10098SOL    HW235296   0.926   6.524   0.395 -0.1616  0.7062  1.5404
10100SOL     OW35297   3.827   3.171   0.009 -0.0066 -0.3310  0.1228
10100SOL    HW135298   3.766   3.104   0.050  0.8929 -1.7868 -0.8946
10100SOL    HW235299   3.922   3.143   0.023  0.4094  1.2062  0.4868
10102SOL     OW35300   3.485   2.911   3.403  0.5218 -0.1834 -0.2345
10102SOL    HW135301   3.445   2.953   3.484  2.4895  0.0517  0.6541
10102SOL    HW235302   3.512   2.817   3.424  0.3220 -0.3811 -0.8553
10103SOL     OW35303   3.604   4.366   3.545  0.2878  0.0959  0.0324
10103SOL    HW135304   3.624   4.464   3.535  1.2253  0.0106  1.0106
10103SOL    HW235305   3.576   4.329   3.457 -2.6158  1.8134  0.1666
10104SOL     OW35306   9.462   0.906   1.497 -0.0466  0.3242 -0.2196
10104SOL    HW135307   9.476   0.886   1.594 -0.4421 -1.4692 -0.5104
10104SOL    HW235308   9.507   0.992   1.474  0.8516  0.2934  1.3383
10105SOL     OW35309   1.874   2.844   2.981 -0.2036 -0.0926  0.2615
10105SOL    HW135310   1.889   2.798   2.893  0.6664  1.2783 -0.3379
10105SOL    HW235311   1.841   2.779   3.048 -0.0751 -1.3406 -0.8688
10107SOL     OW35312   0.800   9.064   0.269  0.4327 -0.5520  0.5615
10107SOL    HW135313   0.856   9.095   0.346 -0.3729 -1.0333  1.3517
10107SOL    HW235314   0.857   9.055   0.187  1.3737 -0.4070  1.1965
10108SOL     OW35315   9.994   9.758   2.195 -0.4757 -0.2798 -0.0429
10108SOL    HW135316   9.909   9.714   2.223 -1.0872  1.5074  0.9188
10108SOL    HW235317  10.068   9.728   2.254 -0.7631 -0.5109  0.1993
10109SOL     OW35318   0.150   3.931   4.132 -0.3410 -0.1209 -0.5714
10109SOL    HW135319   0.192   3.871   4.200 -0.8940 -0.8923 -0.9035
10109SOL    HW235320   0.210   4.009   4.114 -0.1303  0.0191  0.7010
10110SOL     OW35321   4.368   0.804   1.108 -0.0118 -0.3196 -0.2488
10110SOL    HW135322   4.300   0.824   1.037 -1.4626 -2.1965  0.5645
10110SOL    HW235323   4.333   0.733   1.169  2.5612 -1.1016  0.3979
10113SOL     OW35324   8.614   2.150   2.932  0.5617 -0.3026  0.1752
10113SOL    HW135325   8.684   2.178   2.999 -0.6056 -1.1108  1.7600
10113SOL    HW235326   8.578   2.061   2.958 -1.6302  0.4687 -0.1808
10114SOL     OW35327   4.963   9.233   5.223  0.0012  0.1243  0.7942
10114SOL    HW135328   5.020   9.303   5.180  0.9838 -1.0464  0.1570
10114SOL    HW235329   4.867   9.253   5.207  0.3427 -0.9656 -3.0905
10115SOL     OW35330   9.951   9.457   1.715 -0.5177  0.2461 -0.2340
10115SOL    HW135331   9.994   9.524   1.776  0.1945 -0.3586 -0.0639
10115SOL    HW235332  10.006   9.447   1.632 -1.0248  0.4266 -0.5961
10117SOL     OW35333   3.674   1.521   0.460 -0.3524 -0.3300  0.1507
10117SOL    HW135334   3.701   1.606   0.505  0.2938 -0.9281  0.9121
10117SOL    HW235335   3.599   1.478   0.511 -0.2261 -0.5510  0.1536
10118SOL     OW35336   1.667   9.759   2.590  0.2083 -0.0520  1.1049
10118SOL    HW135337   1.629   9.747   2.498  0.5024 -0.8857  1.0877
10118SOL    HW235338   1.594   9.747   2.657  0.3683 -1.3595  1.0574
10119SOL     OW35339   0.471   5.491   1.106  0.5152 -0.1881 -0.2728
10119SOL    HW135340   0.427   5.580   1.106  1.5052  0.3122 -1.1382
10119SOL    HW235341   0.555   5.495   1.052  0.9562 -1.4540  0.2907
10121SOL     OW35342   8.205   3.315   4.603  0.0301  0.7290  0.5337
10121SOL    HW135343   8.145   3.245   4.642  1.2097  0.2302  1.5031
10121SOL    HW235344   8.271   3.272   4.541  0.5450  1.0193  0.8720
10123SOL     OW35345   5.188   6.021   2.241  0.2445  0.0509  0.6171
10123SOL    HW135346   5.284   6.024   2.214  0.4273 -0.1729  1.2301
10123SOL    HW235347   5.146   5.938   2.206  0.2980  0.1032  0.4272
10124SOL     OW35348   5.963   0.298   3.861  0.3730 -0.5112 -0.3906
10124SOL    HW135349   5.985   0.201   3.873  0.3082 -1.0025 -3.7515
10124SOL    HW235350   6.048   0.351   3.857  0.5810 -0.9705 -2.4596
10125SOL     OW35351   0.895   4.131   0.700 -0.1000 -0.3068  0.0843
10125SOL    HW135352   0.863   4.039   0.681 -1.7381  0.2281  0.2286
10125SOL    HW235353   0.881   4.153   0.796  1.8728 -0.5063  0.4499
10126SOL     OW35354   3.517   3.638   4.722  0.3782  0.4379  0.3570
10126SOL    HW135355   3.530   3.656   4.819 -1.8736 -1.2923  1.0237
10126SOL    HW235356   3.560   3.551   4.698  0.2617  0.4837 -0.0238
10127SOL     OW35357   4.267   8.749   0.438 -0.5393  0.1550 -0.0468
10127SOL    HW135358   4.187   8.777   0.491  0.3593  1.9402  0.3931
10127SOL    HW235359   4.335   8.709   0.500 -0.1371  0.7996 -0.0666
10128SOL     OW35360   8.828   0.752   1.713 -0.2297  0.2791 -0.0226
10128SOL    HW135361   8.768   0.831   1.728 -0.6924 -0.2038  0.6953
10128SOL    HW235362   8.849   0.745   1.615 -2.7026 -0.4932 -0.5538
10132SOL     OW35363   5.068   1.517   4.108 -0.7270  0.7757  0.3234
10132SOL    HW135364   5.046   1.579   4.183 -1.5489 -1.2352  1.7869
10132SOL    HW235365   5.126   1.442   4.142 -1.6312 -0.5003 -0.8948
10133SOL     OW35366   1.708   8.465   0.591  0.0561 -0.0403  0.8616
10133SOL    HW135367   1.754   8.514   0.517  0.7195  2.2025  2.6587
10133SOL    HW235368   1.609   8.470   0.578  0.1559  0.7107  0.3349
10134SOL     OW35369   5.606   9.221   4.236  0.2743  0.2962 -0.1099
10134SOL    HW135370   5.526   9.268   4.274 -0.0868 -0.2556 -0.1897
10134SOL    HW235371   5.689   9.265   4.271 -0.0620  1.4198 -0.7250
10135SOL     OW35372   9.199   7.369   5.303  0.7067 -0.2837 -0.5856
10135SOL    HW135373   9.270   7.412   5.358  0.1030 -0.7543  0.5568
10135SOL    HW235374   9.111   7.376   5.349  0.1542 -0.4613 -1.5992
10136SOL     OW35375   6.889   2.622   2.741  0.2830 -0.4343 -0.3782
10136SOL    HW135376   6.941   2.704   2.716 -0.5186  0.7827  1.8525
10136SOL    HW235377   6.853   2.579   2.658  0.0738  1.8851 -1.5162
10138SOL     OW35378   9.557   0.422   2.408  0.4922 -0.8328  0.2423
10138SOL    HW135379   9.581   0.350   2.343  0.6867 -1.1877  0.7063
10138SOL    HW235380   9.462   0.411   2.437  0.1276 -0.1500 -0.6542
10139SOL     OW35381   5.002   3.395   4.697  0.1834 -0.2275 -0.1929
10139SOL    HW135382   5.034   3.486   4.720 -1.9948  0.4879  0.1674
10139SOL    HW235383   4.953   3.398   4.610  0.2933 -1.1046 -0.2921
10140SOL     OW35384   7.603   2.941   2.843 -0.1489  0.4320 -0.2009
10140SOL    HW135385   7.623   3.037   2.820 -0.1086  0.6874  0.8985
10140SOL    HW235386   7.652   2.916   2.926 -1.0337 -0.2285  0.1228
10141SOL     OW35387   2.112   8.920   5.150 -0.2555  0.3148  0.1505
10141SOL    HW135388   2.075   8.880   5.066  0.1794  0.2579 -0.0124
10141SOL    HW235389   2.211   8.905   5.154 -0.0375  1.6965 -0.0849
10142SOL     OW35390   9.584   1.161   3.823  0.6313  0.2135  0.5063
10142SOL    HW135391   9.512   1.108   3.867  0.7468  0.1114  0.5708
10142SOL    HW235392   9.557   1.257   3.819  0.7680  0.2797  1.1037
10143SOL     OW35393   8.451   9.136   3.080  0.3005 -0.5362 -0.0258
10143SOL    HW135394   8.463   9.131   2.981  1.3556 -0.4759  0.0921
10143SOL    HW235395   8.373   9.194   3.101 -0.5570 -1.3839 -0.8468
10146SOL     OW35396   9.434   1.227   3.123 -0.1570  0.2038  0.4889
10146SOL    HW135397   9.517   1.277   3.146  0.2640  0.0198 -0.6018
10146SOL    HW235398   9.380   1.211   3.206  0.4260  1.1565  1.0577
10147SOL     OW35399   7.056   7.848   5.165 -0.2961 -0.1424 -0.0256
10147SOL    HW135400   6.987   7.794   5.116 -0.9363  0.2190  0.4745
10147SOL    HW235401   7.126   7.786   5.202  0.1329 -0.4334 -1.2828
10148SOL     OW35402   8.731   4.028   2.934  0.2045  0.0389 -0.1362
10148SOL    HW135403   8.666   4.062   3.002  0.2444  0.9245 -0.5361
10148SOL    HW235404   8.686   4.020   2.845  0.1616 -1.0872 -0.0280
10149SOL     OW35405   2.288   0.550   1.406 -0.4269 -0.6276  0.0122
10149SOL    HW135406   2.222   0.525   1.477 -1.1150  2.7936  0.6600
10149SOL    HW235407   2.381   0.527   1.438 -0.9369 -1.4960  0.9110
10150SOL     OW35408   8.959   3.630   1.524 -0.6371 -0.2214 -0.1287
10150SOL    HW135409   8.901   3.641   1.443 -0.4512  1.9128 -0.0227
10150SOL    HW235410   8.906   3.652   1.605  0.1035  1.0593  0.0247
10151SOL     OW35411   3.491   7.660   2.078  0.3311 -0.2860 -0.5479
10151SOL    HW135412   3.418   7.639   2.142 -1.0910  0.4458 -1.9076
10151SOL    HW235413   3.558   7.720   2.122 -1.8511  2.1454 -0.4767
10152SOL     OW35414   7.835   1.699   1.132  0.1430 -0.1613  0.3580
10152SOL    HW135415   7.757   1.685   1.194  0.0263  0.6180  0.3957
10152SOL    HW235416   7.801   1.702   1.038 -0.1645  2.1294  0.4938
10153SOL     OW35417   4.708   8.977   1.411  0.1085 -0.4314 -0.3514
10153SOL    HW135418   4.744   8.884   1.398 -0.9040 -0.7817 -0.7312
10153SOL    HW235419   4.780   9.044   1.394  0.8080 -1.1441 -0.2289
10155SOL     OW35420   0.789   3.088   2.515 -0.3841 -0.8120  0.5556
10155SOL    HW135421   0.849   3.166   2.531  0.2972 -1.5566  1.6243
10155SOL    HW235422   0.696   3.121   2.500  0.2621  0.3461 -1.1160
10156SOL     OW35423   1.728   5.929   3.343  0.6785 -0.1843  0.0785
10156SOL    HW135424   1.636   5.960   3.367  0.2083 -0.7450 -0.9643
10156SOL    HW235425   1.783   6.008   3.315  0.7941  0.2713  1.5449
10157SOL     OW35426   4.048   5.326   0.719 -0.6431  0.6530 -0.0586
10157SOL    HW135427   4.077   5.272   0.640 -1.6741 -1.1861  0.7919
10157SOL    HW235428   3.955   5.360   0.705 -1.4879 -1.1139  1.0474
10158SOL     OW35429   4.974   5.172   3.698 -0.4204 -0.5111 -0.0835
10158SOL    HW135430   4.906   5.236   3.661 -1.6166 -1.7397 -0.0661
10158SOL    HW235431   4.929   5.106   3.759  0.8647 -1.0578  0.3040
10159SOL     OW35432   0.318   0.140   3.476  0.1716  0.3061  0.1778
10159SOL    HW135433   0.234   0.099   3.441  0.8457 -0.4982 -0.5251
10159SOL    HW235434   0.319   0.238   3.454  0.4890 -0.1340 -1.9317
10160SOL     OW35435   0.240   4.736   4.033  0.0563  0.3469 -0.3476
10160SOL    HW135436   0.229   4.827   4.074  0.7462  0.3860 -0.2397
10160SOL    HW235437   0.250   4.668   4.106  2.0418  0.5119 -0.4206
10161SOL     OW35438   9.067   1.029   0.760  1.1794  0.2693 -0.1619
10161SOL    HW135439   9.119   0.982   0.832  1.2112  2.4323  1.2581
10161SOL    HW235440   9.050   0.965   0.685  2.9885 -1.4311  0.8175
10163SOL     OW35441   2.797   8.525   3.472  0.2891 -0.0173 -0.5530
10163SOL    HW135442   2.877   8.541   3.414  1.5271  2.1949  1.6385
10163SOL    HW235443   2.733   8.601   3.462  0.5517  0.4340  0.9807
10164SOL     OW35444   8.596   4.649   2.243 -0.2054 -0.1545  0.3589
10164SOL    HW135445   8.617   4.636   2.146  1.5152  1.3443  0.5128
10164SOL    HW235446   8.682   4.656   2.295 -1.1115  0.8817  1.7364
10166SOL     OW35447   4.574   7.669   2.747 -0.0327  0.2584  0.0378
10166SOL    HW135448   4.479   7.652   2.718  0.0628 -0.5596  0.1729
10166SOL    HW235449   4.603   7.594   2.807  1.1594 -0.2071 -1.1035
10167SOL     OW35450   7.600   8.711   2.853  0.3106 -0.5707 -0.0031
10167SOL    HW135451   7.551   8.797   2.843  1.7317  0.1931 -0.5697
10167SOL    HW235452   7.589   8.656   2.770  0.2654 -0.4791 -0.0568
10168SOL     OW35453   5.019   3.791   0.061 -0.5824 -0.4912  0.0425
10168SOL    HW135454   5.039   3.888   0.075 -2.0313 -0.2905  0.8877
10168SOL    HW235455   4.948   3.763   0.126  0.9926 -2.5334  0.9356
10170SOL     OW35456   2.291   6.347   3.728 -0.5127 -0.3931 -0.2016
10170SOL    HW135457   2.358   6.389   3.666  0.8343  0.6566  1.8943
10170SOL    HW235458   2.339   6.311   3.809 -2.5263  0.9301  1.6386
10172SOL     OW35459   8.643   3.126   4.350  0.1266  0.6706  0.0942
10172SOL    HW135460   8.725   3.108   4.404  0.3944 -0.9367 -0.8109
10172SOL    HW235461   8.599   3.039   4.326 -1.7829  1.4981  0.4621
10173SOL     OW35462   2.842   8.435   0.310  0.1086 -0.2694 -0.4640
10173SOL    HW135463   2.924   8.391   0.275 -1.2072 -0.7347 -3.0557
10173SOL    HW235464   2.781   8.367   0.349  1.1058  0.1299  1.8966
10174SOL     OW35465   4.270   9.643   3.736 -0.2022  0.1772  0.2337
10174SOL    HW135466   4.218   9.728   3.740 -0.3517  0.0762  0.4427
10174SOL    HW235467   4.343   9.646   3.804 -0.6703 -0.1665  0.7539
10175SOL     OW35468   9.141   8.025   5.123 -0.1506  0.1508 -0.0141
10175SOL    HW135469   9.189   8.024   5.035 -0.1633  0.8447 -0.0265
10175SOL    HW235470   9.182   8.094   5.183 -1.3364  0.9739 -0.1322
10176SOL     OW35471   9.989   7.100   0.335 -0.1763  0.2999 -0.4210
10176SOL    HW135472   9.927   7.174   0.361 -0.4934 -0.3598  0.7324
10176SOL    HW235473  10.057   7.135   0.270 -1.8450  0.9685 -1.8167
10177SOL     OW35474   9.317   8.773   3.321 -0.0566  0.0738 -0.7035
10177SOL    HW135475   9.218   8.757   3.326 -0.4301  2.3062 -0.7542
10177SOL    HW235476   9.365   8.688   3.345 -1.9734 -1.2673 -1.4881
10178SOL     OW35477   3.285   4.134   1.933  0.5991 -0.5605 -0.7100
10178SOL    HW135478   3.370   4.130   1.986  1.3084  0.8509 -1.6974
10178SOL    HW235479   3.301   4.096   1.842  0.8173  1.7624 -1.6787
10179SOL     OW35480   1.816   1.733   3.760  0.2818  0.0758 -0.3162
10179SOL    HW135481   1.824   1.827   3.794 -0.8224 -0.5765  1.8415
10179SOL    HW235482   1.873   1.673   3.816 -1.1744 -0.9550  0.0827
10180SOL     OW35483   8.061   4.485   1.329 -0.4405 -0.3270 -0.0632
10180SOL    HW135484   7.998   4.563   1.317  0.5268  0.5199  0.3076
10180SOL    HW235485   8.149   4.518   1.361 -0.2135 -1.6565  0.7213
10181SOL     OW35486   4.426   3.321   3.651  0.6349  0.0615 -0.2436
10181SOL    HW135487   4.440   3.269   3.735  2.3856  0.0072 -0.5531
10181SOL    HW235488   4.406   3.259   3.576 -0.5650  0.0853  0.0396
10183SOL     OW35489   6.578   2.074   4.133 -0.0129 -0.2182  0.0530
10183SOL    HW135490   6.585   2.015   4.214 -0.2214 -1.5894 -0.9091
10183SOL    HW235491   6.492   2.056   4.086  0.7282 -0.4560 -1.2492
10184SOL     OW35492   9.195   0.335   2.634  0.1284 -0.4459  0.0210
10184SOL    HW135493   9.109   0.376   2.604  0.6635 -0.7446 -2.0249
10184SOL    HW235494   9.188   0.235   2.630  0.1566 -0.5047  1.1205
10186SOL     OW35495   4.100   8.978   2.535  0.2908  0.0734  0.1558
10186SOL    HW135496   4.178   8.915   2.532 -1.0212 -1.5308 -1.3162
10186SOL    HW235497   4.110   9.046   2.462 -0.0247 -0.5748 -0.5042
10187SOL     OW35498   8.357   4.944   0.399  0.1123  0.1175  0.1711
10187SOL    HW135499   8.438   4.924   0.344 -0.2981 -1.3775  0.0902
10187SOL    HW235500   8.360   4.890   0.484 -0.2724  0.8639  0.6642
10188SOL     OW35501   4.160   6.302   0.718  0.1365 -0.6264 -0.0531
10188SOL    HW135502   4.170   6.209   0.684  0.0472 -0.5928 -0.1686
10188SOL    HW235503   4.242   6.328   0.770 -0.4766 -1.3181  1.2780
10190SOL     OW35504   2.091   1.251   3.787 -0.1040 -0.2161  0.4316
10190SOL    HW135505   2.017   1.204   3.739 -0.6781  0.4435  0.6610
10190SOL    HW235506   2.121   1.329   3.732 -2.0868  1.7126  1.9946
10191SOL     OW35507   2.485   0.885   1.391 -0.2098 -0.3973 -0.3435
10191SOL    HW135508   2.410   0.846   1.337  0.2554 -2.2243  0.2640
10191SOL    HW235509   2.460   0.882   1.488  0.2397 -0.0756 -0.2173
10192SOL     OW35510   2.916   6.539   3.649 -0.0449 -1.0271 -0.0725
10192SOL    HW135511   2.905   6.634   3.619  0.1381 -0.9169  0.2026
10192SOL    HW235512   2.829   6.506   3.685  0.2192 -0.5294  1.0438
10194SOL     OW35513   2.137   0.056   0.545  0.1762 -0.5006 -0.2913
10194SOL    HW135514   2.052   0.096   0.512  1.3522  1.9756 -0.4489
10194SOL    HW235515   2.148   0.076   0.642  1.0876  0.1346 -0.5214
10195SOL     OW35516   1.308   5.183   0.632 -0.2528  0.1018 -0.2429
10195SOL    HW135517   1.351   5.195   0.722  1.2047 -3.0089 -0.4693
10195SOL    HW235518   1.364   5.228   0.562  0.3033 -0.2139 -0.0003
10196SOL     OW35519   4.562   4.281   4.696 -0.2634  0.3002  0.3101
10196SOL    HW135520   4.654   4.287   4.659  0.0887 -2.5727  0.6267
10196SOL    HW235521   4.499   4.250   4.625  0.0785 -3.3500  1.4868
10197SOL     OW35522   3.363   6.661   3.180  0.2728  0.3572  0.0556
10197SOL    HW135523   3.293   6.651   3.109  2.6725 -0.4001 -2.2856
10197SOL    HW235524   3.360   6.582   3.242  1.3285 -1.4595 -2.1515
10198SOL     OW35525   2.335   9.854   0.498 -0.2706 -0.3514  0.3751
10198SOL    HW135526   2.259   9.918   0.503  0.2094  0.1213  1.9795
10198SOL    HW235527   2.300   9.761   0.493 -0.9483 -0.1524  1.3741
10199SOL     OW35528   7.213   4.228   1.428  0.0917  0.3240 -0.7772
10199SOL    HW135529   7.192   4.301   1.364 -0.5059  0.1392 -0.7898
10199SOL    HW235530   7.286   4.257   1.490  0.0675  0.8137 -0.9818
10200SOL     OW35531   6.500   9.674   3.077 -0.2050 -0.0342  0.2683
10200SOL    HW135532   6.564   9.657   3.002 -2.1207 -0.7122 -1.2559
10200SOL    HW235533   6.527   9.756   3.125  1.0713  0.4216 -1.1686
10201SOL     OW35534   0.525   8.688   0.779  0.0468 -0.1712 -0.0819
10201SOL    HW135535   0.569   8.628   0.847  1.1213  0.3630 -0.3073
10201SOL    HW235536   0.479   8.631   0.710  2.0893 -0.7556 -0.9742
10202SOL     OW35537   2.803   5.086   0.035 -0.2732  0.3672  0.2041
10202SOL    HW135538   2.879   5.021   0.037  1.0669  1.9375  0.5702
10202SOL    HW235539   2.759   5.082  -0.055  0.3625 -0.3979 -0.0783
10203SOL     OW35540   7.962   6.336   2.917 -0.2408  0.3143 -0.1157
10203SOL    HW135541   8.046   6.355   2.867 -1.5242  1.7638 -1.8073
10203SOL    HW235542   7.908   6.421   2.924 -0.1128  0.2035  3.7711
10204SOL     OW35543   3.521   9.506   4.450  0.3445  0.2693 -0.3882
10204SOL    HW135544   3.516   9.586   4.390 -0.5316 -0.5725 -1.4558
10204SOL    HW235545   3.571   9.433   4.404 -1.1927 -0.7307 -0.4982
10205SOL     OW35546   4.656   9.012   5.167  0.4666  0.1095 -0.1786
10205SOL    HW135547   4.606   9.045   5.087 -0.0505  1.1611  0.5713
10205SOL    HW235548   4.652   9.081   5.240 -0.8385 -1.7192  1.5062
10206SOL     OW35549   2.101   8.954   3.228 -0.8966  0.0261  0.2305
10206SOL    HW135550   2.100   9.013   3.147  2.5302  1.0440  0.8897
10206SOL    HW235551   2.154   8.872   3.208  1.3036  1.0067  1.8946
10207SOL     OW35552   1.932   1.303   3.045  0.2217 -0.1627 -0.3635
10207SOL    HW135553   1.854   1.241   3.047  0.2220 -0.1651 -0.4080
10207SOL    HW235554   1.901   1.396   3.026  0.1904 -0.0976  0.0046
10208SOL     OW35555   4.969   7.239   1.888 -0.0855 -0.0218  0.3664
10208SOL    HW135556   5.005   7.278   1.803 -1.0079  1.0164  0.4325
10208SOL    HW235557   4.961   7.311   1.957  1.3969 -1.0118  1.6017
10209SOL     OW35558   2.598   4.379   4.059 -0.8427  0.1394  0.0878
10209SOL    HW135559   2.647   4.339   3.982  1.0700 -1.0739  1.8800
10209SOL    HW235560   2.652   4.454   4.098 -2.3272  1.5162 -0.4297
10211SOL     OW35561   1.630   9.352   2.269  0.3713 -0.2233  0.5488
10211SOL    HW135562   1.554   9.366   2.333  0.3792  0.5783  0.3768
10211SOL    HW235563   1.648   9.254   2.261  1.6436 -0.2411  3.2534
10212SOL     OW35564   8.373   9.755   1.172  0.0144  0.2235 -1.0165
10212SOL    HW135565   8.305   9.806   1.224 -1.1266 -0.9177 -1.3678
10212SOL    HW235566   8.462   9.800   1.181 -0.4288  0.7831  0.8370
10215SOL     OW35567   1.320   7.557   2.554 -0.2962  0.2496 -0.7733
10215SOL    HW135568   1.342   7.614   2.476  0.4786 -0.2503 -0.9202
10215SOL    HW235569   1.227   7.521   2.544 -0.1086 -0.0089 -1.5759
10216SOL     OW35570   4.941   5.877   2.392  0.2000 -0.1002  0.8539
10216SOL    HW135571   4.874   5.874   2.467  0.3326  0.7787  1.0141
10216SOL    HW235572   4.912   5.944   2.324  1.2734  0.8209  1.2795
10217SOL     OW35573   3.823   9.409   3.950 -0.1145 -0.6342 -0.2232
10217SOL    HW135574   3.909   9.440   3.910  0.0184 -1.7840 -0.8631
10217SOL    HW235575   3.821   9.432   4.047  0.8139 -0.3901 -0.2558
10218SOL     OW35576   0.940   3.094   4.005  0.8591 -0.7587 -0.4120
10218SOL    HW135577   0.874   3.108   4.078  1.4460 -1.6592  0.3102
10218SOL    HW235578   0.922   3.157   3.930  1.0621  1.0815  1.0643
10219SOL     OW35579   0.963   7.582   1.723  0.0977  0.2076  0.4799
10219SOL    HW135580   1.013   7.550   1.642  0.5796  1.8602  0.1230
10219SOL    HW235581   1.020   7.569   1.804 -0.1212 -0.8219  0.4742
10220SOL     OW35582   2.503   4.136   0.819  0.1543  0.2351 -0.6294
10220SOL    HW135583   2.417   4.098   0.852 -1.4193  2.6291 -1.8557
10220SOL    HW235584   2.546   4.190   0.891 -0.1442  0.3395 -0.5335
10222SOL     OW35585   3.242   9.646   1.950  0.1178 -0.7179  0.6680
10222SOL    HW135586   3.322   9.590   1.971  0.6566  0.1203  0.8759
10222SOL    HW235587   3.175   9.637   2.024 -0.7278 -2.7530 -0.3083
10223SOL     OW35588   5.136   7.693   3.241  0.3168  0.2164 -0.2366
10223SOL    HW135589   5.181   7.722   3.325  0.3721 -1.2261  0.2330
10223SOL    HW235590   5.046   7.657   3.261  0.4870 -0.5051 -0.7527
10224SOL     OW35591   3.455   0.199   1.161 -0.9276  0.4529  0.3174
10224SOL    HW135592   3.438   0.186   1.063  0.8370  0.3596  0.0166
10224SOL    HW235593   3.537   0.149   1.187 -0.9309  1.1567  1.6850
10225SOL     OW35594   2.617   4.275   0.595 -0.1751  0.3492  0.8494
10225SOL    HW135595   2.597   4.217   0.516  1.1161 -0.5079  1.1260
10225SOL    HW235596   2.567   4.242   0.674 -1.6152  1.3181  0.3733
10226SOL     OW35597   4.549   0.723   3.534  0.1577 -0.3988  0.3734
10226SOL    HW135598   4.648   0.733   3.529  0.0600 -0.2702 -1.8475
10226SOL    HW235599   4.520   0.645   3.478 -0.9378 -0.9040  1.6032
10228SOL     OW35600   8.088   1.953   2.167  0.1861  0.1455  0.4779
10228SOL    HW135601   8.069   2.045   2.202  0.4926 -0.0928  1.2701
10228SOL    HW235602   8.099   1.958   2.067 -1.6626  0.6607  0.2812
10230SOL     OW35603   5.148   1.859   0.369  0.0004  0.0869  0.3052
10230SOL    HW135604   5.120   1.809   0.287  0.9945 -0.6127  0.3825
10230SOL    HW235605   5.171   1.794   0.441  2.4902  0.6164  0.0140
10232SOL     OW35606   5.215   8.579   1.803  0.1910 -0.1103 -0.3782
10232SOL    HW135607   5.170   8.545   1.885 -0.2209  1.2584 -0.0219
10232SOL    HW235608   5.314   8.572   1.814  0.1359  0.0518  0.2238
10233SOL     OW35609   3.760   1.235   3.807  0.3091 -1.0184  0.8627
10233SOL    HW135610   3.668   1.211   3.840 -0.0837 -0.7377  0.0040
10233SOL    HW235611   3.782   1.178   3.728 -0.1437  0.6021 -0.4607
10234SOL     OW35612   2.625   4.617   4.402 -0.7202 -0.1932 -0.1357
10234SOL    HW135613   2.573   4.695   4.437 -2.1270 -0.8802 -0.6398
10234SOL    HW235614   2.667   4.567   4.478 -1.0157  0.2256  0.3003
10235SOL     OW35615   1.050   4.011   1.754  0.0199  0.3210 -0.0358
10235SOL    HW135616   1.022   4.087   1.695 -0.1558 -2.0346 -3.1014
10235SOL    HW235617   1.141   3.980   1.726  0.1623 -0.4752  1.3039
10236SOL     OW35618   0.261   6.805   0.668  0.2892 -0.2148  0.0687
10236SOL    HW135619   0.304   6.860   0.596 -0.4947  0.8853  0.4208
10236SOL    HW235620   0.212   6.729   0.626 -0.1957  0.4409 -0.5794
10239SOL     OW35621   6.765   1.126   4.058  0.4264  0.6445  0.0100
10239SOL    HW135622   6.818   1.046   4.031  1.4440  2.0710 -2.4870
10239SOL    HW235623   6.813   1.176   4.130  1.1792  0.5130 -0.3993
10240SOL     OW35624   8.182   2.552   4.727 -0.7344  0.1049 -1.1902
10240SOL    HW135625   8.133   2.521   4.646 -1.4477 -1.1549 -0.2982
10240SOL    HW235626   8.274   2.512   4.728  0.0047  1.7281 -2.3878
10241SOL     OW35627   0.926   6.005   0.180  0.1526  0.1506  0.6371
10241SOL    HW135628   0.989   6.065   0.229  1.5176 -1.8050  1.3448
10241SOL    HW235629   0.885   5.940   0.244 -0.2631 -0.5717 -0.3453
10242SOL     OW35630   9.490   9.328   1.919  0.3459 -0.5406 -0.0989
10242SOL    HW135631   9.418   9.376   1.969  0.7927  1.5226 -1.3688
10242SOL    HW235632   9.561   9.297   1.982  0.8963  2.0038  0.5715
10243SOL     OW35633   9.719   8.855   1.410  0.6165  0.2677 -0.1491
10243SOL    HW135634   9.772   8.889   1.333  0.0116 -1.0399 -1.1582
10243SOL    HW235635   9.686   8.932   1.465  0.3624  1.2371 -1.6435
10244SOL     OW35636   1.619   0.489   4.398 -0.5436  0.6828 -0.4928
10244SOL    HW135637   1.593   0.436   4.478  0.8832  0.1199 -0.3841
10244SOL    HW235638   1.632   0.585   4.423  2.2794  0.0993  0.5093
10245SOL     OW35639   1.988   9.667   5.128  0.2400 -0.4058  0.5100
10245SOL    HW135640   2.027   9.642   5.039 -1.1892 -1.8370  0.2730
10245SOL    HW235641   2.029   9.753   5.159  0.7794  0.0926 -1.5085
10248SOL     OW35642   4.083   2.167   4.274  0.2968 -0.0277  0.0998
10248SOL    HW135643   4.094   2.258   4.313  1.0559  0.0034 -0.1835
10248SOL    HW235644   4.165   2.142   4.222  0.3630 -1.1384  0.7181
10249SOL     OW35645   6.504   0.164   3.089  0.0723 -0.0482 -0.1795
10249SOL    HW135646   6.603   0.149   3.089  0.1117 -0.3286  3.1305
10249SOL    HW235647   6.457   0.078   3.066  0.5874 -0.4116  0.1168
10250SOL     OW35648   3.698   1.803   2.694 -0.6730  0.0887  0.2734
10250SOL    HW135649   3.639   1.820   2.773 -0.8720  1.7829 -0.2338
10250SOL    HW235650   3.782   1.857   2.702 -0.7578  0.3796 -0.7321
10251SOL     OW35651   3.003   2.263   4.689 -0.4903 -0.0630 -0.0499
10251SOL    HW135652   3.018   2.178   4.741 -0.5205 -0.7872 -1.2095
10251SOL    HW235653   3.008   2.243   4.591  0.3685  1.4453 -0.3199
10252SOL     OW35654   5.402   0.451   3.825  0.1644  0.5590 -0.0113
10252SOL    HW135655   5.460   0.511   3.770  0.7445 -0.6291 -0.7148
10252SOL    HW235656   5.367   0.376   3.768 -1.3788  0.7816  0.6055
10253SOL     OW35657   3.625   4.750   0.908 -0.0876  0.5255  0.6651
10253SOL    HW135658   3.680   4.731   0.827  0.2856 -1.5279  1.3710
10253SOL    HW235659   3.563   4.674   0.925 -0.7755  1.3279  1.8080
10254SOL     OW35660   0.895   1.590   1.952  0.0881 -0.4388  0.6509
10254SOL    HW135661   0.928   1.561   2.042 -0.3516 -1.6570  0.4317
10254SOL    HW235662   0.971   1.595   1.888  0.8658  3.1497  1.7502
10255SOL     OW35663   5.110   5.193   1.497 -0.1119  0.6378 -0.2523
10255SOL    HW135664   5.180   5.160   1.560  0.6287 -0.4582 -1.6430
10255SOL    HW235665   5.130   5.288   1.473  0.8098  0.3747 -0.5297
10256SOL     OW35666   4.828   5.830   1.020  0.2175  0.0985  0.1934
10256SOL    HW135667   4.738   5.797   0.990 -0.7488  0.3484  2.6652
10256SOL    HW235668   4.824   5.929   1.034  1.2607  0.3062 -0.9518
10257SOL     OW35669   8.440   5.371   0.873  0.1239 -0.2932  0.0961
10257SOL    HW135670   8.527   5.332   0.845 -1.0066 -1.7540 -1.5663
10257SOL    HW235671   8.387   5.396   0.792 -0.8264  0.9744  1.0808
10259SOL     OW35672   3.752   7.424   4.760 -0.2966 -0.3636  0.3107
10259SOL    HW135673   3.716   7.433   4.667  1.5929  0.3358 -0.3812
10259SOL    HW235674   3.775   7.515   4.796 -1.4377 -0.5886  1.6389
10260SOL     OW35675   7.792   9.568   4.133 -0.3145 -0.5605  0.5473
10260SOL    HW135676   7.867   9.578   4.068  0.1198 -1.8519  0.8432
10260SOL    HW235677   7.708   9.543   4.084 -0.2247 -0.5138  0.3692
10261SOL     OW35678   0.737   2.103   3.504 -0.1292 -0.6300  0.2138
10261SOL    HW135679   0.645   2.106   3.543  0.5839 -0.4765  1.9611
10261SOL    HW235680   0.798   2.057   3.568  1.6225  1.8507  0.4110
10263SOL     OW35681   8.764   7.504   0.097  0.1926  0.4465 -0.3866
10263SOL    HW135682   8.820   7.491   0.015 -0.0003  1.3454 -0.6595
10263SOL    HW235683   8.782   7.430   0.162  0.1657 -0.4096 -1.3448
10264SOL     OW35684   3.278   8.857   4.306 -0.1040  0.3504 -0.2485
10264SOL    HW135685   3.282   8.758   4.301  2.4196  0.4215 -0.3537
10264SOL    HW235686   3.236   8.893   4.222  3.1873 -0.4409 -2.2972
10265SOL     OW35687   4.292   3.743   3.940 -0.1920 -0.9048  0.3157
10265SOL    HW135688   4.337   3.669   3.892 -0.1089  0.4972 -1.8363
10265SOL    HW235689   4.225   3.706   4.005 -1.3860 -2.8177 -1.9598
10266SOL     OW35690   6.706   8.767   2.107  0.1638  0.5167 -0.1526
10266SOL    HW135691   6.613   8.743   2.081  0.1631  0.2902  0.0490
10266SOL    HW235692   6.721   8.865   2.095 -0.6738  0.8754  1.5548
10270SOL     OW35693   2.910   0.601   4.371  0.5960 -0.1991  0.5109
10270SOL    HW135694   2.920   0.511   4.330  0.6851  0.0342  0.0162
10270SOL    HW235695   2.898   0.669   4.299  0.0469  0.1210  0.9071
10271SOL     OW35696   3.778   2.720   4.446 -0.3628 -0.3015  0.7498
10271SOL    HW135697   3.795   2.809   4.403  1.6151 -1.4669 -0.9785
10271SOL    HW235698   3.684   2.717   4.480  0.0723  3.0901  2.4603
10272SOL     OW35699   0.206   8.998   1.185 -0.1593 -0.2925  0.1428
10272SOL    HW135700   0.162   8.969   1.270  0.1287 -1.2244 -0.0181
10272SOL    HW235701   0.294   8.952   1.176  1.2971  2.2371  0.9103
10274SOL     OW35702   4.124   8.331   1.817 -0.2132  0.3273  0.1556
10274SOL    HW135703   4.147   8.265   1.745 -1.0076 -1.7569  1.7480
10274SOL    HW235704   4.206   8.381   1.843  0.7358 -1.0481 -0.1007
10275SOL     OW35705   6.259   9.672   3.932 -0.0228  0.1191 -0.0581
10275SOL    HW135706   6.264   9.747   3.998 -0.4176  0.0526  0.0464
10275SOL    HW235707   6.206   9.700   3.852  0.7468  0.3189 -0.5091
10276SOL     OW35708   9.232   8.514   0.478 -0.2737 -0.3707 -0.1688
10276SOL    HW135709   9.307   8.540   0.540 -1.0664  0.2976  0.5096
10276SOL    HW235710   9.145   8.546   0.515 -1.0596 -2.2623 -0.3057
10277SOL     OW35711   3.718   1.886   4.239  0.6680  0.1931 -0.3351
10277SOL    HW135712   3.673   1.892   4.328 -0.6417  1.7143 -1.0704
10277SOL    HW235713   3.677   1.813   4.186 -0.2085  0.8620 -0.5890
10278SOL     OW35714   0.486   1.457   1.635 -0.5740  0.5994 -0.0141
10278SOL    HW135715   0.401   1.412   1.661  0.6186 -1.3719  0.5570
10278SOL    HW235716   0.531   1.492   1.717  1.0680 -1.8248  0.1687
10279SOL     OW35717   5.262   0.265   2.021 -0.2673  0.1386  0.0586
10279SOL    HW135718   5.180   0.315   1.996  1.0373  1.2429 -2.1168
10279SOL    HW235719   5.276   0.271   2.120 -2.6189  0.1551  0.4159
10280SOL     OW35720   1.133   4.378   5.299 -0.0467 -0.4038  0.7504
10280SOL    HW135721   1.225   4.378   5.340  0.0136  2.4410  0.7143
10280SOL    HW235722   1.080   4.453   5.337 -1.4525 -0.3511 -1.2473
10281SOL     OW35723   0.995   5.516   0.745 -0.2501 -0.4464 -0.2502
10281SOL    HW135724   1.068   5.579   0.720 -1.9310  0.8327 -2.1249
10281SOL    HW235725   0.995   5.502   0.844  1.6619  0.5688 -0.0831
10282SOL     OW35726   9.816   5.835   3.369 -0.5792 -0.6639 -0.8637
10282SOL    HW135727   9.831   5.737   3.355 -1.3889 -1.1130  1.3097
10282SOL    HW235728   9.722   5.851   3.396 -0.7258  0.8420 -2.2205
10283SOL     OW35729   7.981   9.479   0.289 -0.5113 -0.4270 -0.0096
10283SOL    HW135730   7.881   9.481   0.291 -0.4938  0.4642  0.8131
10283SOL    HW235731   8.013   9.522   0.205 -0.8166  0.5701  0.3665
10284SOL     OW35732   8.052   9.242   4.208 -0.4168 -0.3772  0.0786
10284SOL    HW135733   8.027   9.158   4.160 -1.6550 -0.1584  0.3018
10284SOL    HW235734   7.977   9.268   4.269  0.5659  0.0859  1.1102
10287SOL     OW35735   6.793   9.543   5.048 -0.2807 -0.3287  0.2693
10287SOL    HW135736   6.861   9.561   5.119 -0.0122 -0.4763  0.0493
10287SOL    HW235737   6.838   9.541   4.959 -0.6054 -0.2285  0.1032
10288SOL     OW35738   5.631   1.587   0.791  0.1195  0.0996  0.1290
10288SOL    HW135739   5.623   1.687   0.789 -0.2132  0.0665 -0.1946
10288SOL    HW235740   5.692   1.561   0.866 -0.2230  0.5186  0.5598
10289SOL     OW35741   1.275   6.986   2.354 -0.0266 -0.7339  0.0567
10289SOL    HW135742   1.318   7.045   2.423 -0.0991 -1.4536  0.7143
10289SOL    HW235743   1.266   7.038   2.269  2.3841 -0.6389 -0.1954
10290SOL     OW35744   7.183   9.150   2.928  0.3361 -0.0471 -0.4448
10290SOL    HW135745   7.140   9.189   3.009  0.5991 -0.7149  0.0193
10290SOL    HW235746   7.114   9.135   2.857 -0.2488 -1.3615  0.3901
10291SOL     OW35747   7.574   0.340   1.057  0.2417 -0.6136 -0.9916
10291SOL    HW135748   7.618   0.377   1.139  2.4947 -1.4963 -1.7696
10291SOL    HW235749   7.618   0.254   1.031 -0.9322 -0.7243 -2.7014
10292SOL     OW35750   8.769   7.306   2.288 -0.5793 -0.0323  0.3925
10292SOL    HW135751   8.730   7.341   2.203  2.0235  1.1471 -0.3595
10292SOL    HW235752   8.838   7.369   2.322 -1.9403 -0.2390  3.7042
10293SOL     OW35753   0.913   4.865   0.759  0.1558  0.2014  0.7096
10293SOL    HW135754   0.913   4.767   0.744  1.2802  0.1121  1.2390
10293SOL    HW235755   0.842   4.889   0.825 -1.9802  0.1007 -1.4923
10294SOL     OW35756   2.529   0.944   0.671 -0.2208  0.1013 -0.3410
10294SOL    HW135757   2.519   0.845   0.665 -0.6886  0.1244  0.0212
10294SOL    HW235758   2.469   0.988   0.604  1.3298  0.0921 -1.7573
10295SOL     OW35759   5.046   8.126   4.151 -0.0357  0.0569 -0.2562
10295SOL    HW135760   5.145   8.130   4.138  0.3231  0.2163  2.3455
10295SOL    HW235761   5.020   8.033   4.177 -0.2463  0.5579  1.3848
10297SOL     OW35762   8.485   7.731   4.618 -0.0221  0.2256  0.2065
10297SOL    HW135763   8.504   7.673   4.697  0.6313 -0.6381 -0.5630
10297SOL    HW235764   8.561   7.794   4.604  0.1788 -0.0797 -0.1154
10299SOL     OW35765   8.341   5.440   2.280 -0.1270 -0.1738 -0.1542
10299SOL    HW135766   8.333   5.347   2.315  1.6627  0.0723  1.0079
10299SOL    HW235767   8.430   5.451   2.235 -1.0325  0.4825 -1.8484
10300SOL     OW35768   7.989   3.395   1.525 -0.3530  0.6290  0.0738
10300SOL    HW135769   8.084   3.422   1.529 -0.1770  0.0619 -0.1629
10300SOL    HW235770   7.982   3.295   1.532 -0.7958  0.5079 -1.7468
10301SOL     OW35771   6.416   4.469   0.961 -0.0903 -0.0754  1.1739
10301SOL    HW135772   6.442   4.545   0.901 -0.4967 -1.2847 -0.5534
10301SOL    HW235773   6.497   4.437   1.010 -0.1007  2.1484  2.7442
10302SOL     OW35774   3.177   2.454   0.329 -0.1611 -0.1079  0.9724
10302SOL    HW135775   3.270   2.487   0.343  0.0377  0.3145 -1.1091
10302SOL    HW235776   3.112   2.525   0.357  0.1476 -0.2933  2.1601
10304SOL     OW35777   0.166   1.980   0.950  0.3044  0.0802 -0.3533
10304SOL    HW135778   0.105   2.040   0.898 -0.3693 -0.2984 -0.0008
10304SOL    HW235779   0.160   1.887   0.913 -0.2561 -0.2102  0.4668
10305SOL     OW35780   8.163   6.683   4.166  0.5372  0.1677 -0.1013
10305SOL    HW135781   8.137   6.777   4.146  0.6968  0.0189 -1.0326
10305SOL    HW235782   8.105   6.647   4.239  2.2132  1.8324  2.0777
10306SOL     OW35783   5.165   2.728   4.263 -0.1263 -0.3935 -0.2162
10306SOL    HW135784   5.121   2.817   4.255  0.5627 -0.0545 -0.2568
10306SOL    HW235785   5.105   2.665   4.313 -0.4462  0.2023  0.1504
10308SOL     OW35786   6.701   1.237   0.465  0.7710  0.0907  0.1867
10308SOL    HW135787   6.798   1.213   0.461  1.7435  3.7055 -0.1062
10308SOL    HW235788   6.675   1.253   0.561  0.4311 -0.9669  0.2737
10310SOL     OW35789   2.116   5.443   4.872 -0.5276 -1.1155 -0.0312
10310SOL    HW135790   2.197   5.385   4.858 -1.2572 -1.7436 -1.8732
10310SOL    HW235791   2.115   5.477   4.966  2.0322 -0.8578 -0.0536
10311SOL     OW35792   3.014   1.621   2.237 -0.3106 -0.8860 -0.6479
10311SOL    HW135793   3.060   1.538   2.206  0.5404 -0.2688 -1.0576
10311SOL    HW235794   3.045   1.698   2.182 -0.9270 -0.2593 -0.1159
10312SOL     OW35795   2.737   9.947   0.559 -0.1201 -0.1617 -0.0450
10312SOL    HW135796   2.710   9.945   0.463  1.3318  1.3545 -0.4937
10312SOL    HW235797   2.769  10.038   0.583  0.9562 -0.9253  1.4793
10313SOL     OW35798   9.661   1.294   1.248 -0.1466 -0.1732  0.1524
10313SOL    HW135799   9.581   1.315   1.192 -0.4229 -2.3939 -0.3447
10313SOL    HW235800   9.635   1.232   1.321  0.9951 -0.3709  0.4021
10314SOL     OW35801   7.799   0.735   4.777 -0.1401  0.3780 -0.0738
10314SOL    HW135802   7.778   0.830   4.798 -1.2850 -0.1601  1.2381
10314SOL    HW235803   7.869   0.732   4.705 -0.0612  2.1971 -0.0980
10315SOL     OW35804   3.910   8.850   3.748 -0.0449 -0.0229 -0.5981
10315SOL    HW135805   3.842   8.910   3.790  0.8463  1.7563 -1.6272
10315SOL    HW235806   3.927   8.772   3.808 -0.4010  1.3313  1.3135
10317SOL     OW35807   9.203   9.870   0.402 -0.0969 -0.1051  0.6503
10317SOL    HW135808   9.225   9.783   0.447 -1.1389 -0.3405  0.7200
10317SOL    HW235809   9.123   9.911   0.447 -0.8423 -0.1030 -0.6637
10319SOL     OW35810   4.865   1.653   0.247  0.4070  0.1048  0.3504
10319SOL    HW135811   4.830   1.740   0.282 -0.0941 -0.0806  0.3163
10319SOL    HW235812   4.965   1.655   0.245  0.4803 -0.2630  2.7986
10320SOL     OW35813   3.336   6.893   1.414 -0.7413  0.2099 -0.0540
10320SOL    HW135814   3.392   6.921   1.492 -1.4314 -1.2140  0.9773
10320SOL    HW235815   3.255   6.950   1.409 -0.1592  1.0175 -0.3941
10321SOL     OW35816   4.720   5.851   2.544 -0.5026 -0.1510  0.2232
10321SOL    HW135817   4.661   5.903   2.606 -1.3108 -0.3366 -0.3761
10321SOL    HW235818   4.690   5.755   2.544 -0.2826 -0.2179 -0.1919
10324SOL     OW35819   2.207   3.354   4.261 -0.0504  0.3405  0.0608
10324SOL    HW135820   2.136   3.286   4.277  1.1930 -0.7781  0.9657
10324SOL    HW235821   2.277   3.315   4.201  0.0505  1.2554 -0.4175
10327SOL     OW35822   6.217   0.495   3.208  0.4614  0.2932  0.4756
10327SOL    HW135823   6.253   0.532   3.122 -0.2562 -1.5562 -0.6499
10327SOL    HW235824   6.122   0.468   3.195  0.3008  0.1571  1.9057
10328SOL     OW35825   1.519   6.897   0.502 -0.3407 -0.0126 -0.1091
10328SOL    HW135826   1.527   6.928   0.407  1.8456 -0.3277 -0.0670
10328SOL    HW235827   1.500   6.799   0.503  1.6751 -0.4327 -0.2563
10329SOL     OW35828   4.544   2.439   4.773 -0.0474 -0.2503 -0.8031
10329SOL    HW135829   4.484   2.432   4.853  2.2551  0.8208  1.0719
10329SOL    HW235830   4.599   2.356   4.766 -0.7270 -0.6293 -1.6860
10330SOL     OW35831   2.137   0.607   2.776  0.4673  0.8828 -0.2091
10330SOL    HW135832   2.189   0.693   2.777  1.0968  0.5219 -0.8249
10330SOL    HW235833   2.190   0.536   2.822 -0.3589  0.9850  0.9233
10331SOL     OW35834   0.268   6.663   5.054  0.2841 -0.3556 -0.1786
10331SOL    HW135835   0.299   6.758   5.051 -1.0730  0.1597  1.2380
10331SOL    HW235836   0.325   6.612   5.117 -0.5850  0.1687  1.0636
10332SOL     OW35837   1.990   9.696   1.191  0.4297  0.1252 -0.3421
10332SOL    HW135838   1.923   9.639   1.239  0.5514  1.0212  0.9402
10332SOL    HW235839   1.973   9.693   1.093 -1.2977  0.0701 -0.0597
10333SOL     OW35840   2.569   3.890   3.148  0.4888  0.2021 -0.0078
10333SOL    HW135841   2.546   3.831   3.070 -0.7027  2.1219 -1.1482
10333SOL    HW235842   2.649   3.945   3.125  0.6050  0.2141  0.4351
10334SOL     OW35843   6.163   0.493   1.517  0.6796 -0.1599  0.3352
10334SOL    HW135844   6.251   0.446   1.517  0.8795  0.2058 -0.5413
10334SOL    HW235845   6.176   0.588   1.543  0.3883 -0.3686  1.2739
10336SOL     OW35846   8.865   0.521   3.160 -0.3593  0.2406  0.3876
10336SOL    HW135847   8.827   0.603   3.204 -0.4255  1.2228 -1.4268
10336SOL    HW235848   8.932   0.549   3.091 -0.0776 -1.2750  0.0282
10337SOL     OW35849   3.440   5.788   0.448  0.0659 -0.1778  0.0198
10337SOL    HW135850   3.365   5.731   0.481  0.8681 -1.1445  0.2113
10337SOL    HW235851   3.408   5.882   0.438 -1.0890 -0.5174  0.3752
10339SOL     OW35852   0.495   5.368   5.227  0.2441  0.3703  0.4015
10339SOL    HW135853   0.405   5.325   5.224 -0.3294  1.6292 -1.3617
10339SOL    HW235854   0.533   5.360   5.319 -1.4378 -0.6321  1.0275
10340SOL     OW35855   0.523   3.729   2.984  0.0453  0.5551 -0.0472
10340SOL    HW135856   0.488   3.685   2.902 -0.1495 -2.4758  1.5961
10340SOL    HW235857   0.619   3.704   2.996  0.1493  1.2114  0.5221
10342SOL     OW35858   5.990   0.008   3.956 -0.0712  0.6040  0.3076
10342SOL    HW135859   6.065  -0.041   4.002 -1.0825  0.5183  1.9057
10342SOL    HW235860   5.917  -0.057   3.935  0.4495  0.6161 -1.6015
10343SOL     OW35861   4.164   6.843   1.308  0.3864 -0.0328  0.5059
10343SOL    HW135862   4.260   6.833   1.282 -0.0820 -0.4072 -1.1783
10343SOL    HW235863   4.130   6.932   1.277  0.8684  1.2001  3.3960
10344SOL     OW35864   9.101   7.799   2.793 -0.2999 -0.0879  0.2107
10344SOL    HW135865   9.029   7.730   2.791  0.2390 -0.6639  0.4812
10344SOL    HW235866   9.183   7.761   2.836 -0.2268  0.9409  1.0117
10345SOL     OW35867   3.769   7.481   3.533 -0.1428  0.0489 -0.9223
10345SOL    HW135868   3.680   7.494   3.491  0.6861 -0.2856 -2.8119
10345SOL    HW235869   3.837   7.460   3.463  1.6903  1.5739  0.3358
10346SOL     OW35870   2.806   6.093   3.364  0.0440 -0.1810  0.1527
10346SOL    HW135871   2.871   6.141   3.424 -0.5398 -0.8685  1.3593
10346SOL    HW235872   2.833   5.997   3.357  1.4260  0.3563 -2.5590
10347SOL     OW35873   4.872   0.110   2.211 -0.3373  0.7385 -0.0137
10347SOL    HW135874   4.779   0.134   2.184 -0.2871  0.2594 -0.6331
10347SOL    HW235875   4.915   0.188   2.256 -0.8717  1.1216 -0.1656
10348SOL     OW35876   9.870   2.066   3.223 -0.3305 -0.4019 -0.0603
10348SOL    HW135877   9.907   2.058   3.315 -0.8568 -0.3719  0.1577
10348SOL    HW235878   9.771   2.047   3.225 -0.3617 -0.3121 -0.5999
10350SOL     OW35879   9.299   3.724   3.576  0.1556 -0.3285  0.0018
10350SOL    HW135880   9.222   3.767   3.624 -0.3597 -0.8339 -0.3527
10350SOL    HW235881   9.274   3.630   3.551  0.3773 -0.0521 -1.3205
10351SOL     OW35882   8.149   5.850   1.935 -0.6486 -0.0191 -1.2732
10351SOL    HW135883   8.094   5.831   2.017  0.0597  0.5059 -0.6731
10351SOL    HW235884   8.158   5.766   1.882  1.2375 -1.0538  0.6209
10353SOL     OW35885   0.059   5.716   0.213 -0.0584 -0.1101 -0.2433
10353SOL    HW135886   0.142   5.733   0.266 -0.6040  0.2100  0.5085
10353SOL    HW235887   0.081   5.657   0.135  1.3086  1.7387 -1.2868
10354SOL     OW35888   8.235   7.985   3.467  0.1118  0.3292  0.5064
10354SOL    HW135889   8.157   8.036   3.430  0.3380  1.3014  1.3491
10354SOL    HW235890   8.283   8.042   3.533  1.2948 -0.4232  0.3002
10355SOL     OW35891   7.827   3.116   4.203  0.5056 -0.0901  0.2152
10355SOL    HW135892   7.831   3.153   4.110 -0.7800  0.1541  0.2581
10355SOL    HW235893   7.913   3.069   4.224  0.4849 -0.8718 -1.3969
10357SOL     OW35894   8.227   0.594   1.192 -0.0373 -0.0940  0.6964
10357SOL    HW135895   8.178   0.669   1.237  0.8174  0.5324  0.5908
10357SOL    HW235896   8.269   0.628   1.108 -1.0969 -1.1079 -0.2648
10358SOL     OW35897   6.028   1.417   2.455 -0.4647 -0.4524 -0.3579
10358SOL    HW135898   5.991   1.341   2.507 -1.7899 -0.3070 -1.0636
10358SOL    HW235899   6.064   1.486   2.517 -0.4590 -1.0664  0.3172
10360SOL     OW35900   5.779   1.237   4.478 -0.0798 -0.1938 -0.0127
10360SOL    HW135901   5.745   1.319   4.523  1.3550  0.5907 -0.3513
10360SOL    HW235902   5.733   1.157   4.517 -0.4559  0.6436  1.3165
10361SOL     OW35903   5.925   5.007   1.211  0.0913 -0.1064  0.0427
10361SOL    HW135904   5.993   4.946   1.172  0.0106  0.0607 -0.3635
10361SOL    HW235905   5.963   5.052   1.292  1.3738  1.8598 -1.5771
10364SOL     OW35906   0.998   1.199   4.987 -0.1151 -0.4104  0.1431
10364SOL    HW135907   1.095   1.175   4.986  0.5033  1.6639  3.0476
10364SOL    HW235908   0.947   1.129   5.038  0.1897 -0.3772  0.4938
10365SOL     OW35909   7.492   7.654   4.756  0.5068 -0.5025  0.4472
10365SOL    HW135910   7.413   7.638   4.814 -0.0251 -0.3020 -0.2201
10365SOL    HW235911   7.532   7.566   4.729  0.5925 -0.6004  0.8762
10366SOL     OW35912   0.763   4.921   2.858 -0.0918 -0.2198  0.7978
10366SOL    HW135913   0.859   4.890   2.855 -0.7320 -2.3885  1.5005
10366SOL    HW235914   0.706   4.848   2.897 -2.1756  0.7080 -0.4486
10367SOL     OW35915   9.442   3.879   4.391 -0.1930  0.2577 -0.7471
10367SOL    HW135916   9.343   3.890   4.387 -0.4887 -1.4065  1.2719
10367SOL    HW235917   9.467   3.791   4.349  0.1372 -0.5870  1.1770
10368SOL     OW35918   6.185   0.809   2.393 -0.2541  0.0407  0.0902
10368SOL    HW135919   6.230   0.800   2.481 -0.8763 -0.1596  0.3955
10368SOL    HW235920   6.133   0.726   2.373 -1.5862  0.7881  0.3799
10369SOL     OW35921   9.532   4.325   1.768  0.3065 -0.2893  0.6069
10369SOL    HW135922   9.469   4.249   1.759  1.1149 -0.8854 -0.0452
10369SOL    HW235923   9.609   4.313   1.706  1.3786  0.1171  1.8245
10370SOL     OW35924   8.112   1.923   1.678 -0.8669 -0.5808  0.1086
10370SOL    HW135925   8.119   1.867   1.595 -0.9232 -1.2888  0.5781
10370SOL    HW235926   8.187   1.900   1.740 -2.7085 -2.4798  1.7160
10371SOL     OW35927   6.789   1.007   4.726 -0.1840 -0.2277  0.0756
10371SOL    HW135928   6.806   1.101   4.696  0.9700 -0.4110  0.1357
10371SOL    HW235929   6.720   1.007   4.798 -1.4806  0.4095 -1.1272
10373SOL     OW35930   3.465   2.054   0.956  0.2667 -0.0329  0.0450
10373SOL    HW135931   3.452   1.971   0.903  0.8031 -0.1416  0.0772
10373SOL    HW235932   3.561   2.061   0.984  0.3715  0.9009 -0.4883
10374SOL     OW35933   0.785   4.402   1.268  0.0469 -0.8499 -0.5643
10374SOL    HW135934   0.799   4.464   1.345  0.1762 -0.2243 -1.0821
10374SOL    HW235935   0.724   4.328   1.295 -1.9485  0.7526 -0.6126
10375SOL     OW35936   9.540   9.885   3.375 -0.0426 -0.0615  0.3654
10375SOL    HW135937   9.619   9.863   3.318 -0.8092 -0.6568 -0.4929
10375SOL    HW235938   9.556   9.854   3.468  1.1101  0.6587  0.4084
10376SOL     OW35939   1.033   4.518   0.898  0.1621 -0.0372  0.3360
10376SOL    HW135940   1.097   4.500   0.972 -0.9543 -0.0621  1.3205
10376SOL    HW235941   1.083   4.543   0.815  1.4693 -1.1501  0.7711
10378SOL     OW35942   9.004   4.381   0.599  0.0960  0.5248  0.2748
10378SOL    HW135943   8.930   4.380   0.666 -1.5639  0.6234 -1.5149
10378SOL    HW235944   8.989   4.309   0.532  1.2226  1.0496 -0.5570
10379SOL     OW35945   2.353   6.308   2.590 -0.3620  0.0831  0.5546
10379SOL    HW135946   2.318   6.382   2.647 -0.8217 -0.8734  1.5220
10379SOL    HW235947   2.450   6.325   2.570 -0.3077  0.6360  1.2669
10380SOL     OW35948   1.689   2.171   2.187  0.1525  0.0701 -0.9206
10380SOL    HW135949   1.726   2.264   2.182  0.1603  0.0119 -2.1003
10380SOL    HW235950   1.667   2.139   2.095  2.1508 -1.9057 -0.7430
10381SOL     OW35951   4.920   7.844   3.933  0.2800  0.1341  0.2558
10381SOL    HW135952   4.998   7.800   3.890  0.9052  0.1173  1.3938
10381SOL    HW235953   4.873   7.901   3.866  1.1135 -0.0657 -0.5021
10382SOL     OW35954   4.056   3.297   4.698 -0.3361 -0.0725 -0.0721
10382SOL    HW135955   4.021   3.335   4.783  0.4352  1.1060 -0.2763
10382SOL    HW235956   4.015   3.346   4.620 -1.1925 -1.2708 -0.3911
10383SOL     OW35957   7.063   9.326   3.816  0.4786 -0.2589  0.0859
10383SOL    HW135958   7.050   9.228   3.834  0.9751 -0.1669  0.9837
10383SOL    HW235959   7.108   9.338   3.728 -0.4804 -0.7978 -0.4861
10384SOL     OW35960   2.079   2.492   3.292  0.0873  0.2936  0.8953
10384SOL    HW135961   2.114   2.479   3.200 -0.2537  0.3268  0.7583
10384SOL    HW235962   2.086   2.589   3.317 -0.0097  0.3181  0.8267
10385SOL     OW35963   6.459   0.323   3.702 -0.2300 -0.4895 -0.2453
10385SOL    HW135964   6.474   0.355   3.795 -1.0713 -3.0437  0.8020
10385SOL    HW235965   6.375   0.364   3.665 -1.1410 -1.2551  0.9633
10386SOL     OW35966   2.870   2.552   4.318  0.3296  0.1919  0.0998
10386SOL    HW135967   2.845   2.485   4.248  2.0969  1.0611 -1.4177
10386SOL    HW235968   2.868   2.509   4.408 -0.3381 -1.4050 -0.6677
10387SOL     OW35969   0.911   5.221   1.571 -0.0042  0.0350 -0.3281
10387SOL    HW135970   0.948   5.217   1.664 -1.6061 -2.0024  0.2712
10387SOL    HW235971   0.985   5.211   1.505  1.1490  1.5136  0.7195
10388SOL     OW35972   6.388   0.695   3.343  0.4752 -0.0651  0.1586
10388SOL    HW135973   6.313   0.672   3.281 -0.0487 -0.2028  0.8324
10388SOL    HW235974   6.417   0.789   3.327 -1.5732  0.8560  1.6308
10389SOL     OW35975   0.566   0.195   1.709 -0.0650 -0.2279  0.0136
10389SOL    HW135976   0.642   0.148   1.665  0.7414 -0.1230  1.2738
10389SOL    HW235977   0.542   0.276   1.657  1.5391  0.4415  0.2886
10390SOL     OW35978   4.180   7.942   2.840  0.2735  0.0127 -0.1197
10390SOL    HW135979   4.278   7.945   2.822  0.6352  0.9594  1.8818
10390SOL    HW235980   4.130   7.981   2.762  1.5678  0.9846 -0.4762
10392SOL     OW35981   0.348   8.019   3.558 -0.4683 -0.3599 -0.1769
10392SOL    HW135982   0.316   7.934   3.517 -0.8972  0.4016 -1.4762
10392SOL    HW235983   0.430   8.050   3.510 -1.5303  1.0476 -1.1382
10393SOL     OW35984   1.758   6.395   3.569  0.8073  0.7218  0.4073
10393SOL    HW135985   1.705   6.454   3.508  2.5318 -0.5465 -2.3882
10393SOL    HW235986   1.851   6.431   3.578  0.9015  0.2524  1.3715
10395SOL     OW35987   8.808   6.100   3.709  0.5803  0.1005  0.2176
10395SOL    HW135988   8.847   6.010   3.730  0.5647 -0.3448 -1.6184
10395SOL    HW235989   8.709   6.098   3.723  0.8117  0.4135  2.0788
10396SOL     OW35990   5.501   0.072   4.079 -0.4295 -0.0396  0.1086
10396SOL    HW135991   5.426   0.135   4.100  0.1167 -0.0477  2.1328
10396SOL    HW235992   5.588   0.116   4.097  0.0540 -0.3392 -1.4052
10397SOL     OW35993   8.592   8.927   3.232  0.1734  0.3085 -0.1790
10397SOL    HW135994   8.541   8.987   3.171 -0.6720  1.7873  1.8989
10397SOL    HW235995   8.586   8.963   3.326  1.7885 -1.6433  0.7033
10398SOL     OW35996   1.807   0.424   4.136  0.3318 -0.0343  0.0170
10398SOL    HW135997   1.898   0.383   4.146  0.7547  0.5513 -1.2697
10398SOL    HW235998   1.815   0.523   4.146 -0.2579 -0.0408  0.5096
10399SOL     OW35999   7.650   5.178   0.742 -0.4817 -0.8953  0.2026
10399SOL    HW136000   7.747   5.154   0.748 -0.3731 -0.2785  0.8901
10399SOL    HW236001   7.596   5.094   0.728  0.4528 -0.9226 -3.9535
10400SOL     OW36002   4.704   0.717   0.454 -0.0833 -0.0714  0.3816
10400SOL    HW136003   4.735   0.767   0.373  0.5391  0.7842  1.1361
10400SOL    HW236004   4.778   0.659   0.487 -0.4059 -0.5752  0.2252
10401SOL     OW36005   5.842   9.013   4.260  0.1388  0.4794  0.5554
10401SOL    HW136006   5.810   9.031   4.167  1.1516 -1.8453 -0.2954
10401SOL    HW236007   5.766   9.023   4.324 -1.0072  0.3467 -0.7548
10402SOL     OW36008   3.513   1.053   0.892  0.0936  0.1546  0.3158
10402SOL    HW136009   3.469   1.137   0.860  0.1447 -0.2645 -0.8550
10402SOL    HW236010   3.475   1.029   0.981 -1.4222  0.2828 -0.2809
10403SOL     OW36011   1.708   6.300   4.887 -0.3300 -0.1001 -0.2748
10403SOL    HW136012   1.640   6.368   4.860 -0.1038  0.1292 -0.2705
10403SOL    HW236013   1.752   6.263   4.805 -1.9567 -1.8103 -0.4047
10404SOL     OW36014   7.726   9.123   4.593  0.5707  0.1534 -0.7830
10404SOL    HW136015   7.708   9.030   4.624 -0.2223  0.5550  0.0077
10404SOL    HW236016   7.808   9.158   4.638 -1.3538  1.2305  2.0657
10405SOL     OW36017   5.708   9.511   5.109  0.1864 -0.1250 -0.1315
10405SOL    HW136018   5.613   9.526   5.082  0.5657  0.5106 -1.1391
10405SOL    HW236019   5.768   9.527   5.030  1.1595 -0.1513  0.5964
10406SOL     OW36020   1.243   5.217   3.720  0.3812  0.4872  0.0264
10406SOL    HW136021   1.256   5.312   3.692  0.5488  0.5982  0.4764
10406SOL    HW236022   1.145   5.200   3.737  0.4122  0.7312  0.4714
10407SOL     OW36023   1.277   0.048   4.339  0.2198 -0.4101 -0.6779
10407SOL    HW136024   1.330  -0.028   4.378  0.9964 -0.1068 -1.1300
10407SOL    HW236025   1.317   0.075   4.252 -0.6831 -0.1608 -1.0143
10408SOL     OW36026   6.514   1.078   4.250  0.4791 -0.2252 -0.1194
10408SOL    HW136027   6.561   1.142   4.188  0.4315 -0.8453 -0.8051
10408SOL    HW236028   6.541   1.097   4.344  0.9523  0.3939 -0.3740
10409SOL     OW36029   6.316   1.322   4.500 -0.0652  0.0573  0.2815
10409SOL    HW136030   6.346   1.234   4.465  0.3414  0.8587 -1.4302
10409SOL    HW236031   6.302   1.386   4.424 -0.3668  1.4682  1.4852
10410SOL     OW36032   8.711   7.686   2.512 -0.0702  0.1032  0.3909
10410SOL    HW136033   8.774   7.751   2.553  2.7358 -1.8880 -0.5493
10410SOL    HW236034   8.739   7.668   2.417 -1.7729 -1.1633  0.1060
10412SOL     OW36035   1.343   1.815   2.313 -0.4047  0.6314  0.0541
10412SOL    HW136036   1.425   1.842   2.262 -1.9821  0.3886 -2.6957
10412SOL    HW236037   1.341   1.716   2.324 -1.2641  0.4697 -1.5316
10413SOL     OW36038   0.354   1.286   2.879 -0.3617  0.2447  0.5741
10413SOL    HW136039   0.397   1.373   2.854 -3.1299  1.8898  1.3050
10413SOL    HW236040   0.423   1.224   2.915  1.6493  2.2214  0.2238
10414SOL     OW36041   9.864   9.510   2.370 -0.5580  0.0093  0.3274
10414SOL    HW136042   9.783   9.565   2.349 -0.6008 -0.4441 -0.7629
10414SOL    HW236043   9.858   9.423   2.320  0.3242 -0.2592  0.6913
10415SOL     OW36044   1.730   4.662   1.460 -0.1324  0.0699  0.3917
10415SOL    HW136045   1.765   4.721   1.533  1.1382  0.0928 -0.2197
10415SOL    HW236046   1.698   4.718   1.384 -1.0205  0.0302  0.7296
10416SOL     OW36047   5.333   8.143   4.077  0.0474 -0.0266  0.2186
10416SOL    HW136048   5.342   8.187   3.987  1.1954 -0.6254  0.0317
10416SOL    HW236049   5.385   8.196   4.144  1.5673 -1.1601 -0.0373
10417SOL     OW36050   8.878   4.948   3.625 -0.0401 -0.1702 -0.0684
10417SOL    HW136051   8.961   4.893   3.638 -2.1776 -3.8629 -1.2350
10417SOL    HW236052   8.881   4.991   3.535  0.0629 -1.3302 -0.6280
10418SOL     OW36053   2.299   6.017   2.169 -0.3062 -0.0284 -0.4103
10418SOL    HW136054   2.298   6.047   2.074  1.1658 -0.5302 -0.5925
10418SOL    HW236055   2.380   6.053   2.215 -1.4395  0.9384  0.9048
10419SOL     OW36056   4.094   6.795   2.821  0.0350 -0.2847 -0.3359
10419SOL    HW136057   4.179   6.744   2.806 -0.3094 -0.7822 -0.6386
10419SOL    HW236058   4.084   6.864   2.750  0.8459  0.6776  0.4723
10420SOL     OW36059   0.583   5.960   0.004 -0.3243 -0.1939  0.1303
10420SOL    HW136060   0.534   5.881   0.040 -0.7300  0.2490  0.5742
10420SOL    HW236061   0.518   6.035  -0.010  0.1864  0.3101  0.4620
10421SOL     OW36062   9.273   2.226   4.911 -0.1382  0.3223 -0.6474
10421SOL    HW136063   9.274   2.163   4.988  1.8074  1.6409  0.4636
10421SOL    HW236064   9.186   2.219   4.862 -1.5815 -0.2335  1.9230
10422SOL     OW36065   1.798   2.983   2.065  0.4110  0.2050  0.2740
10422SOL    HW136066   1.850   3.046   2.007 -0.0588  0.7428  0.4371
10422SOL    HW236067   1.861   2.926   2.117  0.8412 -0.3417 -0.8274
10423SOL     OW36068   9.564   3.058   1.746  0.0975  0.1571 -0.3980
10423SOL    HW136069   9.466   3.063   1.728 -0.3209  0.5940  1.8385
10423SOL    HW236070   9.607   2.996   1.680 -1.9571 -1.3691 -0.3675
10424SOL     OW36071   9.768   1.408   4.799 -0.1604  0.2228  0.1213
10424SOL    HW136072   9.840   1.404   4.868  0.1373  0.5427 -0.1703
10424SOL    HW236073   9.697   1.341   4.821  0.2780 -0.1695  0.3514
10425SOL     OW36074   8.250   0.077   0.060 -0.2293 -0.2959  0.5908
10425SOL    HW136075   8.244   0.011  -0.015  0.6311 -1.1699  1.2702
10425SOL    HW236076   8.344   0.110   0.067 -0.4393  0.2309  0.9039
10426SOL     OW36077   3.175   6.535   4.938 -0.5318  0.3288  0.4686
10426SOL    HW136078   3.212   6.453   4.982 -0.7619 -0.1121 -0.1586
10426SOL    HW236079   3.111   6.508   4.866 -1.5533  1.0710  1.0792
10427SOL     OW36080   8.406   0.457   0.264 -0.4791 -0.1845  0.0607
10427SOL    HW136081   8.422   0.428   0.169  1.0818  0.5014  0.1098
10427SOL    HW236082   8.435   0.384   0.326  2.4878  0.9902  0.1443
10430SOL     OW36083   4.800   3.170   4.202 -0.1546  0.5156  0.2166
10430SOL    HW136084   4.728   3.143   4.138 -0.8654 -0.1306  1.2874
10430SOL    HW236085   4.818   3.268   4.192 -0.0093  0.3527 -1.2231
10431SOL     OW36086   3.571   9.041   2.313  0.7234 -0.2038  0.0524
10431SOL    HW136087   3.653   9.051   2.257  0.2543 -0.3720 -0.6736
10431SOL    HW236088   3.515   8.965   2.279 -1.1133  1.6591 -1.2135
10432SOL     OW36089   0.475   0.770   2.129  0.4843 -0.1628  0.3916
10432SOL    HW136090   0.559   0.740   2.173  0.0631 -0.3122  1.1026
10432SOL    HW236091   0.411   0.804   2.198  0.7697  1.9308 -0.3556
10433SOL     OW36092   2.448   7.413   4.870  0.0140 -0.2748 -0.5971
10433SOL    HW136093   2.538   7.415   4.827  0.2099  0.8792 -0.1550
10433SOL    HW236094   2.415   7.319   4.874  2.1004 -0.9736  1.0846
10434SOL     OW36095   0.155   2.486   1.619  0.2584  0.1773 -0.0369
10434SOL    HW136096   0.135   2.397   1.658 -0.5574  1.0916  1.6605
10434SOL    HW236097   0.230   2.529   1.669  1.3393  0.0242 -1.4950
10435SOL     OW36098   4.373   8.207   4.356 -0.1670  0.6282  0.0758
10435SOL    HW136099   4.328   8.150   4.425  0.1811  0.7821  0.4253
10435SOL    HW236100   4.401   8.150   4.278  1.5507  0.0514  1.0909
10436SOL     OW36101   1.481   1.123   2.170  0.2857  0.0453 -0.1895
10436SOL    HW136102   1.525   1.089   2.088  1.0108 -1.0076  0.6299
10436SOL    HW236103   1.539   1.106   2.250  0.3442  2.5518  0.3358
10437SOL     OW36104   0.670   7.181   1.329  0.5849  0.0465 -0.0564
10437SOL    HW136105   0.679   7.159   1.232  0.1303  1.3022 -0.3968
10437SOL    HW236106   0.659   7.280   1.339 -0.8506 -0.2325  1.1642
10438SOL     OW36107   9.157   3.937   4.433  0.0574  0.5364 -0.3821
10438SOL    HW136108   9.072   3.974   4.396 -0.2942 -0.4064 -0.5242
10438SOL    HW236109   9.145   3.917   4.530  0.0046  0.0726 -0.4827
10439SOL     OW36110   2.775   6.722   3.259 -0.2433 -0.9814 -0.4708
10439SOL    HW136111   2.872   6.698   3.246  0.3793  0.3873  1.3812
10439SOL    HW236112   2.746   6.695   3.351 -1.1811  0.0353 -0.4656
10440SOL     OW36113   8.483   6.817   2.733  0.3958 -0.5276  0.5430
10440SOL    HW136114   8.482   6.729   2.687 -0.4268  0.1063 -0.6787
10440SOL    HW236115   8.396   6.863   2.719  0.8864  0.5591  1.0006
10441SOL     OW36116   8.614   0.876   0.634  0.0532 -0.8734  0.0340
10441SOL    HW136117   8.696   0.897   0.581  0.1827 -3.1645 -0.7288
10441SOL    HW236118   8.533   0.901   0.581  0.2224  0.9346  0.5890
10442SOL     OW36119   1.432   7.686   3.615  0.7170  0.6799  0.1984
10442SOL    HW136120   1.358   7.651   3.672  0.5142 -1.3074 -1.2154
10442SOL    HW236121   1.435   7.633   3.529  3.6064  0.8989  0.1311
10443SOL     OW36122   9.954   8.210   2.915 -0.4023  0.2812  0.0633
10443SOL    HW136123   9.942   8.111   2.903  0.0380  0.2940 -0.5392
10443SOL    HW236124  10.048   8.235   2.890 -0.9351  1.0542 -1.2310
10445SOL     OW36125   0.829   0.294   2.241 -0.4487 -0.2083 -0.3713
10445SOL    HW136126   0.895   0.220   2.253  0.0877  0.4780  1.0523
10445SOL    HW236127   0.791   0.319   2.330 -0.9535  0.9240 -0.9022
10446SOL     OW36128   1.078   9.604   4.620  0.1064  0.5372 -0.3418
10446SOL    HW136129   0.995   9.590   4.674  0.2042 -0.6983 -0.5118
10446SOL    HW236130   1.145   9.653   4.676  0.3417 -1.0566  0.7921
10447SOL     OW36131   2.074   6.975   3.548 -0.1747 -0.3458  0.5261
10447SOL    HW136132   2.049   7.072   3.548 -1.2399 -0.6110  0.6951
10447SOL    HW236133   2.012   6.925   3.488 -0.5795 -1.1472  1.5818
10448SOL     OW36134   6.281   0.708   2.624 -0.6152 -0.0520  0.3800
10448SOL    HW136135   6.318   0.759   2.701  1.0271  1.3988 -1.3044
10448SOL    HW236136   6.335   0.624   2.612 -0.8598 -0.2697  0.8014
10449SOL     OW36137   0.037   9.958   4.116 -0.5391 -0.5143  0.1839
10449SOL    HW136138   0.115   9.909   4.076 -1.2067 -0.5282 -1.1080
10449SOL    HW236139  -0.042   9.897   4.122 -0.6346 -0.3225  0.9280
10450SOL     OW36140   1.742   5.092   2.267 -0.1213  0.2419  0.1453
10450SOL    HW136141   1.740   5.159   2.342  1.3589  1.1621 -0.6066
10450SOL    HW236142   1.813   5.024   2.285 -1.9113 -1.4287  1.1215
10451SOL     OW36143   6.181   9.982   1.755  0.1134 -0.9777 -0.2595
10451SOL    HW136144   6.264   9.939   1.791  2.2223  2.8642 -0.2299
10451SOL    HW236145   6.121  10.007   1.831  1.2958  0.7504  0.1395
10453SOL     OW36146   8.727   2.431   4.418 -0.0015 -0.0181 -0.1610
10453SOL    HW136147   8.701   2.396   4.509 -1.2430 -1.4208 -1.0258
10453SOL    HW236148   8.677   2.380   4.348  3.1761 -0.9753 -1.7951
10454SOL     OW36149   1.045   6.598   5.009  0.3617 -0.5999 -0.1496
10454SOL    HW136150   1.138   6.633   5.017 -0.2380  0.7108  1.4579
10454SOL    HW236151   0.988   6.639   5.080 -1.8083 -0.2245 -2.0530
10456SOL     OW36152   1.701   5.420   4.820 -0.1042 -0.1196  0.0736
10456SOL    HW136153   1.635   5.374   4.761  0.1961  1.6127 -1.6536
10456SOL    HW236154   1.664   5.508   4.849  0.3799 -0.2971  1.2666
10457SOL     OW36155   9.718   5.168   1.806 -0.5920  0.0667  0.4434
10457SOL    HW136156   9.700   5.160   1.708 -1.5017 -0.2323  0.6285
10457SOL    HW236157   9.770   5.251   1.824  1.9604 -1.2692 -0.5994
10460SOL     OW36158   3.347   6.453   3.343  0.1593  0.2122  0.2067
10460SOL    HW136159   3.262   6.401   3.346  0.0191  0.3719 -0.6987
10460SOL    HW236160   3.375   6.477   3.435 -0.5325 -0.2474  0.5393
10464SOL     OW36161   9.924   7.298   1.904  0.4139 -0.2874  0.3690
10464SOL    HW136162  10.004   7.245   1.876  0.6778  0.5402 -0.4523
10464SOL    HW236163   9.849   7.236   1.927  0.3190 -0.9867 -1.7649
10465SOL     OW36164   8.831   1.582   3.383 -0.2946  0.2214 -0.2179
10465SOL    HW136165   8.744   1.596   3.336 -1.1416 -2.3086  0.5320
10465SOL    HW236166   8.846   1.656   3.448 -2.1643  0.4008  0.0352
10466SOL     OW36167   7.730   3.165   0.539 -0.1466 -0.0961 -0.5810
10466SOL    HW136168   7.642   3.185   0.497  0.4317  0.4169 -1.5744
10466SOL    HW236169   7.745   3.227   0.616 -0.9657 -0.6677  0.0457
10467SOL     OW36170   3.050   9.635   2.150 -0.1738  0.1187 -0.3639
10467SOL    HW136171   2.956   9.602   2.153  0.5011 -1.8289  0.3486
10467SOL    HW236172   3.111   9.565   2.187  1.5179  1.5140 -0.4394
10468SOL     OW36173   8.944   8.162   0.966  0.4702  0.0465 -0.0464
10468SOL    HW136174   8.969   8.097   1.038 -0.3770  0.5012  0.6609
10468SOL    HW236175   8.873   8.224   1.000 -1.2372 -0.8787 -1.8609
10469SOL     OW36176   6.885   7.702   4.289 -0.1074  0.5541 -0.6667
10469SOL    HW136177   6.978   7.665   4.290 -0.1514  0.4571  1.7814
10469SOL    HW236178   6.859   7.723   4.194  2.2065  0.1204 -1.4379
10470SOL     OW36179   3.574   9.484   3.323  0.1938 -0.1277  0.2111
10470SOL    HW136180   3.617   9.417   3.263  0.5389 -1.4280  1.9002
10470SOL    HW236181   3.476   9.489   3.303  0.1159 -1.3522  0.2904
10471SOL     OW36182   4.653   9.765   2.093 -0.4221 -0.2675 -0.5088
10471SOL    HW136183   4.567   9.816   2.094 -0.5207 -0.4416  0.1492
10471SOL    HW236184   4.718   9.810   2.032 -0.1559  1.2123  0.8444
10472SOL     OW36185   9.594   5.897   3.717  0.1201  0.2688 -0.1571
10472SOL    HW136186   9.499   5.873   3.738 -0.2945  0.1704 -2.0358
10472SOL    HW236187   9.637   5.936   3.798 -1.6268  0.6456  0.6230
10473SOL     OW36188   7.722   9.540   4.665 -0.2085 -0.2254 -0.0671
10473SOL    HW136189   7.752   9.602   4.738 -0.9618 -0.3099  0.3244
10473SOL    HW236190   7.782   9.460   4.663 -0.8382 -0.7524  1.2039
10474SOL     OW36191   1.166   5.281   0.356  0.0077  0.2591  0.3320
10474SOL    HW136192   1.131   5.362   0.309 -1.3983 -0.6781 -0.2867
10474SOL    HW236193   1.152   5.291   0.454 -2.4502 -0.2549  0.0747
10475SOL     OW36194   1.925   0.649   3.185  0.3080 -0.3922 -0.3026
10475SOL    HW136195   1.845   0.653   3.245 -0.3540 -2.6147 -0.9816
10475SOL    HW236196   1.954   0.742   3.162 -1.0738  0.4614  1.2639
10477SOL     OW36197   0.599   4.201   2.116  0.3327 -0.1887 -0.9251
10477SOL    HW136198   0.589   4.123   2.176  0.5579  0.6350  0.1985
10477SOL    HW236199   0.536   4.192   2.039  0.6052 -1.6283 -0.9859
10478SOL     OW36200   4.271   3.660   3.453  0.0905  0.4290  0.1098
10478SOL    HW136201   4.234   3.604   3.527 -0.6787 -2.0857 -2.1134
10478SOL    HW236202   4.198   3.687   3.391  0.9370  1.3411 -0.5167
10479SOL     OW36203   8.771   6.323   1.999 -0.0916 -0.1353  0.0749
10479SOL    HW136204   8.779   6.290   2.093  0.2220 -0.1309  0.0530
10479SOL    HW236205   8.786   6.248   1.935 -0.5395 -0.1844  0.0308
10480SOL     OW36206   5.304   2.840   3.497  0.5553 -0.8495  0.0375
10480SOL    HW136207   5.297   2.802   3.589  2.1418  0.6039  0.7854
10480SOL    HW236208   5.356   2.776   3.439 -0.3008 -1.6889  0.1795
10481SOL     OW36209   8.456   1.497   1.995 -0.5474 -0.4113  0.2827
10481SOL    HW136210   8.392   1.527   2.066 -1.0658 -1.8238  0.4337
10481SOL    HW236211   8.546   1.537   2.012 -1.2903  1.2988  0.2860
10482SOL     OW36212   5.406   8.636   2.353 -0.3779 -0.3247 -0.8481
10482SOL    HW136213   5.420   8.538   2.339  0.8259 -0.1038 -1.2330
10482SOL    HW236214   5.366   8.651   2.443  2.1141 -0.9898  0.4207
10483SOL     OW36215   1.333   1.686   1.712 -0.1823  0.2338  0.5084
10483SOL    HW136216   1.372   1.728   1.794  0.5914  1.8268 -0.6437
10483SOL    HW236217   1.276   1.753   1.665  0.8131 -0.1082 -1.1961
10485SOL     OW36218   1.251   5.659   1.030 -0.3760  0.4389 -0.5014
10485SOL    HW136219   1.307   5.625   0.955  0.8972 -0.2210  0.7139
10485SOL    HW236220   1.168   5.603   1.038 -0.5160  0.5109 -1.3937
10486SOL     OW36221   4.889   4.672   1.449  0.3206  0.0580  0.0750
10486SOL    HW136222   4.819   4.656   1.380  1.6518 -0.3319 -1.2028
10486SOL    HW236223   4.868   4.617   1.530 -0.2171 -0.9532 -0.7318
10488SOL     OW36224   6.862   0.662   0.083 -0.2683  0.2099 -0.5302
10488SOL    HW136225   6.948   0.616   0.103 -0.6342 -0.7589 -1.1211
10488SOL    HW236226   6.837   0.646  -0.013 -0.0367  2.2644 -0.9496
10489SOL     OW36227   3.526   4.316   4.675  0.3492  0.6791 -0.1174
10489SOL    HW136228   3.512   4.218   4.665  0.7824  0.4975  1.0417
10489SOL    HW236229   3.459   4.353   4.740  0.2400  1.1462 -0.4859
10490SOL     OW36230   6.531   1.744   4.841  0.9578 -0.1680  0.3166
10490SOL    HW136231   6.466   1.668   4.838  0.3818  0.3382  0.0162
10490SOL    HW236232   6.623   1.708   4.862  0.2415 -0.6782  2.7782
10491SOL     OW36233   8.257   6.948   2.686 -0.4814 -0.6394 -0.1793
10491SOL    HW136234   8.229   6.958   2.781  1.8369  0.1408  0.4398
10491SOL    HW236235   8.275   7.038   2.647  4.2794 -1.2179  0.4310
10492SOL     OW36236   1.573   0.588   3.097  0.3520  0.5976  0.0945
10492SOL    HW136237   1.496   0.648   3.118  1.6447  2.6464 -0.9000
10492SOL    HW236238   1.627   0.627   3.023  1.6429 -1.4582 -0.0934
10493SOL     OW36239   2.627   0.084   2.422  0.5294  0.0194  0.0542
10493SOL    HW136240   2.542   0.038   2.396  1.5160 -1.4106 -0.6779
10493SOL    HW236241   2.626   0.101   2.521  0.1163 -1.4905  0.3174
10494SOL     OW36242   6.702   0.413   2.033  0.6917  0.4210  0.0244
10494SOL    HW136243   6.623   0.359   2.004  1.6276 -0.5136 -0.8293
10494SOL    HW236244   6.734   0.381   2.122  0.9587 -0.1389 -0.2702
10496SOL     OW36245   3.085   1.388   1.334  0.7976 -0.7212  0.3057
10496SOL    HW136246   3.113   1.437   1.416  1.1857 -0.0664 -0.2128
10496SOL    HW236247   3.161   1.388   1.268 -0.4348  1.1598 -1.1554
10498SOL     OW36248   3.661   0.794   1.180 -0.0153 -0.2220  0.0868
10498SOL    HW136249   3.746   0.835   1.215 -0.4277 -0.7144  1.7096
10498SOL    HW236250   3.666   0.694   1.190  0.0749 -0.4237 -1.8016
10499SOL     OW36251   4.538   4.103   0.887  0.2847  0.3972  0.1719
10499SOL    HW136252   4.534   4.003   0.884 -0.7721  0.4600 -1.2604
10499SOL    HW236253   4.599   4.136   0.815  0.5216  0.7805  0.5495
10501SOL     OW36254   8.684   4.331   4.764 -0.2805  0.5590 -0.6022
10501SOL    HW136255   8.694   4.406   4.830  2.9477  0.1519 -0.5460
10501SOL    HW236256   8.606   4.274   4.790 -0.1453  1.4166  1.8606
10502SOL     OW36257   6.106   8.536   3.131  0.9687 -0.5309  0.1232
10502SOL    HW136258   6.130   8.628   3.099 -0.5988  0.3372  1.3570
10502SOL    HW236259   6.102   8.536   3.231  1.8593 -2.1823  0.1651
10506SOL     OW36260   6.727   0.963   1.482 -1.0522 -0.1995  0.3267
10506SOL    HW136261   6.801   0.941   1.546 -0.8480 -0.8177 -0.1156
10506SOL    HW236262   6.695   1.056   1.499 -0.6519 -0.1777  0.9891
10509SOL     OW36263   2.036   9.976   3.005  0.1326  0.4457  0.1424
10509SOL    HW136264   2.102  10.046   3.030  0.4872 -0.1343  0.8538
10509SOL    HW236265   1.967  10.015   2.944  0.5738  1.2959  0.1800
10510SOL     OW36266   9.011   8.379   1.291 -0.1619  0.0818 -1.0016
10510SOL    HW136267   9.012   8.289   1.335  2.1387  0.4428 -0.2812
10510SOL    HW236268   8.916   8.405   1.273 -0.9274 -1.9380 -0.1025
10511SOL     OW36269   3.981   7.059   4.381 -0.0530 -0.8270 -0.0742
10511SOL    HW136270   3.940   6.982   4.331  2.6715 -1.2386 -1.7426
10511SOL    HW236271   4.019   7.026   4.468 -0.5283 -1.0023  0.0699
10514SOL     OW36272   4.673   7.382   2.549 -0.1838  0.3583  0.5310
10514SOL    HW136273   4.660   7.321   2.627 -1.0594  0.6147  0.5945
10514SOL    HW236274   4.767   7.416   2.548 -0.0896  0.1326  1.3136
10515SOL     OW36275   3.121   9.127   4.355 -0.0642  0.5038  0.1214
10515SOL    HW136276   3.080   9.177   4.279 -0.5023  1.1872  0.8040
10515SOL    HW236277   3.066   9.046   4.375 -1.5281  1.8097  1.5174
10516SOL     OW36278   0.141   6.628   0.983  0.0008  0.0768  0.0360
10516SOL    HW136279   0.107   6.607   1.075  2.3716 -0.8507  0.7409
10516SOL    HW236280   0.150   6.543   0.931 -1.9900  0.6678 -1.3198
10517SOL     OW36281   8.028   9.961   3.623  0.0854 -0.1237  0.3863
10517SOL    HW136282   8.028   9.942   3.525  0.7581 -1.0528  0.5538
10517SOL    HW236283   8.122   9.959   3.658 -0.1736 -0.1140  1.1092
10518SOL     OW36284   1.060   9.133   2.020  0.0993 -0.4595 -0.4111
10518SOL    HW136285   1.047   9.218   2.071 -0.2368 -1.2777  0.8583
10518SOL    HW236286   0.982   9.072   2.033  0.2942 -0.9442 -1.3927
10519SOL     OW36287   0.436   9.388   4.360 -0.4678 -0.6661 -0.3073
10519SOL    HW136288   0.453   9.312   4.424 -0.3665 -0.0555  0.4027
10519SOL    HW236289   0.494   9.466   4.385 -0.4983 -0.3886 -1.0930
10520SOL     OW36290   3.609   2.524   0.744  0.1360  0.0869 -0.3882
10520SOL    HW136291   3.650   2.511   0.654 -0.4932  0.0932 -0.6746
10520SOL    HW236292   3.509   2.521   0.737  0.0019  2.4621 -0.0767
10521SOL     OW36293   9.372   8.328   3.228 -0.1564  0.6435 -0.6589
10521SOL    HW136294   9.277   8.299   3.234 -0.0869  0.6051  0.3950
10521SOL    HW236295   9.432   8.254   3.259  0.0300  1.8181  1.9903
10522SOL     OW36296   9.301   0.304   4.864 -0.0953 -0.4365 -0.7907
10522SOL    HW136297   9.277   0.212   4.895 -2.2385 -0.1097 -1.3521
10522SOL    HW236298   9.292   0.309   4.765  1.5440 -0.0302 -0.9356
10523SOL     OW36299   0.485   2.022   0.804  0.0633  0.1254 -0.7309
10523SOL    HW136300   0.475   1.978   0.894 -1.1435  2.5985  0.4051
10523SOL    HW236301   0.403   2.005   0.750 -1.5271  2.9585  0.6644
10525SOL     OW36302   3.281   5.654   1.832 -0.1550 -0.4063 -1.0502
10525SOL    HW136303   3.258   5.750   1.820 -1.1061 -0.4548  0.2565
10525SOL    HW236304   3.198   5.602   1.851  0.4924 -1.3034 -0.6369
10527SOL     OW36305   1.057   2.070   1.424 -0.3190 -0.0804  0.3381
10527SOL    HW136306   0.968   2.045   1.462 -2.6045  2.8088 -2.8142
10527SOL    HW236307   1.090   2.153   1.469 -0.7660  0.6321 -0.6204
10528SOL     OW36308   2.669   1.127   5.190  0.1428  0.2708  0.0228
10528SOL    HW136309   2.587   1.143   5.245  0.1363 -0.0507  0.1107
10528SOL    HW236310   2.750   1.152   5.243  0.1505 -0.2634  0.2724
10529SOL     OW36311   1.123   2.871   1.476  0.2855  0.2319 -0.0884
10529SOL    HW136312   1.052   2.831   1.535 -0.0836  0.5503 -0.3171
10529SOL    HW236313   1.197   2.805   1.465  1.5301  1.0669  2.7315
10530SOL     OW36314   1.142   7.855   3.745 -0.4367  0.3256  0.0523
10530SOL    HW136315   1.156   7.762   3.777  0.9225  0.2129 -0.8183
10530SOL    HW236316   1.103   7.854   3.653  1.1195  0.5719 -0.6366
10531SOL     OW36317   7.875   1.588   4.690 -0.5482 -0.1340 -0.0977
10531SOL    HW136318   7.926   1.643   4.624 -1.7293  3.0122  1.5212
10531SOL    HW236319   7.842   1.505   4.645 -0.1702  1.2563 -3.1115
10532SOL     OW36320   9.638   8.036   0.134  0.0689  0.1189  0.1420
10532SOL    HW136321   9.613   8.121   0.087 -1.2833 -0.6259 -0.5055
10532SOL    HW236322   9.733   8.042   0.165  0.2257  1.5666 -0.5832
10533SOL     OW36323   1.117   9.529   0.584  0.4113  0.5312 -0.0183
10533SOL    HW136324   1.024   9.544   0.617 -0.7077 -1.7770 -1.9757
10533SOL    HW236325   1.158   9.452   0.633  0.5540  0.2695 -0.5465
10534SOL     OW36326   2.792   0.676   2.565 -0.1618  0.0975  0.0195
10534SOL    HW136327   2.741   0.676   2.479 -0.4153 -1.2023  0.1594
10534SOL    HW236328   2.828   0.768   2.582 -0.7190  0.5398 -1.1060
10536SOL     OW36329   1.892   3.944   5.243  0.6334  0.4543  0.3202
10536SOL    HW136330   1.886   4.014   5.314 -0.7294  3.1391 -2.3478
10536SOL    HW236331   1.801   3.929   5.203  1.7585  0.6096 -2.3674
10537SOL     OW36332   1.846   8.277   2.674  0.5840  0.4415  0.1957
10537SOL    HW136333   1.827   8.323   2.761  1.2709  0.1933  0.4811
10537SOL    HW236334   1.824   8.180   2.682  0.4839  0.4515  0.0382
10538SOL     OW36335   2.318   0.172   2.532  0.2392 -0.5771 -0.3864
10538SOL    HW136336   2.265   0.088   2.529  1.0010 -1.1360  1.4128
10538SOL    HW236337   2.401   0.158   2.586  0.8907  1.0395 -0.9265
10540SOL     OW36338   0.646   3.591   1.192  0.0219 -0.6902  0.0462
10540SOL    HW136339   0.574   3.576   1.260 -1.0197 -0.9281 -1.0913
10540SOL    HW236340   0.647   3.687   1.165  0.1739 -0.6775  0.0960
10541SOL     OW36341   7.332   1.507   3.008 -0.3246  0.5887  0.0353
10541SOL    HW136342   7.325   1.600   3.042 -1.4564  0.0189  1.4362
10541SOL    HW236343   7.288   1.501   2.918  0.9555  1.6872 -0.6680
10542SOL     OW36344   1.653   6.555   3.383 -0.2265 -0.1970  0.2695
10542SOL    HW136345   1.645   6.638   3.327 -1.0948 -0.4439  0.0240
10542SOL    HW236346   1.623   6.476   3.330  0.6183 -0.6795  0.5015
10543SOL     OW36347   1.385   8.715   1.829  0.0696  0.7131  0.0984
10543SOL    HW136348   1.316   8.786   1.817 -1.5972 -1.0935 -1.2285
10543SOL    HW236349   1.376   8.675   1.921  0.6018  1.7487  0.6124
10544SOL     OW36350   7.497   1.107   2.317 -0.0405  0.0087 -0.0599
10544SOL    HW136351   7.465   1.045   2.246  0.6073 -0.2553 -0.1170
10544SOL    HW236352   7.560   1.059   2.378 -0.2058  0.3709  0.4007
10546SOL     OW36353   9.436   2.166   2.361  0.3420  0.5550 -0.3314
10546SOL    HW136354   9.486   2.089   2.322  0.7632  0.0489  1.1716
10546SOL    HW236355   9.490   2.250   2.348  0.0594  0.5589 -1.6173
10547SOL     OW36356   1.529   8.352   0.123  0.0042 -0.3832 -0.7905
10547SOL    HW136357   1.590   8.324   0.050 -0.8577  1.8339 -2.4177
10547SOL    HW236358   1.486   8.439   0.100 -3.4792 -1.6504  0.4575
10549SOL     OW36359   6.283   1.794   4.061 -0.6669  0.3394 -0.0399
10549SOL    HW136360   6.201   1.737   4.052  0.7270 -1.6530 -0.2846
10549SOL    HW236361   6.307   1.803   4.158  0.4414 -1.4249 -0.1400
10550SOL     OW36362   9.942   9.747   1.927 -0.2404 -0.1802 -0.6785
10550SOL    HW136363   9.849   9.779   1.910  0.3896  1.2851 -1.4330
10550SOL    HW236364   9.965   9.760   2.023 -0.5460  0.1682 -0.6534
10551SOL     OW36365   2.524   9.546   0.576 -0.0851 -0.2715 -0.0361
10551SOL    HW136366   2.435   9.545   0.530 -0.0209  0.7984 -0.2092
10551SOL    HW236367   2.531   9.629   0.632  0.7681 -0.3895  0.0431
10552SOL     OW36368   7.295   8.862   3.587  0.1167 -0.5772 -0.2269
10552SOL    HW136369   7.269   8.937   3.525  1.4783  0.1849  0.1093
10552SOL    HW236370   7.212   8.813   3.615 -1.0359  1.9338  0.9647
10553SOL     OW36371   5.703   0.646   3.868  0.4598 -0.1015  0.0201
10553SOL    HW136372   5.783   0.621   3.814 -0.4030 -1.6270 -0.5623
10553SOL    HW236373   5.626   0.667   3.807  0.1839  0.6130  0.5977
10554SOL     OW36374   1.528   2.670   1.061 -0.3732 -0.6507  0.4538
10554SOL    HW136375   1.524   2.594   0.996  0.5879 -0.6363  0.3772
10554SOL    HW236376   1.589   2.647   1.136 -2.5181 -1.2194  2.0872
10555SOL     OW36377   8.197   9.717   3.781 -0.2938  0.1913 -0.0810
10555SOL    HW136378   8.221   9.658   3.704 -0.7960  0.9650 -0.8431
10555SOL    HW236379   8.210   9.812   3.755 -1.1522  0.4885  0.5449
10556SOL     OW36380   9.624   3.621   0.098 -0.0579  0.2866 -0.1813
10556SOL    HW136381   9.606   3.558   0.023 -2.8537  1.1601 -0.3093
10556SOL    HW236382   9.688   3.691   0.068  0.9373 -0.9122 -0.8951
10557SOL     OW36383   1.222   1.740   4.154 -0.3234  0.0447 -0.4404
10557SOL    HW136384   1.205   1.753   4.251  1.4112 -1.1887  0.0407
10557SOL    HW236385   1.291   1.806   4.123 -1.0371  0.5895 -0.9049
10558SOL     OW36386   7.830   8.981   5.200 -0.2679  0.7296  0.0067
10558SOL    HW136387   7.858   8.905   5.258 -0.5722  1.2935  0.8971
10558SOL    HW236388   7.901   9.051   5.199 -1.4812  2.0276  2.0324
10559SOL     OW36389   0.686   6.545   3.874 -0.0346  0.5432  0.4435
10559SOL    HW136390   0.688   6.462   3.929  1.2195 -0.1911 -0.6706
10559SOL    HW236391   0.695   6.625   3.934  0.8385 -0.2204  1.3416
10560SOL     OW36392   4.035   6.436   1.881 -0.4465  0.5092  0.0389
10560SOL    HW136393   4.024   6.426   1.782 -0.0059 -1.4788  0.1718
10560SOL    HW236394   4.009   6.529   1.908 -2.1388  0.5807 -1.7105
10561SOL     OW36395   2.747   9.874   3.664  0.3908 -0.1328 -0.1083
10561SOL    HW136396   2.779   9.812   3.735 -0.0438 -0.3430 -0.0926
10561SOL    HW236397   2.662   9.839   3.624 -1.1939  1.6520  1.5876
10562SOL     OW36398   0.501   5.983   4.633  0.1292 -0.4444  0.1334
10562SOL    HW136399   0.502   5.889   4.599 -3.5693 -0.5475  0.1407
10562SOL    HW236400   0.485   5.982   4.732 -3.6227  0.2329 -0.4085
10563SOL     OW36401   9.206   3.638   4.012 -0.1862  0.2798  0.4907
10563SOL    HW136402   9.153   3.642   4.097 -0.1940  0.0029  0.4995
10563SOL    HW236403   9.165   3.570   3.951  0.4936 -0.3593  0.7308
10564SOL     OW36404   8.816   3.714   1.769 -0.5711  0.7649 -0.0050
10564SOL    HW136405   8.745   3.662   1.816 -1.2068  0.3488 -1.3804
10564SOL    HW236406   8.788   3.810   1.761 -0.9346  0.6226 -0.4520
10565SOL     OW36407   4.922   3.467   3.046  0.1503  0.1618  0.3358
10565SOL    HW136408   4.903   3.565   3.037 -0.0460  0.0623 -0.3204
10565SOL    HW236409   4.950   3.448   3.140  0.3658  0.8800  0.4242
10566SOL     OW36410   0.706   2.525   2.356 -0.1109  0.2193 -0.5558
10566SOL    HW136411   0.735   2.618   2.333  0.4324 -0.0630 -1.0316
10566SOL    HW236412   0.781   2.477   2.403 -0.1473 -0.1923 -0.9127
10568SOL     OW36413   0.238   3.071   2.351  0.3251  0.4029 -0.0034
10568SOL    HW136414   0.176   2.992   2.349  0.4572  0.3397 -2.9676
10568SOL    HW236415   0.194   3.146   2.401  0.3944 -1.6515  3.2721
10569SOL     OW36416   6.842   4.689   0.915  0.1481 -0.1926  0.0929
10569SOL    HW136417   6.782   4.722   0.842 -0.8115  1.9578  1.8179
10569SOL    HW236418   6.937   4.710   0.892 -0.2611  1.6878  0.0906
10570SOL     OW36419   9.308   3.551   4.937 -0.7459 -0.2250 -0.0961
10570SOL    HW136420   9.266   3.604   4.864 -0.1117  0.1232 -0.2132
10570SOL    HW236421   9.387   3.501   4.900  1.4792  2.3764  1.0048
10572SOL     OW36422   7.726   8.337   4.285  0.2331 -0.0070  0.4409
10572SOL    HW136423   7.691   8.272   4.218  2.9376 -1.2373  0.1387
10572SOL    HW236424   7.795   8.395   4.242 -0.5296  1.5469  1.2904
10573SOL     OW36425   4.301   9.517   1.043  0.1538  0.1323 -0.0356
10573SOL    HW136426   4.310   9.428   1.000  1.5850  0.3146 -0.1313
10573SOL    HW236427   4.355   9.585   0.993  0.3633  0.7254  0.9618
10575SOL     OW36428   5.434   1.595   1.249  0.2461 -0.0399 -0.4406
10575SOL    HW136429   5.459   1.657   1.324 -1.3993  1.0257 -0.7263
10575SOL    HW236430   5.472   1.505   1.266  1.4907  0.6856  0.7233
10576SOL     OW36431   2.011   5.902   1.902  0.8528 -0.0082  0.1854
10576SOL    HW136432   2.084   5.835   1.916  0.4147 -0.5585 -0.1308
10576SOL    HW236433   1.963   5.917   1.988  1.1807  0.1810  0.3407
10577SOL     OW36434   2.397   9.556   2.823  0.4700  0.0166 -0.2104
10577SOL    HW136435   2.353   9.623   2.763  1.7121 -0.7841 -2.0573
10577SOL    HW236436   2.492   9.584   2.839  0.4449 -0.3216  0.5285
10580SOL     OW36437   9.917   4.783   3.390 -0.2955 -0.9364  0.1044
10580SOL    HW136438   9.904   4.768   3.292 -0.5234  0.3327 -0.0773
10580SOL    HW236439   9.936   4.696   3.435 -1.5871 -1.7295 -0.8518
10581SOL     OW36440   4.861   3.941   1.522  0.0334  0.8335 -0.1436
10581SOL    HW136441   4.828   4.033   1.503 -0.1591  1.0372  1.1563
10581SOL    HW236442   4.878   3.893   1.435 -1.5300  1.4762 -0.8238
10582SOL     OW36443   2.145   2.429   2.364  0.0865  0.3026  0.0004
10582SOL    HW136444   2.143   2.505   2.430 -0.1174  0.6916 -0.4539
10582SOL    HW236445   2.163   2.343   2.413 -1.9797  0.3173  0.8233
10583SOL     OW36446   2.680   0.459   4.803  0.1425  0.0595 -0.0703
10583SOL    HW136447   2.697   0.368   4.766 -0.9375 -0.2110  0.1009
10583SOL    HW236448   2.768   0.506   4.815  0.7864 -1.2680  0.6279
10585SOL     OW36449   2.167   4.854   4.600 -0.1408 -0.0700 -0.2880
10585SOL    HW136450   2.114   4.930   4.636  0.2261  0.6654 -1.2906
10585SOL    HW236451   2.175   4.862   4.501  1.0915 -0.6592 -0.2497
10587SOL     OW36452   3.082   4.163   0.012  0.0377 -0.3066 -0.1613
10587SOL    HW136453   3.075   4.149   0.111  1.0813  0.0110 -0.0320
10587SOL    HW236454   3.036   4.088  -0.035 -0.2542 -0.5940  0.5662
10588SOL     OW36455   8.134   6.096   1.507 -0.5403  0.5158 -0.4518
10588SOL    HW136456   8.077   6.019   1.476 -0.9667  1.2616 -1.5392
10588SOL    HW236457   8.134   6.099   1.607 -2.2289  0.3517 -0.4316
10590SOL     OW36458   6.091   4.267   0.305  0.0614  0.3637 -0.1635
10590SOL    HW136459   6.093   4.207   0.385  0.5801 -0.5812 -0.8671
10590SOL    HW236460   6.058   4.357   0.331 -1.1374 -0.3533  0.8385
10591SOL     OW36461   4.888   6.844   2.809 -0.4375 -0.3881  0.1116
10591SOL    HW136462   4.817   6.910   2.788 -0.1571  0.4061  1.6083
10591SOL    HW236463   4.883   6.768   2.744 -1.8929  0.2234 -0.5128
10592SOL     OW36464   3.098   0.450   0.903  0.7987  0.3543  0.1166
10592SOL    HW136465   3.182   0.421   0.858 -0.0833 -2.2235  0.0275
10592SOL    HW236466   3.083   0.395   0.985 -2.3439 -1.4236 -1.5389
10593SOL     OW36467   0.711   7.228   0.287  0.3558 -0.6270  0.1483
10593SOL    HW136468   0.810   7.242   0.284  0.3464 -0.3970  0.7994
10593SOL    HW236469   0.667   7.290   0.223  0.6393 -0.7675 -0.1850
10594SOL     OW36470   5.103   8.562   5.122 -0.4083 -0.5356 -0.2055
10594SOL    HW136471   5.038   8.550   5.047  0.3532  1.3685 -1.2225
10594SOL    HW236472   5.187   8.513   5.101 -0.1813  0.0282 -0.6154
10595SOL     OW36473   9.648   5.453   2.145 -0.2461 -0.1402  0.0284
10595SOL    HW136474   9.588   5.373   2.152  1.7075 -1.5031  1.7521
10595SOL    HW236475   9.734   5.426   2.100 -0.4393  1.5346 -1.4202
10596SOL     OW36476   3.035   4.578   1.157  0.0311  0.1385 -0.3833
10596SOL    HW136477   2.977   4.646   1.201 -0.7049  0.0391 -1.2120
10596SOL    HW236478   2.984   4.529   1.087  0.6970 -0.9317 -0.1423
10598SOL     OW36479   7.748   4.165   2.528 -0.0996  0.7713 -0.2141
10598SOL    HW136480   7.769   4.213   2.443  1.5608  1.1668  0.4061
10598SOL    HW236481   7.720   4.071   2.507  0.0514  0.9372 -1.2000
10599SOL     OW36482   7.156   2.718   1.329 -0.0641  0.0111  0.6019
10599SOL    HW136483   7.164   2.807   1.373  2.1751 -0.1678  0.6443
10599SOL    HW236484   7.156   2.646   1.399  3.1016 -0.2517  0.4322
10601SOL     OW36485   2.533   1.206   4.080  0.2140  1.0174 -0.1740
10601SOL    HW136486   2.466   1.138   4.110 -0.9984  1.2514 -2.2265
10601SOL    HW236487   2.489   1.295   4.072  1.2354  1.5708  0.2553
10602SOL     OW36488   1.320   7.571   1.752  0.1456  0.3430 -0.0400
10602SOL    HW136489   1.419   7.560   1.744  0.1748  0.7515 -0.2544
10602SOL    HW236490   1.300   7.642   1.820 -0.0193 -0.3216  0.6180
10603SOL     OW36491   1.211   7.607   4.063 -0.1428  0.4075 -0.6463
10603SOL    HW136492   1.118   7.625   4.098  0.3119 -0.4299  1.0334
10603SOL    HW236493   1.271   7.682   4.090  0.4948 -0.8375  1.5486
10604SOL     OW36494   3.020   9.886   3.874  0.8654 -0.4030  0.5800
10604SOL    HW136495   2.942   9.825   3.889  0.1960  0.7185  1.7523
10604SOL    HW236496   3.039   9.936   3.958  1.9739  0.3442 -0.1126
10607SOL     OW36497   5.679   8.730   3.736  0.6210 -0.5099 -0.1752
10607SOL    HW136498   5.709   8.637   3.755  0.1371 -0.7751 -0.6790
10607SOL    HW236499   5.736   8.771   3.665  0.3131 -0.7109 -0.5341
10609SOL     OW36500   9.575   2.355   0.292 -0.4175 -0.1152 -0.1401
10609SOL    HW136501   9.548   2.441   0.334 -1.5758 -0.3288 -0.4307
10609SOL    HW236502   9.668   2.363   0.255 -0.2665  0.7806  0.4412
10610SOL     OW36503   7.952   1.919   1.259  0.0397 -0.1469  0.2621
10610SOL    HW136504   7.934   1.838   1.204 -0.2624  0.1318 -0.0508
10610SOL    HW236505   7.865   1.960   1.288  0.1966 -0.3013  0.9520
10611SOL     OW36506   9.101   3.305   1.189  0.0597 -0.6710 -1.0013
10611SOL    HW136507   9.174   3.351   1.240  0.7898 -0.2886 -2.3665
10611SOL    HW236508   9.065   3.229   1.243 -1.6267  1.8921  1.5825
10612SOL     OW36509   0.125   6.046   0.792 -0.0570  0.0503  0.2394
10612SOL    HW136510   0.125   6.068   0.694  2.2685  1.0898  0.4527
10612SOL    HW236511   0.175   6.117   0.842  0.0315 -1.2400  2.0126
10614SOL     OW36512   0.913   1.023   5.209 -0.8856 -0.0162 -0.0649
10614SOL    HW136513   0.949   0.933   5.234  0.0340  0.1601 -0.7426
10614SOL    HW236514   0.813   1.021   5.215 -0.8403 -0.8941  0.5456
10615SOL     OW36515   7.338   0.495   0.980  0.1363 -0.2483 -0.3212
10615SOL    HW136516   7.423   0.452   1.010  0.7551  0.1151 -1.4964
10615SOL    HW236517   7.332   0.489   0.880 -0.9013  0.3163 -0.2956
10616SOL     OW36518   2.705   5.171   1.873  0.5801 -0.2970 -0.4834
10616SOL    HW136519   2.731   5.084   1.832 -2.6859 -1.4941 -0.2232
10616SOL    HW236520   2.707   5.163   1.973 -1.8339 -0.8250 -0.4450
10617SOL     OW36521   8.507   0.892   2.524 -0.4283  0.1925 -0.4189
10617SOL    HW136522   8.590   0.866   2.474  0.0353  1.0632 -0.1030
10617SOL    HW236523   8.478   0.817   2.583 -0.0122 -0.2086 -0.7246
10618SOL     OW36524   4.596   9.551   2.875  0.0990 -0.0568 -0.3345
10618SOL    HW136525   4.557   9.462   2.852  0.4769 -0.0782 -0.9103
10618SOL    HW236526   4.678   9.538   2.931 -0.1488 -0.0526  0.0261
10619SOL     OW36527   7.903   1.028   3.488  0.0015  0.7249 -0.1217
10619SOL    HW136528   7.865   0.973   3.563 -0.0152  1.4882  0.4375
10619SOL    HW236529   7.983   0.983   3.451 -0.7953 -0.3450 -0.5587
10620SOL     OW36530   2.274   9.901   0.119 -0.1375  0.6982  0.0887
10620SOL    HW136531   2.307   9.884   0.026 -1.2415  0.4946 -0.2828
10620SOL    HW236532   2.302   9.826   0.179 -0.7738  0.0179 -0.4464
10621SOL     OW36533   0.607   0.176   0.882  0.4237 -0.7216 -0.5332
10621SOL    HW136534   0.579   0.114   0.955 -1.6953  0.0209 -0.6835
10621SOL    HW236535   0.604   0.270   0.915  0.5159 -0.4638 -1.2528
10622SOL     OW36536   0.832   5.217   4.615 -0.2053 -0.5348 -0.3370
10622SOL    HW136537   0.845   5.118   4.625  1.7600 -0.4285 -1.6402
10622SOL    HW236538   0.741   5.235   4.579  0.0821 -1.9961 -1.8478
10623SOL     OW36539   5.452   2.434   4.152 -0.2955  0.4105  0.2781
10623SOL    HW136540   5.420   2.483   4.071 -0.7004  0.4414  0.4559
10623SOL    HW236541   5.483   2.343   4.127 -1.7333 -0.0949  0.2961
10624SOL     OW36542   2.401   2.164   4.212 -0.2157  0.0412  0.2856
10624SOL    HW136543   2.441   2.133   4.125  2.3339  1.8932  0.7461
10624SOL    HW236544   2.380   2.261   4.206 -2.5159 -0.3973  0.8761
10626SOL     OW36545   3.393   7.839   1.665 -0.2116 -0.4273  0.7023
10626SOL    HW136546   3.432   7.913   1.720 -0.8832 -0.6477  1.4910
10626SOL    HW236547   3.353   7.770   1.726 -1.8252 -0.2035 -0.0915
10627SOL     OW36548   0.732   2.731   5.059 -0.2471  0.3326  0.4633
10627SOL    HW136549   0.668   2.718   5.136  1.5159 -0.1786  1.8748
10627SOL    HW236550   0.819   2.766   5.094  0.5173  0.2458 -1.3383
10628SOL     OW36551   8.701   7.178   4.130  0.1389 -0.3838 -0.3605
10628SOL    HW136552   8.782   7.191   4.073  0.5087 -3.6026 -0.6622
10628SOL    HW236553   8.720   7.210   4.223  0.0942  3.3261 -1.5580
10629SOL     OW36554   8.160   9.959   4.856 -0.1045  0.1819  0.1091
10629SOL    HW136555   8.179  10.008   4.941  1.6271  0.0725 -0.1934
10629SOL    HW236556   8.233   9.977   4.789  1.8705 -4.5097  0.7393
10630SOL     OW36557   0.529   1.016   0.519  0.3018 -0.2290  0.3594
10630SOL    HW136558   0.622   1.052   0.502 -0.1675  0.8548 -0.0053
10630SOL    HW236559   0.482   1.077   0.582 -0.3220 -0.5165  0.1668
10631SOL     OW36560   0.160   6.758   2.970 -0.0204 -0.3357 -0.5566
10631SOL    HW136561   0.254   6.770   3.000 -0.7540 -1.0543  2.1886
10631SOL    HW236562   0.150   6.667   2.929  0.3972 -0.4129 -0.4888
10632SOL     OW36563   5.164   2.261   3.348 -0.1833  0.0504 -0.0296
10632SOL    HW136564   5.113   2.207   3.281  0.8061 -1.1610  0.1590
10632SOL    HW236565   5.107   2.279   3.428 -0.1853 -1.6479  0.3640
10633SOL     OW36566   4.100   1.375   3.128 -0.0667  0.2034  0.1697
10633SOL    HW136567   4.068   1.381   3.033  0.3040 -1.2653 -0.0747
10633SOL    HW236568   4.030   1.332   3.184 -0.0734  0.5793  0.4488
10634SOL     OW36569   2.709   0.440   5.313  0.0786  0.1547  0.3788
10634SOL    HW136570   2.758   0.416   5.229 -0.5188  0.8273 -0.1674
10634SOL    HW236571   2.767   0.420   5.392  1.4539  1.4677 -0.2867
10635SOL     OW36572   1.733   7.250   3.429  0.1827  0.4426  0.7035
10635SOL    HW136573   1.708   7.317   3.499 -0.4375  1.7161 -0.7185
10635SOL    HW236574   1.651   7.223   3.378  0.7693  0.1987 -0.1176
10636SOL     OW36575   9.908   1.558   3.059  0.2199  0.7346  0.2813
10636SOL    HW136576   9.850   1.612   3.120  0.6664 -0.5073  1.8492
10636SOL    HW236577   9.938   1.475   3.106  0.1154 -0.5531 -1.8218
10637SOL     OW36578   7.587   9.967   2.894 -0.2592  0.0159 -0.2829
10637SOL    HW136579   7.549   9.880   2.864  1.0156 -0.6367 -0.0673
10637SOL    HW236580   7.645  10.005   2.822  1.5252 -0.7757  0.6734
10638SOL     OW36581   2.147   1.024   3.524  0.1830 -0.5272  0.1450
10638SOL    HW136582   2.218   1.027   3.594 -0.4817 -0.6473  0.8354
10638SOL    HW236583   2.156   0.941   3.470  1.6704  0.3302 -0.9513
10639SOL     OW36584   1.479   4.022   2.363  0.0822 -0.5846 -0.0789
10639SOL    HW136585   1.461   4.111   2.404  0.1531 -0.6580  0.1138
10639SOL    HW236586   1.395   3.987   2.320 -0.6507 -1.5831  2.0837
10640SOL     OW36587   2.050   5.488   1.877 -0.2583  0.8659  0.0709
10640SOL    HW136588   1.952   5.471   1.890  0.4029 -1.8179  2.0721
10640SOL    HW236589   2.081   5.556   1.944 -0.3433  0.1240  0.8705
10642SOL     OW36590   6.969   9.467   4.824 -0.2104  0.4750  0.6090
10642SOL    HW136591   7.060   9.462   4.864 -0.3175  0.7146  0.8779
10642SOL    HW236592   6.977   9.483   4.725  0.0192  1.5510  0.8030
10643SOL     OW36593   0.780   2.064   0.853  0.2262 -0.0198  0.2086
10643SOL    HW136594   0.685   2.074   0.821  0.0473 -1.8174  0.1349
10643SOL    HW236595   0.802   1.967   0.861  1.9356  0.3964  0.6443
10644SOL     OW36596   3.193   9.116   2.870  0.5517 -0.8143 -0.5612
10644SOL    HW136597   3.121   9.182   2.846  0.6111 -0.3608  0.5131
10644SOL    HW236598   3.164   9.061   2.948  2.3757  1.0710  1.5047
10645SOL     OW36599   9.915   0.548   4.479  0.0911  0.5125  0.1373
10645SOL    HW136600   9.888   0.620   4.415 -1.0783  1.5813  1.8032
10645SOL    HW236601   9.864   0.464   4.459 -0.3519  0.8769 -0.2620
10648SOL     OW36602   7.819   2.665   0.093  0.1150  0.6769  0.2761
10648SOL    HW136603   7.907   2.697   0.129  0.5091 -0.2157  0.1268
10648SOL    HW236604   7.827   2.651  -0.006 -0.3788  1.1784  0.1616
10649SOL     OW36605   8.811   3.363   1.804 -0.1113  0.1124  0.5660
10649SOL    HW136606   8.798   3.328   1.712 -0.6679 -2.1079  1.4595
10649SOL    HW236607   8.908   3.359   1.828 -0.1272 -0.4782  0.5318
10650SOL     OW36608   9.940   4.512   3.535 -0.4789 -0.1755  0.6194
10650SOL    HW136609   9.844   4.514   3.564 -0.1441 -2.9844  2.0724
10650SOL    HW236610   9.966   4.419   3.512  2.6134  0.0954  2.6872
10651SOL     OW36611   8.994   7.470   2.305  0.8800 -0.6623  0.0731
10651SOL    HW136612   9.047   7.385   2.313  2.2956  0.2089  0.2395
10651SOL    HW236613   9.043   7.543   2.352 -0.4135  0.2179  0.0717
10652SOL     OW36614   5.024   8.230   3.840 -0.4145  0.1745  0.1913
10652SOL    HW136615   4.966   8.166   3.789 -1.5643  1.3443  0.0066
10652SOL    HW236616   5.015   8.212   3.938  0.8360 -1.2557  0.0699
10654SOL     OW36617   1.526   6.087   5.115 -0.1364  0.0117 -0.2134
10654SOL    HW136618   1.466   6.149   5.165 -0.2577 -1.2617  1.2557
10654SOL    HW236619   1.507   6.094   5.017 -1.5826  0.7689  0.1105
10655SOL     OW36620   1.979   8.015   5.100  0.0156  0.3081 -0.1492
10655SOL    HW136621   1.911   8.078   5.138  0.9556 -0.3856  2.7805
10655SOL    HW236622   2.062   8.018   5.155  1.6081 -0.4625 -2.4339
10656SOL     OW36623   1.610   8.642   2.172  0.0453  0.6062 -0.0400
10656SOL    HW136624   1.528   8.611   2.124  1.4336 -1.0209 -1.4111
10656SOL    HW236625   1.645   8.724   2.127  0.6889 -0.2560 -1.1423
10657SOL     OW36626   0.083   8.586   4.099 -0.4520 -0.2457  0.4987
10657SOL    HW136627   0.137   8.587   4.183 -0.3744 -0.5113  0.4530
10657SOL    HW236628   0.033   8.672   4.091  0.4654  0.2753  0.2157
10659SOL     OW36629   9.974   5.189   1.151  0.6412 -0.5019 -0.5247
10659SOL    HW136630  10.035   5.253   1.105  2.2866 -0.0356  2.2127
10659SOL    HW236631  10.028   5.125   1.206 -1.2547 -1.1397  0.6356
10660SOL     OW36632   4.288   5.285   2.353  0.0281  0.3521 -0.2981
10660SOL    HW136633   4.225   5.208   2.346 -0.9191  0.9438  1.3435
10660SOL    HW236634   4.240   5.369   2.327  0.2895  0.7321  0.4313
10661SOL     OW36635   9.015   0.946   2.427 -0.4837 -0.4834  0.3777
10661SOL    HW136636   9.052   0.902   2.345 -0.1726  0.6403 -0.0933
10661SOL    HW236637   8.936   1.002   2.402 -0.0099  0.3600  0.7452
10665SOL     OW36638   4.133   3.786   5.004  0.2955  0.2721  0.0550
10665SOL    HW136639   4.203   3.856   4.985  0.3340  0.3150  0.3581
10665SOL    HW236640   4.178   3.702   5.034  0.3138 -0.2079 -1.2727
10666SOL     OW36641   1.832   5.702   2.987 -0.4830 -0.1294 -0.3516
10666SOL    HW136642   1.912   5.659   2.945 -0.9939 -1.3200 -0.1214
10666SOL    HW236643   1.749   5.661   2.950 -0.9818  0.6998 -0.1552
10667SOL     OW36644   0.533   8.456   0.400 -0.3302 -0.1341  0.0165
10667SOL    HW136645   0.546   8.554   0.384 -0.2684 -0.2892 -0.8951
10667SOL    HW236646   0.540   8.438   0.498  2.7233  0.3403 -0.0389
10668SOL     OW36647   8.799   4.337   3.581 -0.0467 -0.0102 -0.2580
10668SOL    HW136648   8.784   4.240   3.563 -1.2375  0.0667  0.2277
10668SOL    HW236649   8.747   4.392   3.517 -1.3911  0.2784  1.0466
10669SOL     OW36650   2.688   9.422   4.937 -0.3490  0.3278 -0.1039
10669SOL    HW136651   2.748   9.457   5.010 -1.1606 -2.0429  1.7587
10669SOL    HW236652   2.595   9.456   4.952 -0.5116 -0.1445 -0.0352
10670SOL     OW36653   8.738   4.079   3.562 -0.7246 -0.5862  0.7661
10670SOL    HW136654   8.779   4.022   3.633 -1.0207 -0.2337  1.2270
10670SOL    HW236655   8.653   4.037   3.530  0.0812 -1.4087 -0.3193
10671SOL     OW36656   4.711   7.991   2.975  0.7036  0.7059  0.1441
10671SOL    HW136657   4.701   8.034   3.065 -2.2720  1.7867 -0.6320
10671SOL    HW236658   4.698   7.892   2.984 -1.7228  1.0345  0.6432
10673SOL     OW36659   4.151   3.508   3.656 -0.3898 -0.3227 -0.8716
10673SOL    HW136660   4.126   3.495   3.752  0.1159 -0.5809 -0.7736
10673SOL    HW236661   4.177   3.420   3.616 -0.4365 -0.1882 -1.2025
10674SOL     OW36662   1.189   8.106   3.510  0.2379  0.6677  0.0359
10674SOL    HW136663   1.283   8.084   3.484  0.3964  1.7174 -0.3096
10674SOL    HW236664   1.128   8.033   3.481  0.9976 -0.2182  0.6242
10675SOL     OW36665   5.056   7.781   4.991 -0.0922  0.5670  0.0176
10675SOL    HW136666   5.139   7.825   4.956 -0.5048  1.3220 -0.0206
10675SOL    HW236667   5.074   7.746   5.084  0.2152  0.8792  0.0778
10676SOL     OW36668   7.700   0.489   3.016  0.0455  0.2485 -0.6365
10676SOL    HW136669   7.753   0.569   3.045 -1.6959  0.5368  1.9148
10676SOL    HW236670   7.704   0.419   3.088 -2.3047 -0.0725 -0.7966
10677SOL     OW36671   1.479   4.841   2.768 -0.6004  0.0977 -0.0846
10677SOL    HW136672   1.573   4.818   2.792 -0.3504  0.4605 -0.7238
10677SOL    HW236673   1.466   4.940   2.770 -0.9770  0.0488  0.0340
10678SOL     OW36674   7.999   8.467   5.202  0.0044  0.2328 -0.2621
10678SOL    HW136675   8.092   8.450   5.236 -0.2928  1.0618  0.9828
10678SOL    HW236676   7.957   8.381   5.175  0.7512 -0.2768  0.1737
10679SOL     OW36677   1.747   6.397   0.782 -0.0752  0.2696 -0.5485
10679SOL    HW136678   1.705   6.479   0.743  2.2005  1.7372 -0.0593
10679SOL    HW236679   1.728   6.393   0.880  1.9111  1.6728 -0.0512
10680SOL     OW36680   9.923   1.151   0.014 -0.7757  0.3263 -0.8893
10680SOL    HW136681   9.931   1.061   0.057  1.5251  0.1010 -1.7140
10680SOL    HW236682   9.992   1.212   0.051 -0.6363  0.9860 -2.2019
10681SOL     OW36683   8.305   3.514   0.564  0.5076  0.0046 -0.1992
10681SOL    HW136684   8.250   3.552   0.490  1.9047  2.2866 -0.0829
10681SOL    HW236685   8.264   3.539   0.652  0.0011 -0.9623 -0.1508
10682SOL     OW36686   6.638   9.975   5.053  0.5154  0.5749  0.8405
10682SOL    HW136687   6.586   9.993   5.137  0.6151 -1.0853  1.2858
10682SOL    HW236688   6.727   9.937   5.077 -0.0114 -1.2695 -0.0204
10683SOL     OW36689   7.356   9.485   4.042 -0.2555  0.4951  0.2880
10683SOL    HW136690   7.440   9.500   3.990  0.2481  1.2183  1.2856
10683SOL    HW236691   7.343   9.561   4.107 -2.1330  0.8319 -0.4463
10684SOL     OW36692   9.847   3.321   3.930 -0.3436  0.9138  0.2915
10684SOL    HW136693   9.862   3.419   3.936 -1.0630  1.2828 -2.9966
10684SOL    HW236694   9.905   3.282   3.858 -2.6713 -0.4251 -0.9327
10685SOL     OW36695   6.897   8.211   3.287 -0.3048  0.1809 -0.1954
10685SOL    HW136696   6.981   8.160   3.267  0.0257  1.7006 -3.0420
10685SOL    HW236697   6.921   8.297   3.333 -0.3382  0.4308 -0.6446
10686SOL     OW36698   3.898   6.904   1.713 -0.5142 -0.1346 -0.5156
10686SOL    HW136699   3.991   6.908   1.749 -0.7076 -1.8809  0.2312
10686SOL    HW236700   3.901   6.900   1.613  0.1318  1.6642 -0.5861
10687SOL     OW36701   9.631   7.309   0.634  0.1251  0.2461 -0.1439
10687SOL    HW136702   9.613   7.230   0.693  1.2492  0.3962  0.4207
10687SOL    HW236703   9.555   7.373   0.640 -0.9843 -0.9546 -0.9052
10688SOL     OW36704   0.763   8.323   1.139 -0.4867  0.2951  0.0511
10688SOL    HW136705   0.676   8.275   1.148 -0.5378  0.4629  0.4747
10688SOL    HW236706   0.827   8.268   1.086 -1.2811  0.7264 -1.3872
10689SOL     OW36707   8.458   9.108   4.180  0.3100  0.0023  0.1759
10689SOL    HW136708   8.472   9.117   4.278 -1.9203 -0.9741  0.6010
10689SOL    HW236709   8.424   9.195   4.143 -0.0136  0.0074  0.4827
10690SOL     OW36710   2.936   5.551   5.035  0.2105  0.2818 -0.0829
10690SOL    HW136711   2.969   5.505   5.117  0.9790  0.0756 -0.5069
10690SOL    HW236712   2.877   5.628   5.062  2.6400  1.9284  0.7623
10691SOL     OW36713   3.753   3.662   5.253 -0.2003  0.0175  0.0396
10691SOL    HW136714   3.790   3.653   5.346 -0.4282  1.5990  0.3012
10691SOL    HW236715   3.787   3.747   5.212  1.3525 -1.5506 -2.0105
10693SOL     OW36716   0.759   7.356   1.810 -0.2241 -0.6336  0.3811
10693SOL    HW136717   0.852   7.388   1.791 -0.3125  1.3059  3.0892
10693SOL    HW236718   0.696   7.396   1.743  0.3514  1.0688  0.8444
10694SOL     OW36719   1.834   3.383   3.630 -0.1624  0.0531 -0.5947
10694SOL    HW136720   1.915   3.377   3.688  1.2794  1.9401 -2.3470
10694SOL    HW236721   1.758   3.423   3.682  0.4552 -0.3074  0.6100
10695SOL     OW36722   9.178   3.513   0.826 -0.2604  0.2137 -0.0344
10695SOL    HW136723   9.270   3.551   0.831  0.6327 -1.7674 -0.9384
10695SOL    HW236724   9.117   3.579   0.780  0.6548  1.5770  0.6800
10698SOL     OW36725   0.640   8.190   4.851 -0.0882  0.2724 -0.2666
10698SOL    HW136726   0.727   8.233   4.873 -1.3074  1.7906  1.8283
10698SOL    HW236727   0.617   8.123   4.922  0.2709 -1.5509 -1.8319
10699SOL     OW36728   5.407   0.330   0.696 -0.5157 -0.5583  0.7194
10699SOL    HW136729   5.468   0.406   0.718 -0.3184 -0.3312 -0.5749
10699SOL    HW236730   5.320   0.366   0.664 -0.2670 -0.8595 -0.3260
10700SOL     OW36731   0.291   3.529   4.757 -0.4777 -0.4181 -0.3048
10700SOL    HW136732   0.322   3.476   4.678 -0.6377  0.1127 -0.7270
10700SOL    HW236733   0.310   3.626   4.741  0.0221 -0.3742  0.5611
10701SOL     OW36734   3.912   5.659   2.322 -0.1215  0.0057 -0.0371
10701SOL    HW136735   3.896   5.635   2.226  0.3062  1.2040 -0.4258
10701SOL    HW236736   3.922   5.759   2.329  0.8735 -0.1688  1.1048
10702SOL     OW36737   1.105   0.729   1.698  0.5480  0.3437  0.6783
10702SOL    HW136738   1.074   0.680   1.780  1.0326  0.4732  0.9349
10702SOL    HW236739   1.171   0.673   1.648 -0.8648 -0.3793 -0.4303
10703SOL     OW36740   3.988   3.999   2.149 -0.3490  0.1404 -0.0621
10703SOL    HW136741   4.086   4.010   2.138  0.0241 -2.2236  0.7624
10703SOL    HW236742   3.962   4.024   2.242 -0.5186  0.5716 -0.2208
10704SOL     OW36743   7.851   9.290   4.368  0.2768 -0.0940  0.5452
10704SOL    HW136744   7.819   9.230   4.442 -1.0943  0.4936  0.4351
10704SOL    HW236745   7.774   9.316   4.311  1.0114  1.0975  0.0903
10705SOL     OW36746   5.113   2.036   2.362 -0.0029 -0.1369 -0.1090
10705SOL    HW136747   5.130   2.016   2.266 -1.7027 -1.6970 -0.1188
10705SOL    HW236748   5.128   1.953   2.416 -0.5362  0.3272  0.7713
10706SOL     OW36749   2.632   5.960   4.565  0.1954  0.4024  0.0064
10706SOL    HW136750   2.669   5.973   4.474  2.2162  1.3058  0.9213
10706SOL    HW236751   2.588   6.044   4.596 -2.4455 -0.5914 -0.9780
10707SOL     OW36752   2.969   4.697   3.093  0.0685  0.0997  0.3435
10707SOL    HW136753   2.963   4.660   3.001 -0.3499  1.8805 -0.3797
10707SOL    HW236754   3.047   4.656   3.141  0.9498 -0.0522 -1.1778
10708SOL     OW36755   6.398   0.978   3.261  0.0093  0.1385 -0.0387
10708SOL    HW136756   6.352   0.997   3.348 -0.8713 -0.2004 -0.4269
10708SOL    HW236757   6.332   0.940   3.196  1.2899 -2.3199  0.0486
10709SOL     OW36758   2.432   8.407   4.379  0.1011  0.3731  0.0564
10709SOL    HW136759   2.370   8.382   4.453  0.2357 -0.0148  0.0401
10709SOL    HW236760   2.381   8.451   4.305  0.0480  1.2682  0.6212
10710SOL     OW36761   2.953   1.926   1.466 -0.1019 -0.3795 -0.2295
10710SOL    HW136762   3.008   1.936   1.549 -0.0038 -0.2481 -0.3108
10710SOL    HW236763   2.973   1.838   1.423  3.0372  1.3012 -2.4417
10711SOL     OW36764   3.831   7.436   4.284  0.0123 -0.6197  0.8185
10711SOL    HW136765   3.790   7.480   4.204 -0.1013 -2.1243  0.0230
10711SOL    HW236766   3.902   7.494   4.322  0.0532  0.1206 -0.3737
10712SOL     OW36767   5.654   1.530   4.226 -0.2161 -0.1864  0.3922
10712SOL    HW136768   5.588   1.569   4.162 -1.0618 -0.7550  0.9143
10712SOL    HW236769   5.654   1.583   4.311 -0.5566 -0.6538  0.6814
10713SOL     OW36770   8.424   4.878   0.923 -0.2637 -0.3938 -0.1232
10713SOL    HW136771   8.442   4.819   1.002 -2.2899 -0.1923  0.5148
10713SOL    HW236772   8.355   4.947   0.948 -0.3542  0.1505 -1.8458
10715SOL     OW36773   8.240   3.966   3.634  0.5825 -0.6431 -0.0109
10715SOL    HW136774   8.140   3.966   3.640  0.6457 -2.4777  1.0428
10715SOL    HW236775   8.279   3.975   3.725  1.3982  1.5204 -0.5441
10717SOL     OW36776   0.169   4.321   5.300  0.3345  0.2764  0.0736
10717SOL    HW136777   0.117   4.263   5.237 -0.4246  0.5910  0.4094
10717SOL    HW236778   0.118   4.405   5.319  1.2432  0.8708 -0.0804
10721SOL     OW36779   9.283   0.061   4.957  0.3932  0.3355 -0.0533
10721SOL    HW136780   9.294   0.081   5.054 -2.6368  4.6291 -0.4722
10721SOL    HW236781   9.196   0.014   4.942  0.0405  1.2328 -0.8608
10722SOL     OW36782   2.472   8.520   3.046  0.3314  0.2408  0.1419
10722SOL    HW136783   2.408   8.508   2.970  1.2372 -1.4409 -0.3894
10722SOL    HW236784   2.426   8.499   3.132 -1.1367  3.6445  0.2686
10723SOL     OW36785   5.451   8.193   2.844  0.1283 -0.4018  0.0124
10723SOL    HW136786   5.459   8.097   2.871 -1.3964 -0.4234  0.4145
10723SOL    HW236787   5.414   8.246   2.920  0.0273  0.3357 -0.5536
10724SOL     OW36788   1.618   9.981   5.254  0.2901  0.1181 -0.3285
10724SOL    HW136789   1.657   9.921   5.184 -1.6130 -1.3330 -0.1567
10724SOL    HW236790   1.586   9.927   5.331 -1.5368  1.3224 -0.2081
10725SOL     OW36791   2.803   5.525   1.061 -0.1822 -0.0908  0.1904
10725SOL    HW136792   2.703   5.533   1.069 -0.2702  0.9852 -1.6716
10725SOL    HW236793   2.833   5.573   0.979  2.1593  1.7634  2.0694
10727SOL     OW36794   5.801   0.668   5.308  0.1137 -0.0116 -0.1326
10727SOL    HW136795   5.869   0.740   5.316  0.3860 -0.0159 -2.2077
10727SOL    HW236796   5.752   0.659   5.395  0.3288  2.4056  0.2804
10728SOL     OW36797   9.995   7.330   1.575 -0.2968  0.2215  0.3404
10728SOL    HW136798   9.959   7.284   1.493  1.2955  0.8573 -0.7392
10728SOL    HW236799   9.936   7.407   1.599 -1.0562 -0.2784  0.1000
10730SOL     OW36800   4.670   0.230   1.151 -0.0068  0.1306 -0.2180
10730SOL    HW136801   4.639   0.137   1.172 -0.8904  0.3261 -0.6158
10730SOL    HW236802   4.704   0.233   1.057 -1.6657  0.5988 -0.8301
10732SOL     OW36803   1.931   5.705   1.691 -0.2056  0.2258  0.3629
10732SOL    HW136804   1.985   5.628   1.658  0.0390  1.0105 -1.1215
10732SOL    HW236805   1.971   5.740   1.776  0.0807 -0.8411  0.6709
10733SOL     OW36806   6.418   0.513   5.311  0.2032 -0.3812  0.2185
10733SOL    HW136807   6.448   0.550   5.399  1.8404  0.4087 -0.6396
10733SOL    HW236808   6.376   0.585   5.256  0.2727 -0.5896 -0.1131
10734SOL     OW36809   7.927   1.395   0.935 -0.2308 -0.4600  0.5340
10734SOL    HW136810   7.876   1.355   1.011 -1.0816 -0.3866  0.0078
10734SOL    HW236811   7.936   1.328   0.861 -1.8018  0.3505 -0.4136
10735SOL     OW36812   4.223   7.310   5.138 -0.3510  0.2165  0.1071
10735SOL    HW136813   4.190   7.217   5.124 -0.4114 -0.0858  2.1320
10735SOL    HW236814   4.163   7.374   5.091 -0.1313 -0.7646 -1.5593
10736SOL     OW36815   4.614   7.122   1.792  0.2876 -0.7514  0.2807
10736SOL    HW136816   4.684   7.053   1.809  2.8156  1.9506  1.3114
10736SOL    HW236817   4.634   7.168   1.705 -0.8186 -0.6861  0.0579
10737SOL     OW36818   1.754   8.796   3.794 -0.0774  0.3663 -0.1432
10737SOL    HW136819   1.820   8.821   3.723  0.3939  1.8269  0.7735
10737SOL    HW236820   1.772   8.851   3.876 -1.5233 -0.2673  0.6061
10738SOL     OW36821   9.599   3.824   2.600  0.5104 -0.2544  0.1950
10738SOL    HW136822   9.538   3.871   2.664  0.2051  1.7137 -1.4630
10738SOL    HW236823   9.546   3.760   2.545 -0.0201  1.0311 -0.8445
10739SOL     OW36824   7.836   2.866   3.085 -0.2825 -0.4441 -0.5397
10739SOL    HW136825   7.924   2.879   3.041 -0.6382  0.6420 -0.9481
10739SOL    HW236826   7.836   2.779   3.136  0.6338 -0.9679 -1.4303
10740SOL     OW36827   8.660   0.677   0.981  0.2378  0.4034  0.2465
10740SOL    HW136828   8.672   0.773   0.960 -1.6437  1.3370  3.1462
10740SOL    HW236829   8.724   0.650   1.054  1.6596 -0.9086 -1.4346
10741SOL     OW36830   4.168   9.861   3.443  0.0501 -0.1767 -0.4119
10741SOL    HW136831   4.160   9.880   3.541 -0.2118 -2.4025  0.0216
10741SOL    HW236832   4.262   9.832   3.422 -0.2987 -1.2610 -0.5172
10742SOL     OW36833   3.074   9.078   2.400  0.0573  0.4257  0.1234
10742SOL    HW136834   3.051   9.175   2.395  1.1992  0.7803  1.3693
10742SOL    HW236835   3.014   9.034   2.468  0.3299  0.5171  0.4269
10744SOL     OW36836   4.886   3.189   1.712  0.2491 -0.3532 -0.1499
10744SOL    HW136837   4.913   3.235   1.797 -1.3125  0.4318 -0.0524
10744SOL    HW236838   4.873   3.092   1.729 -0.8872 -0.0596  0.7382
10745SOL     OW36839   0.474   9.777   3.920 -0.0521 -0.0674  0.1062
10745SOL    HW136840   0.490   9.839   3.843 -1.6147  0.3147  0.0716
10745SOL    HW236841   0.484   9.683   3.889  0.0223  0.1018 -0.3983
10746SOL     OW36842   1.979   9.183   4.006  0.3623 -0.2227  0.2489
10746SOL    HW136843   2.050   9.253   4.019  1.1140 -0.5043 -2.1141
10746SOL    HW236844   1.890   9.220   4.034  0.9334  1.3253  0.0559
10748SOL     OW36845   2.888   2.409   5.061  0.2070 -0.2234 -0.3718
10748SOL    HW136846   2.971   2.360   5.086 -0.0003 -0.9596 -1.0936
10748SOL    HW236847   2.812   2.377   5.117  0.5772  1.0666  0.8883
10750SOL     OW36848   2.200   2.090   0.126 -0.2890  0.0680 -0.0262
10750SOL    HW136849   2.201   2.188   0.105  1.6167 -0.3615 -2.0925
10750SOL    HW236850   2.203   2.038   0.041  1.1943 -1.7761  1.1225
10752SOL     OW36851   4.646   2.279   4.491 -0.0291  0.0207 -0.1816
10752SOL    HW136852   4.554   2.245   4.471 -0.1441  0.1573  0.1115
10752SOL    HW236853   4.669   2.261   4.587 -0.4975  1.6760  0.2640
10753SOL     OW36854   1.861   2.235   0.583  0.4984 -0.2969  0.6926
10753SOL    HW136855   1.945   2.185   0.565 -0.0977 -1.4046  0.9047
10753SOL    HW236856   1.787   2.170   0.601 -0.2419  0.6718  1.2157
10754SOL     OW36857   5.599   1.496   2.255  0.0691 -0.0097 -0.0519
10754SOL    HW136858   5.590   1.396   2.253 -1.1009  0.1034 -0.6849
10754SOL    HW236859   5.577   1.529   2.346 -0.3659 -0.2556 -0.0650
10756SOL     OW36860   3.049   7.944   3.355  0.1666 -0.3311  0.4240
10756SOL    HW136861   2.952   7.924   3.343 -0.2754  1.3484  1.1228
10756SOL    HW236862   3.099   7.859   3.372 -1.0924 -1.2632 -0.4515
10757SOL     OW36863   9.480   8.537   2.114  0.4658 -0.0808 -0.5188
10757SOL    HW136864   9.393   8.492   2.092  0.7151 -0.1375 -1.4098
10757SOL    HW236865   9.554   8.492   2.064  0.7647  1.1138 -1.1759
10758SOL     OW36866   3.757   3.236   5.067 -0.0604 -0.1582  0.0454
10758SOL    HW136867   3.676   3.293   5.084 -0.5550 -0.5455 -0.9809
10758SOL    HW236868   3.729   3.143   5.044  0.7120 -0.5210  0.5410
10759SOL     OW36869   9.579   5.099   0.807  0.7592  0.2080 -0.0527
10759SOL    HW136870   9.609   5.004   0.805 -1.2451 -0.4851  1.1718
10759SOL    HW236871   9.615   5.143   0.890  0.9724  0.2583 -0.1738
10761SOL     OW36872   0.272   9.632   1.745  0.0571 -0.0642 -0.2696
10761SOL    HW136873   0.234   9.724   1.750 -1.2792 -0.5751 -0.8286
10761SOL    HW236874   0.221   9.571   1.806  1.1349 -0.3675  0.3323
10763SOL     OW36875   6.401   9.900   1.888 -0.4702 -0.1843  0.2439
10763SOL    HW136876   6.459   9.961   1.942 -0.5528  1.3165 -1.3487
10763SOL    HW236877   6.342   9.848   1.950  2.2754 -1.5176  1.8964
10764SOL     OW36878   1.234   8.545   4.901  0.2827  0.2933 -0.3331
10764SOL    HW136879   1.326   8.509   4.914  0.7627  0.4687 -3.0539
10764SOL    HW236880   1.170   8.469   4.891  0.2533  0.1832  0.6015
10766SOL     OW36881   9.812   4.027   1.677 -0.1201 -0.1448  0.2823
10766SOL    HW136882   9.770   3.946   1.637  0.2378  0.0926 -0.5905
10766SOL    HW236883   9.911   4.015   1.681 -0.2090 -0.4174  1.6794
10768SOL     OW36884   3.379   0.065   3.013  0.2850 -0.4974  0.1087
10768SOL    HW136885   3.435   0.049   2.932  0.2522  0.0725 -0.0315
10768SOL    HW236886   3.298   0.117   2.988 -0.6896 -1.9615  0.1885
10769SOL     OW36887   8.172   1.496   3.757 -0.2600  0.1200  0.2922
10769SOL    HW136888   8.122   1.463   3.677 -0.7116 -1.5784  1.2395
10769SOL    HW236889   8.267   1.515   3.732 -0.8250  1.2509 -1.0233
10770SOL     OW36890   3.469   3.294   5.064 -0.4956  0.1701  0.3187
10770SOL    HW136891   3.452   3.223   4.995  0.7891 -0.2095  0.3791
10770SOL    HW236892   3.382   3.328   5.098 -1.1410 -1.1460  0.0459
10771SOL     OW36893   0.354   8.811   0.250 -0.1868 -0.8538  0.4705
10771SOL    HW136894   0.285   8.751   0.210 -2.4362  0.5627  2.1526
10771SOL    HW236895   0.346   8.903   0.212 -2.0007  0.3796  3.6362
10774SOL     OW36896   2.046   1.783   3.149  0.1880  0.2427 -0.1633
10774SOL    HW136897   2.052   1.773   3.248 -0.2558 -2.0768 -0.3606
10774SOL    HW236898   2.137   1.772   3.108  0.0288 -0.9063 -0.2014
10776SOL     OW36899   2.313   2.825   0.652 -0.3580 -0.2068 -0.0234
10776SOL    HW136900   2.375   2.903   0.660 -0.5541 -0.1589  1.0726
10776SOL    HW236901   2.266   2.829   0.564 -0.4262  0.9557  0.0590
10777SOL     OW36902   9.356   6.321   2.288 -0.1707  0.1876 -0.1464
10777SOL    HW136903   9.430   6.305   2.354  0.2062  0.1702 -0.5679
10777SOL    HW236904   9.334   6.234   2.242 -0.7699  0.0995  0.3096
10780SOL     OW36905   3.727   8.627   2.446 -0.0570 -0.0131  0.0797
10780SOL    HW136906   3.722   8.590   2.539 -0.2524  2.3387  1.0529
10780SOL    HW236907   3.817   8.669   2.432 -0.0261 -0.3679 -0.8085
10781SOL     OW36908   8.450   2.558   4.153  0.3604 -0.1643 -0.1758
10781SOL    HW136909   8.403   2.645   4.169 -0.2520 -0.8217  1.9089
10781SOL    HW236910   8.396   2.503   4.089 -0.6080 -0.0327  0.5070
10782SOL     OW36911   3.906   9.210   0.511  0.0795  0.0803 -0.5397
10782SOL    HW136912   3.831   9.271   0.536 -0.5924 -0.5588 -0.9876
10782SOL    HW236913   3.917   9.209   0.411  0.7107  0.2014 -0.4759
10783SOL     OW36914   8.704   2.630   3.790 -0.3064 -0.0797  0.3324
10783SOL    HW136915   8.795   2.639   3.749 -0.2084 -0.3749  0.4756
10783SOL    HW236916   8.675   2.718   3.828 -0.1001  0.0271  0.2424
10784SOL     OW36917   3.058   1.138   2.176 -0.3913 -0.1010  0.3282
10784SOL    HW136918   3.010   1.202   2.235  0.3072 -0.2547  1.0830
10784SOL    HW236919   2.993   1.073   2.137 -0.8417 -0.0816  1.0355
10785SOL     OW36920   6.357   0.915   3.863 -0.6312 -0.4843  0.0594
10785SOL    HW136921   6.376   0.867   3.777 -2.7166  0.4190 -0.9341
10785SOL    HW236922   6.258   0.918   3.879 -0.5502  2.9662  0.3625
10786SOL     OW36923   9.380   9.113   2.063  0.0246  0.2603  0.3668
10786SOL    HW136924   9.401   9.041   2.129  0.2500  1.6929  1.9106
10786SOL    HW236925   9.447   9.111   1.989  0.5615 -0.5370  0.8640
10787SOL     OW36926   8.259   9.054   4.875  0.4815 -0.0560 -0.4021
10787SOL    HW136927   8.170   9.009   4.871 -0.1156  1.1265 -0.7019
10787SOL    HW236928   8.288   9.078   4.782  0.6991  0.3818 -0.2197
10788SOL     OW36929   0.189   8.808   5.290 -0.5459 -0.7129  0.0740
10788SOL    HW136930   0.126   8.877   5.255 -0.1314 -0.5465 -0.3492
10788SOL    HW236931   0.249   8.777   5.216 -1.4059 -2.2746  0.0007
10789SOL     OW36932   9.785   9.810   4.162  0.5526  0.1427 -0.6328
10789SOL    HW136933   9.775   9.735   4.096  1.8768  1.6519 -2.5824
10789SOL    HW236934   9.694   9.843   4.187  0.0233 -0.6795 -1.4123
10790SOL     OW36935   3.827   0.632   0.974 -0.1575 -0.2753 -0.2936
10790SOL    HW136936   3.864   0.583   0.896 -2.9862 -1.6112 -0.8681
10790SOL    HW236937   3.854   0.586   1.059  0.4354 -0.5682 -0.6449
10791SOL     OW36938   6.374   8.167   2.999 -0.2686  1.0022  0.2256
10791SOL    HW136939   6.365   8.122   3.088  0.6579 -0.6415 -0.4854
10791SOL    HW236940   6.283   8.191   2.965 -0.7800 -0.1827  0.7140
10792SOL     OW36941   3.916   0.103   4.582 -0.4116 -0.0872 -0.0810
10792SOL    HW136942   3.941   0.016   4.624  1.3379  0.0941 -0.6954
10792SOL    HW236943   3.901   0.090   4.484  0.1480  0.3476 -0.2286
10793SOL     OW36944   3.939   9.172   0.047 -0.1823  0.3556  0.1727
10793SOL    HW136945   3.947   9.133   0.138 -2.9502  0.6942  0.5975
10793SOL    HW236946   3.976   9.265   0.047  0.1283  0.2350  0.8457
10794SOL     OW36947   8.451   2.997   5.283  0.3455 -0.0267  0.1391
10794SOL    HW136948   8.530   2.970   5.229  0.4286 -0.4790  0.4809
10794SOL    HW236949   8.413   2.917   5.329  0.6550  0.4446  1.2418
10795SOL     OW36950   7.325   1.137   4.904  0.2328  0.6363  0.2050
10795SOL    HW136951   7.281   1.062   4.855  0.6928  0.6591 -0.2366
10795SOL    HW236952   7.265   1.168   4.978 -0.3651  0.4662 -0.2097
10797SOL     OW36953   1.358   8.136   2.967 -0.1933 -0.2132 -0.1106
10797SOL    HW136954   1.392   8.230   2.975 -1.8229  0.6394 -2.7028
10797SOL    HW236955   1.258   8.135   2.980 -0.0382 -1.7960  1.1885
10798SOL     OW36956   1.100   4.952   3.787  0.4255  0.0850  0.6304
10798SOL    HW136957   1.183   4.970   3.839  0.2755  0.6978  0.6703
10798SOL    HW236958   1.027   5.013   3.820 -0.1870 -0.8205  0.9600
10800SOL     OW36959   5.638   9.610   2.692 -0.1508  0.1818  0.3530
10800SOL    HW136960   5.718   9.656   2.729  0.2844  0.2763 -0.6890
10800SOL    HW236961   5.641   9.612   2.592 -0.5429 -1.3555  0.2876
10802SOL     OW36962   8.326   1.485   2.978  0.2069  0.1626 -0.1425
10802SOL    HW136963   8.356   1.490   2.883 -1.6617 -0.9272 -0.7989
10802SOL    HW236964   8.269   1.564   2.999  0.5930  0.3868  0.0615
10803SOL     OW36965   0.149   9.444   0.883 -0.1202  0.3896  0.0778
10803SOL    HW136966   0.069   9.449   0.824 -0.5073 -0.4845  0.5124
10803SOL    HW236967   0.143   9.362   0.940  0.4464  1.0073  1.0413
10805SOL     OW36968   8.545   2.247   2.683 -0.2427  0.2844 -0.3682
10805SOL    HW136969   8.530   2.170   2.622  1.9620  1.8600 -3.0058
10805SOL    HW236970   8.582   2.213   2.770 -0.0328 -1.7115 -1.1993
10809SOL     OW36971   3.420   9.344   1.642  0.1886  0.0296 -0.1832
10809SOL    HW136972   3.374   9.299   1.566 -0.6535  0.9910 -0.2643
10809SOL    HW236973   3.405   9.292   1.726 -3.1730  1.5673  0.2693
10810SOL     OW36974   3.679   8.107   3.457 -0.3368 -0.3792  0.1932
10810SOL    HW136975   3.671   8.021   3.508 -1.8704  0.0605  0.6992
10810SOL    HW236976   3.635   8.181   3.508  1.7014  0.8977  0.1544
10811SOL     OW36977   2.686   0.620   2.310 -0.4849 -0.4029 -0.6038
10811SOL    HW136978   2.784   0.621   2.289 -0.4968 -1.2245 -0.6892
10811SOL    HW236979   2.638   0.561   2.246 -0.9873 -0.2890 -0.3363
10812SOL     OW36980   9.496   2.921   3.666  0.8930  0.2059 -0.3876
10812SOL    HW136981   9.539   3.002   3.626 -0.5064  0.4775 -1.3885
10812SOL    HW236982   9.524   2.839   3.615  1.8288  0.1251  0.2451
10813SOL     OW36983   3.323   3.846   1.078 -0.1891  0.1375 -0.3222
10813SOL    HW136984   3.301   3.943   1.067 -1.5018 -0.0536  0.5580
10813SOL    HW236985   3.301   3.797   0.994 -1.8145  0.1987  0.0553
10814SOL     OW36986   4.761   9.987   2.876 -0.4087 -0.5780 -0.3123
10814SOL    HW136987   4.835   9.934   2.833 -0.6535 -0.5875 -0.7344
10814SOL    HW236988   4.691   9.924   2.910 -0.7916 -0.5263 -0.9843
10815SOL     OW36989   3.756   4.752   5.236  0.4821  0.0984  0.1828
10815SOL    HW136990   3.722   4.801   5.316  1.2877  0.4433  0.3139
10815SOL    HW236991   3.854   4.735   5.245  0.3101 -1.1264 -0.0707
10816SOL     OW36992   0.858   2.068   5.014 -0.2359 -0.0600  0.4507
10816SOL    HW136993   0.805   2.018   5.082  0.0688 -1.4705 -0.3095
10816SOL    HW236994   0.799   2.093   4.937 -0.1351 -0.2835  0.2996
10817SOL     OW36995   4.531   9.284   2.337 -0.0055  0.2186  0.0735
10817SOL    HW136996   4.493   9.193   2.317  0.2832  0.5730 -2.1715
10817SOL    HW236997   4.620   9.293   2.294 -0.1351  1.6586  0.0957
10818SOL     OW36998   1.166   6.029   1.427 -0.0593  0.2545  0.0487
10818SOL    HW136999   1.211   6.110   1.463 -1.2084  1.0786 -0.3179
10818SOL    HW237000   1.116   5.982   1.501  0.8665 -0.3023  0.3243
10819SOL     OW37001   6.997   9.545   3.214  0.1428  0.1248  0.4867
10819SOL    HW137002   7.059   9.590   3.278  1.0871 -1.7902  0.9618
10819SOL    HW237003   7.035   9.457   3.187 -1.8307 -0.5793 -0.1054
10821SOL     OW37004   4.279   5.347   1.827 -0.3723  0.6582  0.2930
10821SOL    HW137005   4.337   5.357   1.908  0.9678  1.3532 -0.7194
10821SOL    HW237006   4.189   5.386   1.845  0.0194  1.0770  1.3561
10822SOL     OW37007   4.268   1.519   0.505  0.3638  0.0706 -0.7355
10822SOL    HW137008   4.345   1.552   0.560  0.7840 -1.5034 -0.3710
10822SOL    HW237009   4.206   1.466   0.563 -0.0182 -0.2610 -1.4446
10823SOL     OW37010   9.891   6.953   5.102 -0.3331  0.0489 -0.2201
10823SOL    HW137011   9.805   7.002   5.117 -0.6111  0.2516 -2.3202
10823SOL    HW237012   9.873   6.872   5.046  0.9270  0.3510 -1.0685
10824SOL     OW37013   3.237   5.184   2.438 -0.9159 -0.6158  0.0529
10824SOL    HW137014   3.211   5.279   2.457 -0.4023 -0.7357  1.4371
10824SOL    HW237015   3.272   5.142   2.522 -0.6277 -1.8666 -0.6832
10825SOL     OW37016   2.304   5.011   3.717  0.1352  0.2457 -0.3439
10825SOL    HW137017   2.302   5.065   3.633 -0.4871  0.9492  0.1137
10825SOL    HW237018   2.382   5.040   3.773 -0.2437  0.7446 -0.0624
10826SOL     OW37019   2.466   9.645   4.456  0.1286  0.4796  0.1747
10826SOL    HW137020   2.493   9.549   4.455  0.2944  0.5265  0.3749
10826SOL    HW237021   2.476   9.683   4.364  0.5863  0.4535  0.2123
10827SOL     OW37022   7.961   5.438   1.745 -0.0943  0.4848 -0.2824
10827SOL    HW137023   7.957   5.381   1.827 -1.0515  0.7736 -0.1184
10827SOL    HW237024   8.013   5.391   1.674 -2.0222 -1.2324 -0.6134
10828SOL     OW37025   3.362   4.609   1.857  0.0321 -0.0968  0.5091
10828SOL    HW137026   3.324   4.661   1.935 -0.1055  0.3327  0.1567
10828SOL    HW237027   3.316   4.520   1.852  1.2410 -0.8232  1.9557
10829SOL     OW37028   0.809   9.793   1.989 -0.3541  0.3903  0.1963
10829SOL    HW137029   0.733   9.809   1.926 -0.5033 -2.4140 -0.3700
10829SOL    HW237030   0.895   9.797   1.938 -0.1919  2.0928  0.5717
10831SOL     OW37031   2.619   8.405   3.313  0.4754  0.1177  0.8498
10831SOL    HW137032   2.543   8.470   3.307 -0.3279 -0.7557  1.2059
10831SOL    HW237033   2.679   8.431   3.388 -0.0265  0.2628  1.2078
10832SOL     OW37034   3.248   0.399   2.114  0.5559 -0.5703  0.3590
10832SOL    HW137035   3.309   0.324   2.089  1.1216  0.2134 -0.6107
10832SOL    HW237036   3.156   0.380   2.078  1.1770  0.1766 -1.6704
10833SOL     OW37037   6.074   8.823   3.078  0.1431 -0.0052 -1.0762
10833SOL    HW137038   6.106   8.830   3.172  1.5030 -0.6716 -1.4721
10833SOL    HW237039   5.992   8.879   3.065  0.4693  0.7707  0.2688
10834SOL     OW37040   9.004   0.933   4.689  0.0425  0.8519 -0.0144
10834SOL    HW137041   9.064   0.880   4.629 -0.0584  1.0024 -0.2479
10834SOL    HW237042   9.059   0.984   4.755  0.0269 -1.6536  1.9712
10835SOL     OW37043   2.660   7.334   0.601 -0.7051  0.2076  0.1885
10835SOL    HW137044   2.664   7.385   0.686 -2.0258  0.5760  0.0392
10835SOL    HW237045   2.569   7.342   0.561 -1.1011 -2.6245  0.3830
10836SOL     OW37046   4.235   9.078   1.801  0.4777 -0.5364 -0.5628
10836SOL    HW137047   4.302   9.138   1.845  2.6921 -2.7569 -0.8188
10836SOL    HW237048   4.177   9.035   1.870  0.8212 -0.3646 -0.1683
10837SOL     OW37049   8.265   5.565   3.281  0.0923  0.2860  0.1683
10837SOL    HW137050   8.179   5.616   3.283  0.7553  1.4218  3.5885
10837SOL    HW237051   8.256   5.482   3.336  0.3550 -1.1068 -1.8279
10838SOL     OW37052   6.236   0.768   1.200 -0.6272  0.3004 -0.5405
10838SOL    HW137053   6.296   0.736   1.126 -1.4796  0.3130 -1.2368
10838SOL    HW237054   6.287   0.766   1.286 -0.4221 -2.3076 -0.6665
10839SOL     OW37055   1.984   3.613   1.991 -0.0647  0.1799 -0.1506
10839SOL    HW137056   2.074   3.596   1.950 -0.3518  1.9650 -1.5825
10839SOL    HW237057   1.957   3.707   1.973 -1.5831  0.0778  1.5537
10840SOL     OW37058   5.417   3.690   0.206 -0.1120  0.2464 -0.8174
10840SOL    HW137059   5.339   3.639   0.171  0.1255  0.3125 -1.4507
10840SOL    HW237060   5.451   3.752   0.135  0.0231  0.7948 -0.2854
10841SOL     OW37061   3.132   5.987   0.394  0.1530 -0.1518 -0.1599
10841SOL    HW137062   3.131   5.966   0.492 -1.9357  1.3019  0.1601
10841SOL    HW237063   3.226   6.008   0.366  1.3114 -3.7142  0.8013
10842SOL     OW37064   3.642   8.095   1.027  1.0337 -0.3133  0.1028
10842SOL    HW137065   3.544   8.115   1.028  0.6954 -1.7952 -1.4660
10842SOL    HW237066   3.692   8.170   1.072 -0.7360  0.8285  0.2101
10843SOL     OW37067   0.029   3.316   3.006 -0.5947  0.1333 -0.1444
10843SOL    HW137068   0.086   3.380   2.955 -0.7601  0.8280  0.5381
10843SOL    HW237069   0.083   3.271   3.076 -1.0644  1.4201  1.0678
10845SOL     OW37070   9.111   8.179   2.249  0.0487 -0.1965  0.0999
10845SOL    HW137071   9.069   8.250   2.305 -0.9335 -1.8067  1.4633
10845SOL    HW237072   9.211   8.188   2.252 -0.0461  0.5435  1.0180
10846SOL     OW37073   8.452   1.237   3.122 -0.2737  0.1997  0.0137
10846SOL    HW137074   8.513   1.210   3.047 -0.2551 -0.1704  0.1602
10846SOL    HW237075   8.396   1.315   3.093  0.1043  0.3951 -0.2020
10847SOL     OW37076   8.013   6.554   4.755  0.0809  0.4012  0.2204
10847SOL    HW137077   7.949   6.494   4.707 -0.7748  0.8908  0.7218
10847SOL    HW237078   8.062   6.611   4.689  0.4834 -0.4418 -0.2141
10848SOL     OW37079   1.670   4.718   3.818  0.2676 -0.3209  0.2982
10848SOL    HW137080   1.589   4.661   3.824 -0.6061  1.0801  2.4701
10848SOL    HW237081   1.729   4.701   3.897  1.1854 -0.0112 -0.3136
10849SOL     OW37082   4.393   1.108   4.052 -0.0054 -0.5145 -0.5933
10849SOL    HW137083   4.333   1.046   4.103 -1.2202 -0.8766 -2.3974
10849SOL    HW237084   4.480   1.063   4.034  0.0924 -0.7145  0.3770
10850SOL     OW37085   4.560   9.197   0.274  0.5087 -0.6891  0.1880
10850SOL    HW137086   4.630   9.251   0.227  0.9502 -1.2360  0.2204
10850SOL    HW237087   4.555   9.225   0.369  0.2634 -0.2288  0.0407
10851SOL     OW37088   4.901   6.678   2.349 -0.2055 -0.4871  0.1126
10851SOL    HW137089   4.831   6.724   2.293  0.0168  0.5797  0.6897
10851SOL    HW237090   4.900   6.580   2.330 -0.9112 -0.2927 -0.9180
10852SOL     OW37091   2.003   1.033   1.352 -0.4282  0.5072  0.4572
10852SOL    HW137092   1.956   0.951   1.320  1.8341 -0.3862 -0.7077
10852SOL    HW237093   1.986   1.108   1.287 -0.5987  0.3060  0.2688
10853SOL     OW37094   3.902   1.939   0.449  0.1880  0.4673  0.0861
10853SOL    HW137095   3.957   1.905   0.373  0.4376  1.5351 -0.2127
10853SOL    HW237096   3.887   2.037   0.439 -1.2701  0.3057  0.4800
10855SOL     OW37097   0.710   1.936   5.186 -0.7600  0.5098 -0.1900
10855SOL    HW137098   0.625   1.948   5.238 -0.9831 -0.0030 -0.4332
10855SOL    HW237099   0.692   1.881   5.104 -0.1314  0.1140 -0.0692
10856SOL     OW37100   9.381   2.136   1.071  0.0104  0.2420  0.3746
10856SOL    HW137101   9.433   2.142   1.156 -0.7753 -1.4123  0.9829
10856SOL    HW237102   9.289   2.174   1.085 -0.2057 -0.2638  0.3410
10857SOL     OW37103   1.786   8.379   4.541  0.3302 -0.1954  0.2221
10857SOL    HW137104   1.811   8.349   4.449  0.0161  0.6413 -0.1375
10857SOL    HW237105   1.848   8.338   4.608  0.4718 -0.9155 -0.3463
10858SOL     OW37106   0.116   8.074   4.749 -0.2768  0.2277 -0.4227
10858SOL    HW137107   0.211   8.045   4.753 -0.7427 -1.2692  0.1706
10858SOL    HW237108   0.109   8.169   4.780  0.9504  0.1768  0.0252
10863SOL     OW37109   4.510   8.183   5.053 -0.0851 -0.0719 -0.5578
10863SOL    HW137110   4.514   8.249   4.979  0.5883  0.6664  0.1320
10863SOL    HW237111   4.533   8.227   5.140  0.7588 -1.2869 -0.1461
10864SOL     OW37112   8.520   7.326   4.639  0.1089 -1.2185  0.5512
10864SOL    HW137113   8.433   7.283   4.663  0.5725 -1.1268  2.4934
10864SOL    HW237114   8.595   7.272   4.678  0.8301 -0.3937  0.3034
10865SOL     OW37115   6.743   1.527   2.577 -0.3539 -0.0070 -0.6529
10865SOL    HW137116   6.726   1.609   2.631 -3.2477 -1.6639  1.0873
10865SOL    HW237117   6.808   1.468   2.626  0.4509  0.4868 -1.1184
10866SOL     OW37118   4.032   7.909   3.390  0.5434 -0.1491 -0.0958
10866SOL    HW137119   4.079   7.944   3.470 -1.9356 -1.2993  1.9464
10866SOL    HW237120   4.077   7.825   3.359 -0.3747 -1.5050  2.1231
10867SOL     OW37121   3.326   4.964   4.181 -0.2026  0.2917 -0.0916
10867SOL    HW137122   3.289   4.926   4.266  1.2560  1.0526  0.9017
10867SOL    HW237123   3.357   4.890   4.122  1.2804 -0.1267  1.2054
10868SOL     OW37124   0.353   7.012   4.812 -0.9279  0.0692  0.2978
10868SOL    HW137125   0.303   6.952   4.750  2.4859  0.4239 -3.0391
10868SOL    HW237126   0.399   6.958   4.882 -1.0221 -0.8694 -0.3568
10869SOL     OW37127   2.869   4.849   5.272 -0.1643  0.1518  0.0614
10869SOL    HW137128   2.935   4.910   5.228 -0.9930 -0.2936 -1.9041
10869SOL    HW237129   2.888   4.843   5.370  2.5633  0.1943 -0.4141
10871SOL     OW37130   7.590   8.857   3.943  0.0704 -0.3001  0.1106
10871SOL    HW137131   7.571   8.783   4.008 -0.8806  0.9249  1.2429
10871SOL    HW237132   7.659   8.826   3.878  1.0643 -1.5506  1.7055
10873SOL     OW37133   1.404   3.304   2.533  0.4924 -0.1951  0.4803
10873SOL    HW137134   1.434   3.328   2.625 -0.8070  1.5076  0.4946
10873SOL    HW237135   1.413   3.206   2.519 -0.5252 -0.6630  2.8793
10874SOL     OW37136   3.301   8.679   0.742  0.1119 -0.9896  0.2122
10874SOL    HW137137   3.260   8.599   0.698  0.5456 -1.7044  1.0970
10874SOL    HW237138   3.331   8.743   0.671 -0.6899 -1.3659 -0.4937
10875SOL     OW37139   3.117   8.389   2.105  0.0939  0.2421 -0.6452
10875SOL    HW137140   3.104   8.487   2.123 -0.6007  0.0137  0.0870
10875SOL    HW237141   3.064   8.364   2.024  1.0261  0.6674 -1.4004
10876SOL     OW37142   4.415   7.431   2.476  0.2875  0.2243 -0.4550
10876SOL    HW137143   4.513   7.419   2.495  0.4713  1.9103 -0.2597
10876SOL    HW237144   4.389   7.372   2.399  1.2803 -0.7843 -0.0507
10877SOL     OW37145   3.300   9.149   2.082 -0.1831 -0.2529 -0.2758
10877SOL    HW137146   3.298   9.049   2.089  0.8696 -0.1901  0.9781
10877SOL    HW237147   3.381   9.177   2.031  0.6330  0.0508  1.1713
10878SOL     OW37148   6.007   8.881   3.980  0.5078  0.0771 -0.0162
10878SOL    HW137149   5.926   8.827   4.004 -0.1510  0.2879 -1.7327
10878SOL    HW237150   6.019   8.954   4.047 -2.2515  1.6781 -1.2038
10879SOL     OW37151   0.114   9.931   1.042  0.3067 -0.3749  0.4251
10879SOL    HW137152   0.164   9.998   0.988  0.6691 -1.6226 -0.7957
10879SOL    HW237153   0.162   9.915   1.129  1.3003 -0.5744 -0.1624
10880SOL     OW37154   9.120   0.297   0.173  0.5253 -0.4990 -0.0602
10880SOL    HW137155   9.149   0.302   0.077 -0.3933 -1.2415 -0.3916
10880SOL    HW237156   9.200   0.298   0.233  1.2224 -2.4815 -0.9367
10881SOL     OW37157   3.953   3.624   1.830 -0.0284 -0.4106 -0.2166
10881SOL    HW137158   3.896   3.551   1.791  1.7012 -0.7958 -2.0900
10881SOL    HW237159   3.945   3.623   1.930 -2.7100 -0.9265 -0.3863
10882SOL     OW37160   8.646   6.842   3.801  0.1508 -0.2248 -0.3201
10882SOL    HW137161   8.655   6.743   3.796  2.0735 -0.0960  0.4606
10882SOL    HW237162   8.590   6.866   3.880  1.0146 -0.6141  0.4081
10883SOL     OW37163   3.480   0.685   1.468  0.3084  0.3008  0.4524
10883SOL    HW137164   3.461   0.710   1.563  0.9028  0.0652  0.6325
10883SOL    HW237165   3.574   0.708   1.445  0.0807  0.6235 -0.1692
10884SOL     OW37166   2.568   1.520   4.861  0.1710  0.0474  0.1496
10884SOL    HW137167   2.575   1.540   4.959  1.0163  0.0153  0.0952
10884SOL    HW237168   2.589   1.602   4.809 -2.3297  0.6323  0.0185
10886SOL     OW37169   0.523   4.492   3.069 -0.0611 -0.3431 -0.0489
10886SOL    HW137170   0.591   4.551   3.113 -0.9570 -0.6198  1.7774
10886SOL    HW237171   0.524   4.402   3.113  1.3867 -1.7536 -2.9014
10887SOL     OW37172   0.674   5.981   1.274  0.2282 -0.0563 -0.2585
10887SOL    HW137173   0.668   5.886   1.305 -3.1343 -0.4210 -1.7452
10887SOL    HW237174   0.646   6.041   1.349 -0.0368 -0.3985 -0.0775
10888SOL     OW37175   1.596   2.668   3.468 -0.1682  0.6295  0.1759
10888SOL    HW137176   1.531   2.602   3.505 -0.7847  2.3179  2.2344
10888SOL    HW237177   1.561   2.761   3.482  0.2383  1.4310 -3.5033
10891SOL     OW37178   1.184   7.586   1.309  0.3501 -0.4118 -0.0499
10891SOL    HW137179   1.204   7.638   1.393 -0.0341 -1.2677  0.5756
10891SOL    HW237180   1.216   7.638   1.230 -0.9614  1.2559  0.4941
10893SOL     OW37181   6.680   1.209   1.555 -0.0419  0.0482 -0.0049
10893SOL    HW137182   6.580   1.213   1.553  0.0208  1.5565 -2.4204
10893SOL    HW237183   6.713   1.245   1.642 -1.6067 -0.9281  1.0105
10894SOL     OW37184   9.026   4.977   2.132 -0.0179  0.4047  0.4455
10894SOL    HW137185   9.094   4.904   2.122 -0.2563  0.0853  1.1196
10894SOL    HW237186   9.035   5.042   2.056 -0.0723 -0.5383 -0.3689
10896SOL     OW37187   3.628   9.673   4.931  0.4317 -0.0354 -0.1238
10896SOL    HW137188   3.708   9.674   4.990  2.4399 -1.8953 -2.7084
10896SOL    HW237189   3.604   9.579   4.908 -2.4195  0.4974  0.4586
10898SOL     OW37190   2.660   5.694   0.783  0.4904 -0.0437 -0.0402
10898SOL    HW137191   2.754   5.661   0.771  0.1734 -0.1866 -2.4312
10898SOL    HW237192   2.599   5.642   0.723 -0.8507  1.1729  0.2607
10900SOL     OW37193   0.379   5.480   4.618  0.0366 -0.5314  0.3804
10900SOL    HW137194   0.367   5.411   4.690 -1.6041 -0.1746  0.4859
10900SOL    HW237195   0.290   5.521   4.597  0.9013  1.1507 -0.0861
10901SOL     OW37196   8.117   3.972   0.532  0.0377 -0.2069  0.1885
10901SOL    HW137197   8.141   4.040   0.462  0.2979 -2.0711 -1.5913
10901SOL    HW237198   8.200   3.940   0.577  0.2088 -1.2626 -0.8384
10903SOL     OW37199   1.822   7.614   3.681  0.0165 -0.0815 -0.2227
10903SOL    HW137200   1.905   7.643   3.634 -0.6060  1.9333 -0.1157
10903SOL    HW237201   1.807   7.670   3.762 -0.6930 -1.3632  0.5621
10904SOL     OW37202   7.555   1.855   2.860  0.5363 -0.2460  0.4271
10904SOL    HW137203   7.556   1.766   2.906 -1.3502  0.1948  1.3835
10904SOL    HW237204   7.593   1.846   2.768  0.1136 -2.1005  0.4166
10905SOL     OW37205   9.124   4.617   0.554  0.1645 -0.6243  0.2880
10905SOL    HW137206   9.215   4.612   0.596 -0.5192 -2.2346  1.5854
10905SOL    HW237207   9.072   4.535   0.576 -0.9897 -0.5117 -1.9262
10906SOL     OW37208   2.719   8.814   2.246 -0.3449  0.6571  0.4824
10906SOL    HW137209   2.816   8.800   2.266 -0.2394 -1.4319 -1.3090
10906SOL    HW237210   2.675   8.725   2.229 -2.2477  1.6971 -0.1956
10908SOL     OW37211   1.815   8.027   1.584 -0.3994 -0.1301  0.5378
10908SOL    HW137212   1.846   7.962   1.653  2.1061  0.8741  0.4412
10908SOL    HW237213   1.894   8.079   1.550 -1.5612 -0.5560 -3.0588
10910SOL     OW37214   3.982   6.478   1.604 -0.3654  0.1043 -0.0666
10910SOL    HW137215   3.911   6.459   1.536  1.2288  0.9989 -2.0560
10910SOL    HW237216   4.050   6.541   1.564  1.5680 -0.7680  1.7542
10911SOL     OW37217   6.452   9.791   2.636  0.1401  0.0078  0.3159
10911SOL    HW137218   6.549   9.791   2.613  0.4721 -0.5415  1.6658
10911SOL    HW237219   6.419   9.697   2.642 -0.0850  0.1494  1.4375
10912SOL     OW37220   3.102   3.045   1.880  0.0508  0.3169 -0.4761
10912SOL    HW137221   3.022   3.097   1.852 -0.2313 -0.5622 -1.3453
10912SOL    HW237222   3.173   3.107   1.913 -1.5079  1.0187  1.6576
10913SOL     OW37223   4.723   8.463   5.312 -0.0774 -0.0874 -0.1323
10913SOL    HW137224   4.760   8.379   5.351 -0.5985 -0.8433 -1.2500
10913SOL    HW237225   4.624   8.453   5.298 -0.0091  0.4157 -1.0296
10915SOL     OW37226   0.484   7.710   0.722 -0.0285 -0.2726 -0.3081
10915SOL    HW137227   0.552   7.671   0.784  0.8976  0.0193 -1.1217
10915SOL    HW237228   0.440   7.788   0.766 -0.7791 -1.2616  0.7235
10917SOL     OW37229   8.204   1.902   3.508  0.0880 -0.7730 -0.0585
10917SOL    HW137230   8.252   1.886   3.594  0.1250  0.6765  0.2023
10917SOL    HW237231   8.139   1.978   3.520  2.4009  1.6248 -2.1505
10919SOL     OW37232   0.921   6.166   3.402 -0.2970 -0.4029  0.3970
10919SOL    HW137233   0.997   6.103   3.387  0.8834  1.2869 -0.7853
10919SOL    HW237234   0.880   6.146   3.491  3.0737  0.2112  2.1918
10920SOL     OW37235   1.959   3.958   3.887  0.5618 -0.1830 -0.2220
10920SOL    HW137236   2.010   3.893   3.944 -1.3646 -2.6521 -1.2192
10920SOL    HW237237   1.973   3.934   3.791  0.6956  1.5917 -0.6529
10921SOL     OW37238   4.543   8.714   4.729  0.0436 -0.4414 -0.1926
10921SOL    HW137239   4.498   8.681   4.812 -0.6570  0.8265 -0.0634
10921SOL    HW237240   4.640   8.730   4.748 -0.4761  1.6099  0.9178
10922SOL     OW37241   9.690   2.773   0.839 -0.4157  0.1302 -0.2254
10922SOL    HW137242   9.658   2.705   0.905 -0.5339  1.3265  0.9909
10922SOL    HW237243   9.668   2.865   0.874  0.9318  0.8314 -1.1898
10923SOL     OW37244   4.243   8.063   4.552  0.1030 -0.4857  0.4169
10923SOL    HW137245   4.148   8.072   4.525 -0.4267 -0.7677  2.1046
10923SOL    HW237246   4.276   7.971   4.529 -0.5251 -0.9351  1.2680
10924SOL     OW37247   8.785   8.750   3.832  0.0588 -0.7167  0.2055
10924SOL    HW137248   8.854   8.797   3.887 -2.4102  1.2867  1.7055
10924SOL    HW237249   8.801   8.652   3.834  1.9348 -0.3972  1.7972
10926SOL     OW37250   0.127   0.922   0.132 -0.7689 -0.1203  0.1468
10926SOL    HW137251   0.073   0.863   0.191 -1.7747  1.3438  0.7088
10926SOL    HW237252   0.196   0.970   0.186 -0.1988 -0.4845 -0.2475
10927SOL     OW37253   9.916   4.856   1.462  0.3348 -0.3009  0.3105
10927SOL    HW137254   9.817   4.845   1.452  0.5439 -1.2074 -0.7945
10927SOL    HW237255   9.964   4.786   1.409  1.5759  0.0165  0.9791
10928SOL     OW37256   2.974   5.070   3.464  0.1656 -0.3695  0.7927
10928SOL    HW137257   3.050   5.040   3.406 -0.1675 -1.0563  0.7059
10928SOL    HW237258   2.924   5.143   3.418  1.0761  0.4529  1.0716
10929SOL     OW37259   2.943   7.784   3.815 -0.3374  0.1503  0.5132
10929SOL    HW137260   2.950   7.748   3.908  0.5638  0.6941  0.6644
10929SOL    HW237261   3.021   7.844   3.797 -1.1988  1.0725 -0.1535
10930SOL     OW37262   9.187   0.842   4.218 -0.2583 -0.0319 -0.3328
10930SOL    HW137263   9.206   0.810   4.125 -0.7641 -1.0778 -0.0883
10930SOL    HW237264   9.096   0.811   4.245  0.2311 -0.4722  0.8340
10931SOL     OW37265   0.359   8.821   1.430  0.1233 -0.3627 -0.1428
10931SOL    HW137266   0.308   8.761   1.368 -1.5969  2.1961 -1.3180
10931SOL    HW237267   0.299   8.894   1.462  1.8360  0.0674  2.1881
10935SOL     OW37268   0.741   1.589   4.846 -0.6964 -0.5602 -0.6910
10935SOL    HW137269   0.729   1.618   4.751 -1.4803  1.5742  0.0213
10935SOL    HW237270   0.659   1.612   4.898  0.2443 -0.5065  0.7891
10936SOL     OW37271   0.813   7.607   3.919 -0.2859 -0.1652 -0.6059
10936SOL    HW137272   0.773   7.692   3.883 -2.1665 -0.2678  1.1615
10936SOL    HW237273   0.747   7.533   3.910  0.5960 -0.9965 -0.2657
10937SOL     OW37274   9.644   8.680   0.876  0.3182  0.0930 -0.9354
10937SOL    HW137275   9.702   8.665   0.957  0.0019  0.1039 -0.7051
10937SOL    HW237276   9.553   8.642   0.893 -0.8899  3.3400  0.1548
10938SOL     OW37277   5.935   9.739   5.136  0.2707  0.0447 -0.0847
10938SOL    HW137278   6.011   9.686   5.099  1.2018  1.1405  0.2223
10938SOL    HW237279   5.878   9.773   5.061 -0.4545 -1.5298 -0.2767
10939SOL     OW37280   6.581   1.148   4.527 -0.3605  0.4972 -0.2456
10939SOL    HW137281   6.567   1.231   4.581 -0.6249  0.2619  0.0473
10939SOL    HW237282   6.544   1.069   4.576  2.4620 -0.2389  0.8087
10940SOL     OW37283   0.833   1.265   1.058  0.1069  0.6102  0.2815
10940SOL    HW137284   0.805   1.302   1.146 -0.7179 -0.9769  0.7023
10940SOL    HW237285   0.923   1.223   1.066 -0.4163 -0.4585  0.6342
10941SOL     OW37286   3.877   7.855   1.055 -0.3940  0.0851  1.0953
10941SOL    HW137287   3.969   7.882   1.028 -0.7023 -0.2891 -0.3776
10941SOL    HW237288   3.814   7.931   1.037 -0.7164 -0.4157  0.0808
10943SOL     OW37289   5.427   0.759   2.584 -0.3863  0.1541 -0.2658
10943SOL    HW137290   5.413   0.761   2.485 -1.0540  0.2053 -0.1696
10943SOL    HW237291   5.390   0.674   2.621  1.2383 -0.5743 -0.2633
10945SOL     OW37292   4.075   9.181   4.846  0.2380  0.4766 -0.1982
10945SOL    HW137293   4.136   9.237   4.903 -0.8735  1.4256  0.0752
10945SOL    HW237294   3.982   9.186   4.881 -0.5035  1.2433 -2.2023
10946SOL     OW37295   9.043   9.407   4.224  0.4559 -0.0095  0.0809
10946SOL    HW137296   9.052   9.400   4.124  1.4970 -0.4830  0.2040
10946SOL    HW237297   9.003   9.322   4.259  1.0151 -0.2350  0.1740
10947SOL     OW37298   1.341   4.885   1.028 -0.1608 -0.1468  0.6150
10947SOL    HW137299   1.357   4.982   1.046 -0.2783 -0.1848  0.9369
10947SOL    HW237300   1.287   4.874   0.945  1.0914  0.0032 -0.2248
10949SOL     OW37301   7.360   1.763   0.321  0.2613 -0.1110 -0.2294
10949SOL    HW137302   7.380   1.855   0.287  0.9142  0.6918  2.2092
10949SOL    HW237303   7.271   1.764   0.368 -0.0879 -0.9202 -0.8618
10950SOL     OW37304   1.341   8.271   4.006  0.4565 -0.2100  0.7275
10950SOL    HW137305   1.263   8.236   3.954  1.2344 -0.4108 -0.3254
10950SOL    HW237306   1.315   8.355   4.053 -0.4090 -0.3039  0.4271
10952SOL     OW37307   1.673   1.722   2.939  0.3726 -0.8028  0.5210
10952SOL    HW137308   1.724   1.791   2.990 -0.4838 -0.8886  1.5136
10952SOL    HW237309   1.606   1.767   2.879  0.9672 -0.7232 -0.0909
10954SOL     OW37310   4.834   1.679   1.959 -0.7233 -0.1279  0.0779
10954SOL    HW137311   4.852   1.593   2.006 -2.1568  0.5478  1.9849
10954SOL    HW237312   4.826   1.752   2.027  0.0982  1.4399 -1.4773
10956SOL     OW37313   7.886   8.870   3.015  0.2362  0.3352 -0.1444
10956SOL    HW137314   7.851   8.950   2.966  0.3541  0.8675  0.6237
10956SOL    HW237315   7.811   8.828   3.066  0.7128  1.5422  1.5914
10957SOL     OW37316   2.034   1.652   4.476 -0.1635  0.7031  0.2239
10957SOL    HW137317   2.035   1.750   4.494  1.5993  0.7694 -0.0706
10957SOL    HW237318   2.097   1.606   4.540  0.3671  0.0026 -0.7787
10959SOL     OW37319   3.870   4.732   2.197  0.5071  0.1435 -0.1935
10959SOL    HW137320   3.869   4.726   2.097 -1.0794 -0.0007 -0.1911
10959SOL    HW237321   3.902   4.822   2.225 -1.9583  1.2907 -0.9238
10961SOL     OW37322   5.821   0.069   4.161  0.0312 -0.7662 -0.1580
10961SOL    HW137323   5.832   0.159   4.203 -0.8377 -1.1412  0.9239
10961SOL    HW237324   5.897   0.051   4.098  0.4926  0.4915  0.0297
10962SOL     OW37325   7.222   6.685   4.605 -0.7541  0.2104 -0.4429
10962SOL    HW137326   7.223   6.718   4.700  0.1431  1.9618 -1.0293
10962SOL    HW237327   7.311   6.645   4.583 -0.8443  0.1227 -0.6448
10963SOL     OW37328   8.916   0.823   3.598  0.2403 -0.1559  0.0208
10963SOL    HW137329   8.824   0.820   3.558  0.4213  1.1993 -0.5049
10963SOL    HW237330   8.983   0.847   3.528  1.0728 -1.5976  0.3021
10965SOL     OW37331   3.211   6.079   3.093  0.5338 -0.3340 -1.0808
10965SOL    HW137332   3.183   5.994   3.049  1.2687 -0.9246 -0.4343
10965SOL    HW237333   3.310   6.092   3.081  0.5202  0.1357 -0.6918
10967SOL     OW37334   9.618   2.081   2.653  0.1094  0.3877  0.0300
10967SOL    HW137335   9.653   2.064   2.745  0.6753 -0.3311 -0.3149
10967SOL    HW237336   9.670   2.156   2.611  0.0622  0.5013  0.1720
10968SOL     OW37337   8.058   0.959   0.687 -0.6537  0.4321  0.3238
10968SOL    HW137338   8.155   0.981   0.696 -0.7761  1.2473 -0.2774
10968SOL    HW237339   8.003   1.036   0.721 -1.0809  0.2807 -0.0165
10969SOL     OW37340   1.454   8.962   4.779  0.3377  0.3277  0.3446
10969SOL    HW137341   1.479   8.914   4.695  3.3883  1.5229  0.4926
10969SOL    HW237342   1.475   9.059   4.770 -2.0150  0.9743  1.4871
10971SOL     OW37343   1.186   1.357   3.368 -0.0273  0.1065  0.1460
10971SOL    HW137344   1.127   1.387   3.293  0.1017  1.6356  0.6357
10971SOL    HW237345   1.232   1.272   3.343 -3.7320 -2.0703  0.4184
10972SOL     OW37346   4.635   0.325   2.104  0.8483  0.0708 -0.1442
10972SOL    HW137347   4.690   0.400   2.142  0.6745 -0.5705  1.3740
10972SOL    HW237348   4.539   0.338   2.129  0.1418  1.5027 -3.2632
10973SOL     OW37349   9.283   9.737   4.176  0.4581  0.1387  0.0817
10973SOL    HW137350   9.279   9.783   4.265  0.1875 -0.0156  0.1502
10973SOL    HW237351   9.207   9.768   4.120 -0.3487 -1.0382  0.5206
10974SOL     OW37352   3.630   0.349   1.725  0.1077  0.9116  0.4516
10974SOL    HW137353   3.639   0.445   1.753  1.0754  1.3910 -1.3990
10974SOL    HW237354   3.544   0.336   1.676  0.0689  0.8777  0.5284
10975SOL     OW37355   1.069   2.212   4.029 -0.0010 -1.0790  0.1147
10975SOL    HW137356   0.998   2.177   3.968  0.8499 -2.8877  0.1469
10975SOL    HW237357   1.093   2.143   4.097  1.6376 -0.4227  0.2372
10976SOL     OW37358   4.549   3.239   1.674 -0.2194  0.3604 -0.0016
10976SOL    HW137359   4.506   3.153   1.646  1.0195  0.2317 -1.6364
10976SOL    HW237360   4.645   3.222   1.695 -1.1309  0.4351  4.6940
10977SOL     OW37361   5.802   2.520   3.353  0.7796  1.3114  0.6578
10977SOL    HW137362   5.709   2.492   3.377  1.9408 -0.7314  3.0380
10977SOL    HW237363   5.827   2.601   3.407 -0.2240  2.9404 -1.2938
10978SOL     OW37364   3.261   7.170   4.283  0.1099  0.2555 -0.1212
10978SOL    HW137365   3.356   7.158   4.254  0.1903 -2.3384  1.0846
10978SOL    HW237366   3.225   7.082   4.316 -2.0350  1.6674  1.4085
10979SOL     OW37367   3.489   0.179   2.095  0.6067 -0.1667 -0.2511
10979SOL    HW137368   3.571   0.180   2.038  0.0738 -0.6134 -1.0467
10979SOL    HW237369   3.440   0.093   2.080 -0.5673  0.5486 -0.6061
10980SOL     OW37370   3.933   6.845   3.396  0.7570 -0.0284 -1.0668
10980SOL    HW137371   4.004   6.775   3.388  0.2548 -0.4061 -2.4699
10980SOL    HW237372   3.848   6.811   3.355 -1.3339 -0.9422  3.7457
10981SOL     OW37373   8.866   2.041   5.289 -0.0432 -0.4771  0.1426
10981SOL    HW137374   8.812   2.049   5.206  0.0900 -1.4446 -0.0378
10981SOL    HW237375   8.884   1.945   5.309  1.3070 -0.1830  0.4009
10982SOL     OW37376   0.535   3.793   2.225 -0.6216 -0.2651  0.3305
10982SOL    HW137377   0.532   3.786   2.325 -0.2045  0.5401  0.4036
10982SOL    HW237378   0.624   3.762   2.192  0.1693  1.7871  0.4265
10983SOL     OW37379   0.684   5.057   5.317 -0.1679  0.2473 -0.6517
10983SOL    HW137380   0.687   5.096   5.225 -1.1171 -3.1924 -2.2513
10983SOL    HW237381   0.692   4.958   5.311 -2.3567 -0.2426  2.7978
10984SOL     OW37382   8.762   6.020   2.277 -0.2848  0.0292 -0.2621
10984SOL    HW137383   8.795   6.114   2.278 -2.3121  0.8633 -2.8307
10984SOL    HW237384   8.767   5.984   2.184 -2.2601 -1.3560  0.1246
10986SOL     OW37385   4.334   6.587   2.749  0.1172  0.3086 -0.3592
10986SOL    HW137386   4.411   6.632   2.704 -1.0466  1.7012 -0.9893
10986SOL    HW237387   4.308   6.506   2.696  1.3080 -0.3185  0.0019
10987SOL     OW37388   3.739   9.210   2.711  0.4270 -0.3260 -0.5646
10987SOL    HW137389   3.825   9.208   2.762  0.6342 -0.6856 -0.9182
10987SOL    HW237390   3.665   9.176   2.769  0.1027  2.0586  0.4846
10988SOL     OW37391   1.212   8.324   4.313  0.4202  0.0033 -0.0483
10988SOL    HW137392   1.302   8.364   4.298  1.0944 -0.5078  2.3624
10988SOL    HW237393   1.141   8.393   4.295  1.2851  0.4892 -1.6784
10989SOL     OW37394   1.168   9.486   3.015  0.5428 -0.2732  0.3368
10989SOL    HW137395   1.132   9.543   2.942 -0.7348 -1.3712  0.0818
10989SOL    HW237396   1.128   9.515   3.103  1.0951  0.2303  0.4188
10990SOL     OW37397   2.592   2.541   3.772  0.0892 -0.6869 -0.5862
10990SOL    HW137398   2.610   2.468   3.838  0.2077 -0.8897 -0.8446
10990SOL    HW237399   2.678   2.585   3.747 -0.0594 -0.0075  0.0924
10991SOL     OW37400   0.321   7.380   3.407  0.2316 -0.0704 -0.5088
10991SOL    HW137401   0.314   7.280   3.412  0.4425 -0.1370 -1.3697
10991SOL    HW237402   0.232   7.421   3.427  0.2622 -0.4072  0.3320
10992SOL     OW37403   9.462   8.506   2.605 -0.1629 -0.2323 -0.0374
10992SOL    HW137404   9.555   8.485   2.636 -0.0246 -0.9076 -0.8763
10992SOL    HW237405   9.410   8.546   2.680  0.3911 -1.1149  0.8254
10994SOL     OW37406   3.291   0.190   3.879  0.1312  0.1817 -0.4048
10994SOL    HW137407   3.307   0.113   3.817  3.2239  0.4803 -0.0432
10994SOL    HW237408   3.313   0.275   3.832  1.5999  0.4764  0.7789
10995SOL     OW37409   2.728   8.128   5.305 -0.1902  0.3043  0.0356
10995SOL    HW137410   2.729   8.064   5.229 -1.0484 -2.0309  1.9420
10995SOL    HW237411   2.821   8.138   5.341 -0.0925 -0.0688 -0.1108
10997SOL     OW37412   4.250   3.305   2.749 -0.2455 -0.0545 -0.3682
10997SOL    HW137413   4.278   3.254   2.667 -2.6163 -1.7137 -0.2093
10997SOL    HW237414   4.162   3.349   2.732 -0.4164  0.1700  1.0470
10998SOL     OW37415   0.069   7.469   0.108  0.2334  0.4383 -0.2408
10998SOL    HW137416   0.105   7.527   0.181  0.3325  1.2819 -0.9589
10998SOL    HW237417   0.133   7.394   0.091  0.0190 -0.0033  0.8121
10999SOL     OW37418   3.257   0.448   2.387  0.1856 -0.1422  0.0403
10999SOL    HW137419   3.275   0.405   2.299 -1.7363  1.0721 -0.9625
10999SOL    HW237420   3.306   0.398   2.459  0.9703 -1.7312 -1.5721
11000SOL     OW37421   2.418   5.361   3.067  0.0616  0.0412  0.1523
11000SOL    HW137422   2.494   5.301   3.044 -0.3755 -0.5083  0.1231
11000SOL    HW237423   2.335   5.306   3.078  0.1316  0.3321  2.4252
11001SOL     OW37424   7.978   9.594   1.321 -0.6824  0.1053 -0.3943
11001SOL    HW137425   8.023   9.667   1.269 -1.4296  3.1302  2.9928
11001SOL    HW237426   7.881   9.616   1.333 -0.5770 -0.5970  2.0524
11002SOL     OW37427   9.640   6.620   0.867 -0.0999  0.0961  0.2109
11002SOL    HW137428   9.667   6.710   0.833 -1.4283  0.3059 -0.3094
11002SOL    HW237429   9.596   6.630   0.956  0.3914 -0.1184  0.4811
11004SOL     OW37430   4.229   4.920   0.680  0.0740 -0.4477  0.4330
11004SOL    HW137431   4.182   4.954   0.761 -1.3594 -2.6699  0.6000
11004SOL    HW237432   4.195   4.968   0.599 -0.0119  0.3313  0.9323
11005SOL     OW37433   1.656   1.932   4.679  0.2500 -0.5444 -0.0746
11005SOL    HW137434   1.674   1.969   4.770 -0.3862 -0.7764  0.1459
11005SOL    HW237435   1.685   1.836   4.675 -0.2938 -0.7114  0.0649
11006SOL     OW37436   5.069   2.350   1.011 -0.2099  0.0627 -0.0581
11006SOL    HW137437   5.021   2.369   1.096  0.2284  0.6281  0.0673
11006SOL    HW237438   5.018   2.389   0.934 -0.9094 -0.9617 -0.1180
11007SOL     OW37439   3.414   8.504   3.429 -0.0557  0.1068 -0.1497
11007SOL    HW137440   3.480   8.579   3.415 -1.3603  1.1560 -0.8267
11007SOL    HW237441   3.416   8.444   3.350 -1.4649  1.3694 -1.1651
11008SOL     OW37442   0.883   4.023   4.178  0.0390 -0.0135  0.9050
11008SOL    HW137443   0.893   4.084   4.100 -0.4631  0.2177  1.0152
11008SOL    HW237444   0.864   3.930   4.146  0.8405 -0.1205  0.7372
11009SOL     OW37445   9.254   5.739   5.106  0.3259  0.0288 -0.2539
11009SOL    HW137446   9.289   5.740   5.012  1.6555  1.0125  0.2467
11009SOL    HW237447   9.195   5.818   5.120  0.5082  0.1395 -0.1141
11010SOL     OW37448   2.115   3.950   1.342  0.0708 -0.4661 -0.0165
11010SOL    HW137449   2.040   3.903   1.389  0.2177 -0.2117  0.4730
11010SOL    HW237450   2.151   4.023   1.400  0.7410 -0.6247 -0.2205
11011SOL     OW37451   3.325   5.826   3.834 -0.6029  0.2411 -0.3143
11011SOL    HW137452   3.420   5.836   3.806 -0.2480  0.7889  1.0216
11011SOL    HW237453   3.303   5.729   3.843 -0.5637  0.0823 -1.9133
11012SOL     OW37454   9.747   4.602   4.164  1.2349  0.5994 -0.5012
11012SOL    HW137455   9.822   4.633   4.222 -0.0263 -1.0580  2.1323
11012SOL    HW237456   9.702   4.523   4.207 -2.2825  1.8044 -1.7628
11013SOL     OW37457   3.766   3.113   0.353 -0.1835  0.2076  0.2964
11013SOL    HW137458   3.773   3.048   0.278 -1.5413 -0.2933  0.5892
11013SOL    HW237459   3.848   3.169   0.357  1.2950 -1.9149  0.4226
11015SOL     OW37460   5.970   0.717   1.180 -0.2874  0.3369  0.2645
11015SOL    HW137461   6.066   0.735   1.200 -0.2564 -1.1152  1.5368
11015SOL    HW237462   5.912   0.761   1.249 -0.3529 -1.6341  1.5061
11016SOL     OW37463   3.026   8.510   3.344  0.2872  0.4205 -0.2630
11016SOL    HW137464   3.054   8.423   3.303  0.6067 -0.1150  1.0634
11016SOL    HW237465   3.088   8.582   3.314  0.8879 -0.0835 -0.2412
11017SOL     OW37466   2.159   0.522   3.206  0.2266  0.7181 -0.0642
11017SOL    HW137467   2.067   0.562   3.203  0.5952  1.8938  3.0838
11017SOL    HW237468   2.153   0.428   3.239  0.2279  1.0613  0.9201
11019SOL     OW37469   1.324   8.786   5.009 -0.1863  0.4026 -0.1243
11019SOL    HW137470   1.305   8.717   4.939  2.0936 -1.2034  0.7709
11019SOL    HW237471   1.407   8.836   4.984  1.0491 -0.6621  1.7410
11020SOL     OW37472   2.646   1.747   3.065  0.4828  0.4691  0.5400
11020SOL    HW137473   2.628   1.790   2.977  1.0653 -1.0987 -0.3649
11020SOL    HW237474   2.579   1.674   3.082  1.2081 -0.1634  0.7414
11021SOL     OW37475   3.673   6.809   0.374  0.3045 -0.0108  0.1748
11021SOL    HW137476   3.672   6.857   0.286 -0.5983 -0.2537  0.0430
11021SOL    HW237477   3.751   6.748   0.378  1.0381  0.9125  0.0338
11022SOL     OW37478   5.988   7.772   3.497  0.0647 -0.3751 -0.2737
11022SOL    HW137479   6.017   7.725   3.413  0.8389  1.0048 -0.7825
11022SOL    HW237480   5.990   7.871   3.483 -1.3670 -0.1648  0.8677
11023SOL     OW37481   1.743   2.301   2.478 -0.4036  0.2114  0.6018
11023SOL    HW137482   1.796   2.335   2.400 -1.9376  2.6588  0.5856
11023SOL    HW237483   1.801   2.300   2.559  0.0722  1.5634  0.2900
11024SOL     OW37484   5.708   1.366   1.873  0.1772 -0.1686  0.1701
11024SOL    HW137485   5.661   1.280   1.892  0.2451  0.1270  1.7956
11024SOL    HW237486   5.800   1.363   1.913 -0.8609  1.7196  2.8737
11026SOL     OW37487   8.521   0.457   0.613 -0.1953  0.1593  0.0298
11026SOL    HW137488   8.558   0.445   0.705 -1.2050  0.0385  0.4312
11026SOL    HW237489   8.442   0.518   0.617 -0.3308  0.0395 -0.7385
11027SOL     OW37490   9.810   1.941   0.845  0.1226 -0.2537  0.2460
11027SOL    HW137491   9.818   1.872   0.773 -2.6710  0.3973 -0.7388
11027SOL    HW237492   9.713   1.953   0.869  0.7656  1.7196  1.9785
11028SOL     OW37493   2.052   6.125   3.346  0.2382 -0.0560 -0.2683
11028SOL    HW137494   2.069   6.144   3.443 -1.7885 -1.0664  0.3249
11028SOL    HW237495   1.959   6.155   3.322 -0.1662 -2.0243 -1.2622
11029SOL     OW37496   2.546   5.933   0.238 -0.1556 -0.5344 -0.4763
11029SOL    HW137497   2.631   5.986   0.247  0.2873 -1.3687  0.2607
11029SOL    HW237498   2.562   5.839   0.267 -1.2102 -0.8255 -0.8209
11030SOL     OW37499   5.974   0.667   2.912 -0.0755 -0.3793  0.1714
11030SOL    HW137500   5.948   0.675   2.816 -0.9542  0.3154  0.4532
11030SOL    HW237501   6.042   0.595   2.923 -1.9520 -2.3087 -0.5869
11031SOL     OW37502   1.334   5.987   2.585  0.2855 -0.1233 -0.1970
11031SOL    HW137503   1.287   5.948   2.664  0.2675  0.5573  0.1391
11031SOL    HW237504   1.267   6.009   2.514  0.3331 -0.9752 -0.5025
11032SOL     OW37505   5.306   7.403   4.032 -0.1425 -0.0122  0.7219
11032SOL    HW137506   5.383   7.457   4.067 -0.8729  1.2980  0.3373
11032SOL    HW237507   5.336   7.349   3.954  0.5454 -0.0143  0.9823
11033SOL     OW37508   0.776   2.613   1.398  0.0509  0.1543 -0.2899
11033SOL    HW137509   0.779   2.595   1.299 -0.1601  2.1834 -0.6912
11033SOL    HW237510   0.689   2.656   1.421  0.8184  1.3139  0.4863
11034SOL     OW37511   4.606   0.637   5.079  0.2607  0.5126 -0.4717
11034SOL    HW137512   4.529   0.575   5.098  1.8653 -1.8296 -1.3806
11034SOL    HW237513   4.573   0.731   5.076 -2.4960 -0.4057 -0.4093
11035SOL     OW37514   0.193   1.740   0.827  0.0169  0.2814  0.2384
11035SOL    HW137515   0.144   1.669   0.777 -0.4446  0.6850  0.1096
11035SOL    HW237516   0.281   1.704   0.860 -0.3869 -0.4612  0.5145
11036SOL     OW37517   9.820   0.081   2.299 -0.6443 -0.6264 -0.1508
11036SOL    HW137518   9.836  -0.018   2.297 -0.0643 -0.5330 -0.2358
11036SOL    HW237519   9.723   0.098   2.317 -0.8721 -1.2159 -0.7700
11037SOL     OW37520   4.269   2.301   3.069  0.2683  0.0126  0.6927
11037SOL    HW137521   4.183   2.287   3.019  0.8308 -0.7671 -0.0599
11037SOL    HW237522   4.291   2.219   3.122  1.5799 -0.5680 -0.7095
11039SOL     OW37523   1.730   4.360   1.312  0.4369 -0.4616 -0.1460
11039SOL    HW137524   1.791   4.374   1.234  1.0115 -2.4330 -0.0719
11039SOL    HW237525   1.725   4.444   1.366  1.1779  0.4639 -1.4833
11040SOL     OW37526   9.467   6.650   3.870 -0.6308  0.2282  0.4809
11040SOL    HW137527   9.451   6.575   3.934  0.4826  2.0373  2.9179
11040SOL    HW237528   9.548   6.630   3.815 -0.1656 -0.1866  1.3240
11042SOL     OW37529   0.325   9.115   3.305  0.9013 -0.4629  0.5696
11042SOL    HW137530   0.339   9.179   3.380  0.3496 -0.6195  0.8094
11042SOL    HW237531   0.383   9.141   3.228  1.7068 -0.4919  1.1626
11043SOL     OW37532   3.026   2.083   0.687 -0.2520 -0.4193  0.6912
11043SOL    HW137533   3.042   2.138   0.605  1.5351  0.4487  1.5864
11043SOL    HW237534   2.928   2.083   0.709 -0.4845  1.0215 -0.2714
11044SOL     OW37535   1.341   0.691   3.211  0.1184  0.1590 -0.1871
11044SOL    HW137536   1.298   0.778   3.184 -0.2438  0.2440  0.6427
11044SOL    HW237537   1.371   0.698   3.306  0.5462 -0.4550 -0.2801
11045SOL     OW37538   4.821   1.943   2.713 -0.3190  0.3115 -0.3657
11045SOL    HW137539   4.907   1.947   2.765 -0.4373  0.7345 -0.1996
11045SOL    HW237540   4.784   1.850   2.718  0.1626  0.1099 -0.4935
11047SOL     OW37541   1.440   6.629   0.505 -0.6072  0.4150  0.4693
11047SOL    HW137542   1.359   6.592   0.551 -0.1625  2.1133  2.7018
11047SOL    HW237543   1.516   6.565   0.515 -1.2853 -0.5621 -0.4694
11048SOL     OW37544   4.681   2.907   3.867  0.0907 -0.1182  0.2573
11048SOL    HW137545   4.672   2.818   3.823 -4.0291  0.3643 -0.0732
11048SOL    HW237546   4.663   2.980   3.801 -1.8747  0.7298  1.6433
11049SOL     OW37547   8.262   3.653   2.010  0.8354 -0.4507 -0.3860
11049SOL    HW137548   8.235   3.744   1.980  0.6029 -0.1293  0.7708
11049SOL    HW237549   8.255   3.647   2.110  0.9191 -1.7058 -0.4429
11050SOL     OW37550   1.948   8.355   4.047  0.1601 -0.6491 -0.0987
11050SOL    HW137551   2.042   8.354   4.082  0.0809  1.0082  0.1824
11050SOL    HW237552   1.944   8.413   3.965 -0.5922 -0.8409 -0.2002
11051SOL     OW37553   4.346   5.173   0.294  0.0921 -0.0976  0.5529
11051SOL    HW137554   4.331   5.075   0.304 -0.6297 -0.1138 -0.6425
11051SOL    HW237555   4.344   5.216   0.385 -0.1875 -1.1030  1.0269
11057SOL     OW37556   8.676   8.041   1.831  0.4403  0.2661 -0.2974
11057SOL    HW137557   8.598   7.981   1.811 -0.2272  0.9884  0.1406
11057SOL    HW237558   8.666   8.126   1.779  1.1307  0.2052 -0.5291
11058SOL     OW37559   1.647   1.298   2.629 -0.4431 -0.5449 -0.0348
11058SOL    HW137560   1.690   1.218   2.670  2.6421  1.4319  0.7316
11058SOL    HW237561   1.625   1.364   2.700 -2.6523 -0.5160 -0.7083
11059SOL     OW37562   2.938   5.549   0.419 -0.2072  0.1669  0.1128
11059SOL    HW137563   2.863   5.483   0.423 -0.2234  0.1427 -0.5359
11059SOL    HW237564   2.920   5.624   0.483 -0.2525 -0.3844  0.7554
11060SOL     OW37565   2.558   6.685   5.211 -0.0960  0.1319  0.2111
11060SOL    HW137566   2.615   6.718   5.286  0.2926  0.2422 -0.1328
11060SOL    HW237567   2.537   6.760   5.149 -0.2208 -0.0081  0.0823
11061SOL     OW37568   9.520   7.127   3.439  0.5214 -0.4643  0.3289
11061SOL    HW137569   9.503   7.088   3.348 -0.5137 -0.9847  0.7460
11061SOL    HW237570   9.497   7.224   3.438 -0.1099 -0.6109  0.2034
11062SOL     OW37571   4.173   0.689   2.992 -0.4262 -0.2414  0.3681
11062SOL    HW137572   4.235   0.613   3.013 -1.5054 -0.6688  2.1215
11062SOL    HW237573   4.079   0.656   2.987 -0.6599  0.5783 -1.2936
11065SOL     OW37574   9.911   4.037   0.960  0.1079  0.0550  0.1028
11065SOL    HW137575  10.005   4.024   0.992  0.1737  1.6297  0.5684
11065SOL    HW237576   9.897   4.133   0.934 -2.0269  0.3419  2.1694
11066SOL     OW37577   1.804   7.668   2.826 -0.1544 -0.3248  0.0588
11066SOL    HW137578   1.876   7.676   2.895 -1.3647  0.0273  1.3035
11066SOL    HW237579   1.736   7.601   2.856 -0.0816 -1.0476 -1.3473
11067SOL     OW37580   2.341   1.790   3.419 -0.2626 -0.0304  0.2985
11067SOL    HW137581   2.384   1.842   3.345 -0.9056 -1.2590 -0.9488
11067SOL    HW237582   2.352   1.692   3.402 -1.7838 -0.3351  1.0106
11069SOL     OW37583   7.663   9.278   4.173 -0.9124 -0.2218 -0.3282
11069SOL    HW137584   7.666   9.178   4.173 -0.5825 -0.2127  0.0804
11069SOL    HW237585   7.569   9.308   4.156 -0.8910 -0.5902 -1.1402
11070SOL     OW37586   7.494   2.018   2.229  0.0819  0.0637 -0.0759
11070SOL    HW137587   7.438   1.977   2.157  0.2289  1.4087 -0.9688
11070SOL    HW237588   7.547   2.094   2.192  0.4611  0.5246  1.3603
11071SOL     OW37589   8.040   7.093   2.144 -0.0092  0.6127 -0.0778
11071SOL    HW137590   8.123   7.038   2.131  0.9978  2.1042 -0.0034
11071SOL    HW237591   7.964   7.032   2.171  0.8263 -0.8740 -0.9869
11072SOL     OW37592   0.786   7.922   5.087  0.3050  0.2298  0.1262
11072SOL    HW137593   0.802   7.930   4.989  0.0086  0.2091  0.0762
11072SOL    HW237594   0.698   7.877   5.103  1.1409 -1.3328  0.4039
11073SOL     OW37595   9.791   9.822   4.679 -0.5588  0.0969 -0.5225
11073SOL    HW137596   9.811   9.840   4.582  0.4738 -2.2005 -0.7611
11073SOL    HW237597   9.846   9.883   4.736  2.3981 -1.7051 -1.3258
11074SOL     OW37598   8.063   1.337   1.188  0.2194  0.0172 -0.2820
11074SOL    HW137599   7.970   1.302   1.181  0.2156 -0.0441  0.0687
11074SOL    HW237600   8.070   1.424   1.139 -0.9624  1.8497  2.6633
11075SOL     OW37601   1.332   9.550   3.415  0.0327  0.0995  0.0762
11075SOL    HW137602   1.399   9.530   3.343 -1.3111 -0.8038 -0.9515
11075SOL    HW237603   1.276   9.469   3.431  0.1441  0.3873  1.9726
11076SOL     OW37604   1.196   9.821   3.605  0.0670 -0.0604 -0.1385
11076SOL    HW137605   1.163   9.781   3.520  2.2221 -1.3147 -0.4333
11076SOL    HW237606   1.177   9.759   3.681  0.5386 -0.1827 -0.1167
11077SOL     OW37607   0.773   6.051   2.761 -0.6250 -0.5542 -0.1342
11077SOL    HW137608   0.742   6.120   2.825  2.6356 -0.1623  1.1127
11077SOL    HW237609   0.838   6.091   2.696 -0.3213 -1.9644 -0.7394
11079SOL     OW37610   9.757   1.742   0.105  0.5474 -0.0100  0.0928
11079SOL    HW137611   9.776   1.696   0.191 -0.9207  0.8025  0.8705
11079SOL    HW237612   9.789   1.837   0.110 -0.5085  0.3571  0.1667
11080SOL     OW37613   8.231   2.473   3.005 -0.4447 -0.1061  0.2813
11080SOL    HW137614   8.148   2.422   2.983  0.8934 -1.8180 -0.9742
11080SOL    HW237615   8.284   2.423   3.074  0.4818 -0.0186 -0.3559
11082SOL     OW37616   4.015   6.721   3.105  0.1674 -0.2773  0.8507
11082SOL    HW137617   4.048   6.760   3.019  1.3103  0.0876  1.4455
11082SOL    HW237618   3.925   6.681   3.090  0.0295  0.4329 -0.3436
11083SOL     OW37619   4.863   0.716   5.237 -0.6905  0.1737 -0.0641
11083SOL    HW137620   4.783   0.703   5.179 -1.7715  1.1101  1.1937
11083SOL    HW237621   4.863   0.649   5.311  0.2299 -0.4573 -0.6124
11084SOL     OW37622   9.036   6.703   4.051  0.5090 -0.1930 -0.5106
11084SOL    HW137623   9.031   6.797   4.018  0.4384 -0.1425 -0.3555
11084SOL    HW237624   9.093   6.698   4.132  0.3904 -0.2592 -0.4307
11085SOL     OW37625   4.490   9.055   1.289  0.2760  0.4834  0.1215
11085SOL    HW137626   4.554   9.041   1.213  1.1274 -1.0652  1.1120
11085SOL    HW237627   4.536   9.036   1.376 -0.9077  1.5204  0.9914
11086SOL     OW37628   3.104   1.754   2.009  0.3492  0.4565  0.3093
11086SOL    HW137629   3.088   1.849   1.982 -0.2965 -0.1411 -1.4385
11086SOL    HW237630   3.199   1.730   1.989 -0.0873  0.0594 -1.3216
11087SOL     OW37631   7.199   0.052   1.839  0.0974  0.1488  0.4972
11087SOL    HW137632   7.298   0.042   1.829  0.4956  2.7100  1.3167
11087SOL    HW237633   7.158   0.074   1.750 -0.0217 -2.7447 -0.1940
11088SOL     OW37634   8.520   5.133   3.228 -0.1316 -1.1813 -0.8643
11088SOL    HW137635   8.587   5.201   3.257 -0.1930 -1.5535  0.1544
11088SOL    HW237636   8.510   5.063   3.299 -1.8458 -0.9447 -0.8632
11089SOL     OW37637   8.488   0.631   4.345 -0.2753  0.0371  0.6024
11089SOL    HW137638   8.514   0.720   4.380 -1.1630  0.5125  0.0880
11089SOL    HW237639   8.534   0.614   4.258 -0.5345  0.2415  0.4227
11090SOL     OW37640   2.194   8.047   3.983  0.6629  0.1306 -0.0633
11090SOL    HW137641   2.179   8.030   4.081 -0.3611 -0.7170 -0.3556
11090SOL    HW237642   2.177   8.143   3.963 -0.3339  0.0559  0.3762
11091SOL     OW37643   0.002   8.340   0.066  0.1926  0.3369 -0.2004
11091SOL    HW137644   0.081   8.329   0.006 -0.5433 -1.5345 -0.8415
11091SOL    HW237645  -0.013   8.438   0.082  2.5217  0.7365 -0.1943
11092SOL     OW37646   0.558   7.979   0.144 -0.0174 -0.6252  0.0758
11092SOL    HW137647   0.539   8.073   0.174 -1.6165 -0.7765 -0.4514
11092SOL    HW237648   0.629   7.980   0.073 -0.0772  0.1862  0.0255
11094SOL     OW37649   3.941   3.913   2.528  0.4265 -0.1524  0.3621
11094SOL    HW137650   4.030   3.952   2.551  1.3552 -0.9205 -1.8306
11094SOL    HW237651   3.886   3.982   2.480  1.1181 -0.7170 -1.2665
11096SOL     OW37652   9.805   9.298   2.553 -0.5565  0.0900  0.0933
11096SOL    HW137653   9.800   9.293   2.453 -0.4562  0.7219  0.0542
11096SOL    HW237654   9.843   9.386   2.580 -0.9384  0.0704  0.7021
11097SOL     OW37655   1.836   9.972   0.789  0.0241 -0.1764  0.6392
11097SOL    HW137656   1.765  10.042   0.790 -0.4080 -0.5457 -1.9625
11097SOL    HW237657   1.794   9.882   0.796  0.3349 -0.3373  0.4460
11098SOL     OW37658   0.946   7.122   4.724  0.6832 -0.1749  0.4323
11098SOL    HW137659   0.849   7.142   4.705  0.8268 -0.1928 -0.3294
11098SOL    HW237660   0.957   7.101   4.821  0.4398  2.9688  1.1917
11100SOL     OW37661   0.028   2.429   0.973 -0.4523 -0.0237 -0.2677
11100SOL    HW137662   0.033   2.331   0.956  0.3328 -0.1852  0.9121
11100SOL    HW237663  -0.065   2.453   1.001 -0.7841 -0.3381 -1.0894
11102SOL     OW37664   8.561   8.291   2.741  0.1182 -0.4117  0.4326
11102SOL    HW137665   8.542   8.329   2.832  1.7410 -0.2629  0.7199
11102SOL    HW237666   8.475   8.263   2.698 -0.8308  1.1043  1.3086
11103SOL     OW37667   4.989   1.022   0.589  0.1278  0.8478 -1.1113
11103SOL    HW137668   4.894   1.040   0.614  0.1314  0.6094 -0.9288
11103SOL    HW237669   5.023   1.097   0.531  1.1973  3.2159  2.3711
11104SOL     OW37670   1.193   5.163   0.985  0.0002  0.3662 -0.5864
11104SOL    HW137671   1.193   5.150   1.084  0.5039 -1.0110 -0.7549
11104SOL    HW237672   1.101   5.189   0.955 -0.6194 -1.0455  0.0350
11105SOL     OW37673   3.134   3.261   2.183 -0.3283 -0.2345 -0.2844
11105SOL    HW137674   3.095   3.176   2.220  1.3969 -0.0560  2.0853
11105SOL    HW237675   3.233   3.259   2.194 -0.0747  1.2371 -2.0875
11106SOL     OW37676   9.610   4.759   1.655  0.3743  0.4504  0.2332
11106SOL    HW137677   9.667   4.707   1.592  1.2906 -0.1469  1.5129
11106SOL    HW237678   9.537   4.701   1.690 -1.2914  1.3365 -1.7184
11107SOL     OW37679   4.456   3.822   1.116 -0.7175  0.1006  0.9687
11107SOL    HW137680   4.373   3.818   1.172 -0.7625 -2.0820  0.8131
11107SOL    HW237681   4.525   3.878   1.162 -1.1035 -0.8413  2.7398
11108SOL     OW37682   4.296   5.234   3.486 -0.2489  0.4187 -0.3594
11108SOL    HW137683   4.255   5.294   3.555  0.4418  0.8557 -0.3275
11108SOL    HW237684   4.395   5.233   3.497 -0.3132 -1.3276  0.1178
11109SOL     OW37685   8.082   0.462   0.869  0.3710 -0.0241 -0.1234
11109SOL    HW137686   8.101   0.366   0.845  0.4654  0.0383 -0.2997
11109SOL    HW237687   8.142   0.522   0.816 -0.8337  0.2053 -1.2287
11110SOL     OW37688   4.282   8.555   0.234  0.2404  0.5005  0.6631
11110SOL    HW137689   4.232   8.596   0.158  0.0838  0.5981  0.8176
11110SOL    HW237690   4.249   8.594   0.320 -0.7354 -0.8046  0.8968
11111SOL     OW37691   4.443   9.542   3.534 -0.0685 -0.2212  0.4943
11111SOL    HW137692   4.414   9.466   3.476  1.3943  0.2312 -0.8457
11111SOL    HW237693   4.377   9.553   3.609 -1.7189 -1.1123 -0.7783
11112SOL     OW37694   1.609   8.768   4.597 -0.1375  0.4360  0.6758
11112SOL    HW137695   1.582   8.673   4.584 -0.4597  0.2986  2.2422
11112SOL    HW237696   1.699   8.783   4.555  0.6299 -0.9653  1.7609
11113SOL     OW37697   7.931   9.291   4.723 -0.0361 -0.0264  0.3866
11113SOL    HW137698   7.955   9.298   4.820 -1.2546  1.7534  0.5885
11113SOL    HW237699   8.010   9.317   4.668  0.6720 -1.0635  0.8893
11114SOL     OW37700   8.342   7.904   2.464  0.1786 -0.0688 -0.3115
11114SOL    HW137701   8.300   7.881   2.377  1.0993 -4.2987  0.2552
11114SOL    HW237702   8.273   7.941   2.526 -1.1941 -0.2790 -1.6864
11116SOL     OW37703   9.095   1.867   1.298 -0.0630  0.2682 -0.5669
11116SOL    HW137704   9.163   1.939   1.314 -0.0917 -0.0454  0.9881
11116SOL    HW237705   9.120   1.786   1.350 -1.2341 -0.1091 -0.5892
11117SOL     OW37706   0.447   2.019   4.356  0.2458 -0.3054 -0.6268
11117SOL    HW137707   0.494   2.105   4.334 -2.2313  1.1013 -0.6184
11117SOL    HW237708   0.418   1.974   4.271  0.3470 -0.4454 -0.5870
11118SOL     OW37709   9.858   1.211   3.887 -0.2584  0.7875  0.2281
11118SOL    HW137710   9.858   1.220   3.987  0.3975  0.5789  0.2527
11118SOL    HW237711   9.765   1.201   3.854 -0.4601  0.6179  0.8442
11119SOL     OW37712   8.312   6.570   1.605  0.5550 -0.1781 -0.2218
11119SOL    HW137713   8.388   6.506   1.610 -0.1701 -1.0359 -0.0689
11119SOL    HW237714   8.308   6.610   1.514  1.7474  0.5807  0.0408
11120SOL     OW37715   9.998   6.215   3.776 -0.4225  0.0994  0.4124
11120SOL    HW137716  10.047   6.289   3.729 -0.1189  0.1219  0.7610
11120SOL    HW237717   9.952   6.157   3.708  1.7865 -1.1318 -0.0916
11121SOL     OW37718   5.755   9.502   3.147  0.5218  0.2789  0.5435
11121SOL    HW137719   5.710   9.430   3.094 -0.0532  1.5855 -0.7924
11121SOL    HW237720   5.853   9.503   3.125  0.4598  0.1402  0.2567
11122SOL     OW37721   1.478   5.902   1.671 -0.4922 -0.1615  0.4110
11122SOL    HW137722   1.387   5.875   1.700 -0.7319  1.0553  0.8147
11122SOL    HW237723   1.532   5.928   1.751 -0.0273 -0.1658  0.1010
11123SOL     OW37724   4.943   4.916   0.633  0.2789  0.0690 -0.2776
11123SOL    HW137725   4.924   4.986   0.702  1.1466 -0.1240  0.1694
11123SOL    HW237726   4.920   4.952   0.543  0.4538  0.8328 -0.0255
11124SOL     OW37727   0.422   4.916   2.351 -0.1173 -0.4735 -0.3292
11124SOL    HW137728   0.340   4.878   2.394 -0.2385  0.4627  0.2907
11124SOL    HW237729   0.488   4.843   2.335  0.0943 -0.7896  1.8151
11125SOL     OW37730   4.645   2.083   0.114 -0.7009  0.1066  0.1284
11125SOL    HW137731   4.633   2.129   0.026  1.7452 -0.9663 -0.8329
11125SOL    HW237732   4.606   1.991   0.108  0.9723 -0.5841 -0.4299
11126SOL     OW37733   7.877   2.299   1.222  0.0922  0.3376 -0.2046
11126SOL    HW137734   7.965   2.316   1.267 -0.0761  0.2216  0.1711
11126SOL    HW237735   7.847   2.206   1.241  0.9914 -0.3927 -2.2444
11128SOL     OW37736   0.296   9.570   1.330  0.2820  0.9282  0.0039
11128SOL    HW137737   0.203   9.537   1.313  1.3908 -1.0665 -2.5524
11128SOL    HW237738   0.341   9.510   1.397  0.3609  0.7512 -0.2086
11130SOL     OW37739   9.020   7.313   4.439 -0.6175  0.1039 -0.1602
11130SOL    HW137740   9.103   7.263   4.410 -0.9940  0.6138 -2.1766
11130SOL    HW237741   9.024   7.406   4.404 -2.7607 -0.3196 -1.6251
11131SOL     OW37742   0.831   9.692   3.125  0.6508  0.6406  0.0818
11131SOL    HW137743   0.771   9.716   3.049  1.2358 -0.6924 -0.8166
11131SOL    HW237744   0.828   9.765   3.194 -0.3220  1.5918 -0.9419
11132SOL     OW37745   4.012   0.798   2.480  0.1413  0.1991 -0.1977
11132SOL    HW137746   3.914   0.800   2.459 -0.4948 -0.7327  2.3896
11132SOL    HW237747   4.027   0.743   2.563  2.8019  0.7850 -0.2376
11133SOL     OW37748   4.483   1.014   3.091 -0.0308 -0.2167  0.0606
11133SOL    HW137749   4.527   0.952   3.026  0.4420  2.3693 -2.2171
11133SOL    HW237750   4.397   1.048   3.051 -0.6149  0.0729  1.5490
11134SOL     OW37751   1.397   2.359   3.304  0.4674 -0.3809  0.1048
11134SOL    HW137752   1.376   2.370   3.207 -0.0328  0.3826  0.2913
11134SOL    HW237753   1.313   2.339   3.354  0.5324  0.3947  0.5374
11136SOL     OW37754   0.081   3.478   4.103 -0.7742  0.4009 -0.3773
11136SOL    HW137755   0.117   3.557   4.054 -0.5135  0.9432  0.6892
11136SOL    HW237756   0.004   3.506   4.161 -0.1175  0.0440  0.6802
11137SOL     OW37757   1.868   3.199   4.937 -0.1286  0.3845  0.1498
11137SOL    HW137758   1.774   3.168   4.926 -0.0578 -0.4897  1.7890
11137SOL    HW237759   1.869   3.289   4.981 -0.2154  0.8097 -0.7102
11138SOL     OW37760   8.861   4.895   3.117 -0.4496 -0.1734  0.5477
11138SOL    HW137761   8.769   4.865   3.143 -0.5335 -1.5715 -1.2411
11138SOL    HW237762   8.869   4.893   3.017  1.2683  0.7380  0.6543
11139SOL     OW37763   3.210   9.471   4.023  0.0786  0.9456 -0.1155
11139SOL    HW137764   3.204   9.563   3.985 -2.0230  0.4190 -1.1184
11139SOL    HW237765   3.300   9.433   4.002  0.1441  1.9195 -1.6871
11140SOL     OW37766   8.067   2.350   2.714  0.2309  0.2197 -0.6808
11140SOL    HW137767   8.102   2.287   2.783  1.6849  0.0645 -1.5360
11140SOL    HW237768   8.125   2.432   2.712  1.0596 -0.3966 -2.6962
11141SOL     OW37769   1.003   5.761   2.810  0.1698 -0.2181  0.2905
11141SOL    HW137770   0.972   5.721   2.723  1.0976 -1.0431  0.3251
11141SOL    HW237771   1.076   5.704   2.848  1.8664  1.7567  0.1230
11144SOL     OW37772   4.577   2.701   2.689  0.4983 -0.3148 -0.1556
11144SOL    HW137773   4.609   2.665   2.602  1.8412 -0.2787  0.3107
11144SOL    HW237774   4.483   2.734   2.679  0.0448 -1.8704 -1.1428
11145SOL     OW37775   1.290   3.431   4.367 -0.4358 -0.0366 -0.2017
11145SOL    HW137776   1.207   3.375   4.355 -0.4546  0.2289 -1.3478
11145SOL    HW237777   1.342   3.432   4.282  1.1265 -0.7816  0.7256
11146SOL     OW37778   7.994   1.805   0.737  0.2719 -0.2299 -0.2014
11146SOL    HW137779   7.996   1.785   0.639 -0.4920 -1.0479 -0.0505
11146SOL    HW237780   7.925   1.748   0.782  2.2541 -1.6109  1.2004
11147SOL     OW37781   1.483   2.417   2.424 -0.4728 -0.5676  0.4834
11147SOL    HW137782   1.522   2.505   2.397 -0.2886  0.1413  3.0090
11147SOL    HW237783   1.553   2.346   2.419 -0.1756 -0.2513  0.1555
11149SOL     OW37784   2.654   8.730   3.388  0.2523 -0.2962  0.0569
11149SOL    HW137785   2.649   8.738   3.288  1.7460 -0.8585 -0.0845
11149SOL    HW237786   2.588   8.791   3.430 -0.5091 -0.1733 -1.2867
11150SOL     OW37787   1.470   5.576   2.604  0.3333  0.2321  0.0589
11150SOL    HW137788   1.398   5.606   2.542  0.0102 -0.5930  0.0266
11150SOL    HW237789   1.433   5.507   2.667  0.7064  0.9157  1.0361
11151SOL     OW37790   1.570   1.889   2.189 -0.1481 -0.1361  0.1428
11151SOL    HW137791   1.645   1.822   2.189 -0.4331 -0.4579 -0.2062
11151SOL    HW237792   1.601   1.974   2.146 -0.1028 -0.4067 -0.3671
11153SOL     OW37793   3.835   3.361   1.010 -0.3066  0.0084 -0.0967
11153SOL    HW137794   3.836   3.273   0.962  0.6390  0.0210 -0.1201
11153SOL    HW237795   3.859   3.434   0.945 -1.0654  0.2808 -0.0722
11155SOL     OW37796   6.884   9.865   5.116 -0.1991 -0.3049 -0.0105
11155SOL    HW137797   6.965   9.910   5.078 -0.6611  0.1715 -0.4379
11155SOL    HW237798   6.911   9.779   5.159  0.3856 -0.6635 -1.0839
11156SOL     OW37799   5.454   8.010   1.841  0.2479  0.0471 -0.2623
11156SOL    HW137800   5.378   8.070   1.863  0.2208 -0.0541 -0.0850
11156SOL    HW237801   5.419   7.919   1.816  0.3338 -0.1204  0.2243
11157SOL     OW37802   8.672   6.313   4.753 -0.3419  0.5214 -0.2856
11157SOL    HW137803   8.574   6.312   4.732 -0.5077 -2.3033  0.4353
11157SOL    HW237804   8.685   6.326   4.852  0.0954  2.4505 -0.5684
11158SOL     OW37805   8.723   9.209   0.241  0.0422 -0.4234 -0.4523
11158SOL    HW137806   8.741   9.296   0.195  1.4173  0.3828  1.5135
11158SOL    HW237807   8.808   9.156   0.245 -0.4957 -1.2996 -0.4634
11159SOL     OW37808   9.329   8.461   3.815  0.4297 -0.5622 -0.3247
11159SOL    HW137809   9.343   8.527   3.889 -0.5136 -1.0443  0.3052
11159SOL    HW237810   9.235   8.425   3.820  0.8980 -1.8680 -0.7030
11160SOL     OW37811   3.009   5.657   3.846 -0.2820  0.2520  0.2143
11160SOL    HW137812   3.000   5.744   3.798 -0.8270  0.5654  0.8610
11160SOL    HW237813   2.980   5.669   3.941 -2.6562 -1.1780 -0.2712
11162SOL     OW37814   2.833   7.585   4.879  0.4184 -0.3966 -0.3675
11162SOL    HW137815   2.842   7.667   4.937  2.0302 -1.1992  0.5459
11162SOL    HW237816   2.744   7.587   4.833  0.0530  1.4090  0.3560
11163SOL     OW37817   1.146   3.525   5.001 -0.1677 -0.2402  0.4808
11163SOL    HW137818   1.226   3.513   5.060 -0.6693  0.1448  1.2478
11163SOL    HW237819   1.072   3.566   5.054  0.3094  2.8356 -1.1344
11164SOL     OW37820   7.907   3.959   5.017  0.5444 -0.0536  0.6811
11164SOL    HW137821   7.987   4.019   5.027 -0.7425  1.5146  1.7437
11164SOL    HW237822   7.851   3.992   4.941 -0.8042  0.8526  2.0464
11165SOL     OW37823   9.781   7.347   2.807  0.3229  0.3767 -0.5832
11165SOL    HW137824   9.711   7.338   2.878 -1.5896 -0.3050 -2.5014
11165SOL    HW237825   9.788   7.443   2.778 -0.7943  0.2257 -1.3527
11166SOL     OW37826   2.295   6.869   4.950  0.0310 -0.5439 -0.4212
11166SOL    HW137827   2.379   6.867   5.005 -0.1368  0.7948 -0.1058
11166SOL    HW237828   2.225   6.813   4.994  0.4414 -0.8592 -0.1661
11167SOL     OW37829   0.903   3.252   1.416 -0.2691  0.0877  0.1780
11167SOL    HW137830   0.965   3.210   1.350 -1.7298  1.0829 -1.8768
11167SOL    HW237831   0.820   3.197   1.423 -1.3768  1.5618 -1.0873
11168SOL     OW37832   3.397   5.101   3.449 -0.6513  0.2368  0.5381
11168SOL    HW137833   3.332   5.156   3.502 -0.1502  0.6019  0.7748
11168SOL    HW237834   3.347   5.045   3.383 -1.1884  0.7048  0.5474
11169SOL     OW37835   0.156   1.955   1.243 -0.2257  0.1242  0.2298
11169SOL    HW137836   0.157   1.968   1.144  1.3050  0.5201  0.2795
11169SOL    HW237837   0.227   2.012   1.285 -0.0509 -0.9575  1.4408
11170SOL     OW37838   6.169   9.270   3.476 -0.3101 -0.0111 -0.2060
11170SOL    HW137839   6.142   9.358   3.517 -0.4981 -0.0512 -0.2434
11170SOL    HW237840   6.208   9.285   3.386  1.7940  0.2340  0.7250
11171SOL     OW37841   2.462   1.888   0.743  0.2277 -0.1264  0.0560
11171SOL    HW137842   2.494   1.973   0.702  2.0467  0.4997  2.6331
11171SOL    HW237843   2.368   1.900   0.776  0.1776  0.6017 -0.3403
11173SOL     OW37844   3.145   9.359   4.483 -0.6016  0.3441 -0.1988
11173SOL    HW137845   3.127   9.274   4.433 -0.0739 -0.5766  1.1644
11173SOL    HW237846   3.099   9.356   4.571  0.8104  0.7558  0.5603
11174SOL     OW37847   1.625   0.361   3.931  0.2190 -0.4464  0.1309
11174SOL    HW137848   1.646   0.265   3.911 -0.1562 -0.4362 -0.3264
11174SOL    HW237849   1.689   0.396   3.999  1.5438 -0.4817 -1.0748
11175SOL     OW37850   0.615   6.636   1.963  0.2444 -0.0179 -0.4787
11175SOL    HW137851   0.597   6.548   1.917  2.3139 -0.2516 -0.8836
11175SOL    HW237852   0.531   6.691   1.963 -0.2463 -0.6866 -3.0910
11176SOL     OW37853   8.682   5.786   0.668  0.3252 -0.8643  0.3571
11176SOL    HW137854   8.688   5.838   0.754  0.4586 -0.1027 -0.1122
11176SOL    HW237855   8.714   5.693   0.684  0.8741 -0.5727  1.0178
11177SOL     OW37856   0.936   4.907   3.094 -0.5134  0.2147 -0.6217
11177SOL    HW137857   1.033   4.886   3.082 -0.5156  0.4069 -0.9908
11177SOL    HW237858   0.884   4.823   3.105 -0.4372  0.0627 -1.4184
11178SOL     OW37859   6.976   1.868   2.354  0.4080 -0.0883 -0.0880
11178SOL    HW137860   6.972   1.857   2.454 -1.4462  0.2137 -0.1149
11178SOL    HW237861   6.905   1.933   2.325  0.2494 -0.9760 -1.7150
11179SOL     OW37862   8.073   9.985   4.496 -0.3844 -0.2889  0.2597
11179SOL    HW137863   8.060   9.912   4.563  1.8138 -0.7227  0.2745
11179SOL    HW237864   8.103   9.946   4.409 -1.6807  0.3965 -0.5059
11180SOL     OW37865   7.601   9.535   3.904 -0.2992 -0.7104 -0.4517
11180SOL    HW137866   7.648   9.473   3.840 -0.5337  0.0537 -1.3729
11180SOL    HW237867   7.594   9.625   3.863 -1.6722 -0.5611  0.1110
11181SOL     OW37868   8.015   4.169   3.774 -0.0070  0.1316  1.6494
11181SOL    HW137869   7.954   4.100   3.814  0.5929 -1.4664 -0.1030
11181SOL    HW237870   8.097   4.177   3.831  0.7525 -1.9786  0.9187
11182SOL     OW37871   8.600   5.016   1.206  0.2769 -0.3392  0.5205
11182SOL    HW137872   8.671   5.087   1.204 -0.4961  0.4054 -2.8392
11182SOL    HW237873   8.641   4.929   1.232  2.1510  0.3545 -0.0187
11183SOL     OW37874   1.128   6.036   1.986  0.3633  0.3408  0.1354
11183SOL    HW137875   1.122   6.134   2.004  0.3537  0.4282 -0.3490
11183SOL    HW237876   1.203   5.997   2.040  3.0406  1.3502 -2.7414
11184SOL     OW37877   3.761   2.071   0.708  0.1064  0.1382 -0.1477
11184SOL    HW137878   3.696   2.008   0.667 -1.4080 -0.6044  3.1815
11184SOL    HW237879   3.849   2.025   0.721 -0.3765 -0.6523  0.3652
11185SOL     OW37880   8.049   4.331   3.351 -0.3223  0.3946  0.3309
11185SOL    HW137881   7.956   4.355   3.378 -0.8856 -0.6412 -0.6373
11185SOL    HW237882   8.103   4.305   3.432 -0.5518  2.0342  1.0203
11186SOL     OW37883   1.116   3.102   2.700 -0.2445  0.3875  0.0511
11186SOL    HW137884   1.078   3.019   2.660  0.9465 -0.7885  1.3019
11186SOL    HW237885   1.076   3.182   2.655 -2.8932 -0.8036  0.1770
11188SOL     OW37886   9.029   8.601   1.667 -0.2296  0.3872  0.5665
11188SOL    HW137887   9.002   8.593   1.763  0.9871  0.4184  0.9309
11188SOL    HW237888   9.059   8.695   1.649  2.3231 -0.3035  0.9477
11189SOL     OW37889   3.931   6.361   2.925 -0.0110  0.4130 -0.0198
11189SOL    HW137890   3.914   6.450   2.881  1.0550  1.4280  1.5670
11189SOL    HW237891   4.026   6.357   2.956 -0.0338 -1.3184 -0.1242
11190SOL     OW37892   1.517   0.018   4.736  0.3628 -0.1532 -0.0080
11190SOL    HW137893   1.550  -0.048   4.803 -1.1488 -0.6324  0.2892
11190SOL    HW237894   1.546  -0.010   4.644 -0.8610 -1.6353  0.0346
11191SOL     OW37895   0.968   3.019   3.338 -0.3521 -0.5781  0.0672
11191SOL    HW137896   1.018   3.050   3.258  0.3333  1.6656  1.3188
11191SOL    HW237897   0.887   2.968   3.309 -1.3199  2.0766 -2.1041
11192SOL     OW37898   9.842   6.350   4.938  0.5737 -0.0641 -0.3834
11192SOL    HW137899   9.769   6.281   4.936 -1.2347  1.7815 -0.3569
11192SOL    HW237900   9.875   6.359   5.032  0.4809 -0.5382 -0.2997
11193SOL     OW37901   6.402   7.442   4.508 -0.2188 -0.3573 -0.1458
11193SOL    HW137902   6.353   7.354   4.509 -0.9317  0.0459  0.7066
11193SOL    HW237903   6.359   7.505   4.573  0.3552  0.5946 -0.6804
11194SOL     OW37904   4.497   0.576   1.684 -0.0077 -0.6264 -0.1594
11194SOL    HW137905   4.562   0.613   1.750 -1.5261  0.5698  0.6963
11194SOL    HW237906   4.538   0.577   1.592  1.3588 -0.3850  0.4427
11195SOL     OW37907   4.951   8.379   4.129  0.3700 -0.5678  0.2047
11195SOL    HW137908   4.994   8.292   4.151 -0.6253 -0.9429  0.7288
11195SOL    HW237909   4.907   8.416   4.211 -3.9120 -2.2522 -1.2014
11196SOL     OW37910   6.453   0.582   4.490  0.0886  0.6036 -0.0022
11196SOL    HW137911   6.418   0.670   4.457 -1.7392  0.6272  1.8430
11196SOL    HW237912   6.548   0.593   4.520 -0.1623  2.0019  0.3238
11197SOL     OW37913   4.237   4.792   3.815 -0.3910 -0.3481  0.3335
11197SOL    HW137914   4.139   4.798   3.833 -0.0983  0.8535  1.6014
11197SOL    HW237915   4.258   4.841   3.730 -0.8040 -0.0388  0.4049
11198SOL     OW37916   0.870   3.624   2.736 -0.4851  0.3224  0.1123
11198SOL    HW137917   0.794   3.581   2.687  0.3048 -1.5890  0.5096
11198SOL    HW237918   0.842   3.644   2.830 -0.8727  0.6894 -0.0841
11199SOL     OW37919   0.654   2.003   1.263  0.3479  0.7455 -0.3071
11199SOL    HW137920   0.752   1.983   1.264 -0.1167 -1.5262  1.1591
11199SOL    HW237921   0.640   2.099   1.289  2.1094  0.8834  0.2018
11201SOL     OW37922   7.903   1.662   0.239 -0.2229  0.3041 -0.0075
11201SOL    HW137923   7.923   1.732   0.170 -0.7165  0.4355 -0.0209
11201SOL    HW237924   7.815   1.621   0.219 -0.4221  0.4290  0.6183
11202SOL     OW37925   8.978   3.150   2.776  0.1153 -0.0797  0.0510
11202SOL    HW137926   8.947   3.236   2.815 -0.5971 -0.0570 -0.5454
11202SOL    HW237927   8.901   3.086   2.771  1.1178 -1.5309  2.5480
11204SOL     OW37928   2.417   7.576   3.300 -0.0247 -0.0662  0.4604
11204SOL    HW137929   2.415   7.556   3.399  1.3579  0.3462  0.5899
11204SOL    HW237930   2.512   7.569   3.268 -0.4547 -0.0454 -0.8129
11205SOL     OW37931   1.859   4.107   3.256 -0.3087 -0.1569 -0.3690
11205SOL    HW137932   1.912   4.036   3.209  1.1249 -0.2052  1.2515
11205SOL    HW237933   1.881   4.196   3.217  1.8350 -0.0525  0.9597
11206SOL     OW37934   7.684   1.814   0.672  0.1045  0.0430 -0.3915
11206SOL    HW137935   7.700   1.912   0.678  0.6421 -0.0394 -0.4175
11206SOL    HW237936   7.672   1.788   0.576 -0.5015  0.1528 -0.3463
11207SOL     OW37937   9.950   0.818   1.920  0.1948  0.1735 -0.2273
11207SOL    HW137938   9.967   0.878   1.998 -0.6287 -2.4612  2.0598
11207SOL    HW237939  10.037   0.777   1.890  0.3693  0.4187 -0.0668
11208SOL     OW37940   3.661   6.303   1.626 -0.6261  0.4423 -0.0245
11208SOL    HW137941   3.682   6.399   1.646  0.1832  0.3554 -0.4168
11208SOL    HW237942   3.600   6.267   1.697 -1.5482  1.4521 -0.2913
11209SOL     OW37943   9.225   9.690   3.749 -0.1919  0.1424 -0.4734
11209SOL    HW137944   9.232   9.753   3.825 -1.1384 -0.5304  0.1826
11209SOL    HW237945   9.197   9.739   3.666 -0.0065  0.7253 -0.1859
11212SOL     OW37946   3.787   8.598   3.267  0.5808 -0.0961  0.3533
11212SOL    HW137947   3.811   8.690   3.238  0.8053 -0.1246  0.4476
11212SOL    HW237948   3.705   8.568   3.219  0.4582  0.1865  0.3876
11213SOL     OW37949   7.213   3.862   1.590  0.4918 -0.0777  0.0405
11213SOL    HW137950   7.244   3.767   1.597 -2.1528 -1.1203 -1.7378
11213SOL    HW237951   7.275   3.912   1.529  0.6771 -1.2265 -0.7373
11214SOL     OW37952   8.324   8.996   1.648  0.3791  0.3207  0.0308
11214SOL    HW137953   8.376   8.920   1.609  0.6763 -0.3576  1.7013
11214SOL    HW237954   8.282   9.050   1.575 -0.9795 -2.2624 -1.1404
11215SOL     OW37955   2.114   4.089   1.095 -0.2653 -0.2610  0.2441
11215SOL    HW137956   2.021   4.117   1.073  0.1838  2.7628  1.8815
11215SOL    HW237957   2.114   4.036   1.180 -0.2622  1.9666  1.6727
11216SOL     OW37958   9.638   0.831   4.187  0.1462  0.6945  0.6360
11216SOL    HW137959   9.580   0.774   4.245 -0.1544 -0.9010 -1.2082
11216SOL    HW237960   9.618   0.814   4.091  2.3130  1.5472 -0.0033
11217SOL     OW37961   0.231   7.241   4.903 -0.3542 -0.1500  0.4572
11217SOL    HW137962   0.284   7.167   4.862 -1.0021 -1.0863  1.2991
11217SOL    HW237963   0.226   7.318   4.839  3.8330  0.8343  1.1197
11219SOL     OW37964   3.348   7.487   2.972  0.2001 -0.3299  0.5293
11219SOL    HW137965   3.441   7.451   2.966  1.2301  2.1465  0.9276
11219SOL    HW237966   3.315   7.509   2.881  0.3638 -0.3315  0.4696
11220SOL     OW37967   8.743   9.786   3.761  0.3656  0.0411  0.0096
11220SOL    HW137968   8.759   9.691   3.787  2.4204  0.2751 -0.3469
11220SOL    HW237969   8.819   9.819   3.705 -1.3987  1.2143 -1.7589
11221SOL     OW37970   4.575   0.288   4.274 -0.1059  0.1786  0.4114
11221SOL    HW137971   4.505   0.233   4.228 -1.8181  2.6113  0.0020
11221SOL    HW237972   4.666   0.252   4.254 -1.1577 -2.1955 -0.2035
11224SOL     OW37973   2.378   0.881   2.551 -0.2305  0.6051  0.3766
11224SOL    HW137974   2.336   0.948   2.613 -0.0331  1.1984 -0.1216
11224SOL    HW237975   2.425   0.929   2.477  0.3838 -0.0782  0.3163
11225SOL     OW37976   0.255   8.188   5.277  0.2811  0.1312  0.1129
11225SOL    HW137977   0.276   8.283   5.257 -3.5826  1.3670  1.5665
11225SOL    HW237978   0.181   8.183   5.344 -0.5035 -3.8701 -0.9119
11226SOL     OW37979   1.945   4.367   4.660 -0.1767  0.0392  0.0406
11226SOL    HW137980   1.974   4.313   4.581 -0.3816  0.8117 -0.5694
11226SOL    HW237981   1.974   4.461   4.648 -1.3411  0.4392  0.2766
11228SOL     OW37982   8.611   1.057   1.179  0.1112  0.8997  0.6423
11228SOL    HW137983   8.609   0.974   1.122  1.5310  0.4359  1.2465
11228SOL    HW237984   8.521   1.071   1.219 -0.8020  0.9884 -1.3656
11230SOL     OW37985   9.543   8.472   0.097 -0.8680  0.5430 -0.3874
11230SOL    HW137986   9.560   8.389   0.044 -0.4849  1.0192 -1.0203
11230SOL    HW237987   9.629   8.507   0.134 -1.1354  0.2049  0.5656
11232SOL     OW37988   3.913   4.358   0.392  0.0984 -0.0274 -0.0420
11232SOL    HW137989   3.840   4.391   0.334 -0.6024 -1.2284  0.1309
11232SOL    HW237990   3.914   4.409   0.478 -1.7087 -1.1883  0.7061
11233SOL     OW37991   1.856   7.188   0.263 -0.0607 -0.1975  0.3508
11233SOL    HW137992   1.906   7.121   0.209  2.4579  0.8585  1.2740
11233SOL    HW237993   1.921   7.244   0.315 -2.2579  0.8304  2.0859
11234SOL     OW37994   4.934   0.752   2.773 -0.3309 -0.2404 -0.1806
11234SOL    HW137995   4.916   0.655   2.787 -1.0968 -0.0873 -0.1023
11234SOL    HW237996   4.869   0.789   2.707 -0.5861  0.4136  0.4383
11235SOL     OW37997   9.645   9.683   1.295  0.0166  0.4386  0.3244
11235SOL    HW137998   9.561   9.725   1.331 -0.6513 -1.2134  0.7661
11235SOL    HW237999   9.661   9.597   1.343  1.5060  0.3280 -0.3708
11236SOL     OW38000   1.267   3.264   0.869  0.1598 -0.1626 -0.7119
11236SOL    HW138001   1.226   3.173   0.877 -0.4696  0.0389 -1.6293
11236SOL    HW238002   1.316   3.272   0.782  1.9201 -0.2963  0.2350
11237SOL     OW38003   3.878   4.038   4.586  0.1896  0.3456  0.4402
11237SOL    HW138004   3.821   3.957   4.576 -0.2679  1.0112 -2.7490
11237SOL    HW238005   3.900   4.051   4.683  0.3185 -3.5598  1.0257
11238SOL     OW38006   0.366   9.204   0.842  0.1895  0.1640  0.3779
11238SOL    HW138007   0.397   9.284   0.894  1.6013 -0.2733  0.2430
11238SOL    HW238008   0.384   9.220   0.745 -1.2721  0.4507  0.1368
11239SOL     OW38009   8.567   6.732   4.939 -0.2490  0.3368  0.5992
11239SOL    HW138010   8.490   6.700   4.883  0.1773  0.3737 -0.0067
11239SOL    HW238011   8.595   6.659   5.001  0.0673 -0.1310 -0.0857
11240SOL     OW38012   3.946   0.486   4.416  0.2818  0.7590  0.4722
11240SOL    HW138013   3.911   0.579   4.425 -0.1371  0.7560 -1.0572
11240SOL    HW238014   4.032   0.487   4.366 -0.1374  0.2578 -0.2803
11242SOL     OW38015   0.531   3.706   1.840  0.2524 -0.5209  0.7688
11242SOL    HW138016   0.607   3.681   1.899 -0.7997 -1.2846  1.8299
11242SOL    HW238017   0.497   3.625   1.793 -1.1411 -0.5423  1.7868
11243SOL     OW38018   2.604   0.791   4.570 -0.3861  0.8892  0.1877
11243SOL    HW138019   2.575   0.791   4.474 -1.4855  1.0245  0.5079
11243SOL    HW238020   2.551   0.723   4.621  0.5609  0.4504  0.6000
11244SOL     OW38021   5.837   4.529   0.132 -0.0687  0.0099 -0.3116
11244SOL    HW138022   5.753   4.479   0.152 -0.5309  0.7607 -0.3344
11244SOL    HW238023   5.897   4.526   0.212 -0.6604  0.5220  0.1622
11245SOL     OW38024   5.753   9.844   4.371  0.1629 -0.3635 -0.1233
11245SOL    HW138025   5.780   9.925   4.319  0.3848  0.0293  0.5951
11245SOL    HW238026   5.653   9.843   4.381  0.3564  1.6099  2.6882
11246SOL     OW38027   8.492   6.992   4.467 -0.5428 -0.5686 -0.1163
11246SOL    HW138028   8.569   7.014   4.406 -0.7575  1.1699  0.2093
11246SOL    HW238029   8.526   6.941   4.546  0.6465  1.9515  1.0553
11247SOL     OW38030   1.493   5.801   0.864 -0.3147  0.1503  0.2664
11247SOL    HW138031   1.569   5.847   0.911 -1.4089  3.8606 -1.4466
11247SOL    HW238032   1.407   5.841   0.892 -1.2738 -0.3920 -1.8042
11248SOL     OW38033   2.858   9.827   3.149 -0.2230  0.4468  0.5985
11248SOL    HW138034   2.866   9.907   3.089 -2.9562 -0.0779 -0.5084
11248SOL    HW238035   2.921   9.756   3.119  0.3993  1.2180  0.0535
11250SOL     OW38036   8.714   7.481   1.871 -0.0956  0.5504 -0.2218
11250SOL    HW138037   8.697   7.391   1.911  1.3498  0.4073  0.1041
11250SOL    HW238038   8.688   7.552   1.937 -0.0972  0.3445 -0.0008
11251SOL     OW38039   9.839   0.165   1.964  0.7443  0.0199 -0.5471
11251SOL    HW138040   9.802   0.245   2.010 -0.1580 -1.2993  1.0440
11251SOL    HW238041   9.917   0.193   1.907 -0.0610  2.1374 -0.6672
11252SOL     OW38042   4.223   9.720   1.477  0.0869 -0.5038 -0.5999
11252SOL    HW138043   4.264   9.796   1.527 -1.4799  0.8474 -1.3237
11252SOL    HW238044   4.221   9.639   1.535  1.5858  0.0533  0.2585
11254SOL     OW38045   5.626   9.759   1.382  0.1442  0.1437 -0.3506
11254SOL    HW138046   5.586   9.697   1.315 -1.0619  0.1596  0.3381
11254SOL    HW238047   5.587   9.850   1.371  1.3862  0.6127 -0.8954
11256SOL     OW38048   8.847   5.799   1.682  0.0354 -0.0104 -0.4067
11256SOL    HW138049   8.923   5.733   1.687 -0.5092 -0.7874 -1.9628
11256SOL    HW238050   8.878   5.883   1.638  0.0640 -0.2360 -0.8206
11257SOL     OW38051   1.824   4.712   3.602  0.2731  0.1881 -0.2087
11257SOL    HW138052   1.765   4.741   3.678 -0.0320 -1.5167  0.2299
11257SOL    HW238053   1.767   4.690   3.523  0.4296  0.0364 -0.2782
11258SOL     OW38054   0.552   1.368   0.551 -0.2654  0.2248 -0.1668
11258SOL    HW138055   0.542   1.429   0.629  0.9756  1.3991 -0.8964
11258SOL    HW238056   0.469   1.370   0.496 -0.5353  0.6208  0.2526
11259SOL     OW38057   0.134   1.247   1.237 -0.6952 -0.1475  0.1062
11259SOL    HW138058   0.169   1.329   1.191  1.4138 -0.5595  0.9185
11259SOL    HW238059   0.161   1.166   1.186  0.1199 -0.5113  1.1149
11261SOL     OW38060   2.838   9.855   2.815 -0.4165  0.3478  0.0477
11261SOL    HW138061   2.860   9.923   2.885  1.4647  0.6872 -0.8544
11261SOL    HW238062   2.750   9.876   2.774 -0.3070  1.6663  0.4765
11262SOL     OW38063   3.639   8.359   2.007 -0.6511 -0.3090  0.1027
11262SOL    HW138064   3.709   8.342   1.938 -0.3555  1.6172 -0.0818
11262SOL    HW238065   3.680   8.407   2.085 -2.2319  3.1198 -1.0800
11263SOL     OW38066   3.521   7.752   4.547  0.4155  0.2195 -0.2678
11263SOL    HW138067   3.568   7.665   4.561  0.5280  0.2909 -0.1988
11263SOL    HW238068   3.487   7.756   4.453 -2.3388 -1.2109  0.6109
11265SOL     OW38069   9.602   6.851   1.980  0.2136  0.0299 -0.2282
11265SOL    HW138070   9.517   6.865   1.929 -0.1315 -0.5038  0.2056
11265SOL    HW238071   9.621   6.753   1.988  1.4004  0.1511 -1.2017
11267SOL     OW38072   2.506   9.363   4.476 -0.1885 -0.0343 -0.3767
11267SOL    HW138073   2.519   9.289   4.410 -0.1850  0.0994 -0.5252
11267SOL    HW238074   2.409   9.369   4.501 -0.0225 -0.8709  0.5435
11268SOL     OW38075   9.934   9.045   1.525 -0.1588 -0.1035 -0.1593
11268SOL    HW138076   9.956   8.952   1.496 -1.1572 -0.8385  1.3529
11268SOL    HW238077   9.836   9.060   1.516 -0.2465  0.2026  1.2346
11270SOL     OW38078   7.903   4.490   4.548 -0.0470  0.0303  0.2643
11270SOL    HW138079   7.848   4.523   4.624  1.4164 -0.1008  1.4115
11270SOL    HW238080   7.942   4.568   4.499  0.6937  0.0881  0.9308
11271SOL     OW38081   0.471   6.435   2.374 -0.2065 -0.1433  0.1237
11271SOL    HW138082   0.425   6.521   2.352 -0.0116 -0.2751 -0.8234
11271SOL    HW238083   0.414   6.358   2.344 -0.4555 -0.3436  1.1177
11272SOL     OW38084   1.233   4.520   1.899  0.0550  0.0494  0.2330
11272SOL    HW138085   1.180   4.582   1.957 -0.3220  1.2922 -1.4073
11272SOL    HW238086   1.214   4.425   1.925 -0.4119  0.5758  1.8647
11273SOL     OW38087   9.460   9.559   3.791  0.2057 -0.0321  0.0908
11273SOL    HW138088   9.381   9.612   3.759  2.1739  1.9338 -1.6703
11273SOL    HW238089   9.495   9.503   3.716  1.4689  0.3327  0.4076
11274SOL     OW38090   8.827   2.075   4.790  0.6079  0.4097  0.3956
11274SOL    HW138091   8.925   2.068   4.772  0.3579 -0.4291 -0.6954
11274SOL    HW238092   8.780   2.108   4.708 -0.6093 -3.8855 -0.7753
11276SOL     OW38093   8.712   3.678   3.532 -0.0127 -0.1627  0.1185
11276SOL    HW138094   8.731   3.583   3.506 -1.7986 -0.7887  1.0601
11276SOL    HW238095   8.727   3.689   3.630  0.3544  0.5814 -0.0189
11277SOL     OW38096   3.452   4.018   4.744  0.3393  0.0768 -0.4805
11277SOL    HW138097   3.427   3.994   4.650 -1.7815 -2.7867  0.7416
11277SOL    HW238098   3.512   3.947   4.780  0.0844  0.4917  0.7577
11278SOL     OW38099   7.703   9.062   2.927 -0.3811  0.2945  0.0715
11278SOL    HW138100   7.761   9.124   2.980 -0.7258  1.2213 -0.6311
11278SOL    HW238101   7.714   9.081   2.829  1.9545 -2.8801 -0.3463
11279SOL     OW38102   1.940   2.554   5.171  0.0578  0.3884 -0.2850
11279SOL    HW138103   1.952   2.631   5.234 -1.1990  0.1307  0.2835
11279SOL    HW238104   1.998   2.478   5.201  0.0377  0.5342  0.1257
11281SOL     OW38105   7.626   0.948   3.946 -0.2577 -0.2351 -0.1762
11281SOL    HW138106   7.588   0.969   4.036 -1.2505  0.2083 -0.6876
11281SOL    HW238107   7.590   0.860   3.915 -1.1074  0.3248 -0.7910
11283SOL     OW38108   4.822   6.630   2.622 -0.2482  0.0652  0.7785
11283SOL    HW138109   4.761   6.553   2.606  0.7747 -0.5834 -0.0855
11283SOL    HW238110   4.881   6.644   2.542  1.0781  0.3439  1.7738
11284SOL     OW38111   9.311   0.864   1.247 -0.4198  0.2523 -0.2247
11284SOL    HW138112   9.355   0.787   1.199  0.5531  0.7774 -0.1850
11284SOL    HW238113   9.363   0.885   1.329  0.1395  1.8761 -0.9795
11286SOL     OW38114   9.142   3.918   1.265  0.1859  0.4197  0.1374
11286SOL    HW138115   9.241   3.929   1.257  0.2117  0.4110  0.4415
11286SOL    HW238116   9.121   3.821   1.282  0.1709  0.5308  0.7522
11288SOL     OW38117   2.662   9.961   1.425 -0.7542  0.7709  0.1685
11288SOL    HW138118   2.697  10.048   1.460  1.5510  0.2273 -0.7130
11288SOL    HW238119   2.739   9.904   1.394 -1.8718 -2.9461  3.7735
11289SOL     OW38120   0.513   2.802   2.388  0.4505 -0.0247 -0.1302
11289SOL    HW138121   0.612   2.789   2.382  0.2932 -1.2220 -0.1930
11289SOL    HW238122   0.493   2.900   2.388  1.8890  0.3425  3.9702
11290SOL     OW38123   1.198   5.203   3.258 -0.0837 -0.3188 -0.0183
11290SOL    HW138124   1.224   5.125   3.201  0.1231 -0.1749 -0.1245
11290SOL    HW238125   1.265   5.214   3.332  0.1065 -0.0083 -0.2337
11292SOL     OW38126   9.272   6.020   3.535 -0.1666 -0.1983 -0.8237
11292SOL    HW138127   9.287   5.951   3.606 -0.5576 -0.0847 -0.6262
11292SOL    HW238128   9.287   6.111   3.575 -0.7837 -0.1141 -0.7781
11293SOL     OW38129   9.059   0.008   1.504 -0.7275 -0.3949 -0.4808
11293SOL    HW138130   9.042   0.096   1.459 -0.2064 -1.0661 -2.0218
11293SOL    HW238131   9.117   0.022   1.584  1.1306  0.3966 -1.9400
11294SOL     OW38132   4.273   3.975   3.375  0.2339 -0.3957 -0.2553
11294SOL    HW138133   4.231   3.885   3.365  2.0063 -1.2795 -0.0123
11294SOL    HW238134   4.318   3.980   3.464 -1.1871  1.3223  0.4036
11295SOL     OW38135   5.176   5.937   2.511 -0.2901 -0.7349 -0.0416
11295SOL    HW138136   5.105   5.870   2.489 -2.8795  1.8872 -0.0117
11295SOL    HW238137   5.190   5.998   2.432  2.0057 -1.2438 -0.0720
11296SOL     OW38138   5.332   8.938   4.079 -0.6098  0.4222 -0.3017
11296SOL    HW138139   5.358   8.946   4.176 -0.8658  0.5637 -0.2429
11296SOL    HW238140   5.287   8.850   4.064 -2.5980  1.3135  0.1930
11299SOL     OW38141   5.142   8.473   3.750 -0.0537 -0.1771  0.1771
11299SOL    HW138142   5.082   8.394   3.761 -0.8929  0.5394  0.7745
11299SOL    HW238143   5.192   8.465   3.663  1.3442 -2.3276  1.1215
11300SOL     OW38144   5.538   7.686   4.851 -0.0489  0.0689  0.3272
11300SOL    HW138145   5.601   7.760   4.876 -0.7406  0.4967  0.8137
11300SOL    HW238146   5.583   7.598   4.868  1.2447  0.3499 -1.4458
11301SOL     OW38147   4.508   4.164   2.011  0.5058  0.1919  0.0025
11301SOL    HW138148   4.538   4.100   1.940 -0.1274 -1.4128  1.1517
11301SOL    HW238149   4.410   4.179   2.003  0.5545  0.5520  0.0972
11302SOL     OW38150   7.869   3.902   1.873 -0.2373  0.0315 -0.1376
11302SOL    HW138151   7.868   4.002   1.866  0.5569  0.1481  1.2317
11302SOL    HW238152   7.929   3.865   1.802  1.1174  0.6617  0.6660
11303SOL     OW38153   7.825   3.310   4.405  0.5244 -0.0060 -0.6331
11303SOL    HW138154   7.825   3.263   4.316  0.2816  0.5844 -0.9430
11303SOL    HW238155   7.851   3.244   4.476 -0.4860 -0.7809 -0.9704
11304SOL     OW38156   4.874   3.614   5.230  0.1310 -0.2711 -0.2568
11304SOL    HW138157   4.929   3.531   5.218  1.8951  1.0246 -1.5282
11304SOL    HW238158   4.814   3.626   5.151  1.5980  0.8696 -1.2402
11305SOL     OW38159   9.896   9.290   5.150 -0.3093  0.3813  0.3280
11305SOL    HW138160   9.939   9.366   5.100 -0.9483  0.3974 -0.2069
11305SOL    HW238161   9.861   9.222   5.085 -2.3915  1.0760  0.6579
11308SOL     OW38162   9.827   2.431   2.919  0.3198 -0.2740 -0.1407
11308SOL    HW138163   9.920   2.394   2.909  0.1151 -0.2011 -2.6258
11308SOL    HW238164   9.794   2.463   2.830 -1.6837  0.7083  0.9199
11309SOL     OW38165   7.901   0.884   1.110  0.1488 -0.1121 -0.0075
11309SOL    HW138166   7.902   0.922   1.018 -0.6842 -0.9161 -0.3604
11309SOL    HW238167   7.852   0.946   1.171 -0.0159  0.0326 -0.2842
11310SOL     OW38168   1.785   1.235   1.920  0.1224  0.1154 -0.4692
11310SOL    HW138169   1.791   1.324   1.875  0.8482  1.6066  2.3960
11310SOL    HW238170   1.877   1.204   1.944 -0.3389  0.4203  1.8373
11311SOL     OW38171   9.246   5.244   4.255  0.5217  0.3118  0.6918
11311SOL    HW138172   9.309   5.199   4.318  0.6681 -0.8794 -0.3037
11311SOL    HW238173   9.282   5.238   4.162 -0.4004  0.8146  0.3002
11312SOL     OW38174   3.418   0.048   4.535 -1.0872 -0.4279 -0.2279
11312SOL    HW138175   3.392  -0.047   4.517 -0.0282 -0.2894 -2.7351
11312SOL    HW238176   3.459   0.054   4.626 -0.3155 -2.5573 -0.4004
11313SOL     OW38177   8.203   9.132   1.860  0.1902  0.3385 -0.1361
11313SOL    HW138178   8.281   9.164   1.914  0.8177  0.4683 -1.1146
11313SOL    HW238179   8.234   9.060   1.797 -0.1327  1.5605 -1.7142
11314SOL     OW38180   2.403   6.175   4.333 -0.3410 -0.3491  0.0623
11314SOL    HW138181   2.465   6.128   4.269  1.0590 -0.7585  1.6747
11314SOL    HW238182   2.444   6.261   4.361 -0.1057 -1.0055  1.7850
11315SOL     OW38183   0.827   5.033   3.581 -0.7930 -0.4873  0.1051
11315SOL    HW138184   0.881   5.032   3.665  1.9114 -2.8440 -1.5828
11315SOL    HW238185   0.821   5.126   3.546  0.5012  0.0920  1.3970
11316SOL     OW38186   2.334   7.046   2.373  0.1842  0.2660  0.0736
11316SOL    HW138187   2.421   7.057   2.325  0.6751 -0.8957  0.6999
11316SOL    HW238188   2.345   7.072   2.469  0.0904 -0.8026  0.3801
11317SOL     OW38189   3.387   2.630   4.905  0.0512 -0.0815  0.5076
11317SOL    HW138190   3.328   2.649   4.827 -0.2883  2.4818  1.3610
11317SOL    HW238191   3.483   2.645   4.879  0.2332 -2.4406 -0.3320
11318SOL     OW38192   0.785   4.657   3.748 -0.4736  0.6377  0.2370
11318SOL    HW138193   0.695   4.700   3.760 -1.2087 -0.7276 -0.3437
11318SOL    HW238194   0.787   4.570   3.797  0.5039  0.6134  0.1568
11319SOL     OW38195   4.888   8.737   2.793 -0.3661 -0.3170 -0.7447
11319SOL    HW138196   4.849   8.692   2.873 -2.3393 -0.3753 -1.7065
11319SOL    HW238197   4.964   8.682   2.758 -0.3021 -0.9377  0.3450
11320SOL     OW38198   3.860   0.223   1.134 -0.1000  0.4663 -0.0687
11320SOL    HW138199   3.845   0.205   1.037 -0.1822  0.1221  0.0060
11320SOL    HW238200   3.786   0.183   1.187 -0.7068  1.7333  0.0503
11321SOL     OW38201   6.851   0.933   3.871 -0.3533  0.7367  0.6305
11321SOL    HW138202   6.836   0.858   3.807  1.1250 -0.2428  1.4157
11321SOL    HW238203   6.819   1.018   3.830 -0.1308 -0.0008 -1.1175
11322SOL     OW38204   6.851   4.659   0.235  0.6649 -0.2047  0.1421
11322SOL    HW138205   6.767   4.632   0.281  0.0189  0.8270 -0.4153
11322SOL    HW238206   6.862   4.759   0.241  1.6641 -0.2941 -0.0875
11323SOL     OW38207   1.542   8.122   4.342 -0.3958 -0.8720  0.5569
11323SOL    HW138208   1.577   8.094   4.253 -1.9295 -1.6392  0.1745
11323SOL    HW238209   1.474   8.056   4.373 -1.3271  0.4590  1.3839
11325SOL     OW38210   7.850   0.277   0.893 -0.5078  0.2687 -0.2002
11325SOL    HW138211   7.839   0.374   0.917 -4.2500  0.1459 -1.1333
11325SOL    HW238212   7.901   0.230   0.965 -1.3578  2.2959  1.7886
11326SOL     OW38213   3.206   4.886   1.848  0.7210  0.1673  0.3688
11326SOL    HW138214   3.242   4.934   1.768  0.5991 -1.2269 -0.5368
11326SOL    HW238215   3.269   4.897   1.925  0.7468  1.6758  0.1469
11327SOL     OW38216   0.517   6.458   4.592 -0.6422  0.0231 -0.4258
11327SOL    HW138217   0.482   6.377   4.546 -2.7941 -0.2821  1.6431
11327SOL    HW238218   0.441   6.517   4.619  0.7748  1.8381 -0.2597
11329SOL     OW38219   4.756   2.200   2.616  0.3829  0.3014 -0.2424
11329SOL    HW138220   4.657   2.193   2.608  0.1636  2.5678  0.1539
11329SOL    HW238221   4.792   2.120   2.664 -1.3575 -0.1217  0.3588
11330SOL     OW38222   2.718   2.927   5.109  0.7355  0.0872 -0.0672
11330SOL    HW138223   2.815   2.912   5.131  1.2068  1.4257 -1.2163
11330SOL    HW238224   2.695   3.023   5.124 -0.8070 -0.5277  1.6416
11331SOL     OW38225   7.042   2.871   0.580  0.4917 -0.0203  0.3889
11331SOL    HW138226   7.093   2.947   0.540  0.5258 -0.5903 -0.6632
11331SOL    HW238227   7.085   2.785   0.555 -0.3695 -0.4596  0.3949
11332SOL     OW38228   3.075   4.322   2.767 -0.3940  0.1251 -0.6472
11332SOL    HW138229   2.998   4.344   2.827 -0.3069  1.5327 -1.0389
11332SOL    HW238230   3.103   4.404   2.718  1.3175 -0.3957 -0.5613
11333SOL     OW38231   3.752   2.782   0.356 -0.3464  0.0381 -0.2526
11333SOL    HW138232   3.755   2.870   0.404  0.5082  0.6868 -1.4685
11333SOL    HW238233   3.719   2.712   0.418  1.1102  0.7947  1.4311
11335SOL     OW38234   3.759   5.831   4.874 -0.1212  0.0336 -0.0757
11335SOL    HW138235   3.688   5.872   4.818  0.9263  0.1346 -1.3480
11335SOL    HW238236   3.737   5.844   4.971 -1.6023  0.4296 -0.4622
11336SOL     OW38237   0.251   7.771   3.471 -0.1393 -0.0313  0.0931
11336SOL    HW138238   0.292   7.694   3.520  0.6503  0.3350  0.0164
11336SOL    HW238239   0.284   7.771   3.377 -0.2591  0.3134  0.0539
11337SOL     OW38240   1.662   2.575   0.570 -0.0018 -0.1784  0.7555
11337SOL    HW138241   1.627   2.560   0.478  0.8079  0.1900  0.3844
11337SOL    HW238242   1.743   2.519   0.585  1.3725  1.6827  0.3409
11339SOL     OW38243   2.970   5.754   0.633  0.1596  0.0438  0.2252
11339SOL    HW138244   3.068   5.736   0.621  0.0863 -0.7730  0.8630
11339SOL    HW238245   2.943   5.829   0.573  1.0749 -0.0458 -0.3078
11340SOL     OW38246   9.453   9.875   1.379 -0.0647  0.1297 -0.7424
11340SOL    HW138247   9.421   9.855   1.471 -2.3307  1.8226 -1.1197
11340SOL    HW238248   9.535   9.933   1.384  0.8026 -1.1269  0.1776
11341SOL     OW38249   0.307   8.618   1.751  0.7955 -0.4663  0.0110
11341SOL    HW138250   0.217   8.636   1.789 -0.4736 -1.4723 -2.4409
11341SOL    HW238251   0.353   8.705   1.732  0.0764  0.0569  0.6254
11342SOL     OW38252   5.495   7.408   3.037  0.1358  0.2212 -0.1424
11342SOL    HW138253   5.397   7.424   3.045 -0.3826 -2.2763 -1.1357
11342SOL    HW238254   5.515   7.364   2.949  2.3817  2.2955 -0.7464
11343SOL     OW38255   2.464   7.186   3.703  0.5176  0.7585 -0.3658
11343SOL    HW138256   2.393   7.187   3.773  0.4332  1.8563 -0.4629
11343SOL    HW238257   2.463   7.272   3.653  2.2292  0.9601 -0.0696
11347SOL     OW38258   4.520   6.679   3.006  0.0912 -0.2927  0.0317
11347SOL    HW138259   4.454   6.656   2.934  0.5068  0.2868 -0.5446
11347SOL    HW238260   4.471   6.715   3.085 -0.3872 -1.1586  0.1293
11348SOL     OW38261   3.232   1.530   4.172 -0.1084  0.1147 -0.5142
11348SOL    HW138262   3.180   1.572   4.098  0.5178 -0.3198 -1.2081
11348SOL    HW238263   3.314   1.487   4.135  1.2929  1.6921  0.7063
11349SOL     OW38264   9.991   1.507   0.654  0.0285  0.4640 -0.3490
11349SOL    HW138265   9.915   1.514   0.718 -0.6203 -1.9895 -0.7874
11349SOL    HW238266   9.999   1.413   0.622  2.8144  0.8326 -0.8729
11350SOL     OW38267   2.097   2.747   4.257 -0.5902 -0.5531 -0.1924
11350SOL    HW138268   2.069   2.792   4.172  2.4074  2.8840  0.5302
11350SOL    HW238269   2.024   2.755   4.325 -2.1570 -1.4608 -1.7210
11351SOL     OW38270   8.479   5.193   4.108  0.5047  0.0420 -0.2786
11351SOL    HW138271   8.439   5.171   4.019  2.4517  1.2321 -1.4748
11351SOL    HW238272   8.484   5.292   4.119  2.6035 -0.0819  0.0701
11352SOL     OW38273   3.612   1.749   3.167  0.2854  0.2373  0.1937
11352SOL    HW138274   3.559   1.685   3.223  0.1217 -0.7690 -1.0736
11352SOL    HW238275   3.676   1.697   3.110 -1.9909  0.9098 -3.1192
11354SOL     OW38276   6.015   8.061   3.483  0.0330  0.2430  0.1938
11354SOL    HW138277   6.016   8.058   3.583  1.1950  0.2207  0.1850
11354SOL    HW238278   6.079   8.130   3.451  1.4849 -1.4549 -0.5983
11355SOL     OW38279   2.172   1.979   2.304  0.0345  0.3160  0.5054
11355SOL    HW138280   2.209   1.960   2.395  0.0393 -0.7399  0.2915
11355SOL    HW238281   2.076   2.005   2.312 -0.0846 -0.1956  0.7866
11356SOL     OW38282   9.576   2.307   3.308  0.9172 -0.2502  0.4968
11356SOL    HW138283   9.626   2.279   3.390 -0.0898 -2.7442  0.3041
11356SOL    HW238284   9.547   2.226   3.257 -2.2197  1.1407 -0.0650
11357SOL     OW38285   8.620   8.277   4.693 -0.5535  0.4675 -0.4568
11357SOL    HW138286   8.609   8.367   4.736 -2.3887 -0.7847  1.7860
11357SOL    HW238287   8.531   8.246   4.658 -0.1308 -0.8909 -0.3514
11359SOL     OW38288   8.220   5.129   0.249  0.5721  0.0661 -0.2912
11359SOL    HW138289   8.260   5.047   0.288 -0.3243 -0.6591 -0.8743
11359SOL    HW238290   8.268   5.154   0.165 -0.1284 -0.7486 -0.9416
11361SOL     OW38291   0.864   6.681   1.480  0.3863 -0.6350 -0.2144
11361SOL    HW138292   0.861   6.660   1.578 -1.0414  0.5209  0.0078
11361SOL    HW238293   0.923   6.760   1.465 -1.1032  0.5444 -0.0051
11362SOL     OW38294   9.568   3.278   3.944 -0.4212 -0.2771  0.1341
11362SOL    HW138295   9.531   3.370   3.932  0.4529 -0.1743 -1.8427
11362SOL    HW238296   9.668   3.282   3.948 -0.3818 -1.1535  0.0274
11363SOL     OW38297   1.286   2.663   1.463  0.0886  0.2416 -0.4569
11363SOL    HW138298   1.376   2.624   1.483 -0.2475  0.1941  1.0960
11363SOL    HW238299   1.215   2.599   1.493 -0.4528  1.0468  0.0103
11364SOL     OW38300   5.421   8.993   1.621  0.1586 -0.1189 -0.5956
11364SOL    HW138301   5.359   9.053   1.569 -0.4917 -0.4638 -0.2197
11364SOL    HW238302   5.371   8.951   1.696  0.7928 -0.5991 -0.4435
11365SOL     OW38303   3.816   2.313   0.983 -0.1030  0.3395  0.2107
11365SOL    HW138304   3.839   2.323   0.886 -0.7470  0.4616  0.0627
11365SOL    HW238305   3.893   2.273   1.032  0.1068 -0.0409 -0.4166
11366SOL     OW38306   2.898   3.023   1.323  0.0381  0.7590  0.1816
11366SOL    HW138307   2.971   3.053   1.262  0.5724 -1.0124 -0.0801
11366SOL    HW238308   2.810   3.037   1.279  0.4530 -1.3518 -1.4429
11367SOL     OW38309   2.435   3.995   1.618 -0.8028  0.1876 -0.1263
11367SOL    HW138310   2.459   3.923   1.553  0.4509  1.2762 -0.8897
11367SOL    HW238311   2.482   3.979   1.705 -0.3737  0.1839 -0.3576
11368SOL     OW38312   4.376   2.292   2.529 -0.0286  0.2143  0.2745
11368SOL    HW138313   4.348   2.386   2.508  0.4835  0.4349  0.5583
11368SOL    HW238314   4.418   2.289   2.620  1.8358  0.1074 -0.5567
11369SOL     OW38315   3.954   9.017   0.267 -0.0223  0.0075  0.1004
11369SOL    HW138316   4.017   9.038   0.343 -0.1035  0.6801 -0.0187
11369SOL    HW238317   3.889   8.947   0.296  1.8733 -1.9877 -0.3197
11370SOL     OW38318   2.615   4.889   3.602 -0.2214 -0.1831  0.1637
11370SOL    HW138319   2.586   4.984   3.590 -3.0643 -1.1577 -1.0391
11370SOL    HW238320   2.596   4.860   3.695  1.1501  0.5617  0.6930
11371SOL     OW38321   7.655   2.809   2.509  0.3630 -0.3377 -0.0393
11371SOL    HW138322   7.699   2.821   2.598 -1.7556  2.3735  0.7047
11371SOL    HW238323   7.581   2.742   2.516  0.2050 -0.1314  0.2383
11373SOL     OW38324   6.620   0.297   4.495  0.5122 -0.1345  0.1881
11373SOL    HW138325   6.635   0.217   4.553  2.0650  0.6609  0.9215
11373SOL    HW238326   6.698   0.310   4.435 -0.8336 -0.6107 -1.7276
11374SOL     OW38327   1.801   7.650   0.247 -0.2660 -0.0294 -0.1353
11374SOL    HW138328   1.900   7.636   0.241 -0.2898 -0.2920  0.0540
11374SOL    HW238329   1.755   7.561   0.249 -0.4086  0.0691  1.2496
11375SOL     OW38330   1.653   9.583   1.413  0.7980  0.0469 -0.0662
11375SOL    HW138331   1.637   9.670   1.366  4.0581  1.1046  0.6647
11375SOL    HW238332   1.680   9.514   1.346 -0.5466 -0.0829 -0.4887
11376SOL     OW38333   1.255   7.173   3.993 -0.2408  0.4417  0.4562
11376SOL    HW138334   1.206   7.154   3.907 -1.0082 -0.4699  1.0849
11376SOL    HW238335   1.290   7.087   4.031  3.7258  1.2933 -1.0538
11377SOL     OW38336   4.475   1.885   5.015  0.8770 -0.0254  0.1689
11377SOL    HW138337   4.548   1.910   5.079  0.5301  1.7968 -0.1137
11377SOL    HW238338   4.516   1.846   4.932  1.2865 -3.2104  1.7880
11380SOL     OW38339   8.770   9.461   0.981  0.3273  0.7709 -0.8049
11380SOL    HW138340   8.829   9.454   1.061  0.4050 -0.4684 -0.9560
11380SOL    HW238341   8.815   9.516   0.910  1.4886 -0.4982 -1.0784
11381SOL     OW38342   4.577   0.913   0.614  0.0295  0.3252 -0.3437
11381SOL    HW138343   4.639   0.972   0.563  0.1166  2.5349  2.2425
11381SOL    HW238344   4.609   0.818   0.608  1.3159  0.8761 -2.4433
11382SOL     OW38345   0.006   9.017   5.232 -0.6198 -0.0752 -0.6688
11382SOL    HW138346  -0.018   9.049   5.323 -1.0270  0.1568 -0.8548
11382SOL    HW238347   0.001   9.093   5.167  0.5343 -0.0500 -0.7271
11383SOL     OW38348   8.233   0.019   0.315 -0.3044  0.0562  0.0653
11383SOL    HW138349   8.233   0.012   0.215 -1.8432  0.4005  0.0289
11383SOL    HW238350   8.148   0.061   0.346 -1.8673 -4.0522  1.7716
11384SOL     OW38351   1.933   7.631   3.205  0.4483  0.1877 -0.0673
11384SOL    HW138352   1.835   7.646   3.192 -0.0290 -2.9946 -0.5047
11384SOL    HW238353   1.980   7.643   3.118 -0.0296 -1.4693 -0.5773
11385SOL     OW38354   2.492   3.555   0.092  0.0055 -0.1869 -0.0957
11385SOL    HW138355   2.411   3.497   0.108 -0.6817  0.9218  0.4795
11385SOL    HW238356   2.567   3.525   0.150  0.4644 -2.0894 -1.5972
11386SOL     OW38357   0.108   2.583   0.716 -0.0287 -0.3947 -0.3678
11386SOL    HW138358   0.043   2.654   0.687  0.2726 -0.2979 -0.8185
11386SOL    HW238359   0.079   2.545   0.804 -0.0894  0.4261 -0.0237
11387SOL     OW38360   8.999   9.713   4.507  0.0428  0.1585  0.2089
11387SOL    HW138361   8.905   9.680   4.523  0.3206 -1.3983 -1.2221
11387SOL    HW238362   8.997   9.784   4.438 -0.1826  0.8065  0.8739
11388SOL     OW38363   0.647   3.754   4.983  0.5324 -0.4080  0.6484
11388SOL    HW138364   0.653   3.713   4.892  1.2595 -0.2057  0.6001
11388SOL    HW238365   0.739   3.769   5.019  0.2423 -1.1076  1.7032
11389SOL     OW38366   0.214   5.333   0.144  0.3414  0.0337 -0.3229
11389SOL    HW138367   0.184   5.388   0.067 -1.0621  0.2711  0.3842
11389SOL    HW238368   0.278   5.263   0.112 -0.3168  0.0559 -1.7228
11390SOL     OW38369   3.716   9.929   2.280  0.0596 -0.1578 -0.5522
11390SOL    HW138370   3.695  10.024   2.256  0.5547 -0.3687 -1.8794
11390SOL    HW238371   3.812   9.922   2.307 -0.8132  0.3250  2.9456
11391SOL     OW38372   5.126   3.029   3.967  0.2925  0.1296 -0.2286
11391SOL    HW138373   5.064   3.078   4.029 -0.9531 -1.3913 -0.2538
11391SOL    HW238374   5.207   3.086   3.950 -0.1538  1.3025  1.3918
11392SOL     OW38375   0.321   1.977   3.678  0.4331 -0.1520 -0.0934
11392SOL    HW138376   0.386   1.944   3.610  0.5151 -1.5830  0.6573
11392SOL    HW238377   0.240   2.012   3.632  0.6444 -0.7669 -0.9451
11393SOL     OW38378   9.462   1.296   0.089 -0.0199 -0.4182  0.1715
11393SOL    HW138379   9.475   1.394   0.104 -0.8686 -0.3534  0.5340
11393SOL    HW238380   9.537   1.260   0.034  1.2445  0.0745  1.5402
11394SOL     OW38381   9.107   2.257   0.373 -0.4599 -0.7774 -0.0083
11394SOL    HW138382   9.150   2.315   0.442 -0.8804 -1.1887  0.6060
11394SOL    HW238383   9.175   2.228   0.306 -0.0516 -0.3539  0.2195
11396SOL     OW38384   1.925   9.521   3.046  0.2100  0.2104  0.2816
11396SOL    HW138385   1.893   9.472   2.965  0.4269  1.5228 -0.6241
11396SOL    HW238386   2.017   9.490   3.069  0.2424 -0.0011 -0.1194
11397SOL     OW38387   5.084   1.529   5.186 -0.2288 -0.0166 -0.0229
11397SOL    HW138388   5.128   1.520   5.097 -0.7926 -0.3115 -0.2713
11397SOL    HW238389   5.068   1.438   5.225 -1.0113  0.0790 -0.1227
11399SOL     OW38390   2.365   1.177   5.268 -0.3159  0.9787 -0.5126
11399SOL    HW138391   2.338   1.093   5.315  0.0726  1.3388  0.3740
11399SOL    HW238392   2.383   1.248   5.336  1.3674  1.1925 -1.1640
11400SOL     OW38393   1.847   2.401   3.864  0.0459 -0.2219 -0.5272
11400SOL    HW138394   1.902   2.342   3.922 -1.0302 -0.6834  0.0321
11400SOL    HW238395   1.889   2.408   3.773  1.8534  0.6904  0.3564
11401SOL     OW38396   8.310   1.837   1.842 -0.2433  0.0012  0.3111
11401SOL    HW138397   8.356   1.923   1.823  2.2506 -1.5208 -0.7645
11401SOL    HW238398   8.346   1.798   1.927  0.1250 -0.9478 -0.2687
11402SOL     OW38399   2.394   1.761   2.209  0.1402  0.0308 -0.4182
11402SOL    HW138400   2.372   1.664   2.203 -0.6530  0.1803  0.0211
11402SOL    HW238401   2.310   1.814   2.218  0.5345  0.7989 -1.1508
11403SOL     OW38402   4.799   2.930   3.177 -0.1675 -0.0234  0.5880
11403SOL    HW138403   4.785   2.967   3.085 -0.6564 -1.3432  0.1259
11403SOL    HW238404   4.885   2.880   3.180 -0.3041 -0.2431  0.7710
11404SOL     OW38405   0.974   1.691   4.905 -0.3329  0.5216 -0.4717
11404SOL    HW138406   0.978   1.790   4.918 -0.8773  0.4815  0.0601
11404SOL    HW238407   0.878   1.661   4.905 -0.1684 -0.0190 -0.4657
11405SOL     OW38408   3.890   5.939   2.324 -0.2891 -0.6220  0.2572
11405SOL    HW138409   3.870   5.929   2.226 -1.2101 -0.9100  0.4740
11405SOL    HW238410   3.831   6.010   2.363  1.6262  1.0695  0.1409
11406SOL     OW38411   7.998   0.126   0.462  0.5987 -0.2031  0.1765
11406SOL    HW138412   8.061   0.200   0.481 -0.4318  0.6885  0.1820
11406SOL    HW238413   7.923   0.128   0.529  0.4951 -1.1750  0.1049
11407SOL     OW38414   7.589   9.803   3.787 -0.1206  0.3282 -0.0397
11407SOL    HW138415   7.686   9.792   3.807 -0.4109 -0.4828  1.0057
11407SOL    HW238416   7.575   9.885   3.732  1.1955  0.2177 -0.5502
11408SOL     OW38417   5.194   9.468   2.049  0.3781  0.0489  0.3340
11408SOL    HW138418   5.237   9.382   2.018  0.1851  0.0147  0.1556
11408SOL    HW238419   5.200   9.535   1.975  2.2500  0.8182  1.1445
11410SOL     OW38420   0.245   5.163   5.170 -0.3783 -0.0221 -0.1298
11410SOL    HW138421   0.156   5.163   5.123 -0.4435 -0.5402 -0.0048
11410SOL    HW238422   0.316   5.135   5.106 -0.3610 -0.0144 -0.1139
11412SOL     OW38423   5.262   1.486   1.481 -0.1639  0.5025 -0.3702
11412SOL    HW138424   5.201   1.528   1.415 -1.8401  0.3836  1.0518
11412SOL    HW238425   5.286   1.553   1.552  0.9543  0.4007 -0.6438
11413SOL     OW38426   7.112   1.600   2.190  0.8420 -0.3453  0.2943
11413SOL    HW138427   7.179   1.534   2.223  2.1932 -0.3800 -2.4338
11413SOL    HW238428   7.153   1.691   2.188 -0.1829  0.1630  1.5098
11415SOL     OW38429   4.888   4.286   3.457 -0.2683  0.0301 -1.1989
11415SOL    HW138430   4.969   4.228   3.457  0.2328  0.7079  0.1206
11415SOL    HW238431   4.806   4.228   3.462  0.2288 -0.5745  0.3128
11416SOL     OW38432   8.573   4.634   3.791  0.2477 -0.3507 -0.4449
11416SOL    HW138433   8.653   4.580   3.814  0.6070 -0.0056 -0.8789
11416SOL    HW238434   8.547   4.617   3.695  0.0362 -0.1716 -0.4218
11417SOL     OW38435   5.375   0.989   1.486 -0.3436  0.1454  0.0280
11417SOL    HW138436   5.276   0.980   1.497 -0.2731 -1.3867 -0.4265
11417SOL    HW238437   5.399   1.085   1.473 -1.7400  0.5539  0.4355
11419SOL     OW38438   9.600   7.036   4.810  0.3101  0.4219  0.2073
11419SOL    HW138439   9.586   6.939   4.791  0.1249  0.6869 -1.0192
11419SOL    HW238440   9.519   7.088   4.783  0.5416  0.9582  0.5430
11421SOL     OW38441   3.515   1.003   2.965  0.2989  0.3167 -0.1826
11421SOL    HW138442   3.587   1.073   2.960  0.0607  0.6086  0.4134
11421SOL    HW238443   3.491   0.987   3.061 -0.3485  0.1334 -0.3750
11422SOL     OW38444   5.647   2.384   2.533  0.4435  0.2745  0.6649
11422SOL    HW138445   5.732   2.422   2.568  0.7963  1.7178 -1.6437
11422SOL    HW238446   5.572   2.411   2.593  1.4173  0.1979  1.9297
11423SOL     OW38447   9.163   0.540   0.542  0.0324 -0.1289  0.2186
11423SOL    HW138448   9.228   0.498   0.478 -0.0938  0.7763 -0.5218
11423SOL    HW238449   9.070   0.510   0.520  0.2275 -1.8358  1.6065
11426SOL     OW38450   6.059   0.576   2.334 -0.2850  0.1855  0.3174
11426SOL    HW138451   5.995   0.543   2.403  0.8793 -0.6160  1.0185
11426SOL    HW238452   6.059   0.513   2.256 -1.7645  1.2071 -0.5450
11427SOL     OW38453   0.718   1.222   4.611 -0.0019  0.1683  0.3046
11427SOL    HW138454   0.775   1.159   4.558  1.2277  1.9167 -0.4916
11427SOL    HW238455   0.777   1.286   4.660 -1.2166  0.1598  1.8014
11428SOL     OW38456   8.364   6.846   3.042  0.0222 -0.0300  0.4991
11428SOL    HW138457   8.399   6.934   3.011 -1.2880  0.3022 -0.0738
11428SOL    HW238458   8.424   6.773   3.010  0.4475  0.5680 -0.0740
11429SOL     OW38459   4.012   2.039   4.942 -0.3498 -0.1011 -0.1207
11429SOL    HW138460   4.098   2.090   4.935  0.1323 -0.8423  0.4067
11429SOL    HW238461   3.964   2.067   5.025 -0.5599  0.2243 -0.3518
11430SOL     OW38462   8.480   2.498   1.416 -0.2755 -1.1231 -0.2311
11430SOL    HW138463   8.415   2.560   1.372  0.6723 -0.0603 -0.1286
11430SOL    HW238464   8.487   2.414   1.362 -0.4295 -0.5298 -1.1746
11431SOL     OW38465   8.818   1.158   0.803  0.1806 -0.5103 -0.6867
11431SOL    HW138466   8.912   1.129   0.819  1.2675  1.0344 -3.8114
11431SOL    HW238467   8.815   1.217   0.722 -3.0943  1.6001  0.8891
11432SOL     OW38468   5.169   2.280   3.753  0.5593 -0.1523  0.0489
11432SOL    HW138469   5.252   2.330   3.778  0.0883  0.5803  0.1464
11432SOL    HW238470   5.089   2.339   3.766  0.1062 -0.5386 -0.9767
11433SOL     OW38471   6.842   1.083   2.405 -0.1883 -0.0682 -0.3686
11433SOL    HW138472   6.933   1.041   2.416 -0.4687 -0.7098 -0.4673
11433SOL    HW238473   6.772   1.017   2.433 -0.6796  0.0218 -1.3657
11435SOL     OW38474   8.362   3.938   4.990  0.3268 -0.6140 -0.2389
11435SOL    HW138475   8.294   3.957   4.919  1.2377 -1.2133 -1.2815
11435SOL    HW238476   8.317   3.899   5.070 -0.3509 -2.7335 -1.6017
11436SOL     OW38477   6.360   0.455   2.759 -0.3794  0.6330 -0.5623
11436SOL    HW138478   6.264   0.427   2.755 -0.5430  1.1098  0.0045
11436SOL    HW238479   6.418   0.375   2.742 -0.8568  0.0351  0.5855
11437SOL     OW38480   1.611   0.093   3.831 -0.1624  0.4148  0.0397
11437SOL    HW138481   1.652   0.105   3.740 -0.8285 -0.3862 -0.3819
11437SOL    HW238482   1.607  -0.005   3.853 -1.3345  0.5092  0.2986
11438SOL     OW38483   3.606   3.542   4.990 -0.5834 -0.1013  0.1018
11438SOL    HW138484   3.641   3.575   5.078  2.3376  0.2551 -1.1402
11438SOL    HW238485   3.569   3.450   5.001  0.1998 -0.2501  1.6034
11439SOL     OW38486   8.803   5.898   2.019 -1.3007 -1.1853 -0.0886
11439SOL    HW138487   8.873   5.826   2.015 -0.8457 -0.7088 -0.8136
11439SOL    HW238488   8.800   5.945   1.931 -1.6632 -0.3703  0.3647
11440SOL     OW38489   9.236   1.561   3.203 -0.6331 -0.0705  0.3541
11440SOL    HW138490   9.182   1.644   3.212 -0.6792 -0.2119  1.3616
11440SOL    HW238491   9.333   1.583   3.220  0.2537  0.9354 -4.8907
11441SOL     OW38492   3.156   5.866   2.922 -0.5893  0.2486  0.1525
11441SOL    HW138493   3.078   5.860   2.984 -1.1437 -0.5276 -0.6117
11441SOL    HW238494   3.125   5.864   2.827  0.3268  0.2434 -0.1572
11442SOL     OW38495   9.963   1.235   2.128 -0.2298  0.1713 -0.3569
11442SOL    HW138496   9.953   1.237   2.029 -1.4895  0.6990 -0.2246
11442SOL    HW238497  10.053   1.271   2.153 -0.6476  1.8872 -1.2161
11443SOL     OW38498   5.613   2.674   3.111 -0.0279  0.4210 -0.4500
11443SOL    HW138499   5.565   2.723   3.039 -0.9840  0.3340  0.1179
11443SOL    HW238500   5.678   2.610   3.070 -1.8615 -0.9472 -1.2964
11445SOL     OW38501   4.271   6.517   1.064  0.2373  0.0284  0.2912
11445SOL    HW138502   4.335   6.456   1.017 -0.5082 -0.0624 -0.6215
11445SOL    HW238503   4.315   6.555   1.145  1.5064  0.1126 -0.4276
11447SOL     OW38504   3.692   7.898   3.637 -0.8321 -0.3349  0.3077
11447SOL    HW138505   3.696   7.801   3.662  1.3905  0.2281  2.4111
11447SOL    HW238506   3.778   7.942   3.663 -1.1107  1.8338 -2.2822
11448SOL     OW38507   8.646   1.186   2.891 -0.1872  0.1387  0.2753
11448SOL    HW138508   8.589   1.167   2.811 -1.3709  3.4578  0.2550
11448SOL    HW238509   8.736   1.219   2.860  0.1356 -0.6614  0.3357
11449SOL     OW38510   4.165   4.067   1.574 -0.4340 -0.1071 -0.0997
11449SOL    HW138511   4.195   3.973   1.590  1.1869 -0.2436 -3.5103
11449SOL    HW238512   4.132   4.077   1.480 -1.6460  2.4906  0.5301
11450SOL     OW38513   0.502   2.959   3.515  0.1388 -0.6777  0.0415
11450SOL    HW138514   0.514   3.007   3.601 -0.8204 -1.2636  0.5089
11450SOL    HW238515   0.554   2.873   3.516 -0.3535 -0.9773  0.2786
11451SOL     OW38516   3.956   2.588   0.836 -0.2000  0.1701  0.1654
11451SOL    HW138517   3.879   2.534   0.868  0.5899 -0.6449  0.7207
11451SOL    HW238518   4.042   2.543   0.862  0.4784  1.7188  0.6883
11452SOL     OW38519   4.793   7.751   2.587  0.5481 -0.3001  0.2333
11452SOL    HW138520   4.830   7.659   2.573  0.0121 -0.9429  2.7924
11452SOL    HW238521   4.705   7.745   2.633 -1.0366  1.3887 -2.4502
11453SOL     OW38522   3.460   3.769   2.748  0.0220 -0.0683 -0.8291
11453SOL    HW138523   3.557   3.792   2.749 -0.1861  0.7819 -0.3555
11453SOL    HW238524   3.411   3.831   2.687 -0.3241 -0.1019 -0.5890
11454SOL     OW38525   1.326   0.138   3.729  0.2362  0.1205  0.4822
11454SOL    HW138526   1.274   0.220   3.704  0.7171  0.5009  0.7251
11454SOL    HW238527   1.411   0.165   3.773  0.3543 -0.5155  0.6447
11456SOL     OW38528   8.371   8.437   2.280 -0.1814 -0.2813 -0.2744
11456SOL    HW138529   8.322   8.380   2.214 -0.2185  1.2005 -1.5468
11456SOL    HW238530   8.468   8.441   2.255 -0.4241  1.3440 -1.0284
11457SOL     OW38531   3.725   1.542   2.588  0.1895  0.3398  0.2710
11457SOL    HW138532   3.695   1.468   2.649  1.1432 -1.5380 -1.4928
11457SOL    HW238533   3.696   1.630   2.626 -0.3217 -0.8729  2.7901
11458SOL     OW38534   7.898   2.540   2.555 -0.4635 -0.7453  0.2206
11458SOL    HW138535   7.918   2.470   2.623  0.5804 -0.6180  0.0569
11458SOL    HW238536   7.881   2.628   2.600 -1.8924 -1.1231  0.4321
11459SOL     OW38537   5.636   0.679   1.600  0.5649 -0.4166  0.0583
11459SOL    HW138538   5.604   0.704   1.509 -1.6177 -0.2491  0.8402
11459SOL    HW238539   5.604   0.746   1.667  0.3871 -1.6334  1.2357
11460SOL     OW38540   3.900   0.442   4.941 -0.2618 -0.1767 -0.4851
11460SOL    HW138541   3.876   0.402   4.852 -1.0790 -0.2201 -0.2501
11460SOL    HW238542   3.915   0.540   4.930  2.2638 -0.5977 -1.1623
11461SOL     OW38543   5.004   2.994   4.242  0.6743 -0.5559  0.6076
11461SOL    HW138544   4.938   3.067   4.223  0.2728 -1.2572 -0.7514
11461SOL    HW238545   5.025   2.994   4.340 -0.9717 -0.0124  0.9934
11462SOL     OW38546   7.102   1.286   2.076  0.5977 -0.0166 -0.5709
11462SOL    HW138547   7.178   1.311   2.135  0.4980 -1.4919  0.2197
11462SOL    HW238548   7.017   1.322   2.113  0.6257 -0.3410 -0.1861
11463SOL     OW38549   9.006   9.068   0.819 -0.3207 -0.5824 -0.1346
11463SOL    HW138550   9.064   9.003   0.769  1.4953  1.1936 -0.4331
11463SOL    HW238551   9.022   9.059   0.917  0.2298 -0.3334 -0.1985
11464SOL     OW38552   6.897   1.915   4.756 -0.1998  0.4908  0.2724
11464SOL    HW138553   6.891   1.839   4.692 -2.1858  0.1781  0.7874
11464SOL    HW238554   6.993   1.939   4.771  0.4676 -1.9977  0.2278
11466SOL     OW38555   2.599   8.843   3.656 -0.1875  0.0949 -0.3373
11466SOL    HW138556   2.601   8.773   3.728 -4.0600  0.7341  0.4777
11466SOL    HW238557   2.629   8.931   3.693  0.4584 -0.1665 -0.2354
11467SOL     OW38558   1.684   7.871   3.379 -1.1003  0.6082  0.5888
11467SOL    HW138559   1.680   7.795   3.314  1.7557  2.9660 -2.5348
11467SOL    HW238560   1.758   7.855   3.444 -0.2639  0.8735 -0.2898
11468SOL     OW38561   8.264   9.013   1.300  0.1585 -0.4460  0.8897
11468SOL    HW138562   8.193   9.059   1.353  0.9752  0.1538  1.4730
11468SOL    HW238563   8.241   8.916   1.292 -1.6352  0.0625 -0.4463
11471SOL     OW38564   9.925   5.398   3.721 -0.4511  0.5783  0.1715
11471SOL    HW138565   9.953   5.309   3.685  0.1687  0.8363  0.0129
11471SOL    HW238566   9.839   5.426   3.678 -0.9879 -0.2392  0.6980
11472SOL     OW38567   3.208   6.066   1.436  0.2209 -0.1825 -0.1057
11472SOL    HW138568   3.225   6.137   1.368  0.3505 -0.9157 -0.8337
11472SOL    HW238569   3.292   6.015   1.453  0.1976  0.0168  0.6255
11473SOL     OW38570   3.140   6.050   4.234  0.6087 -0.0048 -0.4343
11473SOL    HW138571   3.097   6.078   4.320  2.2745 -0.8201  0.7035
11473SOL    HW238572   3.198   6.124   4.201  0.1005  0.2454 -0.7645
11474SOL     OW38573   3.413   2.267   0.034  0.0611  0.3028 -0.3166
11474SOL    HW138574   3.510   2.290   0.019 -0.0986  1.9434  1.0645
11474SOL    HW238575   3.401   2.233   0.127 -0.8345  1.0306 -0.1582
11475SOL     OW38576   9.173   3.449   5.151  1.1487 -0.6874 -0.2676
11475SOL    HW138577   9.229   3.476   5.073 -1.3638 -0.9845 -2.2620
11475SOL    HW238578   9.087   3.410   5.118 -0.4169  0.1196  2.6489
11477SOL     OW38579   9.742   6.050   2.520 -0.3370 -0.3670 -0.0431
11477SOL    HW138580   9.704   5.977   2.577  0.0522 -0.0531  0.6267
11477SOL    HW238581   9.839   6.062   2.541  0.5947 -2.3000 -2.9423
11478SOL     OW38582   9.340   1.692   0.790 -0.1338 -0.7165  0.0225
11478SOL    HW138583   9.278   1.616   0.808 -0.6056 -0.4664 -0.5001
11478SOL    HW238584   9.314   1.771   0.845 -1.1165 -0.1882 -1.1659
11479SOL     OW38585   9.449   5.396   0.949 -0.2574 -0.2319  0.1901
11479SOL    HW138586   9.361   5.387   0.995 -0.5991  0.6336 -0.2879
11479SOL    HW238587   9.521   5.404   1.019 -0.9897  3.1447  0.6452
11480SOL     OW38588   8.899   5.254   4.536  0.6922 -0.0721  0.2917
11480SOL    HW138589   8.902   5.155   4.545  0.5271 -0.0152  1.0158
11480SOL    HW238590   8.866   5.294   4.621 -1.5465  0.4834 -0.7974
11482SOL     OW38591   8.798   9.933   4.779  0.1062 -0.2452  0.3210
11482SOL    HW138592   8.830   9.984   4.700 -0.9437 -1.6233 -1.0163
11482SOL    HW238593   8.877   9.910   4.837  0.8275  1.1332 -0.0785
11483SOL     OW38594   0.715   0.289   4.006  0.4508  0.1808 -0.2451
11483SOL    HW138595   0.751   0.280   3.913  0.4266  0.9168 -0.3246
11483SOL    HW238596   0.780   0.342   4.061  0.8267 -0.8914  0.3605
11484SOL     OW38597   3.491   2.568   2.850 -0.0886  0.3230 -0.2984
11484SOL    HW138598   3.495   2.523   2.760 -0.2430  2.1024 -1.2248
11484SOL    HW238599   3.504   2.666   2.838  1.0771  0.4442  1.7783
11485SOL     OW38600   2.272   8.526   0.713  0.2422  0.9275 -0.2787
11485SOL    HW138601   2.196   8.474   0.675  0.6058 -0.5342  0.9534
11485SOL    HW238602   2.316   8.578   0.640  0.5503 -1.3388 -1.7540
11486SOL     OW38603   4.093   5.215   0.037 -0.5042 -0.5220 -0.3377
11486SOL    HW138604   4.059   5.152  -0.033 -0.8401 -0.4739 -0.2220
11486SOL    HW238605   4.025   5.287   0.052 -0.0658 -0.0591 -0.5606
11487SOL     OW38606   3.530   3.742   1.882 -0.3490 -0.1578  0.5260
11487SOL    HW138607   3.565   3.663   1.832  0.7579  1.1012 -0.7600
11487SOL    HW238608   3.551   3.732   1.979 -0.3623 -1.5173  0.3921
11488SOL     OW38609   0.252   4.635   0.751  0.1000 -0.4451 -0.3487
11488SOL    HW138610   0.268   4.630   0.850  0.3508  1.7666 -0.2503
11488SOL    HW238611   0.339   4.641   0.703 -0.0714  0.2167 -0.5821
11489SOL     OW38612   8.407   5.083   3.853  0.0519 -0.0808 -0.2567
11489SOL    HW138613   8.348   5.099   3.774  0.2754 -2.0208 -0.8335
11489SOL    HW238614   8.497   5.052   3.823  0.4790  0.1677  0.7250
11490SOL     OW38615   5.603   2.203   4.168 -0.2016 -0.2964 -0.0190
11490SOL    HW138616   5.588   2.156   4.255 -0.5479 -0.5738 -0.2236
11490SOL    HW238617   5.687   2.258   4.173 -1.2352  1.2003  1.1070
11491SOL     OW38618   7.029   2.450   4.404  0.4245  0.0646 -0.2992
11491SOL    HW138619   6.945   2.398   4.385  0.7284  0.1952 -2.1401
11491SOL    HW238620   7.106   2.404   4.361  1.3524 -0.1827  1.5980
11492SOL     OW38621   0.187   6.425   4.150 -0.1627  0.2727 -0.2960
11492SOL    HW138622   0.165   6.513   4.110 -0.7099  0.7814  1.0767
11492SOL    HW238623   0.286   6.413   4.155 -0.0952  0.5569 -1.0211
11493SOL     OW38624   1.595   7.952   2.255 -0.4031  0.6468  0.5065
11493SOL    HW138625   1.620   8.043   2.291  2.5269  0.8614 -1.9154
11493SOL    HW238626   1.674   7.892   2.259 -1.8032 -1.2569  0.2674
11494SOL     OW38627   8.502   6.887   5.169  0.1666  0.0828 -0.4840
11494SOL    HW138628   8.527   6.867   5.075  0.0134  1.3663 -0.8125
11494SOL    HW238629   8.480   6.802   5.217 -0.6449 -0.5030 -1.8650
11495SOL     OW38630   2.807   4.939   0.658  0.2577 -0.5931 -0.0677
11495SOL    HW138631   2.771   4.882   0.584 -0.0448  1.6444 -1.6859
11495SOL    HW238632   2.742   5.011   0.680  1.5037  0.3612  0.5507
11496SOL     OW38633   1.772   6.944   3.015 -0.2464 -0.1592  0.3166
11496SOL    HW138634   1.805   6.890   2.937 -0.8911  0.3840 -0.3395
11496SOL    HW238635   1.850   6.978   3.067  0.2860  1.5999 -1.5448
11497SOL     OW38636   1.223   2.345   0.660  0.4000  0.4782 -0.1017
11497SOL    HW138637   1.318   2.319   0.641  0.1548  0.0773 -0.7656
11497SOL    HW238638   1.187   2.287   0.733 -0.2790 -1.3315 -1.8509
11498SOL     OW38639   2.106   4.375   5.149  0.0008  0.1092  0.2559
11498SOL    HW138640   2.041   4.359   5.075 -0.4455  0.6691  0.5245
11498SOL    HW238641   2.104   4.298   5.212  0.5018 -0.4472 -0.4005
11499SOL     OW38642   8.125   4.198   0.883  0.1830  0.4754 -0.8177
11499SOL    HW138643   8.162   4.272   0.939  1.8851 -0.8808 -0.1333
11499SOL    HW238644   8.025   4.194   0.895 -0.0747  3.2374 -1.5927
11500SOL     OW38645   8.549   6.572   0.713  0.0762  0.1776 -0.0896
11500SOL    HW138646   8.602   6.654   0.696  0.6685 -0.1654  0.0724
11500SOL    HW238647   8.601   6.492   0.682 -0.4251 -0.1449 -0.1007
11501SOL     OW38648   5.312   1.652   3.171 -0.2043  0.3380 -0.7394
11501SOL    HW138649   5.241   1.587   3.147 -0.7080  0.8467 -0.6371
11501SOL    HW238650   5.329   1.714   3.095 -1.0829  1.3028 -0.1614
11502SOL     OW38651   2.187   4.202   2.758  0.3818 -0.2917 -0.3458
11502SOL    HW138652   2.247   4.279   2.776 -0.5284  0.2630  0.3298
11502SOL    HW238653   2.233   4.117   2.785  1.0545  0.0819 -0.3085
11503SOL     OW38654   1.699   4.533   2.158 -0.1316 -0.7419  0.1200
11503SOL    HW138655   1.750   4.594   2.098  0.4051 -0.3128  1.0021
11503SOL    HW238656   1.759   4.500   2.231 -1.0284 -0.4335  1.0161
11504SOL     OW38657   0.980   3.323   3.789  0.6611 -0.1188  0.6249
11504SOL    HW138658   0.924   3.402   3.762  0.7331 -0.4318 -0.4369
11504SOL    HW238659   1.004   3.269   3.709  1.9317 -0.3674  1.1481
11505SOL     OW38660   7.965   7.497   4.654  0.1716  0.0113  0.1190
11505SOL    HW138661   7.953   7.403   4.621  2.3233 -0.1527 -0.3309
11505SOL    HW238662   7.908   7.512   4.734  0.3061 -1.9048  0.6040
11506SOL     OW38663   5.862   8.036   4.591  0.0167 -0.2124  0.0661
11506SOL    HW138664   5.846   8.078   4.681  0.8203 -0.1861  0.1992
11506SOL    HW238665   5.943   7.977   4.596  1.4708  1.6034 -1.2316
11510SOL     OW38666   8.933   9.217   4.370  0.4799 -0.2178  0.0573
11510SOL    HW138667   8.907   9.224   4.466  2.6291 -0.9135  0.7269
11510SOL    HW238668   8.888   9.137   4.330 -1.4512  0.8195  0.1102
11511SOL     OW38669   2.511   8.160   3.394 -0.3690 -0.2289 -0.1791
11511SOL    HW138670   2.549   8.243   3.353  1.9750 -0.3615  1.6154
11511SOL    HW238671   2.451   8.184   3.470  0.9646 -0.1701  0.8735
11512SOL     OW38672   6.017   1.001   3.711  0.2478  0.4890  0.2696
11512SOL    HW138673   6.033   0.925   3.775 -1.1243 -0.7767 -0.8663
11512SOL    HW238674   5.919   1.013   3.698  0.4857 -1.1740 -3.8069
11513SOL     OW38675   2.064   0.052   4.697 -0.1766 -0.1774  0.3974
11513SOL    HW138676   1.973   0.085   4.722 -0.7763 -1.0026 -0.6548
11513SOL    HW238677   2.129   0.077   4.769 -0.9775  1.5626  0.5412
11514SOL     OW38678   0.276   3.344   0.181  0.6022  0.1556  0.2373
11514SOL    HW138679   0.211   3.314   0.250  0.9040 -2.4996 -0.5684
11514SOL    HW238680   0.360   3.292   0.190  1.0429  0.5537 -1.4520
11516SOL     OW38681   9.159   2.297   1.724  0.1076  0.1528  0.3074
11516SOL    HW138682   9.148   2.199   1.707 -1.2296  0.4862 -0.8373
11516SOL    HW238683   9.254   2.323   1.708  0.2610 -0.7794 -0.3161
11517SOL     OW38684   5.092   5.594   2.496  0.0160  0.1187 -1.2273
11517SOL    HW138685   5.064   5.671   2.438 -0.6748  0.5714 -0.2920
11517SOL    HW238686   5.012   5.538   2.517  0.7465 -1.7128 -3.1275
11519SOL     OW38687   8.983   8.230   0.561  0.1205 -0.1133  0.0176
11519SOL    HW138688   9.044   8.274   0.627 -1.0164  1.0355  0.3166
11519SOL    HW238689   8.934   8.154   0.606 -0.6686  0.6800  0.5106
11520SOL     OW38690   8.938   9.008   3.361  0.4615  0.3364 -0.6087
11520SOL    HW138691   8.859   9.049   3.406  0.5264  0.5218 -0.6608
11520SOL    HW238692   9.010   9.077   3.352  1.0749 -0.1403  0.5120
11521SOL     OW38693   6.790   7.536   3.873  0.4120  0.0746  0.5597
11521SOL    HW138694   6.796   7.438   3.857 -0.7314  0.0807  0.0357
11521SOL    HW238695   6.695   7.560   3.894  0.3181  1.3493 -1.2546
11522SOL     OW38696   3.744   6.968   2.802  0.4267 -0.2486  0.1070
11522SOL    HW138697   3.795   6.932   2.880 -0.2752  2.2137  1.7596
11522SOL    HW238698   3.654   6.999   2.832  0.3295  1.2068 -1.5696
11523SOL     OW38699   1.287   0.571   4.735 -0.4112 -0.4268  0.1801
11523SOL    HW138700   1.229   0.526   4.804 -0.6620  0.0299  0.2708
11523SOL    HW238701   1.239   0.651   4.699 -0.2614 -0.6438 -0.5004
11524SOL     OW38702   9.569   2.230   4.363 -0.4450 -0.3901 -0.3492
11524SOL    HW138703   9.660   2.206   4.329  0.4160  1.6402  0.4188
11524SOL    HW238704   9.540   2.163   4.431  0.2200 -1.3813 -1.0370
11526SOL     OW38705   5.214   8.797   0.092 -0.3760  0.0392  0.3251
11526SOL    HW138706   5.158   8.724   0.051  1.5195 -1.5801  0.5546
11526SOL    HW238707   5.258   8.762   0.175  0.6589  1.4155  0.3569
11527SOL     OW38708   4.553   5.175   2.729 -0.5128  0.1783 -0.1037
11527SOL    HW138709   4.493   5.251   2.704 -0.5067  0.6634  1.2872
11527SOL    HW238710   4.613   5.203   2.804 -1.3406 -1.5482  1.2561
11528SOL     OW38711   9.603   1.941   4.060  0.0306  0.1518 -0.1689
11528SOL    HW138712   9.685   1.940   4.002 -0.0466  1.2510 -0.2893
11528SOL    HW238713   9.624   1.898   4.147  0.7221  0.3684 -0.2269
11529SOL     OW38714   3.061   2.870   2.700  0.1526 -0.0316  0.7318
11529SOL    HW138715   2.992   2.842   2.634  0.9120 -0.3591  0.0693
11529SOL    HW238716   3.020   2.876   2.791 -0.5682 -0.9564  0.4700
11530SOL     OW38717   5.065   8.997   2.893 -0.1131 -0.0788  0.4593
11530SOL    HW138718   5.014   8.954   2.968  0.7000 -0.0563  1.0333
11530SOL    HW238719   5.067   8.936   2.814  0.8530 -1.0112  1.1934
11532SOL     OW38720   0.833   1.750   0.844  0.3113 -0.8113 -0.2930
11532SOL    HW138721   0.898   1.679   0.872  0.1059 -1.2272 -0.8584
11532SOL    HW238722   0.740   1.714   0.848  0.1534 -0.3683  0.0438
11533SOL     OW38723   7.980   9.658   0.526  0.3786 -0.1687  0.2436
11533SOL    HW138724   7.983   9.601   0.444  0.3249 -1.7126  1.3032
11533SOL    HW238725   8.074   9.682   0.554  0.4529 -0.7157  0.4665
11534SOL     OW38726   7.852   4.973   1.380  0.3045  0.3349  0.0625
11534SOL    HW138727   7.856   5.019   1.468 -0.7242  0.2994  0.1362
11534SOL    HW238728   7.862   5.039   1.306  1.5036  0.3234  0.1993
11535SOL     OW38729   5.606   7.528   2.396  0.0656  0.0738 -0.2803
11535SOL    HW138730   5.605   7.589   2.476 -0.5507 -0.4926  0.1503
11535SOL    HW238731   5.688   7.472   2.398  0.4557  0.6319 -0.4824
11536SOL     OW38732   9.185   0.828   0.934 -0.5208 -0.4387 -0.1181
11536SOL    HW138733   9.249   0.814   0.859  1.8939 -0.9634  1.9813
11536SOL    HW238734   9.141   0.741   0.957  0.8913 -0.8982  0.9321
11537SOL     OW38735   0.479   5.532   2.010  0.2833  0.1499  0.3213
11537SOL    HW138736   0.454   5.540   2.106 -0.6990 -1.0555  0.1865
11537SOL    HW238737   0.419   5.465   1.966  2.1077 -0.8867 -0.6316
11538SOL     OW38738   3.773   9.647   0.500 -0.9638 -0.5909  0.1733
11538SOL    HW138739   3.781   9.745   0.484  0.6630 -0.7527 -0.0776
11538SOL    HW238740   3.685   9.614   0.464 -0.8995  0.5068 -1.0120
11539SOL     OW38741   6.016   1.120   1.658  0.3977 -0.3626 -0.5381
11539SOL    HW138742   5.942   1.178   1.623  0.5945  0.7035  0.7790
11539SOL    HW238743   5.997   1.095   1.753  1.9808  0.3615 -0.0115
11541SOL     OW38744   6.143   4.600   0.917 -0.3191  0.1620  0.0689
11541SOL    HW138745   6.055   4.589   0.964  1.6930 -0.2758  3.9662
11541SOL    HW238746   6.191   4.512   0.916  1.4167  1.0599  0.9587
11542SOL     OW38747   1.088   9.930   0.342 -0.8903 -0.0482  0.3845
11542SOL    HW138748   1.050   9.843   0.312  0.4564 -0.5494  0.0553
11542SOL    HW238749   1.180   9.914   0.380 -0.5436  1.2579  0.1142
11543SOL     OW38750   6.440   7.534   2.944 -0.1658 -0.0081  0.0900
11543SOL    HW138751   6.378   7.458   2.967 -0.6919  0.7914  1.3838
11543SOL    HW238752   6.436   7.552   2.846 -1.3639 -0.5073  0.0339
11544SOL     OW38753   2.199   1.366   4.485 -0.1690  0.0382  0.0417
11544SOL    HW138754   2.214   1.442   4.547 -1.0744  0.8390 -0.7048
11544SOL    HW238755   2.264   1.293   4.504  0.9515  1.1577  0.5050
11547SOL     OW38756   3.150   1.360   2.968 -0.7256  0.3187  0.1980
11547SOL    HW138757   3.059   1.319   2.977 -0.6966 -0.1852 -1.5623
11547SOL    HW238758   3.199   1.352   3.055 -2.2957  0.4541  1.1186
11548SOL     OW38759   0.799   7.397   2.282 -0.1983  0.6886 -0.2769
11548SOL    HW138760   0.708   7.366   2.309 -0.2431 -0.7063 -1.8964
11548SOL    HW238761   0.793   7.445   2.194  0.7508 -0.3126 -0.8993
11549SOL     OW38762   3.291   4.117   0.963  0.1398  0.1095 -0.2563
11549SOL    HW138763   3.258   4.171   1.040 -0.4367  2.8207 -2.3206
11549SOL    HW238764   3.381   4.152   0.934  1.1125 -1.9524  0.2031
11550SOL     OW38765   4.204   7.373   1.173  0.2355  0.0449 -1.0050
11550SOL    HW138766   4.196   7.469   1.197  2.0367  0.0376 -0.3160
11550SOL    HW238767   4.141   7.352   1.098 -1.5385  1.2984  0.1002
11551SOL     OW38768   9.399   9.856   2.642 -0.2277 -0.1117 -0.0433
11551SOL    HW138769   9.348   9.770   2.640 -0.3002 -0.0625 -0.6066
11551SOL    HW238770   9.346   9.925   2.692 -0.5603 -0.1602 -0.3230
11552SOL     OW38771   5.431   0.853   1.727  0.6637  0.4476  0.1013
11552SOL    HW138772   5.418   0.920   1.655  1.5602  0.4231 -0.0892
11552SOL    HW238773   5.362   0.866   1.798  1.2984  2.0876  0.4460
11553SOL     OW38774   8.491   1.137   3.631  0.7017  0.7514 -0.1162
11553SOL    HW138775   8.442   1.210   3.584  1.4308  0.2809 -1.6545
11553SOL    HW238776   8.590   1.153   3.623  0.8741 -0.6103 -0.8107
11554SOL     OW38777   8.893   0.334   3.671 -0.5477  0.4953 -0.2968
11554SOL    HW138778   8.824   0.306   3.604 -0.3740  1.5886 -0.9461
11554SOL    HW238779   8.858   0.410   3.725 -1.5765 -1.8157  2.4322
11555SOL     OW38780   9.317   4.835   3.061 -0.5926 -0.2135  0.1081
11555SOL    HW138781   9.382   4.864   3.131 -0.4695  0.4026 -0.2521
11555SOL    HW238782   9.364   4.776   2.995 -0.0648  1.2563 -0.8594
11556SOL     OW38783   1.044   2.520   4.729 -0.0905 -0.1563 -0.4344
11556SOL    HW138784   1.107   2.498   4.654 -1.5458  0.3189 -1.8482
11556SOL    HW238785   1.072   2.605   4.772 -1.0672  1.3309 -2.6153
11559SOL     OW38786   0.596   2.743   0.607  0.2051 -0.2258  0.0420
11559SOL    HW138787   0.653   2.724   0.527  1.3045  0.4092  0.6577
11559SOL    HW238788   0.655   2.763   0.685 -0.8788  3.2532  0.0316
11562SOL     OW38789   1.968   7.226   3.582  0.4988  0.2385 -0.5450
11562SOL    HW138790   1.966   7.278   3.666 -0.5166 -0.6696  0.0110
11562SOL    HW238791   1.887   7.246   3.528  1.0037  0.6021 -1.1713
11563SOL     OW38792   3.727   1.359   4.639  0.1570  0.1872 -0.5241
11563SOL    HW138793   3.656   1.317   4.695  1.9215 -1.1461  0.7838
11563SOL    HW238794   3.749   1.449   4.676  0.3354 -0.1067  0.0966
11564SOL     OW38795   4.629   8.523   2.729  0.2393 -0.1836  0.1896
11564SOL    HW138796   4.705   8.525   2.794  0.4592 -2.5859  0.0645
11564SOL    HW238797   4.543   8.518   2.779  0.3985 -1.8352  0.3239
11566SOL     OW38798   5.071   1.246   2.191 -0.1222 -0.1041 -0.3313
11566SOL    HW138799   5.168   1.272   2.191 -0.1469  0.0404  0.6919
11566SOL    HW238800   5.060   1.155   2.151  0.2690  0.4338 -1.6791
11567SOL     OW38801   3.842   2.321   0.714 -0.3556  1.0332  0.3125
11567SOL    HW138802   3.819   2.225   0.698  0.6017  0.9370 -0.6062
11567SOL    HW238803   3.771   2.380   0.676  1.2672  0.7724 -3.3601
11568SOL     OW38804   9.976   9.518   4.281 -0.0710  0.3900 -0.4442
11568SOL    HW138805   9.928   9.468   4.209  1.3813  1.2465 -2.0478
11568SOL    HW238806  10.069   9.540   4.249  0.4274  1.1913  1.5186
11569SOL     OW38807   2.508   4.961   3.919 -0.4947 -0.1185  0.3318
11569SOL    HW138808   2.522   4.992   4.013  0.4208 -1.8401  0.7928
11569SOL    HW238809   2.439   4.889   3.918 -0.8948  0.2653 -0.3982
11570SOL     OW38810   6.082   8.086   2.110  0.2085  0.6076  0.3577
11570SOL    HW138811   6.051   7.994   2.133  0.0480  0.7209  0.5875
11570SOL    HW238812   6.030   8.121   2.032  1.9308 -0.4672 -1.3332
11571SOL     OW38813   2.107   3.275   4.572  0.2180  0.0983 -0.3170
11571SOL    HW138814   2.079   3.188   4.532  0.7239 -0.0467 -0.3610
11571SOL    HW238815   2.030   3.339   4.571 -0.2243 -0.4390 -0.0278
11572SOL     OW38816   4.199   6.399   3.296 -0.0455  0.5695 -0.4144
11572SOL    HW138817   4.199   6.359   3.205 -0.8571  0.4585 -0.3711
11572SOL    HW238818   4.215   6.327   3.364  0.4397  0.6327 -0.4643
11573SOL     OW38819   0.023   9.790   2.791 -0.1226 -0.7597  0.2917
11573SOL    HW138820   0.078   9.714   2.756  0.5394 -0.9003  1.6124
11573SOL    HW238821   0.051   9.811   2.885  0.0953  1.4946 -0.2486
11574SOL     OW38822   4.615   3.500   4.643 -0.0659  0.2636  0.1342
11574SOL    HW138823   4.556   3.548   4.707  0.6953 -0.6271  1.5336
11574SOL    HW238824   4.579   3.409   4.626 -0.6135  0.7235 -1.2219
11575SOL     OW38825   4.218   1.834   3.283  0.6546 -0.3376 -0.0061
11575SOL    HW138826   4.244   1.797   3.373 -4.5286 -0.6999  1.5346
11575SOL    HW238827   4.211   1.759   3.217 -0.1868 -0.8054  0.5876
11576SOL     OW38828   6.471   9.643   2.379 -0.4869 -0.0844 -0.2735
11576SOL    HW138829   6.388   9.693   2.357 -0.8803 -0.4512  0.3656
11576SOL    HW238830   6.550   9.688   2.336 -0.9972  0.3138 -0.8056
11577SOL     OW38831   3.436   6.270   3.161 -0.0817  0.0435  0.1650
11577SOL    HW138832   3.392   6.324   3.233  1.3571 -1.4199  2.1981
11577SOL    HW238833   3.518   6.226   3.198  0.5045 -1.0167 -2.2974
11578SOL     OW38834   8.923   9.314   4.620  0.0152  0.3608  0.4558
11578SOL    HW138835   8.892   9.406   4.645 -0.7561 -0.3526  2.2266
11578SOL    HW238836   8.971   9.273   4.697 -1.6189 -1.5660  0.5006
11579SOL     OW38837   0.611   1.521   3.039  0.0477  0.3201  0.2788
11579SOL    HW138838   0.603   1.422   3.036  0.8065  0.2838 -0.8568
11579SOL    HW238839   0.644   1.549   3.129  0.3763 -0.4871  0.4123
11580SOL     OW38840   4.163   3.336   1.241  0.3161 -0.0451 -0.0214
11580SOL    HW138841   4.189   3.416   1.188  1.0093 -0.2324  0.0331
11580SOL    HW238842   4.089   3.360   1.303 -0.2409  0.2725 -0.7954
11581SOL     OW38843   0.253   6.705   0.253  0.9086  0.8376  0.6092
11581SOL    HW138844   0.161   6.723   0.287  1.1119  0.8261  1.1753
11581SOL    HW238845   0.271   6.762   0.173  0.4896  0.9930  0.6238
11582SOL     OW38846   9.826   6.429   2.464 -0.4703 -0.3658 -0.6911
11582SOL    HW138847   9.920   6.461   2.450 -0.5265  0.5633  0.9694
11582SOL    HW238848   9.763   6.501   2.435 -0.6274  0.0022  0.5392
11584SOL     OW38849   4.875   5.037   0.024  0.7354 -0.0910 -0.1768
11584SOL    HW138850   4.858   5.117  -0.034  2.4724 -0.8468 -1.7920
11584SOL    HW238851   4.974   5.021   0.029  0.4714 -1.2992  1.2980
11585SOL     OW38852   3.629   6.342   3.002 -0.1562  0.0618 -0.0997
11585SOL    HW138853   3.692   6.274   3.038  0.8490  1.6706  1.1988
11585SOL    HW238854   3.542   6.336   3.051  0.6353  1.1141  1.4359
11586SOL     OW38855   4.690   6.337   2.318 -0.2229 -0.5114 -0.0238
11586SOL    HW138856   4.784   6.364   2.300  1.0512 -5.1161 -1.0658
11586SOL    HW238857   4.669   6.350   2.414  0.2823  3.7095 -0.4047
11588SOL     OW38858   0.081   4.432   3.904  0.5766 -0.2415 -0.1282
11588SOL    HW138859   0.005   4.470   3.852  0.0849 -1.5209 -0.3595
11588SOL    HW238860   0.163   4.430   3.847 -0.0745 -2.0688 -1.0058
11589SOL     OW38861   3.854   1.779   1.960  0.7466 -0.0396 -0.1459
11589SOL    HW138862   3.811   1.730   2.036  0.4331  0.9161  0.2989
11589SOL    HW238863   3.814   1.747   1.874  1.1443 -1.1663  0.0749
11590SOL     OW38864   5.079   7.041   2.270 -0.5315 -0.7465  0.0616
11590SOL    HW138865   5.167   6.996   2.255  0.3085 -0.2464  3.1390
11590SOL    HW238866   5.094   7.130   2.313 -2.5053 -0.1463 -0.4249
11591SOL     OW38867   6.273   8.900   1.945  0.3802 -0.2832 -0.4363
11591SOL    HW138868   6.220   8.955   1.880  2.4959  0.6542 -1.4190
11591SOL    HW238869   6.346   8.957   1.983  1.5082 -1.9259 -0.1312
11592SOL     OW38870   3.009   1.493   4.544 -0.2327  0.0445  0.2924
11592SOL    HW138871   2.980   1.539   4.629  1.0324 -0.4042  0.9723
11592SOL    HW238872   2.960   1.406   4.535 -1.6005  0.8482 -0.2939
11593SOL     OW38873   9.214   8.507   1.434 -0.4329  0.1205 -0.0125
11593SOL    HW138874   9.138   8.463   1.388  0.8336 -1.9157 -0.2203
11593SOL    HW238875   9.180   8.572   1.502 -2.3135  0.7788 -1.5542
11594SOL     OW38876   3.183   5.580   3.084 -0.4663 -0.3230  0.1905
11594SOL    HW138877   3.275   5.611   3.061 -1.6784  2.5309 -1.0398
11594SOL    HW238878   3.149   5.520   3.011  1.1840 -3.2187  1.6983
11595SOL     OW38879   2.986   4.214   4.358  0.0604 -0.6452 -0.5530
11595SOL    HW138880   3.066   4.256   4.399 -0.9574  2.4339 -1.5882
11595SOL    HW238881   2.924   4.182   4.430 -0.6601  2.6726  0.4201
11596SOL     OW38882   4.890   9.066   0.791  0.5220 -0.6397 -0.2579
11596SOL    HW138883   4.961   9.064   0.862  0.7595 -0.7142 -0.4990
11596SOL    HW238884   4.931   9.051   0.702  0.2308 -0.4639 -0.4232
11597SOL     OW38885   0.915   5.229   0.090  0.1387  0.9033 -0.6701
11597SOL    HW138886   0.955   5.319   0.108  2.3436 -0.0636 -0.5967
11597SOL    HW238887   0.946   5.195   0.001  1.1269 -0.7296  0.2674
11598SOL     OW38888   0.710   3.241   3.614  0.9473 -0.5114 -0.1509
11598SOL    HW138889   0.803   3.205   3.611  1.3941  0.6676 -1.0667
11598SOL    HW238890   0.713   3.340   3.630 -0.0016 -0.0497 -2.5124
11599SOL     OW38891   2.340   7.598   4.681  0.8812  0.0197  0.5419
11599SOL    HW138892   2.263   7.646   4.722  2.4013  0.7519  2.6228
11599SOL    HW238893   2.386   7.543   4.751  1.7311 -1.0927 -0.8657
11601SOL     OW38894   8.640   9.275   4.803  0.1694  0.1509 -0.5339
11601SOL    HW138895   8.648   9.203   4.734  0.3460  0.7814 -1.1795
11601SOL    HW238896   8.566   9.337   4.778 -0.8887 -0.5749  0.7374
11602SOL     OW38897   1.418   1.717   1.969  0.7528  0.0314  0.0447
11602SOL    HW138898   1.390   1.622   1.981 -3.5580  1.3392  1.5141
11602SOL    HW238899   1.488   1.740   2.035 -0.6541 -1.2346  2.0296
11603SOL     OW38900   1.321   9.272   3.346 -0.0958 -0.1033  0.6240
11603SOL    HW138901   1.238   9.276   3.401  0.6090  1.5159  1.6125
11603SOL    HW238902   1.299   9.236   3.255 -1.4600 -1.7620  1.5817
11604SOL     OW38903   6.116   8.047   3.134 -0.5334 -0.2110 -0.4712
11604SOL    HW138904   6.031   8.008   3.168 -1.7797  1.3073 -1.7688
11604SOL    HW238905   6.099   8.139   3.099  2.0014  0.8206  0.9049
11605SOL     OW38906   7.687   2.705   5.076 -0.0751 -0.3213  0.2199
11605SOL    HW138907   7.643   2.692   5.165 -0.3490 -0.2121  0.1024
11605SOL    HW238908   7.622   2.681   5.003 -0.7282  1.9789 -0.0153
11606SOL     OW38909   0.787   4.448   4.092 -0.0789 -0.0135  0.3619
11606SOL    HW138910   0.861   4.401   4.044  0.2776 -0.3199  1.1936
11606SOL    HW238911   0.825   4.497   4.171 -0.5966  0.7997  0.1012
11607SOL     OW38912   2.861   8.565   3.112 -0.0456  0.6694 -0.6364
11607SOL    HW138913   2.916   8.506   3.171 -0.7418 -0.0770 -0.7192
11607SOL    HW238914   2.828   8.513   3.034 -2.0524  0.6983  0.1525
11608SOL     OW38915   5.848   0.033   1.753 -0.4778  0.1602 -0.2598
11608SOL    HW138916   5.893   0.097   1.691  1.4074  1.3484  2.2438
11608SOL    HW238917   5.754   0.064   1.770  0.4218  2.3511  0.9384
11609SOL     OW38918   7.493   7.995   3.342 -0.8452  0.1918 -0.2382
11609SOL    HW138919   7.462   7.904   3.314 -1.6254  0.6553 -0.9194
11609SOL    HW238920   7.432   8.064   3.303  1.1714  1.1516 -1.7617
11610SOL     OW38921   4.174   3.398   0.691 -0.2139 -0.4392 -0.3531
11610SOL    HW138922   4.233   3.440   0.623 -0.2546  0.1596 -0.0210
11610SOL    HW238923   4.167   3.300   0.673  2.5018 -0.8988  0.7835
11611SOL     OW38924   0.300   5.622   4.324 -0.1930 -0.0962  0.3572
11611SOL    HW138925   0.269   5.610   4.418 -0.6827 -0.8902  0.1010
11611SOL    HW238926   0.268   5.710   4.290 -0.9847 -0.2909  0.5675
11612SOL     OW38927   9.978   6.991   1.114 -0.2482 -0.7065  0.6252
11612SOL    HW138928   9.960   7.048   1.033  2.0831  1.1266  1.3483
11612SOL    HW238929   9.894   6.944   1.141 -1.7354  0.8238 -1.2103
11613SOL     OW38930   6.200   1.188   3.710  0.3937  0.1428  0.3148
11613SOL    HW138931   6.292   1.151   3.724 -0.7689 -1.5972  4.3454
11613SOL    HW238932   6.137   1.113   3.692 -0.6596  1.0216  0.2985
11615SOL     OW38933   5.247   7.771   3.597 -0.4404  0.0426 -0.7972
11615SOL    HW138934   5.237   7.870   3.587  0.0353  0.2596  0.7479
11615SOL    HW238935   5.209   7.743   3.685  0.3115 -1.0076 -0.8051
11618SOL     OW38936   7.004   4.300   0.080  0.5629 -0.3022 -0.4883
11618SOL    HW138937   6.923   4.294   0.139 -0.5508 -0.2912 -1.9910
11618SOL    HW238938   7.068   4.227   0.102  0.4466  0.0688  1.1471
11619SOL     OW38939   0.273   6.584   4.657 -0.3403  0.7509  0.7540
11619SOL    HW138940   0.236   6.524   4.728  0.3193  1.4691  1.7217
11619SOL    HW238941   0.232   6.675   4.664 -0.4992  0.7384  0.0228
11620SOL     OW38942   4.504   8.306   1.166  0.2563 -0.2015  0.3429
11620SOL    HW138943   4.530   8.402   1.178 -1.0376  0.1607  0.2995
11620SOL    HW238944   4.583   8.247   1.187  1.2218  0.8855 -0.1927
11621SOL     OW38945   1.834   9.414   0.101  0.0519 -0.1785  0.4360
11621SOL    HW138946   1.904   9.354   0.140  1.2871  0.7054 -0.3628
11621SOL    HW238947   1.751   9.409   0.156  0.8341 -1.0544  1.5620
11622SOL     OW38948   8.770   6.323   1.104 -0.3019  0.0856 -0.1198
11622SOL    HW138949   8.680   6.340   1.064 -0.0869 -2.7207 -1.9102
11622SOL    HW238950   8.760   6.284   1.195 -0.9351 -0.9695 -0.6355
11623SOL     OW38951   9.966   1.366   1.629  0.4496  0.1467  0.0402
11623SOL    HW138952  10.039   1.431   1.609  1.5617 -1.3048 -0.6533
11623SOL    HW238953   9.948   1.309   1.548 -1.4799  0.5123  0.1813
11624SOL     OW38954   0.627   0.063   1.366 -0.4988 -0.3021 -0.5169
11624SOL    HW138955   0.690   0.029   1.296 -1.1535 -0.2070 -1.1489
11624SOL    HW238956   0.540   0.015   1.359 -0.0494 -1.4226  1.2487
11625SOL     OW38957   2.160   7.981   1.436  0.4049  0.2943  0.4211
11625SOL    HW138958   2.234   7.966   1.502  0.0357 -0.6351  0.6277
11625SOL    HW238959   2.138   8.079   1.433  1.2137  0.4944  0.8205
11626SOL     OW38960   0.786   2.440   4.715 -0.6239 -0.2276 -0.0466
11626SOL    HW138961   0.879   2.475   4.711 -0.9452  0.5558 -0.8442
11626SOL    HW238962   0.781   2.354   4.664 -0.1345 -0.7506  0.7806
11628SOL     OW38963   4.834   0.475   0.031 -0.2787 -0.6902 -1.3441
11628SOL    HW138964   4.799   0.426   0.111 -1.1795  0.1501 -1.2100
11628SOL    HW238965   4.893   0.550   0.061 -0.7115 -0.3020 -1.4627
11629SOL     OW38966   8.925   0.223   5.051  0.6379 -0.0665 -0.3760
11629SOL    HW138967   8.974   0.303   5.018  0.3236  0.2883  0.0202
11629SOL    HW238968   8.894   0.169   4.972  0.5592  0.3736 -0.6500
11630SOL     OW38969   7.829   1.676   3.460 -0.1800  0.7438  0.7003
11630SOL    HW138970   7.917   1.629   3.459 -0.2207  0.6829 -1.4814
11630SOL    HW238971   7.766   1.627   3.521 -0.7535 -3.0733 -2.7865
11631SOL     OW38972   7.760   9.834   2.294 -0.4638  0.0776  0.0040
11631SOL    HW138973   7.702   9.914   2.276 -0.8979 -0.1083  0.5340
11631SOL    HW238974   7.730   9.791   2.379 -0.6694 -1.0497 -0.6355
11634SOL     OW38975   3.601   1.457   0.177 -0.3662 -0.6722 -0.0995
11634SOL    HW138976   3.511   1.414   0.169  0.6777 -3.0048  0.4241
11634SOL    HW238977   3.626   1.465   0.273 -0.5297  1.1433 -0.1872
11635SOL     OW38978   6.469   8.253   5.173  0.0472  0.1642 -0.2866
11635SOL    HW138979   6.454   8.329   5.237  1.6400  1.2761 -1.1834
11635SOL    HW238980   6.536   8.190   5.212  1.4034  1.1071 -1.0220
11636SOL     OW38981   4.341   4.702   2.107  0.8139  0.0037  0.7249
11636SOL    HW138982   4.411   4.773   2.094  1.4117 -0.4434  1.4449
11636SOL    HW238983   4.320   4.694   2.205 -0.6340  0.4967  0.4708
11637SOL     OW38984   3.619   9.112   5.257 -0.6147 -0.4271  0.6729
11637SOL    HW138985   3.701   9.099   5.201  0.1452  0.1827  1.6247
11637SOL    HW238986   3.540   9.069   5.212 -0.1822  0.7304 -1.2344
11638SOL     OW38987   8.295   9.335   3.656  0.3398  0.5025  0.3047
11638SOL    HW138988   8.211   9.382   3.631  0.8315  1.1670 -0.1338
11638SOL    HW238989   8.340   9.383   3.731  1.5209  1.5176 -1.0286
11639SOL     OW38990   8.416   2.289   3.091  0.0219 -0.4410  0.4571
11639SOL    HW138991   8.492   2.243   3.045 -1.8119 -2.1820 -0.8935
11639SOL    HW238992   8.343   2.223   3.109 -0.6627  0.9253  2.9148
11640SOL     OW38993   5.566   5.204   0.718 -0.1366  0.4068 -0.3090
11640SOL    HW138994   5.575   5.160   0.807  2.0882  0.8067 -0.3171
11640SOL    HW238995   5.516   5.144   0.656 -2.0151  0.2692  1.2727
11641SOL     OW38996   5.444   2.047   4.966  0.4563 -0.3172  0.0685
11641SOL    HW138997   5.445   1.950   4.990  1.1578 -0.3613 -0.1200
11641SOL    HW238998   5.417   2.058   4.870 -0.0135 -0.2995  0.2039
11642SOL     OW38999   8.787   0.304   3.263  0.2660 -0.1518 -0.0888
11642SOL    HW139000   8.836   0.224   3.230 -0.8649 -0.5405 -0.8717
11642SOL    HW239001   8.833   0.387   3.233  2.0358 -0.4736  1.6017
11643SOL     OW39002   3.931   4.790   3.602  0.2047  0.0074  0.6251
11643SOL    HW139003   3.887   4.840   3.527  0.4144 -1.3092 -0.4056
11643SOL    HW239004   4.029   4.787   3.586  0.4072  0.9043  1.6848
11644SOL     OW39005   2.322   8.220   3.574  0.5652  0.7704 -0.1592
11644SOL    HW139006   2.349   8.217   3.670  2.4907  0.4710 -0.6797
11644SOL    HW239007   2.269   8.303   3.557 -0.5244  0.3936  1.3340
11645SOL     OW39008   3.829   4.727   1.131  0.3549 -0.6433  0.1293
11645SOL    HW139009   3.771   4.749   1.052  1.6983  0.3795 -0.5985
11645SOL    HW239010   3.804   4.784   1.209 -2.0808 -2.8061  0.9802
11648SOL     OW39011   9.558   1.222   4.789 -0.2518 -0.0410 -0.2314
11648SOL    HW139012   9.534   1.139   4.840  0.2157  0.4672  0.8223
11648SOL    HW239013   9.483   1.288   4.796 -0.0785  0.1288  0.0132
11649SOL     OW39014   3.409   8.317   0.715 -0.8594 -0.5965 -0.0313
11649SOL    HW139015   3.494   8.354   0.752 -1.6288  1.8047 -0.5919
11649SOL    HW239016   3.332   8.368   0.752 -1.8922 -0.9387 -1.6593
11650SOL     OW39017   9.014   3.500   3.788  0.1034  0.6606 -0.2770
11650SOL    HW139018   8.995   3.478   3.884 -2.9813  0.2679 -0.9177
11650SOL    HW239019   9.068   3.426   3.748 -1.0719 -0.5905  0.4068
11651SOL     OW39020   5.968   1.827   5.075  0.5082  0.4303  0.1238
11651SOL    HW139021   5.922   1.913   5.056  0.6997  0.1844 -1.4795
11651SOL    HW239022   6.026   1.801   4.997  0.3571 -1.2069  0.5255
11652SOL     OW39023   8.345   7.884   1.007  0.2658 -0.8305  0.2817
11652SOL    HW139024   8.269   7.882   1.072 -0.9772 -2.1374 -1.1729
11652SOL    HW239025   8.350   7.797   0.958 -1.0798  1.3014 -3.8713
11655SOL     OW39026   8.553   4.448   2.440 -0.3097 -0.1687 -0.2730
11655SOL    HW139027   8.457   4.419   2.442 -0.6039  0.8357  0.0607
11655SOL    HW239028   8.569   4.505   2.360 -0.1029  0.0372 -0.0866
11656SOL     OW39029  -0.002   3.502   4.706  0.7142  0.0213 -0.1650
11656SOL    HW139030  -0.044   3.498   4.796  0.3457  0.0184 -0.3361
11656SOL    HW239031   0.097   3.516   4.715  0.8039 -0.8404  0.2619
11658SOL     OW39032   9.313   0.915   1.933  0.3125 -0.1966 -0.1491
11658SOL    HW139033   9.216   0.919   1.910  0.7750 -1.9635 -2.6255
11658SOL    HW239034   9.325   0.862   2.016 -0.6499 -2.5954 -1.4786
11659SOL     OW39035   9.389   3.738   3.011 -0.0830  0.1529  0.2927
11659SOL    HW139036   9.481   3.710   2.984 -1.0605 -3.0900  0.1395
11659SOL    HW239037   9.382   3.736   3.111  0.1147  0.9033  0.3322
11660SOL     OW39038   4.104   4.414   0.104  0.1602 -0.2122  0.1284
11660SOL    HW139039   4.039   4.388   0.176  0.0893 -0.7200 -0.1202
11660SOL    HW239040   4.069   4.384   0.016  0.2174  0.4684 -0.1308
11661SOL     OW39041   1.280   0.421   0.725 -0.7470  0.6812 -0.3359
11661SOL    HW139042   1.239   0.379   0.805  0.3227  0.9562  0.3677
11661SOL    HW239043   1.325   0.351   0.669  0.0935  0.7261  0.2700
11662SOL     OW39044   1.831   9.137   5.034 -0.5457 -0.2665  0.6483
11662SOL    HW139045   1.807   9.044   5.062  2.5525 -1.2666  0.2164
11662SOL    HW239046   1.881   9.182   5.108  0.6049 -0.0519 -0.2428
11664SOL     OW39047   0.420   0.788   1.051  0.3841  0.0893  0.2634
11664SOL    HW139048   0.512   0.778   1.012 -0.4272  1.0779 -1.9599
11664SOL    HW239049   0.395   0.703   1.099  1.4354 -1.1485 -1.3269
11665SOL     OW39050   7.645   2.126   2.716  0.6759  0.1229 -0.5961
11665SOL    HW139051   7.554   2.085   2.706 -0.0693  1.4913  0.2858
11665SOL    HW239052   7.690   2.132   2.627 -0.0550 -0.6680 -1.0228
11667SOL     OW39053   1.840   0.689   4.138 -0.2510 -0.2997  0.0097
11667SOL    HW139054   1.822   0.746   4.218 -1.0055 -0.5790  0.0421
11667SOL    HW239055   1.903   0.737   4.076 -1.2024  0.7419 -0.1647
11668SOL     OW39056   4.119   9.714   2.728  0.3062 -0.0045 -0.1820
11668SOL    HW139057   4.049   9.784   2.712  0.5627 -0.4500 -3.6246
11668SOL    HW239058   4.190   9.752   2.787  0.2762  2.6087 -1.7216
11669SOL     OW39059   8.736   5.011   2.531 -0.2257  0.0323  0.4573
11669SOL    HW139060   8.697   4.965   2.610 -1.4332 -0.9548 -0.6929
11669SOL    HW239061   8.713   4.960   2.448 -1.1067  2.4060 -0.7916
11670SOL     OW39062   2.912   8.279   1.410 -0.2187  0.4621 -0.2401
11670SOL    HW139063   2.833   8.226   1.378 -0.0320 -1.3486  2.1244
11670SOL    HW239064   2.995   8.224   1.399  0.3328  1.2833 -0.1383
11671SOL     OW39065   8.304   9.438   1.545 -0.8340  0.6247 -0.1256
11671SOL    HW139066   8.392   9.391   1.553 -0.9724  0.0602 -1.7818
11671SOL    HW239067   8.313   9.531   1.580 -0.2069 -0.1927  1.9238
11672SOL     OW39068   4.162   8.900   1.589 -0.1121 -0.2327 -0.4915
11672SOL    HW139069   4.195   8.983   1.635 -0.2188 -0.9866  0.9647
11672SOL    HW239070   4.156   8.826   1.655 -0.5757 -1.2570 -1.6742
11675SOL     OW39071   3.222   1.128   1.322 -0.1747  0.3425  0.4285
11675SOL    HW139072   3.259   1.208   1.275 -0.4295 -0.5365 -1.3059
11675SOL    HW239073   3.133   1.151   1.362  0.5664  1.4169  1.4876
11676SOL     OW39074   1.509   0.640   4.885 -0.0125 -0.0639  0.1173
11676SOL    HW139075   1.428   0.616   4.832 -0.3732  0.4842  0.4169
11676SOL    HW239076   1.565   0.558   4.900  0.3774 -0.1275 -1.5903
11677SOL     OW39077   1.177   9.593   0.337  0.2481  0.5561 -0.2609
11677SOL    HW139078   1.107   9.627   0.274  0.1507 -0.7655 -0.8661
11677SOL    HW239079   1.133   9.563   0.422  0.4916  3.4744  0.9757
11678SOL     OW39080   5.066   1.887   1.273 -0.1581  1.0543  0.3567
11678SOL    HW139081   5.115   1.925   1.194 -0.9171  0.2604 -0.4925
11678SOL    HW239082   5.094   1.792   1.287  0.5365  1.4143  1.5142
11679SOL     OW39083   1.003   3.737   1.843 -0.0251  0.4149  0.0965
11679SOL    HW139084   1.012   3.836   1.850  0.9678  0.3234  0.2259
11679SOL    HW239085   1.006   3.710   1.746  1.2049  0.3953  0.1244
11681SOL     OW39086   2.473   2.902   0.121 -0.5237  0.5356 -0.4124
11681SOL    HW139087   2.434   2.928   0.033 -1.0647  0.3590 -0.2267
11681SOL    HW239088   2.532   2.975   0.154 -1.6047  1.2956 -0.1547
11682SOL     OW39089   1.394   0.976   3.577  0.3830  0.3317  0.0329
11682SOL    HW139090   1.471   0.966   3.641  1.1492  0.7476 -0.7999
11682SOL    HW239091   1.334   1.050   3.608 -0.4707 -0.9324  1.4521
11683SOL     OW39092   9.675   5.106   0.517  0.1599 -0.1885  0.5888
11683SOL    HW139093   9.773   5.122   0.503  0.2547 -0.9413  0.3572
11683SOL    HW239094   9.653   5.115   0.614  0.0979  1.8823  0.4089
11684SOL     OW39095   2.113   4.589   5.314  0.0242 -0.1842 -0.3720
11684SOL    HW139096   2.074   4.679   5.294  1.4111  0.4180 -0.4227
11684SOL    HW239097   2.086   4.524   5.243  0.5177  0.6457 -1.3270
11685SOL     OW39098   3.090   8.211   1.667  0.9331 -0.3233 -0.1594
11685SOL    HW139099   3.038   8.251   1.742  0.0903  0.7994 -1.3065
11685SOL    HW239100   3.074   8.113   1.663  0.7904 -0.3508  0.9680
11686SOL     OW39101   8.703   3.581   4.663  0.4361 -0.6300 -0.1437
11686SOL    HW139102   8.620   3.624   4.699  0.0783 -0.4552 -1.1446
11686SOL    HW239103   8.690   3.482   4.658  0.5601 -0.6735  0.3857
11687SOL     OW39104   3.026   4.197   3.318  0.5544 -0.2250  0.2946
11687SOL    HW139105   3.097   4.145   3.272  1.3691 -0.9872  2.3511
11687SOL    HW239106   3.006   4.155   3.407 -2.0092  0.3466  0.0393
11688SOL     OW39107   8.453   3.437   0.140 -0.0161 -0.4490 -0.2918
11688SOL    HW139108   8.454   3.383   0.224 -0.8368  1.3868  0.9303
11688SOL    HW239109   8.358   3.453   0.112  0.2019  0.7739 -0.3525
11689SOL     OW39110   3.567   6.516   2.370 -0.4349 -1.1484  0.4606
11689SOL    HW139111   3.535   6.423   2.387  0.0735 -1.6305 -1.1192
11689SOL    HW239112   3.634   6.515   2.296  1.6202  0.1245  2.2357
11690SOL     OW39113   0.601   0.501   3.807 -0.0743  0.3689  0.2289
11690SOL    HW139114   0.591   0.402   3.815 -2.6860  0.4356 -1.6771
11690SOL    HW239115   0.512   0.545   3.815  0.6928  2.3815 -1.6250
11691SOL     OW39116   1.530   9.635   3.636  0.7271 -0.4966  0.5791
11691SOL    HW139117   1.508   9.622   3.733 -1.2953  0.8439  0.3312
11691SOL    HW239118   1.451   9.608   3.581  1.7307 -0.8831 -0.6813
11692SOL     OW39119   6.273   5.236   0.436 -0.3884 -0.1077  0.0971
11692SOL    HW139120   6.194   5.189   0.474 -0.2642 -1.8839 -1.7635
11692SOL    HW239121   6.355   5.210   0.487 -0.6773 -0.0773  0.5721
11693SOL     OW39122   6.851   9.067   3.564  0.5132 -1.0318  0.0258
11693SOL    HW139123   6.864   8.998   3.635  0.5742 -2.8795 -1.7532
11693SOL    HW239124   6.754   9.077   3.544  0.3114  1.0839  1.8824
11694SOL     OW39125   1.307   3.919   1.710 -0.5653 -0.6303 -0.1711
11694SOL    HW139126   1.244   3.852   1.669  0.8781 -1.7220 -0.6513
11694SOL    HW239127   1.362   3.874   1.780  2.0608 -0.5621 -2.1121
11696SOL     OW39128   9.202   4.404   3.038  0.0472  0.1933 -0.6339
11696SOL    HW139129   9.285   4.356   3.011  0.1534  0.1039 -0.1388
11696SOL    HW239130   9.195   4.406   3.137  0.3828  1.7841 -0.6334
11697SOL     OW39131   3.641   2.515   0.224  0.2177 -0.0988  0.2533
11697SOL    HW139132   3.591   2.530   0.138  0.1620  0.1553  0.3282
11697SOL    HW239133   3.689   2.427   0.220 -0.0407 -0.2315  0.0863
11698SOL     OW39134   2.038   1.402   3.308 -0.2639  0.1056 -0.1210
11698SOL    HW139135   2.024   1.498   3.288 -3.5239 -0.2781  0.0750
11698SOL    HW239136   2.018   1.347   3.227 -1.3431 -0.5889  0.5914
11699SOL     OW39137   8.601   5.053   0.635 -0.4449  0.1592 -0.3943
11699SOL    HW139138   8.561   4.983   0.694 -2.1456  1.0169 -0.4910
11699SOL    HW239139   8.529   5.098   0.583  0.7770  1.0639 -1.3402
11701SOL     OW39140   2.103   6.335   2.468  0.4213  0.1724  0.0361
11701SOL    HW139141   2.124   6.384   2.384  1.1572 -1.4828 -0.7758
11701SOL    HW239142   2.187   6.310   2.515  0.0637 -0.2873  0.4433
11702SOL     OW39143   3.348   2.068   4.930 -0.3525  0.2345 -0.1640
11702SOL    HW139144   3.333   2.167   4.938 -0.6644  0.2401 -0.7481
11702SOL    HW239145   3.445   2.048   4.943 -0.3146  0.6026  0.1280
11703SOL     OW39146   9.804   2.575   0.243 -0.7188  0.0664  0.3879
11703SOL    HW139147   9.831   2.480   0.228  0.4848  0.4406  0.1012
11703SOL    HW239148   9.883   2.628   0.273 -0.8716  1.4092 -1.4444
11704SOL     OW39149   3.346   6.814   4.283 -0.4829  0.4476  0.0280
11704SOL    HW139150   3.422   6.821   4.218 -1.6978  0.2605 -1.4329
11704SOL    HW239151   3.264   6.784   4.235 -1.0700 -1.0553  1.9239
11705SOL     OW39152   0.518   4.881   0.274  0.1167  0.0395  0.0575
11705SOL    HW139153   0.425   4.855   0.300  0.3524  1.1748  2.0664
11705SOL    HW239154   0.549   4.821   0.200 -1.3639 -1.8340  0.9068
11706SOL     OW39155   8.458   5.166   3.554  0.3476 -0.1283 -0.6168
11706SOL    HW139156   8.515   5.248   3.546  1.2805 -0.6454  0.5163
11706SOL    HW239157   8.511   5.086   3.526  0.0100 -0.5555 -0.0462
11707SOL     OW39158   9.412   4.218   2.592 -0.0359 -0.0730  0.2406
11707SOL    HW139159   9.358   4.285   2.643 -0.2687 -0.4080  0.4357
11707SOL    HW239160   9.385   4.126   2.619  0.1426 -0.2484 -0.1750
11709SOL     OW39161   1.717   0.247   2.228 -0.8613 -0.1084 -0.2386
11709SOL    HW139162   1.725   0.241   2.128  1.5493 -0.2785 -0.0562
11709SOL    HW239163   1.800   0.212   2.270 -2.4632 -1.4127  1.8976
11711SOL     OW39164   1.187   7.812   0.976  0.6195 -0.2134 -0.2347
11711SOL    HW139165   1.149   7.848   1.062  1.1714  1.1139 -0.5277
11711SOL    HW239166   1.112   7.793   0.912  0.2843 -0.0345  0.0997
11712SOL     OW39167   4.262   9.963   2.589  1.0877  0.0239 -0.1465
11712SOL    HW139168   4.228   9.920   2.505  1.8141  2.3740 -1.6788
11712SOL    HW239169   4.187  10.009   2.636  1.1561  0.8967 -0.8781
11713SOL     OW39170   6.243   1.127   2.510  0.6876 -0.7290 -0.1710
11713SOL    HW139171   6.155   1.144   2.466  1.4034 -1.8075 -2.0570
11713SOL    HW239172   6.298   1.066   2.453  2.2351 -0.9528  1.5095
11714SOL     OW39173   1.080   9.785   1.210 -0.0268 -0.1182 -0.1417
11714SOL    HW139174   1.169   9.740   1.206 -0.5871 -1.2891  0.3526
11714SOL    HW239175   1.068   9.844   1.131  0.4663 -1.3220 -1.1164
11715SOL     OW39176   6.214   8.538   2.463 -0.1809 -0.9067  0.1078
11715SOL    HW139177   6.183   8.605   2.531  2.1075 -1.3063  1.5973
11715SOL    HW239178   6.177   8.448   2.485  1.5984 -1.2943  1.6223
11716SOL     OW39179   3.341   8.313   3.772 -0.1226  0.5423 -0.3784
11716SOL    HW139180   3.377   8.291   3.863 -0.2788 -0.7534 -0.6241
11716SOL    HW239181   3.280   8.392   3.779 -1.8424 -0.8670  1.0052
11718SOL     OW39182   5.450   6.055   1.563  0.7186  0.1323 -0.0701
11718SOL    HW139183   5.516   6.053   1.638 -0.8260 -1.2944  1.2785
11718SOL    HW239184   5.400   6.141   1.565  0.0095 -0.3042  1.1329
11719SOL     OW39185   9.540   1.401   2.211  0.0579  0.4422 -0.4564
11719SOL    HW139186   9.441   1.403   2.228  0.2172  0.5494  0.5137
11719SOL    HW239187   9.566   1.312   2.175 -0.5991  0.8776 -2.0524
11720SOL     OW39188   8.305   1.591   0.464 -0.3161  0.1645 -0.0835
11720SOL    HW139189   8.333   1.625   0.374 -1.5995  1.1977 -0.1170
11720SOL    HW239190   8.323   1.493   0.471  1.4701  0.4246 -0.7904
11721SOL     OW39191   3.099   7.113   5.102  0.6682  0.0947 -0.1937
11721SOL    HW139192   3.098   7.070   5.012 -0.0636  0.2047 -0.2416
11721SOL    HW239193   3.193   7.117   5.136  1.0733  1.0872 -1.4287
11722SOL     OW39194   2.942   4.293   4.941 -0.0057  0.6515  0.1564
11722SOL    HW139195   2.868   4.231   4.967 -0.8134  0.8410 -1.6099
11722SOL    HW239196   2.999   4.249   4.871  1.4382  0.6068  1.3089
11723SOL     OW39197   4.029   7.085   3.324 -0.4987 -0.0335 -0.3148
11723SOL    HW139198   4.112   7.108   3.375 -0.7647  1.9374 -0.7209
11723SOL    HW239199   3.989   7.001   3.361  0.6702  0.0114  1.0975
11725SOL     OW39200   9.919   2.786   0.645 -0.2501  0.2264 -0.1424
11725SOL    HW139201   9.831   2.780   0.692  0.8825 -0.1986  1.9988
11725SOL    HW239202   9.976   2.856   0.689 -0.3521  2.1971 -2.9897
11726SOL     OW39203   2.090   1.612   4.198 -0.1466 -0.2256 -0.6866
11726SOL    HW139204   2.045   1.648   4.280 -0.3014 -1.8777 -0.0137
11726SOL    HW239205   2.182   1.651   4.190 -0.1403 -0.0288  0.2701
11727SOL     OW39206   9.136   0.603   4.348  0.1298 -0.5656  0.4598
11727SOL    HW139207   9.055   0.556   4.384 -0.0868 -0.9101 -0.4455
11727SOL    HW239208   9.182   0.543   4.283  2.1104 -1.0460  2.2511
11728SOL     OW39209   0.981   7.864   4.087 -0.0361 -0.3046 -0.0755
11728SOL    HW139210   0.987   7.906   3.996  1.1009  0.4672  0.3455
11728SOL    HW239211   1.001   7.933   4.156 -0.4147 -1.0108  0.7414
11730SOL     OW39212   5.992   7.847   2.841 -0.2273 -0.2875  0.3863
11730SOL    HW139213   5.902   7.875   2.875 -0.5622 -1.1599  0.2529
11730SOL    HW239214   5.986   7.828   2.743 -0.2719 -1.7833  0.6568
11731SOL     OW39215   8.524   5.524   3.259 -0.5704  0.0154 -0.0534
11731SOL    HW139216   8.571   5.591   3.315 -1.1566 -1.4712  2.2616
11731SOL    HW239217   8.428   5.548   3.250 -0.0969  1.2691 -2.0362
11732SOL     OW39218   4.767   8.679   5.048 -0.0585  0.0328 -0.3927
11732SOL    HW139219   4.733   8.597   5.093  1.1538  0.9324  2.2696
11732SOL    HW239220   4.730   8.760   5.094  1.0457  0.9941 -1.1620
11733SOL     OW39221   9.204   5.032   0.930  0.3402 -0.1824  0.0688
11733SOL    HW139222   9.268   5.034   1.006 -1.7429  2.4473  1.8543
11733SOL    HW239223   9.241   5.082   0.852  0.8613  0.4437  0.7240
11734SOL     OW39224   9.709   8.484   3.150  0.1817 -0.1424  0.1281
11734SOL    HW139225   9.651   8.516   3.224  0.2397 -0.5963  0.3711
11734SOL    HW239226   9.790   8.439   3.188 -1.3043 -3.1953 -0.1643
11735SOL     OW39227   9.684   4.239   4.594 -0.3223 -0.3784 -0.5931
11735SOL    HW139228   9.614   4.196   4.650  0.2032 -0.5450 -0.0550
11735SOL    HW239229   9.681   4.202   4.501 -0.7243 -0.6250 -0.4829
11736SOL     OW39230   8.881   4.771   4.279 -0.3897  0.1620  0.1511
11736SOL    HW139231   8.973   4.802   4.254 -0.2711  0.0962  0.5008
11736SOL    HW239232   8.883   4.732   4.372 -1.1989  2.1354  1.0233
11737SOL     OW39233   1.029   3.649   1.136 -0.3959  0.4767 -0.6083
11737SOL    HW139234   0.978   3.565   1.156 -2.1662  1.5016 -0.7113
11737SOL    HW239235   1.107   3.627   1.078  0.9974 -1.5493  1.9407
11738SOL     OW39236   2.201   1.159   2.406  0.2464  0.2088 -0.2946
11738SOL    HW139237   2.243   1.093   2.344 -0.8572 -0.7927  0.0277
11738SOL    HW239238   2.190   1.246   2.359 -0.6828 -0.5745 -1.5455
11739SOL     OW39239   4.949   3.579   0.963  0.1290 -0.0057  0.3442
11739SOL    HW139240   5.021   3.571   1.032  0.5073 -0.5589 -0.1065
11739SOL    HW239241   4.912   3.671   0.965 -0.3312 -0.2033  1.7453
11741SOL     OW39242   0.608   2.399   2.647  0.0068 -0.3267  0.2174
11741SOL    HW139243   0.612   2.464   2.722 -0.6435 -0.2270  0.1696
11741SOL    HW239244   0.554   2.438   2.572  0.0118 -0.7262  0.0040
11742SOL     OW39245   2.099   5.864   3.945 -0.3261  0.8192  0.5583
11742SOL    HW139246   2.049   5.948   3.965 -1.4069  0.8653 -2.1251
11742SOL    HW239247   2.132   5.866   3.851 -3.4287 -3.2157 -0.7655
11743SOL     OW39248   3.110   8.156   5.034  0.1143  0.1582  0.6199
11743SOL    HW139249   3.021   8.171   4.992  0.3628 -1.0050 -0.3722
11743SOL    HW239250   3.102   8.159   5.133 -0.3797  3.5669  0.5239
11744SOL     OW39251   8.368   1.668   3.453 -0.0862  0.4651 -0.2222
11744SOL    HW139252   8.456   1.690   3.496  0.4719 -0.9131 -0.6359
11744SOL    HW239253   8.297   1.728   3.490  0.8382  0.9145  0.8500
11745SOL     OW39254   8.584   9.708   1.594  0.6668  0.3488 -0.2293
11745SOL    HW139255   8.661   9.757   1.634 -0.4657  0.9406  1.2561
11745SOL    HW239256   8.498   9.750   1.623 -0.2630 -1.0892 -0.8186
11746SOL     OW39257   3.051   7.964   1.631 -0.0290 -0.0053  0.2481
11746SOL    HW139258   3.085   7.923   1.546 -1.4744  1.1835 -0.9178
11746SOL    HW239259   2.987   7.900   1.674 -1.0093  0.3244 -0.7109
11748SOL     OW39260   4.957   2.649   2.101  0.2366 -0.0874  0.2063
11748SOL    HW139261   5.044   2.646   2.052 -0.5582 -0.3192 -1.1989
11748SOL    HW239262   4.900   2.571   2.074 -0.4670  0.1359  1.0122
11750SOL     OW39263   8.016   3.798   1.677  0.0769 -0.3460 -0.1749
11750SOL    HW139264   7.985   3.714   1.723  0.3117 -0.2872  0.0937
11750SOL    HW239265   8.096   3.778   1.621 -0.1586 -0.3999 -0.4957
11751SOL     OW39266   6.879   3.668   0.214  0.4132  0.8729  0.7473
11751SOL    HW139267   6.799   3.686   0.157  0.7521 -1.0347 -0.4018
11751SOL    HW239268   6.851   3.647   0.307 -0.5110 -0.4020  0.2051
11752SOL     OW39269   1.448   0.656   4.072  0.2911 -0.2464 -0.1158
11752SOL    HW139270   1.415   0.728   4.133  1.2800  1.6726 -1.7796
11752SOL    HW239271   1.426   0.566   4.111 -0.4967  0.9355  2.2509
11753SOL     OW39272   4.782   3.302   4.858  0.3129 -0.2640 -0.3892
11753SOL    HW139273   4.845   3.317   4.781  0.5363 -0.7021 -0.2931
11753SOL    HW239274   4.722   3.381   4.867  2.3488  1.1973  0.9640
11754SOL     OW39275   6.967   9.985   3.299  0.2161  0.2091  0.2693
11754SOL    HW139276   7.057   9.972   3.341  1.5104  1.0035 -2.1585
11754SOL    HW239277   6.931   9.897   3.269  0.8238  0.0517  0.0030
11755SOL     OW39278   3.792   6.694   4.640 -0.4458 -0.1653 -0.2783
11755SOL    HW139279   3.819   6.614   4.694 -2.8767 -0.7709  0.0768
11755SOL    HW239280   3.736   6.665   4.563  1.3393  0.9133 -2.0160
11757SOL     OW39281   8.941   8.487   1.965  0.3149  0.5172  0.2626
11757SOL    HW139282   8.953   8.486   2.065 -0.9014  0.8566  0.4125
11757SOL    HW239283   8.938   8.392   1.932  0.3477  0.3987  0.5900
11758SOL     OW39284   8.726   9.693   4.654 -0.4159 -0.3963  0.5306
11758SOL    HW139285   8.756   9.775   4.702 -2.0001 -0.3310  1.4415
11758SOL    HW239286   8.676   9.634   4.717 -0.2407 -1.5560 -0.3907
11761SOL     OW39287   3.771   6.360   1.038 -0.2282 -0.0825  0.4302
11761SOL    HW139288   3.814   6.291   0.979  0.1554  0.1175  0.4768
11761SOL    HW239289   3.838   6.431   1.061 -0.8362  0.7532 -0.3047
11763SOL     OW39290   9.232   3.233   4.200 -0.0401  0.1937 -0.1940
11763SOL    HW139291   9.244   3.197   4.292  0.6884  0.4541 -0.1898
11763SOL    HW239292   9.293   3.185   4.137  0.1605  0.6802 -0.3737
11764SOL     OW39293   2.551   6.549   0.653 -0.8984  0.3878 -0.1638
11764SOL    HW139294   2.520   6.456   0.668 -3.0559  1.0719 -0.2755
11764SOL    HW239295   2.527   6.578   0.560  0.8631  0.6448 -0.5657
11765SOL     OW39296   9.546   8.330   2.906  0.6153  0.4298  0.2485
11765SOL    HW139297   9.608   8.365   2.835  0.5652  0.4880  0.2325
11765SOL    HW239298   9.541   8.396   2.981  0.9278  0.2162  0.4563
11766SOL     OW39299   2.701   3.317   1.825 -0.2834  0.5503 -0.3719
11766SOL    HW139300   2.686   3.357   1.916  0.3931  0.0770 -0.0484
11766SOL    HW239301   2.662   3.377   1.755 -1.6872  0.4419  0.2908
11768SOL     OW39302   0.525   7.759   5.079  0.0071 -0.2795 -0.5658
11768SOL    HW139303   0.468   7.703   5.139 -0.9192 -0.4766 -1.6175
11768SOL    HW239304   0.604   7.707   5.049  0.4613 -0.1928  0.4407
11769SOL     OW39305   3.705   2.445   4.361 -0.1003  0.1810 -0.0393
11769SOL    HW139306   3.707   2.539   4.394 -1.8721  0.1079  0.3491
11769SOL    HW239307   3.732   2.384   4.435  1.3728  0.4049 -0.3905
11770SOL     OW39308   9.226   5.452   1.068 -0.9093 -0.1662 -0.8372
11770SOL    HW139309   9.245   5.498   1.154 -0.1759  1.3110 -1.7570
11770SOL    HW239310   9.128   5.430   1.062 -1.4959  2.3469 -0.8563
11771SOL     OW39311   0.327   6.170   2.327  0.1451 -0.3830 -0.0701
11771SOL    HW139312   0.249   6.141   2.383  0.1264 -1.6395 -0.7255
11771SOL    HW239313   0.303   6.163   2.230  0.6701  0.3862 -0.2573
11772SOL     OW39314   9.402   8.010   1.947  0.0191  1.0002  0.4545
11772SOL    HW139315   9.467   8.074   1.989  0.4202 -0.0230  1.4334
11772SOL    HW239316   9.337   7.979   2.016 -0.0533  0.2116  0.0385
11773SOL     OW39317   3.215   1.176   4.965 -0.0633 -0.1250 -0.4680
11773SOL    HW139318   3.116   1.161   4.966 -0.1766  0.5960  0.5903
11773SOL    HW239319   3.234   1.270   4.936  0.2523  0.0976  0.4570
11775SOL     OW39320   1.737   5.913   1.039  0.3209  0.2140  0.0633
11775SOL    HW139321   1.810   5.850   1.013  1.3113  1.0088  0.8729
11775SOL    HW239322   1.705   5.893   1.131 -0.5507 -0.1811 -0.3155
11777SOL     OW39323   4.753   1.019   2.086  0.3703  0.2167 -0.0465
11777SOL    HW139324   4.699   0.996   2.005  0.0904  0.4895  0.0600
11777SOL    HW239325   4.693   1.060   2.156  0.8131  1.0776 -0.1595
11778SOL     OW39326   6.266   9.907   5.252 -0.4813  0.3807  0.1904
11778SOL    HW139327   6.323   9.909   5.170  0.2723  0.6951  0.7119
11778SOL    HW239328   6.181   9.957   5.235  0.5626  2.2067  0.2286
11779SOL     OW39329   7.800   4.616   5.121 -0.2784 -0.1068  0.2872
11779SOL    HW139330   7.778   4.578   5.211  0.0253 -0.1019  0.3648
11779SOL    HW239331   7.898   4.639   5.117 -0.3328  0.0913  0.0296
11780SOL     OW39332   2.993   9.629   0.451 -0.4601 -0.5744  0.6257
11780SOL    HW139333   3.042   9.673   0.525  3.2119 -2.2780 -0.6548
11780SOL    HW239334   2.988   9.690   0.372  0.3055 -0.6748  0.4989
11781SOL     OW39335   4.470   0.098   4.091 -0.2819  0.3411 -0.1426
11781SOL    HW139336   4.434   0.014   4.133  1.0798  0.7431  1.8720
11781SOL    HW239337   4.425   0.112   4.002 -2.8194 -0.8315  0.8930
11782SOL     OW39338   9.816   4.566   3.880 -0.0078  0.0604  0.2797
11782SOL    HW139339   9.797   4.470   3.864  3.4491 -0.8113  1.0944
11782SOL    HW239340   9.805   4.587   3.977 -0.0609  0.3384  0.2156
11783SOL     OW39341   0.282   6.899   2.514  0.1789 -0.0010 -0.0002
11783SOL    HW139342   0.276   6.914   2.612 -0.7645 -0.6296  0.0427
11783SOL    HW239343   0.265   6.985   2.466 -0.2381  0.1184  0.3610
11784SOL     OW39344   2.912   0.590   4.802  0.1832  0.5415 -0.1240
11784SOL    HW139345   2.996   0.615   4.755 -0.3077 -0.7256 -1.7354
11784SOL    HW239346   2.872   0.670   4.845  0.3152  1.8765 -2.4247
11785SOL     OW39347   0.904   6.444   3.346  0.0702 -0.3589 -0.4398
11785SOL    HW139348   0.991   6.490   3.361  0.0548 -0.5192  0.1455
11785SOL    HW239349   0.913   6.347   3.365  0.1347 -0.6278 -1.8193
11787SOL     OW39350   6.915   0.324   4.436  0.5867  0.2291  0.3810
11787SOL    HW139351   6.930   0.272   4.519  0.6236  0.3326  0.4398
11787SOL    HW239352   6.975   0.290   4.363 -0.3557 -0.7076  0.0259
11788SOL     OW39353   3.307   5.593   1.197 -0.5705  0.2574  0.0088
11788SOL    HW139354   3.279   5.685   1.170 -0.0788  0.0550 -1.2137
11788SOL    HW239355   3.228   5.543   1.233 -1.0854  0.7599 -0.4263
11789SOL     OW39356   2.093   2.933   2.641 -0.3323 -0.2499 -0.0795
11789SOL    HW139357   2.113   3.000   2.713 -0.9982  0.4530 -0.5411
11789SOL    HW239358   2.041   2.857   2.681  0.9401 -0.7903  0.5671
11790SOL     OW39359   4.601   7.648   4.070  0.2016  0.0126  0.1269
11790SOL    HW139360   4.503   7.658   4.081  0.2523  1.9706 -1.1315
11790SOL    HW239361   4.621   7.560   4.026 -0.8633 -1.0578  1.7307
11791SOL     OW39362   0.140   9.159   2.285  0.3721 -0.0756  0.3308
11791SOL    HW139363   0.190   9.211   2.354 -1.6356  0.0622  1.7259
11791SOL    HW239364   0.173   9.065   2.283  0.5870 -0.0226  1.3206
11793SOL     OW39365   4.488   3.831   1.431  0.3422 -0.0867  0.9888
11793SOL    HW139366   4.528   3.743   1.456  0.2097 -0.1893  0.8375
11793SOL    HW239367   4.423   3.859   1.502 -0.6368 -0.7635  0.3772
11794SOL     OW39368   0.967   7.596   3.390 -0.0199  0.0559 -0.0538
11794SOL    HW139369   1.000   7.509   3.426  0.7671 -0.1645 -1.2906
11794SOL    HW239370   0.940   7.584   3.294 -1.5779  0.7587  0.2829
11795SOL     OW39371   9.475   2.177   2.022  0.4859  0.0171 -0.7321
11795SOL    HW139372   9.377   2.168   2.006 -0.1136  0.8595  2.1439
11795SOL    HW239373   9.511   2.253   1.968 -1.4277  2.7633  1.7336
11797SOL     OW39374   5.137   3.053   3.541  0.5007 -0.2985  0.5282
11797SOL    HW139375   5.210   2.989   3.517  0.2782 -1.5914  3.0735
11797SOL    HW239376   5.082   3.014   3.615 -1.1027  1.8449  0.5228
11798SOL     OW39377   9.141   9.381   3.686 -0.2000 -0.1347 -0.2640
11798SOL    HW139378   9.170   9.372   3.590  2.3057  0.2074  0.4404
11798SOL    HW239379   9.144   9.477   3.713  2.1252 -0.5577  1.0604
11799SOL     OW39380   9.899   1.889   2.589  0.9397  0.3502 -0.2482
11799SOL    HW139381   9.953   1.958   2.637  0.7778 -0.5176  1.2411
11799SOL    HW239382   9.805   1.889   2.626  0.3824  0.7325 -1.6583
11800SOL     OW39383   2.783   5.860   4.847  0.4367  0.1514  0.3763
11800SOL    HW139384   2.878   5.883   4.825 -0.0655  0.7300 -1.2573
11800SOL    HW239385   2.744   5.806   4.772 -0.7060  0.4162  0.7773
11801SOL     OW39386   3.799   5.034   3.704  0.1568  0.4340  0.3529
11801SOL    HW139387   3.852   5.118   3.695  1.3527 -0.2214  1.2020
11801SOL    HW239388   3.861   4.956   3.718 -1.0235 -0.3375  1.3958
11803SOL     OW39389   3.211   0.354   1.183  0.1341 -0.5592 -0.3486
11803SOL    HW139390   3.231   0.445   1.220  1.6065 -1.0319  0.0201
11803SOL    HW239391   3.293   0.297   1.185 -1.3210 -2.6833  1.5923
11804SOL     OW39392   0.226   3.998   2.674 -0.1031 -0.0826  0.2180
11804SOL    HW139393   0.163   4.021   2.749  0.4206 -0.8976  0.9250
11804SOL    HW239394   0.313   4.044   2.688 -0.7991  1.7187 -1.2146
11806SOL     OW39395   3.314   3.935   2.588  0.1327 -0.7450  0.5258
11806SOL    HW139396   3.266   4.000   2.646 -1.8435 -1.4659 -0.2434
11806SOL    HW239397   3.277   3.939   2.495 -0.4726 -3.3529  0.5995
11807SOL     OW39398   4.676   1.919   0.744 -0.5505  0.0036  0.0690
11807SOL    HW139399   4.759   1.972   0.759 -1.9159  1.7944  1.4286
11807SOL    HW239400   4.661   1.858   0.822 -0.7747  0.0151  0.0344
11808SOL     OW39401   0.951   5.596   3.827 -0.5061 -0.1397  0.0510
11808SOL    HW139402   0.884   5.608   3.900 -0.1265 -1.8823  0.7034
11808SOL    HW239403   1.014   5.674   3.826 -1.1021  0.3633  0.9435
11809SOL     OW39404   0.467   3.118   0.769  0.2502 -0.0205  0.2121
11809SOL    HW139405   0.436   3.117   0.864 -2.8054 -0.2067 -0.7240
11809SOL    HW239406   0.450   3.208   0.728 -1.3754 -0.8481 -1.0135
11811SOL     OW39407   2.720   7.200   3.374 -0.2033  0.2637  0.1812
11811SOL    HW139408   2.799   7.214   3.315  0.4823 -0.6418  0.8731
11811SOL    HW239409   2.671   7.118   3.344 -1.6927  1.5927 -1.1208
11813SOL     OW39410   6.876   7.704   4.741  0.3203  0.2351 -0.0897
11813SOL    HW139411   6.970   7.672   4.726  0.4125  0.0309  0.9159
11813SOL    HW239412   6.821   7.684   4.660  1.1637  0.4306 -0.7202
11814SOL     OW39413   3.801   1.083   2.337  0.0388  0.3838 -0.2390
11814SOL    HW139414   3.718   1.121   2.298 -0.4864 -1.0564 -0.5557
11814SOL    HW239415   3.797   0.983   2.334  1.2177  0.2838  0.9221
11815SOL     OW39416   8.428   9.904   1.747  0.4938  0.3705  0.5303
11815SOL    HW139417   8.447   9.880   1.842  1.8345 -0.0737  0.1654
11815SOL    HW239418   8.465   9.995   1.728  0.1644  0.4872  0.4521
11817SOL     OW39419   0.729   0.259   4.758  0.3380  0.1600 -0.4883
11817SOL    HW139420   0.634   0.242   4.729 -0.1973  1.7881  0.2676
11817SOL    HW239421   0.750   0.356   4.747  1.6805 -0.0618  0.0906
11818SOL     OW39422   2.845   9.522   3.246 -0.1626  0.2183  0.2817
11818SOL    HW139423   2.871   9.532   3.342 -0.1582  0.0683  0.2949
11818SOL    HW239424   2.927   9.532   3.189  0.4026 -3.0584  0.4651
11820SOL     OW39425   5.493   9.902   2.330 -0.4385 -0.4018 -0.7414
11820SOL    HW139426   5.497   9.807   2.301  1.5189 -0.4542 -0.3778
11820SOL    HW239427   5.498   9.962   2.251  2.1576 -0.5765 -0.7481
11823SOL     OW39428   2.457   2.503   2.473 -0.4940  0.6406  0.0885
11823SOL    HW139429   2.518   2.573   2.437  0.2502  0.1277  0.3400
11823SOL    HW239430   2.375   2.546   2.511 -1.0342  1.2304 -1.6990
11824SOL     OW39431   2.680   3.434   2.073 -0.3160 -0.2633  0.0327
11824SOL    HW139432   2.626   3.403   2.151  0.4464  0.4863  0.8628
11824SOL    HW239433   2.776   3.442   2.100  0.4303 -2.5877 -1.6925
11825SOL     OW39434   8.518   5.071   1.507  0.0787  0.1649  0.3272
11825SOL    HW139435   8.597   5.036   1.558 -0.9442 -1.6737  0.6973
11825SOL    HW239436   8.510   5.170   1.521  1.9086  0.2569  0.8320
11828SOL     OW39437   5.839   0.920   2.447 -0.4349 -0.1519  0.4796
11828SOL    HW139438   5.770   0.877   2.388 -1.8868  2.2885  0.3191
11828SOL    HW239439   5.911   0.961   2.391  0.5429 -1.6632  0.6042
11829SOL     OW39440   9.517   0.966   4.935 -0.6589 -0.2513 -0.4097
11829SOL    HW139441   9.472   0.886   4.974 -0.5949 -0.5220 -0.8845
11829SOL    HW239442   9.612   0.943   4.912 -0.9796 -0.3690 -1.6144
11830SOL     OW39443   9.115   3.704   2.969  0.0682  0.0621  0.3572
11830SOL    HW139444   9.041   3.715   3.035  0.6729 -0.2179  1.0780
11830SOL    HW239445   9.203   3.708   3.016  0.4960 -0.2122 -0.4171
11831SOL     OW39446   2.186   6.800   2.833  0.1562 -0.2275 -0.0197
11831SOL    HW139447   2.139   6.889   2.832  0.2760 -0.1643 -0.6743
11831SOL    HW239448   2.280   6.813   2.863 -0.3947 -0.4427  1.8788
11832SOL     OW39449   6.312   0.455   2.355  0.1811  0.3633  0.0424
11832SOL    HW139450   6.232   0.514   2.340  0.1147  0.3147  0.2031
11832SOL    HW239451   6.382   0.506   2.404  0.9485  0.9566 -1.6340
11834SOL     OW39452   9.348   6.645   1.682  0.5330  0.0380 -0.1016
11834SOL    HW139453   9.439   6.643   1.641  0.4745 -0.6139 -0.2066
11834SOL    HW239454   9.356   6.667   1.779  0.6731  1.5533 -0.4436
11835SOL     OW39455   9.213   5.704   1.891  0.1128  0.0615 -0.0757
11835SOL    HW139456   9.186   5.698   1.987  1.1412  0.6456  0.2535
11835SOL    HW239457   9.313   5.707   1.884  0.0163  3.3033 -0.9359
11837SOL     OW39458   0.088   1.787   5.195 -0.4239  0.4908  0.0383
11837SOL    HW139459   0.033   1.866   5.223 -0.3545  1.4532 -2.3578
11837SOL    HW239460   0.175   1.819   5.158  1.0740 -0.9354  2.2072
11838SOL     OW39461   4.593   3.662   1.874 -0.2008  0.1200  0.6624
11838SOL    HW139462   4.565   3.575   1.914 -0.1386  0.5193  1.5843
11838SOL    HW239463   4.693   3.665   1.868 -0.2337 -0.1415  0.0274
11839SOL     OW39464   9.090   5.164   3.801  0.0761  0.3947 -0.0660
11839SOL    HW139465   9.070   5.118   3.887 -0.9181  0.2040 -0.3865
11839SOL    HW239466   9.150   5.107   3.745 -0.4384 -0.1328 -0.0913
11840SOL     OW39467   7.721   0.698   4.200  0.3704  0.4293 -0.2471
11840SOL    HW139468   7.653   0.759   4.242  1.5595  1.0464  0.8181
11840SOL    HW239469   7.809   0.744   4.197  2.0269 -2.2379  3.3544
11842SOL     OW39470   8.170   3.368   0.185  0.7257  0.4549 -0.2395
11842SOL    HW139471   8.156   3.454   0.234 -0.6828  0.4566 -0.6389
11842SOL    HW239472   8.084   3.317   0.180  1.7078 -1.3481  0.6709
11843SOL     OW39473   4.658   2.550   4.416  0.0216  0.4736 -0.4407
11843SOL    HW139474   4.671   2.461   4.460 -0.2232  0.2432 -0.8410
11843SOL    HW239475   4.723   2.560   4.341 -1.1318 -0.0933 -1.5261
11844SOL     OW39476   4.145   3.912   3.645 -0.0886 -0.5218  0.1025
11844SOL    HW139477   4.125   4.008   3.667 -0.6094 -0.8988  1.3332
11844SOL    HW239478   4.243   3.897   3.647  0.0257  0.0712 -0.5113
11845SOL     OW39479   5.022   7.019   1.625 -0.2525 -0.3948 -0.0732
11845SOL    HW139480   4.963   7.028   1.544 -0.6138  0.6935  0.3020
11845SOL    HW239481   5.080   7.100   1.633 -0.8551 -0.0829  1.2489
11846SOL     OW39482   2.966   9.193   1.357 -0.1676  0.6619  0.3952
11846SOL    HW139483   2.958   9.107   1.409 -2.3520 -0.6140 -1.9132
11846SOL    HW239484   3.062   9.216   1.345  0.6570 -3.3987 -1.9157
11847SOL     OW39485   2.811   6.391   4.306  0.1481  0.4003  0.0724
11847SOL    HW139486   2.911   6.393   4.294 -0.1109  1.4525 -2.1642
11847SOL    HW239487   2.785   6.456   4.377  0.8582  2.0568 -1.1527
11850SOL     OW39488   0.272   0.205   2.168  0.2020 -0.0299  0.0032
11850SOL    HW139489   0.199   0.143   2.139  1.7521 -1.1460 -1.6382
11850SOL    HW239490   0.252   0.298   2.134 -0.5517 -0.2808 -0.2607
11851SOL     OW39491   8.558   0.447   5.276  0.0139  0.1867 -0.0047
11851SOL    HW139492   8.537   0.384   5.350 -0.9329 -0.3182 -0.6946
11851SOL    HW239493   8.623   0.404   5.213  0.2191  0.3220  0.1132
11852SOL     OW39494   2.234   0.577   0.960  0.0147 -0.0374 -0.1758
11852SOL    HW139495   2.308   0.542   1.018 -0.8053 -1.2755  0.1485
11852SOL    HW239496   2.226   0.676   0.973  1.6580  0.1267 -0.2767
11853SOL     OW39497   3.303   8.168   4.211 -0.3964 -0.6355 -0.9481
11853SOL    HW139498   3.240   8.113   4.267 -0.0280 -1.3008 -1.1802
11853SOL    HW239499   3.255   8.205   4.133 -0.8010 -0.1036 -0.4512
11854SOL     OW39500   3.430   3.098   4.868  0.2673 -0.4193 -0.3071
11854SOL    HW139501   3.410   3.100   4.770  1.1082  0.1353 -0.4757
11854SOL    HW239502   3.516   3.050   4.884 -0.0422 -0.8109  0.1921
11855SOL     OW39503   2.430   1.327   2.019 -0.4728 -0.5814 -0.0859
11855SOL    HW139504   2.521   1.321   2.059  0.6574 -1.9174 -2.7230
11855SOL    HW239505   2.432   1.392   1.943 -1.5291 -1.1851 -0.6440
11856SOL     OW39506   2.240   7.022   1.214  0.5079  0.6902 -0.3266
11856SOL    HW139507   2.166   7.053   1.273 -0.5714 -0.8336 -0.8212
11856SOL    HW239508   2.238   7.072   1.128 -0.5299  0.0476 -0.6895
11857SOL     OW39509   3.735   9.530   2.682  0.1595 -0.2700 -0.0660
11857SOL    HW139510   3.682   9.454   2.645 -0.8130  1.2610 -1.8831
11857SOL    HW239511   3.731   9.527   2.782 -1.4960 -1.4889 -0.1438
11858SOL     OW39512   7.414   2.276   1.270  0.1086 -0.2312 -0.1122
11858SOL    HW139513   7.452   2.355   1.317  0.6716 -1.1303  0.9774
11858SOL    HW239514   7.469   2.256   1.189 -0.7375  1.1985 -1.0496
11859SOL     OW39515   3.188   3.356   0.096  0.3790  0.1182  0.1735
11859SOL    HW139516   3.159   3.326   0.186 -0.9054 -1.9985 -0.9179
11859SOL    HW239517   3.152   3.294   0.026  3.0522  0.5365 -1.6530
11860SOL     OW39518   8.728   7.340   5.308  0.3450 -0.1017 -0.2019
11860SOL    HW139519   8.778   7.351   5.222 -0.2982 -0.4118 -0.6150
11860SOL    HW239520   8.630   7.353   5.292  0.1247 -1.0551  0.3152
11861SOL     OW39521   1.308   9.088   2.140  0.1581 -0.3213 -0.5348
11861SOL    HW139522   1.230   9.122   2.087 -1.2328 -1.3776  0.8036
11861SOL    HW239523   1.277   9.019   2.205  1.8379  0.8562  1.5940
11862SOL     OW39524   0.432   9.279   2.115  0.1899  0.0062 -0.4305
11862SOL    HW139525   0.458   9.349   2.181 -2.5201 -1.2566  2.1200
11862SOL    HW239526   0.333   9.284   2.099  0.4221 -1.3332 -2.4897
11863SOL     OW39527   9.106   1.502   2.624 -0.0217 -0.0712 -0.4471
11863SOL    HW139528   9.179   1.553   2.577  1.0945 -1.6380 -0.4367
11863SOL    HW239529   9.124   1.501   2.722  0.2297 -0.9285 -0.5028
11864SOL     OW39530   0.242   2.568   4.693 -0.4923 -0.5899 -0.3641
11864SOL    HW139531   0.295   2.651   4.710 -0.3551 -0.7981  0.2207
11864SOL    HW239532   0.302   2.489   4.693 -0.6826 -0.7345 -0.5292
11865SOL     OW39533   0.780   0.536   1.885  0.2884  0.2530  0.6141
11865SOL    HW139534   0.880   0.535   1.883  0.2958 -1.6240  0.2856
11865SOL    HW239535   0.748   0.478   1.960 -0.5515 -0.7580 -0.5129
11866SOL     OW39536   9.071   0.772   2.211 -0.2043 -0.3702  0.3085
11866SOL    HW139537   9.102   0.696   2.154  2.0229 -0.7312  1.9287
11866SOL    HW239538   9.066   0.856   2.156  1.1284 -0.8789 -0.6040
11867SOL     OW39539   7.733   9.103   2.678  0.0689 -0.1778 -0.3375
11867SOL    HW139540   7.698   9.062   2.594  0.7550 -1.9986  0.2262
11867SOL    HW239541   7.802   9.173   2.655 -2.6655  2.2681 -1.3740
11868SOL     OW39542   4.408   3.057   1.504  0.3290 -0.3978 -0.5414
11868SOL    HW139543   4.316   3.076   1.540  0.3221 -0.0169 -0.7527
11868SOL    HW239544   4.407   2.968   1.457  0.0204 -0.3126 -0.7024
11869SOL     OW39545   5.828   0.613   3.570 -0.1967 -0.4986  0.4419
11869SOL    HW139546   5.739   0.576   3.545 -0.9198  0.0215  2.1393
11869SOL    HW239547   5.891   0.603   3.494 -1.7464 -0.7491 -0.8337
11870SOL     OW39548   6.594   4.981   1.157 -0.0919  1.1912  0.2780
11870SOL    HW139549   6.546   5.013   1.075  0.6100 -1.0774 -1.0887
11870SOL    HW239550   6.692   4.989   1.144  0.0027  2.4155  1.6161
11871SOL     OW39551   7.007   2.151   3.470 -0.3631  0.5856  0.8187
11871SOL    HW139552   7.049   2.230   3.427 -1.1191  0.3049 -0.4513
11871SOL    HW239553   6.966   2.178   3.557 -0.7474  1.6257  0.3186
11872SOL     OW39554   2.619   4.729   1.066  0.2548 -0.2679 -0.3292
11872SOL    HW139555   2.597   4.728   0.968 -0.4891  0.5119 -0.1734
11872SOL    HW239556   2.534   4.735   1.119  0.5905 -1.6124  0.3910
11873SOL     OW39557   1.397   1.553   2.340 -0.3356  0.1567 -0.0811
11873SOL    HW139558   1.353   1.468   2.368  0.9984 -0.6309 -0.2998
11873SOL    HW239559   1.485   1.562   2.388 -1.0298  2.0374  0.8969
11874SOL     OW39560   5.470   8.547   1.888 -0.3471  0.4382  0.1039
11874SOL    HW139561   5.549   8.510   1.839  0.6137  1.4440  0.8688
11874SOL    HW239562   5.486   8.644   1.909 -0.9819  0.1721  1.9094
11875SOL     OW39563   3.558   0.565   4.417 -0.1159  0.2591  0.8041
11875SOL    HW139564   3.576   0.466   4.418 -1.6826 -0.0451  1.8284
11875SOL    HW239565   3.586   0.603   4.329  0.9958 -0.9962  0.5868
11877SOL     OW39566   7.582   6.852   4.122  0.2044  0.6875 -0.3218
11877SOL    HW139567   7.497   6.879   4.077  0.1822  0.0903 -0.6478
11877SOL    HW239568   7.614   6.765   4.084  1.4137  1.3281 -0.8097
11879SOL     OW39569   8.315   0.168   4.450  0.0638  0.1335  0.1844
11879SOL    HW139570   8.269   0.119   4.376  0.2354  0.8490 -0.4044
11879SOL    HW239571   8.363   0.247   4.413 -2.0741  2.0801  1.3881
11880SOL     OW39572   4.517   5.747   1.487  0.3077  0.1054  0.9959
11880SOL    HW139573   4.479   5.838   1.476 -2.5840 -1.0679  0.8328
11880SOL    HW239574   4.480   5.705   1.570 -0.5692 -1.9288 -0.3732
11881SOL     OW39575   2.627   9.799   4.220 -0.6018 -0.2068 -0.2461
11881SOL    HW139576   2.568   9.774   4.143  0.1426 -0.9543 -0.5867
11881SOL    HW239577   2.664   9.891   4.206  0.2506 -0.6825 -1.2497
11882SOL     OW39578   1.162   8.133   0.234  0.4231  0.3511  0.4697
11882SOL    HW139579   1.252   8.136   0.277  1.4436  1.8074 -1.6693
11882SOL    HW239580   1.119   8.223   0.241  0.6084  0.6200 -1.5062
11883SOL     OW39581   4.866   0.916   4.633 -0.2378 -0.0107  0.9069
11883SOL    HW139582   4.860   0.919   4.534 -1.6204 -1.1575  0.9399
11883SOL    HW239583   4.858   0.821   4.664  1.5692  0.1829  2.0416
11884SOL     OW39584   3.834   9.941   1.992 -0.4400 -0.2153  0.2580
11884SOL    HW139585   3.924   9.953   1.950 -0.6321  0.8283  0.1211
11884SOL    HW239586   3.841   9.877   2.068  0.3850 -0.2604  0.1495
11885SOL     OW39587   3.147   7.901   1.358  0.0034 -0.5225 -0.0914
11885SOL    HW139588   3.120   7.904   1.262 -3.2808 -0.4355  0.7709
11885SOL    HW239589   3.226   7.960   1.372 -0.3321  0.5564 -2.4843
11886SOL     OW39590   2.108   9.936   1.220  0.0717  0.2799 -0.1817
11886SOL    HW139591   2.207   9.930   1.211  0.0741  2.0466 -1.6686
11886SOL    HW239592   2.067   9.851   1.185  0.9163  0.9664 -2.9853
11887SOL     OW39593   2.626   5.432   4.158 -0.1591 -0.3051  0.0037
11887SOL    HW139594   2.624   5.472   4.250  0.8374  0.3596 -0.2587
11887SOL    HW239595   2.712   5.383   4.145  0.6863  1.4554 -1.3275
11889SOL     OW39596   0.711   5.200   5.085 -0.4042 -0.2740 -0.1774
11889SOL    HW139597   0.658   5.278   5.119 -0.9994 -0.8638  0.2698
11889SOL    HW239598   0.799   5.232   5.052 -1.1549  0.7593 -1.2157
11890SOL     OW39599   2.830   1.990   2.791  0.5953 -0.0640 -0.3886
11890SOL    HW139600   2.877   1.903   2.807 -0.7127 -0.5731  0.8564
11890SOL    HW239601   2.868   2.060   2.851 -1.1310 -0.8305  1.7016
11891SOL     OW39602   2.080   2.636   2.055  0.0164 -0.8936 -0.4996
11891SOL    HW139603   2.059   2.654   1.958  0.0864 -1.6935 -0.6659
11891SOL    HW239604   2.070   2.538   2.073 -0.0042 -0.7418  0.3089
11892SOL     OW39605   1.084   4.130   5.148 -0.8775 -0.1348 -0.0363
11892SOL    HW139606   1.086   4.166   5.055 -2.3292  0.4921  0.1582
11892SOL    HW239607   1.082   4.206   5.213  1.3513 -0.5599  0.5562
11893SOL     OW39608   3.730   4.449   0.196  0.1106  0.0299 -0.6640
11893SOL    HW139609   3.706   4.453   0.099  0.2815  0.8888 -0.6700
11893SOL    HW239610   3.740   4.541   0.232 -2.0080 -0.2342  0.6904
11894SOL     OW39611   6.363   9.464   1.792  0.0226  0.9619  0.0335
11894SOL    HW139612   6.310   9.527   1.736  0.1126 -1.6451 -3.1130
11894SOL    HW239613   6.456   9.457   1.757 -0.1108 -1.2392  0.0365
11897SOL     OW39614   1.443   5.116   3.052 -0.3733 -0.3008  0.2516
11897SOL    HW139615   1.475   5.123   2.958 -0.2368  1.2171  0.4056
11897SOL    HW239616   1.515   5.074   3.108 -0.1856 -0.5440 -0.1640
11898SOL     OW39617   1.682   6.594   1.635  0.6294 -0.3037  0.1562
11898SOL    HW139618   1.637   6.517   1.592  2.1736 -1.2773  0.2172
11898SOL    HW239619   1.761   6.622   1.580  1.0338  0.1799  0.9694
11899SOL     OW39620   0.297   0.234   1.416 -0.2742 -0.0743  0.3219
11899SOL    HW139621   0.256   0.235   1.507  0.1767  0.6028  0.5231
11899SOL    HW239622   0.371   0.301   1.412  0.9406 -1.4384  0.0157
11900SOL     OW39623   3.767   8.453   4.053  0.2790 -0.4178  0.2471
11900SOL    HW139624   3.784   8.355   4.043  1.4663 -0.2098  0.0743
11900SOL    HW239625   3.669   8.470   4.063 -0.0055 -1.5501 -0.5580
11901SOL     OW39626   4.241   2.781   2.124  0.4899  0.1044  0.1054
11901SOL    HW139627   4.204   2.872   2.107  0.2284  0.1390  0.8420
11901SOL    HW239628   4.292   2.750   2.044  1.0895  1.1438  0.0773
11902SOL     OW39629   0.056   4.451   4.967  0.1651  0.5836 -0.6719
11902SOL    HW139630   0.042   4.375   5.031  0.5767  1.4818  0.4889
11902SOL    HW239631  -0.026   4.462   4.911 -0.0278 -0.5065 -0.6170
11903SOL     OW39632   6.705   0.002   2.480 -0.8433  0.1261  0.0958
11903SOL    HW139633   6.762  -0.028   2.556  0.0005 -0.6277 -0.8254
11903SOL    HW239634   6.641   0.073   2.512  0.0132  0.3561  1.3232
11904SOL     OW39635   3.882   1.459   3.407 -0.2715  0.7145 -0.3245
11904SOL    HW139636   3.949   1.386   3.420 -1.1641  0.4312  3.0817
11904SOL    HW239637   3.815   1.431   3.339 -0.7680 -1.8035  1.1334
11906SOL     OW39638   6.583   9.190   4.679  0.1850 -0.2303 -0.4917
11906SOL    HW139639   6.487   9.170   4.658 -0.2672  0.0894  1.1944
11906SOL    HW239640   6.615   9.130   4.752  0.3288  1.7151  1.0838
11907SOL     OW39641   4.484   0.809   4.712  0.1155  0.4465 -0.5247
11907SOL    HW139642   4.549   0.830   4.639  0.1081  0.3895 -0.5485
11907SOL    HW239643   4.483   0.710   4.728 -0.4811  0.3754 -1.0028
11908SOL     OW39644   5.408   8.047   5.088  0.1778  0.3964 -0.4500
11908SOL    HW139645   5.368   7.964   5.050 -2.0617  0.5467  1.4981
11908SOL    HW239646   5.487   8.023   5.144  0.6372 -0.2278 -1.3390
11909SOL     OW39647   8.766   9.523   4.953  0.0503  0.1002  0.0735
11909SOL    HW139648   8.862   9.529   4.978  0.3048  0.6231 -0.9686
11909SOL    HW239649   8.742   9.428   4.933  0.6144  0.1062 -0.6523
11910SOL     OW39650   8.067   0.277   2.651 -0.1191 -0.5892  0.7639
11910SOL    HW139651   8.073   0.316   2.559  3.5363  0.0020  1.1811
11910SOL    HW239652   7.995   0.323   2.702  0.1335  1.5065 -0.7047
11911SOL     OW39653   3.379   7.396   3.696 -0.0086 -0.4727 -0.0373
11911SOL    HW139654   3.317   7.361   3.767  2.5919 -1.2878  1.9226
11911SOL    HW239655   3.347   7.485   3.665 -0.0193  0.9553  3.8029
11912SOL     OW39656   9.335   7.711   2.294  0.0505  0.5307  0.5398
11912SOL    HW139657   9.369   7.727   2.387  0.7801  1.1485  0.1781
11912SOL    HW239658   9.241   7.743   2.287  0.2976  1.3374  0.8181
11913SOL     OW39659   2.423   9.273   2.871 -0.0877 -0.1094  0.2061
11913SOL    HW139660   2.418   9.372   2.855 -0.0769 -0.1135  0.1768
11913SOL    HW239661   2.513   9.250   2.907  0.0042 -0.1432 -0.0426
11915SOL     OW39662   8.835   9.540   2.492 -0.8122 -0.2291  0.3089
11915SOL    HW139663   8.906   9.563   2.558  1.0313 -1.4379 -1.1954
11915SOL    HW239664   8.769   9.477   2.533 -1.8718  2.0151  2.1664
11916SOL     OW39665   4.712   0.602   2.205  0.5009  0.3973 -0.8856
11916SOL    HW139666   4.651   0.678   2.182  0.9809  0.5226 -1.7617
11916SOL    HW239667   4.807   0.630   2.192  0.7577  0.2387  0.5820
11917SOL     OW39668   7.947   8.775   3.554  0.3291 -0.3224  0.2120
11917SOL    HW139669   8.036   8.739   3.583  0.1328 -0.5470  0.5248
11917SOL    HW239670   7.957   8.871   3.528  0.7231 -0.4281 -0.0287
11919SOL     OW39671   0.399   1.458   4.865  0.5436 -0.1308  0.1851
11919SOL    HW139672   0.319   1.518   4.861  0.3739 -0.4079 -0.7076
11919SOL    HW239673   0.423   1.440   4.961  0.0583  0.6369  0.4543
11920SOL     OW39674   9.352   3.097   0.645 -0.4330  0.1158  0.0934
11920SOL    HW139675   9.265   3.143   0.659  0.3456  1.9738 -0.9454
11920SOL    HW239676   9.427   3.161   0.664  0.6885 -1.2670  0.3643
11921SOL     OW39677   1.459   6.746   4.293  0.0097  0.2892  0.6062
11921SOL    HW139678   1.392   6.692   4.243  0.6345 -0.5744  0.6787
11921SOL    HW239679   1.418   6.781   4.377  0.2954 -2.2233  1.8603
11924SOL     OW39680   8.525   3.210   3.953 -0.1344  0.2978 -0.1785
11924SOL    HW139681   8.530   3.310   3.948  2.0417  0.2469  0.1184
11924SOL    HW239682   8.618   3.173   3.952 -0.9058 -1.6933  0.2622
11925SOL     OW39683   7.246   2.302   1.981  0.9260 -0.0311  0.6505
11925SOL    HW139684   7.207   2.391   1.959  2.1877  0.6126  0.9888
11925SOL    HW239685   7.346   2.305   1.970  0.8936 -1.6876 -0.3403
11926SOL     OW39686   7.634   3.735   4.315 -0.6541  0.1496 -0.6114
11926SOL    HW139687   7.607   3.643   4.287  0.5538 -0.2411 -0.5064
11926SOL    HW239688   7.598   3.802   4.249 -1.8450 -0.3475 -0.4893
11928SOL     OW39689   4.618   5.943   2.823 -0.0876  0.0788  0.6642
11928SOL    HW139690   4.533   5.967   2.777  0.6502  0.1736 -0.6893
11928SOL    HW239691   4.617   5.977   2.917 -1.9328 -0.7788  0.9745
11929SOL     OW39692   3.237   3.187   3.446  0.4409 -0.3546  0.7670
11929SOL    HW139693   3.285   3.123   3.506  0.5738  0.2582  1.3176
11929SOL    HW239694   3.240   3.279   3.485 -0.8542 -0.2359  0.6176
11930SOL     OW39695   1.907   8.011   4.412  1.0789  0.3882  0.1143
11930SOL    HW139696   1.869   7.973   4.496  1.8845 -0.2930  0.1728
11930SOL    HW239697   1.906   7.941   4.341  1.4607  0.6180 -0.1166
11931SOL     OW39698   1.113   1.952   4.991  0.3394 -0.0162 -0.2217
11931SOL    HW139699   1.031   2.009   4.992  0.4316  0.1574  2.8576
11931SOL    HW239700   1.175   1.983   4.919 -0.7508  2.1198 -0.2775
11932SOL     OW39701   2.733   8.205   1.187  0.3100  0.0922  0.2921
11932SOL    HW139702   2.714   8.227   1.092 -1.5372 -0.9621  0.3919
11932SOL    HW239703   2.741   8.106   1.198  0.7124  0.2146  1.2022
11933SOL     OW39704   2.306   7.632   0.508 -0.6417 -0.4751  0.4563
11933SOL    HW139705   2.343   7.724   0.496 -0.9055 -0.4346 -0.0932
11933SOL    HW239706   2.255   7.627   0.594 -1.0948  0.0468  0.2214
11934SOL     OW39707   2.413   3.774   1.000 -0.1961 -0.4715  0.0743
11934SOL    HW139708   2.344   3.754   1.069  0.3797 -0.8828  0.5402
11934SOL    HW239709   2.476   3.843   1.035 -0.1319 -0.4017 -0.1832
11935SOL     OW39710   9.432   7.606   0.227 -0.0448 -0.2517  0.3833
11935SOL    HW139711   9.516   7.577   0.272 -0.2474 -2.1095 -0.3820
11935SOL    HW239712   9.444   7.697   0.188  1.9987 -0.9628 -0.7305
11936SOL     OW39713   9.248   1.956   1.663 -0.3760  0.6887  0.1087
11936SOL    HW139714   9.185   1.878   1.654 -2.0211  1.8491  1.2427
11936SOL    HW239715   9.335   1.924   1.701 -0.9452 -0.6529  0.3231
11938SOL     OW39716   9.329   0.237   2.302  0.2944 -0.0041 -0.1207
11938SOL    HW139717   9.335   0.191   2.214 -2.1491  1.2230 -0.9735
11938SOL    HW239718   9.234   0.261   2.321  0.6804 -0.9003  3.2019
11939SOL     OW39719   9.095   4.719   3.199  0.2318  0.3592 -0.1320
11939SOL    HW139720   9.166   4.774   3.154  1.4485 -1.2450 -0.2225
11939SOL    HW239721   9.027   4.692   3.131  1.2914 -0.8324 -0.7445
11940SOL     OW39722   4.907   4.656   0.714  0.5239 -0.0715 -0.0166
11940SOL    HW139723   4.961   4.588   0.664 -0.0111 -0.4963 -0.0210
11940SOL    HW239724   4.932   4.747   0.683 -0.6746 -0.3854 -1.9406
11941SOL     OW39725   7.939   4.018   4.466  0.0729  0.6696  0.2333
11941SOL    HW139726   7.884   3.935   4.478  0.7703  0.1731 -0.0053
11941SOL    HW239727   8.029   3.994   4.429  0.4177  1.4956  0.5233
11942SOL     OW39728   3.225   7.646   3.971 -0.1685  0.3387  0.4137
11942SOL    HW139729   3.180   7.680   4.054  0.4801 -1.4787  1.5406
11942SOL    HW239730   3.303   7.705   3.950  1.4624 -0.8230  2.8439
11943SOL     OW39731   0.890   9.509   1.995 -0.1537  0.8639  0.2456
11943SOL    HW139732   0.850   9.598   1.974 -0.3288  0.8840  0.6666
11943SOL    HW239733   0.818   9.445   2.021  0.0354  0.7734  0.5506
11944SOL     OW39734   5.258   9.342   3.078 -0.1661  0.3032 -0.4754
11944SOL    HW139735   5.302   9.340   3.168 -1.3635  0.5778  0.1249
11944SOL    HW239736   5.288   9.263   3.025 -2.6030 -2.1555  1.6874
11945SOL     OW39737   4.636   2.831   5.056 -0.0191 -0.1705 -0.3206
11945SOL    HW139738   4.608   2.926   5.042  0.7408  0.2198  0.6853
11945SOL    HW239739   4.632   2.782   4.969  0.4635  1.0182 -1.0339
11946SOL     OW39740   8.994   6.988   2.484 -0.1895 -0.2243  0.7620
11946SOL    HW139741   9.013   6.920   2.555  0.9128 -2.0298 -1.1911
11946SOL    HW239742   9.004   6.945   2.394 -1.4585  2.0361 -0.4898
11948SOL     OW39743   4.249   4.550   1.880 -0.6810  0.1752  0.3180
11948SOL    HW139744   4.181   4.477   1.888  1.4983 -2.0210 -0.4784
11948SOL    HW239745   4.284   4.573   1.970  0.6489 -1.8132  0.3447
11949SOL     OW39746   2.960   6.135   2.629  0.0990 -0.5765 -0.1695
11949SOL    HW139747   3.008   6.051   2.656 -0.3944  0.1033  2.9501
11949SOL    HW239748   3.023   6.212   2.635 -0.5368 -0.1392  0.9080
11951SOL     OW39749   8.762   5.593   1.884  0.3909  0.1814 -0.3626
11951SOL    HW139750   8.838   5.594   1.949 -0.3724 -1.9137  0.5910
11951SOL    HW239751   8.748   5.686   1.849  0.7358  1.4063  2.5598
11953SOL     OW39752   7.435   0.394   2.701  0.1270 -0.6950  0.2880
11953SOL    HW139753   7.424   0.450   2.783  1.7679 -0.6222  0.4814
11953SOL    HW239754   7.488   0.445   2.633 -0.8103 -0.9401 -0.6382
11954SOL     OW39755   0.965   5.781   3.410 -0.0172  0.1339 -0.3023
11954SOL    HW139756   0.916   5.854   3.458  0.1694 -0.3517  0.6414
11954SOL    HW239757   0.903   5.705   3.393 -0.7866  1.3593 -3.2186
11956SOL     OW39758   0.665   5.391   4.349 -0.8313  0.3924 -0.2271
11956SOL    HW139759   0.595   5.320   4.338  0.1733 -0.7678  0.6915
11956SOL    HW239760   0.756   5.348   4.345 -0.2317  1.4628  1.4768
11957SOL     OW39761   0.472   2.083   5.000 -0.0370 -0.0386  0.4358
11957SOL    HW139762   0.525   2.071   4.917  1.3716  0.3604  1.2615
11957SOL    HW239763   0.496   2.170   5.043 -0.2185 -0.5607  1.6248
11958SOL     OW39764   6.872   1.044   0.593  0.1918  0.1654 -0.4892
11958SOL    HW139765   6.879   1.016   0.497  0.0494  0.4830 -0.5959
11958SOL    HW239766   6.889   0.966   0.652  0.2826 -0.0327 -0.7754
11959SOL     OW39767   3.927   9.516   1.692  0.3489 -0.7159  0.1830
11959SOL    HW139768   3.832   9.512   1.660 -0.4500  1.3816  2.1518
11959SOL    HW239769   3.967   9.425   1.689 -1.4608 -1.4978 -1.4653
11960SOL     OW39770   9.309   6.391   0.802  0.0372 -0.0751 -0.0463
11960SOL    HW139771   9.293   6.422   0.896 -0.7874 -1.1530  0.1680
11960SOL    HW239772   9.406   6.405   0.780  0.2784  0.0320  1.0173
11961SOL     OW39773   1.707   5.112   5.097 -0.1205  0.1409 -0.1627
11961SOL    HW139774   1.648   5.118   5.017  0.0019  0.0947 -0.2560
11961SOL    HW239775   1.699   5.022   5.138 -0.9121  0.4723  0.4344
11963SOL     OW39776   9.631   7.406   5.105  0.1290  0.3193  0.7845
11963SOL    HW139777   9.558   7.473   5.120 -2.5332 -2.3189  0.1446
11963SOL    HW239778   9.672   7.381   5.193 -0.7948  0.6858  1.3262
11964SOL     OW39779   9.467   3.530   3.939 -0.5480  0.7097 -0.0193
11964SOL    HW139780   9.539   3.596   3.959  0.6681 -0.4595 -0.4474
11964SOL    HW239781   9.378   3.568   3.965  0.4747  1.1645  2.9617
11965SOL     OW39782   7.983   8.530   2.771 -0.2452  0.0042 -0.2662
11965SOL    HW139783   7.990   8.625   2.739  1.4791  0.1960  0.6616
11965SOL    HW239784   7.914   8.482   2.717 -1.0414  1.7485 -0.8334
11968SOL     OW39785   6.875   1.456   0.215 -0.1091  0.7896  0.0480
11968SOL    HW139786   6.779   1.458   0.186  0.0093  1.7475 -0.3205
11968SOL    HW239787   6.881   1.422   0.308 -0.7808  0.4007 -0.0456
11969SOL     OW39788   5.213   8.990   2.070  0.1139 -0.7964 -0.1116
11969SOL    HW139789   5.247   8.910   2.021 -2.1744 -2.1705  0.4971
11969SOL    HW239790   5.218   8.974   2.168  0.2187  0.0687  0.0313
11970SOL     OW39791   8.136   1.893   2.576  0.3649 -0.5000 -0.1050
11970SOL    HW139792   8.140   1.878   2.675  2.3006  0.9763  0.0580
11970SOL    HW239793   8.089   1.979   2.558 -0.1504 -0.8600 -0.4955
11971SOL     OW39794   9.729   8.436   2.703 -0.2837  0.6286  0.1924
11971SOL    HW139795   9.807   8.375   2.689 -0.5866  0.3293 -0.1863
11971SOL    HW239796   9.757   8.512   2.762  0.4749  0.8663 -0.4548
11972SOL     OW39797   2.282   9.010   0.799 -0.2560  0.6033  0.3175
11972SOL    HW139798   2.321   8.971   0.883 -0.0405 -1.0407 -0.5242
11972SOL    HW239799   2.205   8.954   0.769  1.1907 -0.2561 -1.9185
11973SOL     OW39800   5.653   0.870   3.425 -0.2500  0.3459 -0.6174
11973SOL    HW139801   5.560   0.840   3.402 -1.3154  1.4382  2.0457
11973SOL    HW239802   5.699   0.797   3.476 -0.3918  0.5996 -0.1256
11974SOL     OW39803   9.679   6.170   1.627 -0.2995 -0.1234 -0.2302
11974SOL    HW139804   9.588   6.209   1.636  0.3823  1.4738 -0.1273
11974SOL    HW239805   9.726   6.173   1.715  0.8806  1.7187 -0.8761
11975SOL     OW39806   8.158   4.028   3.009  0.1073  0.2921  0.1424
11975SOL    HW139807   8.235   3.991   3.061 -0.6122 -3.5015 -1.3105
11975SOL    HW239808   8.178   4.121   2.980  3.8525 -0.3699  0.4191
11976SOL     OW39809   9.158   2.198   3.493  0.3182  0.1884  0.2373
11976SOL    HW139810   9.199   2.201   3.402 -1.5231 -2.7578 -0.7672
11976SOL    HW239811   9.194   2.119   3.543 -0.0684  0.7374  1.4144
11977SOL     OW39812   4.241   0.707   2.715  0.3265 -0.1536 -0.2871
11977SOL    HW139813   4.216   0.706   2.812 -3.0602  3.0182 -1.0319
11977SOL    HW239814   4.177   0.650   2.663 -0.6810  1.7886 -1.2197
11978SOL     OW39815   0.766   6.284   4.981 -0.0678  0.1927 -0.2162
11978SOL    HW139816   0.820   6.204   4.954  0.2748  0.3245  0.0784
11978SOL    HW239817   0.799   6.365   4.932  1.1452  0.6035  1.2579
11980SOL     OW39818   7.529   7.822   2.843  0.0493 -0.0978 -0.2982
11980SOL    HW139819   7.530   7.724   2.862  0.7824 -0.1726 -0.6691
11980SOL    HW239820   7.623   7.854   2.831 -0.2648  0.3675 -1.5885
11981SOL     OW39821   1.956   7.658   5.097  0.5777 -0.5952  0.0942
11981SOL    HW139822   1.970   7.607   5.182  0.6980 -0.4136  0.1842
11981SOL    HW239823   1.926   7.751   5.118  1.5217 -0.2557 -0.0345
11983SOL     OW39824   3.756   8.945   4.893  0.3946  0.4288 -0.2821
11983SOL    HW139825   3.667   8.988   4.908 -0.5617 -1.3041 -0.7831
11983SOL    HW239826   3.788   8.965   4.800  0.2371  0.5525 -0.3099
11984SOL     OW39827   8.527   9.016   1.386  0.5186 -0.5463  0.1427
11984SOL    HW139828   8.560   9.088   1.325  1.3521  0.0594  1.2988
11984SOL    HW239829   8.432   8.995   1.364  0.6276  0.0711 -0.9799
11986SOL     OW39830   2.975   0.912   2.576 -0.4370  0.5169  0.0954
11986SOL    HW139831   3.033   0.833   2.555 -1.1828  0.0795 -0.3470
11986SOL    HW239832   3.027   0.996   2.562  0.3863  0.1080  0.6396
11987SOL     OW39833   8.541   6.835   0.593 -0.1360  0.1055  0.3802
11987SOL    HW139834   8.566   6.897   0.667  2.5509 -0.2799 -0.1195
11987SOL    HW239835   8.615   6.835   0.524 -1.5996 -1.1385 -1.2366
11989SOL     OW39836   1.848   4.995   0.349 -0.3502 -1.0093  0.3462
11989SOL    HW139837   1.873   5.078   0.398 -0.5945 -0.8192  0.1519
11989SOL    HW239838   1.749   4.996   0.331 -0.1126 -0.5973 -1.0315
11991SOL     OW39839   8.040   8.672   5.010 -0.8900 -0.7039 -0.1809
11991SOL    HW139840   8.021   8.587   5.060  0.9161 -0.4275  1.0201
11991SOL    HW239841   8.138   8.677   4.989 -1.1289  0.6705 -1.0269
11992SOL     OW39842   1.835   6.414   2.526  0.2547 -1.1244  0.0995
11992SOL    HW139843   1.912   6.353   2.506  1.5023 -0.0598  1.5587
11992SOL    HW239844   1.861   6.508   2.505 -1.1985 -0.9303 -0.8573
11993SOL     OW39845   8.343   5.884   1.563 -0.0363  0.2156  0.4232
11993SOL    HW139846   8.288   5.960   1.598  0.7782  0.0475  2.1252
11993SOL    HW239847   8.413   5.860   1.630 -0.2420 -1.9885 -0.1091
11994SOL     OW39848   2.982   9.295   3.975 -0.5658  0.3795  0.1226
11994SOL    HW139849   2.958   9.324   3.882 -0.2206  1.3511  0.3353
11994SOL    HW239850   3.068   9.337   4.002 -1.2708  1.0549  1.3329
11995SOL     OW39851   9.244   3.793   1.763  0.6717 -0.2243 -0.5544
11995SOL    HW139852   9.191   3.709   1.766  0.6142 -0.1360  0.8681
11995SOL    HW239853   9.183   3.871   1.748  0.7016 -0.4056 -1.6592
11996SOL     OW39854   2.965   5.694   1.487  0.3949 -0.1472 -0.5250
11996SOL    HW139855   2.981   5.597   1.505  1.2709 -0.0524 -0.7692
11996SOL    HW239856   2.934   5.739   1.571  1.7365 -0.2730  0.0549
11997SOL     OW39857   1.655   7.443   3.609 -0.1119 -0.1309 -0.0191
11997SOL    HW139858   1.577   7.440   3.672  0.5724 -0.9618  0.8040
11997SOL    HW239859   1.715   7.518   3.635 -1.2536  1.3196 -1.4267
11998SOL     OW39860   2.392   4.081   4.695 -0.0643 -0.1257 -0.1672
11998SOL    HW139861   2.370   4.178   4.703 -1.7691 -0.3344 -2.0855
11998SOL    HW239862   2.457   4.067   4.621 -1.8484 -0.7241 -1.6432
11999SOL     OW39863   9.252   0.634   3.234  0.4714  0.4846 -0.0147
11999SOL    HW139864   9.187   0.692   3.283  0.1908  1.1839 -1.1893
11999SOL    HW239865   9.217   0.540   3.229  0.4237  0.4528  0.9632
12000SOL     OW39866   1.995   5.428   3.068  0.5431  0.3687  0.5696
12000SOL    HW139867   1.937   5.350   3.049  0.7488  0.3194  0.1534
12000SOL    HW239868   1.991   5.450   3.166  3.2602 -2.4044  1.3843
12001SOL     OW39869   9.792   6.296   2.730  0.6249 -0.1941 -0.2538
12001SOL    HW139870   9.814   6.294   2.633  0.0696 -1.2381 -0.3600
12001SOL    HW239871   9.830   6.215   2.775 -0.8317 -0.7325  0.0221
12003SOL     OW39872   8.982   5.315   2.757 -0.4957  0.1831  0.5307
12003SOL    HW139873   8.897   5.366   2.759  0.6224  2.0705  0.6514
12003SOL    HW239874   9.020   5.309   2.849 -0.0786  0.0438  0.3538
12004SOL     OW39875   8.073   2.367   4.259  0.2920 -0.1089  0.7359
12004SOL    HW139876   8.138   2.362   4.184 -0.8149  0.9321 -0.3238
12004SOL    HW239877   7.980   2.350   4.225 -0.3266  1.2169  1.6868
12005SOL     OW39878   9.407   2.123   4.156 -0.3285 -0.4113 -0.2502
12005SOL    HW139879   9.456   2.173   4.227 -1.4131 -2.2555  1.8806
12005SOL    HW239880   9.460   2.043   4.128 -0.6683 -0.6367 -0.2595
12006SOL     OW39881   4.740   4.565   3.007 -0.0261 -0.2348  0.1949
12006SOL    HW139882   4.741   4.519   2.918 -0.9652  0.3063 -0.0969
12006SOL    HW239883   4.676   4.641   3.004  1.0489  0.7117  0.8716
12007SOL     OW39884   1.897   6.070   3.938 -0.0776 -0.1647  0.4527
12007SOL    HW139885   1.855   6.157   3.914  2.2376  1.3912  1.7512
12007SOL    HW239886   1.887   6.054   4.036  1.3178 -0.3150  0.5811
12008SOL     OW39887   2.858   1.572   1.540 -0.2482 -0.0841 -0.5859
12008SOL    HW139888   2.862   1.592   1.442  0.3966  0.5053 -0.4503
12008SOL    HW239889   2.951   1.568   1.577 -0.4120 -1.9162 -0.3057
12009SOL     OW39890   8.209   3.978   4.352  0.3589  0.3614  0.2801
12009SOL    HW139891   8.234   3.963   4.256  0.3905  2.2644 -0.0319
12009SOL    HW239892   8.244   3.903   4.408  0.5303 -0.6592 -1.1562
12010SOL     OW39893   9.268   4.811   0.773  0.0666 -0.0429 -0.0060
12010SOL    HW139894   9.313   4.865   0.702 -0.1639  0.8502  0.5208
12010SOL    HW239895   9.218   4.872   0.835 -2.3634 -1.0456 -0.9223
12011SOL     OW39896   8.714   1.548   3.677  0.1086  0.4109 -0.3011
12011SOL    HW139897   8.784   1.615   3.652 -0.4144  0.6797 -1.0721
12011SOL    HW239898   8.625   1.593   3.682 -0.1721 -0.1334 -0.3387
12012SOL     OW39899   9.024   6.333   0.057  0.1951 -0.2053 -0.4926
12012SOL    HW139900   9.000   6.340   0.154 -0.9543  0.2299 -0.8045
12012SOL    HW239901   8.954   6.280   0.009  0.0264  0.7647 -1.3423
12013SOL     OW39902   8.737   2.990   2.604 -0.1835 -0.0945 -0.4361
12013SOL    HW139903   8.823   2.939   2.597  0.2123  0.5728 -0.4234
12013SOL    HW239904   8.665   2.941   2.554 -0.1934 -1.5159  0.9441
12014SOL     OW39905   7.155   1.688   2.758 -0.2382  0.1023  0.0975
12014SOL    HW139906   7.218   1.765   2.765  0.3878 -0.3651 -0.3589
12014SOL    HW239907   7.187   1.624   2.688 -3.4522  1.9429 -3.2226
12015SOL     OW39908   1.133   4.094   3.150  0.2873  0.0280  0.6957
12015SOL    HW139909   1.179   4.063   3.233  0.7734 -2.7632 -0.5602
12015SOL    HW239910   1.103   4.015   3.097  0.8739  1.7420 -2.3084
12017SOL     OW39911   8.402   2.239   1.277 -0.4699 -0.1246  0.5699
12017SOL    HW139912   8.450   2.230   1.190 -1.0621  0.8075  0.1380
12017SOL    HW239913   8.402   2.151   1.324 -0.7919 -0.8269 -0.7093
12018SOL     OW39914   3.378   7.865   4.749 -0.6320  0.2434  0.5178
12018SOL    HW139915   3.432   7.820   4.678 -1.2075  2.1782 -1.2074
12018SOL    HW239916   3.348   7.797   4.816  1.0587 -1.4053 -0.3350
12019SOL     OW39917   3.381   0.214   1.594 -0.1483 -0.0098  0.6596
12019SOL    HW139918   3.324   0.295   1.591  0.2466  0.2802  0.9726
12019SOL    HW239919   3.361   0.156   1.514  1.1919  1.5132 -0.8287
12021SOL     OW39920   2.868   3.180   1.032 -0.4218 -0.6832 -0.2163
12021SOL    HW139921   2.848   3.083   1.016 -0.0888 -0.4904 -1.8323
12021SOL    HW239922   2.782   3.231   1.039 -0.5843 -0.9355 -0.3728
12022SOL     OW39923   1.136   6.372   3.576  0.3944 -0.2966  0.6455
12022SOL    HW139924   1.213   6.403   3.632 -0.2963  0.4826  1.1608
12022SOL    HW239925   1.086   6.301   3.624  0.0027  0.1329  0.8713
12023SOL     OW39926   5.009   8.947   2.504  0.4536  0.0282  0.2641
12023SOL    HW139927   5.018   9.034   2.552  0.7743 -1.2372  2.5799
12023SOL    HW239928   4.918   8.908   2.523  0.6875 -0.6125  0.0825
12025SOL     OW39929   8.885   6.532   1.901 -0.1073 -0.0481 -0.4108
12025SOL    HW139930   8.837   6.580   1.827  0.2565  1.4473  0.3089
12025SOL    HW239931   8.825   6.463   1.941 -0.2402 -1.0068 -2.2302
12027SOL     OW39932   2.587   6.002   1.434 -0.3140  0.0733  0.4328
12027SOL    HW139933   2.556   5.981   1.341 -0.0539  1.1748  0.0849
12027SOL    HW239934   2.520   5.967   1.500 -0.8460 -0.1163 -0.1971
12028SOL     OW39935   8.077   0.428   1.867  0.9261  0.4885  0.5483
12028SOL    HW139936   8.022   0.349   1.895 -1.1218  0.9780 -1.9266
12028SOL    HW239937   8.147   0.446   1.936 -0.0541 -2.0534  2.2732
12029SOL     OW39938   9.242   5.762   4.234  0.1142  0.1220 -0.0485
12029SOL    HW139939   9.211   5.676   4.195  0.4240 -0.1129  0.2186
12029SOL    HW239940   9.320   5.797   4.182  0.6589 -0.2974  0.4888
12031SOL     OW39941   5.395   3.161   3.955  0.3001 -0.4407  0.7191
12031SOL    HW139942   5.432   3.073   3.986  3.2697  0.2517 -0.7075
12031SOL    HW239943   5.465   3.211   3.905 -1.9573  1.9323 -0.1830
12032SOL     OW39944   9.856   9.457   0.993 -0.5477  0.5047  0.4821
12032SOL    HW139945   9.901   9.546   0.997  2.4090 -0.9543  0.8899
12032SOL    HW239946   9.826   9.430   1.084 -0.3698  0.5654  0.5580
12033SOL     OW39947   3.675   1.905   3.561  0.7266  0.9251 -0.3084
12033SOL    HW139948   3.602   1.889   3.495 -0.4862  0.5000  1.1059
12033SOL    HW239949   3.758   1.857   3.532  0.0900  0.4187 -1.2914
12034SOL     OW39950   5.496   7.561   1.923  0.3306 -0.5197  0.3410
12034SOL    HW139951   5.550   7.645   1.910  0.7401 -0.7803  0.3438
12034SOL    HW239952   5.467   7.526   1.834 -2.1617  1.1153  0.4693
12036SOL     OW39953   6.980   7.599   2.863  0.1910 -0.3239  0.2806
12036SOL    HW139954   6.885   7.604   2.894 -0.3991  2.1010 -1.7598
12036SOL    HW239955   6.982   7.578   2.765  1.7480  0.3583  0.1554
12038SOL     OW39956   8.882   1.019   3.254  0.1962 -0.5312 -0.4131
12038SOL    HW139957   8.802   1.073   3.279  0.4596  0.5672 -1.8835
12038SOL    HW239958   8.934   1.066   3.182 -0.6505 -3.6156 -3.2007
12039SOL     OW39959   1.240   1.929   1.949 -0.4393 -0.2654  0.7966
12039SOL    HW139960   1.212   1.953   2.042  0.0272 -1.9381  1.3838
12039SOL    HW239961   1.304   1.852   1.952 -0.1644 -0.1168 -0.8893
12040SOL     OW39962   9.049   0.825   1.863 -0.2887  0.1060  0.2171
12040SOL    HW139963   8.986   0.750   1.839  0.7671 -0.8107  0.2567
12040SOL    HW239964   8.999   0.911   1.866 -1.0967 -0.2460 -2.0798
12041SOL     OW39965   0.831   8.945   1.691  0.1579  0.2138 -0.3856
12041SOL    HW139966   0.746   8.998   1.690 -0.3388 -0.4902  1.5513
12041SOL    HW239967   0.813   8.855   1.730  1.2632 -0.9401 -2.4224
12042SOL     OW39968   2.312   4.294   2.147 -0.1152  0.0502 -0.3329
12042SOL    HW139969   2.366   4.266   2.227  0.5681 -1.2226 -1.2258
12042SOL    HW239970   2.336   4.388   2.123 -0.1009  0.3376  0.7686
12043SOL     OW39971   3.615   8.049   3.186 -0.2680  0.2220  0.2016
12043SOL    HW139972   3.642   8.072   3.280  1.6321 -1.1578  0.0232
12043SOL    HW239973   3.558   7.967   3.187  1.1040 -0.7515  0.0393
12045SOL     OW39974   0.590   7.468   1.282  0.2203  0.2663 -0.1979
12045SOL    HW139975   0.616   7.540   1.347 -0.6063  0.2128  0.1964
12045SOL    HW239976   0.510   7.498   1.229 -0.9943 -0.9112  0.9361
12046SOL     OW39977   8.976   2.638   3.756 -0.2137  0.0793 -0.4373
12046SOL    HW139978   9.004   2.653   3.851  1.2198 -0.7482 -0.7102
12046SOL    HW239979   9.054   2.606   3.703 -1.3501 -0.8936 -1.5692
12047SOL     OW39980   4.721   2.532   3.295  0.2460  0.3340 -0.0132
12047SOL    HW139981   4.687   2.440   3.274 -2.5082  1.4463 -0.5984
12047SOL    HW239982   4.802   2.551   3.240  0.5324 -1.5433 -0.2645
12048SOL     OW39983   3.502   0.993   0.629  0.3088 -0.6439  0.1871
12048SOL    HW139984   3.505   1.018   0.726 -1.5581 -2.7520  0.8188
12048SOL    HW239985   3.427   1.042   0.584  0.8511 -0.0642 -0.1081
12049SOL     OW39986   2.644   4.670   0.246  0.6406  0.2332 -0.1206
12049SOL    HW139987   2.664   4.584   0.292 -0.7590  0.0097  0.1058
12049SOL    HW239988   2.692   4.745   0.292 -0.0298 -0.1112  1.1569
12050SOL     OW39989   3.713   2.036   1.102  0.5065  0.5369  0.0653
12050SOL    HW139990   3.739   2.129   1.075  2.3594  0.4739  1.5022
12050SOL    HW239991   3.795   1.979   1.106 -0.6367 -1.2363 -0.9915
12051SOL     OW39992   2.637   0.671   2.829 -0.1588 -0.2590  0.1480
12051SOL    HW139993   2.709   0.696   2.894  0.5453  1.0093 -1.0755
12051SOL    HW239994   2.676   0.671   2.736 -1.3526 -1.1777 -0.3565
12052SOL     OW39995   9.265   0.882   5.298 -0.1514 -0.3088 -0.5684
12052SOL    HW139996   9.254   0.971   5.253  0.9852 -0.4290 -1.1074
12052SOL    HW239997   9.282   0.896   5.395 -2.3283 -0.0353 -0.2122
12053SOL     OW39998   1.696   2.913   0.661 -0.2937 -0.4850 -0.2332
12053SOL    HW139999   1.681   3.002   0.705  0.7064  0.0096 -0.8883
12053SOL    HW240000   1.607   2.870   0.643 -0.7640  0.0670  0.7156
12055SOL     OW40001   2.342   4.744   3.691 -0.4339  0.0900  0.3416
12055SOL    HW140002   2.379   4.707   3.606  0.9297  1.1382  0.4684
12055SOL    HW240003   2.336   4.844   3.684 -0.4212  0.1686  1.4328
12056SOL     OW40004   3.392   0.691   0.041 -0.1130  0.3928  0.7863
12056SOL    HW140005   3.298   0.664   0.019  0.5638  0.1206 -1.9027
12056SOL    HW240006   3.454   0.616   0.021  1.0863  1.7926 -0.8694
12057SOL     OW40007   0.207   0.871   2.163 -0.4815  0.1136 -0.1786
12057SOL    HW140008   0.114   0.906   2.178 -1.5349 -2.6584  0.2786
12057SOL    HW240009   0.217   0.842   2.068 -0.4545 -0.5214  0.0102
12059SOL     OW40010   1.276   8.897   2.944 -0.0377 -0.1307  0.3036
12059SOL    HW140011   1.274   8.997   2.949 -0.9248 -0.1620  0.7151
12059SOL    HW240012   1.188   8.860   2.974 -0.9296 -0.9304 -3.0864
12060SOL     OW40013   0.299   8.214   4.210 -0.2052 -0.7821 -0.1421
12060SOL    HW140014   0.363   8.149   4.171  2.2863  1.4615  0.0706
12060SOL    HW240015   0.276   8.187   4.303 -1.3072 -2.7617 -0.9582
12062SOL     OW40016   3.337   2.548   3.218 -0.4612 -0.0498  0.3382
12062SOL    HW140017   3.412   2.487   3.195 -0.7154  0.4504 -1.9047
12062SOL    HW240018   3.355   2.591   3.307  1.9428  0.1173 -0.1901
12065SOL     OW40019   3.945   7.808   4.586 -0.0775  0.0813  0.3984
12065SOL    HW140020   3.965   7.888   4.529  0.1501  0.0240  0.3965
12065SOL    HW240021   4.015   7.800   4.657  0.7312 -0.9605 -0.4962
12066SOL     OW40022   2.030   6.063   0.740 -0.4673  0.2500  0.0924
12066SOL    HW140023   2.066   5.986   0.688 -0.4823 -0.5897  1.3136
12066SOL    HW240024   1.935   6.045   0.766  0.3145 -0.4686  2.5793
12067SOL     OW40025   2.185   7.898   0.204  0.5152 -0.0531  0.0138
12067SOL    HW140026   2.129   7.970   0.245  1.1404  0.6506 -0.3576
12067SOL    HW240027   2.276   7.933   0.185  0.3251 -0.4251 -1.7218
12068SOL     OW40028   9.111   3.980   2.665  0.2376 -0.2325  0.4245
12068SOL    HW140029   9.067   3.906   2.715 -0.0451  0.4539  1.2007
12068SOL    HW240030   9.064   4.066   2.684  1.2073  0.3230  0.3645
12069SOL     OW40031   2.074   3.330   3.741  0.2139 -0.0560  0.5741
12069SOL    HW140032   2.127   3.403   3.783 -0.0923  1.5282 -1.6820
12069SOL    HW240033   2.122   3.296   3.660 -1.1343 -0.1509 -0.2096
12070SOL     OW40034   2.002   9.090   1.771  0.9667 -0.1135  0.5283
12070SOL    HW140035   1.963   9.155   1.836  0.8449  1.0753 -0.7004
12070SOL    HW240036   2.100   9.109   1.759  0.3975  1.6208 -1.8328
12071SOL     OW40037   4.031   7.612   4.354 -0.5351 -0.3166  0.2281
12071SOL    HW140038   4.085   7.661   4.285  2.2441 -1.1381  1.7202
12071SOL    HW240039   4.026   7.668   4.437  1.5691 -1.9040  1.4983
12072SOL     OW40040   3.839   2.539   3.059  0.1754 -0.1657  0.3943
12072SOL    HW140041   3.831   2.589   3.146  0.4118 -0.9212  0.8599
12072SOL    HW240042   3.854   2.604   2.985  0.4287  0.4619  0.9833
12073SOL     OW40043   3.437   1.717   2.152 -0.5777 -0.4134  0.3531
12073SOL    HW140044   3.395   1.723   2.242 -0.5667 -1.1143  0.4118
12073SOL    HW240045   3.509   1.647   2.153  1.3061  1.4666  0.5231
12074SOL     OW40046   7.171   4.040   0.037  0.1843  0.4093 -0.4084
12074SOL    HW140047   7.078   4.033   0.003 -0.5660  1.0456  1.4716
12074SOL    HW240048   7.189   3.964   0.100  0.7183  0.6733 -0.2372
12075SOL     OW40049   4.171   9.194   2.394 -0.3640 -0.4620  0.0158
12075SOL    HW140050   4.266   9.177   2.368 -0.4934  1.0221 -1.5484
12075SOL    HW240051   4.134   9.267   2.337 -1.9657  0.0633  1.6887
12077SOL     OW40052   9.292   6.578   4.691  0.1696 -0.0542 -0.1009
12077SOL    HW140053   9.205   6.625   4.674 -0.5182 -1.9771 -2.2501
12077SOL    HW240054   9.283   6.519   4.771  0.5411  2.2427  1.6470
12078SOL     OW40055   0.896   2.564   3.634  0.3749  0.1891 -0.4773
12078SOL    HW140056   0.841   2.489   3.671 -0.6506  1.7715  1.3038
12078SOL    HW240057   0.973   2.582   3.694  1.3269 -0.2273 -1.5517
12079SOL     OW40058   3.035   3.252   4.767  0.3096 -0.1167  0.0064
12079SOL    HW140059   3.098   3.304   4.825 -0.3742 -1.3385  1.8896
12079SOL    HW240060   2.941   3.267   4.798 -0.0687 -0.8576 -0.7485
12080SOL     OW40061   4.234   2.661   2.867 -0.6791  0.5129  0.0766
12080SOL    HW140062   4.145   2.707   2.878 -0.1297  1.5591  0.2435
12080SOL    HW240063   4.228   2.595   2.792 -1.5379  0.7298 -0.0547
12081SOL     OW40064   9.469   7.334   1.469  0.2452 -0.1768 -0.0651
12081SOL    HW140065   9.522   7.351   1.553 -0.2191 -0.7315  0.3408
12081SOL    HW240066   9.392   7.397   1.465 -0.7344 -1.3086  0.7960
12082SOL     OW40067   8.597   4.135   4.297  0.0284  0.3684 -0.0144
12082SOL    HW140068   8.642   4.059   4.250 -1.7046 -0.1240 -0.9422
12082SOL    HW240069   8.626   4.137   4.392  0.8665 -0.8552 -0.2312
12083SOL     OW40070   7.002   8.667   3.931 -0.1809 -0.2289 -0.1060
12083SOL    HW140071   7.097   8.685   3.957  0.5692 -0.3515 -2.5524
12083SOL    HW240072   6.955   8.621   4.006  1.2056  1.3064  1.7623
12084SOL     OW40073   7.678   1.046   4.991 -0.2983 -0.1899 -0.6363
12084SOL    HW140074   7.624   1.125   5.021 -0.2633 -0.0926 -0.8312
12084SOL    HW240075   7.655   0.967   5.048  2.7819  0.9908  2.3717
12085SOL     OW40076   1.391   3.878   2.941 -0.0154  0.5034  0.3015
12085SOL    HW140077   1.408   3.780   2.932  0.9337  0.6128  0.7893
12085SOL    HW240078   1.472   3.929   2.911  0.2613  1.0627  1.9380
12086SOL     OW40079   6.616   2.025   3.404 -0.1543 -0.1440 -0.5367
12086SOL    HW140080   6.636   2.122   3.421  1.7440 -0.5890 -0.1119
12086SOL    HW240081   6.581   1.984   3.488  0.5590 -0.1964 -0.2609
12087SOL     OW40082   8.712   0.759   2.360 -0.2375 -0.2838 -0.6909
12087SOL    HW140083   8.741   0.789   2.269 -1.2362 -0.8004 -1.1800
12087SOL    HW240084   8.783   0.701   2.400 -0.6580 -1.7357 -1.9804
12088SOL     OW40085   3.555   2.992   2.230 -0.4654 -0.5385  0.1622
12088SOL    HW140086   3.471   2.949   2.197 -0.1111 -0.4012 -0.9416
12088SOL    HW240087   3.552   3.090   2.208  0.2024 -0.6279 -0.3136
12089SOL     OW40088   7.024   9.189   4.491  0.0472 -0.5458 -0.3505
12089SOL    HW140089   7.090   9.193   4.566 -0.0600 -0.3555 -0.2651
12089SOL    HW240090   6.942   9.241   4.516 -0.3061 -1.1190 -0.2849
12090SOL     OW40091   6.302   0.785   1.805  0.3086 -0.6950  0.6285
12090SOL    HW140092   6.253   0.830   1.880 -0.3137 -0.1824 -0.0670
12090SOL    HW240093   6.307   0.687   1.822  0.6279 -0.5129  1.5900
12091SOL     OW40094   8.802   2.947   2.271  0.2018  0.2524  0.4418
12091SOL    HW140095   8.756   2.858   2.274  0.4050  0.1718  1.7799
12091SOL    HW240096   8.734   3.020   2.267  0.0286  0.0398 -0.4177
12092SOL     OW40097   3.083   9.948   1.528  0.5872  0.7399  0.6706
12092SOL    HW140098   3.117   9.989   1.443  1.4912 -0.6364  0.3368
12092SOL    HW240099   3.160   9.909   1.579 -0.2136 -0.4082  1.0254
12093SOL     OW40100   2.855   9.936   2.285  0.2094  0.0265 -0.4894
12093SOL    HW140101   2.859   9.841   2.315 -0.3303 -0.5104 -2.0647
12093SOL    HW240102   2.787   9.985   2.340  0.3767 -0.5267  0.2249
12094SOL     OW40103   9.872   6.051   1.501  0.0495 -0.1157  0.2247
12094SOL    HW140104   9.793   6.102   1.533  1.1804  1.9398 -0.1375
12094SOL    HW240105   9.844   5.960   1.471 -2.1052  0.4745  0.3931
12095SOL     OW40106   4.708   7.342   3.998 -0.5974 -0.7745 -0.0786
12095SOL    HW140107   4.776   7.364   3.928  0.1571 -0.5634  0.7063
12095SOL    HW240108   4.752   7.290   4.072 -1.4221 -1.1573  0.1543
12098SOL     OW40109   3.264   3.042   2.722 -0.4968  0.5902  0.0868
12098SOL    HW140110   3.188   2.977   2.716 -0.3544  0.0684  2.9486
12098SOL    HW240111   3.294   3.068   2.630 -1.7337 -2.0135 -1.1068
12099SOL     OW40112   3.119   0.675   2.002 -0.4063  0.1632  0.4701
12099SOL    HW140113   3.112   0.694   1.904  0.4753  2.1180  0.7539
12099SOL    HW240114   3.061   0.597   2.025 -2.4876  1.1402 -1.2189
12100SOL     OW40115   9.724   3.502   3.665 -0.2053  0.1216 -0.4219
12100SOL    HW140116   9.752   3.540   3.753 -1.1171  1.4541 -0.6849
12100SOL    HW240117   9.799   3.511   3.599  0.8382 -1.7922  0.4626
12101SOL     OW40118   8.101   2.178   1.594  0.0148 -0.0686  0.8053
12101SOL    HW140119   8.109   2.079   1.602 -0.9697 -0.3025 -0.7542
12101SOL    HW240120   8.012   2.207   1.630 -1.6806 -0.3632 -2.8236
12103SOL     OW40121   8.811   5.031   5.005  0.0793  0.2349 -0.3688
12103SOL    HW140122   8.909   5.016   5.011  0.3389  0.6301 -3.1865
12103SOL    HW240123   8.790   5.090   4.928 -2.4729 -0.7825 -0.5229
12104SOL     OW40124   8.244   1.914   0.779 -0.2495 -0.0868 -0.0689
12104SOL    HW140125   8.263   1.937   0.875  0.8197  0.6434 -0.4491
12104SOL    HW240126   8.156   1.867   0.773  0.1306 -1.0168  1.3938
12105SOL     OW40127   8.442   4.585   1.772  0.3696 -0.1746 -0.5692
12105SOL    HW140128   8.365   4.650   1.777  0.2235 -0.2878 -1.2589
12105SOL    HW240129   8.465   4.569   1.676  2.2482  1.0292 -0.3331
12106SOL     OW40130   8.229   3.826   0.209 -0.0829 -0.8857 -0.4348
12106SOL    HW140131   8.315   3.811   0.259 -0.4190  0.0647  0.4398
12106SOL    HW240132   8.249   3.863   0.119  0.4914 -1.9271 -0.7498
12108SOL     OW40133   6.464   8.999   2.425  0.4104  0.5601  0.0996
12108SOL    HW140134   6.531   8.980   2.497  1.2238 -0.4741 -0.9136
12108SOL    HW240135   6.451   9.098   2.417 -0.9397  0.6361  2.7842
12109SOL     OW40136   7.872   3.486   0.901  0.1270  0.1193  0.5269
12109SOL    HW140137   7.867   3.585   0.895  1.1657  0.1736  0.5271
12109SOL    HW240138   7.911   3.459   0.990 -0.4149 -0.2917  0.6431
12110SOL     OW40139   3.739   2.762   0.819  0.1592 -0.2492  0.4109
12110SOL    HW140140   3.832   2.726   0.808 -0.8824 -2.2187 -2.8121
12110SOL    HW240141   3.673   2.688   0.810 -1.8217  1.4171  0.7046
12111SOL     OW40142   0.538   3.673   4.561 -0.2643  0.6150 -0.2114
12111SOL    HW140143   0.624   3.671   4.509 -0.6447  2.0010 -0.8993
12111SOL    HW240144   0.525   3.585   4.607  0.6467 -0.2155 -1.5320
12112SOL     OW40145   3.365   1.636   1.115 -0.2667  0.2480  0.1693
12112SOL    HW140146   3.278   1.678   1.089 -1.1156 -1.5442 -0.0026
12112SOL    HW240147   3.378   1.644   1.213 -1.5388 -1.0621  0.4746
12113SOL     OW40148   5.493   4.108   0.745  0.0157 -0.4615 -0.1809
12113SOL    HW140149   5.395   4.089   0.732 -0.1560 -0.9394  1.7022
12113SOL    HW240150   5.539   4.026   0.778  0.6845  0.2861  0.7730
12114SOL     OW40151   0.940   7.633   3.123 -0.2574 -0.0050 -0.0623
12114SOL    HW140152   1.024   7.675   3.090  0.1028  0.8082  1.8576
12114SOL    HW240153   0.862   7.676   3.079  0.2747 -0.0373 -1.0561
12116SOL     OW40154   1.701   2.976   3.710 -0.2578  0.6652  0.1847
12116SOL    HW140155   1.772   3.004   3.645  0.0605  0.7907  0.5929
12116SOL    HW240156   1.646   2.903   3.669  0.0772  0.5954 -0.1450
12117SOL     OW40157   4.388   1.205   4.771  0.5227 -0.0975  0.2939
12117SOL    HW140158   4.311   1.161   4.726  0.8144 -0.0890 -0.2273
12117SOL    HW240159   4.474   1.169   4.733  0.7775 -0.2782  1.0283
12118SOL     OW40160   3.506   1.261   2.664  0.7365 -0.4132  0.2339
12118SOL    HW140161   3.446   1.181   2.662  1.0235 -0.6290  0.2387
12118SOL    HW240162   3.457   1.339   2.704  1.0723 -1.0968  2.0046
12119SOL     OW40163   2.759   3.054   1.819 -0.5916 -0.1168 -0.2437
12119SOL    HW140164   2.732   3.151   1.824  0.9149  0.3575 -1.2959
12119SOL    HW240165   2.760   3.024   1.724  3.7765  0.2409 -0.4093
12121SOL     OW40166   8.152   9.062   4.398 -0.7550 -0.5864 -0.3957
12121SOL    HW140167   8.112   9.131   4.338  2.3414  2.7937  1.2434
12121SOL    HW240168   8.215   9.004   4.347 -1.1946 -0.3477 -1.2077
12122SOL     OW40169   5.665   9.581   2.410 -0.2256  0.2087 -0.3304
12122SOL    HW140170   5.737   9.603   2.344 -0.5543 -2.1533 -1.5531
12122SOL    HW240171   5.681   9.489   2.446 -1.6170  0.3995  0.7908
12123SOL     OW40172   2.187   2.331   5.253 -0.1839 -0.3758  0.7847
12123SOL    HW140173   2.223   2.287   5.335 -0.3211  0.0075  1.0518
12123SOL    HW240174   2.249   2.315   5.176  0.2402 -0.2489  1.0967
12124SOL     OW40175   2.904   0.179   0.575 -0.0582  0.2729  0.1445
12124SOL    HW140176   2.875   0.263   0.528  0.3660  0.6486  0.5459
12124SOL    HW240177   2.889   0.188   0.673 -1.3307 -0.6775  0.0495
12125SOL     OW40178   3.147   7.356   3.326 -0.2814  0.1080  0.2475
12125SOL    HW140179   3.233   7.364   3.276 -0.6924  2.2626 -0.1462
12125SOL    HW240180   3.166   7.340   3.423  0.5462 -0.3625  0.0135
12126SOL     OW40181   1.175   3.046   4.123 -0.8225  1.0733 -0.2188
12126SOL    HW140182   1.152   3.044   4.221 -0.5815  0.3289 -0.1705
12126SOL    HW240183   1.094   3.025   4.069 -0.6314  0.0355 -0.1139
12128SOL     OW40184   1.873   9.654   4.530  0.8000  0.6174  0.0880
12128SOL    HW140185   1.917   9.722   4.590 -0.4741  2.2433 -0.7701
12128SOL    HW240186   1.791   9.695   4.490 -0.7077 -1.8832  0.5498
12129SOL     OW40187   1.105   1.531   1.806  0.1308 -0.1504 -0.0132
12129SOL    HW140188   1.150   1.494   1.887  0.2179 -2.2805 -0.9740
12129SOL    HW240189   1.170   1.585   1.753  0.8273 -0.9496  0.0026
12130SOL     OW40190   1.639   1.936   1.253  0.0448 -0.2726 -0.4358
12130SOL    HW140191   1.608   2.017   1.303  0.6350  0.5464 -1.3622
12130SOL    HW240192   1.722   1.900   1.296  0.1865  0.0430 -0.4440
12132SOL     OW40193   9.308   3.123   3.336 -0.3702 -0.4129 -0.3392
12132SOL    HW140194   9.235   3.058   3.317 -0.6904 -0.4934  1.1288
12132SOL    HW240195   9.273   3.197   3.394  0.6955 -0.4473  0.3737
12133SOL     OW40196   4.487   0.541   4.377  0.2275 -0.0268 -0.0490
12133SOL    HW140197   4.523   0.454   4.344 -1.5188 -0.2771 -1.3882
12133SOL    HW240198   4.503   0.612   4.308 -1.2159 -0.0052 -0.3835
12134SOL     OW40199   3.882   3.962   3.425  0.1052 -0.0569 -0.6863
12134SOL    HW140200   3.905   3.994   3.333  0.3918 -0.3398 -0.7146
12134SOL    HW240201   3.947   3.891   3.453  0.8634  1.0200  0.3053
12135SOL     OW40202   2.426   4.819   0.523 -0.3052  0.5690 -0.6978
12135SOL    HW140203   2.416   4.918   0.514  0.1349  0.6401 -0.3928
12135SOL    HW240204   2.348   4.774   0.478 -0.9984  1.0771 -0.0327
12138SOL     OW40205   3.796   6.120   2.080 -0.8775 -0.9677  0.0109
12138SOL    HW140206   3.742   6.056   2.025 -0.9351 -1.4238  0.5862
12138SOL    HW240207   3.755   6.211   2.077 -0.2949 -0.7449 -1.5363
12139SOL     OW40208   3.725   6.397   2.052 -0.0486  0.5116 -0.0157
12139SOL    HW140209   3.644   6.454   2.067 -0.2431  0.5548 -1.2375
12139SOL    HW240210   3.785   6.441   1.985 -0.9569 -1.5065 -2.1809
12140SOL     OW40211   1.469   0.029   1.457  0.0886  0.5026 -0.1296
12140SOL    HW140212   1.511   0.070   1.376 -0.2632  0.4308 -0.3461
12140SOL    HW240213   1.452   0.099   1.526  0.7749  0.4991  0.0480
12141SOL     OW40214   3.901   2.464   4.835 -0.2353  0.9010  0.3967
12141SOL    HW140215   3.991   2.425   4.818  0.4599  2.3992  0.5638
12141SOL    HW240216   3.831   2.407   4.791  0.9572  0.8808 -1.5512
12142SOL     OW40217   0.346   1.839   5.122  0.0140  0.1523  0.7491
12142SOL    HW140218   0.368   1.918   5.064  1.2199 -0.3777  0.4704
12142SOL    HW240219   0.375   1.857   5.216 -1.7519  0.9276  1.1711
12143SOL     OW40220   8.940   4.867   2.863  0.4703 -0.5776 -0.0282
12143SOL    HW140221   8.939   4.866   2.763 -1.5623 -1.1047 -0.0279
12143SOL    HW240222   9.017   4.922   2.895  0.2567  0.8490 -1.8926
12145SOL     OW40223   1.778   0.029   5.032 -0.0871  0.4951  0.5763
12145SOL    HW140224   1.740   0.063   5.118  0.2476  1.1585  0.4645
12145SOL    HW240225   1.876   0.010   5.044 -0.1171  0.2412  0.4371
12147SOL     OW40226   7.063   4.746   0.795  0.2188 -0.0467 -0.5230
12147SOL    HW140227   7.126   4.815   0.831  1.6436 -2.3240  1.6212
12147SOL    HW240228   7.110   4.692   0.725 -0.7791  0.9633 -1.9703
12148SOL     OW40229   4.512   1.526   0.772 -0.1010 -0.8501 -0.0191
12148SOL    HW140230   4.517   1.580   0.688  0.3922 -1.4672 -0.3876
12148SOL    HW240231   4.492   1.431   0.749 -0.1090 -0.9916  0.5744
12149SOL     OW40232   7.937   2.566   0.541 -0.2214  0.4327  0.0948
12149SOL    HW140233   7.908   2.596   0.632 -1.1725  0.3383 -0.1766
12149SOL    HW240234   7.909   2.633   0.473  1.0661  0.8277 -0.0661
12150SOL     OW40235   5.095   0.972   1.760 -0.1973  0.0718 -0.8325
12150SOL    HW140236   5.076   0.947   1.665 -1.1856  1.1757 -0.9323
12150SOL    HW240237   5.164   1.045   1.762 -2.1598  1.9584 -0.8324
12151SOL     OW40238   2.615   6.737   1.855 -0.2961  0.0665 -0.3002
12151SOL    HW140239   2.584   6.786   1.936  0.9369 -2.3256  1.7347
12151SOL    HW240240   2.640   6.643   1.881  1.3484 -0.3769 -3.2150
12152SOL     OW40241   2.083   5.075   3.920 -0.5797 -0.1131  0.3269
12152SOL    HW140242   2.081   5.058   3.821 -0.8700 -1.7070  0.5910
12152SOL    HW240243   2.115   5.168   3.937  0.4060 -0.1413 -1.2340
12154SOL     OW40244   2.010   4.298   2.122  0.1500  0.2192 -0.0514
12154SOL    HW140245   2.108   4.293   2.140  0.3298  0.9570 -0.7982
12154SOL    HW240246   1.962   4.327   2.204  0.6229  0.4755  0.1306
12156SOL     OW40247   2.013   4.560   1.240  0.6179  0.1693 -0.1632
12156SOL    HW140248   2.077   4.492   1.276  1.3142  0.8670 -0.0764
12156SOL    HW240249   1.941   4.577   1.308 -0.1776 -1.2900 -0.6343
12157SOL     OW40250   8.707   2.374   0.051  0.2931 -0.2082 -0.2448
12157SOL    HW140251   8.669   2.445   0.110 -0.2573 -0.8501  0.1725
12157SOL    HW240252   8.766   2.313   0.104 -1.1007 -1.4601 -0.1206
12158SOL     OW40253   1.358   9.139   0.869 -0.4361  0.1313 -0.5883
12158SOL    HW140254   1.448   9.119   0.907 -1.6035 -1.3763  1.4588
12158SOL    HW240255   1.297   9.171   0.942 -2.9777 -3.6857 -0.8853
12160SOL     OW40256   9.953   8.337   3.670  0.1371 -0.1400 -0.0103
12160SOL    HW140257  10.038   8.287   3.688  0.2743  0.5399  1.3046
12160SOL    HW240258   9.969   8.406   3.600  0.4257 -0.6675 -0.4698
12162SOL     OW40259   2.546   9.161   4.965 -0.4377 -0.2794  0.0109
12162SOL    HW140260   2.453   9.177   4.934 -0.2575 -3.2122 -2.4126
12162SOL    HW240261   2.605   9.237   4.937 -1.3504 -0.3476 -2.1870
12163SOL     OW40262   2.680   2.249   5.175 -0.3261  0.2600  0.0448
12163SOL    HW140263   2.610   2.320   5.183  1.6080  2.1561  0.6189
12163SOL    HW240264   2.696   2.207   5.264  1.1959  1.7578  0.5033
12164SOL     OW40265   6.288   1.069   1.243 -0.2619 -0.2011 -0.4762
12164SOL    HW140266   6.237   0.990   1.274  1.0569 -0.5486  0.8488
12164SOL    HW240267   6.380   1.041   1.216 -0.0422  0.7512 -0.7570
12165SOL     OW40268   3.104   3.884   1.861  0.0490  0.0799 -0.2246
12165SOL    HW140269   3.155   3.930   1.788 -0.7979 -0.9728 -1.5281
12165SOL    HW240270   3.166   3.856   1.934  0.8866  1.3262 -0.4451
12166SOL     OW40271   3.179   3.345   1.922 -0.2437  0.8472  0.8703
12166SOL    HW140272   3.160   3.300   2.010 -0.3714  0.5842  0.7084
12166SOL    HW240273   3.131   3.432   1.919 -1.4885  0.1619  0.4450
12167SOL     OW40274   2.578   7.697   1.406  0.3053 -0.2310  0.3689
12167SOL    HW140275   2.519   7.643   1.347  0.6465  0.2391 -0.4250
12167SOL    HW240276   2.583   7.791   1.370  0.3218  0.1216  1.2891
12168SOL     OW40277   3.733   0.041   4.229  0.2827 -0.4561  0.3363
12168SOL    HW140278   3.771   0.132   4.240 -1.5236 -0.1026  4.8395
12168SOL    HW240279   3.657   0.044   4.164  0.3991  1.1971  0.2651
12171SOL     OW40280   0.449   2.576   3.789 -0.2420  0.1253 -0.0919
12171SOL    HW140281   0.437   2.646   3.719  0.6796  0.2089 -0.1660
12171SOL    HW240282   0.401   2.603   3.872 -0.7162  0.3747 -0.4444
12172SOL     OW40283   0.533   3.792   2.507 -1.0273 -0.1561 -0.6449
12172SOL    HW140284   0.583   3.765   2.589 -1.7270 -0.5968 -0.3532
12172SOL    HW240285   0.435   3.776   2.521 -1.1753 -0.0143 -1.4789
12173SOL     OW40286   8.341   9.555   4.196  0.2209 -0.3372  0.0954
12173SOL    HW140287   8.343   9.608   4.111 -0.8261 -2.5074 -1.3219
12173SOL    HW240288   8.247   9.528   4.216  0.5948 -0.6578  1.4568
12174SOL     OW40289   0.775   4.652   4.491 -0.2836  0.1369  0.4919
12174SOL    HW140290   0.847   4.584   4.504 -1.4120 -0.6821  2.6407
12174SOL    HW240291   0.814   4.744   4.504  0.4270 -0.2898  1.3946
12175SOL     OW40292   4.629   1.173   5.101 -0.0151 -0.2830 -0.8584
12175SOL    HW140293   4.566   1.212   5.034 -0.0829  1.0613 -0.0339
12175SOL    HW240294   4.618   1.220   5.189  2.3125  0.1652 -0.7648
12177SOL     OW40295   3.064   7.739   4.174 -0.6050 -0.2937 -0.4332
12177SOL    HW140296   3.122   7.686   4.236 -0.4480  1.2296  0.7532
12177SOL    HW240297   2.976   7.758   4.218 -0.4078  0.9963 -0.5686
12179SOL     OW40298   1.502   3.812   4.161 -0.8307  0.3493  0.2046
12179SOL    HW140299   1.424   3.830   4.221 -0.4202  1.5656  0.3715
12179SOL    HW240300   1.566   3.751   4.208 -1.5176 -0.3932  0.1873
12180SOL     OW40301   1.781   5.175   4.500 -0.4737 -0.1471 -0.0264
12180SOL    HW140302   1.836   5.257   4.515 -0.4479 -0.1431 -0.1373
12180SOL    HW240303   1.814   5.101   4.557 -0.8256  0.0670  0.4588
12181SOL     OW40304   6.246   0.620   4.214 -0.0304 -0.1388  0.5002
12181SOL    HW140305   6.321   0.557   4.233  0.4969  0.1379 -0.6262
12181SOL    HW240306   6.282   0.702   4.169 -0.9838  0.0876  0.1370
12182SOL     OW40307   0.355   7.229   1.350  0.0056 -0.7215  0.2172
12182SOL    HW140308   0.294   7.152   1.328 -0.4560  0.1652 -1.7436
12182SOL    HW240309   0.437   7.222   1.293 -0.8596  1.2078 -1.3306
12183SOL     OW40310   9.156   0.972   1.610  0.7265 -0.2191 -0.0019
12183SOL    HW140311   9.231   0.908   1.596 -0.5152 -1.6895 -0.0867
12183SOL    HW240312   9.152   1.036   1.533  1.4976 -0.5322 -0.3053
12184SOL     OW40313   5.863   8.262   5.169 -0.1447 -0.0624 -0.5514
12184SOL    HW140314   5.779   8.227   5.211  0.7003 -0.5590  0.7707
12184SOL    HW240315   5.856   8.361   5.157 -1.9499 -0.4562 -2.8981
12186SOL     OW40316   8.919   8.657   0.269  0.1528  0.0785  0.2152
12186SOL    HW140317   9.006   8.643   0.221  0.2042 -0.4241  0.4552
12186SOL    HW240318   8.890   8.752   0.257 -0.6777 -0.4591 -2.2085
12187SOL     OW40319   3.761   5.477   4.149 -0.1585 -0.2916 -0.5459
12187SOL    HW140320   3.796   5.414   4.217  1.5962 -0.7602 -1.8337
12187SOL    HW240321   3.718   5.426   4.075 -0.8144  0.1367 -0.4620
12188SOL     OW40322   1.033   1.332   2.516  0.0530 -0.3765  0.2417
12188SOL    HW140323   0.945   1.368   2.547  0.2384  1.0052 -0.7942
12188SOL    HW240324   1.019   1.242   2.476 -1.0239  0.1162 -0.5493
12189SOL     OW40325   3.269   0.136   0.214 -0.4470 -0.0653 -0.3784
12189SOL    HW140326   3.289   0.061   0.150 -0.8201  0.5498 -1.2235
12189SOL    HW240327   3.219   0.208   0.166 -2.1495 -0.2915  1.0050
12190SOL     OW40328   0.298   3.214   3.674  0.3997 -0.1151 -0.2137
12190SOL    HW140329   0.314   3.298   3.621 -0.1065 -0.3214 -0.7005
12190SOL    HW240330   0.278   3.139   3.611  1.1210 -0.6646  0.2036
12192SOL     OW40331   5.264   5.398   0.710 -0.1668  0.0699 -0.1570
12192SOL    HW140332   5.356   5.375   0.681  0.3458  0.9090  0.7627
12192SOL    HW240333   5.200   5.382   0.635  1.0970  2.0865 -1.7299
12194SOL     OW40334   4.427   3.982   3.911  0.0868 -0.7485 -0.0889
12194SOL    HW140335   4.455   4.010   4.003  0.6935  0.1288 -0.5360
12194SOL    HW240336   4.374   3.898   3.917  0.6676 -1.0464  1.0065
12195SOL     OW40337   9.466   1.161   0.894  0.0901  0.1982  0.0602
12195SOL    HW140338   9.415   1.233   0.846 -1.7107 -1.1376 -0.1189
12195SOL    HW240339   9.405   1.115   0.958  0.7167 -2.3195 -1.0955
12196SOL     OW40340   1.156   7.823   4.949 -0.2850  0.1543 -0.1671
12196SOL    HW140341   1.194   7.861   4.865  0.5780  0.0535  0.1750
12196SOL    HW240342   1.221   7.836   5.024 -1.1030  0.3702  0.5173
12197SOL     OW40343   8.782   7.526   1.196 -0.5916  0.4357 -0.1315
12197SOL    HW140344   8.866   7.474   1.208  0.0257  0.7978 -2.4585
12197SOL    HW240345   8.740   7.544   1.285  1.4680 -0.2645  1.0145
12198SOL     OW40346   5.431   1.265   1.524  0.4240  0.1572 -0.3891
12198SOL    HW140347   5.372   1.341   1.495  0.9559  1.0247  0.7822
12198SOL    HW240348   5.522   1.276   1.482  1.2606  1.5309  1.7212
12199SOL     OW40349   8.615   6.641   0.287 -0.0938  0.0638  0.4319
12199SOL    HW140350   8.559   6.601   0.360 -1.0291  0.2564 -0.1727
12199SOL    HW240351   8.655   6.728   0.319 -1.2049  0.5814  0.4211
12200SOL     OW40352   8.314   6.642   4.812 -0.5830 -0.7948  0.4808
12200SOL    HW140353   8.283   6.688   4.729  1.0332  0.1952  0.3904
12200SOL    HW240354   8.281   6.693   4.892 -0.6578 -0.7370  0.4134
12201SOL     OW40355   4.982   6.967   3.011 -0.4804  0.3679  0.1632
12201SOL    HW140356   4.921   6.961   3.091 -0.8240  1.7847  0.0132
12201SOL    HW240357   4.945   6.912   2.937 -1.4042  0.9408  0.1932
12202SOL     OW40358   8.330   8.405   3.686  0.0041  0.3278 -0.2099
12202SOL    HW140359   8.351   8.334   3.619 -1.5765  0.5691 -0.9863
12202SOL    HW240360   8.285   8.364   3.765  0.4965  0.2589  0.0375
12203SOL     OW40361   3.630   5.137   2.664  0.5190  0.2337 -0.0144
12203SOL    HW140362   3.694   5.093   2.727  2.1168 -1.2414 -2.6095
12203SOL    HW240363   3.610   5.075   2.588 -4.8777  0.1708  1.2180
12204SOL     OW40364   9.333   6.146   5.318  0.7756  0.3497  0.4506
12204SOL    HW140365   9.291   6.070   5.368 -0.1447  1.0184  0.7024
12204SOL    HW240366   9.308   6.141   5.222  0.5807  0.4382  0.4982
12206SOL     OW40367   6.990   1.280   1.180 -0.0692  0.3393 -0.0004
12206SOL    HW140368   6.896   1.309   1.159 -0.4696 -0.7261  0.2805
12206SOL    HW240369   7.027   1.229   1.102 -0.6574 -1.4513  0.8440
12207SOL     OW40370   2.354   5.806   3.420  0.1074  0.7335  0.1622
12207SOL    HW140371   2.277   5.836   3.363 -0.2886 -0.4047  0.0902
12207SOL    HW240372   2.392   5.722   3.382  1.4481  1.3392  0.1535
12209SOL     OW40373   8.718   0.232   2.383  0.0946  0.1725  0.1320
12209SOL    HW140374   8.786   0.283   2.435 -0.5363  2.7798 -1.5037
12209SOL    HW240375   8.760   0.148   2.347  2.1911  1.2419 -0.0298
12210SOL     OW40376   1.726   2.157   3.308 -0.0028 -0.1260  0.8332
12210SOL    HW140377   1.704   2.062   3.329  0.0503  0.0859  1.8582
12210SOL    HW240378   1.674   2.218   3.367  1.2442  0.4385  1.3746
12211SOL     OW40379   7.196   0.679   5.002 -0.7572  0.6624  0.1679
12211SOL    HW140380   7.207   0.589   5.044  1.0479  0.0776 -1.5361
12211SOL    HW240381   7.100   0.708   5.012 -1.3825 -1.4628  0.6656
12213SOL     OW40382   1.554   3.040   3.172  0.1581  0.1620 -0.3564
12213SOL    HW140383   1.486   2.985   3.219 -0.3894  0.7589 -0.4503
12213SOL    HW240384   1.532   3.043   3.074  0.9928 -0.6343 -0.5815
12214SOL     OW40385   4.580   0.149   5.086 -0.2441  0.2194 -0.3764
12214SOL    HW140386   4.584   0.166   5.185 -0.4156 -1.8945  0.0006
12214SOL    HW240387   4.506   0.203   5.046 -0.4554  0.7413  0.7040
12215SOL     OW40388   1.488   9.315   1.317  0.3965 -0.1734 -0.4460
12215SOL    HW140389   1.438   9.230   1.300 -0.0309  0.2089 -1.1100
12215SOL    HW240390   1.575   9.312   1.267  1.0660 -0.8447  0.7247
12216SOL     OW40391   5.324   2.667   3.731  0.7977  0.3103 -0.4109
12216SOL    HW140392   5.270   2.698   3.809  0.7379  0.6800 -0.5981
12216SOL    HW240393   5.380   2.589   3.758 -1.1354 -1.1917 -0.6589
12217SOL     OW40394   6.531   1.893   4.340 -0.2106  0.2436  0.3058
12217SOL    HW140395   6.528   1.795   4.322  0.9828  0.4721 -1.3174
12217SOL    HW240396   6.516   1.910   4.437 -3.0439 -1.3505  0.1838
12218SOL     OW40397   1.883   8.567   0.312  0.1881 -0.3414 -0.0800
12218SOL    HW140398   1.936   8.649   0.293 -0.0073 -0.4477 -1.1538
12218SOL    HW240399   1.788   8.591   0.327  0.3687 -0.2418  0.9498
12219SOL     OW40400   0.882   1.981   3.705  0.0574  0.6443  0.2593
12219SOL    HW140401   0.878   2.033   3.790 -1.4392 -0.4517  0.8869
12219SOL    HW240402   0.971   1.994   3.662  1.6525 -0.4992  3.0775
12220SOL     OW40403   3.837   8.028   0.166  0.2409 -0.5368  0.1259
12220SOL    HW140404   3.802   8.121   0.153  1.0304 -0.0191  1.5703
12220SOL    HW240405   3.863   7.989   0.078 -0.2521  0.5501 -0.5084
12221SOL     OW40406   8.687   9.130   1.591 -0.2186 -0.6840  0.8368
12221SOL    HW140407   8.638   9.081   1.518  3.6006  1.9494 -3.7298
12221SOL    HW240408   8.644   9.220   1.604 -0.7413 -1.0550  1.7096
12222SOL     OW40409   7.424   9.921   3.986  0.0783 -0.1289  0.0265
12222SOL    HW140410   7.502   9.972   4.022  0.5458 -0.9111  0.1240
12222SOL    HW240411   7.452   9.868   3.906 -0.0827 -1.2797  0.7217
12223SOL     OW40412   4.325   4.254   1.696 -0.1345 -0.3541  0.3509
12223SOL    HW140413   4.299   4.342   1.656  1.5569 -0.3770 -0.8512
12223SOL    HW240414   4.268   4.182   1.657  1.1267 -0.3027 -1.6608
12224SOL     OW40415   1.156   7.902   0.590 -0.5251  0.1319  0.6845
12224SOL    HW140416   1.207   7.988   0.582 -0.2536 -0.1150 -0.3559
12224SOL    HW240417   1.082   7.901   0.522 -0.1793 -0.6833  0.3159
12226SOL     OW40418   4.307   9.876   2.859 -0.1982  0.0379 -0.0087
12226SOL    HW140419   4.308   9.906   2.763  0.9967 -0.6726 -0.2243
12226SOL    HW240420   4.400   9.872   2.894 -0.4992 -1.4094  0.6528
12227SOL     OW40421   2.127   6.525   2.236 -0.2150  0.2877 -0.2853
12227SOL    HW140422   2.205   6.480   2.193  0.0627 -1.5323  2.0307
12227SOL    HW240423   2.043   6.482   2.206 -0.1599  0.4701 -0.6995
12228SOL     OW40424   6.614   1.815   0.453  0.1051  0.3483  0.6701
12228SOL    HW140425   6.530   1.864   0.435 -0.6672 -1.1363  0.1793
12228SOL    HW240426   6.649   1.774   0.369 -1.2182 -2.9660  1.6414
12229SOL     OW40427   7.558   8.993   5.138  0.3355 -0.6387 -0.1841
12229SOL    HW140428   7.653   8.967   5.155 -0.3691 -2.1595  1.6061
12229SOL    HW240429   7.511   9.007   5.225 -1.2110 -0.3508 -1.0458
12230SOL     OW40430   0.642   9.748   4.138  0.0803  0.2996 -0.1292
12230SOL    HW140431   0.693   9.833   4.134  1.9037 -0.8365 -1.4019
12230SOL    HW240432   0.580   9.742   4.060  0.5620  0.0833 -0.4970
12231SOL     OW40433   3.852   1.079   3.598 -0.0193  0.4082  0.0013
12231SOL    HW140434   3.808   0.990   3.582  0.4434  0.2790 -0.5885
12231SOL    HW240435   3.928   1.067   3.663  0.6873  0.1785 -0.8546
12232SOL     OW40436   3.378   8.323   3.223 -0.5053 -0.1610  0.2343
12232SOL    HW140437   3.340   8.364   3.140  0.1285  0.0481  0.0438
12232SOL    HW240438   3.351   8.227   3.228  0.3530 -0.4629 -0.7768
12233SOL     OW40439   8.860   6.607   4.869 -0.7196  0.6239  0.1009
12233SOL    HW140440   8.812   6.633   4.784 -0.5825  0.5807  0.0097
12233SOL    HW240441   8.793   6.582   4.938 -0.7810 -1.7401 -0.7653
12234SOL     OW40442   5.519   8.866   2.198  0.6157  0.5768  0.5622
12234SOL    HW140443   5.472   8.803   2.260  2.6216 -0.5970  0.9391
12234SOL    HW240444   5.505   8.836   2.104  2.6997 -1.3235  0.7987
12235SOL     OW40445   1.889   9.628   2.657  0.1664 -0.4913 -0.0521
12235SOL    HW140446   1.868   9.551   2.717 -0.2629 -1.1217 -1.0116
12235SOL    HW240447   1.805   9.680   2.639  0.0998 -0.9284 -0.9857
12237SOL     OW40448   8.737   2.027   0.424  0.1132 -0.4456 -0.0992
12237SOL    HW140449   8.654   2.001   0.375  0.1234 -0.3069 -0.1897
12237SOL    HW240450   8.783   2.101   0.375 -0.2662  0.1959  0.5121
12238SOL     OW40451   3.818   6.860   5.027  0.1821 -0.2520  0.1024
12238SOL    HW140452   3.777   6.856   4.936  0.8468 -1.5544 -0.1370
12238SOL    HW240453   3.772   6.796   5.088 -2.3128  2.7402  1.5532
12239SOL     OW40454   0.243   3.190   3.116  1.1408 -0.2503  0.7847
12239SOL    HW140455   0.250   3.107   3.060  1.7910  0.4248 -0.1460
12239SOL    HW240456   0.321   3.249   3.098  0.5591  0.6798  1.2715
12240SOL     OW40457   9.087   3.606   2.521 -0.6312  0.2429 -0.1813
12240SOL    HW140458   9.104   3.515   2.559  0.6658 -0.9822 -3.5677
12240SOL    HW240459   9.068   3.670   2.596 -2.5961 -2.9852  2.1717
12241SOL     OW40460   5.257   6.895   2.701  0.0659  0.2416 -0.0462
12241SOL    HW140461   5.310   6.834   2.642  0.5513  0.2909  0.3397
12241SOL    HW240462   5.280   6.990   2.679 -1.7412  0.3499 -1.6434
12242SOL     OW40463   1.987   7.018   0.925 -0.1370  0.2928  0.2597
12242SOL    HW140464   2.028   6.929   0.907  0.7676  0.6474  0.5496
12242SOL    HW240465   1.949   7.056   0.840  1.5378  0.6649 -0.3418
12243SOL     OW40466   8.010   7.315   3.868 -0.6078  0.3697  0.1126
12243SOL    HW140467   7.954   7.299   3.949  0.3565  2.3048  1.1957
12243SOL    HW240468   7.979   7.399   3.823 -0.7506 -0.3747 -1.1877
12246SOL     OW40469   1.851   5.663   5.175  0.4552 -0.2264  0.0140
12246SOL    HW140470   1.782   5.666   5.247  1.5367 -1.4977  1.1327
12246SOL    HW240471   1.845   5.746   5.119 -1.4102  0.0534  0.6032
12247SOL     OW40472   0.957   5.289   3.138  0.5058 -0.1633  0.2553
12247SOL    HW140473   0.975   5.387   3.128  0.4044 -0.0314  1.3247
12247SOL    HW240474   1.034   5.245   3.184 -0.1053 -0.3113  1.1556
12248SOL     OW40475   0.411   4.733   1.734  0.2893  0.0140  0.0290
12248SOL    HW140476   0.463   4.691   1.809 -0.3915  1.2311  1.2189
12248SOL    HW240477   0.316   4.744   1.762  0.0533  0.5723 -0.9818
12249SOL     OW40478   8.707   9.991   0.757  0.0317 -0.0799 -0.2028
12249SOL    HW140479   8.677   9.990   0.662 -0.2799  1.4678 -0.1207
12249SOL    HW240480   8.649   9.929   0.811 -1.4107  0.9838 -0.5236
12250SOL     OW40481   1.432   1.579   0.021 -0.0420 -0.0822  0.2432
12250SOL    HW140482   1.409   1.669  -0.015  2.6854  1.1217  1.2934
12250SOL    HW240483   1.410   1.576   0.119  1.1841 -0.0229  0.5314
12251SOL     OW40484   5.605   1.360   0.660  0.4627 -0.5492  0.6972
12251SOL    HW140485   5.510   1.332   0.672 -0.3573  1.2474 -1.4338
12251SOL    HW240486   5.619   1.449   0.702  0.3549  0.6782 -1.7841
12252SOL     OW40487   2.661   2.012   0.339  0.2685  0.1712 -0.0387
12252SOL    HW140488   2.674   1.991   0.243  0.1368 -0.2004  0.0266
12252SOL    HW240489   2.668   2.111   0.353 -0.3178  0.2818 -0.5197
12254SOL     OW40490   0.377   7.387   0.556  0.3574  0.6475 -0.3341
12254SOL    HW140491   0.477   7.384   0.550  0.2602 -1.2214 -1.5748
12254SOL    HW240492   0.349   7.370   0.651  1.1879 -0.9682 -0.3499
12255SOL     OW40493   1.011   6.346   0.773  0.1288 -0.3314  0.1945
12255SOL    HW140494   0.979   6.439   0.755 -1.0427 -0.8508 -0.4918
12255SOL    HW240495   0.972   6.313   0.859  0.0139 -0.4354  0.1015
12256SOL     OW40496   0.070   5.331   3.312  0.3523  0.0572 -0.4341
12256SOL    HW140497   0.004   5.405   3.296  0.3196 -0.0799 -0.9195
12256SOL    HW240498   0.047   5.285   3.398 -0.7748 -0.6082 -1.0705
12259SOL     OW40499   0.793   2.943   2.909  0.1897  0.2571 -0.5233
12259SOL    HW140500   0.717   2.949   2.844 -0.2037  1.1370  0.0012
12259SOL    HW240501   0.873   2.905   2.863  0.0695  1.3557 -1.6845
12260SOL     OW40502   1.164   7.716   3.051  0.5220  0.3340 -0.2910
12260SOL    HW140503   1.225   7.685   2.978 -0.1209 -0.1947 -0.6137
12260SOL    HW240504   1.209   7.788   3.105  1.5542 -0.2879 -0.3105
12261SOL     OW40505   4.198   5.600   0.193 -0.3293 -0.0112  0.5628
12261SOL    HW140506   4.296   5.583   0.187 -0.3137  0.7632 -2.0697
12261SOL    HW240507   4.175   5.633   0.284  1.7956 -0.5533  1.3142
12262SOL     OW40508   6.214   8.769   2.623 -0.5183  0.7930  0.1147
12262SOL    HW140509   6.286   8.812   2.569 -0.8397  1.1321 -0.0386
12262SOL    HW240510   6.245   8.759   2.717  0.4400 -0.7242 -0.3378
12264SOL     OW40511   6.174   1.280   4.716  0.2971  0.8556  0.3086
12264SOL    HW140512   6.219   1.215   4.777  1.1997  0.6504 -0.5571
12264SOL    HW240513   6.237   1.306   4.643 -0.7364  1.1680 -0.4880
12265SOL     OW40514   1.726   0.498   1.394 -0.4409 -0.1909 -0.1452
12265SOL    HW140515   1.742   0.464   1.301 -0.8464  2.1165 -1.0937
12265SOL    HW240516   1.803   0.472   1.453  1.3130  0.9030 -1.8819
12266SOL     OW40517   2.481   5.770   3.873 -0.3333 -0.4284  0.1549
12266SOL    HW140518   2.563   5.781   3.817 -1.0745 -0.5192 -0.9741
12266SOL    HW240519   2.474   5.675   3.904  0.0515 -0.3920  0.3481
12267SOL     OW40520   3.485   5.374   4.121 -0.0113  1.2479  0.2834
12267SOL    HW140521   3.520   5.286   4.087 -3.5254  0.2811 -1.0681
12267SOL    HW240522   3.542   5.406   4.197  1.1928 -2.3293  0.9772
12269SOL     OW40523   8.973   7.046   2.871 -0.1421 -0.4069 -0.0671
12269SOL    HW140524   8.958   6.967   2.810 -0.6131  1.7808 -2.8764
12269SOL    HW240525   9.070   7.065   2.876 -0.2078  0.4193 -1.5299
12271SOL     OW40526   4.450   4.966   3.696 -0.4249  0.3482  0.1414
12271SOL    HW140527   4.472   4.952   3.599  2.9639  1.2241  0.7097
12271SOL    HW240528   4.501   4.901   3.752 -2.3138 -0.1114  1.3873
12273SOL     OW40529   4.000   4.803   6.750  0.4670  0.1790 -0.1549
12273SOL    HW140530   3.909   4.764   6.738  0.7260 -0.1987 -0.9002
12273SOL    HW240531   4.024   4.856   6.669  0.6430  0.8420  0.3183
12274SOL     OW40532   0.052   9.139   4.938 -0.1234  0.5499  0.4937
12274SOL    HW140533   0.079   9.114   4.845 -1.1354  2.8638 -0.4692
12274SOL    HW240534   0.128   9.120   5.001  0.4865 -1.2578 -0.7355
12275SOL     OW40535   8.831   9.816   1.690 -0.0804  0.9499 -0.3737
12275SOL    HW140536   8.852   9.862   1.776 -1.3681  0.9216 -0.0210
12275SOL    HW240537   8.907   9.756   1.664  1.1476  2.4519 -0.2799
12276SOL     OW40538   1.890   6.435   2.151 -0.4549 -0.3316 -0.6054
12276SOL    HW140539   1.837   6.360   2.191  0.4621  0.7159  2.7797
12276SOL    HW240540   1.834   6.518   2.150 -0.6730 -0.4944 -2.0970
12277SOL     OW40541   8.123   2.748   2.082  0.2824  0.5646  0.2082
12277SOL    HW140542   8.178   2.832   2.086 -0.0129  0.8153 -0.7551
12277SOL    HW240543   8.097   2.721   2.175  2.4135  0.1751  0.7317
12278SOL     OW40544   3.764   1.304   2.736 -0.6511  0.4351 -0.1668
12278SOL    HW140545   3.671   1.274   2.713 -0.6731  1.4112 -1.3773
12278SOL    HW240546   3.830   1.236   2.704 -0.8677  0.3676 -0.4663
12279SOL     OW40547   2.189   6.509   0.805  0.2013  0.5512  0.2603
12279SOL    HW140548   2.264   6.498   0.870 -0.0767  1.0196  0.6652
12279SOL    HW240549   2.128   6.430   0.809  0.2879  0.4943  0.4328
12280SOL     OW40550   1.155   5.801   3.844 -0.2370 -0.0481 -0.0293
12280SOL    HW140551   1.172   5.803   3.745  0.7358 -1.6138  0.0915
12280SOL    HW240552   1.242   5.799   3.893 -0.7216 -0.1999  0.8353
12281SOL     OW40553   9.709   7.860   2.947  0.2333 -0.1062  0.0071
12281SOL    HW140554   9.638   7.915   2.992 -1.4581 -1.1814 -1.2721
12281SOL    HW240555   9.666   7.788   2.893  2.2709  0.2483 -2.1734
12282SOL     OW40556   9.859   7.956   4.734  0.1701  0.4000 -0.1410
12282SOL    HW140557   9.955   7.982   4.722  0.8356 -1.1757  1.5235
12282SOL    HW240558   9.839   7.950   4.832 -1.2648 -0.6338 -0.4906
12283SOL     OW40559   3.156   2.997   2.303 -0.3242  0.4305  0.0276
12283SOL    HW140560   3.203   2.916   2.267 -0.0764  0.6490 -0.1433
12283SOL    HW240561   3.205   3.031   2.383 -1.1754 -0.3685  0.8970
12284SOL     OW40562   9.062   2.860   3.620 -0.0745  0.9381  0.1182
12284SOL    HW140563   9.080   2.766   3.647  0.9637  0.7455 -1.1813
12284SOL    HW240564   8.965   2.880   3.630 -0.4074 -0.4666 -0.2093
12285SOL     OW40565   6.681   2.254   2.607  0.4432 -0.0101  0.7059
12285SOL    HW140566   6.737   2.173   2.591  1.3246  0.6790  0.2664
12285SOL    HW240567   6.711   2.328   2.547 -1.3060  0.2013  0.0404
12287SOL     OW40568   8.679   7.848   0.789  0.4331 -0.3691  0.7604
12287SOL    HW140569   8.701   7.763   0.837 -0.6096 -0.7379  0.5994
12287SOL    HW240570   8.619   7.828   0.712 -1.9364  0.8071  2.2593
12288SOL     OW40571   0.710   1.797   3.614 -0.2778  0.2183 -0.2131
12288SOL    HW140572   0.758   1.730   3.557  0.7029  0.0799  0.7620
12288SOL    HW240573   0.776   1.859   3.656 -0.9634  0.1530  0.9855
12290SOL     OW40574   9.797   3.613   2.517 -0.4955 -0.0085 -0.4379
12290SOL    HW140575   9.714   3.666   2.503 -0.9092 -0.3190  0.7943
12290SOL    HW240576   9.777   3.515   2.507 -0.3637 -0.1068  0.2204
12293SOL     OW40577   2.670   8.321   4.300 -0.2148 -0.1871  0.1118
12293SOL    HW140578   2.735   8.289   4.369  1.5483  0.8960 -0.9967
12293SOL    HW240579   2.586   8.351   4.345  0.3806 -0.7998  1.6687
12294SOL     OW40580   3.468   2.270   4.667 -0.3810 -0.2300 -0.3899
12294SOL    HW140581   3.400   2.306   4.604 -0.8702 -0.8846 -0.2370
12294SOL    HW240582   3.467   2.170   4.665 -1.2337 -0.2933  1.5150
12295SOL     OW40583   7.074   0.917   3.445  0.6288  0.2681 -0.3773
12295SOL    HW140584   7.171   0.894   3.437  0.7534  0.6254  0.0755
12295SOL    HW240585   7.030   0.909   3.355  1.0996  0.2115 -0.6031
12296SOL     OW40586   9.970   1.792   0.292 -0.3138 -0.1847 -0.0050
12296SOL    HW140587  10.006   1.885   0.304  0.7738 -0.9781  3.2637
12296SOL    HW240588  10.011   1.752   0.209  0.4785  1.6397 -0.5419
12297SOL     OW40589   6.410   7.589   2.327 -0.1626 -0.5123 -0.2478
12297SOL    HW140590   6.501   7.615   2.358 -0.3093 -0.6723  0.3168
12297SOL    HW240591   6.400   7.490   2.332 -0.5668 -0.4466  0.2418
12298SOL     OW40592   0.508   2.413   5.265  0.1152 -0.6199  0.3063
12298SOL    HW140593   0.409   2.423   5.256  0.2812  0.1375 -0.7744
12298SOL    HW240594   0.546   2.495   5.309  0.3574 -0.4993 -0.1160
12299SOL     OW40595   2.866   7.956   4.250 -0.9631 -0.3070  0.6232
12299SOL    HW140596   2.793   7.913   4.303 -1.5941 -0.5309 -0.4135
12299SOL    HW240597   2.837   7.967   4.155  0.2270 -0.0902  0.2684
12300SOL     OW40598   5.206   8.535   4.016 -0.2143  0.2505 -0.2690
12300SOL    HW140599   5.191   8.492   3.927  1.5914 -1.0576  0.0466
12300SOL    HW240600   5.129   8.513   4.077 -0.7494 -0.0409 -1.0360
12301SOL     OW40601   9.750   3.841   0.835 -0.4628  0.2927 -0.2899
12301SOL    HW140602   9.778   3.928   0.877 -1.5811  0.5350 -0.0348
12301SOL    HW240603   9.805   3.767   0.874  1.0105  0.9670 -1.0515
12302SOL     OW40604   0.261   9.542   4.173 -0.1691 -0.4750  0.2217
12302SOL    HW140605   0.273   9.475   4.100  0.7719 -1.7646  1.5343
12302SOL    HW240606   0.305   9.509   4.257 -0.3265  1.4458  1.0990
12303SOL     OW40607   0.064   8.530   3.106  0.2428 -0.2774 -0.0216
12303SOL    HW140608   0.044   8.433   3.115  0.2724 -0.2508  0.3583
12303SOL    HW240609   0.156   8.548   3.141  0.4457 -0.2024 -0.6027
12304SOL     OW40610   3.645   7.595   2.633 -0.5472  0.0829  0.3001
12304SOL    HW140611   3.679   7.595   2.539 -2.8498  3.4759 -0.6005
12304SOL    HW240612   3.722   7.588   2.696  1.2483  0.4471 -1.7876
12305SOL     OW40613   3.422   0.718   1.724  0.4645  0.9683 -0.0333
12305SOL    HW140614   3.368   0.800   1.707 -1.3612 -0.0492  0.6565
12305SOL    HW240615   3.397   0.680   1.814 -0.8789 -1.9394 -1.5595
12306SOL     OW40616   5.051   3.098   3.262 -0.0627 -0.2886  0.3749
12306SOL    HW140617   5.070   3.003   3.236 -0.0817 -0.5991  1.4599
12306SOL    HW240618   5.086   3.114   3.354  0.5808  0.9751 -0.0900
12307SOL     OW40619   4.294   1.734   3.516  0.0696  0.2472  1.3215
12307SOL    HW140620   4.277   1.637   3.497  0.1535 -0.0168  2.5701
12307SOL    HW240621   4.307   1.747   3.614  1.7032  1.2632  0.9937
12308SOL     OW40622   4.435   7.313   1.295 -0.3767  0.0761 -0.1619
12308SOL    HW140623   4.442   7.398   1.346  0.8522 -0.7031  0.9839
12308SOL    HW240624   4.360   7.320   1.229  0.1765  2.2979 -0.5947
12310SOL     OW40625   9.738   4.903   1.831 -0.2664 -0.1742  0.0600
12310SOL    HW140626   9.687   4.862   1.756 -1.9960  0.7825  0.6965
12310SOL    HW240627   9.729   5.002   1.828  0.8754 -0.0412  0.6777
12311SOL     OW40628   0.934   3.701   4.734  0.0886  1.0833 -0.3514
12311SOL    HW140629   0.928   3.766   4.659  1.8319 -0.5483 -1.9502
12311SOL    HW240630   1.020   3.650   4.728  0.1331  0.7173  2.5839
12312SOL     OW40631   3.730   2.556   1.731 -0.7569 -0.3858  0.0154
12312SOL    HW140632   3.791   2.603   1.796 -0.4910 -0.2199 -0.3503
12312SOL    HW240633   3.785   2.519   1.656 -0.9633 -1.2905  0.3048
12313SOL     OW40634   1.796   8.807   4.306  0.5901 -0.0463 -0.3572
12313SOL    HW140635   1.854   8.748   4.362  0.3275 -0.5337 -0.5928
12313SOL    HW240636   1.726   8.751   4.261 -0.8840  0.6972  0.9521
12315SOL     OW40637   1.594   7.136   5.089 -0.8098  0.0437  0.2034
12315SOL    HW140638   1.547   7.082   5.158 -2.4028  2.0609  0.7704
12315SOL    HW240639   1.526   7.189   5.037  0.5098 -0.1923 -1.8005
12316SOL     OW40640   6.437   9.436   4.656  0.3720  0.1789 -0.3387
12316SOL    HW140641   6.454   9.492   4.575  0.5061 -0.8133 -1.0017
12316SOL    HW240642   6.505   9.363   4.661 -0.2836 -0.4014  0.0988
12317SOL     OW40643   0.702   7.626   1.500  0.2759 -0.4387  0.1875
12317SOL    HW140644   0.794   7.587   1.510  0.0108 -1.2990 -0.6910
12317SOL    HW240645   0.639   7.579   1.562  0.1269 -0.8510 -0.2748
12318SOL     OW40646   9.450   4.144   4.733 -0.1086  0.4717 -0.3440
12318SOL    HW140647   9.417   4.052   4.715 -0.4233  0.4713  0.2199
12318SOL    HW240648   9.390   4.188   4.800  0.3676  0.8856 -0.1885
12319SOL     OW40649   7.135   8.862   2.148 -0.5618 -0.0050 -0.3787
12319SOL    HW140650   7.225   8.841   2.110 -0.2999  0.9534 -0.3013
12319SOL    HW240651   7.069   8.796   2.114  0.0088 -0.2016 -1.1283
12320SOL     OW40652   4.064   3.734   2.825 -0.3958 -0.2545 -0.0163
12320SOL    HW140653   4.055   3.807   2.893 -1.5464  1.0232 -1.4949
12320SOL    HW240654   3.973   3.709   2.791  0.2204 -0.1935 -1.7732
12321SOL     OW40655   2.356   1.645   0.260  0.5140 -0.1066  0.0261
12321SOL    HW140656   2.433   1.595   0.299 -0.0978  0.2625  1.7897
12321SOL    HW240657   2.331   1.720   0.321 -2.2441 -1.1985  0.3039
12323SOL     OW40658   1.318   3.814   4.814  0.2839 -0.6076 -0.1813
12323SOL    HW140659   1.314   3.734   4.873 -1.5130 -0.4241 -0.0194
12323SOL    HW240660   1.388   3.801   4.744  1.4498 -1.4280  1.1160
12325SOL     OW40661   4.172   2.301   1.824 -0.1916 -0.0063  0.0225
12325SOL    HW140662   4.193   2.335   1.916  0.5285 -1.7711  0.5264
12325SOL    HW240663   4.073   2.296   1.813 -0.3019  1.3918  0.2538
12326SOL     OW40664   4.814   3.995   2.234 -0.7115  0.3210 -0.1891
12326SOL    HW140665   4.767   4.082   2.215 -1.5815 -0.3999 -1.4530
12326SOL    HW240666   4.749   3.931   2.275 -0.1347  0.1895  0.5151
12327SOL     OW40667   1.038   7.297   5.167 -0.0020  0.0121  0.4105
12327SOL    HW140668   1.062   7.344   5.082  1.2103  1.4952  1.5591
12327SOL    HW240669   1.004   7.363   5.234 -3.7955 -1.5094  0.1346
12329SOL     OW40670   1.242   1.038   4.999  0.2561 -0.0858 -0.2529
12329SOL    HW140671   1.280   0.952   5.034  1.4766  0.9357  0.9808
12329SOL    HW240672   1.317   1.095   4.965 -0.0464  2.2174  2.7714
12332SOL     OW40673   8.410   6.560   4.154  0.3414 -0.2074  0.2692
12332SOL    HW140674   8.310   6.565   4.152  0.4248  1.5461 -0.1154
12332SOL    HW240675   8.440   6.523   4.242 -0.6791 -2.2668 -0.2040
12333SOL     OW40676   5.063   4.704   1.089  0.6323  0.1068 -0.1044
12333SOL    HW140677   4.980   4.756   1.069 -0.3575 -1.3546  0.0665
12333SOL    HW240678   5.138   4.766   1.113 -1.1532  1.3449  2.5049
12336SOL     OW40679   2.600   1.654   1.688 -0.7262 -0.1461  0.1514
12336SOL    HW140680   2.520   1.686   1.637 -0.2912  1.7300  0.5878
12336SOL    HW240681   2.680   1.655   1.628 -0.3127  1.5882  0.6890
12337SOL     OW40682   6.840   8.676   5.005 -0.3454  0.3889 -0.3478
12337SOL    HW140683   6.854   8.769   4.971  1.3850  1.5870  3.3184
12337SOL    HW240684   6.922   8.622   4.989 -0.6528  0.0524 -0.7938
12338SOL     OW40685   0.293   3.622   0.089  0.1433  0.8391  0.0300
12338SOL    HW140686   0.286   3.528   0.120 -0.9910  0.7722 -0.3954
12338SOL    HW240687   0.372   3.632   0.028 -0.4117 -0.1067 -0.8560
12339SOL     OW40688   3.047   1.847   2.975 -0.1925  0.6381 -0.3126
12339SOL    HW140689   3.000   1.771   3.020 -0.0275  0.2764 -0.7477
12339SOL    HW240690   3.020   1.933   3.018 -0.9420  0.3980 -0.3023
12340SOL     OW40691   1.742   7.959   1.232 -0.1839 -0.1561 -0.4591
12340SOL    HW140692   1.701   7.911   1.310  0.6013  0.2261  0.2015
12340SOL    HW240693   1.703   8.050   1.225  1.9520  0.9678  1.4233
12341SOL     OW40694   4.241   4.598   0.207  0.5012  0.1417  0.5741
12341SOL    HW140695   4.190   4.527   0.159  0.6927  0.2550  0.2022
12341SOL    HW240696   4.203   4.687   0.186 -1.7606 -0.0537  3.5277
12342SOL     OW40697   1.910   3.819   1.529 -0.0938 -0.1734  0.6882
12342SOL    HW140698   1.827   3.833   1.476  0.1827 -0.3151  0.2118
12342SOL    HW240699   1.895   3.846   1.623  0.3046  3.0373 -0.1102
12343SOL     OW40700   0.202   7.406   4.693  0.2091  0.1996  0.0322
12343SOL    HW140701   0.261   7.362   4.625  0.9456  1.1838  0.0273
12343SOL    HW240702   0.187   7.501   4.668  0.3764  0.5393  1.1706
12345SOL     OW40703   9.891   0.254   4.248  0.0040 -0.4934 -0.0927
12345SOL    HW140704   9.961   0.191   4.282  0.3521  0.3398  0.7703
12345SOL    HW240705   9.828   0.277   4.322  0.5624  1.0642 -0.0780
12346SOL     OW40706   2.533   5.202   4.913 -0.1791  0.2548 -0.5159
12346SOL    HW140707   2.620   5.243   4.887  0.1782 -0.1518  0.0365
12346SOL    HW240708   2.497   5.248   4.995  0.2460 -0.5697  0.1312
12347SOL     OW40709   2.338   1.089   3.179 -0.2351  0.0482 -0.5461
12347SOL    HW140710   2.241   1.109   3.172 -0.4443 -0.9069 -0.4449
12347SOL    HW240711   2.374   1.064   3.088 -0.0285  0.6331 -0.6286
12348SOL     OW40712   3.364   3.064   4.481 -0.2059  0.4251  0.3389
12348SOL    HW140713   3.354   3.111   4.393  0.2702  2.7609  1.5122
12348SOL    HW240714   3.282   3.080   4.536 -0.4504 -0.9378  0.3930
12349SOL     OW40715   8.075   6.079   3.783 -0.1212  0.6486  0.0711
12349SOL    HW140716   7.988   6.031   3.769 -0.0665  0.7421 -0.5952
12349SOL    HW240717   8.151   6.016   3.764 -0.0469  0.8386 -0.2479
12350SOL     OW40718   4.916   1.341   0.906 -0.1591 -0.1318 -0.2108
12350SOL    HW140719   4.917   1.280   0.984  0.6031 -0.8195 -0.7532
12350SOL    HW240720   4.982   1.415   0.920  0.4718 -0.6328 -0.4934
12352SOL     OW40721   4.971   7.511   2.923  0.0016 -0.2766  0.7298
12352SOL    HW140722   4.948   7.514   3.020 -0.1777  0.2546  0.6745
12352SOL    HW240723   4.976   7.416   2.892 -2.6847 -0.4267  0.6193
12353SOL     OW40724   6.287   4.091   0.565  0.2568 -0.1046 -0.0841
12353SOL    HW140725   6.279   4.190   0.559 -0.1240 -0.0622  1.0883
12353SOL    HW240726   6.364   4.067   0.623 -0.4722 -0.4846  0.7391
12355SOL     OW40727   9.306   4.683   3.688 -0.1011  0.1149  0.0238
12355SOL    HW140728   9.294   4.587   3.661 -0.2178  0.3023 -0.5969
12355SOL    HW240729   9.397   4.694   3.728 -0.0210 -0.2203 -0.0563
12357SOL     OW40730   3.376   7.273   1.019  0.2073  0.3493 -0.2172
12357SOL    HW140731   3.377   7.319   1.108 -1.7192  1.5530 -0.7833
12357SOL    HW240732   3.384   7.174   1.033  1.9962  0.6716  1.1569
12358SOL     OW40733   7.895   3.394   0.188  0.3749  0.9492 -0.4697
12358SOL    HW140734   7.850   3.479   0.217 -2.4202 -0.2649 -1.0176
12358SOL    HW240735   7.902   3.332   0.266 -0.4901  0.4759 -0.7647
12359SOL     OW40736   5.593   4.820   0.394  0.0363  0.1829  0.2336
12359SOL    HW140737   5.610   4.755   0.467  0.2565 -1.6606 -1.4098
12359SOL    HW240738   5.525   4.887   0.424  0.5293 -0.2026  2.2849
12360SOL     OW40739   8.037   5.801   1.076 -1.0967 -0.0198  0.5644
12360SOL    HW140740   8.034   5.841   1.167 -0.9400  1.1596  0.0703
12360SOL    HW240741   8.126   5.819   1.035 -1.7868  1.0477 -0.5060
12361SOL     OW40742   9.871   4.337   2.463 -0.0226 -0.0955 -0.2516
12361SOL    HW140743   9.937   4.264   2.446  0.0263  0.2327 -1.5872
12361SOL    HW240744   9.801   4.306   2.526  1.1739 -0.5925  0.8485
12362SOL     OW40745   0.157   5.240   2.119  0.6789 -0.2910 -0.3329
12362SOL    HW140746   0.081   5.194   2.072  1.9706 -0.9965 -1.7659
12362SOL    HW240747   0.171   5.198   2.208 -0.1883 -0.5988 -0.3351
12364SOL     OW40748   0.801   4.764   2.611 -0.7888  0.1561 -0.5665
12364SOL    HW140749   0.763   4.857   2.608 -0.1470  0.5666  2.4059
12364SOL    HW240750   0.811   4.736   2.706  3.2478 -1.2157 -1.3252
12365SOL     OW40751   0.182   9.041   2.785 -0.1289 -0.4229  0.4230
12365SOL    HW140752   0.211   9.125   2.830 -1.6861 -0.4870  1.5830
12365SOL    HW240753   0.086   9.049   2.758  0.0682 -1.3520 -0.5950
12366SOL     OW40754   7.164   1.500   3.817  0.2631  0.2875  0.0384
12366SOL    HW140755   7.107   1.567   3.769  0.8568  1.1924  0.5570
12366SOL    HW240756   7.164   1.414   3.768 -1.9731  0.1065  0.3031
12367SOL     OW40757   8.812   6.090   4.595  0.4195  0.3368 -0.0572
12367SOL    HW140758   8.800   6.135   4.506 -2.8324 -2.6681 -1.2612
12367SOL    HW240759   8.795   6.156   4.668  2.6152  2.7242 -1.5942
12368SOL     OW40760   1.324   3.715   0.103  0.7273  0.0006 -0.4152
12368SOL    HW140761   1.394   3.665   0.052  1.8237 -2.3108  3.1527
12368SOL    HW240762   1.367   3.792   0.149  0.1440  0.8550 -1.2924
12370SOL     OW40763   0.879   4.915   4.537 -0.1239  0.1996 -0.1591
12370SOL    HW140764   0.961   4.875   4.577  0.9866  2.1347 -0.4152
12370SOL    HW240765   0.898   4.941   4.442 -0.7168  1.5204  0.0728
12371SOL     OW40766   5.719   0.562   2.533 -0.2037  0.4092  0.3007
12371SOL    HW140767   5.734   0.511   2.448  1.6948 -0.9330  1.4100
12371SOL    HW240768   5.754   0.655   2.522  0.6835  0.0325 -0.1709
12372SOL     OW40769   2.901   2.897   3.444 -0.5733 -0.1682 -0.1654
12372SOL    HW140770   2.940   2.969   3.502 -0.3785  0.1950 -0.7375
12372SOL    HW240771   2.894   2.931   3.350 -1.2915 -0.6028 -0.2657
12373SOL     OW40772   9.756   2.786   2.803 -0.3985 -0.4703 -0.1283
12373SOL    HW140773   9.774   2.693   2.770 -0.6238 -0.8099  0.6931
12373SOL    HW240774   9.700   2.782   2.886  0.0709  0.3795  0.2359
12374SOL     OW40775   8.236   2.405   4.022 -0.2609 -0.6800 -0.0858
12374SOL    HW140776   8.215   2.458   3.939 -2.2546 -3.5841 -1.5479
12374SOL    HW240777   8.239   2.308   3.999  1.1506 -1.3999  2.9212
12375SOL     OW40778   4.363   1.662   0.982 -0.3292 -0.0933  0.2301
12375SOL    HW140779   4.289   1.604   1.017  0.5562 -1.5549 -0.3131
12375SOL    HW240780   4.425   1.608   0.926  1.0025  1.1977  0.4290
12376SOL     OW40781   9.090   3.377   1.955 -0.0003 -0.0711 -0.0247
12376SOL    HW140782   9.020   3.346   2.019 -0.9119 -0.6448 -1.2562
12376SOL    HW240783   9.163   3.423   2.004  0.2244 -2.1075  1.6013
12377SOL     OW40784   9.901   3.635   0.605  0.4404 -0.2867 -0.0051
12377SOL    HW140785   9.901   3.731   0.576 -0.6764 -0.3408 -0.1934
12377SOL    HW240786   9.808   3.599   0.600  0.2244 -0.3704  3.4784
12378SOL     OW40787   2.347   0.928   4.449  0.2232 -0.2969 -0.3386
12378SOL    HW140788   2.403   0.921   4.367  1.1443  0.1157  0.2453
12378SOL    HW240789   2.320   0.836   4.479 -1.9970 -0.3394 -2.3505
12379SOL     OW40790   3.223   4.431   1.500 -0.1715 -0.4502  0.1258
12379SOL    HW140791   3.311   4.387   1.518  1.5170  1.9938 -1.8905
12379SOL    HW240792   3.230   4.486   1.418 -3.4094  0.3936  0.3734
12381SOL     OW40793   1.047   9.514   1.328  0.3475 -0.4772 -0.6037
12381SOL    HW140794   0.967   9.506   1.387  1.5046 -1.8611  0.8657
12381SOL    HW240795   1.044   9.600   1.279 -0.7550  0.6727  1.3913
12383SOL     OW40796   2.568   3.080   1.042  0.3665 -0.5320  0.4119
12383SOL    HW140797   2.619   3.013   1.095  1.2973 -0.4471 -0.3773
12383SOL    HW240798   2.476   3.089   1.081  0.9652 -0.6099  1.8969
12385SOL     OW40799   9.234   2.124   3.936 -0.0120  0.2647 -0.5083
12385SOL    HW140800   9.296   2.179   3.880 -0.4287  0.5216 -0.7198
12385SOL    HW240801   9.280   2.099   4.021  0.1263  1.0774 -0.3363
12387SOL     OW40802   8.545   3.923   1.233  0.2247  0.1015 -0.1840
12387SOL    HW140803   8.561   3.916   1.331  2.9359 -0.0966 -0.5895
12387SOL    HW240804   8.572   3.837   1.188  0.5939  0.7597 -1.2597
12388SOL     OW40805   9.192   6.776   0.223  0.2255 -0.3707 -0.0895
12388SOL    HW140806   9.261   6.832   0.177  0.9771 -1.0265  0.2252
12388SOL    HW240807   9.179   6.690   0.173 -0.4194 -0.2165 -0.1903
12391SOL     OW40808   8.353   8.828   3.558  0.6256  0.9291 -0.0753
12391SOL    HW140809   8.410   8.794   3.483  0.0841 -0.0926 -0.0326
12391SOL    HW240810   8.283   8.889   3.522 -0.1374 -0.1891 -0.5180
12394SOL     OW40811   7.737   8.708   3.742  0.3895  0.3385  0.2452
12394SOL    HW140812   7.811   8.708   3.675 -0.0195 -0.6648 -0.2202
12394SOL    HW240813   7.661   8.653   3.707 -1.3031  2.7943 -0.0785
12395SOL     OW40814   2.340   3.592   2.673  0.7059 -0.4176  0.3144
12395SOL    HW140815   2.243   3.570   2.679  0.9155 -2.3849 -2.2761
12395SOL    HW240816   2.351   3.691   2.661 -0.9907 -0.2104  0.2910
12396SOL     OW40817   3.177   7.616   4.406  0.1547 -0.4518  0.4964
12396SOL    HW140818   3.152   7.529   4.362  1.8677 -1.1976  0.9776
12396SOL    HW240819   3.148   7.615   4.501  0.0797 -0.4492  0.4732
12397SOL     OW40820   7.464   2.355   4.891  0.3356  0.0054  1.1109
12397SOL    HW140821   7.385   2.415   4.891  0.1136 -0.2836  0.4725
12397SOL    HW240822   7.513   2.365   4.805  0.4170 -0.5771  1.0909
12400SOL     OW40823   2.229   5.770   2.236  0.2356  0.6309 -0.0495
12400SOL    HW140824   2.250   5.864   2.209  1.2768  0.2237 -0.7174
12400SOL    HW240825   2.312   5.714   2.227  0.1930  0.1200  2.4154
12403SOL     OW40826   4.611   3.593   1.472  0.3038 -0.2652  0.1545
12403SOL    HW140827   4.657   3.595   1.383 -0.1953 -0.6147 -0.1111
12403SOL    HW240828   4.670   3.547   1.538  0.7231  0.0908  0.0267
12404SOL     OW40829   0.703   5.045   2.635  0.3898  0.0907  0.2298
12404SOL    HW140830   0.712   4.986   2.716  2.1542 -1.4282 -1.0379
12404SOL    HW240831   0.657   5.130   2.661  1.1167 -0.2808  2.8768
12405SOL     OW40832   4.603   0.370   1.407  0.4476  0.0793  0.2832
12405SOL    HW140833   4.645   0.297   1.353 -1.0719 -0.0494 -0.7647
12405SOL    HW240834   4.572   0.334   1.495  0.5170 -0.3334  0.1385
12406SOL     OW40835   9.797   4.727   2.828 -0.2832  0.7575 -0.7464
12406SOL    HW140836   9.729   4.787   2.786 -0.8741 -0.4456 -1.5102
12406SOL    HW240837   9.781   4.633   2.800  0.3950  0.1685  0.7624
12407SOL     OW40838   9.688   8.334   4.812  0.5420  0.7870 -0.0781
12407SOL    HW140839   9.745   8.258   4.844  0.6777  1.2788  0.8547
12407SOL    HW240840   9.711   8.355   4.717  0.6820 -0.1657 -0.2644
12408SOL     OW40841   2.441   6.819   2.984  0.3753  0.1394 -0.0865
12408SOL    HW140842   2.499   6.887   3.028  0.9411  0.5261 -1.4307
12408SOL    HW240843   2.478   6.728   3.002  0.4710  0.2769  0.4308
12409SOL     OW40844   0.845   8.396   4.032  0.2520  0.2119 -0.2784
12409SOL    HW140845   0.909   8.396   4.109 -1.1533 -1.7378  0.9509
12409SOL    HW240846   0.751   8.401   4.066 -0.3249  1.5621 -1.9911
12410SOL     OW40847   8.162   3.130   0.507  0.0085  0.8003  0.3084
12410SOL    HW140848   8.233   3.154   0.574  0.8672 -0.0373 -0.2904
12410SOL    HW240849   8.100   3.063   0.548  0.8331 -0.1004  0.0988
12411SOL     OW40850   3.605   7.430   2.930  0.1487  0.0981 -0.0045
12411SOL    HW140851   3.661   7.506   2.897  1.8250 -0.5444  1.2850
12411SOL    HW240852   3.598   7.360   2.859 -1.6382  1.5167 -1.3079
12412SOL     OW40853   1.845   0.130   2.834  0.0935  0.0417  0.1226
12412SOL    HW140854   1.895   0.197   2.779  0.0565  0.1746  0.2494
12412SOL    HW240855   1.757   0.110   2.793  0.2354 -0.1652 -0.0825
12413SOL     OW40856   6.771   9.315   4.215 -0.0964  0.0843  0.2735
12413SOL    HW140857   6.808   9.224   4.196 -0.1201  0.5454 -2.1445
12413SOL    HW240858   6.843   9.373   4.252 -0.2041 -1.0374  2.3217
12414SOL     OW40859   0.221   4.535   3.602 -0.6281 -0.6393  0.1201
12414SOL    HW140860   0.121   4.536   3.598 -0.5981 -0.3030 -0.7122
12414SOL    HW240861   0.257   4.493   3.519 -0.0716 -0.4910  0.2831
12415SOL     OW40862   0.356   8.860   4.276  0.1019 -0.5235  0.4153
12415SOL    HW140863   0.294   8.937   4.294  0.1102 -0.1588 -1.0618
12415SOL    HW240864   0.313   8.775   4.306 -0.0550  0.0090  1.7474
12417SOL     OW40865   1.067   5.130   2.876 -0.3190 -0.0765 -0.3349
12417SOL    HW140866   1.042   5.159   2.969  0.0527  1.2272 -0.6435
12417SOL    HW240867   1.050   5.032   2.867  0.9681 -0.4899  1.5496
12418SOL     OW40868   2.613   1.037   3.554 -0.2947  0.0614  0.1292
12418SOL    HW140869   2.544   1.001   3.492  1.0877 -0.8135 -0.9487
12418SOL    HW240870   2.677   1.094   3.502  1.5077 -1.5576  0.5031
12419SOL     OW40871   2.107   0.968   0.777 -0.8622 -0.3258  0.0546
12419SOL    HW140872   2.060   0.896   0.726 -0.1800 -1.4886  1.0205
12419SOL    HW240873   2.148   0.929   0.859 -1.3280  1.3766  1.1251
12420SOL     OW40874   3.677   4.926   3.951 -0.4940  0.1830 -0.1332
12420SOL    HW140875   3.594   4.894   3.905 -0.7815 -0.3243  0.7389
12420SOL    HW240876   3.735   4.973   3.885 -0.9546 -0.4572 -1.0056
12421SOL     OW40877   9.163   7.026   1.151 -0.3290 -0.7648 -0.2171
12421SOL    HW140878   9.235   7.076   1.199 -0.8358  0.1367 -0.4044
12421SOL    HW240879   9.205   6.951   1.099  0.7673  1.2703 -2.3603
12423SOL     OW40880   3.128   6.859   3.302 -0.5406 -0.7423  0.1052
12423SOL    HW140881   3.098   6.939   3.249  2.9255  0.3076 -0.4513
12423SOL    HW240882   3.110   6.776   3.250 -0.9314 -0.0382 -0.9039
12424SOL     OW40883   0.555   2.951   5.020 -0.5971 -0.2740  0.3192
12424SOL    HW140884   0.624   2.879   5.019 -0.7185 -0.4167 -2.0180
12424SOL    HW240885   0.577   3.018   5.090  3.2591  0.9303 -1.8893
12425SOL     OW40886   0.761   6.271   2.091 -0.6650 -0.8520 -0.2459
12425SOL    HW140887   0.730   6.230   2.176  0.6483 -3.5304 -0.9884
12425SOL    HW240888   0.837   6.333   2.109 -0.5766 -1.1943  0.5676
12427SOL     OW40889   0.060   5.578   2.369 -0.0916 -0.7369  0.2617
12427SOL    HW140890   0.085   5.625   2.285 -0.1480 -2.7332 -0.9170
12427SOL    HW240891  -0.001   5.635   2.424  1.4474  1.3503 -0.1393
12428SOL     OW40892   0.793   3.230   3.293 -0.3499  0.2520 -0.3570
12428SOL    HW140893   0.846   3.150   3.321 -0.2494  0.1301 -0.8986
12428SOL    HW240894   0.703   3.228   3.336 -0.2068  0.0458 -0.0708
12429SOL     OW40895   4.046   5.968   0.975 -0.1409 -0.2815 -0.6958
12429SOL    HW140896   4.007   5.975   1.067  1.7520  1.7904 -0.0001
12429SOL    HW240897   4.013   5.885   0.930 -2.3844 -0.4546  1.2343
12430SOL     OW40898   7.674   6.548   3.022 -0.1146 -0.4736 -0.5720
12430SOL    HW140899   7.636   6.572   2.933 -0.8201 -0.1971 -0.1951
12430SOL    HW240900   7.753   6.607   3.041 -1.3765  1.0669  0.0175
12431SOL     OW40901   6.997   1.461   3.374  0.5563  0.1714 -0.3010
12431SOL    HW140902   7.086   1.415   3.369  0.0731 -0.9478  1.0762
12431SOL    HW240903   6.994   1.521   3.454  0.5931  1.3764 -1.1827
12432SOL     OW40904   2.186   5.928   2.977  0.1833  0.3218 -0.5399
12432SOL    HW140905   2.187   5.923   3.077 -0.6037  0.8266 -0.5065
12432SOL    HW240906   2.152   5.842   2.939  1.6112 -0.3177 -0.4136
12433SOL     OW40907   9.578   4.255   2.169  0.3150  0.4633 -0.3887
12433SOL    HW140908   9.479   4.264   2.167  0.2827 -0.0620 -1.1171
12433SOL    HW240909   9.618   4.310   2.095  0.5112 -0.0430 -0.6593
12436SOL     OW40910   9.381   4.677   5.111  0.3831 -0.6679 -0.5134
12436SOL    HW140911   9.300   4.674   5.169 -0.2518  0.1312 -1.3383
12436SOL    HW240912   9.411   4.583   5.090  0.0576 -0.9598  0.3043
12437SOL     OW40913   4.702   0.339   3.506 -0.0874  0.1152  0.4722
12437SOL    HW140914   4.760   0.379   3.435  1.2036 -0.6621  1.0824
12437SOL    HW240915   4.666   0.412   3.565 -0.5149  0.6849 -0.4878
12438SOL     OW40916   1.621   3.896   0.963 -0.2103 -0.2584  0.4168
12438SOL    HW140917   1.592   3.948   1.043 -1.5143  1.0001 -0.8481
12438SOL    HW240918   1.543   3.846   0.926  0.7571 -2.1439  0.8800
12439SOL     OW40919   1.684   0.693   3.341  0.2596  0.6051  0.9127
12439SOL    HW140920   1.621   0.718   3.414  0.8149  1.0326  1.2477
12439SOL    HW240921   1.635   0.638   3.273 -0.1686 -0.0769  1.7637
12441SOL     OW40922   7.655   9.637   1.131 -0.0715 -0.3802  0.1501
12441SOL    HW140923   7.721   9.712   1.135 -1.2686  0.6196  2.4359
12441SOL    HW240924   7.647   9.595   1.222 -1.1656 -1.7248 -0.5516
12442SOL     OW40925   3.846   0.491   1.220 -0.4835 -0.5146  0.6886
12442SOL    HW140926   3.849   0.393   1.202 -0.6411 -0.7836  2.1109
12442SOL    HW240927   3.767   0.513   1.276 -0.8961  0.5511 -0.2707
12443SOL     OW40928   3.351   2.549   2.095  0.5286  0.0647  0.8949
12443SOL    HW140929   3.444   2.522   2.070  0.9673  0.4818  2.0227
12443SOL    HW240930   3.303   2.471   2.134 -0.6512 -0.9833 -2.5237
12444SOL     OW40931   2.767   1.538   2.306  0.3737 -0.5646  0.6121
12444SOL    HW140932   2.856   1.585   2.311  0.9427 -1.3836 -1.3723
12444SOL    HW240933   2.718   1.568   2.224 -1.0508 -0.3839  1.5073
12446SOL     OW40934   2.613   1.650   4.444 -0.2651  0.4577 -0.2754
12446SOL    HW140935   2.597   1.555   4.417 -0.2216  0.4004 -0.1027
12446SOL    HW240936   2.526   1.699   4.448 -0.3013  0.3905 -0.2413
12447SOL     OW40937   7.898   0.167   2.928 -0.2340  0.2640  0.3152
12447SOL    HW140938   7.850   0.154   3.015  1.8625 -1.9326  1.1946
12447SOL    HW240939   7.990   0.202   2.946  0.1951 -0.1533 -1.0296
12448SOL     OW40940   0.386   4.729   3.550 -0.1455  0.2168 -0.4070
12448SOL    HW140941   0.333   4.648   3.576 -1.3513  1.2639  0.4770
12448SOL    HW240942   0.453   4.748   3.621  2.3252 -1.8283 -2.0997
12449SOL     OW40943   5.003   1.028   0.876 -0.0128 -0.3903 -0.0951
12449SOL    HW140944   5.023   0.986   0.788 -0.6105  0.5751 -0.6939
12449SOL    HW240945   4.918   1.081   0.870  1.0085  1.3453  0.5034
12450SOL     OW40946   9.674   6.727   4.073  0.5318 -0.2750  0.0996
12450SOL    HW140947   9.724   6.762   4.152  1.8143 -2.8060  0.4466
12450SOL    HW240948   9.594   6.676   4.105  0.2317 -0.0709 -0.3203
12451SOL     OW40949   0.273   3.135   3.409  0.2059 -0.1620  0.5310
12451SOL    HW140950   0.364   3.098   3.426  0.5295  1.2921  2.1028
12451SOL    HW240951   0.271   3.179   3.319  1.2052  0.2126  0.6864
12452SOL     OW40952   1.916   2.200   0.858  0.3236  0.2464 -0.2687
12452SOL    HW140953   1.861   2.141   0.917 -0.2372 -0.4049 -1.4226
12452SOL    HW240954   1.898   2.178   0.762  0.1144  2.2937 -0.7219
12453SOL     OW40955   1.672   7.683   3.171 -0.2005  0.4803 -0.0392
12453SOL    HW140956   1.609   7.718   3.103  0.2517 -1.0183 -1.2606
12453SOL    HW240957   1.637   7.596   3.207  0.6253  0.1926  0.0773
12454SOL     OW40958   0.201   2.085   5.110  0.1668  0.2601 -0.4024
12454SOL    HW140959   0.172   2.100   5.204 -1.1029 -1.7740 -0.4423
12454SOL    HW240960   0.301   2.095   5.105  0.3881 -0.7794  1.3929
12455SOL     OW40961   4.494   0.159   0.476 -0.2620  0.0997  0.2251
12455SOL    HW140962   4.471   0.192   0.385 -2.6844 -0.7694  0.5020
12455SOL    HW240963   4.439   0.078   0.497  1.4558 -0.6805  1.8186
12456SOL     OW40964   9.836   8.474   4.321  0.0633  0.2002  0.0866
12456SOL    HW140965   9.911   8.410   4.332  0.1747  0.0899 -1.2443
12456SOL    HW240966   9.802   8.471   4.226  0.6777  2.7587 -0.2750
12457SOL     OW40967   9.985   6.030   1.141 -0.0533 -1.1427  0.2772
12457SOL    HW140968  10.071   6.068   1.175 -0.2591  0.5854 -1.0790
12457SOL    HW240969   9.911   6.055   1.204 -0.0562  0.0807 -0.1883
12458SOL     OW40970   3.206   1.947   3.358 -0.4837 -0.2334 -0.0811
12458SOL    HW140971   3.154   1.864   3.377  0.8124 -0.8909  0.6445
12458SOL    HW240972   3.300   1.936   3.390 -0.3726  1.6329  0.2952
12460SOL     OW40973   1.968   9.174   1.475  0.5063 -0.3195  0.1741
12460SOL    HW140974   1.993   9.156   1.570  1.4826 -0.9732 -0.2019
12460SOL    HW240975   1.869   9.189   1.469  0.4493 -0.1582  1.3018
12461SOL     OW40976   3.295   2.364   4.470  0.2754  0.1971  0.2295
12461SOL    HW140977   3.217   2.321   4.425  0.9055 -1.8585  1.0548
12461SOL    HW240978   3.350   2.412   4.402 -1.0435  0.6532 -0.5321
12465SOL     OW40979   0.531   3.752   3.294 -0.1152 -0.2240 -0.3467
12465SOL    HW140980   0.549   3.734   3.198  1.3761 -1.8998  0.2194
12465SOL    HW240981   0.543   3.849   3.313  1.2287 -0.1463 -1.5103
12466SOL     OW40982   0.652   6.240   2.931  0.1136 -0.2107  0.5547
12466SOL    HW140983   0.687   6.226   3.024 -0.8855  0.9184  1.1134
12466SOL    HW240984   0.686   6.328   2.896 -1.5702  0.5542  0.8283
12468SOL     OW40985   2.419   5.357   2.227 -0.1023 -0.0307 -0.3402
12468SOL    HW140986   2.474   5.437   2.250  0.1898 -0.5116  0.6748
12468SOL    HW240987   2.470   5.274   2.252 -0.8217 -0.5078 -0.4542
12469SOL     OW40988   5.125   5.574   2.070  0.0294  0.5430 -0.3728
12469SOL    HW140989   5.163   5.482   2.075  0.0752  0.6617  2.3989
12469SOL    HW240990   5.180   5.631   2.008  2.0663 -0.3362  0.6065
12471SOL     OW40991   2.210   5.219   5.142  0.4007  0.0972 -0.1108
12471SOL    HW140992   2.288   5.276   5.115  0.6159  1.1501  2.6238
12471SOL    HW240993   2.125   5.264   5.112  0.6544  1.0120  0.5272
12472SOL     OW40994   4.550   3.911   2.312  0.2290 -0.1127 -0.3602
12472SOL    HW140995   4.563   3.880   2.218 -0.0767  0.1176 -0.4803
12472SOL    HW240996   4.453   3.929   2.328  0.5685  2.1977 -0.7437
12475SOL     OW40997   9.515   3.458   1.158  0.3375 -0.1884 -0.2561
12475SOL    HW140998   9.508   3.547   1.203  2.2369 -0.9963  1.6966
12475SOL    HW240999   9.550   3.470   1.065 -0.9393  1.2184 -0.5863
12476SOL     OW41000   1.885   0.482   1.793 -0.2313  0.3222 -0.3227
12476SOL    HW141001   1.959   0.492   1.860 -1.2274 -0.9245  1.0130
12476SOL    HW241002   1.807   0.536   1.823 -0.5022  0.1638 -0.7485
12477SOL     OW41003   9.744   3.207   0.189  0.0105 -0.0101  0.2278
12477SOL    HW141004   9.791   3.137   0.242 -1.0083 -1.3163 -0.5790
12477SOL    HW241005   9.762   3.192   0.091 -2.0833 -0.5277 -0.0914
12479SOL     OW41006   1.297   6.306   1.830 -0.5087  0.2013 -0.2193
12479SOL    HW141007   1.350   6.360   1.895  1.3477 -0.4258 -1.1630
12479SOL    HW241008   1.207   6.287   1.868  0.0005  1.1388  1.5172
12481SOL     OW41009   1.104   5.527   1.831 -0.4249 -0.5765  0.5292
12481SOL    HW141010   1.035   5.458   1.851 -0.8458 -1.0631 -2.3814
12481SOL    HW241011   1.195   5.486   1.839 -0.5980 -0.8275  1.1754
12482SOL     OW41012   8.593   5.563   3.602  0.2206  0.3196 -0.2060
12482SOL    HW141013   8.614   5.465   3.610  1.0518  0.4850 -0.4175
12482SOL    HW241014   8.623   5.610   3.685  2.1207  0.8100 -1.1457
12483SOL     OW41015   3.624   0.842   4.990  0.3176  0.2864  0.1252
12483SOL    HW141016   3.580   0.925   5.026 -2.7490 -1.7722  1.3691
12483SOL    HW241017   3.618   0.842   4.891  2.0604  2.4136 -0.0259
12484SOL     OW41018   8.288   7.260   2.862  0.7045  0.0388 -0.0138
12484SOL    HW141019   8.377   7.242   2.819  1.2755  1.6152  0.4808
12484SOL    HW241020   8.235   7.175   2.865  2.5141 -1.1099  0.4211
12485SOL     OW41021   1.553   7.216   2.024  0.3453  0.5422  0.7964
12485SOL    HW141022   1.584   7.146   2.088 -0.3969  0.5282  1.1459
12485SOL    HW241023   1.632   7.263   1.985  0.8048  0.3651  1.5135
12487SOL     OW41024   1.966   4.177   0.850 -0.0459  0.0468 -0.2472
12487SOL    HW141025   1.984   4.275   0.841 -0.7980  0.2105 -0.0309
12487SOL    HW241026   2.027   4.126   0.789 -0.6751  0.7355 -1.4686
12488SOL     OW41027   0.076   8.327   1.663 -0.0731 -0.1413  0.1487
12488SOL    HW141028   0.078   8.326   1.563 -0.3998 -0.6884  0.1427
12488SOL    HW241029  -0.016   8.351   1.693  0.1532  0.5102  0.3195
12490SOL     OW41030   5.947   9.116   3.834  0.6599 -0.1987 -0.4871
12490SOL    HW141031   5.999   9.035   3.863 -0.4755  0.2178  2.9917
12490SOL    HW241032   5.988   9.198   3.874 -0.1191  0.6073 -1.3092
12491SOL     OW41033   1.785   2.604   0.196 -0.3566  0.4127 -0.1232
12491SOL    HW141034   1.790   2.685   0.254 -1.3811 -0.4773  1.2233
12491SOL    HW241035   1.795   2.522   0.252  0.6994 -0.4098 -1.4829
12492SOL     OW41036   1.781   4.973   4.245 -0.9247  0.4996 -0.1631
12492SOL    HW141037   1.851   5.007   4.308 -0.1527 -0.4851 -0.4879
12492SOL    HW241038   1.693   5.013   4.270 -0.7756 -0.4722  2.0312
12493SOL     OW41039   3.779   0.920   0.885  0.0932  0.3445  0.7544
12493SOL    HW141040   3.779   0.830   0.928 -0.4017 -0.1564 -0.3025
12493SOL    HW241041   3.693   0.967   0.904 -0.4173 -0.1648 -0.2942
12494SOL     OW41042   2.722   9.049   0.095 -0.1537 -0.0367  0.0282
12494SOL    HW141043   2.791   9.077   0.162  0.5113  0.1982 -0.7465
12494SOL    HW241044   2.745   9.088   0.005 -0.9868 -0.4238 -0.3577
12496SOL     OW41045   4.370   6.991   2.740 -0.0848 -0.8009 -0.2968
12496SOL    HW141046   4.286   7.033   2.774  0.9714  0.2832  1.0404
12496SOL    HW241047   4.432   6.977   2.817  0.1689 -3.4565 -0.9627
12497SOL     OW41048   1.802   1.806   0.120  0.0898 -0.7625 -0.6627
12497SOL    HW141049   1.843   1.811   0.029  0.3251  0.3569 -0.5045
12497SOL    HW241050   1.823   1.717   0.161  1.1448 -0.7560 -1.1606
12498SOL     OW41051   6.597   4.926   0.293 -0.7428 -0.1757 -0.1949
12498SOL    HW141052   6.588   5.001   0.228  0.3208 -0.2242 -0.4073
12498SOL    HW241053   6.532   4.853   0.270  0.5471 -0.7832 -2.0401
12499SOL     OW41054   3.604   2.980   2.499 -0.1606 -0.2523 -0.1242
12499SOL    HW141055   3.589   2.885   2.527 -0.8728 -0.6878 -1.9397
12499SOL    HW241056   3.606   2.985   2.399 -2.1104  1.9334 -0.0781
12501SOL     OW41057   1.664   2.711   2.599 -0.3463 -0.5432  0.3217
12501SOL    HW141058   1.664   2.627   2.653  4.0275 -1.7776 -1.4141
12501SOL    HW241059   1.608   2.699   2.517  0.8466 -2.0181 -0.2797
12503SOL     OW41060   9.292   4.015   0.665 -0.3784 -0.4348 -0.2845
12503SOL    HW141061   9.227   4.027   0.740 -1.6899 -1.3349 -1.2546
12503SOL    HW241062   9.376   3.973   0.700 -0.5084  0.2560  0.8832
12504SOL     OW41063   7.993   4.354   5.235 -0.0924  0.0978  0.2258
12504SOL    HW141064   7.904   4.386   5.267  0.2428  0.3666  0.9038
12504SOL    HW241065   8.065   4.403   5.284  0.4494  1.4818 -1.8576
12505SOL     OW41066   0.297   1.919   4.563  0.1501 -1.1260 -0.1321
12505SOL    HW141067   0.357   1.954   4.491  4.0640 -3.3271  1.9152
12505SOL    HW241068   0.260   1.831   4.535  1.2486 -1.7338  0.3131
12506SOL     OW41069   4.934   0.652   4.462  0.0514 -0.5278 -0.1564
12506SOL    HW141070   4.906   0.624   4.553  1.4924 -0.3456  0.3599
12506SOL    HW241071   5.034   0.649   4.455 -0.0269 -0.3270 -1.6548
12507SOL     OW41072   8.561   9.272   3.915 -0.1827  0.3254  0.2361
12507SOL    HW141073   8.497   9.203   3.881  1.7247 -0.9392 -0.9628
12507SOL    HW241074   8.654   9.236   3.907  0.7562  2.5607  0.8202
12508SOL     OW41075   2.969   4.951   1.382  0.1796 -0.3695 -0.1367
12508SOL    HW141076   2.924   4.863   1.368 -2.8315  1.4872 -2.8058
12508SOL    HW241077   2.905   5.025   1.363  3.1207  2.4348  0.3604
12510SOL     OW41078   7.275   2.659   4.304 -0.1107  0.3205  0.1747
12510SOL    HW141079   7.347   2.642   4.236 -0.9822 -0.0243 -0.6812
12510SOL    HW241080   7.276   2.755   4.330  0.5319  0.3598  0.0108
12513SOL     OW41081   3.629   0.479   0.616 -0.3176  0.4581 -0.1263
12513SOL    HW141082   3.684   0.534   0.554 -1.0286  1.2531 -0.0593
12513SOL    HW241083   3.583   0.539   0.681 -0.6312 -0.2681  0.3258
12514SOL     OW41084   3.127   1.333   0.931 -0.3683  0.6722 -0.1189
12514SOL    HW141085   3.097   1.392   0.856  1.1051  1.5681 -0.0167
12514SOL    HW241086   3.204   1.277   0.901 -0.8875 -0.2111  0.1988
12515SOL     OW41087   8.033   3.770   3.094  0.0929 -0.0352  0.6574
12515SOL    HW141088   8.050   3.868   3.083 -1.5800  0.2515  0.5040
12515SOL    HW241089   8.052   3.724   3.007 -0.5442  0.3673  0.2989
12517SOL     OW41090   3.608   8.789   0.462  0.3048  0.0221  0.2063
12517SOL    HW141091   3.581   8.832   0.376 -0.4531 -0.7614  0.0518
12517SOL    HW241092   3.535   8.801   0.529  0.1639 -0.8656  0.2171
12518SOL     OW41093   3.594   7.494   4.539  0.2906 -0.9857  0.2254
12518SOL    HW141094   3.516   7.431   4.546  0.2500 -1.0865 -0.9776
12518SOL    HW241095   3.629   7.492   4.445  0.6885  0.3173  0.3447
12520SOL     OW41096   4.575   4.650   1.001  0.0483  0.0405  0.1606
12520SOL    HW141097   4.582   4.618   0.906  1.0791 -1.1666  0.6235
12520SOL    HW241098   4.509   4.594   1.050 -0.2432  0.4511  0.2330
12521SOL     OW41099   3.010   0.076   1.048 -0.0476  0.2025  0.0776
12521SOL    HW141100   3.088   0.074   0.985  1.0237  0.4065  1.3742
12521SOL    HW241101   2.973  -0.017   1.058  0.7395 -0.0879  0.3196
12522SOL     OW41102   4.239   1.825   2.630 -0.2971 -0.5223 -0.0108
12522SOL    HW141103   4.192   1.771   2.560 -2.8979  0.2301  1.0794
12522SOL    HW241104   4.311   1.880   2.588 -0.8506 -1.1909 -1.8582
12523SOL     OW41105   2.476   9.248   0.073 -0.1958 -0.0843 -0.0392
12523SOL    HW141106   2.389   9.230   0.120 -1.1623  2.4250 -0.7588
12523SOL    HW241107   2.552   9.221   0.132 -1.4397 -1.1432  1.1236
12524SOL     OW41108   4.752   9.515   2.148 -0.1435 -0.1034  0.2004
12524SOL    HW141109   4.847   9.546   2.152 -0.9228  2.3717  0.7543
12524SOL    HW241110   4.695   9.590   2.113 -2.3965 -0.2200  3.4292
12525SOL     OW41111   5.004   7.256   2.644 -0.1325  0.0495  0.3250
12525SOL    HW141112   4.971   7.167   2.613 -2.1596  0.7508  0.4350
12525SOL    HW241113   4.989   7.266   2.742  0.5894  0.3086  0.4173
12526SOL     OW41114   1.433   9.570   0.314 -0.5779 -0.3502  0.0183
12526SOL    HW141115   1.461   9.639   0.381  0.9923 -2.1020  1.1957
12526SOL    HW241116   1.334   9.577   0.300 -0.6223  1.3841  0.9684
12529SOL     OW41117   2.420   7.874   0.477  0.0398  0.2043  0.1232
12529SOL    HW141118   2.486   7.862   0.552 -0.9942 -0.2936  0.9654
12529SOL    HW241119   2.369   7.958   0.492 -0.5035 -0.1456  0.2404
12530SOL     OW41120   8.273   0.483   1.632 -0.2453  0.2242  0.1299
12530SOL    HW141121   8.193   0.492   1.691  0.3008 -2.0961  1.2515
12530SOL    HW241122   8.355   0.513   1.681  0.0282 -0.4682  0.1019
12531SOL     OW41123   5.470   9.397   3.574  0.2157  0.4506  0.2172
12531SOL    HW141124   5.541   9.434   3.514  2.0441 -1.0662  1.3471
12531SOL    HW241125   5.512   9.331   3.637 -1.9778  0.5803  1.8624
12532SOL     OW41126   4.893   6.436   2.042 -0.9667  0.0983  0.0316
12532SOL    HW141127   4.938   6.476   1.962  2.2463 -1.7036  0.8465
12532SOL    HW241128   4.843   6.354   2.013 -2.5630  1.2679 -0.6251
12533SOL     OW41129   8.842   5.386   4.776  0.2679  0.2703 -0.5519
12533SOL    HW141130   8.906   5.462   4.786 -0.5364  0.6586  1.9611
12533SOL    HW241131   8.875   5.307   4.828 -0.2926 -0.1840 -0.8739
12534SOL     OW41132   5.933   8.187   1.885 -0.3899 -0.0770 -0.3117
12534SOL    HW141133   5.902   8.282   1.885 -1.3947 -0.3803  1.1968
12534SOL    HW241134   5.853   8.126   1.887  0.2527 -0.9107  0.6460
12535SOL     OW41135   1.245   1.445   4.060 -0.2118 -0.2327  0.5070
12535SOL    HW141136   1.194   1.524   4.095 -1.4919 -0.7354 -0.1591
12535SOL    HW241137   1.339   1.471   4.042 -0.8441  1.3930 -0.5708
12537SOL     OW41138   8.229   5.907   5.276 -0.1143  0.1175 -0.6056
12537SOL    HW141139   8.149   5.963   5.253  0.7465  1.4465 -0.4148
12537SOL    HW241140   8.203   5.810   5.276 -2.0325  0.6031  0.7484
12538SOL     OW41141   9.561   2.390   2.235 -0.3397 -0.4980 -0.0624
12538SOL    HW141142   9.518   2.341   2.159 -1.8540  1.3959 -0.4698
12538SOL    HW241143   9.526   2.483   2.239 -0.5402 -0.6447  3.1668
12539SOL     OW41144   8.036   5.140   1.165  0.1574 -0.2746  0.2422
12539SOL    HW141145   8.105   5.139   1.093  0.5365  0.3362  0.5953
12539SOL    HW241146   8.035   5.229   1.209  1.5937 -1.3674  2.5883
12540SOL     OW41147   3.147   9.155   0.278 -0.3559  0.1677 -0.1514
12540SOL    HW141148   3.106   9.246   0.287 -1.0252 -0.2168  0.8474
12540SOL    HW241149   3.177   9.123   0.368  0.9775 -0.1034 -0.6758
12541SOL     OW41150   4.279   2.068   4.832 -0.2028 -0.0225  0.3448
12541SOL    HW141151   4.278   2.046   4.735  1.3430 -0.8492  0.4963
12541SOL    HW241152   4.334   2.000   4.881 -1.1019  0.2832  1.8225
12542SOL     OW41153   1.563   1.511   4.452  0.0020  0.7919  0.0401
12542SOL    HW141154   1.506   1.592   4.465 -1.8253 -0.1129 -1.8977
12542SOL    HW241155   1.581   1.499   4.354  1.1145 -0.5384  0.3957
12543SOL     OW41156   5.341   7.671   5.134 -0.2122 -0.0065 -0.2683
12543SOL    HW141157   5.353   7.711   5.043  2.2185 -0.4801 -0.2057
12543SOL    HW241158   5.381   7.579   5.134 -3.0942 -1.2955  0.4024
12544SOL     OW41159   0.079   3.282   2.435 -0.5039 -0.1764 -0.4134
12544SOL    HW141160   0.031   3.348   2.377 -2.2773 -2.2682 -1.4111
12544SOL    HW241161   0.060   3.303   2.531 -1.6880  0.3158 -0.7400
12546SOL     OW41162   1.994   2.374   2.670  0.0698  0.1649 -0.0050
12546SOL    HW141163   2.000   2.403   2.766 -0.6289  1.6511 -0.4042
12546SOL    HW241164   2.069   2.311   2.650 -0.2229 -0.7925  1.7325
12548SOL     OW41165   7.530   1.175   5.290  0.0693  0.5148  0.4257
12548SOL    HW141166   7.482   1.199   5.205 -1.2992  1.9574  1.5722
12548SOL    HW241167   7.617   1.224   5.294 -0.2417  1.0956  0.2118
12549SOL     OW41168   1.246   8.169   0.555 -0.6147  0.7910  0.7350
12549SOL    HW141169   1.324   8.176   0.494 -1.4501  0.0569 -0.4312
12549SOL    HW241170   1.175   8.233   0.527 -0.7688  0.8764  1.3000
12550SOL     OW41171   8.794   1.839   2.734  0.1795 -0.6411 -0.0030
12550SOL    HW141172   8.854   1.797   2.803  0.5813 -1.5755 -0.9059
12550SOL    HW241173   8.699   1.817   2.755  0.3405 -1.4353 -0.0708
12551SOL     OW41174   9.599   4.641   1.101  0.2724  0.2735  0.4050
12551SOL    HW141175   9.698   4.635   1.106  0.3465  1.4369  0.3104
12551SOL    HW241176   9.566   4.581   1.028  1.0287  1.0189 -0.5623
12552SOL     OW41177   0.534   8.144   2.092  0.1993 -0.0976  0.0116
12552SOL    HW141178   0.470   8.184   2.027 -0.8094 -0.6710  0.6415
12552SOL    HW241179   0.544   8.047   2.073  1.0871  0.0394 -0.2419
12554SOL     OW41180   9.145   4.575   4.225 -0.0988  0.7028  0.1782
12554SOL    HW141181   9.144   4.668   4.187  0.1691  1.1648  1.2729
12554SOL    HW241182   9.059   4.529   4.201  0.4309  0.6524 -1.7280
12555SOL     OW41183   1.808   3.545   1.735  0.1105 -0.1848 -0.2999
12555SOL    HW141184   1.732   3.502   1.783  3.0640 -3.1459  1.9935
12555SOL    HW241185   1.850   3.614   1.795 -0.4839  1.1319 -1.3835
12556SOL     OW41186   1.856   4.837   1.635  0.5183  0.6769 -0.4195
12556SOL    HW141187   1.803   4.866   1.715 -0.8869  1.8676 -1.7351
12556SOL    HW241188   1.917   4.911   1.606  1.6505 -0.0627  0.0520
12557SOL     OW41189   1.917   2.962   4.788 -0.7304 -0.1907 -0.0156
12557SOL    HW141190   1.945   2.882   4.841  2.3082  0.5535 -0.3780
12557SOL    HW241191   1.918   3.043   4.848 -1.2215  0.0104 -0.2755
12558SOL     OW41192   3.275   3.934   4.150 -0.2431 -0.6650 -0.3037
12558SOL    HW141193   3.334   3.949   4.070 -0.9866  1.5200 -0.4749
12558SOL    HW241194   3.203   4.003   4.152  0.0206 -0.4099  2.5012
12559SOL     OW41195   3.058   0.277   4.790 -0.5537  0.3640 -0.3821
12559SOL    HW141196   3.130   0.329   4.836  0.2106 -0.0389 -1.1114
12559SOL    HW241197   3.090   0.248   4.700 -2.2835  1.7813 -1.4938
12560SOL     OW41198   6.753   9.296   4.514 -0.2923  0.4213  0.2179
12560SOL    HW141199   6.713   9.302   4.423 -1.3594 -1.7466  0.5282
12560SOL    HW241200   6.686   9.261   4.579 -0.1538  3.6989  2.2815
12561SOL     OW41201   8.668   8.263   2.414  0.0643  0.7403  0.1355
12561SOL    HW141202   8.603   8.188   2.403  1.2151 -0.0607 -1.3889
12561SOL    HW241203   8.663   8.324   2.335 -0.2387  1.7799  0.9518
12562SOL     OW41204   1.481   9.762   0.053 -0.1143 -0.8492 -0.1667
12562SOL    HW141205   1.433   9.721  -0.025 -0.5950  0.1228 -0.3907
12562SOL    HW241206   1.477   9.699   0.131 -0.2569 -1.5138 -0.7062
12564SOL     OW41207   0.173   8.319   4.013 -0.3229  0.3188 -0.3891
12564SOL    HW141208   0.216   8.265   4.086  1.2584  0.8201 -0.9207
12564SOL    HW241209   0.148   8.409   4.049  0.5170  0.5913 -0.4661
12565SOL     OW41210   4.798   4.692   2.453  0.3358  0.1766 -0.2952
12565SOL    HW141211   4.857   4.740   2.388  1.0358  1.4540  1.2625
12565SOL    HW241212   4.726   4.754   2.485 -0.5877 -0.7401 -0.5703
12567SOL     OW41213   7.981   5.869   1.353 -0.6096 -0.2465 -0.0166
12567SOL    HW141214   8.035   5.822   1.422  0.8752  1.7583  0.2222
12567SOL    HW241215   7.900   5.814   1.331  1.1764 -3.0381  0.0299
12570SOL     OW41216   2.487   6.658   0.405  0.1462  0.1045  0.3147
12570SOL    HW141217   2.509   6.646   0.308  0.8038 -2.0748  0.7207
12570SOL    HW241218   2.389   6.643   0.419  0.1162  0.0639  0.0689
12572SOL     OW41219   4.920   2.292   0.534 -0.3503  0.3633  0.1422
12572SOL    HW141220   4.971   2.216   0.495 -1.6940 -1.1473  1.2865
12572SOL    HW241221   4.911   2.365   0.466  1.2871 -0.3128 -0.8283
12573SOL     OW41222   3.123   1.536   1.577  0.2178  0.5693  0.3539
12573SOL    HW141223   3.137   1.635   1.573  0.0466  0.6472  1.4772
12573SOL    HW241224   3.205   1.492   1.614  0.8260  0.1348 -1.4262
12574SOL     OW41225   2.625   1.889   3.316 -0.0543  0.3030 -0.1952
12574SOL    HW141226   2.667   1.861   3.229 -0.1089  0.3249 -0.2288
12574SOL    HW241227   2.644   1.986   3.332 -0.1942  0.3425 -0.2693
12575SOL     OW41228   7.022   0.661   3.563  0.0533 -0.4926 -0.0050
12575SOL    HW141229   7.035   0.753   3.526  1.9566 -0.4417  0.7499
12575SOL    HW241230   6.938   0.621   3.524 -0.8477  1.5843 -0.2507
12576SOL     OW41231   1.556   4.426   3.935 -0.6605 -0.0527 -0.3155
12576SOL    HW141232   1.604   4.468   4.013 -0.9267 -0.3843  0.0291
12576SOL    HW241233   1.568   4.327   3.939 -2.2937 -0.2414  0.3988
12577SOL     OW41234   4.245   8.481   4.742  0.6182 -0.3083 -0.4946
12577SOL    HW141235   4.160   8.509   4.697  0.3451  0.1888  0.3233
12577SOL    HW241236   4.320   8.539   4.711  0.2638  0.6023  0.3504
12579SOL     OW41237   3.995   2.954   4.441 -0.1852 -0.1294 -0.1696
12579SOL    HW141238   3.969   2.936   4.536 -2.2594 -2.3379 -1.0939
12579SOL    HW241239   4.070   3.020   4.439 -1.3958  1.4817  2.9214
12580SOL     OW41240   1.159   5.743   0.684 -0.0468  0.2632 -0.3697
12580SOL    HW141241   1.223   5.730   0.609 -0.6615  0.1193 -0.8797
12580SOL    HW241242   1.204   5.790   0.759  0.9233 -0.6973 -0.3384
12581SOL     OW41243   3.394   7.073   0.745 -0.1179 -0.1027 -0.3041
12581SOL    HW141244   3.486   7.036   0.756 -0.7174 -1.5147  0.1348
12581SOL    HW241245   3.337   7.045   0.822 -1.7594 -1.9577 -2.1052
12582SOL     OW41246   9.418   8.559   1.001 -0.0615  0.1339  0.0884
12582SOL    HW141247   9.455   8.530   1.090 -1.1146  1.7494  1.0779
12582SOL    HW241248   9.320   8.573   1.009 -0.0539  0.9754 -1.1658
12585SOL     OW41249   0.132   6.502   2.885 -0.0211  0.1941  0.0831
12585SOL    HW141250   0.168   6.461   2.969  0.1870  0.1285 -0.0362
12585SOL    HW241251   0.170   6.454   2.806 -0.7410 -0.1713 -0.0364
12588SOL     OW41252   3.173   1.430   0.533 -0.0388  0.2830 -0.1225
12588SOL    HW141253   3.122   1.431   0.448  1.3797 -2.3288 -1.0620
12588SOL    HW241254   3.247   1.497   0.529 -1.5043  1.9515  0.0878
12589SOL     OW41255   2.310   9.875   1.001 -0.3500 -0.4661 -0.5931
12589SOL    HW141256   2.251   9.804   0.963 -3.7595  1.6494  0.4391
12589SOL    HW241257   2.328   9.945   0.932 -0.9885  0.0280 -0.2699
12590SOL     OW41258   9.637   0.980   0.502  0.2915 -0.2802 -0.6458
12590SOL    HW141259   9.640   1.040   0.423 -0.3874 -0.2004 -0.6124
12590SOL    HW241260   9.700   0.904   0.488  0.3045 -0.1738 -1.1813
12591SOL     OW41261   4.337   2.057   3.206  0.2154 -0.4098 -0.1347
12591SOL    HW141262   4.274   1.981   3.221  0.3027 -0.3175  0.7227
12591SOL    HW241263   4.431   2.024   3.205  0.2800 -0.2597  0.6510
12593SOL     OW41264   6.077   9.356   3.943  0.0849 -0.3506  0.4401
12593SOL    HW141265   6.022   9.418   3.998 -0.4582  0.4037 -0.9336
12593SOL    HW241266   6.174   9.382   3.950 -0.1169  0.5246  0.0290
12594SOL     OW41267   4.099   1.484   0.285  0.1280  0.0966  0.4589
12594SOL    HW141268   4.115   1.552   0.214  1.8208 -0.3832  0.3673
12594SOL    HW241269   4.164   1.497   0.360  0.2220 -1.1772  0.6151
12595SOL     OW41270   4.216   0.107   4.355  0.3360  0.0730 -0.1566
12595SOL    HW141271   4.306   0.066   4.340  0.2655 -0.6991  1.4210
12595SOL    HW241272   4.213   0.147   4.447 -0.6894  0.7724 -0.4803
12596SOL     OW41273   2.541   3.455   4.809 -0.2175  0.8579  0.4194
12596SOL    HW141274   2.448   3.425   4.789  0.0876  0.4879 -0.4667
12596SOL    HW241275   2.539   3.551   4.839 -0.9373  0.6724  0.9809
12597SOL     OW41276   1.808   6.316   1.485  0.3248 -0.1016  0.0344
12597SOL    HW141277   1.810   6.228   1.437  2.4693  0.1984 -0.4455
12597SOL    HW241278   1.774   6.387   1.423 -1.1131 -0.5067  0.3302
12598SOL     OW41279   0.419   7.424   2.944 -0.1404 -0.1783  0.5059
12598SOL    HW141280   0.367   7.339   2.935 -1.7111  1.0087 -2.3342
12598SOL    HW241281   0.512   7.411   2.911 -0.1449 -1.0006  0.8220
12599SOL     OW41282   2.123   5.063   4.899  0.1076  0.2889 -0.4381
12599SOL    HW141283   2.063   5.120   4.955  1.4494  0.6069  0.7230
12599SOL    HW241284   2.173   5.121   4.834  0.0736  0.1810 -0.5613
12600SOL     OW41285   0.484   6.369   3.492  0.0411 -0.1828 -0.4299
12600SOL    HW141286   0.427   6.300   3.537  0.3486 -0.7059 -0.8406
12600SOL    HW241287   0.428   6.450   3.472  0.1809  0.5262  1.9622
12601SOL     OW41288   9.732   4.627   2.134 -0.3626  0.6160 -0.0627
12601SOL    HW141289   9.712   4.563   2.060 -0.7536 -0.4760  0.9787
12601SOL    HW241290   9.668   4.703   2.130 -0.0405  0.8462 -1.1753
12603SOL     OW41291   2.603   8.635   0.871 -0.1488  0.1251  0.3041
12603SOL    HW141292   2.602   8.630   0.771 -2.2590  1.6304  0.2158
12603SOL    HW241293   2.511   8.658   0.904  0.2404 -1.4719  2.6619
12604SOL     OW41294   9.656   7.544   4.845 -0.8589  0.0918 -0.5626
12604SOL    HW141295   9.668   7.477   4.918 -2.7233  0.0049 -0.3252
12604SOL    HW241296   9.568   7.590   4.856  0.0411  1.9979 -1.1996
12606SOL     OW41297   1.776   3.927   0.397  0.2291  0.2057 -0.1349
12606SOL    HW141298   1.707   3.885   0.455  1.7825 -0.9330  0.9494
12606SOL    HW241299   1.772   4.026   0.407 -1.1793  0.1481 -0.0319
12607SOL     OW41300   5.273   3.301   3.229 -0.1984 -0.0538  0.6577
12607SOL    HW141301   5.344   3.290   3.159 -0.1129  0.0600  0.7261
12607SOL    HW241302   5.193   3.246   3.204  0.2118 -0.8028  0.9807
12608SOL     OW41303   8.655   8.038   2.637  0.1181  0.4232 -1.0314
12608SOL    HW141304   8.626   8.124   2.680  0.3934  0.3033 -0.6072
12608SOL    HW241305   8.618   8.033   2.544  0.8860  1.4372 -1.4008
12609SOL     OW41306   2.422   7.526   1.294 -0.1765  0.3717 -0.5098
12609SOL    HW141307   2.385   7.501   1.383  0.5216 -1.4540 -0.7262
12609SOL    HW241308   2.387   7.464   1.224 -0.0848  1.2937 -1.3983
12611SOL     OW41309   6.967   8.464   3.441 -0.4852 -0.0516 -0.0147
12611SOL    HW141310   7.036   8.446   3.511 -0.5987 -0.2968  0.0338
12611SOL    HW241311   6.939   8.560   3.446  0.5884  0.3075 -0.6964
12612SOL     OW41312   3.728   9.796   4.603  0.4622  0.0123 -0.2770
12612SOL    HW141313   3.662   9.817   4.675  0.0912 -1.0993 -0.2820
12612SOL    HW241314   3.820   9.821   4.634  0.2072  0.3136  0.2483
12613SOL     OW41315   2.410   4.835   0.207  0.2989 -0.0256  0.9336
12613SOL    HW141316   2.428   4.882   0.121 -1.2288 -2.7921 -1.0070
12613SOL    HW241317   2.492   4.786   0.236  0.8382  0.9604  1.0669
12614SOL     OW41318   8.630   1.808   5.119 -0.4308  0.2130 -0.3708
12614SOL    HW141319   8.721   1.819   5.079 -0.6000 -0.6975 -1.0266
12614SOL    HW241320   8.592   1.898   5.139  0.7882  0.5836  0.3193
12615SOL     OW41321   9.271   6.162   3.296 -0.1358 -0.3790  0.7861
12615SOL    HW141322   9.247   6.253   3.329  0.1536  0.2097 -0.5807
12615SOL    HW241323   9.248   6.094   3.365  0.4301  0.8138  2.1653
12616SOL     OW41324   0.618   8.803   4.255 -0.1246 -0.3803  0.2037
12616SOL    HW141325   0.518   8.802   4.257 -0.1935  1.2709 -1.1852
12616SOL    HW241326   0.650   8.890   4.217  1.8237 -1.5016 -0.8035
12617SOL     OW41327   4.864   5.306   1.617 -0.1255 -0.1644 -0.5007
12617SOL    HW141328   4.904   5.234   1.560 -2.2661 -1.8208  0.0381
12617SOL    HW241329   4.821   5.374   1.559 -0.0702 -0.5168 -0.9592
12618SOL     OW41330   8.721   0.877   4.639  0.0328 -0.0399 -0.1885
12618SOL    HW141331   8.695   0.815   4.712  0.3623  0.1493  0.0872
12618SOL    HW241332   8.811   0.916   4.657 -0.4545  1.0214 -0.0222
12620SOL     OW41333   7.917   5.137   0.691  0.1588  0.6580 -0.3532
12620SOL    HW141334   7.887   5.077   0.617  0.0358  0.2555  0.0189
12620SOL    HW241335   8.013   5.160   0.679  0.2890  0.1264 -0.3231
12622SOL     OW41336   7.867   9.738   5.148  0.5646 -0.4659  0.1868
12622SOL    HW141337   7.952   9.700   5.183 -0.5911 -1.0560  2.4564
12622SOL    HW241338   7.870   9.838   5.153  1.4358 -0.4549 -0.5215
12623SOL     OW41339   6.061   9.477   3.637 -0.0147 -0.1996  0.4841
12623SOL    HW141340   6.089   9.565   3.674 -0.9257  0.5255 -0.5335
12623SOL    HW241341   5.966   9.458   3.664 -0.2280 -0.3048 -0.3296
12624SOL     OW41342   3.829   8.411   3.665 -0.3237  0.0888  0.4361
12624SOL    HW141343   3.831   8.494   3.721 -2.4420 -1.9124  3.6390
12624SOL    HW241344   3.737   8.398   3.628  0.6353  0.4595 -2.1724
12625SOL     OW41345   4.214   7.524   3.130 -0.5773  0.3713 -0.5434
12625SOL    HW141346   4.128   7.569   3.154 -1.6730 -1.2599 -1.3216
12625SOL    HW241347   4.275   7.590   3.085 -1.9031  1.2342 -1.0989
12626SOL     OW41348   8.308   2.831   0.588  0.5981 -0.0036  0.3995
12626SOL    HW141349   8.256   2.899   0.640 -2.2797 -0.1071 -2.1879
12626SOL    HW241350   8.359   2.878   0.515  0.3437 -0.3809 -0.0226
12627SOL     OW41351   7.488   1.954   0.181  0.1733  0.4073  0.4930
12627SOL    HW141352   7.404   1.943   0.128  0.0099 -0.0986  0.8518
12627SOL    HW241353   7.564   1.976   0.119 -0.1525  0.4990  0.1282
12628SOL     OW41354   6.345   0.032   2.519 -0.6503 -0.4709 -0.2639
12628SOL    HW141355   6.378  -0.051   2.563 -0.4763 -0.4458 -0.3457
12628SOL    HW241356   6.285   0.081   2.582  1.3498  0.7076  0.8167
12629SOL     OW41357   6.823   7.771   4.992  0.2650  0.0067  0.8015
12629SOL    HW141358   6.846   7.734   4.902  0.4493  0.2794  0.7343
12629SOL    HW241359   6.833   7.870   4.991 -0.2805  0.0693  0.9618
12630SOL     OW41360   0.982   9.783   4.366 -0.1194  0.1059  0.0649
12630SOL    HW141361   0.972   9.786   4.466  0.3859  0.7186  0.1001
12630SOL    HW241362   0.969   9.875   4.329  3.1616  0.5424 -0.0924
12632SOL     OW41363   9.549   4.446   5.106 -0.4296  0.1417 -0.0336
12632SOL    HW141364   9.535   4.363   5.160 -0.2676 -0.9003 -1.5611
12632SOL    HW241365   9.601   4.424   5.023 -1.2182  1.5836 -0.9367
12633SOL     OW41366   7.924   2.531   3.401 -0.5406 -0.7550  0.3065
12633SOL    HW141367   8.017   2.544   3.365 -0.3608 -0.5020  0.8512
12633SOL    HW241368   7.886   2.620   3.425 -1.4584 -0.7196 -1.2065
12634SOL     OW41369   1.158   5.681   4.738  0.2621 -0.0460 -0.1661
12634SOL    HW141370   1.115   5.724   4.818  0.0340 -0.1879 -0.2134
12634SOL    HW241371   1.203   5.597   4.766 -0.6354 -0.6016 -0.3559
12635SOL     OW41372   5.670   9.586   4.652  0.4028 -0.1214 -0.1226
12635SOL    HW141373   5.617   9.670   4.640  1.6654  0.7305  0.1092
12635SOL    HW241374   5.738   9.579   4.579  0.3340 -0.9090 -0.1064
12636SOL     OW41375   8.603   4.753   4.704 -0.3372 -0.1517 -0.7328
12636SOL    HW141376   8.673   4.756   4.775 -1.6159 -1.9718  0.6577
12636SOL    HW241377   8.602   4.840   4.654 -0.3303  1.7445  2.4304
12637SOL     OW41378   3.329   2.875   2.122  0.0442  0.3215  0.4902
12637SOL    HW141379   3.339   2.777   2.108 -1.3105  0.0837  1.1340
12637SOL    HW241380   3.307   2.919   2.035  0.8573  0.1038  0.1617
12638SOL     OW41381   1.930   5.382   4.553  0.5784  0.2103 -1.0563
12638SOL    HW141382   1.935   5.416   4.647 -2.2970 -0.4426 -0.6030
12638SOL    HW241383   1.925   5.460   4.490  0.3831  0.6614 -0.4935
12640SOL     OW41384   0.366   0.987   0.269  0.5852 -0.4605 -0.3093
12640SOL    HW141385   0.382   0.951   0.360 -0.8777 -0.1903  0.0598
12640SOL    HW241386   0.429   1.063   0.252  1.9531 -1.5412 -0.1530
12641SOL     OW41387   3.721   3.936   0.556  0.6574 -0.2380 -0.8415
12641SOL    HW141388   3.698   4.025   0.517 -0.3068  0.0635  0.3578
12641SOL    HW241389   3.749   3.873   0.484  1.9172  1.2183 -1.6356
12643SOL     OW41390   6.021   9.402   3.068  0.2223 -0.1369  0.4419
12643SOL    HW141391   6.054   9.478   3.013 -1.3998  0.5117  0.3393
12643SOL    HW241392   6.095   9.366   3.124  1.7510 -0.4446 -1.7489
12644SOL     OW41393   2.534   3.873   1.827  0.3660  0.1534 -0.6227
12644SOL    HW141394   2.592   3.792   1.837  1.6209  0.9796 -1.1496
12644SOL    HW241395   2.514   3.911   1.917 -0.5465 -0.9554 -0.3450
12645SOL     OW41396   9.864   1.646   3.926 -0.1268 -0.1548  0.2998
12645SOL    HW141397   9.788   1.637   3.991 -0.6599 -0.7346 -0.3882
12645SOL    HW241398   9.854   1.732   3.875  0.2902  0.2971  0.9824
12646SOL     OW41399   6.290   9.441   4.308  0.1395 -0.1051  0.2652
12646SOL    HW141400   6.219   9.415   4.374  0.3417 -0.4963  0.3355
12646SOL    HW241401   6.313   9.537   4.319  0.7585 -0.3571  1.3377
12650SOL     OW41402   3.398   5.245   4.516 -0.0054 -0.2652  0.1521
12650SOL    HW141403   3.333   5.172   4.496 -0.8562  0.4326  0.3452
12650SOL    HW241404   3.386   5.276   4.610  0.4642  0.0147  0.1231
12651SOL     OW41405   9.706   5.507   2.655  0.4503  0.0237 -0.0094
12651SOL    HW141406   9.740   5.413   2.652  1.4864  0.4392 -2.0491
12651SOL    HW241407   9.782   5.571   2.643 -0.2872  1.1196  1.0318
12652SOL     OW41408   8.597   3.304   5.079  0.5066  0.6174  0.0715
12652SOL    HW141409   8.649   3.346   5.005  2.4941 -2.1743 -0.2214
12652SOL    HW241410   8.636   3.333   5.167 -0.0648  1.7354 -0.0390
12653SOL     OW41411   4.615   4.251   1.707  0.3079 -0.3589  0.3025
12653SOL    HW141412   4.627   4.156   1.737 -0.0339 -0.2505  0.7856
12653SOL    HW241413   4.518   4.269   1.692  0.4125 -0.2065 -0.1985
12654SOL     OW41414   1.930   2.997   0.213  0.4598  0.4980  0.6485
12654SOL    HW141415   1.863   3.055   0.166 -0.1752 -1.0408 -0.3623
12654SOL    HW241416   1.992   2.958   0.145  0.2506 -0.8217  1.2166
12655SOL     OW41417   0.576   8.227   4.576 -0.1877  0.0086  0.1067
12655SOL    HW141418   0.618   8.215   4.666  1.8242 -0.7813 -0.9088
12655SOL    HW241419   0.632   8.181   4.507 -2.2412 -0.2519 -1.4267
12656SOL     OW41420   0.546   7.496   1.688  0.0339 -0.5872 -0.0113
12656SOL    HW141421   0.473   7.429   1.704 -0.1881 -0.0446  1.3581
12656SOL    HW241422   0.517   7.585   1.723  1.3278 -0.3586  0.5055
12657SOL     OW41423   5.202   5.242   0.492  0.0398  0.0865  0.3102
12657SOL    HW141424   5.198   5.163   0.553  1.7747 -0.5974 -0.4215
12657SOL    HW241425   5.112   5.284   0.485 -0.3905 -0.4050  2.5593
12658SOL     OW41426   5.847   8.483   1.811 -0.0419  0.3631  0.2631
12658SOL    HW141427   5.881   8.537   1.735 -0.6076 -0.4661 -0.5876
12658SOL    HW241428   5.898   8.507   1.894  2.0921 -0.2963 -0.8136
12659SOL     OW41429   1.075   6.562   0.110 -0.2789  0.2867 -0.0879
12659SOL    HW141430   1.046   6.554   0.206  0.2948  0.4424  0.1013
12659SOL    HW241431   1.084   6.471   0.070  0.9527  0.1632  0.4546
12660SOL     OW41432   0.957   3.026   2.185  0.0398 -0.3950  0.2247
12660SOL    HW141433   0.987   2.941   2.143 -0.0904 -0.4864  0.3129
12660SOL    HW241434   1.020   3.100   2.162 -2.8598  0.7466 -4.5753
12661SOL     OW41435   4.604   2.141   4.134 -0.2114  0.2070  0.3563
12661SOL    HW141436   4.592   2.071   4.063 -0.3589 -1.0614  1.6148
12661SOL    HW241437   4.660   2.215   4.098 -0.5382 -0.2772 -1.1926
12662SOL     OW41438   5.406   7.516   3.545 -0.5672 -0.7102 -0.2353
12662SOL    HW141439   5.354   7.599   3.527  2.3846  1.2200 -0.2915
12662SOL    HW241440   5.435   7.474   3.459  0.3412 -0.1868 -0.1943
12664SOL     OW41441   0.135   2.271   1.756  0.4346  0.4335  1.1221
12664SOL    HW141442   0.171   2.306   1.843  1.9709 -2.6821  1.8392
12664SOL    HW241443   0.043   2.235   1.771  0.4835  0.3967  1.3365
12665SOL     OW41444   5.722   1.822   2.571  0.0919  0.1567 -0.6408
12665SOL    HW141445   5.803   1.866   2.533 -0.3041  2.4312  1.0576
12665SOL    HW241446   5.709   1.851   2.666 -2.3420 -0.6738 -0.6737
12666SOL     OW41447   4.412   5.313   4.921  0.0201  0.1031  0.0628
12666SOL    HW141448   4.510   5.294   4.930  0.1157  0.5112 -0.1258
12666SOL    HW241449   4.399   5.407   4.890 -0.4603  0.3849  1.1120
12667SOL     OW41450   9.168   6.564   0.048 -0.3717 -0.4844 -0.1787
12667SOL    HW141451   9.159   6.606  -0.042 -1.1788  0.5818  0.3856
12667SOL    HW241452   9.104   6.488   0.056 -0.2730 -0.6037 -0.5128
12668SOL     OW41453   9.339   3.174   2.572 -0.1031  0.1500 -0.2995
12668SOL    HW141454   9.308   3.083   2.600  0.3983 -0.0358 -0.3336
12668SOL    HW241455   9.403   3.210   2.640  0.1028  0.2499 -0.5427
12669SOL     OW41456   8.190   2.997   0.766 -0.4563  0.0860  0.2192
12669SOL    HW141457   8.223   2.955   0.850 -1.3073  0.4829  0.7593
12669SOL    HW241458   8.119   3.064   0.788  0.3603  1.2670 -0.6904
12670SOL     OW41459   9.993   9.240   3.821  0.1089 -0.2882  0.2461
12670SOL    HW141460   9.897   9.228   3.799  0.4455 -2.5136 -0.1229
12670SOL    HW241461  10.015   9.337   3.825 -2.7094  0.3294  2.7386
12671SOL     OW41462   4.050   9.062   5.281  0.3275  0.1752 -0.3151
12671SOL    HW141463   4.149   9.049   5.287  0.3986  1.5908  2.3145
12671SOL    HW241464   4.027   9.154   5.311 -1.7323  0.1050 -1.6216
12672SOL     OW41465   4.055   7.353   0.934 -0.7530  0.1953 -0.3955
12672SOL    HW141466   4.084   7.321   0.844  0.3277  3.9017 -1.4691
12672SOL    HW241467   3.955   7.363   0.934 -0.9536 -1.6214 -0.5177
12673SOL     OW41468   0.344   4.890   4.589  0.2882  0.2717 -0.2904
12673SOL    HW141469   0.316   4.841   4.672  0.0410  0.4914 -0.2436
12673SOL    HW241470   0.442   4.907   4.592  0.0317  1.6274  0.6676
12677SOL     OW41471   5.020   8.429   2.298  0.4064 -0.3956 -0.1746
12677SOL    HW141472   4.936   8.398   2.344  0.5139 -0.2045  0.1495
12677SOL    HW241473   5.099   8.382   2.338  0.4744 -0.4158 -0.3361
12679SOL     OW41474   4.141   1.803   1.119 -0.3588  0.3883  0.4058
12679SOL    HW141475   4.195   1.789   1.036  0.9974  1.2488  1.1370
12679SOL    HW241476   4.045   1.781   1.100 -0.0795  0.6537 -1.4077
12681SOL     OW41477   9.029   7.814   3.779 -0.3650  0.4381  0.0018
12681SOL    HW141478   9.006   7.732   3.832  1.1372  0.7554  1.1657
12681SOL    HW241479   9.013   7.896   3.834 -1.4408  0.9211 -1.0072
12682SOL     OW41480   2.919   0.191   2.699  0.4820  0.4576  0.0078
12682SOL    HW141481   2.927   0.276   2.648  2.7536  1.6246  2.1951
12682SOL    HW241482   2.985   0.124   2.663  1.7960  1.1447  1.0613
12683SOL     OW41483   7.097   0.827   1.227  0.0695  0.4245  0.2284
12683SOL    HW141484   7.187   0.786   1.246 -0.7610 -1.0477  1.1318
12683SOL    HW241485   7.095   0.920   1.262  1.0861  0.2905  0.6735
12685SOL     OW41486   8.662   0.928   0.902  0.4857  0.3514 -0.0181
12685SOL    HW141487   8.660   0.913   0.803  0.2673  0.0704  0.0276
12685SOL    HW241488   8.709   1.014   0.922 -1.9347  1.8315 -0.5129
12686SOL     OW41489   3.426   4.999   5.182  1.1025 -0.0059 -0.1791
12686SOL    HW141490   3.364   5.048   5.121  1.4641 -0.1055 -0.6318
12686SOL    HW241491   3.433   5.047   5.269 -1.2497 -1.1122  0.6471
12688SOL     OW41492   4.449   9.803   3.467 -0.0399 -0.4880 -0.2893
12688SOL    HW141493   4.422   9.709   3.488 -0.5168 -0.2914 -0.0260
12688SOL    HW241494   4.501   9.804   3.382 -1.2469 -0.8049 -1.0474
12689SOL     OW41495   2.586   1.468   3.933  0.0554  0.4946  0.3817
12689SOL    HW141496   2.534   1.530   3.874 -1.2463 -0.2624  0.7297
12689SOL    HW241497   2.586   1.376   3.893  2.6524  0.8401 -0.5478
12690SOL     OW41498   0.808   1.353   3.654 -0.1722  0.2575  0.1108
12690SOL    HW141499   0.900   1.374   3.620  0.5507 -0.3030  1.7066
12690SOL    HW241500   0.815   1.298   3.737 -1.9605  0.0262  0.1116
12691SOL     OW41501   0.125   0.043   0.119  0.0149  0.0884 -0.2776
12691SOL    HW141502   0.135   0.015   0.024 -0.7797 -2.2792  0.3275
12691SOL    HW241503   0.189  -0.009   0.176 -0.9166  0.0646  0.7557
12692SOL     OW41504   2.447   5.658   2.140 -0.0417  0.0470  0.1923
12692SOL    HW141505   2.473   5.580   2.082  0.2864 -0.0687  0.4922
12692SOL    HW241506   2.476   5.641   2.234  1.4514  1.2191 -0.0377
12693SOL     OW41507   8.848   5.015   1.435 -0.1048  0.2281 -0.1381
12693SOL    HW141508   8.858   4.932   1.381 -0.8394 -0.5132  0.8406
12693SOL    HW241509   8.809   4.992   1.525 -2.0668  1.8532 -0.5392
12694SOL     OW41510   1.989   5.692   2.335 -0.1745  0.0592 -0.2250
12694SOL    HW141511   1.955   5.617   2.278 -1.7973 -1.6328  2.8778
12694SOL    HW241512   2.081   5.717   2.304 -0.2173 -2.1322 -2.2987
12696SOL     OW41513   4.880   5.421   2.580  0.2070  0.3507 -0.2122
12696SOL    HW141514   4.862   5.323   2.574  1.4141  0.0707  0.6281
12696SOL    HW241515   4.887   5.448   2.676  0.0333  1.2341 -0.4421
12697SOL     OW41516   9.131   6.021   4.361  0.0333 -0.7256 -0.1696
12697SOL    HW141517   9.158   5.971   4.279 -0.8020  0.9071 -1.4741
12697SOL    HW241518   9.041   5.989   4.391  0.8586 -2.1628  0.8420
12698SOL     OW41519   1.576   8.452   3.228  0.0398  0.4572  0.4621
12698SOL    HW141520   1.605   8.362   3.262  1.3619  0.8475  0.4149
12698SOL    HW241521   1.649   8.491   3.172 -0.1376  1.9465  1.2286
12700SOL     OW41522   4.028   1.680   2.760  0.0555 -0.1894 -0.1307
12700SOL    HW141523   4.116   1.717   2.731  1.2609 -1.5587  1.6423
12700SOL    HW241524   3.954   1.738   2.727  1.5912  0.7023 -2.0809
12701SOL     OW41525   4.088   6.558   4.440  0.1371 -0.1917  0.3296
12701SOL    HW141526   4.138   6.494   4.498  0.1170 -0.2364  0.2971
12701SOL    HW241527   4.083   6.647   4.485  2.7590  0.6354 -0.9168
12702SOL     OW41528   8.618   2.936   1.508 -0.0633 -0.0570  0.0529
12702SOL    HW141529   8.569   2.999   1.568 -2.2130 -0.8099 -0.8601
12702SOL    HW241530   8.716   2.938   1.529 -0.3094  2.4297  1.0518
12703SOL     OW41531   0.124   3.659   3.553 -0.6702 -0.5414  0.0403
12703SOL    HW141532   0.092   3.751   3.578  0.3553 -0.0965 -0.2369
12703SOL    HW241533   0.047   3.604   3.522 -2.0527 -1.1896  4.3477
12704SOL     OW41534   4.510   0.905   5.017 -0.0561  0.2607 -0.0516
12704SOL    HW141535   4.545   0.993   5.049 -1.6972  0.8022  0.2947
12704SOL    HW241536   4.542   0.888   4.924  2.0526  0.1929  0.6611
12706SOL     OW41537   4.038   4.359   5.006 -0.0963  0.1488 -0.4103
12706SOL    HW141538   4.133   4.355   4.973 -0.2828  1.7470 -1.1606
12706SOL    HW241539   3.996   4.444   4.976 -1.5846 -0.2680  0.4665
12707SOL     OW41540   7.964   5.280   0.285  0.1224 -0.4012 -0.1251
12707SOL    HW141541   7.932   5.283   0.380  0.0574 -0.3794 -0.1481
12707SOL    HW241542   8.050   5.229   0.281 -0.0459 -0.6851 -0.1049
12708SOL     OW41543   0.101   1.294   0.171  0.2595  0.1183  0.5839
12708SOL    HW141544   0.027   1.352   0.205 -0.9527  0.0336 -1.8829
12708SOL    HW241545   0.184   1.314   0.224 -0.7288  2.4025  1.3624
12709SOL     OW41546   8.651   9.348   4.363  0.2887  0.0869 -0.4078
12709SOL    HW141547   8.740   9.365   4.406 -1.0264  1.4598  1.8798
12709SOL    HW241548   8.652   9.382   4.269  1.8307  1.1722 -0.0233
12710SOL     OW41549   3.165   4.870   4.367  0.4348  0.0207  0.2753
12710SOL    HW141550   3.091   4.884   4.302  0.0704  0.2904  0.7399
12710SOL    HW241551   3.152   4.783   4.415  0.9261 -0.3725 -0.2989
12711SOL     OW41552   3.547   2.139   5.247 -0.0085 -0.0415 -0.1092
12711SOL    HW141553   3.570   2.045   5.220 -1.2836 -0.7235  1.1084
12711SOL    HW241554   3.595   2.203   5.188  1.0168 -1.4608 -0.8573
12712SOL     OW41555   9.980   5.107   3.070 -0.3134  0.2096  0.0054
12712SOL    HW141556   9.932   5.023   3.094 -0.5285  0.7859  1.6851
12712SOL    HW241557  10.029   5.142   3.150 -0.2136  1.6624 -0.6604
12713SOL     OW41558   7.740   8.559   5.138 -0.7322 -0.3922 -0.3520
12713SOL    HW141559   7.827   8.539   5.184 -0.1176 -0.1275 -1.3792
12713SOL    HW241560   7.669   8.576   5.207  1.2283  4.7268  0.6283
12714SOL     OW41561   7.657   2.105   3.867  0.2598  0.4894 -0.5793
12714SOL    HW141562   7.608   2.103   3.955 -1.0484  1.8637 -1.2542
12714SOL    HW241563   7.613   2.041   3.804  0.1365  0.7678 -0.7758
12716SOL     OW41564   3.485   2.616   5.170 -0.0080 -0.0110  0.6356
12716SOL    HW141565   3.544   2.540   5.144  2.6895  2.1066  0.3557
12716SOL    HW241566   3.432   2.646   5.091  2.7006  1.6272 -0.6330
12717SOL     OW41567   1.135   6.822   2.689 -0.4975  0.6983 -0.5615
12717SOL    HW141568   1.105   6.741   2.638  0.9432 -0.2408  0.0580
12717SOL    HW241569   1.076   6.899   2.666 -2.7005 -0.8219 -0.2039
12720SOL     OW41570   6.016   5.032   0.367  0.0795  0.3243  0.2761
12720SOL    HW141571   5.931   5.028   0.313  0.6055  2.2749 -0.7556
12720SOL    HW241572   6.094   5.023   0.306  0.6362 -0.1087  1.0553
12721SOL     OW41573   7.099   0.755   1.926 -0.0795 -0.3600 -0.7042
12721SOL    HW141574   7.041   0.803   1.992  0.7162  0.8186 -0.8427
12721SOL    HW241575   7.148   0.822   1.870  2.0606 -1.3173 -0.0182
12722SOL     OW41576   0.716   8.547   0.959 -0.2447 -0.2012  0.3580
12722SOL    HW141577   0.725   8.636   1.004 -2.8227 -0.9942  2.5926
12722SOL    HW241578   0.740   8.475   1.024 -0.5781 -1.2432 -0.6588
12723SOL     OW41579   4.630   1.430   3.597  0.0044  0.0428  0.3259
12723SOL    HW141580   4.591   1.401   3.510  1.2947 -0.5068 -0.0827
12723SOL    HW241581   4.583   1.512   3.629 -0.3676  0.3468 -0.9726
12725SOL     OW41582   4.264   1.408   1.172  0.5047 -0.1683 -0.3339
12725SOL    HW141583   4.333   1.370   1.110  0.1962 -0.8640 -0.2525
12725SOL    HW241584   4.299   1.406   1.265 -0.3821 -2.3935 -0.0101
12726SOL     OW41585   1.054   8.755   4.234  0.4876  0.1481 -0.3827
12726SOL    HW141586   1.057   8.814   4.315  0.1182  1.3561 -1.2186
12726SOL    HW241587   1.034   8.661   4.262 -2.5386  1.0320  0.7334
12727SOL     OW41588   1.029   4.089   2.488 -0.4311 -0.2545  0.3229
12727SOL    HW141589   1.052   4.078   2.391 -1.2196 -1.3538  0.2514
12727SOL    HW241590   0.969   4.014   2.517 -0.7503  0.4374  1.4902
12729SOL     OW41591   5.552   6.412   2.166  0.5489 -0.1074  0.2727
12729SOL    HW141592   5.595   6.490   2.121  0.2871  0.1826  0.5244
12729SOL    HW241593   5.456   6.407   2.140  0.4582 -0.0878  0.6037
12730SOL     OW41594   4.130   4.355   2.471  0.2288  0.2325 -0.3284
12730SOL    HW141595   4.107   4.429   2.408 -1.3956  0.8585  0.9679
12730SOL    HW241596   4.206   4.301   2.433  1.2376  2.3605 -1.4223
12731SOL     OW41597   0.024   1.152   0.432 -0.1589 -0.0355 -0.0532
12731SOL    HW141598   0.085   1.172   0.354 -0.8871  0.8169 -0.4176
12731SOL    HW241599   0.068   1.182   0.516 -0.7001  2.0015 -0.4713
12732SOL     OW41600   0.329   2.139   1.360  0.0041  0.3875 -0.0631
12732SOL    HW141601   0.370   2.152   1.450 -1.7728 -0.7058  0.9413
12732SOL    HW241602   0.260   2.211   1.345  1.4759  1.5862 -1.2936
12733SOL     OW41603   0.215   4.940   3.655 -0.0681  0.3248 -0.2732
12733SOL    HW141604   0.272   4.881   3.598 -1.2535 -0.4245 -0.7254
12733SOL    HW241605   0.152   4.883   3.709  0.0803  1.0936  0.7297
12734SOL     OW41606   8.660   7.367   0.827  0.0214  0.2447 -0.3126
12734SOL    HW141607   8.657   7.377   0.727 -0.6209  0.3925 -0.2822
12734SOL    HW241608   8.666   7.458   0.869 -1.3523  0.2787 -0.1697
12735SOL     OW41609   9.688   7.205   0.146  0.1314 -0.3572 -0.1532
12735SOL    HW141610   9.715   7.301   0.139 -2.1276  0.3295  0.3777
12735SOL    HW241611   9.691   7.176   0.242 -0.5830 -0.4020 -0.1426
12736SOL     OW41612   5.495   0.651   3.664  0.3858  0.0294 -0.5967
12736SOL    HW141613   5.478   0.749   3.658 -2.8722 -0.3672  1.4255
12736SOL    HW241614   5.434   0.602   3.602  0.3571 -0.8694  0.1302
12737SOL     OW41615   1.223   5.503   3.700 -0.6058  0.1334 -0.1213
12737SOL    HW141616   1.136   5.466   3.731  0.4026 -2.8740 -0.7467
12737SOL    HW241617   1.208   5.566   3.624 -2.4279  1.7803  1.5422
12738SOL     OW41618   2.856   7.522   2.073  0.0452 -0.3719 -0.0809
12738SOL    HW141619   2.820   7.435   2.039 -1.4422  0.0288  0.4461
12738SOL    HW241620   2.783   7.573   2.117  0.3515  2.1915 -2.4124
12740SOL     OW41621   9.324   6.242   4.098 -0.3425  0.5022 -0.0090
12740SOL    HW141622   9.417   6.243   4.060 -1.4536 -0.0050 -2.8315
12740SOL    HW241623   9.317   6.312   4.169  2.0414  0.9282 -0.1505
12741SOL     OW41624   2.814   4.847   0.369 -0.6897 -0.1507 -0.3094
12741SOL    HW141625   2.867   4.838   0.284 -2.9494  1.7327 -1.9575
12741SOL    HW241626   2.877   4.841   0.447  1.8290  0.9492 -2.1652
12742SOL     OW41627   9.995   1.953   4.559  0.0360  0.1363 -0.0662
12742SOL    HW141628   9.918   2.007   4.594  1.3240  0.6066  2.1399
12742SOL    HW241629  10.074   2.014   4.544  0.1318 -0.4042 -1.9608
12743SOL     OW41630   5.978   8.521   4.116 -0.3038 -0.2694  0.5918
12743SOL    HW141631   5.939   8.470   4.192 -0.4561 -0.6291  0.2763
12743SOL    HW241632   5.904   8.554   4.057 -0.2744  1.1905  1.3404
12744SOL     OW41633   8.884   4.199   1.038 -0.1583  0.2754 -0.3045
12744SOL    HW141634   8.797   4.160   1.069 -0.3442 -0.5922 -1.8282
12744SOL    HW241635   8.946   4.124   1.012  0.6272  0.9197 -0.3006
12745SOL     OW41636   3.097   8.933   2.000 -0.3937 -0.5181  0.3672
12745SOL    HW141637   3.107   8.979   1.912  0.0366 -0.9957  0.1672
12745SOL    HW241638   3.026   8.979   2.053 -1.0177 -0.5385 -0.4331
12746SOL     OW41639   2.245   5.354   2.459 -0.2294 -0.0056  0.6321
12746SOL    HW141640   2.260   5.342   2.361 -0.3763  1.0502  0.4847
12746SOL    HW241641   2.154   5.391   2.475  0.1959  0.8606  1.1016
12748SOL     OW41642   2.620   3.056   1.322  0.5410  0.1652 -0.3377
12748SOL    HW141643   2.624   3.155   1.332  0.4858 -0.0465  2.1699
12748SOL    HW241644   2.537   3.021   1.366  0.9408 -1.0455 -0.5172
12749SOL     OW41645   1.003   4.587   1.372  0.0330  0.0609 -0.2633
12749SOL    HW141646   1.054   4.537   1.443 -1.6198 -2.4403 -0.7852
12749SOL    HW241647   0.916   4.618   1.410 -0.9890 -1.5431 -1.2492
12751SOL     OW41648   2.080   2.344   2.097 -0.5112  0.1769 -0.9427
12751SOL    HW141649   2.126   2.363   2.184 -0.2914  1.0353 -1.2438
12751SOL    HW241650   2.110   2.255   2.063  0.3830  0.4037 -0.7733
12753SOL     OW41651   4.398   1.502   4.728  0.2939  0.7584 -0.1699
12753SOL    HW141652   4.306   1.537   4.747  0.5752  1.5010 -0.1762
12753SOL    HW241653   4.392   1.405   4.705 -0.5897  1.0061 -1.0042
12754SOL     OW41654   9.450   3.003   3.120 -0.0749  0.7802  0.3356
12754SOL    HW141655   9.389   3.036   3.192 -2.0607  0.0082 -0.9587
12754SOL    HW241656   9.461   3.074   3.051 -2.0764 -0.1836 -1.0178
12755SOL     OW41657   2.327   1.813   0.512 -0.0654  0.3718 -0.4308
12755SOL    HW141658   2.380   1.803   0.596 -0.1967 -1.2468 -0.5365
12755SOL    HW241659   2.345   1.903   0.472 -1.1644  1.7809  2.1279
12756SOL     OW41660   5.560   0.080   2.561 -0.5705 -0.4010 -0.6785
12756SOL    HW141661   5.652   0.059   2.595 -1.1863 -1.6176  0.2485
12756SOL    HW241662   5.537   0.017   2.487 -0.1330  0.7836 -1.8468
12757SOL     OW41663   9.228   8.477   4.870 -0.0485 -0.1825  0.0187
12757SOL    HW141664   9.206   8.529   4.952  1.2122  1.1343 -0.4446
12757SOL    HW241665   9.321   8.441   4.876 -0.6750 -1.8510  0.0433
12758SOL     OW41666   7.932   6.904   4.806 -0.0963 -0.6140 -0.0777
12758SOL    HW141667   7.931   6.999   4.836  0.1442 -0.8566  0.6861
12758SOL    HW241668   7.847   6.884   4.755 -0.0029  0.0895 -0.5091
12759SOL     OW41669   8.517   8.995   2.340  0.0878 -0.0531  0.2328
12759SOL    HW141670   8.561   8.905   2.340 -0.7976 -0.5004  0.0289
12759SOL    HW241671   8.428   8.988   2.295 -0.1706  0.8386  0.5898
12760SOL     OW41672   0.107   9.564   3.017  0.1670 -0.9566 -0.4656
12760SOL    HW141673   0.022   9.597   3.059 -0.3029  0.5234 -2.5350
12760SOL    HW241674   0.149   9.496   3.078 -2.2366 -1.3738  0.8090
12762SOL     OW41675   9.947   4.535   0.163 -0.0551 -0.0295 -0.3252
12762SOL    HW141676   9.856   4.493   0.161  0.4118 -1.0249 -2.7439
12762SOL    HW241677   9.939   4.632   0.137 -0.4920  0.0310  0.0318
12763SOL     OW41678   3.803   2.011   2.109 -0.6759  0.0311  0.1467
12763SOL    HW141679   3.825   1.969   2.198 -4.6808 -2.1471  0.2176
12763SOL    HW241680   3.816   1.943   2.037  0.4982  1.1666 -0.7349
12764SOL     OW41681   4.772   3.493   2.346  0.0731  0.2244  0.6812
12764SOL    HW141682   4.769   3.517   2.442  0.2409  2.5074  0.1337
12764SOL    HW241683   4.679   3.479   2.312 -0.2001  2.3857  0.4735
12765SOL     OW41684   8.578   8.163   3.269 -0.0584 -0.1812  0.2099
12765SOL    HW141685   8.666   8.166   3.222 -0.4373  1.3440 -0.4261
12765SOL    HW241686   8.591   8.133   3.363  1.5867  3.1180  1.0962
12766SOL     OW41687   2.760   2.798   0.338  0.0640 -0.3362  0.6747
12766SOL    HW141688   2.767   2.843   0.249  0.5667  1.1904  1.4713
12766SOL    HW241689   2.699   2.719   0.330  1.7858 -1.4993 -1.5081
12767SOL     OW41690   4.763   3.718   0.180  0.2162  0.6084  0.5289
12767SOL    HW141691   4.710   3.678   0.105  2.5504 -1.0013 -0.3175
12767SOL    HW241692   4.707   3.719   0.263 -0.8444 -1.9869 -0.0907
12770SOL     OW41693   4.238   0.657   3.445  0.1770  0.7075 -1.0630
12770SOL    HW141694   4.289   0.705   3.516 -0.4056  1.5257 -1.1940
12770SOL    HW241695   4.240   0.559   3.464 -0.3974  0.9599  0.3483
12771SOL     OW41696   3.252   9.599   2.653 -0.3144 -0.4474 -0.2222
12771SOL    HW141697   3.317   9.668   2.687  0.2183 -0.7778 -0.5588
12771SOL    HW241698   3.300   9.512   2.641 -1.3995 -1.4103  2.0737
12772SOL     OW41699   9.817   5.067   5.223 -0.2348  0.0574 -0.3096
12772SOL    HW141700   9.741   5.005   5.203 -0.6503 -0.1472  1.8307
12772SOL    HW241701   9.784   5.161   5.230 -0.1476  0.0815 -0.2161
12773SOL     OW41702   4.104   9.902   3.733  0.0638 -0.3400  0.1516
12773SOL    HW141703   4.029   9.892   3.798 -0.9682 -0.9526 -1.0989
12773SOL    HW241704   4.174   9.962   3.771 -0.9004 -0.0412  1.4804
12774SOL     OW41705   4.295   9.335   0.780  0.0891 -0.1377  0.4226
12774SOL    HW141706   4.273   9.245   0.818  1.4474 -1.0716 -0.9107
12774SOL    HW241707   4.260   9.342   0.687 -1.4378  1.3530  1.0910
12775SOL     OW41708   6.722   8.088   5.261  0.0800  0.4485  0.6110
12775SOL    HW141709   6.659   8.015   5.235 -0.1369  0.4264  1.1904
12775SOL    HW241710   6.783   8.109   5.184  0.3783 -0.5867  0.5598
12776SOL     OW41711   4.601   4.603   0.747 -0.1960  0.1396  0.1549
12776SOL    HW141712   4.696   4.623   0.723  0.3098 -2.5510 -0.2003
12776SOL    HW241713   4.547   4.590   0.664 -0.6842  0.7364  0.3720
12777SOL     OW41714   6.654   8.183   4.409  0.4193  0.5627 -0.7116
12777SOL    HW141715   6.624   8.108   4.468 -2.3933 -0.0235 -2.7712
12777SOL    HW241716   6.708   8.248   4.462  0.9491 -1.7317  1.6465
12778SOL     OW41717   8.465   7.914   0.575 -0.2955  0.2648  0.3266
12778SOL    HW141718   8.408   7.893   0.655 -0.3804  0.6899  0.3780
12778SOL    HW241719   8.482   8.013   0.571 -0.7140  0.3141 -0.4608
12780SOL     OW41720   4.089   1.077   0.090 -0.0001 -0.1366 -0.1921
12780SOL    HW141721   4.045   1.163   0.115  0.5943  0.0636  0.1691
12780SOL    HW241722   4.036   1.001   0.128 -0.9084  0.0287 -1.0959
12781SOL     OW41723   8.948   5.984   2.612  0.2408 -0.3844 -0.3559
12781SOL    HW141724   9.033   6.020   2.650 -0.7786  0.1273  1.4882
12781SOL    HW241725   8.969   5.915   2.543  2.1352 -0.4300  0.2478
12783SOL     OW41726   0.573   8.543   2.509  0.4211  0.7485  0.1226
12783SOL    HW141727   0.606   8.508   2.422  0.5082  2.8391 -0.7309
12783SOL    HW241728   0.646   8.592   2.556 -0.1215  1.2184  0.4956
12784SOL     OW41729   8.738   8.069   1.393 -0.1470  0.2560  0.2159
12784SOL    HW141730   8.673   8.010   1.442 -0.2312 -0.5806 -0.8789
12784SOL    HW241731   8.807   8.013   1.348  0.1694  1.0292 -0.2844
12787SOL     OW41732   2.769   2.556   4.855  0.1493 -0.1899 -0.4007
12787SOL    HW141733   2.706   2.628   4.885 -0.7385 -0.7345 -0.9563
12787SOL    HW241734   2.825   2.526   4.933 -1.4512 -0.9008  0.4899
12788SOL     OW41735   3.566   0.090   2.811 -0.1309 -0.0233 -0.3241
12788SOL    HW141736   3.632   0.153   2.853  0.4396  0.7788 -2.3670
12788SOL    HW241737   3.574   0.094   2.712 -1.0502 -2.3135 -0.5394
12789SOL     OW41738   3.280   2.799   3.988 -0.2861  0.4206 -0.1030
12789SOL    HW141739   3.228   2.761   4.063  1.2426 -0.8939  0.3054
12789SOL    HW241740   3.370   2.828   4.020 -0.5654  2.2779 -0.8850
12790SOL     OW41741   8.222   4.269   1.425  0.2948 -0.0485 -0.2091
12790SOL    HW141742   8.128   4.293   1.398  1.6325  3.3326 -2.1405
12790SOL    HW241743   8.264   4.214   1.353  1.0636  1.8443 -1.2576
12791SOL     OW41744   3.298   5.882   0.114  0.0555  0.3674  0.2019
12791SOL    HW141745   3.324   5.941   0.191  0.5441  1.4086 -0.7306
12791SOL    HW241746   3.226   5.819   0.142 -0.8690  1.7928  1.0944
12792SOL     OW41747   3.874   0.385   0.722 -0.3952  0.0843 -0.0782
12792SOL    HW141748   3.953   0.446   0.715 -0.4705  0.2253  0.2899
12792SOL    HW241749   3.794   0.428   0.678 -0.3512  0.0832 -0.1599
12793SOL     OW41750   3.152   8.835   2.762  0.3111  0.3435 -0.4699
12793SOL    HW141751   3.165   8.918   2.816  2.1058 -0.4830  0.4051
12793SOL    HW241752   3.222   8.830   2.691  0.5626 -0.6957 -0.1563
12795SOL     OW41753   1.873   7.719   2.540 -0.1482 -0.5201 -0.0721
12795SOL    HW141754   1.949   7.666   2.501 -0.7336 -2.0099  0.8001
12795SOL    HW241755   1.852   7.685   2.632 -0.3954  1.3703  0.6097
12796SOL     OW41756   4.872   9.514   3.548  0.3683  0.6551  0.2048
12796SOL    HW141757   4.949   9.484   3.604 -0.2491  0.4349  0.9415
12796SOL    HW241758   4.812   9.437   3.527 -0.5514  1.1251  1.0503
12798SOL     OW41759   8.144   0.909   3.587 -0.0804  0.1340 -0.2065
12798SOL    HW141760   8.150   0.923   3.488 -0.0470 -1.8802 -0.5069
12798SOL    HW241761   8.199   0.830   3.613 -2.4103 -1.1316  1.0240
12799SOL     OW41762   2.177   2.586   2.837 -0.2037 -0.1237 -0.0119
12799SOL    HW141763   2.271   2.565   2.863 -0.0850  1.0821  0.5894
12799SOL    HW241764   2.114   2.537   2.897  0.0589  0.3751  0.6876
12800SOL     OW41765   2.168   7.337   2.409 -0.9200 -0.0656  0.1768
12800SOL    HW141766   2.116   7.257   2.381 -0.2677  0.5942 -3.1540
12800SOL    HW241767   2.254   7.341   2.358 -0.5964  2.3193  0.8411
12801SOL     OW41768   9.410   7.298   0.964 -0.1920 -0.0951 -0.2278
12801SOL    HW141769   9.494   7.244   0.975  0.6743  0.8641 -1.8511
12801SOL    HW241770   9.387   7.303   0.867 -1.8362  0.1157  0.1605
12802SOL     OW41771   1.383   5.385   1.102 -0.1478  0.3869  0.0336
12802SOL    HW141772   1.326   5.407   1.181 -3.6240 -1.5367 -1.7642
12802SOL    HW241773   1.370   5.455   1.031  0.2124  0.2537 -0.1659
12803SOL     OW41774   6.296   9.139   3.970 -0.2552  0.0097 -0.1363
12803SOL    HW141775   6.251   9.125   4.059  0.8704 -0.5438  0.3563
12803SOL    HW241776   6.351   9.222   3.974 -0.3646  0.0915 -0.3794
12804SOL     OW41777   9.527   9.515   2.513 -0.4100 -0.0441 -0.1226
12804SOL    HW141778   9.512   9.476   2.604  1.6493 -0.6033 -0.0163
12804SOL    HW241779   9.590   9.592   2.519  1.6263 -1.5772 -1.3876
12805SOL     OW41780   2.112   0.815   0.224 -0.4114  0.4316  0.0641
12805SOL    HW141781   2.074   0.899   0.261  0.1499  0.2748  1.0096
12805SOL    HW241782   2.196   0.791   0.273  0.8672  0.7221 -1.9194
12806SOL     OW41783   3.709   3.772   4.579 -0.0678 -0.2211 -0.2854
12806SOL    HW141784   3.664   3.820   4.503  0.3137  0.4805 -0.0738
12806SOL    HW241785   3.640   3.731   4.638 -0.3588 -1.2164 -1.2960
12807SOL     OW41786   2.454   4.691   3.416  0.4196  0.3480  0.4335
12807SOL    HW141787   2.543   4.672   3.374  0.1685  0.6676 -0.2562
12807SOL    HW241788   2.433   4.788   3.405 -0.0009  0.2763  0.6176
12809SOL     OW41789   1.797   4.716   4.587 -0.2179 -0.5348 -0.0689
12809SOL    HW141790   1.787   4.812   4.612  0.2035 -0.7069  0.7981
12809SOL    HW241791   1.892   4.688   4.601  0.1736 -0.4843 -2.4768
12810SOL     OW41792   6.310   8.861   3.940 -0.2681 -0.6006 -0.2216
12810SOL    HW141793   6.333   8.958   3.939 -0.2257 -0.6186 -1.9318
12810SOL    HW241794   6.278   8.835   4.032  1.0446  0.6994  0.6276
12811SOL     OW41795   1.558   1.444   3.107  0.2877 -0.0344  0.8473
12811SOL    HW141796   1.590   1.362   3.156  1.3103  0.7902  1.5761
12811SOL    HW241797   1.461   1.457   3.126  0.2648 -0.7169  1.2433
12812SOL     OW41798   9.826   0.680   1.593 -0.0772 -0.0082  0.3904
12812SOL    HW141799   9.866   0.707   1.506  0.6989 -0.0121  0.7377
12812SOL    HW241800   9.814   0.760   1.651  1.7369 -0.3127  1.2208
12813SOL     OW41801   6.360   4.361   0.479  0.1307 -0.2003 -0.5687
12813SOL    HW141802   6.442   4.340   0.532 -0.4779 -1.7250 -0.2254
12813SOL    HW241803   6.382   4.360   0.382 -0.0319 -3.1537 -0.6061
12814SOL     OW41804   8.001   7.806   5.164  0.2298  0.1597  0.5087
12814SOL    HW141805   7.969   7.873   5.097  3.1903 -0.9454 -2.1778
12814SOL    HW241806   7.950   7.721   5.154 -0.9806  0.7819  1.3409
12815SOL     OW41807   1.227   6.170   3.418  0.7046 -0.6577  0.2020
12815SOL    HW141808   1.209   6.207   3.327  1.3471  3.0715  1.4896
12815SOL    HW241809   1.196   6.236   3.487  0.3107 -3.3658  2.7015
12817SOL     OW41810   3.992   3.383   2.177 -0.5790 -0.2937 -0.6655
12817SOL    HW141811   3.909   3.423   2.139 -1.8545 -2.0688  0.1936
12817SOL    HW241812   3.972   3.342   2.266  0.8444 -2.2055 -1.1947
12819SOL     OW41813   9.145   0.304   0.946 -0.3309 -0.4133 -0.8436
12819SOL    HW141814   9.118   0.239   1.017 -2.7022  0.4582 -0.8970
12819SOL    HW241815   9.147   0.258   0.857 -0.2279 -0.8274 -0.6289
12820SOL     OW41816   7.410   3.761   2.148 -0.1506 -0.1472  0.4440
12820SOL    HW141817   7.454   3.822   2.081 -1.0025 -0.4878 -0.4340
12820SOL    HW241818   7.427   3.666   2.121  0.0361 -0.2907  1.0685
12821SOL     OW41819   7.445   2.561   4.103  0.1978  0.1619  0.0777
12821SOL    HW141820   7.375   2.495   4.077  0.4371  0.7469 -2.1465
12821SOL    HW241821   7.536   2.520   4.093  0.2082 -0.4499  2.5255
12822SOL     OW41822   1.953   4.352   3.086 -0.6728  0.7335  0.2891
12822SOL    HW141823   2.048   4.327   3.108 -0.5223  0.0716 -1.0099
12822SOL    HW241824   1.922   4.424   3.148  0.4191  0.4173  1.2287
12824SOL     OW41825   5.218   8.308   2.431  0.2921 -0.1346 -0.2550
12824SOL    HW141826   5.240   8.365   2.510  0.9625  0.0595 -0.5733
12824SOL    HW241827   5.249   8.214   2.447  3.1621  0.5474 -1.4619
12825SOL     OW41828   0.805   1.687   2.356  0.7387 -0.1046 -0.2731
12825SOL    HW141829   0.807   1.672   2.455  0.9359 -0.2474 -0.2980
12825SOL    HW241830   0.763   1.775   2.336 -0.4110 -0.6075 -0.1184
12826SOL     OW41831   1.203   7.750   1.573 -0.1852 -0.5656  0.3450
12826SOL    HW141832   1.249   7.692   1.640  1.0883 -0.4637 -0.4144
12826SOL    HW241833   1.254   7.836   1.563 -1.8263  0.5163  1.1641
12827SOL     OW41834   2.983   4.945   4.844 -0.1820  0.6530 -0.1472
12827SOL    HW141835   2.999   4.884   4.766 -2.0251  0.7560 -0.6292
12827SOL    HW241836   2.918   5.016   4.817  0.7419  1.9135  0.8876
12828SOL     OW41837   7.099   1.864   1.857  0.1218 -0.5420  0.3228
12828SOL    HW141838   7.144   1.919   1.786 -0.1470  1.0825  1.3812
12828SOL    HW241839   7.168   1.825   1.918  0.3116 -1.3881 -0.4176
12829SOL     OW41840   6.486   7.632   3.209  0.0548  0.0095  0.3279
12829SOL    HW141841   6.438   7.712   3.245  0.6812  1.0120 -1.0012
12829SOL    HW241842   6.450   7.609   3.119  0.7322 -0.4248  0.1649
12830SOL     OW41843   3.648   3.885   4.077 -0.4648  0.1248  0.1003
12830SOL    HW141844   3.702   3.961   4.043 -0.7861  0.1746 -0.3082
12830SOL    HW241845   3.566   3.874   4.020 -0.5121 -0.4099  0.2652
12831SOL     OW41846   3.167   4.619   5.046  0.5192 -0.5042 -0.1669
12831SOL    HW141847   3.080   4.572   5.063  1.1066 -1.4200  0.3263
12831SOL    HW241848   3.193   4.670   5.127  0.0774  0.3669 -0.5696
12832SOL     OW41849   0.573   0.685   4.437  0.1828  0.0779  0.0829
12832SOL    HW141850   0.574   0.785   4.436 -0.3401  0.0751 -0.8206
12832SOL    HW241851   0.497   0.651   4.381 -0.4250 -0.8063  1.3965
12833SOL     OW41852   4.520   2.001   2.168  0.2882  0.1692  0.3085
12833SOL    HW141853   4.545   1.933   2.237 -0.7582  0.7786  1.3132
12833SOL    HW241854   4.531   2.093   2.207  0.8777  0.5623 -0.7568
12834SOL     OW41855   2.249   2.000   4.400  0.5237 -0.3227  0.2842
12834SOL    HW141856   2.267   2.059   4.479 -0.2265  0.8207 -0.3924
12834SOL    HW241857   2.318   2.017   4.330  0.1742 -0.1088 -0.0022
12835SOL     OW41858   4.048   3.765   4.744  0.2154  0.5161  0.0317
12835SOL    HW141859   4.049   3.745   4.842 -0.1321 -1.9233 -0.4354
12835SOL    HW241860   4.138   3.797   4.715 -0.2768  3.4984  1.5482
12836SOL     OW41861   2.162   1.463   1.946 -0.4967 -0.1578  0.3612
12836SOL    HW141862   2.232   1.502   1.885 -0.1458 -1.9823 -0.4422
12836SOL    HW241863   2.086   1.527   1.955  1.1081  1.7279  0.9787
12837SOL     OW41864   8.044   5.404   1.244 -0.2500 -0.0899 -0.4259
12837SOL    HW141865   8.112   5.404   1.170  0.9405  0.8469  0.6473
12837SOL    HW241866   7.985   5.484   1.235  0.7285  0.7261  0.3846
12838SOL     OW41867   6.993   8.295   5.147 -0.3281  0.3306 -0.4043
12838SOL    HW141868   6.923   8.357   5.183 -0.1558  0.0026  0.5166
12838SOL    HW241869   7.002   8.217   5.209  2.9794  1.8147  1.1510
12839SOL     OW41870   9.860   9.731   5.286 -0.4182 -0.2099 -0.5963
12839SOL    HW141871   9.793   9.717   5.213 -1.6068 -2.2550  0.8369
12839SOL    HW241872   9.830   9.683   5.369  2.0324  0.1824  0.5697
12840SOL     OW41873   5.826   0.027   1.397 -0.1594  0.2949 -0.0238
12840SOL    HW141874   5.731   0.041   1.427 -0.0703  3.2880 -0.9701
12840SOL    HW241875   5.886   0.087   1.451  0.8650  0.3349 -1.2127
12841SOL     OW41876   3.615   5.169   3.265 -0.1034 -0.1853  0.0190
12841SOL    HW141877   3.711   5.192   3.278 -0.2305  0.3096  0.0694
12841SOL    HW241878   3.560   5.206   3.340 -0.2608 -0.9302  0.2759
12842SOL     OW41879   4.100   7.288   4.309  0.0395 -0.0019 -0.3564
12842SOL    HW141880   4.068   7.194   4.320 -0.3517  0.0092 -1.4051
12842SOL    HW241881   4.042   7.336   4.244 -0.5516  1.3493  1.1305
12843SOL     OW41882   0.351   9.255   1.285  0.3469  0.3860 -0.5522
12843SOL    HW141883   0.323   9.199   1.207  0.0535 -2.3701  1.4768
12843SOL    HW241884   0.425   9.210   1.334  0.0165  1.7017  1.2177
12845SOL     OW41885   8.559   8.040   2.357  0.4531 -0.0374  0.0036
12845SOL    HW141886   8.572   8.019   2.261 -2.8087  2.5540 -1.1203
12845SOL    HW241887   8.478   7.992   2.392 -0.1216  1.3019  0.5923
12848SOL     OW41888   0.284   4.420   2.439  0.3198  0.3423  0.3358
12848SOL    HW141889   0.323   4.359   2.508 -0.0111  0.9854  1.1076
12848SOL    HW241890   0.197   4.455   2.472  0.5161  1.2424 -0.0907
12849SOL     OW41891   4.714   9.691   0.107  0.3406 -0.1857  0.4349
12849SOL    HW141892   4.734   9.769   0.167  0.3926  0.9670 -1.0580
12849SOL    HW241893   4.665   9.622   0.159  0.0163  0.9698  1.7135
12851SOL     OW41894   3.444   2.011   3.795  0.0240  0.1231 -0.3769
12851SOL    HW141895   3.499   2.083   3.839  0.9075  0.7063 -2.3919
12851SOL    HW241896   3.486   1.922   3.811 -0.1933  0.2099  0.7532
12852SOL     OW41897   8.848   7.283   0.271  0.0805 -0.1560 -0.0370
12852SOL    HW141898   8.915   7.224   0.225 -1.3062 -1.5973 -0.2351
12852SOL    HW241899   8.837   7.254   0.366 -2.4054 -1.8318 -0.7828
12853SOL     OW41900   9.863   5.663   0.386  0.1227 -0.3764 -0.4535
12853SOL    HW141901   9.853   5.567   0.359 -0.2288 -0.3771 -0.3321
12853SOL    HW241902   9.939   5.704   0.336 -0.0162 -0.5945 -0.8497
12854SOL     OW41903   9.490   6.525   4.139  0.0656  0.4888  0.6588
12854SOL    HW141904   9.412   6.493   4.193 -0.8750  0.3431 -0.7490
12854SOL    HW241905   9.566   6.462   4.148 -1.0906 -1.1094 -0.5161
12856SOL     OW41906   8.807   0.958   0.458 -0.0766 -0.4659 -0.4452
12856SOL    HW141907   8.869   0.928   0.531 -0.5559  0.7750  0.4779
12856SOL    HW241908   8.857   1.019   0.395  0.1516 -0.9996 -0.7883
12857SOL     OW41909   6.489   7.714   3.618  0.2768  0.4927  0.4997
12857SOL    HW141910   6.462   7.791   3.560 -0.5077 -0.4114 -0.3496
12857SOL    HW241911   6.578   7.734   3.660  0.1435  1.8050  0.1955
12858SOL     OW41912   3.291   3.562   2.294  0.1856 -0.0338 -0.2565
12858SOL    HW141913   3.347   3.566   2.376 -0.3213 -2.9275  0.3047
12858SOL    HW241914   3.194   3.563   2.320  0.0267 -1.3650 -0.7778
12859SOL     OW41915   2.115   3.945   4.782 -0.7037 -0.5503 -0.2189
12859SOL    HW141916   2.091   3.851   4.757 -1.4030 -0.9843  2.0184
12859SOL    HW241917   2.153   3.947   4.874  1.1043  1.1265 -0.9485
12860SOL     OW41918   2.019   6.135   2.854  0.2820  0.2859 -0.3336
12860SOL    HW141919   2.063   6.070   2.916  0.5216 -0.0179 -0.8196
12860SOL    HW241920   2.019   6.098   2.761 -1.4358  0.0572 -0.2717
12861SOL     OW41921   1.534   5.364   0.082  0.3726  0.1477  0.4340
12861SOL    HW141922   1.497   5.289   0.137  0.9519 -0.2841  0.2458
12861SOL    HW241923   1.556   5.330  -0.010  2.2561  0.1079  0.8681
12863SOL     OW41924   3.274   3.674   3.995  0.6371  0.2516  0.2135
12863SOL    HW141925   3.237   3.675   4.088 -0.8886 -1.8844 -0.3246
12863SOL    HW241926   3.359   3.621   3.994  0.6782  0.3114  0.3803
12864SOL     OW41927   4.579   2.912   0.029 -0.3431 -0.4224 -0.9440
12864SOL    HW141928   4.505   2.958  -0.020  0.3025  0.5489 -1.0204
12864SOL    HW241929   4.663   2.965   0.019 -0.1223 -0.3788  0.9471
12865SOL     OW41930   1.227   3.959   2.286 -0.0672 -0.6577 -0.9591
12865SOL    HW141931   1.233   3.870   2.331  0.4315 -0.6657 -1.0292
12865SOL    HW241932   1.204   3.946   2.189  1.7066 -0.8259 -1.3748
12867SOL     OW41933   0.128   3.878   1.266 -0.5301 -0.0343  0.4371
12867SOL    HW141934   0.115   3.780   1.255  0.7198 -0.0014 -1.6813
12867SOL    HW241935   0.119   3.923   1.177  2.9762  1.2288  0.6323
12868SOL     OW41936   8.059   2.943   2.383  0.6484  0.0475 -0.2717
12868SOL    HW141937   8.136   2.977   2.329 -0.0847  0.6047 -0.9732
12868SOL    HW241938   7.984   2.917   2.322 -0.5182  1.5091  0.5101
12869SOL     OW41939   9.755   0.301   3.760 -0.2860  0.1863  0.1075
12869SOL    HW141940   9.834   0.242   3.776 -1.0794 -1.3420 -1.4580
12869SOL    HW241941   9.777   0.394   3.788  1.5243 -0.5360  1.1608
12870SOL     OW41942   7.791   0.212   0.267  0.0955  0.1878  0.0210
12870SOL    HW141943   7.829   0.129   0.307 -0.5546  0.0437  0.3479
12870SOL    HW241944   7.865   0.273   0.239  0.6457 -1.6063 -2.6245
12871SOL     OW41945   1.757   4.311   1.041  0.1875  0.0564  0.2233
12871SOL    HW141946   1.738   4.224   1.087 -2.6677 -0.1631 -1.2294
12871SOL    HW241947   1.781   4.293   0.945 -1.6258  0.8829 -0.4097
12872SOL     OW41948   2.752   1.090   0.731  1.0559  0.5852 -0.1937
12872SOL    HW141949   2.698   1.174   0.740  1.0129  0.4019  1.2518
12872SOL    HW241950   2.691   1.012   0.716  0.8258  0.2281  2.4270
12874SOL     OW41951   1.774   6.971   1.359 -0.0087  0.5296  0.0339
12874SOL    HW141952   1.778   6.922   1.272 -3.1963 -0.2916  0.2867
12874SOL    HW241953   1.836   6.928   1.425  0.5966 -0.3477 -1.0964
12875SOL     OW41954   3.686   4.517   3.199  0.1764 -0.5061 -0.1770
12875SOL    HW141955   3.767   4.555   3.154  1.1895 -1.2334  1.0506
12875SOL    HW241956   3.604   4.553   3.153  1.1191  2.5604  0.4344
12876SOL     OW41957   3.944   6.246   0.362 -0.0025  0.1043 -0.3980
12876SOL    HW141958   3.991   6.309   0.423 -2.1001  2.4420 -1.0733
12876SOL    HW241959   3.946   6.153   0.400  2.4542  0.7145  1.0167
12877SOL     OW41960   6.865   9.774   4.759 -0.3752  0.4318  0.4363
12877SOL    HW141961   6.783   9.718   4.747 -0.9657  1.3260  0.2264
12877SOL    HW241962   6.843   9.870   4.740  0.8929  0.5799 -0.3095
12878SOL     OW41963   1.604   4.391   4.736  0.1047 -0.1770 -0.0419
12878SOL    HW141964   1.534   4.416   4.804 -0.2256 -1.6559  0.1857
12878SOL    HW241965   1.665   4.322   4.775  1.6615  1.0397 -0.2793
12879SOL     OW41966   1.519   8.904   3.200  0.2222  0.4293  0.1527
12879SOL    HW141967   1.453   8.902   3.125  0.3817  0.4082  0.0123
12879SOL    HW241968   1.611   8.891   3.164 -0.0667 -4.2183  0.8178
12880SOL     OW41969   1.573   9.192   0.463 -0.3991 -0.5335  0.2727
12880SOL    HW141970   1.479   9.224   0.449  0.1052  0.1874 -1.6959
12880SOL    HW241971   1.580   9.096   0.438 -0.5677 -0.5093  0.1291
12881SOL     OW41972   1.747   2.422   4.573  0.1614  0.1755 -0.4561
12881SOL    HW141973   1.678   2.357   4.605 -1.6293  0.6874 -3.0754
12881SOL    HW241974   1.701   2.499   4.526  2.4226  1.4077 -0.7234
12883SOL     OW41975   3.159   5.518   4.895  0.2535  0.2031 -0.4625
12883SOL    HW141976   3.075   5.551   4.938  0.4486  1.0540 -0.7211
12883SOL    HW241977   3.215   5.471   4.963 -0.3362 -0.1787 -0.2417
12884SOL     OW41978   2.081   0.146   0.070  0.4366 -0.1383 -0.6998
12884SOL    HW141979   2.126   0.057   0.070 -1.4997 -1.1799  1.2426
12884SOL    HW241980   2.054   0.170  -0.024 -0.2977 -2.2984 -1.0776
12885SOL     OW41981   6.643   0.319   3.490 -0.5198 -0.0534 -0.0191
12885SOL    HW141982   6.564   0.345   3.435 -1.4123  1.1563  1.7921
12885SOL    HW241983   6.615   0.301   3.584  1.3028  0.0422  0.5795
12886SOL     OW41984   4.974   2.976   4.899 -0.0968  0.1420  0.1089
12886SOL    HW141985   5.033   3.044   4.857  0.5688  0.4087  1.4677
12886SOL    HW241986   4.985   2.978   4.998 -0.2177 -1.7826  0.1940
12888SOL     OW41987   8.130   8.982   3.415  0.0554  0.6943 -0.2355
12888SOL    HW141988   8.111   8.923   3.336  0.0592 -0.5585  0.6812
12888SOL    HW241989   8.067   9.059   3.414  0.5613  1.1080 -1.8824
12889SOL     OW41990   0.794   9.989   2.795 -0.2819  0.2596 -0.3660
12889SOL    HW141991   0.879   9.964   2.841  0.0352 -0.0233 -1.1016
12889SOL    HW241992   0.757  10.072   2.836  2.3064  2.5284 -2.5123
12891SOL     OW41993   9.276   8.408   0.047  0.1623 -0.3116 -0.0492
12891SOL    HW141994   9.303   8.436  -0.045  0.6564  1.2547  0.5526
12891SOL    HW241995   9.355   8.413   0.108 -0.1841 -1.2595  0.4764
12892SOL     OW41996   5.420   4.192   1.262 -0.3174 -0.0005 -0.2198
12892SOL    HW141997   5.334   4.201   1.312 -0.0677  0.0090  0.2097
12892SOL    HW241998   5.417   4.248   1.179 -0.8778 -0.3150 -0.4123
12893SOL     OW41999   4.525   0.371   2.926  0.5538  0.3302  0.1367
12893SOL    HW142000   4.561   0.309   2.996 -0.9182 -0.8356 -0.1049
12893SOL    HW242001   4.500   0.318   2.844  2.6485  1.7160 -1.4698
12894SOL     OW42002   5.932   8.406   2.420 -0.6818  0.2846  0.0589
12894SOL    HW142003   5.920   8.492   2.371 -0.7673  0.3054  0.1179
12894SOL    HW242004   6.011   8.357   2.381  0.1939  1.0041  0.8947
12895SOL     OW42005   9.632   3.797   2.294  0.5268 -0.6931 -0.0285
12895SOL    HW142006   9.692   3.843   2.228  0.6841 -0.9395 -0.0577
12895SOL    HW242007   9.633   3.848   2.380  0.9692 -0.8276  0.0487
12896SOL     OW42008   3.585   5.196   1.004 -0.1719  0.1953  0.0177
12896SOL    HW142009   3.588   5.215   1.102 -0.3392 -0.6892  0.1996
12896SOL    HW242010   3.549   5.104   0.989  1.9002 -0.5247 -0.7671
12897SOL     OW42011   1.490   9.113   3.799 -0.6265  0.3757 -0.6274
12897SOL    HW142012   1.524   9.054   3.873 -0.0348  2.2619  0.6355
12897SOL    HW242013   1.494   9.063   3.713  1.8798 -0.7243  0.0770
12898SOL     OW42014   4.955   0.159   0.947  0.2583  0.1361 -0.3226
12898SOL    HW142015   4.883   0.188   0.884 -0.4493  1.4130  1.0476
12898SOL    HW242016   5.018   0.098   0.899 -1.5250 -0.7331 -1.6502
12899SOL     OW42017   2.741   8.552   2.522  0.6378  0.2009 -0.0884
12899SOL    HW142018   2.803   8.474   2.520  2.7708  1.8332  0.5952
12899SOL    HW242019   2.703   8.562   2.615 -0.5227 -0.6990 -0.4648
12900SOL     OW42020   5.916   8.579   2.235 -0.0155 -0.0783 -0.3487
12900SOL    HW142021   5.939   8.660   2.290 -0.2511 -0.2273 -0.0267
12900SOL    HW242022   5.967   8.581   2.149  2.2013 -1.0187  0.8866
12901SOL     OW42023   6.567   1.009   3.508 -0.0919 -0.2587  0.5508
12901SOL    HW142024   6.557   1.045   3.600  0.3325  0.3259  0.3766
12901SOL    HW242025   6.637   1.062   3.459  0.1120 -0.9438  0.0926
12902SOL     OW42026   0.974   6.963   3.593 -0.3473  0.0254 -0.1955
12902SOL    HW142027   1.041   6.889   3.583  0.3431  0.3913  1.6260
12902SOL    HW242028   0.890   6.926   3.633 -0.2832  0.0910 -0.0035
12903SOL     OW42029   0.722   0.794   2.510 -0.2336  0.1295 -0.2057
12903SOL    HW142030   0.781   0.774   2.431 -0.2498 -1.8576  0.2585
12903SOL    HW242031   0.669   0.712   2.533 -0.5814  0.8416  1.5710
12905SOL     OW42032   6.528   0.164   2.026 -0.2383  0.2106 -0.1210
12905SOL    HW142033   6.494   0.177   2.119 -0.6311 -0.8602 -0.1112
12905SOL    HW242034   6.604   0.100   2.027  1.1134  1.7665 -0.2845
12906SOL     OW42035   2.298   3.415   4.698 -0.3843 -0.0875  0.3382
12906SOL    HW142036   2.369   3.450   4.637 -2.0883  1.4644 -0.8246
12906SOL    HW242037   2.221   3.381   4.643 -1.7668  0.9587  1.5954
12907SOL     OW42038   1.001   1.577   2.198 -0.0212 -0.4795 -0.1525
12907SOL    HW142039   0.941   1.580   2.278  0.4258  0.3034  0.1686
12907SOL    HW242040   1.053   1.663   2.193  1.8401 -1.5614  0.1840
12908SOL     OW42041   5.338   1.084   2.843 -0.2826 -0.1437 -0.0167
12908SOL    HW142042   5.280   1.009   2.810 -1.0368 -0.9828  3.0516
12908SOL    HW242043   5.321   1.099   2.940  0.3770  3.5930 -0.3977
12911SOL     OW42044   5.089   0.730   0.353 -0.0940  0.8199 -0.0218
12911SOL    HW142045   5.063   0.733   0.257 -1.6724  1.3498  0.4052
12911SOL    HW242046   5.048   0.650   0.397 -0.0627  1.0344  0.4009
12915SOL     OW42047   2.598   4.871   5.270  0.4603 -0.3823  0.1549
12915SOL    HW142048   2.691   4.847   5.242  1.1329 -1.0478  2.8586
12915SOL    HW242049   2.552   4.790   5.306 -1.2404 -0.0819 -1.2691
12916SOL     OW42050   3.726   1.429   0.793  0.0896 -0.3254 -0.1867
12916SOL    HW142051   3.798   1.373   0.752 -0.5987 -0.1334 -1.6970
12916SOL    HW242052   3.746   1.525   0.778 -0.6521 -0.2813 -0.9001
12917SOL     OW42053   8.861   1.392   3.911  0.5091  0.3627 -0.6393
12917SOL    HW142054   8.764   1.379   3.894  0.1945 -1.6118  2.3973
12917SOL    HW242055   8.886   1.487   3.894 -1.4990  0.4823 -3.3066
12918SOL     OW42056   3.511   4.743   2.710  0.5366  0.0452 -0.2217
12918SOL    HW142057   3.595   4.691   2.722  0.3948 -0.0659  0.2862
12918SOL    HW242058   3.477   4.730   2.616  1.0665  0.0680 -0.4166
12919SOL     OW42059   2.204   4.528   1.893 -0.9120  0.4550  0.2985
12919SOL    HW142060   2.168   4.546   1.802 -1.2595  1.0282  0.5446
12919SOL    HW242061   2.145   4.572   1.962 -0.4170  0.3913  0.7690
12920SOL     OW42062   2.641   6.340   4.080  0.0204 -0.3018  0.0969
12920SOL    HW142063   2.690   6.271   4.026 -0.3466 -1.3304  1.0526
12920SOL    HW242064   2.698   6.368   4.157  0.9178  1.8373 -1.2976
12921SOL     OW42065   4.871   0.368   1.707  0.4687 -0.2081  0.2733
12921SOL    HW142066   4.804   0.314   1.758 -0.7089 -0.0035 -1.0032
12921SOL    HW242067   4.884   0.326   1.617  0.6143  0.8401 -0.1907
12922SOL     OW42068   0.698   1.294   2.814  0.2500  0.1794 -0.2751
12922SOL    HW142069   0.643   1.310   2.896  0.4748  1.5812 -0.3808
12922SOL    HW242070   0.793   1.275   2.840 -0.0316 -1.0700 -0.1432
12923SOL     OW42071   0.454   1.120   1.007 -0.0089 -0.6396 -0.2534
12923SOL    HW142072   0.367   1.074   1.022  0.2194 -1.0922 -0.2863
12923SOL    HW242073   0.494   1.146   1.095  0.1458 -1.0452 -0.2029
12924SOL     OW42074   9.055   1.153   3.108 -0.0812  0.1061  0.0775
12924SOL    HW142075   9.041   1.220   3.181 -0.9943 -0.5505  0.5273
12924SOL    HW242076   9.150   1.156   3.077  0.4998 -0.0517  1.7637
12925SOL     OW42077   3.291   4.695   4.776 -0.1962  0.0886 -0.5384
12925SOL    HW142078   3.260   4.655   4.862  1.0044 -0.0702 -0.1711
12925SOL    HW242079   3.281   4.795   4.780  1.5642  0.2309  0.4880
12926SOL     OW42080   0.609   6.120   2.303  0.1777  0.1828 -0.0673
12926SOL    HW142081   0.509   6.125   2.310  0.1975 -2.2104  2.8824
12926SOL    HW242082   0.635   6.036   2.255  0.8073 -0.1803  0.9043
12928SOL     OW42083   1.396   7.926   2.532  0.4604 -0.5494  0.0589
12928SOL    HW142084   1.298   7.925   2.551  0.5171  0.5584  0.4640
12928SOL    HW242085   1.418   7.858   2.462 -0.6247 -0.6605 -0.1726
12929SOL     OW42086   0.662   5.510   3.092 -0.0551 -0.0082 -0.0542
12929SOL    HW142087   0.617   5.596   3.114 -1.0240 -0.3385 -0.7420
12929SOL    HW242088   0.734   5.526   3.024  0.2732  0.3699  0.3764
12930SOL     OW42089   5.255   1.213   5.189  0.3815  0.2690  0.8499
12930SOL    HW142090   5.218   1.183   5.101  0.3880 -0.0749  0.9659
12930SOL    HW242091   5.187   1.199   5.261  1.0350 -1.1608  1.2079
12931SOL     OW42092   7.345   8.382   4.865 -0.2131  0.0789  0.2345
12931SOL    HW142093   7.434   8.375   4.819 -0.9090  0.1934 -1.1511
12931SOL    HW242094   7.294   8.459   4.826 -0.4977  0.6681  1.7538
12932SOL     OW42095   2.187   2.974   0.912 -0.6737  0.9327 -0.1621
12932SOL    HW142096   2.138   2.961   0.826 -0.5433  2.4944 -0.4848
12932SOL    HW242097   2.188   2.888   0.963  1.1336 -0.6425 -2.7119
12933SOL     OW42098   2.041   8.699   4.058  0.5336 -0.3496  0.5670
12933SOL    HW142099   2.036   8.615   4.111  1.4031 -0.7392  0.0344
12933SOL    HW242100   2.091   8.768   4.109 -0.8660  0.1147  1.3455
12934SOL     OW42101   0.237   4.826   1.385 -0.1631 -0.6106 -0.1034
12934SOL    HW142102   0.318   4.769   1.389 -0.1197 -0.5557 -0.1991
12934SOL    HW242103   0.237   4.891   1.460  0.7785  0.5919 -1.1237
12936SOL     OW42104   8.730   5.330   3.268  0.0345  0.0765 -0.0898
12936SOL    HW142105   8.655   5.396   3.276  0.8032  0.9127  0.2971
12936SOL    HW242106   8.761   5.327   3.173  0.4810  0.8289  0.0231
12937SOL     OW42107   2.772   9.413   3.533  0.5921  0.4052 -0.0407
12937SOL    HW142108   2.780   9.338   3.467 -0.5726 -2.1104  2.5477
12937SOL    HW242109   2.695   9.471   3.507  1.9341  1.1728 -2.4721
12938SOL     OW42110   5.498   1.804   3.709  0.4131  0.3854  0.3723
12938SOL    HW142111   5.494   1.771   3.615  0.8701 -0.5377  0.6726
12938SOL    HW242112   5.567   1.752   3.760 -0.9256 -0.1936  1.6312
12939SOL     OW42113   3.644   8.663   4.875  0.3650 -0.1281 -0.0400
12939SOL    HW142114   3.675   8.641   4.968 -1.1854  2.2164  1.0923
12939SOL    HW242115   3.695   8.741   4.840  1.3347 -1.3566 -1.4126
12940SOL     OW42116   9.475   0.406   1.381  0.1481  0.2188 -0.4071
12940SOL    HW142117   9.572   0.382   1.380  0.1440  0.1987 -2.4602
12940SOL    HW242118   9.461   0.490   1.434  1.0984 -0.4755  0.9602
12943SOL     OW42119   3.023   5.057   2.053 -0.3073 -0.0543  0.2113
12943SOL    HW142120   3.073   5.142   2.036  0.5780 -0.3693  1.2241
12943SOL    HW242121   3.038   4.994   1.977 -1.5906  0.9648 -0.9226
12945SOL     OW42122   6.271   0.972   0.749 -0.1739 -1.3653 -0.3297
12945SOL    HW142123   6.227   1.028   0.820 -0.6471 -1.2014 -0.7470
12945SOL    HW242124   6.258   1.016   0.660  0.9614 -1.2345 -0.4507
12946SOL     OW42125   4.200   4.440   5.224 -0.2696  0.0436  0.2788
12946SOL    HW142126   4.238   4.401   5.309  1.3480 -1.1671 -0.9534
12946SOL    HW242127   4.139   4.373   5.181 -0.3535  0.2890  0.0165
12948SOL     OW42128   9.652   1.404   0.371 -0.0787  0.0599 -0.3093
12948SOL    HW142129   9.691   1.412   0.463 -0.9742 -0.2978  0.1043
12948SOL    HW242130   9.558   1.437   0.371 -0.9453 -2.3130 -0.5061
12949SOL     OW42131   9.779   7.674   5.182  0.4587 -0.5373 -0.5274
12949SOL    HW142132   9.778   7.631   5.092  2.1587 -0.0164 -0.8216
12949SOL    HW242133   9.873   7.677   5.216  0.2498  2.1194 -0.1147
12951SOL     OW42134   6.226   8.484   5.180  0.4900  0.1238  0.1281
12951SOL    HW142135   6.160   8.413   5.208 -0.7988  1.1735 -0.1704
12951SOL    HW242136   6.255   8.536   5.260  0.0591  0.3954  0.1140
12952SOL     OW42137   6.725   0.745   2.086 -0.5822  0.1807 -0.0281
12952SOL    HW142138   6.745   0.653   2.052 -0.0078  0.2075  0.2369
12952SOL    HW242139   6.811   0.793   2.102 -0.8393 -0.0139  1.9774
12954SOL     OW42140   7.255   2.392   3.984  0.0563  0.0629 -0.1446
12954SOL    HW142141   7.242   2.296   4.009  0.8941  0.3319  1.3350
12954SOL    HW242142   7.318   2.397   3.907  0.6987 -0.5256  0.3377
12955SOL     OW42143   9.399   8.674   1.878 -0.2699 -0.1438  0.5398
12955SOL    HW142144   9.402   8.628   1.967 -0.4005  0.5506  0.9022
12955SOL    HW242145   9.318   8.732   1.873 -0.5094 -0.5427 -0.2112
12956SOL     OW42146   0.023   7.379   2.921  0.6589 -0.0906 -0.0383
12956SOL    HW142147   0.039   7.313   2.994  0.5589  0.9730  0.9667
12956SOL    HW242148  -0.044   7.343   2.857  0.9173 -1.1306  0.2715
12957SOL     OW42149   0.840   8.535   4.743  0.3741 -0.5674 -0.6975
12957SOL    HW142150   0.877   8.615   4.791 -2.3009  0.5628 -0.4283
12957SOL    HW242151   0.763   8.563   4.687  0.2019 -2.7732 -1.6026
12958SOL     OW42152   5.102   3.128   4.719  0.0603  0.4597 -0.4786
12958SOL    HW142153   5.072   3.223   4.726  0.8240  0.8686 -2.5146
12958SOL    HW242154   5.192   3.124   4.677  0.9694 -1.0531  1.5328
12959SOL     OW42155   9.728   9.418   4.400 -0.2157  0.2077  0.4691
12959SOL    HW142156   9.693   9.451   4.488  0.6192 -1.9294  1.6186
12959SOL    HW242157   9.822   9.449   4.388 -0.7010  1.4812 -0.2365
12960SOL     OW42158   2.020   3.222   1.492  0.5052 -0.0239  0.4598
12960SOL    HW142159   1.949   3.239   1.423  2.1582 -0.2586 -1.3557
12960SOL    HW242160   1.978   3.196   1.578 -1.6490  0.8985 -0.2840
12961SOL     OW42161   6.053   0.523   0.855 -0.2609  0.0701 -1.0784
12961SOL    HW142162   6.146   0.486   0.854  0.0972  0.9027 -0.1120
12961SOL    HW242163   6.011   0.505   0.944 -0.6569  0.5717 -1.1586
12964SOL     OW42164   8.280   4.579   4.548 -0.9441  0.2023 -0.2655
12964SOL    HW142165   8.201   4.605   4.492  0.0646  0.1587 -1.7397
12964SOL    HW242166   8.311   4.657   4.601 -2.8606 -0.1540  1.4429
12965SOL     OW42167   6.428   1.502   2.124 -0.2459 -0.2722  0.1507
12965SOL    HW142168   6.389   1.421   2.168 -0.1181 -0.7492 -0.5991
12965SOL    HW242169   6.470   1.561   2.194  1.1046 -1.6563  0.5455
12966SOL     OW42170   6.666   1.614   0.681 -0.3314  0.3188  0.0587
12966SOL    HW142171   6.688   1.712   0.679  0.1729  0.1937 -2.4281
12966SOL    HW242172   6.744   1.563   0.716 -0.4561  0.7708  1.0084
12967SOL     OW42173   5.829   9.595   4.432  0.1906  0.5124  0.0274
12967SOL    HW142174   5.804   9.526   4.364 -0.2746 -0.4405  1.1489
12967SOL    HW242175   5.805   9.686   4.399  0.1727  0.0771 -1.1704
12968SOL     OW42176   2.947   4.500   0.349 -0.2862 -0.1052 -0.7379
12968SOL    HW142177   2.953   4.402   0.371 -1.3688 -0.3002 -1.2730
12968SOL    HW242178   3.021   4.525   0.287  1.1320 -0.1606  0.9009
12969SOL     OW42179   1.232   5.660   2.914  0.1231  0.0920  0.2667
12969SOL    HW142180   1.290   5.739   2.934  1.1204 -0.3708 -0.7413
12969SOL    HW242181   1.286   5.576   2.925 -0.3673 -0.3431 -0.6315
12972SOL     OW42182   0.734   8.668   4.986  0.4343 -0.3176  0.0214
12972SOL    HW142183   0.816   8.695   4.935  0.8208  3.1291  2.2709
12972SOL    HW242184   0.761   8.630   5.074 -0.3535 -2.0003 -0.4382
12974SOL     OW42185   8.582   3.332   3.063  0.0983 -1.0044 -0.4761
12974SOL    HW142186   8.531   3.320   2.978  1.5967 -0.4878 -1.4626
12974SOL    HW242187   8.617   3.243   3.094  1.4189 -0.9077 -1.6107
12975SOL     OW42188   0.206   8.208   0.944  0.4033  0.1592 -0.1716
12975SOL    HW142189   0.302   8.192   0.920  0.0586 -1.8232 -0.3530
12975SOL    HW242190   0.174   8.292   0.899  1.8914  0.5476 -0.5378
12976SOL     OW42191   6.968   1.276   3.033  0.0116  0.7056  0.0284
12976SOL    HW142192   6.919   1.207   3.086 -0.1652  1.1850  0.4899
12976SOL    HW242193   6.999   1.349   3.093 -0.4524  1.4044 -0.5654
12977SOL     OW42194   9.974   6.691   0.338  0.0427  0.0072 -0.2107
12977SOL    HW142195   9.905   6.764   0.334  0.7275  0.5784 -1.8591
12977SOL    HW242196   9.928   6.602   0.343 -0.8717  0.2653 -3.1494
12978SOL     OW42197   7.896   3.615   4.951 -0.2607 -0.1652 -0.0250
12978SOL    HW142198   7.910   3.712   4.970  0.7698  0.1302 -2.1928
12978SOL    HW242199   7.888   3.601   4.852 -1.2268 -2.1912  0.3090
12979SOL     OW42200   7.880   5.105   4.747  0.3519  0.1266  0.4450
12979SOL    HW142201   7.953   5.091   4.680 -1.1476 -0.0768 -1.1744
12979SOL    HW242202   7.846   5.016   4.778  0.3835  0.2198  0.7521
12980SOL     OW42203   4.781   2.074   4.967  0.1342  0.2288 -0.0629
12980SOL    HW142204   4.867   2.113   4.999  0.9703 -0.9664 -0.8238
12980SOL    HW242205   4.741   2.018   5.039  2.0487 -2.5181 -1.0487
12981SOL     OW42206   9.204   1.616   4.633 -0.9290 -0.9821 -0.7624
12981SOL    HW142207   9.132   1.567   4.682 -1.0272 -1.9356 -1.8422
12981SOL    HW242208   9.213   1.579   4.540 -1.6341  1.6342 -1.9201
12982SOL     OW42209   9.640   3.527   0.592  0.4120  0.2714 -0.4960
12982SOL    HW142210   9.644   3.475   0.507  0.5431 -0.7335  0.1045
12982SOL    HW242211   9.593   3.614   0.577  1.1056  0.4367 -1.7566
12983SOL     OW42212   3.947   5.822   5.292  0.6925 -0.5001  0.1813
12983SOL    HW142213   3.975   5.729   5.268  0.4506 -0.4527 -0.2991
12983SOL    HW242214   3.882   5.819   5.368 -0.1202 -0.7943 -0.5199
12984SOL     OW42215   8.251   0.003   3.787 -0.1493  0.2255  0.0470
12984SOL    HW142216   8.346  -0.029   3.784  0.5658  2.2512  0.1168
12984SOL    HW242217   8.249   0.095   3.827 -2.4462 -0.8619  2.6034
12985SOL     OW42218   5.907   8.336   4.723 -0.1245  0.5390  0.2220
12985SOL    HW142219   5.941   8.419   4.766  0.6709 -0.0983  0.8309
12985SOL    HW242220   5.968   8.310   4.648  0.2832 -0.1640  0.8029
12986SOL     OW42221   9.092   0.131   3.541 -0.3344 -0.1886 -0.1940
12986SOL    HW142222   9.188   0.106   3.536  0.0243  1.1113 -0.0701
12986SOL    HW242223   9.077   0.215   3.489 -1.5631 -0.8415 -0.9056
12987SOL     OW42224   1.748   8.060   0.591  0.5547 -0.5893  0.0044
12987SOL    HW142225   1.648   8.060   0.599  0.4147  1.2787 -1.2387
12987SOL    HW242226   1.774   8.012   0.507  0.3891  2.6081 -1.9752
12988SOL     OW42227   7.215   1.147   3.931  0.2507  0.4379 -0.1877
12988SOL    HW142228   7.203   1.051   3.910  0.0247  0.2944  0.5897
12988SOL    HW242229   7.303   1.161   3.978  0.8195  0.7742 -1.3461
12989SOL     OW42230   4.991   8.427   0.048  0.3235 -0.0058  0.9342
12989SOL    HW142231   4.904   8.378   0.040 -0.3474  1.2203  0.5536
12989SOL    HW242232   5.045   8.412  -0.035  0.5586 -0.9064  1.2418
12990SOL     OW42233   1.154   2.499   4.035  0.2950 -0.3622  0.1657
12990SOL    HW142234   1.254   2.493   4.046  0.1815 -1.2249  0.7280
12990SOL    HW242235   1.117   2.409   4.016 -0.4135 -0.0824  0.2057
12991SOL     OW42236   4.073   9.149   3.210  0.1837 -0.0454  0.7227
12991SOL    HW142237   4.101   9.064   3.254  0.3610 -0.8427 -0.8809
12991SOL    HW242238   4.139   9.174   3.139 -1.8394 -0.6407 -1.4274
12992SOL     OW42239   2.547   3.451   2.594  0.2230 -0.5352  0.6452
12992SOL    HW142240   2.472   3.513   2.620 -0.4739 -1.8267  1.8228
12992SOL    HW242241   2.617   3.452   2.665 -0.1201 -1.5995  1.0096
12993SOL     OW42242   4.865   5.900   1.894  0.2822 -0.2672  0.5298
12993SOL    HW142243   4.802   5.862   1.961  1.6922 -1.0392  1.4349
12993SOL    HW242244   4.871   5.839   1.815  0.0637 -0.2992  0.5372
12996SOL     OW42245   2.987   6.040   4.476 -0.1743 -0.0207 -1.0345
12996SOL    HW142246   2.899   6.048   4.429 -2.0919 -1.7723  2.0518
12996SOL    HW242247   2.978   5.975   4.552  3.4985  0.6557  0.0782
12997SOL     OW42248   3.822   5.511   2.634 -0.3285  0.0826 -0.1457
12997SOL    HW142249   3.832   5.595   2.580  0.6400  1.8504  2.6904
12997SOL    HW242250   3.895   5.447   2.608  0.1650  0.9304 -0.8940
12998SOL     OW42251   2.073   5.394   1.027  1.0057 -0.1570 -1.4684
12998SOL    HW142252   2.065   5.294   1.027 -0.4565 -0.0820  1.6032
12998SOL    HW242253   2.145   5.421   1.090 -2.0359  0.8868  1.6829
12999SOL     OW42254   5.955   1.522   3.250  0.1139  0.1848  0.1918
12999SOL    HW142255   6.003   1.609   3.243 -1.8107  1.2319 -0.4577
12999SOL    HW242256   6.020   1.449   3.271  1.6485  1.8827  1.4728
13000SOL     OW42257   7.880   9.607   3.178 -0.0317  0.4789  0.4999
13000SOL    HW142258   7.796   9.661   3.185  0.1132  0.8661 -0.7061
13000SOL    HW242259   7.896   9.581   3.083  0.6430 -0.5180  0.8697
13001SOL     OW42260   2.598   9.587   0.150  0.0620  0.0143  0.1754
13001SOL    HW142261   2.626   9.499   0.190 -0.4786 -0.5064 -0.5696
13001SOL    HW242262   2.603   9.581   0.050  1.1466  1.2148  0.1536
13002SOL     OW42263   1.012   3.910   1.036  0.0212  0.1131  0.3824
13002SOL    HW142264   1.042   3.815   1.043  0.4293  0.2262  0.2047
13002SOL    HW242265   1.055   3.964   1.107  1.4126  0.5652 -0.7788
13003SOL     OW42266   5.212   1.491   2.301 -0.1989  0.4468  0.0381
13003SOL    HW142267   5.134   1.552   2.284  0.1849  0.5908 -1.2885
13003SOL    HW242268   5.196   1.439   2.384 -1.8191  0.3013 -0.3503
13004SOL     OW42269   5.209   8.896   2.332 -0.6389 -0.2545  0.0308
13004SOL    HW142270   5.284   8.857   2.385 -0.3611 -1.6846 -1.3895
13004SOL    HW242271   5.131   8.912   2.392 -0.4352 -2.1461  0.8243
13005SOL     OW42272   2.268   5.844   3.694 -0.0085 -0.2068  0.1808
13005SOL    HW142273   2.296   5.858   3.599  0.5617  2.6063  0.7368
13005SOL    HW242274   2.348   5.831   3.751 -0.3005 -0.8263  0.4561
13006SOL     OW42275   9.288   4.560   2.145 -0.2789 -0.1014 -0.2738
13006SOL    HW142276   9.284   4.487   2.077  1.5164 -1.8072  1.3857
13006SOL    HW242277   9.306   4.521   2.235  1.1363  2.4373  0.5892
13007SOL     OW42278   8.056   0.692   2.204 -0.3421 -0.4757  0.5559
13007SOL    HW142279   8.022   0.786   2.212  0.6932 -0.2383  2.3155
13007SOL    HW242280   7.978   0.628   2.202 -0.9820  0.2698  1.4301
13008SOL     OW42281   4.663   8.391   1.694 -0.0530  0.1494 -0.0497
13008SOL    HW142282   4.653   8.315   1.758 -0.4430  0.2220 -0.0239
13008SOL    HW242283   4.574   8.414   1.655  0.0581  0.6201 -0.0263
13010SOL     OW42284   6.978   7.595   2.575  0.4049 -0.2525 -0.1363
13010SOL    HW142285   6.989   7.695   2.573  1.5827 -0.3785 -0.0859
13010SOL    HW242286   7.014   7.557   2.490  1.6051 -0.7998  0.6115
13011SOL     OW42287   6.676   9.068   4.901  0.4760 -0.0577 -0.0599
13011SOL    HW142288   6.767   9.041   4.932  0.7557 -1.6252 -2.1060
13011SOL    HW242289   6.614   8.990   4.907 -0.0522  0.2624 -1.1597
13012SOL     OW42290   9.502   6.238   2.513 -0.1026  0.0572  0.0882
13012SOL    HW142291   9.510   6.317   2.573  1.4687  0.0176 -0.0583
13012SOL    HW242292   9.571   6.170   2.536  0.7996  0.2110 -1.9951
13016SOL     OW42293   7.713   4.536   0.555 -0.4012  0.6156  0.0231
13016SOL    HW142294   7.713   4.565   0.459 -0.0338 -0.2122 -0.2268
13016SOL    HW242295   7.689   4.440   0.561  1.5083  0.1422  0.5938
13017SOL     OW42296   2.483   9.030   3.186 -0.3898  0.0039  0.1924
13017SOL    HW142297   2.564   8.987   3.146  0.5622  1.3586  0.6154
13017SOL    HW242298   2.456   8.981   3.269  1.2348  0.7556  1.1828
13018SOL     OW42299   0.392   4.173   4.508 -0.1744 -0.1882 -0.1269
13018SOL    HW142300   0.426   4.134   4.594  3.0268  1.0491 -0.7719
13018SOL    HW242301   0.387   4.273   4.517 -1.0213 -0.1528 -0.9853
13019SOL     OW42302   7.015   3.035   3.484 -0.3830 -0.1034 -0.1348
13019SOL    HW142303   6.940   3.091   3.449 -0.7557 -0.0581  0.7185
13019SOL    HW242304   6.981   2.975   3.556  1.0542  2.2911  2.6332
13020SOL     OW42305   4.948   2.141   3.189 -0.3771 -0.1243 -0.0166
13020SOL    HW142306   4.923   2.228   3.145 -0.7885 -0.4439 -0.4178
13020SOL    HW242307   4.898   2.132   3.275  2.3696  1.7197  1.8666
13021SOL     OW42308   8.316   6.420   0.691  0.2763  0.1776 -0.2271
13021SOL    HW142309   8.383   6.476   0.739  0.5809 -0.0670 -0.3613
13021SOL    HW242310   8.229   6.469   0.684  0.3573  0.3766  0.2023
13022SOL     OW42311   0.664   6.593   2.242  0.5157 -0.3015 -0.1638
13022SOL    HW142312   0.592   6.543   2.289  0.2310  2.5067  2.5698
13022SOL    HW242313   0.641   6.603   2.145 -1.0054 -2.4801 -0.0542
13023SOL     OW42314   2.884   2.900   2.185 -0.4424  0.1075  0.1127
13023SOL    HW142315   2.927   2.990   2.176  1.7969 -0.9441  0.0102
13023SOL    HW242316   2.926   2.850   2.261 -2.3059 -0.5273  0.7659
13024SOL     OW42317   9.704   5.687   3.866 -0.3656  0.1116 -0.2726
13024SOL    HW142318   9.668   5.659   3.955  0.6933 -2.5099 -0.6024
13024SOL    HW242319   9.642   5.752   3.823 -1.3829  0.6357  1.9585
13025SOL     OW42320   1.122   4.451   1.600  0.2017 -0.3387  0.7139
13025SOL    HW142321   1.163   4.470   1.689  1.0653  1.2724 -0.0162
13025SOL    HW242322   1.193   4.425   1.534 -0.4834 -1.9683  0.5887
13027SOL     OW42323   7.017   9.407   2.531  0.9425 -0.1985  0.0164
13027SOL    HW142324   7.053   9.322   2.493  1.1875  0.7691 -1.9973
13027SOL    HW242325   6.944   9.441   2.471  0.5462  0.7754  1.0445
13028SOL     OW42326   2.217   6.363   4.383 -0.3362 -0.4500 -0.4865
13028SOL    HW142327   2.193   6.391   4.290  0.7536 -2.2419 -1.3381
13028SOL    HW242328   2.275   6.281   4.379 -0.7284 -0.8656  1.7881
13029SOL     OW42329   9.317   9.156   4.894 -0.0708 -0.7412 -0.2620
13029SOL    HW142330   9.340   9.084   4.960 -0.8558 -0.9998 -0.2644
13029SOL    HW242331   9.380   9.151   4.817 -0.7049 -2.0549 -0.7209
13030SOL     OW42332   8.741   1.593   4.453 -0.4670 -0.1088 -0.0811
13030SOL    HW142333   8.798   1.670   4.426  0.9888 -2.0974 -2.9097
13030SOL    HW242334   8.666   1.582   4.388 -1.0682 -0.6599  0.6910
13031SOL     OW42335   8.796   9.873   2.520  0.1704  0.4093  0.2836
13031SOL    HW142336   8.782   9.807   2.446 -1.7167 -1.1762  1.9775
13031SOL    HW242337   8.836   9.827   2.599  1.3740  1.8940  0.5617
13032SOL     OW42338   1.940   0.174   2.381 -1.1228 -0.0449  0.5575
13032SOL    HW142339   1.974   0.266   2.400 -1.0510 -0.2934  1.7034
13032SOL    HW242340   2.017   0.110   2.374 -1.1137  0.1258 -1.1601
13033SOL     OW42341   9.230   8.821   0.787  0.1169  0.3324  0.2819
13033SOL    HW142342   9.220   8.791   0.882 -2.8400 -1.5718 -0.5578
13033SOL    HW242343   9.272   8.747   0.733  0.7136  0.9698 -0.1375
13034SOL     OW42344   9.750   6.108   1.247  0.0807 -0.1423 -0.0947
13034SOL    HW142345   9.658   6.093   1.211 -0.3766  0.1314  0.9370
13034SOL    HW242346   9.748   6.105   1.347  1.4040 -1.3906 -0.0748
13035SOL     OW42347   2.616   3.664   5.117  0.3666  0.1014 -0.2054
13035SOL    HW142348   2.707   3.630   5.093 -0.0266 -1.1943  0.0839
13035SOL    HW242349   2.623   3.755   5.157  1.3579  0.7631 -1.8877
13036SOL     OW42350   9.208   8.490   4.108  0.2419 -0.4836  0.1845
13036SOL    HW142351   9.200   8.583   4.070 -0.1901 -0.7432 -0.3732
13036SOL    HW242352   9.304   8.469   4.126  0.3743 -0.0635 -0.0330
13037SOL     OW42353   5.641   1.037   4.582 -0.4489  0.4861  0.0066
13037SOL    HW142354   5.561   1.039   4.522 -0.5270 -1.0168  0.0400
13037SOL    HW242355   5.624   0.974   4.658  1.4626 -1.3261 -1.0132
13038SOL     OW42356   1.281   2.686   4.763  0.2380  0.2055 -0.8300
13038SOL    HW142357   1.334   2.646   4.688  0.2091 -0.5117 -0.4653
13038SOL    HW242358   1.272   2.620   4.837 -2.3232 -0.1534 -1.4353
13039SOL     OW42359   8.797   3.015   5.310 -0.3639 -0.3066 -0.0330
13039SOL    HW142360   8.723   2.949   5.324 -0.9140  0.3159  0.0348
13039SOL    HW242361   8.794   3.084   5.382 -0.9807  0.8840 -1.1887
13040SOL     OW42362   0.923   7.548   0.282  0.4221  0.2053 -0.3257
13040SOL    HW142363   0.950   7.600   0.200  2.3974 -1.5371 -0.8226
13040SOL    HW242364   0.943   7.451   0.268 -0.6542 -0.3259  1.6609
13041SOL     OW42365   8.131   9.876   3.371  0.0318  0.1411 -0.0538
13041SOL    HW142366   8.045   9.826   3.381 -0.7709  0.7946 -3.1070
13041SOL    HW242367   8.206   9.812   3.359 -0.2670 -0.3964  0.8843
13042SOL     OW42368   0.976   0.231   5.180 -0.4002 -0.5072  0.3163
13042SOL    HW142369   1.008   0.138   5.163 -0.2914 -0.9643  2.7715
13042SOL    HW242370   0.877   0.235   5.170 -0.8221 -1.7187  3.3256
13043SOL     OW42371   8.941   0.020   2.836 -0.1320  0.2209 -0.1387
13043SOL    HW142372   8.888  -0.060   2.863 -0.1285 -0.2279 -1.4469
13043SOL    HW242373   8.882   0.101   2.836 -0.1655  0.2016  1.0480
13044SOL     OW42374   9.016   0.493   1.702  0.1911 -0.4248  0.3902
13044SOL    HW142375   9.077   0.469   1.777 -0.0240 -0.3031  0.6062
13044SOL    HW242376   9.056   0.567   1.648  1.1302 -1.6557 -0.6348
13046SOL     OW42377   7.163   1.158   0.236  0.4505  0.3137  0.2176
13046SOL    HW142378   7.190   1.200   0.323  1.9110 -0.2920  0.0852
13046SOL    HW242379   7.141   1.229   0.170  0.0038  0.7984  0.8811
13047SOL     OW42380   1.329   9.972   2.672 -0.3319  0.4662  0.1397
13047SOL    HW142381   1.266   9.980   2.595  1.0050  0.9750 -0.9358
13047SOL    HW242382   1.313  10.046   2.737 -0.3505  1.0278 -0.5057
13048SOL     OW42383   0.751   7.567   5.040  0.0862  0.2403  0.1085
13048SOL    HW142384   0.771   7.479   4.996 -1.2882  0.3941 -0.8487
13048SOL    HW242385   0.836   7.611   5.068  0.8487 -0.8087 -0.5458
13053SOL     OW42386   1.682   7.722   5.321  0.5107  0.2471  0.3576
13053SOL    HW142387   1.684   7.822   5.317 -0.6742  0.1891 -3.1916
13053SOL    HW242388   1.589   7.689   5.307  1.0987 -1.4119  0.1814
13054SOL     OW42389   8.501   7.838   1.271 -0.5582  0.4099  0.4783
13054SOL    HW142390   8.596   7.858   1.245 -0.4360  0.4407  0.9289
13054SOL    HW242391   8.443   7.839   1.190  0.0478 -0.8869  0.0056
13055SOL     OW42392   6.739   9.727   4.466  0.2440 -0.5742  0.4647
13055SOL    HW142393   6.723   9.826   4.474  0.4326 -0.4793 -0.2787
13055SOL    HW242394   6.828   9.711   4.424  0.0545 -1.0568  0.2489
13056SOL     OW42395   5.787   8.728   4.017  0.4655 -0.3266 -0.5887
13056SOL    HW142396   5.730   8.758   3.940  0.5738 -0.8802 -0.8866
13056SOL    HW242397   5.773   8.790   4.094 -1.7695 -1.3523 -0.1208
13057SOL     OW42398   3.857   3.334   2.935  0.2107 -0.4650  0.3337
13057SOL    HW142399   3.928   3.332   3.006  0.7397 -0.0904 -0.1751
13057SOL    HW242400   3.888   3.392   2.859  0.3901 -2.2624 -0.9918
13058SOL     OW42401   8.518   5.487   2.963  0.2127 -0.0328 -0.2990
13058SOL    HW142402   8.545   5.486   3.059  0.1269 -0.2668 -0.2744
13058SOL    HW242403   8.418   5.498   2.956 -0.1320 -2.7252 -0.2563
13059SOL     OW42404   4.704   3.443   0.868  0.0788  0.3689 -0.3566
13059SOL    HW142405   4.637   3.484   0.931  0.9158  0.9282  0.1814
13059SOL    HW242406   4.795   3.476   0.891  0.9728 -2.9080  0.9896
13060SOL     OW42407   2.740   6.076   4.339 -0.1519 -0.0442  0.0202
13060SOL    HW142408   2.674   6.060   4.265  2.9685  0.0365 -2.8795
13060SOL    HW242409   2.764   6.173   4.341 -0.9031  0.1183  1.7743
13061SOL     OW42410   2.823   7.793   0.863  0.5694 -0.7408  0.1364
13061SOL    HW142411   2.742   7.843   0.893  1.0734  0.0837  0.1634
13061SOL    HW242412   2.864   7.840   0.785  2.0883 -0.0690  1.3092
13062SOL     OW42413   3.215   0.096   1.321  0.0844 -0.0569 -0.3156
13062SOL    HW142414   3.164   0.159   1.263 -0.2558 -0.0799 -0.0500
13062SOL    HW242415   3.281   0.045   1.266  2.5414  2.7102 -0.0389
13065SOL     OW42416   9.698   2.033   2.918  0.2727 -0.6957 -0.2450
13065SOL    HW142417   9.792   2.063   2.937 -0.1548  1.5440 -1.5328
13065SOL    HW242418   9.643   2.043   3.001  0.6020  0.2734 -0.1345
13066SOL     OW42419   4.683   3.611   3.124  0.1930 -0.1702  0.2382
13066SOL    HW142420   4.711   3.515   3.125 -0.9723 -0.5161  0.3728
13066SOL    HW242421   4.733   3.660   3.053 -0.2610 -1.2058 -0.7947
13069SOL     OW42422   1.597   1.597   0.616 -0.5862  0.2744  0.2102
13069SOL    HW142423   1.627   1.656   0.541  0.5408 -0.7680 -0.1861
13069SOL    HW242424   1.518   1.544   0.588 -1.4398  1.3919  0.4779
13070SOL     OW42425   0.775   0.797   0.526 -0.1529  0.1349  0.1221
13070SOL    HW142426   0.789   0.868   0.595 -1.1748  0.5358 -0.0717
13070SOL    HW242427   0.690   0.748   0.545  0.2592 -0.6615 -0.0695
13071SOL     OW42428   8.395   1.333   0.562 -0.1886  0.5299  0.2328
13071SOL    HW142429   8.477   1.356   0.509  1.4947 -1.7929  1.7295
13071SOL    HW242430   8.422   1.284   0.644 -3.1102  0.0177  0.9212
13072SOL     OW42431   9.880   1.456   0.233  0.1495 -0.4677 -0.2544
13072SOL    HW142432   9.858   1.483   0.139  2.4613 -1.3183 -1.0631
13072SOL    HW242433   9.795   1.434   0.282 -1.0846  0.1393 -2.0759
13073SOL     OW42434   4.405   6.997   1.406 -0.0620 -0.0037  0.7952
13073SOL    HW142435   4.332   7.062   1.388  0.5852  0.7605  0.8746
13073SOL    HW242436   4.488   7.047   1.432  1.7334 -0.5902 -3.4008
13074SOL     OW42437   1.867   0.876   4.322  0.3715 -0.1449  0.3629
13074SOL    HW142438   1.874   0.969   4.285 -0.7827 -0.6782 -1.2478
13074SOL    HW242439   1.927   0.868   4.401  1.5315  1.5761 -0.2942
13075SOL     OW42440   1.535   0.811   2.687  0.3130 -0.5466 -0.4401
13075SOL    HW142441   1.516   0.818   2.589 -0.4185 -0.8311 -0.3171
13075SOL    HW242442   1.459   0.851   2.739 -0.5012 -2.7414  0.0763
13077SOL     OW42443   4.435   1.773   4.240  0.4836 -0.4540 -0.0841
13077SOL    HW142444   4.485   1.687   4.240 -0.3323 -0.9802  2.2253
13077SOL    HW242445   4.426   1.806   4.334 -2.3442  0.2948 -0.5666
13078SOL     OW42446   0.376   5.267   4.832  0.4061  0.6544  0.5247
13078SOL    HW142447   0.384   5.177   4.875  0.2065  1.6607  2.7621
13078SOL    HW242448   0.404   5.338   4.898  0.0666  2.2696 -1.0212
13079SOL     OW42449   2.387   2.235   3.217  0.5681  0.5883 -0.5174
13079SOL    HW142450   2.356   2.147   3.180 -1.5696  1.0712  0.0737
13079SOL    HW242451   2.335   2.256   3.299  1.3601  2.2309 -0.4319
13080SOL     OW42452   0.367   7.301   4.472  0.1529 -0.3601 -0.0634
13080SOL    HW142453   0.300   7.337   4.408  0.3568 -1.6131 -0.9998
13080SOL    HW242454   0.452   7.353   4.464 -0.2137  0.2612  0.0536
13081SOL     OW42455   8.276   0.553   2.120 -0.3201 -0.1124  0.2146
13081SOL    HW142456   8.348   0.579   2.185 -0.8769  3.3397 -0.4428
13081SOL    HW242457   8.187   0.580   2.157 -0.7500  0.7536 -1.4256
13082SOL     OW42458   8.480   7.461   5.172 -0.6270  0.3200  0.1116
13082SOL    HW142459   8.497   7.555   5.202 -0.7611  0.9822 -1.7760
13082SOL    HW242460   8.400   7.425   5.219 -3.0063  2.6084 -1.9965
13083SOL     OW42461   8.863   6.981   1.991 -0.1748 -0.7903  0.6195
13083SOL    HW142462   8.934   7.033   1.943  0.3028 -0.2935  1.8353
13083SOL    HW242463   8.865   7.004   2.088 -2.8326  0.1584  0.4872
13084SOL     OW42464   0.835   4.211   0.960 -0.0592  0.1137  0.1839
13084SOL    HW142465   0.765   4.282   0.960  0.2282  0.4043  0.8846
13084SOL    HW242466   0.887   4.216   1.046 -0.7562 -1.6460  0.7233
13087SOL     OW42467   3.970   9.395   3.080  0.2216  0.0593  0.2367
13087SOL    HW142468   3.969   9.311   3.134 -3.2915  0.7080  1.2931
13087SOL    HW242469   3.987   9.373   2.984 -0.5783 -1.8287  0.5235
13088SOL     OW42470   3.138   0.033   4.967  0.4723 -0.2026  0.1036
13088SOL    HW142471   3.159  -0.043   4.905  0.3924 -0.4404  0.3646
13088SOL    HW242472   3.041   0.055   4.960  1.0777  1.8704 -2.1858
13089SOL     OW42473   2.902   5.698   4.090  0.0889  0.2387  0.3785
13089SOL    HW142474   2.876   5.651   4.175 -1.9444  0.9705  0.1818
13089SOL    HW242475   2.834   5.769   4.069  1.8295  1.6543 -0.6168
13090SOL     OW42476   2.955   0.044   4.479 -0.1645 -0.0284 -0.0568
13090SOL    HW142477   2.876   0.104   4.466 -0.1145 -0.0052 -0.2616
13090SOL    HW242478   3.037   0.100   4.491 -0.5233  0.0100  2.6460
13091SOL     OW42479   7.223   8.392   4.401  0.6638 -0.1673  0.1685
13091SOL    HW142480   7.181   8.358   4.317 -3.2060  1.1175  1.4856
13091SOL    HW242481   7.219   8.321   4.472  2.9185 -0.8576 -0.3468
13092SOL     OW42482   2.117   9.529   0.148  0.4566  0.5380 -0.2901
13092SOL    HW142483   2.034   9.581   0.128  1.1138  0.8074 -2.4037
13092SOL    HW242484   2.098   9.431   0.142  0.2039  0.5961 -0.3997
13094SOL     OW42485   4.911   0.534   3.980  0.0169 -0.5240 -0.4961
13094SOL    HW142486   4.915   0.562   3.884 -0.7838  1.7912  0.1049
13094SOL    HW242487   4.839   0.465   3.992 -0.7532  0.1300 -1.3431
13095SOL     OW42488   0.461   5.945   4.100  0.2481 -0.4565 -0.3431
13095SOL    HW142489   0.516   5.898   4.031 -0.1156 -2.2627  0.5666
13095SOL    HW242490   0.369   5.905   4.102  0.5191 -1.0132  1.7746
13096SOL     OW42491   2.905   3.354   1.561 -0.7062 -0.4148  0.0668
13096SOL    HW142492   2.914   3.419   1.636  0.9045 -0.9557  0.3632
13096SOL    HW242493   2.863   3.270   1.595  1.1945 -1.1530  0.7053
13097SOL     OW42494   8.601   5.056   2.005  0.1910  0.5612  0.4984
13097SOL    HW142495   8.623   5.137   1.950 -0.5636  1.0101  0.8491
13097SOL    HW242496   8.658   4.980   1.975  0.2553  0.9766 -0.4655
13098SOL     OW42497   9.617   7.096   0.804 -0.1018 -0.5006 -0.3433
13098SOL    HW142498   9.600   7.092   0.903  0.8686  0.1076 -0.1517
13098SOL    HW242499   9.636   7.004   0.770  1.3338 -0.4622  0.3497
13099SOL     OW42500   0.471   0.755   0.561 -0.7603  0.2110 -0.1394
13099SOL    HW142501   0.509   0.845   0.537  0.2458 -0.3666 -0.7385
13099SOL    HW242502   0.410   0.765   0.639 -0.4811  1.3915 -0.0612
13100SOL     OW42503   5.086   7.799   2.999 -0.0943 -0.2828  0.1884
13100SOL    HW142504   4.987   7.791   2.985 -0.1242 -1.3613  0.9276
13100SOL    HW242505   5.107   7.779   3.094  0.7862  0.4958  0.1561
13101SOL     OW42506   1.730   3.508   1.278  0.2524  0.4754 -0.1597
13101SOL    HW142507   1.668   3.587   1.285 -2.0279 -1.3793  1.5148
13101SOL    HW242508   1.796   3.511   1.353 -0.2161  0.5040  0.2578
13103SOL     OW42509   9.280   6.816   3.373  0.3672 -0.0574 -0.0487
13103SOL    HW142510   9.186   6.850   3.376  0.3288 -0.2253  0.9201
13103SOL    HW242511   9.302   6.774   3.461  1.9156  1.5049  0.3282
13104SOL     OW42512   0.806   0.046   0.724 -0.3351  0.4198  0.2952
13104SOL    HW142513   0.750   0.078   0.801 -0.0593 -1.6409  1.3807
13104SOL    HW242514   0.754  -0.019   0.669  0.8700 -1.3475  1.1887
13105SOL     OW42515   1.417   7.890   4.394  0.1290 -0.2957 -0.2348
13105SOL    HW142516   1.449   7.818   4.456  1.0651 -1.2603 -1.8191
13105SOL    HW242517   1.426   7.859   4.299 -0.9020  1.3271 -0.8757
13106SOL     OW42518   2.751   7.558   3.643  0.3073  0.2987 -0.1337
13106SOL    HW142519   2.714   7.528   3.731 -0.3714  1.2527 -0.0859
13106SOL    HW242520   2.698   7.635   3.609  0.4980 -0.1262 -1.4385
13107SOL     OW42521   0.572   2.989   0.445  0.2323  0.5160  0.2515
13107SOL    HW142522   0.644   2.922   0.457  0.4299  0.5593 -0.6607
13107SOL    HW242523   0.502   2.976   0.516 -0.3517 -1.4411 -0.6512
13108SOL     OW42524   1.375   1.451   1.577  0.1299  0.2538  0.3699
13108SOL    HW142525   1.385   1.548   1.601  0.4738  0.1714  0.5563
13108SOL    HW242526   1.311   1.442   1.501  0.4215  0.6622  0.0765
13109SOL     OW42527   7.708   7.799   4.876  0.3345  0.3068  0.2154
13109SOL    HW142528   7.756   7.848   4.803 -1.1555  0.1928 -0.8498
13109SOL    HW242529   7.631   7.750   4.838  1.0849 -1.9020  1.4834
13112SOL     OW42530   4.439   0.645   0.442 -0.1410  0.4111  0.0230
13112SOL    HW142531   4.533   0.656   0.410 -0.2593  0.0895 -0.4401
13112SOL    HW242532   4.406   0.732   0.480  0.0544  0.7544 -0.5891
13114SOL     OW42533   9.202   2.544   4.329  0.1448  0.1103  0.1329
13114SOL    HW142534   9.156   2.599   4.398  0.0179 -0.7949  0.7828
13114SOL    HW242535   9.280   2.496   4.370  0.6939  0.3711 -0.5874
13115SOL     OW42536   4.731   7.427   4.370  0.1897 -0.1446  0.3330
13115SOL    HW142537   4.750   7.523   4.354 -1.4464 -0.1154 -1.6594
13115SOL    HW242538   4.645   7.419   4.421 -0.6469 -0.5770 -1.1162
13116SOL     OW42539   2.096   1.149   4.034  0.3940 -0.4990  0.3827
13116SOL    HW142540   2.088   1.212   4.112 -1.1965 -0.3708  0.1384
13116SOL    HW242541   2.107   1.202   3.950 -0.3328 -0.5658  0.2459
13118SOL     OW42542   3.221   4.283   4.481  0.3564  0.2777  0.7162
13118SOL    HW142543   3.258   4.324   4.564  1.7573  2.6185 -0.9932
13118SOL    HW242544   3.297   4.259   4.419 -0.6576 -1.4782  0.1289
13119SOL     OW42545   1.406   2.741   1.885  0.2388  0.2949 -0.2707
13119SOL    HW142546   1.314   2.703   1.877 -0.1283  1.4449 -1.5926
13119SOL    HW242547   1.448   2.747   1.795  1.4018  0.3066  0.2624
13120SOL     OW42548   5.519   9.126   5.189 -0.0835  0.3379  0.1991
13120SOL    HW142549   5.567   9.146   5.275  0.1420  1.0350 -0.0856
13120SOL    HW242550   5.584   9.132   5.113 -0.4566  0.5222 -0.1042
13122SOL     OW42551   7.743   2.368   0.766 -0.0335 -0.6059 -0.5447
13122SOL    HW142552   7.829   2.377   0.815 -1.3453 -1.1302  1.9178
13122SOL    HW242553   7.693   2.454   0.770 -0.0129 -0.5568 -1.2447
13123SOL     OW42554   8.582   2.737   0.656 -0.2590  0.4886  0.7247
13123SOL    HW142555   8.491   2.774   0.639  0.4807  2.6309  1.2773
13123SOL    HW242556   8.586   2.642   0.625 -2.1834  0.8840 -0.8056
13124SOL     OW42557   3.257   5.522   3.762  0.2029 -0.2389 -0.4558
13124SOL    HW142558   3.287   5.481   3.848  0.2204 -1.1302 -0.8811
13124SOL    HW242559   3.174   5.575   3.777  0.9519  0.7261  0.3744
13125SOL     OW42560   1.057   8.415   3.060 -0.0484 -0.1440 -0.0223
13125SOL    HW142561   1.020   8.411   2.967  0.4978 -0.2348 -0.2352
13125SOL    HW242562   1.153   8.443   3.057  0.0187 -0.3116  0.5004
13126SOL     OW42563   8.462   9.935   3.418 -0.1659  0.7325 -0.2609
13126SOL    HW142564   8.413  10.019   3.396 -1.2934  0.2492  0.3570
13126SOL    HW242565   8.407   9.856   3.389  1.6779  0.2148 -2.4984
13127SOL     OW42566   2.734   5.322   3.155  0.2481  0.0497 -0.4472
13127SOL    HW142567   2.747   5.412   3.115  3.0575 -0.4275 -0.7035
13127SOL    HW242568   2.681   5.265   3.091 -2.0911  1.6496 -0.0061
13128SOL     OW42569   5.565   9.153   1.815 -0.3272 -0.2176 -0.1759
13128SOL    HW142570   5.568   9.227   1.749 -3.3299 -0.4950 -0.7074
13128SOL    HW242571   5.607   9.071   1.776 -1.2439 -0.1126 -1.3881
13129SOL     OW42572   5.616   0.264   4.476  0.1991  0.2973 -0.4414
13129SOL    HW142573   5.689   0.284   4.411  0.5954 -0.7969 -0.3373
13129SOL    HW242574   5.537   0.225   4.429  0.6171 -0.8203 -0.2329
13130SOL     OW42575   2.933   4.337   1.471 -0.0975 -0.0493  0.6817
13130SOL    HW142576   3.016   4.281   1.470  1.3998  2.1261 -0.9652
13130SOL    HW242577   2.951   4.422   1.520 -2.2419 -0.7931  2.8426
13132SOL     OW42578   6.341   9.232   5.108 -0.5417 -0.6622  0.3275
13132SOL    HW142579   6.417   9.291   5.136 -0.7098 -1.2660  2.1397
13132SOL    HW242580   6.296   9.196   5.190 -0.6149 -3.0656 -0.7479
13133SOL     OW42581   0.507   3.891   4.118 -0.5793  0.7622  0.0255
13133SOL    HW142582   0.480   3.951   4.043  0.5096  0.2520 -0.7822
13133SOL    HW242583   0.490   3.938   4.205  0.3320  2.2889 -0.5887
13134SOL     OW42584   4.949   2.433   4.761  0.3173  0.5122 -0.0633
13134SOL    HW142585   4.973   2.506   4.825  0.2148  0.7405 -0.2836
13134SOL    HW242586   5.033   2.388   4.730  0.3765  0.4884  0.1270
13135SOL     OW42587   5.612   0.583   2.977 -0.0004 -0.4015 -0.5089
13135SOL    HW142588   5.568   0.671   2.996 -1.0565 -0.8002 -1.0404
13135SOL    HW242589   5.543   0.510   2.979  0.9706 -1.3196  0.5949
13136SOL     OW42590   5.381   4.981   1.756 -0.2255 -0.3874 -0.5437
13136SOL    HW142591   5.385   4.961   1.658 -1.3240  1.3262 -0.9469
13136SOL    HW242592   5.297   4.943   1.795 -1.3485  1.6579 -0.9176
13137SOL     OW42593   9.810   3.178   2.921 -0.4139  0.4745 -0.5789
13137SOL    HW142594   9.827   3.169   2.822 -0.0372  1.4069 -0.5982
13137SOL    HW242595   9.874   3.243   2.960 -0.2111 -0.3038  0.3906
13138SOL     OW42596   9.512   9.138   1.112  0.1084  0.3836 -0.2289
13138SOL    HW142597   9.499   9.052   1.163  0.5042  0.9609  0.8650
13138SOL    HW242598   9.602   9.137   1.068 -0.5781 -0.4792 -1.6489
13139SOL     OW42599   8.588   1.133   4.911  0.1379  0.1925  0.4263
13139SOL    HW142600   8.542   1.059   4.862  0.4416  0.1840  0.1434
13139SOL    HW242601   8.521   1.197   4.947 -0.2086 -1.1129  2.1319
13140SOL     OW42602   2.533   6.883   2.067  0.2093  0.4814  0.6539
13140SOL    HW142603   2.505   6.969   2.109 -0.7232 -0.1644  1.3729
13140SOL    HW242604   2.496   6.807   2.120  0.4004 -0.3556 -0.4098
13141SOL     OW42605   3.242   5.319   0.569 -0.0987 -0.4797 -0.0781
13141SOL    HW142606   3.229   5.338   0.472 -0.9267 -1.9109 -0.2513
13141SOL    HW242607   3.309   5.245   0.581  0.0274 -0.2864  0.4476
13142SOL     OW42608   1.087   4.781   0.346 -0.4767  0.1225  0.4182
13142SOL    HW142609   1.174   4.829   0.358 -0.2636 -0.4489  1.2371
13142SOL    HW242610   1.011   4.845   0.352 -0.1091  0.6176 -0.2437
13143SOL     OW42611   3.468   9.542   2.061 -0.7542 -0.0026  0.0719
13143SOL    HW142612   3.564   9.547   2.034 -1.1163  1.0758 -1.0407
13143SOL    HW242613   3.462   9.520   2.159  0.6218  0.4852  0.2715
13144SOL     OW42614   2.521   0.523   4.384  0.4065  0.4955  0.0367
13144SOL    HW142615   2.603   0.481   4.422  0.6318  1.6284  0.8027
13144SOL    HW242616   2.469   0.453   4.333 -0.3624 -1.2768  3.1326
13146SOL     OW42617   9.356   4.291   3.399 -0.0759  0.2259  0.9780
13146SOL    HW142618   9.263   4.309   3.368 -0.6580  1.2633  3.2069
13146SOL    HW242619   9.365   4.194   3.421 -0.9659  0.3141  1.7790
13147SOL     OW42620   4.291   8.557   3.207 -0.5442  0.0846 -0.0153
13147SOL    HW142621   4.341   8.501   3.273 -0.2788  0.3377 -0.0023
13147SOL    HW242622   4.213   8.505   3.172  0.2613 -0.6546 -0.7269
13148SOL     OW42623   6.302   8.262   2.115 -0.0302  0.1833  0.3597
13148SOL    HW142624   6.242   8.189   2.082 -0.1794 -0.6447  2.3754
13148SOL    HW242625   6.389   8.222   2.144  1.0429  1.2142 -1.3385
13150SOL     OW42626   4.534   2.570   1.100 -0.1770 -0.2593 -0.3878
13150SOL    HW142627   4.511   2.666   1.109 -0.2932 -0.4222  1.2619
13150SOL    HW242628   4.616   2.550   1.155 -0.6493 -1.2600 -0.0342
13151SOL     OW42629   1.057   8.089   2.954  0.1479  0.6072  0.0630
13151SOL    HW142630   1.014   7.999   2.962  2.5895 -0.5200  0.9600
13151SOL    HW242631   0.989   8.155   2.922 -1.0875 -2.0237 -3.0047
13152SOL     OW42632   3.050   7.749   2.814  0.2249 -0.1907  0.4419
13152SOL    HW142633   3.140   7.753   2.770  0.4180  0.5899  0.8886
13152SOL    HW242634   3.006   7.839   2.809  0.0730 -0.1984  1.4526
13153SOL     OW42635   7.058   0.636   1.691 -0.0875  0.1793 -0.1654
13153SOL    HW142636   7.074   0.537   1.681  1.2069  0.2443  1.0979
13153SOL    HW242637   7.048   0.658   1.788 -2.1227  1.0539 -0.5471
13154SOL     OW42638   3.693   4.475   5.182 -0.2914  0.6294 -0.0380
13154SOL    HW142639   3.736   4.403   5.236  1.1252  0.1533 -1.7893
13154SOL    HW242640   3.746   4.560   5.190 -0.5599  0.7944  0.0050
13155SOL     OW42641   8.359   4.517   4.200 -0.1860  0.6561  0.8527
13155SOL    HW142642   8.369   4.601   4.255  0.1192  0.7445  0.6616
13155SOL    HW242643   8.339   4.440   4.261  1.3538  0.5309  1.2055
13156SOL     OW42644   6.887   1.918   3.854  0.3810  0.2500  0.3161
13156SOL    HW142645   6.809   1.959   3.809  0.0871 -0.7584 -0.0972
13156SOL    HW242646   6.970   1.969   3.830  0.0853  0.3300 -0.5434
13157SOL     OW42647   8.382   1.748   0.189  0.0785 -0.6823  0.0125
13157SOL    HW142648   8.301   1.793   0.152 -1.1109 -0.2628  2.9242
13157SOL    HW242649   8.383   1.651   0.163 -0.8884 -0.4727 -0.7772
13159SOL     OW42650   2.199   1.104   0.246  0.5017  0.1971  0.6357
13159SOL    HW142651   2.216   1.062   0.157  1.1511  4.2818 -1.2810
13159SOL    HW242652   2.101   1.104   0.265  0.3161 -0.2625 -0.3211
13160SOL     OW42653   2.261   8.354   4.570 -0.3254  0.1128 -0.0100
13160SOL    HW142654   2.251   8.316   4.662 -0.2031  0.2183  0.0462
13160SOL    HW242655   2.201   8.433   4.560 -0.3540  0.0896 -0.0274
13161SOL     OW42656   3.741   5.153   0.051  0.3880  0.3800 -0.2821
13161SOL    HW142657   3.821   5.172   0.108 -0.0256  1.1945  0.0406
13161SOL    HW242658   3.749   5.204  -0.035  0.4254  0.1118 -0.4383
13162SOL     OW42659   0.227   1.844   2.755  0.7841  0.2552 -0.3311
13162SOL    HW142660   0.217   1.797   2.843  2.0252  0.5144 -0.0453
13162SOL    HW242661   0.283   1.789   2.693 -2.0388 -1.0423 -1.8153
13163SOL     OW42662   7.066   0.806   4.152  0.0874  0.4964 -0.0211
13163SOL    HW142663   7.100   0.893   4.188 -0.0100  0.2889  0.5791
13163SOL    HW242664   6.979   0.784   4.196  0.1218  0.0907 -0.1580
13164SOL     OW42665   2.287   2.847   2.999  0.2161 -0.0217  0.4696
13164SOL    HW142666   2.222   2.906   3.047  0.2688  1.8294 -1.6643
13164SOL    HW242667   2.328   2.782   3.064 -3.5294 -1.0728  1.9133
13166SOL     OW42668   1.614   3.137   0.793  0.3345 -0.3762  0.0933
13166SOL    HW142669   1.606   3.235   0.776  2.1107 -0.5330 -1.8237
13166SOL    HW242670   1.640   3.122   0.888 -1.0879  0.9443  0.7129
13167SOL     OW42671   2.861   0.423   1.463  0.4239  0.1059 -0.6638
13167SOL    HW142672   2.935   0.379   1.513  0.4610  0.5042 -0.3660
13167SOL    HW242673   2.800   0.353   1.425  2.2037 -0.3278 -2.8461
13168SOL     OW42674   3.215   4.252   1.196 -0.3226  0.3189  0.0662
13168SOL    HW142675   3.217   4.337   1.250  0.3720  1.2315 -1.3665
13168SOL    HW242676   3.256   4.178   1.250  0.6252  1.2793  0.6948
13169SOL     OW42677   4.518   8.730   0.134  0.1630  0.8643  0.8465
13169SOL    HW142678   4.549   8.723   0.039 -3.3927 -0.2678 -0.2716
13169SOL    HW242679   4.557   8.655   0.188  0.5812  0.3761 -0.1345
13170SOL     OW42680   0.428   0.249   1.131 -0.0575 -0.3190 -0.6146
13170SOL    HW142681   0.372   0.262   1.212  0.2645  0.8044 -0.5600
13170SOL    HW242682   0.521   0.281   1.149  0.5921 -2.0688 -0.7353
13171SOL     OW42683   3.647   6.006   0.188 -0.2852 -0.0922  0.6145
13171SOL    HW142684   3.667   6.038   0.096  1.2414 -1.0225  0.6083
13171SOL    HW242685   3.642   6.084   0.251 -1.6298  0.5717 -0.2804
13173SOL     OW42686   9.593   3.520   4.843  0.1046  0.0485 -0.2035
13173SOL    HW142687   9.648   3.468   4.777  1.5922 -0.9712  1.7691
13173SOL    HW242688   9.605   3.618   4.826 -1.9416 -0.1582 -3.3295
13175SOL     OW42689   3.233   1.205   4.020  0.5085  0.1270  0.6646
13175SOL    HW142690   3.205   1.224   4.115  1.4226  0.6166  0.8405
13175SOL    HW242691   3.309   1.265   3.995  1.0216 -0.7939 -0.0039
13177SOL     OW42692   4.879   8.553   1.751  0.6106  0.0251 -0.2158
13177SOL    HW142693   4.787   8.519   1.732  0.5447  0.4190 -0.6168
13177SOL    HW242694   4.932   8.482   1.796 -0.0976  0.0211  0.6335
13179SOL     OW42695   2.227   0.628   0.674 -0.1092 -0.3798 -0.1891
13179SOL    HW142696   2.205   0.550   0.615  2.0838 -1.2590  0.1102
13179SOL    HW242697   2.184   0.617   0.763 -2.9394  0.6512 -1.3934
13180SOL     OW42698   4.429   5.692   1.749  0.4048  0.0804 -0.3021
13180SOL    HW142699   4.414   5.755   1.825 -0.2747 -0.7084  0.2350
13180SOL    HW242700   4.509   5.636   1.768  0.6517  0.3674 -0.4958
13181SOL     OW42701   0.817   2.182   3.887  0.4236 -0.6180  0.0158
13181SOL    HW142702   0.795   2.267   3.839 -0.8321 -0.1692  1.3186
13181SOL    HW242703   0.738   2.155   3.943  1.8073 -1.1695  1.7278
13182SOL     OW42704   0.456   5.369   3.697 -0.4676  0.6120 -0.1983
13182SOL    HW142705   0.460   5.466   3.676  1.0307  0.2796 -1.5935
13182SOL    HW242706   0.407   5.321   3.625 -1.7758  0.4035  0.8134
13183SOL     OW42707   1.327   6.868   4.496 -0.1917 -0.1801 -0.3645
13183SOL    HW142708   1.352   6.836   4.588 -1.3787  0.5968  0.2544
13183SOL    HW242709   1.263   6.945   4.505  1.3244  1.2953 -1.8226
13184SOL     OW42710   6.050   1.109   3.201  0.2188  0.6553  0.1563
13184SOL    HW142711   6.109   1.179   3.162 -0.9329  0.5898 -1.7868
13184SOL    HW242712   5.987   1.075   3.130 -0.6896 -0.7956  1.6144
13185SOL     OW42713   4.980   0.201   5.041  0.4112 -0.1780  0.1082
13185SOL    HW142714   4.924   0.283   5.037  0.2803 -0.2798 -0.1121
13185SOL    HW242715   5.005   0.172   4.949  2.7337  1.1684  0.2851
13186SOL     OW42716   8.951   3.199   1.540 -0.5602 -0.8633 -0.3303
13186SOL    HW142717   8.971   3.161   1.450 -0.9406 -0.5672 -0.5356
13186SOL    HW242718   8.874   3.261   1.535  2.3651  2.9198 -0.7290
13188SOL     OW42719   0.204   3.441   3.265  0.4518 -0.3794  0.4106
13188SOL    HW142720   0.208   3.380   3.186 -0.0899 -1.2736  1.0544
13188SOL    HW242721   0.153   3.524   3.242  0.0552 -0.7631 -0.0903
13189SOL     OW42722   0.819   6.186   1.556  0.7473  0.1829  0.5525
13189SOL    HW142723   0.863   6.098   1.571  0.3247 -0.0668  0.3343
13189SOL    HW242724   0.720   6.173   1.548  1.0163  0.1191 -3.6260
13191SOL     OW42725   2.209   9.359   4.451 -0.6239 -0.1616 -0.0394
13191SOL    HW142726   2.158   9.443   4.428 -1.5854 -0.7772 -0.1779
13191SOL    HW242727   2.145   9.285   4.467  0.2668 -1.2044 -1.2051
13192SOL     OW42728   2.200   3.583   2.957 -0.1051 -0.1568  0.1025
13192SOL    HW142729   2.109   3.602   2.996  0.2018  1.2613  0.1711
13192SOL    HW242730   2.194   3.584   2.858 -0.7718 -3.1813  0.0827
13193SOL     OW42731   2.994   8.697   5.301  0.6980 -0.0690 -0.2956
13193SOL    HW142732   3.068   8.692   5.234 -0.5040  0.0578 -1.6755
13193SOL    HW242733   3.016   8.765   5.371  2.1351 -0.4631 -0.3489
13196SOL     OW42734   1.626   0.713   3.880  0.0618 -0.1484  0.1596
13196SOL    HW142735   1.562   0.676   3.948 -0.3961  1.4225  0.6066
13196SOL    HW242736   1.704   0.753   3.927  0.1985  0.1140 -0.2908
13197SOL     OW42737   0.375   2.148   1.664 -0.6177 -0.4320 -0.3791
13197SOL    HW142738   0.311   2.208   1.711  0.4242  0.7577 -0.4489
13197SOL    HW242739   0.447   2.120   1.728  0.3877  0.5812 -1.0688
13198SOL     OW42740   6.526   0.565   2.490 -0.0713 -0.3249  0.1134
13198SOL    HW142741   6.555   0.613   2.407 -1.8113 -0.4760 -0.5891
13198SOL    HW242742   6.577   0.602   2.568  2.2038 -0.7755 -1.1054
13199SOL     OW42743   9.006   7.638   5.155 -0.1274  0.3337  0.1766
13199SOL    HW142744   8.955   7.555   5.130  1.2342 -0.5074  0.1514
13199SOL    HW242745   8.963   7.717   5.112  0.4954 -0.7462 -2.5722
13200SOL     OW42746   7.508   7.481   4.228  0.0437  0.3754  0.0619
13200SOL    HW142747   7.445   7.519   4.160  0.8944 -0.2965 -1.1261
13200SOL    HW242748   7.523   7.384   4.208 -0.9695 -0.2310  2.1898
13201SOL     OW42749   4.721   4.354   0.339  0.5267  0.0154  0.1654
13201SOL    HW142750   4.673   4.359   0.251  0.6821  1.6336  0.1499
13201SOL    HW242751   4.656   4.374   0.413  0.3754 -1.4382  0.4289
13202SOL     OW42752   7.579   1.190   3.820 -0.5232  0.0151  0.2622
13202SOL    HW142753   7.603   1.096   3.846 -1.0895 -0.5731 -1.2840
13202SOL    HW242754   7.548   1.240   3.901  0.6063 -0.8636  1.2627
13203SOL     OW42755   2.257   4.326   4.703  0.2353 -0.1792 -0.1210
13203SOL    HW142756   2.171   4.278   4.686  0.7114 -0.7108 -1.0719
13203SOL    HW242757   2.272   4.395   4.633  1.0192 -0.7012 -0.4755
13205SOL     OW42758   1.217   3.628   3.102 -0.2214  0.0744 -0.3707
13205SOL    HW142759   1.161   3.699   3.146  0.1971  1.6016 -2.2062
13205SOL    HW242760   1.175   3.603   3.015  1.9419  1.3213 -1.8293
13207SOL     OW42761   1.734   4.505   4.173 -0.7233  0.0420  0.1568
13207SOL    HW142762   1.774   4.591   4.142 -1.4059  0.6415  0.9208
13207SOL    HW242763   1.744   4.498   4.273 -1.0788 -0.5416  0.1513
13208SOL     OW42764   5.104   9.444   5.088  0.2763  0.3287 -0.0852
13208SOL    HW142765   5.166   9.512   5.128  1.8445 -1.1421  0.0220
13208SOL    HW242766   5.033   9.491   5.037  2.2053  2.0445 -1.2862
13209SOL     OW42767   0.894   0.404   3.810 -0.5159  0.4915 -0.0879
13209SOL    HW142768   0.992   0.422   3.822 -0.0193 -2.2640  0.4792
13209SOL    HW242769   0.850   0.482   3.766  2.0739  1.4943 -0.9782
13210SOL     OW42770   9.441   1.928   4.804 -0.0370  0.0096  0.1913
13210SOL    HW142771   9.434   1.942   4.903  0.6502  1.5764  0.0354
13210SOL    HW242772   9.471   1.834   4.786  0.4836 -0.0925  1.4959
13211SOL     OW42773   1.545   6.604   4.571 -0.1102 -0.3320 -0.1062
13211SOL    HW142774   1.526   6.511   4.541  0.3518 -0.5003  0.1304
13211SOL    HW242775   1.637   6.630   4.544 -0.4595  0.2825 -0.7394
13212SOL     OW42776   1.936   5.752   0.424  0.3029  0.1259 -0.4321
13212SOL    HW142777   1.979   5.662   0.431  0.8707  0.3042 -1.5289
13212SOL    HW242778   1.870   5.763   0.498 -1.0756 -1.8970 -1.3232
13213SOL     OW42779   2.280   3.179   1.078  0.3171  0.2296 -0.6134
13213SOL    HW142780   2.252   3.262   1.030 -1.3036 -0.1842 -0.4270
13213SOL    HW242781   2.251   3.099   1.025 -0.6285 -0.2244  0.5886
13215SOL     OW42782   3.111   0.749   0.959  0.3194 -0.3177  0.6988
13215SOL    HW142783   3.016   0.764   0.932  1.0934  1.3018 -1.2290
13215SOL    HW242784   3.132   0.651   0.954 -1.0544 -0.6047  0.4760
13216SOL     OW42785   9.644   3.324   1.777 -0.2545 -0.4995  0.2667
13216SOL    HW142786   9.609   3.391   1.711  0.3230 -1.4995 -1.0807
13216SOL    HW242787   9.602   3.235   1.759  2.0696 -1.4640 -0.6488
13217SOL     OW42788   4.820   3.511   1.658 -0.5899  0.1445  0.0902
13217SOL    HW142789   4.791   3.550   1.745 -1.9450  0.4534 -0.4880
13217SOL    HW242790   4.838   3.413   1.670 -3.3624 -0.3960  0.1480
13218SOL     OW42791   8.855   0.025   1.181 -0.0421  0.2341 -0.4229
13218SOL    HW142792   8.867  -0.049   1.247  1.8118 -0.6905 -1.7863
13218SOL    HW242793   8.841   0.111   1.230  1.2428 -0.4569  1.1814
13219SOL     OW42794   2.323   9.237   4.221 -0.0058 -0.0344  0.3991
13219SOL    HW142795   2.279   9.252   4.309 -0.8442 -0.6431  0.0950
13219SOL    HW242796   2.300   9.311   4.158  1.4962  0.9862  1.0172
13220SOL     OW42797   2.192   5.736   0.250  0.3514  0.0489 -0.0302
13220SOL    HW142798   2.197   5.802   0.175 -0.8659  0.1693 -0.0083
13220SOL    HW242799   2.107   5.749   0.301  0.9747 -0.3075  1.1189
13221SOL     OW42800   8.936   2.417   1.238  0.0211  0.2562 -0.2174
13221SOL    HW142801   8.985   2.494   1.197  1.4049  0.1910  1.2593
13221SOL    HW242802   8.893   2.447   1.323 -0.0301 -0.4286 -0.0046
13222SOL     OW42803   1.826   6.615   4.152 -0.1012 -0.0859  0.2795
13222SOL    HW142804   1.763   6.613   4.073 -0.9408 -1.6061  0.9689
13222SOL    HW242805   1.885   6.535   4.149  0.1168  0.0492  1.0043
13223SOL     OW42806   3.598   7.258   3.795  0.5034  0.2701  0.2812
13223SOL    HW142807   3.543   7.320   3.738  1.0966  0.4542 -0.1024
13223SOL    HW242808   3.607   7.296   3.887  0.0903  0.2996  0.3071
13224SOL     OW42809   1.456   1.113   2.524 -0.6671  0.2825  0.3531
13224SOL    HW142810   1.489   1.098   2.431 -0.5975 -2.5728  0.8092
13224SOL    HW242811   1.511   1.184   2.568  2.3375 -1.5706 -0.2439
13225SOL     OW42812   9.288   8.172   3.630 -0.3897  0.1477  0.5569
13225SOL    HW142813   9.256   8.227   3.707 -0.2279  0.4513  0.4131
13225SOL    HW242814   9.382   8.199   3.608 -0.2750 -0.2617  0.5526
13226SOL     OW42815   9.237   8.243   0.453 -0.1453 -0.0762  0.3847
13226SOL    HW142816   9.142   8.220   0.469  0.4581 -1.9166  1.4207
13226SOL    HW242817   9.253   8.339   0.478 -1.4445 -0.1064  1.3633
13227SOL     OW42818   4.581   6.905   3.296 -0.1730  0.1750  0.4435
13227SOL    HW142819   4.610   6.922   3.391 -2.3671 -0.0027  1.1699
13227SOL    HW242820   4.507   6.838   3.296  0.2031 -0.2457 -1.4608
13228SOL     OW42821   3.678   0.075   1.253 -0.5810  0.0467 -0.4659
13228SOL    HW142822   3.681   0.071   1.353 -1.9304  0.2952 -0.4059
13228SOL    HW242823   3.718  -0.009   1.215  0.3867  0.1710  0.2656
13230SOL     OW42824   3.725   4.318   4.935  0.1665  0.2907  0.3334
13230SOL    HW142825   3.727   4.385   5.010  0.1069  0.3069  0.3205
13230SOL    HW242826   3.691   4.362   4.852 -2.8506 -0.5334  1.0695
13233SOL     OW42827   9.002   3.174   2.167  0.1395 -0.5656 -0.4016
13233SOL    HW142828   9.087   3.121   2.170 -0.2962 -1.2031  0.7351
13233SOL    HW242829   8.962   3.178   2.258 -1.5348 -1.0615 -1.1104
13234SOL     OW42830   4.177   2.688   3.590 -0.3513  0.7337 -0.6841
13234SOL    HW142831   4.245   2.650   3.528  0.7986 -0.6540  1.3554
13234SOL    HW242832   4.094   2.633   3.586  0.5531 -0.7680  0.6893
13235SOL     OW42833   4.060   1.970   0.717  0.2148  0.6356 -0.8005
13235SOL    HW142834   4.052   1.876   0.685 -2.5486  0.9984 -1.2455
13235SOL    HW242835   4.156   1.989   0.739  0.8057 -2.2630 -0.6831
13236SOL     OW42836   4.705   1.889   5.165 -0.2849  0.5579  0.2378
13236SOL    HW142837   4.705   1.906   5.263  0.4444 -0.1368  0.3603
13236SOL    HW242838   4.727   1.793   5.147 -2.2642  0.2201 -0.5288
13241SOL     OW42839   8.029   8.425   4.401 -0.0102  0.3059 -0.3424
13241SOL    HW142840   7.986   8.354   4.456 -0.7318  0.7186 -0.3577
13241SOL    HW242841   8.121   8.444   4.435 -0.4949  0.6364  0.7959
13242SOL     OW42842   6.195   9.632   1.647  0.8935  0.0591  0.8036
13242SOL    HW142843   6.180   9.721   1.605 -1.9358 -1.7691 -2.2644
13242SOL    HW242844   6.137   9.624   1.729 -3.5696 -1.0945 -2.2828
13243SOL     OW42845   0.810   4.461   5.034  0.0787 -0.2263 -0.0248
13243SOL    HW142846   0.800   4.366   5.006 -1.5827 -0.1352  0.2267
13243SOL    HW242847   0.895   4.472   5.085  0.1268 -1.6289  0.2060
13245SOL     OW42848   4.234   2.069   3.536 -0.2625  0.2948 -0.0694
13245SOL    HW142849   4.229   2.029   3.445 -0.9431  0.4735 -0.1157
13245SOL    HW242850   4.249   2.167   3.529 -0.2534  0.2992  0.0064
13246SOL     OW42851   5.975   1.037   0.767 -0.3449 -0.1261  0.3188
13246SOL    HW142852   5.994   1.020   0.670  0.7421  1.6770  0.1754
13246SOL    HW242853   6.006   0.960   0.821 -2.2315 -1.7671 -0.8817
13247SOL     OW42854   3.560   5.595   5.142  0.1242  0.2731  0.2342
13247SOL    HW142855   3.640   5.574   5.085 -0.4489 -0.7252 -0.2176
13247SOL    HW242856   3.524   5.685   5.116  1.7914  1.2508  1.2473
13248SOL     OW42857   1.225   2.364   0.186 -0.3995  0.6792  0.1316
13248SOL    HW142858   1.259   2.419   0.263 -0.2656  1.1430 -0.2568
13248SOL    HW242859   1.155   2.416   0.137 -0.3136  0.4780 -0.2038
13249SOL     OW42860   3.262   0.636   2.715 -0.0244  0.5309  0.4415
13249SOL    HW142861   3.360   0.645   2.698 -0.3020  0.2640 -1.3479
13249SOL    HW242862   3.227   0.720   2.756  1.0630  0.4025  1.6629
13250SOL     OW42863   1.350   4.222   0.880  0.1304 -0.6032  0.1141
13250SOL    HW142864   1.420   4.218   0.809 -1.3462  1.5802 -1.5139
13250SOL    HW242865   1.274   4.161   0.856 -0.6098  0.5374 -0.4537
13252SOL     OW42866   8.508   1.855   4.705 -0.3591  0.3793  0.0237
13252SOL    HW142867   8.556   1.935   4.671  0.5373 -0.4787 -0.7782
13252SOL    HW242868   8.476   1.800   4.628 -0.6228 -0.2253  0.5584
13255SOL     OW42869   1.109   9.127   4.849 -0.5372 -0.5751  0.1403
13255SOL    HW142870   1.199   9.097   4.880 -0.3596  0.0559  0.2530
13255SOL    HW242871   1.110   9.140   4.750 -0.0191  1.0349  0.3431
13256SOL     OW42872   2.326   8.125   0.775  0.6839  0.1178  0.1710
13256SOL    HW142873   2.299   8.139   0.680  0.5560  1.2577  0.3652
13256SOL    HW242874   2.261   8.171   0.835  0.5219 -0.9571  0.8356
13257SOL     OW42875   9.522   3.294   0.722 -0.4168 -0.0907  0.1315
13257SOL    HW142876   9.598   3.330   0.668 -1.9124  1.3024 -1.0896
13257SOL    HW242877   9.507   3.353   0.802 -0.7965  0.1482 -0.1167
13258SOL     OW42878   9.021   8.575   3.757 -0.0404 -0.3113 -0.4721
13258SOL    HW142879   8.940   8.517   3.757 -0.1035 -0.2304 -1.4166
13258SOL    HW242880   9.025   8.627   3.842 -1.9068  0.9938 -1.1584
13259SOL     OW42881   7.317   5.001   0.179  0.3509 -0.7139 -0.3479
13259SOL    HW142882   7.395   5.059   0.154  0.0132  0.1552  0.5846
13259SOL    HW242883   7.346   4.934   0.248  0.8213 -1.8801 -1.6638
13260SOL     OW42884   7.864   8.157   5.197 -0.0504 -0.0502 -0.2960
13260SOL    HW142885   7.766   8.150   5.182 -0.2274  0.2738  0.6419
13260SOL    HW242886   7.913   8.113   5.123 -0.9345 -1.3266 -0.1280
13261SOL     OW42887   0.489   8.219   0.818 -0.3061 -0.6821  0.4392
13261SOL    HW142888   0.535   8.295   0.772  1.1667 -0.2165  2.5951
13261SOL    HW242889   0.465   8.149   0.751 -0.9283  1.3000 -1.4614
13262SOL     OW42890   5.645   4.930   1.192  0.2458  0.1115  0.0172
13262SOL    HW142891   5.604   4.849   1.150  0.0431  0.4959 -0.5355
13262SOL    HW242892   5.744   4.923   1.189  0.2486  0.6328 -1.5207
13263SOL     OW42893   4.821   2.549   4.203  0.1464  0.2397 -0.1465
13263SOL    HW142894   4.834   2.639   4.163 -0.4038  0.2468 -0.3219
13263SOL    HW242895   4.903   2.522   4.253  0.2193  0.9461  0.1245
13265SOL     OW42896   9.961   2.288   0.598 -0.5179 -0.9873  0.2494
13265SOL    HW142897   9.878   2.245   0.563 -0.0915 -0.1049 -1.9348
13265SOL    HW242898   9.955   2.387   0.585  0.4463 -0.8230  1.0249
13266SOL     OW42899   0.066   0.448   0.975  0.1677  0.6358 -0.6669
13266SOL    HW142900   0.028   0.361   1.006  1.9367  0.0482 -0.0919
13266SOL    HW242901   0.140   0.431   0.911  1.7288  1.6422  0.8160
13267SOL     OW42902   6.977   0.527   4.749 -0.1164  0.4481  0.3255
13267SOL    HW142903   6.882   0.501   4.765 -0.1781 -0.2555 -1.0945
13267SOL    HW242904   6.984   0.626   4.745 -0.9926  0.4846 -0.6871
13269SOL     OW42905   8.669   0.211   3.486 -0.0940 -0.2626  0.1485
13269SOL    HW142906   8.724   0.232   3.405 -0.3969 -0.3187 -0.0680
13269SOL    HW242907   8.657   0.112   3.493 -3.1960 -0.0696 -1.7809
13270SOL     OW42908   3.609   1.496   5.087 -0.2112 -0.3835  0.0211
13270SOL    HW142909   3.514   1.473   5.106  0.2646 -1.7810  0.7592
13270SOL    HW242910   3.669   1.451   5.153  1.0630 -0.5739 -1.2192
13271SOL     OW42911   0.356   8.465   0.097  0.4502 -0.3066  0.1064
13271SOL    HW142912   0.424   8.419   0.153 -0.2122 -0.4409  0.8084
13271SOL    HW242913   0.308   8.397   0.041  1.2004 -0.1581 -0.7294
13272SOL     OW42914   4.276   9.428   1.295 -0.3330 -0.1078  0.3675
13272SOL    HW142915   4.283   9.486   1.376 -0.4264  1.8137 -0.9896
13272SOL    HW242916   4.257   9.484   1.215  1.2896 -1.8265 -1.2573
13273SOL     OW42917   8.028   9.020   2.228  0.0041 -0.6193  0.1087
13273SOL    HW142918   7.966   8.970   2.167  0.5169 -0.8512 -0.2267
13273SOL    HW242919   8.120   8.984   2.218  0.3197  0.1866  0.1021
13274SOL     OW42920   3.665   9.303   4.346 -0.1244 -0.3692 -0.2395
13274SOL    HW142921   3.632   9.254   4.265  0.3947  2.6025 -2.3628
13274SOL    HW242922   3.765   9.299   4.348 -0.2175 -2.7052  1.8129
13275SOL     OW42923   2.063   6.841   0.548  0.0030  0.3525 -0.4659
13275SOL    HW142924   1.964   6.850   0.543  0.2089  2.6540 -1.0711
13275SOL    HW242925   2.092   6.847   0.644 -0.3981  0.2981 -0.3416
13276SOL     OW42926   7.323   0.494   3.614  0.0882 -0.2505  0.3396
13276SOL    HW142927   7.257   0.521   3.684  0.7179 -0.8182  1.1679
13276SOL    HW242928   7.408   0.465   3.658  0.5316 -0.5196 -0.6710
13277SOL     OW42929   1.397   8.183   1.409 -0.4911  0.6657  0.4439
13277SOL    HW142930   1.384   8.267   1.462 -0.9144  0.3269  0.8795
13277SOL    HW242931   1.448   8.204   1.326 -2.2125  1.7067 -0.3933
13278SOL     OW42932   6.511   0.238   0.992  0.3916  0.3670  0.5050
13278SOL    HW142933   6.525   0.311   0.924  0.3615 -1.6300 -1.6951
13278SOL    HW242934   6.451   0.272   1.064 -0.3538  2.2529 -0.9434
13279SOL     OW42935   6.854   1.886   0.615  0.3436 -0.1980 -0.2129
13279SOL    HW142936   6.770   1.869   0.564  0.8346  0.0872 -1.1254
13279SOL    HW242937   6.841   1.965   0.676 -0.9805 -1.9328  1.8446
13282SOL     OW42938   4.581   4.790   1.627  0.6335  0.3610 -0.4274
13282SOL    HW142939   4.529   4.706   1.612  0.4214  0.5227 -0.6142
13282SOL    HW242940   4.519   4.868   1.623  0.4130  0.3675  2.1850
13283SOL     OW42941   2.639   9.111   3.702  0.4227  0.1400 -0.0705
13283SOL    HW142942   2.585   9.186   3.740 -1.0126 -0.4309 -0.9638
13283SOL    HW242943   2.669   9.135   3.609  0.0492 -0.3606 -0.3177
13284SOL     OW42944   8.204   6.444   4.421  0.2397 -0.1540  0.5753
13284SOL    HW142945   8.197   6.345   4.437  0.1770 -0.5147 -1.4821
13284SOL    HW242946   8.300   6.470   4.413  0.1927 -0.5083 -1.3849
13286SOL     OW42947   5.074   1.930   4.407  0.3692 -0.1280 -0.2878
13286SOL    HW142948   5.082   2.004   4.339  2.3239  0.7925  0.8934
13286SOL    HW242949   5.041   1.968   4.493 -0.0040 -0.9034 -0.0879
13287SOL     OW42950   1.487   8.731   1.044  0.1362 -0.0685  0.3183
13287SOL    HW142951   1.550   8.681   1.104  0.2771  0.5804  0.7145
13287SOL    HW242952   1.525   8.736   0.952  1.0681  1.0598  0.7532
13288SOL     OW42953   0.192   1.638   4.899 -0.1510 -0.2656 -0.1674
13288SOL    HW142954   0.116   1.672   4.844  0.3272 -1.6304 -1.6709
13288SOL    HW242955   0.220   1.709   4.964 -0.8651  1.2699 -1.5140
13290SOL     OW42956   6.205   8.793   3.322 -0.1180 -0.0095 -0.1208
13290SOL    HW142957   6.147   8.720   3.358 -0.0648  0.5538  1.1312
13290SOL    HW242958   6.295   8.755   3.297  0.2391 -0.2045  1.4166
13291SOL     OW42959   2.125   6.675   5.080  0.1468  0.3680  0.2093
13291SOL    HW142960   2.034   6.666   5.121  0.9530  0.7557  2.1612
13291SOL    HW242961   2.185   6.604   5.117  0.8107  0.5409 -0.5419
13292SOL     OW42962   2.908   8.866   3.598 -1.1049  0.4698 -0.0001
13292SOL    HW142963   2.811   8.843   3.596 -1.1531  0.5415  1.2191
13292SOL    HW242964   2.922   8.949   3.651 -0.1106 -0.9980  2.1115
13293SOL     OW42965   9.785   6.387   0.873 -0.5252 -0.2810  0.2377
13293SOL    HW142966   9.859   6.379   0.807  0.1536  0.7982  0.8517
13293SOL    HW242967   9.750   6.481   0.872 -1.6117 -0.6818  0.2426
13294SOL     OW42968   7.731   3.448   1.522 -0.0933 -0.0577 -0.3453
13294SOL    HW142969   7.714   3.481   1.429  1.0625 -1.9985 -1.2803
13294SOL    HW242970   7.830   3.443   1.538 -0.2827  0.9313  1.2446
13295SOL     OW42971   5.396   8.160   1.591  0.5115 -0.3955  0.2758
13295SOL    HW142972   5.407   8.235   1.657  0.0413  0.1915 -0.3038
13295SOL    HW242973   5.462   8.088   1.611  2.1125  0.9159 -0.1970
13296SOL     OW42974   1.995   2.475   1.407  0.2848  0.5283 -0.8461
13296SOL    HW142975   2.042   2.432   1.484 -2.2232  0.6595  0.7987
13296SOL    HW242976   2.037   2.444   1.322  1.2375 -1.9213  0.4611
13297SOL     OW42977   3.498   9.624   3.716  0.0482  0.2726  0.2139
13297SOL    HW142978   3.545   9.613   3.803 -1.8732  0.3644  1.2967
13297SOL    HW242979   3.564   9.620   3.641  1.7423  0.3784  1.6777
13298SOL     OW42980   0.512   4.530   4.844 -0.4180  0.4586  0.3997
13298SOL    HW142981   0.444   4.505   4.913  2.2269 -2.6716  1.9892
13298SOL    HW242982   0.572   4.601   4.880 -0.5920  0.6533  0.3135
13300SOL     OW42983   1.437   3.711   2.020  0.3871  0.0040 -0.6589
13300SOL    HW142984   1.525   3.757   2.022 -0.0097  0.7283  0.5877
13300SOL    HW242985   1.430   3.655   1.937  1.7343  0.4770 -1.0952
13302SOL     OW42986   7.981   3.798   2.133 -0.1917  0.3491  0.2113
13302SOL    HW142987   7.918   3.720   2.140  0.9926 -0.6573 -0.2305
13302SOL    HW242988   7.951   3.858   2.059 -0.8317  0.0731  0.2389
13303SOL     OW42989   9.565   0.774   3.048 -0.3502  0.2632  0.7623
13303SOL    HW142990   9.499   0.827   2.994  1.0783  1.3295  0.0173
13303SOL    HW242991   9.532   0.680   3.059 -0.3885 -0.1692 -2.5670
13304SOL     OW42992   4.093   7.112   1.216 -0.0220  0.1048 -0.1813
13304SOL    HW142993   4.012   7.110   1.157  0.4675 -1.4786 -0.8247
13304SOL    HW242994   4.128   7.205   1.221 -0.8155  0.4800 -1.3942
13305SOL     OW42995   8.822   0.931   3.828  0.7044 -0.0763  0.2170
13305SOL    HW142996   8.860   0.891   3.745  0.0480  0.4946 -0.3633
13305SOL    HW242997   8.863   1.021   3.844  0.3125  0.1191  0.1227
13306SOL     OW42998   1.031   1.334   0.329 -0.3455 -0.2530  0.2575
13306SOL    HW142999   1.028   1.246   0.281 -0.0826 -0.2821  0.2920
13306SOL    HW243000   0.975   1.328   0.411 -2.0019  0.2729 -0.8184
13309SOL     OW43001   8.636   0.735   4.858  0.1716 -0.5894  0.6467
13309SOL    HW143002   8.626   0.650   4.805 -0.6370 -0.7397  1.0278
13309SOL    HW243003   8.679   0.714   4.945 -1.7346 -0.9396  1.5407
13310SOL     OW43004   2.771   7.188   1.332  0.1133 -0.2390  0.7565
13310SOL    HW143005   2.772   7.282   1.296  0.6698 -0.1856  0.9067
13310SOL    HW243006   2.733   7.127   1.262 -0.1955  0.0911  0.6350
13312SOL     OW43007   2.965   1.185   5.280  0.3103  0.1234  0.3306
13312SOL    HW143008   2.992   1.096   5.315  2.0318  0.1356 -0.8636
13312SOL    HW243009   3.031   1.254   5.310  2.2482  0.0269 -3.2999
13313SOL     OW43010   0.591   6.754   2.895  0.1210 -1.1214 -0.1262
13313SOL    HW143011   0.543   6.725   2.812 -1.0197 -1.8736  0.7824
13313SOL    HW243012   0.523   6.776   2.965  1.0286  1.0979  0.0870
13314SOL     OW43013   1.819   0.667   5.021 -0.6565  0.4214  0.0538
13314SOL    HW143014   1.796   0.590   5.081  0.2849 -0.5105 -0.7786
13314SOL    HW243015   1.734   0.711   4.991 -1.2600 -1.0378 -0.4303
13315SOL     OW43016   4.685   9.887   1.448  0.0040 -0.6190  0.2959
13315SOL    HW143017   4.589   9.904   1.473  0.1337 -0.2258  0.5240
13315SOL    HW243018   4.687   9.837   1.361 -0.3939  0.5043 -0.3877
13316SOL     OW43019   2.619   8.570   5.144  0.2844  0.3910  0.0243
13316SOL    HW143020   2.665   8.625   5.213  0.0697  0.5729  0.0236
13316SOL    HW243021   2.679   8.495   5.115  0.6975  0.8080 -0.2047
13319SOL     OW43022   8.417   7.711   5.251  0.4237  0.4002  0.3577
13319SOL    HW143023   8.475   7.724   5.332 -1.2724  1.2820  1.4799
13319SOL    HW243024   8.393   7.800   5.213  0.7832 -0.0001 -0.8242
13322SOL     OW43025   4.829   8.016   3.758  0.3503  0.1071 -0.2610
13322SOL    HW143026   4.732   8.017   3.782  0.7132  0.6764  1.2024
13322SOL    HW243027   4.839   8.018   3.658 -1.1445 -0.5844 -0.4359
13323SOL     OW43028   0.525   3.039   1.628  0.2239  0.2659  0.3687
13323SOL    HW143029   0.426   3.039   1.611  0.7596 -1.5634 -3.4355
13323SOL    HW243030   0.561   3.131   1.614 -0.5697  0.3648 -1.1927
13324SOL     OW43031   4.121   4.312   3.952 -0.0869  0.6563 -0.0632
13324SOL    HW143032   4.196   4.327   4.017 -0.8568 -1.3272  1.3337
13324SOL    HW243033   4.034   4.331   3.998 -0.5514  0.9267 -1.0579
13326SOL     OW43034   9.847   3.191   0.697 -0.4233  0.3130 -0.2989
13326SOL    HW143035   9.878   3.222   0.787  0.3068 -0.0708 -0.4077
13326SOL    HW243036   9.926   3.186   0.635 -0.9938  0.9766 -1.0742
13327SOL     OW43037   1.562   3.352   1.842  0.8746 -0.1099 -0.1458
13327SOL    HW143038   1.470   3.386   1.862  1.2318  0.4665  0.5781
13327SOL    HW243039   1.602   3.315   1.926  1.5912  0.3567 -0.2757
13328SOL     OW43040   2.423   0.098   0.425 -0.0101 -0.6632  0.1327
13328SOL    HW143041   2.376   0.116   0.339  0.5669 -0.2807 -0.1001
13328SOL    HW243042   2.401   0.005   0.455  0.2877 -1.0263 -0.7490
13329SOL     OW43043   9.682   2.474   0.794  0.7521 -0.2043  0.1860
13329SOL    HW143044   9.647   2.381   0.779 -1.0412  0.3525  0.7778
13329SOL    HW243045   9.720   2.509   0.708 -2.6068  0.1368 -1.2485
13330SOL     OW43046   8.908   2.923   1.597  0.0210 -0.6545  0.0780
13330SOL    HW143047   8.946   3.015   1.589 -2.0516  0.2427  0.0212
13330SOL    HW243048   8.918   2.891   1.691 -2.9195  1.3603  1.1435
13331SOL     OW43049   0.895   3.727   2.197 -1.0441  0.4446 -0.4221
13331SOL    HW143050   0.978   3.693   2.153 -0.5841 -1.3579  1.7277
13331SOL    HW243051   0.889   3.826   2.185 -0.0509  0.2429 -2.9682
13332SOL     OW43052   7.239   9.233   4.677  0.1796  0.2571  0.0607
13332SOL    HW143053   7.286   9.320   4.665 -0.9041  0.8571  0.1631
13332SOL    HW243054   7.307   9.159   4.679  1.0950  1.0840 -0.0690
13333SOL     OW43055   1.828   1.570   0.303 -0.0227  0.1036  0.5782
13333SOL    HW143056   1.909   1.540   0.253  0.6559  1.1073  1.0588
13333SOL    HW243057   1.849   1.575   0.401 -0.4889  0.9117  0.6404
13334SOL     OW43058   5.543   7.576   3.935  0.3799  0.1034  0.1165
13334SOL    HW143059   5.591   7.646   3.881 -0.6523  0.7388  0.0044
13334SOL    HW243060   5.593   7.560   4.020  1.1572  0.2626 -0.3052
13335SOL     OW43061   9.753   0.976   1.802  0.3629 -0.0595 -0.0266
13335SOL    HW143062   9.814   0.914   1.851 -0.6668 -1.7340 -0.7990
13335SOL    HW243063   9.789   0.993   1.710  0.8483  0.7960  0.3258
13336SOL     OW43064   3.373   1.811   0.764 -0.3674  0.4733  0.4011
13336SOL    HW143065   3.412   1.743   0.826 -0.8104 -0.4609 -0.3374
13336SOL    HW243066   3.433   1.823   0.685  0.3317  1.8596  1.1169
13337SOL     OW43067   3.799   5.015   1.980 -0.1775 -0.1574 -0.5067
13337SOL    HW143068   3.898   4.996   1.975 -0.3629 -1.1329 -0.5728
13337SOL    HW243069   3.773   5.027   2.076  0.2948  1.7410 -0.5941
13338SOL     OW43070   2.674   4.289   0.125  0.0908  0.4695 -0.2178
13338SOL    HW143071   2.651   4.315   0.219  1.6152  0.4893  0.1556
13338SOL    HW243072   2.594   4.248   0.082 -1.0397  1.7353  0.6291
13339SOL     OW43073   2.401   4.509   0.115  0.0117 -0.7498  0.8542
13339SOL    HW143074   2.359   4.526   0.204  0.1726 -2.0029  1.1689
13339SOL    HW243075   2.497   4.537   0.118 -0.5671  1.3797  0.3678
13341SOL     OW43076   9.406   7.037   3.802  0.5468 -0.4984  0.1637
13341SOL    HW143077   9.317   7.057   3.760  0.1163 -2.9737 -0.1732
13341SOL    HW243078   9.474   7.023   3.730  0.3783 -2.1987  0.3146
13342SOL     OW43079   5.524   0.945   3.683 -0.6064  0.3861 -0.3078
13342SOL    HW143080   5.485   0.983   3.767 -1.8355  0.6146 -0.9684
13342SOL    HW243081   5.519   1.013   3.610  2.6564  1.0519  0.0200
13343SOL     OW43082   2.548   9.147   4.315 -0.0240 -0.5449  0.3291
13343SOL    HW143083   2.460   9.162   4.271 -0.3411  1.4834  1.5929
13343SOL    HW243084   2.547   9.059   4.362 -1.5166 -0.3819  0.6368
13344SOL     OW43085   2.146   4.733   2.447 -0.2546 -0.1777  0.0061
13344SOL    HW143086   2.058   4.732   2.494  0.1597 -0.5784  0.7713
13344SOL    HW243087   2.174   4.639   2.426 -0.0549 -0.0464 -0.3208
13345SOL     OW43088   0.013   4.232   3.524 -0.1786  0.3674 -0.2254
13345SOL    HW143089   0.103   4.211   3.485 -0.6686 -1.7718 -0.3041
13345SOL    HW243090   0.011   4.205   3.620 -1.2726 -1.2598 -0.6836
13346SOL     OW43091   4.358   9.769   0.877  0.3144 -0.6747  0.2338
13346SOL    HW143092   4.344   9.854   0.827  0.4265 -1.0360 -0.4242
13346SOL    HW243093   4.456   9.755   0.892  0.2679 -0.4587  0.7512
13347SOL     OW43094   1.671   8.469   1.451 -0.2186  0.4647 -0.2052
13347SOL    HW143095   1.623   8.509   1.529 -0.4217 -0.1881  0.0071
13347SOL    HW243096   1.713   8.541   1.397  0.6382  0.8597  0.9789
13348SOL     OW43097   1.170   1.568   4.781 -0.2751 -0.0026 -0.1388
13348SOL    HW143098   1.099   1.607   4.841 -1.5939 -0.3623 -1.4203
13348SOL    HW243099   1.244   1.532   4.836 -0.6018  1.3260  1.2059
13349SOL     OW43100   3.816   9.799   5.313 -0.9086  0.3477 -0.3065
13349SOL    HW143101   3.801   9.829   5.407 -0.2689  0.7032 -0.3181
13349SOL    HW243102   3.773   9.710   5.299 -1.0052  0.2970  0.3191
13350SOL     OW43103   2.824   5.964   0.241  0.0737  0.4163  0.0284
13350SOL    HW143104   2.868   5.877   0.222  0.2293  0.5494 -0.2309
13350SOL    HW243105   2.871   6.037   0.190  1.2215  0.9400  1.8070
13351SOL     OW43106   9.039   1.324   5.109  0.1994 -0.2850  0.4921
13351SOL    HW143107   8.979   1.386   5.057 -0.0194 -1.2706 -0.4397
13351SOL    HW243108   8.986   1.246   5.142  0.5511 -0.1533  1.3739
13352SOL     OW43109   6.609   1.849   2.940 -0.3613 -0.2106 -0.0130
13352SOL    HW143110   6.642   1.867   3.033 -1.5601 -1.2406  0.6170
13352SOL    HW243111   6.527   1.904   2.923  0.0034  0.1687 -0.5549
13353SOL     OW43112   9.789   0.654   2.228  0.4072 -0.0841  0.5287
13353SOL    HW143113   9.766   0.743   2.266  1.5319  0.1450  0.7019
13353SOL    HW243114   9.733   0.637   2.147 -1.3940 -0.2055  1.7730
13355SOL     OW43115   8.612   2.311   4.655  0.4489  0.3988  0.4815
13355SOL    HW143116   8.639   2.364   4.735  1.6603  0.0180  0.3407
13355SOL    HW243117   8.515   2.288   4.662  0.6341 -0.0055  2.0662
13356SOL     OW43118   7.106   0.837   3.169  0.1339 -0.3390 -0.2799
13356SOL    HW143119   7.076   0.758   3.115 -0.2246  0.1823 -0.8400
13356SOL    HW243120   7.120   0.915   3.110  0.3545  0.0650  0.2997
13357SOL     OW43121   5.554   2.180   2.738 -0.0211 -0.4803 -0.5757
13357SOL    HW143122   5.485   2.169   2.666 -1.9707  0.0967  1.1530
13357SOL    HW243123   5.566   2.277   2.757  0.5966 -0.6280 -0.2125
13358SOL     OW43124   2.091   7.720   1.508  0.1509  0.8142  0.0122
13358SOL    HW143125   2.050   7.659   1.440 -1.5501  0.7783  1.0546
13358SOL    HW243126   2.110   7.809   1.465  1.0654  0.1222 -1.0532
13359SOL     OW43127   8.396   0.581   3.135 -0.2515 -0.0885 -0.3312
13359SOL    HW143128   8.420   0.484   3.131 -1.8065 -0.4655 -0.8151
13359SOL    HW243129   8.342   0.605   3.054  0.0019  1.1491 -0.1399
13360SOL     OW43130   8.008   0.896   2.986 -0.6230  0.3246  0.8478
13360SOL    HW143131   7.960   0.929   2.905  0.3080 -0.6359 -0.1138
13360SOL    HW243132   8.062   0.815   2.962 -1.2063 -0.6250  2.6800
13361SOL     OW43133   8.450   5.814   3.002  0.3534  0.5429 -0.0613
13361SOL    HW143134   8.416   5.720   3.014  0.9720  0.2440 -0.6196
13361SOL    HW243135   8.459   5.834   2.905  0.7623  0.9885  0.0671
13362SOL     OW43136   1.152   2.728   0.601  0.1984  0.0170 -0.4460
13362SOL    HW143137   1.120   2.639   0.569  0.6960  0.4451 -2.1500
13362SOL    HW243138   1.078   2.795   0.592 -0.3056 -0.2957  1.2117
13363SOL     OW43139   3.261   3.897   4.929 -0.4444  0.1313  0.3449
13363SOL    HW143140   3.186   3.855   4.879 -1.1365  0.8952  0.7327
13363SOL    HW243141   3.310   3.960   4.868  0.8319 -1.4907 -0.3488
13364SOL     OW43142   9.631   4.879   2.088 -0.3591 -0.1904  0.1045
13364SOL    HW143143   9.659   4.881   1.992 -1.3329  1.4004 -0.1784
13364SOL    HW243144   9.670   4.958   2.135 -0.4330 -0.6013  0.8559
13366SOL     OW43145   9.630   7.776   0.565  0.1860  0.2287  0.3135
13366SOL    HW143146   9.542   7.797   0.609 -0.5997 -0.6754 -0.8034
13366SOL    HW243147   9.693   7.852   0.581 -1.0421  1.2390  0.5047
13367SOL     OW43148   9.343   1.394   4.816  0.4424 -0.0063 -0.2322
13367SOL    HW143149   9.388   1.476   4.850  1.2637  0.5094 -2.5204
13367SOL    HW243150   9.246   1.413   4.802  0.8580  0.9703 -1.9284
13368SOL     OW43151   8.179   6.059   1.787 -0.1787  0.0197 -0.2651
13368SOL    HW143152   8.188   6.132   1.854 -0.7713 -0.8707  0.8114
13368SOL    HW243153   8.157   5.973   1.834 -2.0854 -0.3209 -1.7299
13370SOL     OW43154   4.043   4.538   2.287  0.4669  0.1608  0.5196
13370SOL    HW143155   4.094   4.624   2.290 -1.5051  1.3153  1.8738
13370SOL    HW243156   3.947   4.557   2.271  0.2601 -1.9372 -1.0213
13372SOL     OW43157   9.095   4.620   1.553 -0.0592 -0.1198  0.2697
13372SOL    HW143158   9.082   4.718   1.570  2.4036  0.5081 -1.0367
13372SOL    HW243159   9.166   4.585   1.614 -0.7740 -1.0300  0.5746
13373SOL     OW43160   9.238   9.261   2.243 -0.0087  0.2811 -0.2887
13373SOL    HW143161   9.277   9.214   2.163 -2.2307 -1.0564 -0.6218
13373SOL    HW243162   9.277   9.222   2.327 -1.4602 -1.8894 -0.5750
13374SOL     OW43163   0.514   2.046   1.893  0.1182  0.0567  0.2259
13374SOL    HW143164   0.475   2.056   1.985 -0.0202  0.1826  0.1531
13374SOL    HW243165   0.538   1.950   1.878  0.5545  0.1122  0.5592
13376SOL     OW43166   0.547   0.466   0.613 -0.3898  0.3669 -0.3816
13376SOL    HW143167   0.480   0.410   0.565 -1.0684  0.8631 -0.0327
13376SOL    HW243168   0.529   0.563   0.592 -2.2197  0.7651  2.7359
13377SOL     OW43169   2.400   5.374   3.463 -0.5674 -0.1094 -0.0063
13377SOL    HW143170   2.415   5.426   3.548  0.2587 -0.5016  0.0864
13377SOL    HW243171   2.409   5.435   3.385  2.0576 -0.4308  0.0119
13378SOL     OW43172   9.083   5.941   5.150 -0.1399  0.1444 -0.7313
13378SOL    HW143173   9.122   6.025   5.114 -0.6539  0.2085 -1.1381
13378SOL    HW243174   8.998   5.920   5.102  0.3261 -0.9668 -1.0975
13379SOL     OW43175   8.449   6.512   3.865  0.3578  0.2244 -0.4304
13379SOL    HW143176   8.466   6.550   3.956  2.0144 -1.2834 -0.0614
13379SOL    HW243177   8.536   6.505   3.816 -0.3520 -0.1728 -1.6412
13380SOL     OW43178   0.268   8.556   0.967  0.6928 -0.2309 -0.2037
13380SOL    HW143179   0.314   8.495   1.032  1.0242 -0.0427 -0.2567
13380SOL    HW243180   0.222   8.503   0.897 -0.3686 -0.4550  0.6586
13381SOL     OW43181   1.456   0.852   4.280  0.0426  0.0267 -0.5792
13381SOL    HW143182   1.538   0.813   4.322  0.2157  0.5477 -0.4316
13381SOL    HW243183   1.385   0.863   4.350 -0.2858 -0.7739 -0.7805
13382SOL     OW43184   8.207   9.326   3.990 -0.2970  0.1809  0.0241
13382SOL    HW143185   8.240   9.254   3.928 -0.3372  0.3493 -0.1943
13382SOL    HW243186   8.167   9.285   4.071 -0.7538 -0.0538 -0.3192
13384SOL     OW43187   2.577   2.519   5.125  0.0273 -0.3013 -0.4215
13384SOL    HW143188   2.562   2.576   5.043  1.5637 -0.1269 -0.6003
13384SOL    HW243189   2.537   2.565   5.205 -1.3255 -0.3855 -1.0271
13385SOL     OW43190   3.748   8.360   0.486 -0.2904  0.0190 -0.5136
13385SOL    HW143191   3.832   8.373   0.434  0.3570 -0.9126  0.2750
13385SOL    HW243192   3.719   8.265   0.479 -1.5446  0.4372 -1.1600
13386SOL     OW43193   8.927   3.558   0.446 -0.3012  0.0071  0.1293
13386SOL    HW143194   8.923   3.602   0.356  0.2735  0.5964  0.3889
13386SOL    HW243195   8.879   3.471   0.442 -1.0541  0.4461 -0.5102
13387SOL     OW43196   3.440   4.207   4.346  0.5891  0.4733 -0.1786
13387SOL    HW143197   3.387   4.215   4.262 -1.6395  2.1844  1.3363
13387SOL    HW243198   3.501   4.286   4.355  1.4723 -0.1507 -0.6010
13392SOL     OW43199   8.771   6.174   2.680 -0.0870 -0.0315 -0.2297
13392SOL    HW143200   8.829   6.226   2.742 -1.0021  0.8865 -0.1196
13392SOL    HW243201   8.828   6.117   2.620  0.7939 -0.8741  1.3946
13393SOL     OW43202   3.962   8.919   1.090  0.7853 -0.2158 -0.4695
13393SOL    HW143203   3.882   8.979   1.092 -0.0758 -1.3123 -0.9859
13393SOL    HW243204   4.012   8.926   1.176  0.4870  0.9533 -0.3881
13394SOL     OW43205   1.887   5.818   0.143  0.0997 -0.6950  0.3977
13394SOL    HW143206   1.890   5.788   0.238  1.2422 -0.3781  0.4639
13394SOL    HW243207   1.906   5.741   0.083  0.5081 -0.6498  0.4699
13395SOL     OW43208   3.887   8.291   0.850  0.5017 -0.3441  0.2173
13395SOL    HW143209   3.809   8.235   0.822  0.3978  0.0720 -0.3432
13395SOL    HW243210   3.917   8.347   0.773 -0.5924  1.7509  1.2639
13396SOL     OW43211   5.053   8.755   4.173  0.0328  0.5786 -0.2071
13396SOL    HW143212   4.970   8.739   4.227  0.2138  1.1581  0.2584
13396SOL    HW243213   5.030   8.762   4.076 -0.7477  2.6736  0.1090
13397SOL     OW43214   1.507   0.572   2.060 -0.8439  0.3719 -0.0825
13397SOL    HW143215   1.591   0.545   2.107 -1.3207  0.4065  0.7992
13397SOL    HW243216   1.495   0.671   2.068 -0.4134  0.5116 -1.1312
13399SOL     OW43217   0.207   8.883   3.706  0.5083  0.3713 -0.5204
13399SOL    HW143218   0.154   8.800   3.693  0.3667  0.6836 -2.0360
13399SOL    HW243219   0.299   8.870   3.669  1.4804 -0.1212  1.9705
13400SOL     OW43220   3.705   7.026   1.286  0.0030  0.4993 -0.3140
13400SOL    HW143221   3.627   6.971   1.255  0.1239  1.4160 -2.3381
13400SOL    HW243222   3.671   7.108   1.332 -0.1935 -0.1981  0.8089
13401SOL     OW43223   0.548   3.319   1.393  0.1972 -0.5705 -0.0335
13401SOL    HW143224   0.493   3.392   1.352 -0.6307 -0.7650  0.7294
13401SOL    HW243225   0.575   3.345   1.485  0.0508 -1.1489  0.1748
13402SOL     OW43226   3.084   9.414   0.264 -0.2652 -0.4295 -0.1709
13402SOL    HW143227   3.020   9.460   0.203  0.2749  1.8792  0.9631
13402SOL    HW243228   3.075   9.452   0.356  0.0460 -2.7602  0.8631
13403SOL     OW43229   8.333   3.140   0.093 -0.0078  0.1207  0.4867
13403SOL    HW143230   8.417   3.145   0.147  1.0855  1.3387 -1.2650
13403SOL    HW243231   8.278   3.222   0.110 -0.2798 -0.1182  0.7489
13404SOL     OW43232   0.416   6.204   0.235  0.5253 -0.2665  0.5689
13404SOL    HW143233   0.498   6.213   0.292  0.7852 -0.1981  0.1884
13404SOL    HW243234   0.426   6.261   0.154 -0.7468  1.2949  1.4781
13405SOL     OW43235   8.304   6.503   5.202 -0.4297  0.4825  0.3668
13405SOL    HW143236   8.344   6.411   5.203  1.9344  1.4588  2.1133
13405SOL    HW243237   8.222   6.503   5.145 -0.0624 -2.5231 -0.2744
13407SOL     OW43238   0.437   8.403   1.874  0.0147 -0.1305  0.0717
13407SOL    HW143239   0.380   8.321   1.871 -0.6846  0.3959 -1.4955
13407SOL    HW243240   0.383   8.483   1.848  0.6029  0.9107  1.9347
13408SOL     OW43241   5.486   9.642   2.213 -0.1950 -0.0664  0.5128
13408SOL    HW143242   5.393   9.649   2.250 -0.5230 -0.1370 -0.2909
13408SOL    HW243243   5.545   9.598   2.281 -0.9882 -0.9669  0.6378
13409SOL     OW43244   9.158   7.962   4.219 -0.3691  0.8146 -0.4183
13409SOL    HW143245   9.130   7.868   4.235  1.5964  0.2328 -0.2907
13409SOL    HW243246   9.120   8.021   4.290 -0.0714 -0.1706  0.5614
13410SOL     OW43247   9.740   1.072   0.970  0.0464 -0.5806 -0.0747
13410SOL    HW143248   9.673   1.129   0.922  0.2667 -0.5043 -0.2946
13410SOL    HW243249   9.726   0.976   0.947 -1.7860 -0.8673  2.0608
13411SOL     OW43250   1.030   8.734   0.416 -0.4638 -0.2713  0.1422
13411SOL    HW143251   0.965   8.709   0.344  0.1547  1.7723 -1.1712
13411SOL    HW243252   0.981   8.785   0.488 -0.4700  0.6946 -0.5284
13413SOL     OW43253   0.128   9.884   4.665 -0.1288 -0.0369  0.0066
13413SOL    HW143254   0.119   9.790   4.633 -0.6398 -0.0902  0.3126
13413SOL    HW243255   0.225   9.910   4.663 -0.1316 -0.1048 -1.3838
13415SOL     OW43256   8.670   8.776   3.589 -0.8565  0.0697 -0.4851
13415SOL    HW143257   8.695   8.762   3.685 -2.1739  1.6218  0.0957
13415SOL    HW243258   8.726   8.717   3.532  0.6258 -0.1647  1.1630
13416SOL     OW43259   1.238   4.679   2.420 -0.4167 -0.2375 -0.5331
13416SOL    HW143260   1.139   4.682   2.434 -0.5425  0.7460 -1.5745
13416SOL    HW243261   1.267   4.584   2.403 -1.2753 -0.4391 -0.8972
13417SOL     OW43262   7.688   1.785   4.978 -0.8652 -0.2952 -1.1668
13417SOL    HW143263   7.739   1.813   5.059  0.2510 -2.9344 -0.9174
13417SOL    HW243264   7.698   1.855   4.907 -0.6156  1.3223  0.4142
13418SOL     OW43265   3.325   4.963   4.756 -0.5201 -0.4441 -0.3905
13418SOL    HW143266   3.422   4.943   4.746 -0.5865 -0.7375 -0.4420
13418SOL    HW243267   3.314   5.045   4.812 -0.2228 -0.0647 -0.8740
13419SOL     OW43268   4.002   2.294   2.965 -0.1687 -0.3325 -0.5749
13419SOL    HW143269   3.960   2.377   3.002  0.6924  0.2236 -0.8307
13419SOL    HW243270   3.978   2.216   3.024 -1.1195  0.0623 -0.4317
13420SOL     OW43271   3.912   3.805   4.111 -0.6975  0.9277 -0.1701
13420SOL    HW143272   3.987   3.872   4.107  0.3409 -0.2064 -0.0306
13420SOL    HW243273   3.828   3.847   4.078 -0.3943  2.7660  1.2678
13421SOL     OW43274   0.432   7.659   3.110 -0.1200  0.8818  0.2972
13421SOL    HW143275   0.447   7.636   3.206  0.3046 -0.0913 -0.0015
13421SOL    HW243276   0.430   7.575   3.055  1.7596  1.5730 -0.8505
13422SOL     OW43277   8.932   3.353   5.128  0.8769 -0.0940 -0.0366
13422SOL    HW143278   8.875   3.389   5.203  1.7499  2.4721 -0.5671
13422SOL    HW243279   8.875   3.338   5.047  0.3864 -0.5973  0.3923
13423SOL     OW43280   9.218   9.545   1.157 -1.2157 -0.0705  0.1856
13423SOL    HW143281   9.191   9.460   1.112 -1.2211  0.1277 -0.1886
13423SOL    HW243282   9.181   9.623   1.106  0.1822  0.2141 -0.4123
13424SOL     OW43283   1.548   7.142   0.299 -0.5040 -0.0363 -0.2902
13424SOL    HW143284   1.548   7.231   0.345 -0.3919 -0.7870  1.1991
13424SOL    HW243285   1.636   7.128   0.254  1.0578 -1.1124  2.9506
13425SOL     OW43286   4.816   0.677   3.501  0.0468 -0.3290 -0.2748
13425SOL    HW143287   4.845   0.607   3.436  0.8296 -0.3197  0.0607
13425SOL    HW243288   4.854   0.766   3.474 -1.2469  0.0479 -0.9080
13426SOL     OW43289   1.393   3.004   0.544  0.4565  0.3647  0.2622
13426SOL    HW143290   1.450   2.978   0.466 -0.4031  0.1258 -0.3005
13426SOL    HW243291   1.374   2.923   0.599 -0.0510  0.2737 -0.0376
13427SOL     OW43292   0.311   3.523   1.826  0.4190  0.4593 -0.3457
13427SOL    HW143293   0.224   3.517   1.777  0.4869  0.0489 -0.4163
13427SOL    HW243294   0.345   3.431   1.846  0.7239  0.6194 -0.1164
13428SOL     OW43295   3.419   7.484   0.897  0.6949 -0.2474 -0.2475
13428SOL    HW143296   3.395   7.394   0.934  1.0459 -0.5474 -0.7477
13428SOL    HW243297   3.514   7.484   0.866  0.2797 -0.1450 -1.5611
13429SOL     OW43298   9.857   8.917   1.183  0.2796 -0.1831  0.1766
13429SOL    HW143299   9.899   8.831   1.154  0.9540  0.5166 -0.9579
13429SOL    HW243300   9.814   8.961   1.104 -2.0862 -0.5868  1.1925
13430SOL     OW43301   9.771   8.596   2.916 -0.4170  0.0924 -0.0910
13430SOL    HW143302   9.845   8.658   2.940 -0.2782 -0.6725  1.5659
13430SOL    HW243303   9.741   8.548   2.998 -1.2948 -1.1858 -1.1446
13431SOL     OW43304   6.660   7.558   2.447  0.3512 -0.1859 -0.3126
13431SOL    HW143305   6.685   7.494   2.375 -0.2057  0.1532 -0.8130
13431SOL    HW243306   6.698   7.527   2.534  0.0925 -1.1991 -0.5498
13432SOL     OW43307   0.399   9.203   0.563 -0.2718  0.3810  0.7158
13432SOL    HW143308   0.305   9.170   0.559  0.0776 -1.0204  3.1540
13432SOL    HW243309   0.402   9.299   0.534 -2.5064  0.5598  0.9908
13433SOL     OW43310   0.984   1.831   5.214 -0.1009  0.1777 -0.8030
13433SOL    HW143311   0.924   1.906   5.244 -0.9542 -0.7746 -0.0823
13433SOL    HW243312   1.044   1.863   5.141 -0.0448  1.7300 -0.0927
13435SOL     OW43313   8.600   9.547   2.844 -0.0081 -0.6620 -0.3096
13435SOL    HW143314   8.670   9.582   2.906  0.4889 -1.1843 -0.5665
13435SOL    HW243315   8.635   9.466   2.797 -0.5522 -0.5447 -0.9237
13436SOL     OW43316   8.478   1.870   1.167 -0.0641 -0.0466  0.0997
13436SOL    HW143317   8.554   1.894   1.107  0.2112  1.8272  1.1695
13436SOL    HW243318   8.485   1.774   1.193  2.5644  0.3775  1.0774
13437SOL     OW43319   3.102   2.204   2.410  0.3071 -0.4312 -0.7039
13437SOL    HW143320   3.150   2.209   2.498  0.6625 -0.2080 -0.9079
13437SOL    HW243321   3.035   2.131   2.413 -2.6919  2.2557  1.2297
13438SOL     OW43322   7.688   8.941   2.220  0.5134  0.1100  0.3831
13438SOL    HW143323   7.601   8.921   2.174  1.1643  0.5232 -1.0509
13438SOL    HW243324   7.732   8.855   2.247 -0.2097 -0.1103  0.8808
13439SOL     OW43325   2.411   8.726   1.967  0.3490  0.0340 -0.6310
13439SOL    HW143326   2.361   8.742   1.882 -1.7941 -0.8713  0.4250
13439SOL    HW243327   2.418   8.628   1.984  0.1581  0.2242  0.5986
13440SOL     OW43328   7.643   3.011   1.311  0.0419 -0.2883  0.3786
13440SOL    HW143329   7.546   3.032   1.313  0.0639  0.2067 -2.1399
13440SOL    HW243330   7.657   2.917   1.281  0.4025  0.7220 -2.8394
13441SOL     OW43331   9.322   3.144   4.650 -0.5553  0.3123 -0.0333
13441SOL    HW143332   9.231   3.118   4.683 -0.9440 -0.8214 -1.9446
13441SOL    HW243333   9.385   3.068   4.666 -0.0882  0.8377  0.6570
13442SOL     OW43334   7.643   6.297   5.127  0.3791  0.0605 -0.0218
13442SOL    HW143335   7.625   6.256   5.216 -1.5605  1.3522  0.2118
13442SOL    HW243336   7.737   6.330   5.123  0.8980 -1.2666  1.0256
13443SOL     OW43337   9.346   2.193   5.215  0.0761  0.3068 -0.8397
13443SOL    HW143338   9.249   2.192   5.240  0.4135 -1.0610  0.4871
13443SOL    HW243339   9.394   2.261   5.269 -0.0257  0.5277 -1.0265
13444SOL     OW43340   9.917   2.395   5.100 -0.1764 -0.7483  0.1610
13444SOL    HW143341   9.826   2.398   5.059  0.2710  0.2542 -0.7725
13444SOL    HW243342   9.911   2.350   5.189 -1.7109 -0.0247  0.4480
13445SOL     OW43343   2.543   9.770   2.221 -0.4488  0.2432  0.1557
13445SOL    HW143344   2.444   9.784   2.215 -0.4269  0.2987 -0.0633
13445SOL    HW243345   2.590   9.853   2.191 -0.3480  1.0386  2.3988
13448SOL     OW43346   0.051   3.597   2.639 -0.2214  0.0499 -0.1001
13448SOL    HW143347  -0.037   3.627   2.602  0.6449 -0.5069 -2.6691
13448SOL    HW243348   0.126   3.642   2.590  0.9813 -1.5342  0.2339
13451SOL     OW43349   1.602   9.050   0.923  0.2135  0.0917 -0.2377
13451SOL    HW143350   1.603   8.957   0.961  0.5481  0.0556 -0.3269
13451SOL    HW243351   1.695   9.087   0.925  0.4961 -0.4305 -2.2794
13453SOL     OW43352   9.630   3.512   0.914 -0.0078  0.5732  0.3877
13453SOL    HW143353   9.635   3.513   0.814 -2.8638 -0.2012  0.1826
13453SOL    HW243354   9.707   3.562   0.952  0.9570  1.1291 -2.2220
13456SOL     OW43355   1.905   5.483   2.174 -0.2674 -0.3377 -0.0837
13456SOL    HW143356   1.984   5.422   2.162  0.7413  1.0659 -0.7720
13456SOL    HW243357   1.824   5.429   2.193  1.3536 -1.7174  3.4227
13458SOL     OW43358   5.456   0.074   5.050 -0.9204 -0.6458  0.0027
13458SOL    HW143359   5.510   0.132   5.112  0.0741 -1.3910 -0.1511
13458SOL    HW243360   5.413   0.131   4.980 -0.5243 -0.0116  0.2720
13461SOL     OW43361   2.163   2.355   1.634 -0.1871  0.4860  0.0910
13461SOL    HW143362   2.089   2.347   1.701 -0.2586  0.7424  0.0424
13461SOL    HW243363   2.188   2.263   1.602  0.4793  0.2894  1.1520
13462SOL     OW43364   8.388   3.924   3.881 -0.5568 -0.0609 -0.3652
13462SOL    HW143365   8.409   3.850   3.818 -0.3417  0.3982 -0.8401
13462SOL    HW243366   8.472   3.972   3.906 -0.7435  0.2817 -0.3876
13463SOL     OW43367   4.291   4.871   0.356  0.4864 -0.2124 -0.3347
13463SOL    HW143368   4.288   4.814   0.437 -0.1260  0.5531  0.1911
13463SOL    HW243369   4.198   4.886   0.322  0.6023  0.8613 -0.1870
13464SOL     OW43370   5.778   7.074   2.384 -0.2669 -0.3283 -0.3384
13464SOL    HW143371   5.690   7.029   2.401 -0.6366  0.6438  0.4034
13464SOL    HW243372   5.802   7.131   2.462  2.1141 -2.2795  0.4102
13465SOL     OW43373   8.251   0.550   5.154 -0.4729 -0.0911 -0.0615
13465SOL    HW143374   8.309   0.469   5.140  0.8335  0.9784 -0.9635
13465SOL    HW243375   8.157   0.528   5.126 -0.2472 -1.4646  0.2207
13466SOL     OW43376   8.954   1.827   1.572  0.1225  0.1137  0.3248
13466SOL    HW143377   8.860   1.828   1.541  0.0891 -0.7409  0.3772
13466SOL    HW243378   9.011   1.777   1.507  0.1950 -1.0025  1.2279
13467SOL     OW43379   3.697   9.719   3.210 -0.5536 -0.0521 -0.4280
13467SOL    HW143380   3.781   9.703   3.262 -1.8480  0.6836  1.9911
13467SOL    HW243381   3.636   9.640   3.220 -1.0154  0.3043 -0.4217
13468SOL     OW43382   9.621   7.116   0.394  0.4334 -0.7713  0.2264
13468SOL    HW143383   9.673   7.174   0.457 -0.5538 -1.8701  2.1023
13468SOL    HW243384   9.625   7.021   0.425  0.1573 -1.3835 -1.5467
13469SOL     OW43385   7.857   6.003   0.716  0.0150 -0.0991  0.1461
13469SOL    HW143386   7.770   5.994   0.667  0.2528  0.6045 -0.4069
13469SOL    HW243387   7.894   6.094   0.702  1.0531 -0.5270  0.0393
13470SOL     OW43388   0.057   5.063   0.843  0.7852  0.1395 -0.1094
13470SOL    HW143389   0.070   5.107   0.931  0.9177  0.9159 -0.5119
13470SOL    HW243390   0.013   5.127   0.780 -1.7690 -1.2805  0.1836
13472SOL     OW43391   2.443   8.367   0.160  0.6324  0.0242  0.5066
13472SOL    HW143392   2.464   8.385   0.256  1.1427 -0.9895  0.5832
13472SOL    HW243393   2.345   8.347   0.152  0.6651 -0.2974  0.8739
13473SOL     OW43394   8.982   0.626   2.441  0.3413 -0.3008 -0.2575
13473SOL    HW143395   9.007   0.671   2.355 -0.9565  0.3522 -0.3045
13473SOL    HW243396   9.034   0.667   2.516  0.5856 -0.0386 -0.5689
13474SOL     OW43397   1.434   3.606   2.801 -0.1676 -0.3194  0.3039
13474SOL    HW143398   1.526   3.645   2.803  0.3635 -1.5788  1.6915
13474SOL    HW243399   1.394   3.619   2.711  1.4399  0.0631 -0.3717
13475SOL     OW43400   3.554   4.941   3.622  0.4949 -0.0145  0.1795
13475SOL    HW143401   3.501   4.994   3.555 -0.8065  1.0686  2.0230
13475SOL    HW243402   3.637   4.992   3.647 -1.0169  1.4792  2.3455
13476SOL     OW43403   5.034   9.626   2.186 -0.2575 -0.2540 -0.0134
13476SOL    HW143404   5.078   9.647   2.273  1.3313  1.7518 -1.2494
13476SOL    HW243405   5.089   9.560   2.136 -1.4017 -1.7466  0.6731
13477SOL     OW43406   3.960   5.287   1.284  0.4131 -0.0476 -0.3646
13477SOL    HW143407   4.013   5.352   1.338  0.4747  1.4177 -2.1175
13477SOL    HW243408   4.019   5.210   1.257  1.1794  0.6748 -0.7854
13478SOL     OW43409   0.275   1.300   1.686  0.5737 -0.0058  0.2052
13478SOL    HW143410   0.287   1.258   1.596  0.0579  0.8667 -0.2784
13478SOL    HW243411   0.270   1.228   1.756  0.4997 -0.7103 -0.5142
13479SOL     OW43412   5.072   1.364   3.151  0.3570  0.3951 -0.0797
13479SOL    HW143413   5.128   1.335   3.229 -1.2954 -0.9352  0.6524
13479SOL    HW243414   5.131   1.392   3.076  1.9995 -0.2991  0.9247
13480SOL     OW43415   5.879   8.678   2.928  0.3936 -0.1465  0.4101
13480SOL    HW143416   5.967   8.657   2.969  0.0131  1.9853  2.4810
13480SOL    HW243417   5.815   8.603   2.945  1.0303 -0.4804  1.3727
13482SOL     OW43418   8.386   5.225   4.636 -0.4883  0.2698 -0.0425
13482SOL    HW143419   8.306   5.223   4.577 -1.6159 -0.8165  1.4663
13482SOL    HW243420   8.385   5.308   4.692 -0.1047  0.6769 -0.6425
13483SOL     OW43421   8.273   8.478   4.497  0.4526 -0.3605 -0.4780
13483SOL    HW143422   8.317   8.404   4.548 -0.2102 -0.3235  0.1612
13483SOL    HW243423   8.279   8.563   4.550 -1.2769 -0.5747  0.0957
13484SOL     OW43424   0.555   1.691   0.998 -0.2198 -0.2081 -0.9034
13484SOL    HW143425   0.644   1.684   1.043 -1.1426  0.7653  1.1312
13484SOL    HW243426   0.504   1.768   1.037 -2.6632 -1.8367 -0.8208
13486SOL     OW43427   1.856   9.950   1.496 -0.0563  0.1465 -0.7167
13486SOL    HW143428   1.848   9.972   1.399 -0.8089 -0.1991 -0.7449
13486SOL    HW243429   1.843   9.851   1.509 -0.1617  0.2161 -0.2514
13488SOL     OW43430   4.622   5.368   2.933 -0.3352 -0.3438  0.0474
13488SOL    HW143431   4.592   5.459   2.904  0.6692  0.4109  1.2657
13488SOL    HW243432   4.611   5.360   3.033 -0.1301 -1.4434 -0.0111
13490SOL     OW43433   3.784   9.158   3.427  0.0040 -0.1043 -0.3691
13490SOL    HW143434   3.696   9.190   3.460  0.1914 -0.1449  0.1830
13490SOL    HW243435   3.785   9.058   3.425 -0.5080 -0.0896 -1.8934
13491SOL     OW43436   2.727   1.512   0.419  0.4722  0.0393  0.0003
13491SOL    HW143437   2.700   1.489   0.512 -1.0792  1.5782 -0.0442
13491SOL    HW243438   2.758   1.607   0.416  0.0686  0.1443 -1.1241
13495SOL     OW43439   8.343   1.441   0.890 -0.1620  0.2023 -0.3836
13495SOL    HW143440   8.279   1.503   0.935  0.7342  0.5024  0.5158
13495SOL    HW243441   8.328   1.442   0.792 -0.9615  0.9192 -0.2561
13497SOL     OW43442   2.916   3.552   4.504 -0.7714 -0.0052  0.1445
13497SOL    HW143443   3.007   3.557   4.546 -0.6594 -0.3732 -0.0530
13497SOL    HW243444   2.860   3.485   4.553 -1.5021  1.4559  1.3309
13498SOL     OW43445   8.674   8.783   2.339 -0.0898 -1.1569  0.4251
13498SOL    HW143446   8.668   8.694   2.385  0.1399 -1.1487  0.4718
13498SOL    HW243447   8.718   8.770   2.250 -1.5822 -1.3679 -0.3083
13499SOL     OW43448   3.734   9.325   5.043 -0.1975  0.5047  0.0312
13499SOL    HW143449   3.659   9.348   4.980  0.9048  2.8429 -0.4659
13499SOL    HW243450   3.770   9.234   5.020 -1.3617  0.3389 -1.1976
13500SOL     OW43451   7.358   3.191   4.267  0.6825  0.2053  0.6903
13500SOL    HW143452   7.403   3.277   4.243  0.4850  0.1747  0.2081
13500SOL    HW243453   7.391   3.118   4.207 -1.1434  0.4914 -0.7048
13501SOL     OW43454   2.163   3.175   4.914 -0.3817 -0.0688 -0.0851
13501SOL    HW143455   2.162   3.191   4.815  0.0808  0.7182  0.0344
13501SOL    HW243456   2.070   3.157   4.946 -0.5893  0.0837 -0.5971
13502SOL     OW43457   4.416   0.004   1.545 -0.4559  0.1461  0.1837
13502SOL    HW143458   4.372   0.023   1.457 -1.3319  0.8665  0.7614
13502SOL    HW243459   4.474   0.082   1.570  1.0458 -0.7389 -0.5015
13503SOL     OW43460   0.383   6.540   3.838 -0.4210 -0.7098 -0.2230
13503SOL    HW143461   0.468   6.487   3.837 -0.5372 -0.9438  0.8301
13503SOL    HW243462   0.389   6.614   3.771  0.4683 -0.9474 -0.4182
13505SOL     OW43463   0.673   9.332   0.473 -0.3509  0.4544  0.0587
13505SOL    HW143464   0.668   9.236   0.444  0.8015  0.4488 -0.1485
13505SOL    HW243465   0.632   9.341   0.564  0.1692 -0.3662  0.3837
13506SOL     OW43466   3.394   6.931   3.137 -0.7749  0.2313 -0.3341
13506SOL    HW143467   3.492   6.923   3.159 -0.4276  1.2393 -1.4827
13506SOL    HW243468   3.341   6.876   3.202  0.4868  0.4064  0.8712
13507SOL     OW43469   9.947   2.054   3.477  0.2586 -0.1112  0.2968
13507SOL    HW143470  10.022   2.072   3.541  0.3150  0.2553  0.1266
13507SOL    HW243471   9.859   2.067   3.524  0.2970 -1.2514  0.7001
13508SOL     OW43472   3.373   5.674   4.861  0.3792  0.1834  0.1197
13508SOL    HW143473   3.402   5.712   4.949 -1.6204 -0.4333  1.0709
13508SOL    HW243474   3.294   5.614   4.875 -0.1685  0.3376 -2.1494
13509SOL     OW43475   3.399   3.676   4.348 -0.1547 -0.4811 -0.3530
13509SOL    HW143476   3.307   3.696   4.315 -0.9521  0.8372  2.5382
13509SOL    HW243477   3.456   3.758   4.339 -0.3581 -0.1322  1.3763
13510SOL     OW43478   7.781   4.383   2.026 -0.5314  0.6819  0.0922
13510SOL    HW143479   7.836   4.461   1.997 -1.4616  0.7251 -1.5780
13510SOL    HW243480   7.749   4.397   2.119  1.2270  1.2285  0.6401
13511SOL     OW43481   4.532   7.008   2.128  0.1286 -0.4821 -1.0339
13511SOL    HW143482   4.512   7.033   2.034  0.4897  3.2416 -0.1982
13511SOL    HW243483   4.596   7.074   2.167 -3.1039  0.4473  3.0361
13512SOL     OW43484   2.167   8.534   1.271 -0.1811  0.0770  0.4203
13512SOL    HW143485   2.213   8.549   1.184  1.1668 -1.3595  0.8676
13512SOL    HW243486   2.074   8.501   1.254  0.1227 -0.3257 -0.4880
13513SOL     OW43487   5.020   8.754   4.583 -0.2757 -0.0202  0.6434
13513SOL    HW143488   5.110   8.750   4.628 -1.1156  1.1035  2.4736
13513SOL    HW243489   5.021   8.824   4.512  0.8977 -1.4298 -0.7705
13514SOL     OW43490   3.009   8.627   1.327  0.1977  0.6151 -0.3567
13514SOL    HW143491   3.045   8.718   1.304  0.2127  1.2954  2.1808
13514SOL    HW243492   3.012   8.615   1.426 -2.5718 -1.0119 -0.4382
13515SOL     OW43493   0.568   1.272   0.216 -0.2755 -0.0504  0.6074
13515SOL    HW143494   0.636   1.202   0.195 -0.1906 -0.1933  1.3544
13515SOL    HW243495   0.603   1.361   0.187 -0.3753 -0.3119 -0.3252
13517SOL     OW43496   2.500   2.733   1.052  0.2376 -0.3392 -0.0444
13517SOL    HW143497   2.522   2.733   0.955  0.8784 -0.6594  0.1025
13517SOL    HW243498   2.578   2.768   1.104  0.5505 -1.8059  0.5026
13519SOL     OW43499   9.280   1.466   3.686 -0.5427 -0.1957 -0.1211
13519SOL    HW143500   9.210   1.398   3.663 -0.9910  0.0340  0.5573
13519SOL    HW243501   9.276   1.487   3.784  0.2726  0.0508 -0.1339
13520SOL     OW43502   8.254   9.736   4.984  0.2278  0.0470 -0.0629
13520SOL    HW143503   8.218   9.817   4.936  0.8523 -0.7985 -2.0403
13520SOL    HW243504   8.304   9.765   5.065  0.5409  1.6629 -0.8073
13521SOL     OW43505   0.799   7.570   2.058  0.1691  0.1451  0.0064
13521SOL    HW143506   0.782   7.495   1.994 -0.1272  0.3956 -0.2099
13521SOL    HW243507   0.779   7.657   2.013 -1.6928  0.2432  0.9823
13522SOL     OW43508   6.308   1.704   1.748  0.4152 -0.9948  0.3077
13522SOL    HW143509   6.253   1.705   1.832 -0.4468  1.8178 -0.2493
13522SOL    HW243510   6.387   1.764   1.759 -1.8463  2.5913 -2.2142
13523SOL     OW43511   3.021   7.459   1.394 -0.2501  0.5257  0.1291
13523SOL    HW143512   3.086   7.532   1.415 -0.3537  1.0595 -1.3250
13523SOL    HW243513   2.993   7.467   1.298 -1.9028 -0.1282  0.5482
13524SOL     OW43514   4.353   3.395   1.877  0.0353  0.4000 -0.0738
13524SOL    HW143515   4.333   3.421   1.782 -1.0962 -3.6036 -1.0501
13524SOL    HW243516   4.452   3.392   1.891  0.1985  2.0587 -0.8060
13525SOL     OW43517   4.970   7.011   2.518 -0.0527  0.3659  0.0939
13525SOL    HW143518   5.018   7.009   2.430 -0.4560  1.1689 -0.1532
13525SOL    HW243519   4.946   6.918   2.545 -1.4764  0.2324 -1.5204
13526SOL     OW43520   9.404   2.404   1.640 -0.5464 -0.0247 -0.2276
13526SOL    HW143521   9.504   2.391   1.642 -0.5852 -0.1805  0.9765
13526SOL    HW243522   9.384   2.501   1.624 -0.2006  0.0630 -0.1439
13527SOL     OW43523   5.135   0.333   1.098  0.0082 -0.2301  0.7904
13527SOL    HW143524   5.055   0.293   1.053 -0.7883 -0.1962  2.1228
13527SOL    HW243525   5.196   0.259   1.128  0.2103 -0.2815  0.2592
13528SOL     OW43526   1.504   1.728   1.344  0.2014  0.3966 -0.4832
13528SOL    HW143527   1.547   1.811   1.311  1.7663 -0.0795  0.2950
13528SOL    HW243528   1.567   1.651   1.333 -1.2872 -0.7338 -1.3732
13529SOL     OW43529   3.532   0.415   2.793  0.5142  0.9619 -0.2576
13529SOL    HW143530   3.482   0.391   2.710  1.1152  1.5189 -0.7862
13529SOL    HW243531   3.625   0.378   2.788  0.5655  1.0357  0.1476
13531SOL     OW43532   3.792   3.237   2.646  0.0444  0.6403  0.9352
13531SOL    HW143533   3.754   3.328   2.660 -0.2062  0.6786  0.0068
13531SOL    HW243534   3.749   3.173   2.710 -2.2128  0.5148 -0.6455
13532SOL     OW43535   5.609   0.803   2.780  0.1887 -0.0624 -0.0008
13532SOL    HW143536   5.557   0.775   2.699 -0.8235  1.4786  0.0917
13532SOL    HW243537   5.686   0.740   2.794 -0.3495 -1.0626 -1.4363
13533SOL     OW43538   1.339   2.947   4.857  0.2361  0.0537 -0.3945
13533SOL    HW143539   1.302   2.872   4.801 -0.9662  0.4338 -0.1199
13533SOL    HW243540   1.436   2.959   4.836  0.2594 -1.0933 -0.9821
13536SOL     OW43541   7.134   0.486   2.743  0.0124  0.2675  0.0655
13536SOL    HW143542   7.097   0.421   2.676  1.0054 -0.8618  0.5799
13536SOL    HW243543   7.201   0.439   2.801  0.0380  1.5272  1.0826
13537SOL     OW43544   9.015   5.184   1.791  0.6434  0.5908 -0.2903
13537SOL    HW143545   9.079   5.254   1.824 -0.6221  1.5451  0.1636
13537SOL    HW243546   8.994   5.202   1.695  0.8042  0.4668 -0.3486
13538SOL     OW43547   1.844   2.370   3.207  0.3523 -0.1495  0.1252
13538SOL    HW143548   1.902   2.415   3.275 -1.6173  0.8271  1.1908
13538SOL    HW243549   1.813   2.281   3.242 -0.3646  0.1903  0.3568
13539SOL     OW43550   0.503   4.173   5.150 -0.4866 -0.2604  0.1052
13539SOL    HW143551   0.473   4.267   5.170 -0.9760 -0.1489 -1.0909
13539SOL    HW243552   0.434   4.109   5.181  0.5543 -0.3425  2.3714
13540SOL     OW43553   0.849   7.241   3.894  0.4253  0.2046  0.7569
13540SOL    HW143554   0.831   7.290   3.809  1.5602 -0.8196 -0.0727
13540SOL    HW243555   0.768   7.187   3.918  0.5864 -0.5583 -0.3799
13541SOL     OW43556   6.605   9.048   5.193 -0.1194 -0.0784 -0.1899
13541SOL    HW143557   6.559   9.083   5.275  0.0274 -0.1392 -0.0803
13541SOL    HW243558   6.578   9.103   5.114  0.8471  0.9126  0.1350
13542SOL     OW43559   9.836   5.404   1.814  0.0285  0.4724  0.3226
13542SOL    HW143560   9.835   5.431   1.910 -0.3394 -0.1021  0.4843
13542SOL    HW243561   9.931   5.400   1.781  0.1494  0.7209  0.6453
13543SOL     OW43562   2.014   2.376   2.981 -0.5544 -0.3629 -0.0319
13543SOL    HW143563   1.938   2.374   3.045 -0.6580  1.4848 -0.0444
13543SOL    HW243564   2.068   2.293   2.989 -1.0552 -0.5206  1.8366
13544SOL     OW43565   8.338   9.140   4.629 -0.4238  0.1117  0.2613
13544SOL    HW143566   8.436   9.134   4.613 -0.4623  0.5771 -0.2021
13544SOL    HW243567   8.290   9.138   4.541 -0.7548  1.1017  0.4118
13545SOL     OW43568   7.292   7.812   3.838 -0.0271 -0.6487 -0.2107
13545SOL    HW143569   7.264   7.738   3.900 -1.3337  0.7659  0.9331
13545SOL    HW243570   7.237   7.808   3.755 -0.6018 -0.5425  0.1590
13546SOL     OW43571   3.853   2.735   1.293  0.4597 -0.3787 -0.3135
13546SOL    HW143572   3.870   2.818   1.240  0.8109  0.6376  1.3218
13546SOL    HW243573   3.759   2.705   1.278  0.2604  0.4463 -0.7557
13549SOL     OW43574   4.214   1.335   0.723  0.1995  0.5743 -0.1812
13549SOL    HW143575   4.198   1.378   0.812  3.3562  0.0965  0.6844
13549SOL    HW243576   4.296   1.278   0.728 -0.0831 -0.1703 -3.1640
13550SOL     OW43577   3.550   0.988   1.524  0.2729  0.0904  0.1158
13550SOL    HW143578   3.534   0.938   1.438 -0.1119 -1.9906  1.3643
13550SOL    HW243579   3.647   0.983   1.547  0.3556  0.5461 -0.1261
13551SOL     OW43580   3.828   2.950   2.200  0.1684  1.0146 -0.1794
13551SOL    HW143581   3.730   2.954   2.216  0.0385  1.8470 -1.1169
13551SOL    HW243582   3.856   2.855   2.183 -0.5763  0.8559 -0.5174
13553SOL     OW43583   2.533   7.576   4.461 -0.4755 -0.1132 -0.1906
13553SOL    HW143584   2.475   7.514   4.408 -1.8098 -0.1804  1.3023
13553SOL    HW243585   2.476   7.630   4.524  1.0694 -0.2365  1.3715
13554SOL     OW43586   0.950   1.406   3.151  0.1579  0.1703 -0.0117
13554SOL    HW143587   0.916   1.364   3.234 -1.0538 -0.1668 -0.6603
13554SOL    HW243588   0.974   1.502   3.169  1.6792 -0.4238  1.1499
13555SOL     OW43589   1.566   8.293   2.099 -0.6676 -0.0844 -0.3705
13555SOL    HW143590   1.584   8.207   2.052 -1.5308 -0.9343  0.8211
13555SOL    HW243591   1.547   8.275   2.196 -1.3698  1.3845 -0.2161
13556SOL     OW43592   6.803   3.686   0.519 -0.1590 -0.6294  0.3573
13556SOL    HW143593   6.750   3.602   0.531 -1.8191  0.3836  0.2805
13556SOL    HW243594   6.834   3.719   0.608 -1.7666  0.0973  0.6597
13558SOL     OW43595   5.730   0.421   0.835 -0.7836 -0.2071 -0.4401
13558SOL    HW143596   5.759   0.458   0.747  1.2254 -0.7186 -0.0007
13558SOL    HW243597   5.687   0.494   0.889  1.0780  0.9386 -0.4811
13559SOL     OW43598   1.511   5.131   2.766  0.1635 -0.0511  0.0553
13559SOL    HW143599   1.478   5.128   2.672  0.0342 -0.9355  0.1211
13559SOL    HW243600   1.515   5.226   2.797 -1.4105  0.1344 -0.2656
13561SOL     OW43601   1.545   8.880   0.123  0.3272  0.1538 -0.1586
13561SOL    HW143602   1.590   8.957   0.078 -0.1432  0.2378 -0.4840
13561SOL    HW243603   1.446   8.891   0.118  0.2699  0.3897  1.2751
13562SOL     OW43604   3.352   4.154   3.471  0.3939 -0.5386 -0.6603
13562SOL    HW143605   3.292   4.087   3.426  1.1171 -0.2686 -2.0710
13562SOL    HW243606   3.420   4.186   3.405  0.7162  0.7987  0.3117
13563SOL     OW43607   2.784   6.220   3.887 -0.0409 -0.1380  0.3211
13563SOL    HW143608   2.731   6.272   3.820 -0.4541 -0.4296  0.4145
13563SOL    HW243609   2.865   6.181   3.844 -0.3013 -0.3163 -0.0126
13564SOL     OW43610   8.045   2.243   2.219  0.0747 -0.1724  0.3814
13564SOL    HW143611   8.144   2.255   2.206  0.1478 -1.4627 -0.3560
13564SOL    HW243612   7.997   2.286   2.143 -0.0054  1.5471  1.3792
13569SOL     OW43613   3.161   2.651   3.644 -0.5187  0.2478  0.4929
13569SOL    HW143614   3.108   2.669   3.727 -0.8921 -2.1050  0.8004
13569SOL    HW243615   3.102   2.665   3.564 -1.1247 -0.6979  0.7657
13570SOL     OW43616   1.506   4.557   0.401 -0.0230 -0.3402  0.5130
13570SOL    HW143617   1.412   4.590   0.396 -0.3674 -1.1250  1.6160
13570SOL    HW243618   1.561   4.605   0.333 -0.9945  0.8756  0.5493
13571SOL     OW43619   6.438   5.413   0.281 -0.7847  0.0478  0.1557
13571SOL    HW143620   6.421   5.512   0.280  0.5841  0.2903  0.1481
13571SOL    HW243621   6.377   5.369   0.347  0.1791  1.1920  1.8374
13574SOL     OW43622   4.704   2.451   0.033  0.0569 -0.1171  0.3272
13574SOL    HW143623   4.734   2.411   0.120 -0.9831 -0.0796  0.7032
13574SOL    HW243624   4.645   2.386  -0.014 -0.2920  0.3216  0.1622
13575SOL     OW43625   5.313   1.178   1.748 -0.5199  0.2618  0.6295
13575SOL    HW143626   5.355   1.194   1.658  1.1850  0.1973  1.3909
13575SOL    HW243627   5.296   1.266   1.793  2.3451  0.2373  1.8829
13577SOL     OW43628   1.925   1.129   3.615  0.2302  0.2024  0.1857
13577SOL    HW143629   1.996   1.088   3.558 -0.1750  0.0316 -0.2027
13577SOL    HW243630   1.865   1.185   3.558 -1.3713 -1.5627  0.0871
13578SOL     OW43631   7.162   0.377   2.375 -0.8348  0.6004  0.5332
13578SOL    HW143632   7.199   0.303   2.431 -2.0161  0.9538  1.8047
13578SOL    HW243633   7.174   0.464   2.423 -0.5427  1.0885 -0.4200
13580SOL     OW43634   9.886   5.729   2.533  0.3217  0.4548 -0.0054
13580SOL    HW143635   9.863   5.780   2.616 -1.1868  0.8054 -0.6199
13580SOL    HW243636   9.802   5.697   2.489  1.1450 -0.4565 -0.9468
13581SOL     OW43637   2.168   4.787   4.961  0.8484 -0.1605 -0.2524
13581SOL    HW143638   2.148   4.878   4.924  1.9673 -0.5870 -1.9256
13581SOL    HW243639   2.247   4.792   5.022 -0.8261  0.4908  1.9239
13582SOL     OW43640   6.775   8.416   5.202 -0.4669 -0.0733  0.2406
13582SOL    HW143641   6.685   8.429   5.244 -0.3397  0.1332  0.4532
13582SOL    HW243642   6.788   8.482   5.129 -1.8954 -2.3677 -2.1588
13585SOL     OW43643   8.042   6.828   4.577  0.7403 -0.3683  0.3763
13585SOL    HW143644   8.027   6.907   4.518 -1.8925 -0.7590  0.4639
13585SOL    HW243645   8.015   6.851   4.670  1.7412 -0.7941  0.7760
13587SOL     OW43646   7.709   8.668   4.158 -0.2388 -0.2168 -0.5640
13587SOL    HW143647   7.787   8.607   4.175 -1.7506 -1.5623  1.7877
13587SOL    HW243648   7.727   8.757   4.200  0.7291  0.0179 -1.4620
13588SOL     OW43649   4.697   8.008   4.358 -0.1855 -0.1643 -0.3041
13588SOL    HW143650   4.624   7.954   4.400 -0.3679  0.4695  0.1910
13588SOL    HW243651   4.786   7.976   4.392 -0.2696 -0.4636 -0.3657
13589SOL     OW43652   9.501   5.513   1.690 -0.3145 -0.4489  0.0546
13589SOL    HW143653   9.435   5.440   1.705 -2.5703  1.3423 -0.8239
13589SOL    HW243654   9.575   5.480   1.632 -0.3430 -2.5358  1.1716
13592SOL     OW43655   3.457   8.080   3.959 -0.1718  0.0847  0.2981
13592SOL    HW143656   3.522   8.155   3.968 -1.7874  1.6394 -0.7907
13592SOL    HW243657   3.388   8.088   4.031 -0.9472  0.2607 -0.4629
13593SOL     OW43658   4.613   1.258   2.993  0.7293 -0.4652 -0.4598
13593SOL    HW143659   4.549   1.216   3.058  0.5018 -2.6075 -2.0093
13593SOL    HW243660   4.706   1.253   3.030  0.2727  0.7715  0.8795
13594SOL     OW43661   1.268   5.370   2.284 -0.0256  0.1823 -0.1167
13594SOL    HW143662   1.190   5.429   2.264  1.0088  2.1531  1.4932
13594SOL    HW243663   1.351   5.410   2.244  0.3261 -1.4294 -1.0461
13595SOL     OW43664   6.775   7.661   3.199  0.8620 -0.3101  0.2489
13595SOL    HW143665   6.830   7.605   3.260 -0.2750 -0.0018  1.5650
13595SOL    HW243666   6.678   7.651   3.222  0.5011  0.6041 -0.8311
13596SOL     OW43667   4.321   2.410   1.119 -0.8861  0.1046  0.3801
13596SOL    HW143668   4.345   2.360   1.203 -1.8380 -0.3134  0.4072
13596SOL    HW243669   4.380   2.490   1.110  0.3243 -0.7570  0.5984
13598SOL     OW43670   6.602   9.878   3.212 -0.1852 -0.0156 -0.4541
13598SOL    HW143671   6.684   9.831   3.245 -1.1478 -0.2626  1.7283
13598SOL    HW243672   6.603   9.973   3.242  0.1044  0.4294 -1.8713
13599SOL     OW43673   1.823   4.196   4.826 -0.2402  0.7716 -0.2194
13599SOL    HW143674   1.858   4.279   4.782  0.9563  0.7244  0.6261
13599SOL    HW243675   1.894   4.157   4.884 -1.5041  0.3300  1.0584
13600SOL     OW43676   8.527   2.769   3.139 -0.0233 -0.1589  0.4231
13600SOL    HW143677   8.430   2.747   3.145 -0.4081  1.2821 -0.3232
13600SOL    HW243678   8.556   2.817   3.222 -0.2112  0.3856  0.1756
13601SOL     OW43679   9.317   1.956   5.044 -0.5061  0.3100  0.0138
13601SOL    HW143680   9.252   1.896   5.090  0.0465  0.2759  0.7682
13601SOL    HW243681   9.345   2.029   5.106  0.9748 -0.2854  0.0576
13602SOL     OW43682   9.921   0.060   4.737 -0.6305  0.0311 -0.3466
13602SOL    HW143683   9.955   0.152   4.756 -1.9057  0.4620 -0.1492
13602SOL    HW243684   9.997   0.003   4.706  0.1623  1.1492 -0.4909
13603SOL     OW43685   3.168   8.506   3.830 -0.3138  0.1698 -0.3764
13603SOL    HW143686   3.231   8.571   3.787  0.0795 -1.4761 -2.3895
13603SOL    HW243687   3.076   8.521   3.794  0.0826 -1.4561 -2.1806
13604SOL     OW43688   5.952   5.005   0.872 -0.0707  0.7664  0.0900
13604SOL    HW143689   5.999   4.995   0.960  0.0685  1.3488  0.0811
13604SOL    HW243690   5.887   4.929   0.861 -0.1794  0.7563  0.7493
13605SOL     OW43691   5.008   2.855   2.578  0.1768 -0.0512 -0.1037
13605SOL    HW143692   4.943   2.842   2.652  0.2871 -0.7666 -0.1262
13605SOL    HW243693   4.959   2.874   2.493  0.0270  0.1390  0.0259
13606SOL     OW43694   8.504   1.684   1.646  0.7844 -0.2844 -0.0303
13606SOL    HW143695   8.440   1.744   1.694 -0.9405 -0.6228 -1.8318
13606SOL    HW243696   8.475   1.589   1.657 -0.3707 -0.2848 -2.7132
13610SOL     OW43697   9.490   5.224   1.337 -0.2855 -0.1564 -0.5624
13610SOL    HW143698   9.534   5.185   1.418  0.9468  0.7287 -0.7925
13610SOL    HW243699   9.443   5.152   1.286 -0.8149 -0.7692  0.7712
13611SOL     OW43700   3.335   3.171   3.876 -0.6740 -0.1295 -0.1762
13611SOL    HW143701   3.396   3.202   3.948 -1.4817 -0.4873  0.6769
13611SOL    HW243702   3.240   3.188   3.903 -1.0661 -2.0037 -0.3185
13612SOL     OW43703   9.197   9.549   2.821 -0.0090 -0.2964 -0.4094
13612SOL    HW143704   9.289   9.514   2.839 -0.7245 -1.3642  1.2690
13612SOL    HW243705   9.148   9.487   2.761 -0.2481 -0.6483  0.1483
13615SOL     OW43706   8.202   7.271   3.132 -0.4321  0.0997 -0.0981
13615SOL    HW143707   8.102   7.266   3.144 -0.4876  1.2908 -0.0882
13615SOL    HW243708   8.224   7.272   3.035 -0.4080 -0.3254 -0.1023
13616SOL     OW43709   9.153   5.592   3.744  0.1369  0.4063  0.7122
13616SOL    HW143710   9.067   5.559   3.781  0.6206 -1.7495 -0.0366
13616SOL    HW243711   9.141   5.620   3.648  0.4034 -0.5016  0.4101
13618SOL     OW43712   0.323   1.765   3.877  0.0352  0.5189  0.0049
13618SOL    HW143713   0.234   1.749   3.919 -0.1975 -0.4108 -0.8145
13618SOL    HW243714   0.316   1.839   3.810 -0.8263 -1.3769 -2.1093
13619SOL     OW43715   1.813   7.787   2.278  0.0458 -0.2297  0.3609
13619SOL    HW143716   1.817   7.707   2.218 -0.5903  0.1958 -0.2698
13619SOL    HW243717   1.811   7.758   2.373  0.2975 -0.9481  0.1479
13620SOL     OW43718   4.385   9.545   1.905 -0.3025 -0.3201 -0.7490
13620SOL    HW143719   4.461   9.481   1.919  0.0694 -0.1376 -1.8328
13620SOL    HW243720   4.396   9.590   1.816 -1.8001 -0.4432 -1.0081
13621SOL     OW43721   9.819   2.311   2.325 -0.1394  0.0374  0.0575
13621SOL    HW143722   9.865   2.248   2.262 -1.7283 -1.4204  0.3131
13621SOL    HW243723   9.737   2.347   2.281 -0.2746  0.4214  0.6243
13623SOL     OW43724   0.417   9.667   2.561  0.2576  0.5105  0.0203
13623SOL    HW143725   0.455   9.636   2.648 -0.8619 -2.2239 -0.4341
13623SOL    HW243726   0.469   9.746   2.529  0.9103  1.3326  2.9679
13624SOL     OW43727   8.259   3.711   1.168 -0.0715  0.2052  0.1049
13624SOL    HW143728   8.198   3.709   1.090 -0.5558 -2.0768  0.4932
13624SOL    HW243729   8.309   3.797   1.170 -0.6477  0.6116 -2.2391
13625SOL     OW43730   6.207   9.021   2.252 -0.1780  0.0488  0.3149
13625SOL    HW143731   6.154   9.097   2.215  0.3133  0.8086  1.1356
13625SOL    HW243732   6.274   9.056   2.317 -1.0810 -1.2538  1.9905
13626SOL     OW43733   6.120   8.742   2.094  0.5846 -0.3486 -0.2575
13626SOL    HW143734   6.170   8.803   2.033  2.0881 -2.5879 -1.3415
13626SOL    HW243735   6.134   8.771   2.189  2.4555  0.1549 -0.6661
13627SOL     OW43736   7.284   1.464   1.548 -0.5309 -0.1341  0.0478
13627SOL    HW143737   7.203   1.468   1.488  0.3078  0.2311 -1.0883
13627SOL    HW243738   7.255   1.444   1.641 -1.9768  0.3922 -0.2674
13630SOL     OW43739   2.827   1.920   2.086 -0.0170  0.2341  0.4991
13630SOL    HW143740   2.732   1.912   2.115 -0.8491 -0.0378 -2.2282
13630SOL    HW243741   2.837   1.885   1.993  2.2706  2.4902 -0.1640
13631SOL     OW43742   9.234   5.358   0.539  0.7084  0.1667 -0.2616
13631SOL    HW143743   9.266   5.453   0.537  1.4086 -0.0655  0.0094
13631SOL    HW243744   9.272   5.311   0.618 -0.5420 -0.0330  0.2334
13632SOL     OW43745   1.957   3.735   5.001  0.3937  0.3742  0.2019
13632SOL    HW143746   1.885   3.749   4.933 -1.2197 -0.0437  1.7842
13632SOL    HW243747   1.963   3.816   5.060  1.3203  0.4624 -0.0122
13633SOL     OW43748   9.282   6.485   1.043 -0.1637 -0.2012  0.2308
13633SOL    HW143749   9.193   6.524   1.067 -1.0380 -0.4172 -2.4583
13633SOL    HW243750   9.352   6.556   1.044 -0.0483 -0.2861  3.6805
13635SOL     OW43751   9.049   9.916   4.934  0.3705 -0.3572  1.2040
13635SOL    HW143752   9.004   9.871   5.011 -1.9585 -1.5391 -0.7604
13635SOL    HW243753   9.077   9.847   4.868  0.4906  0.7709  0.0673
13637SOL     OW43754   5.526   0.432   2.106 -0.1008 -0.5362 -0.0641
13637SOL    HW143755   5.472   0.492   2.046 -2.5590 -1.5172  1.0987
13637SOL    HW243756   5.525   0.339   2.069  0.2385 -0.6922  0.3258
13638SOL     OW43757   2.099   6.944   0.305 -0.5444  0.3315  0.7221
13638SOL    HW143758   2.055   6.888   0.374  0.2038 -1.0047  0.1340
13638SOL    HW243759   2.051   6.934   0.218 -0.3104  0.4567  0.5762
13639SOL     OW43760   0.864   0.699   3.730 -0.5778  0.0055 -0.1949
13639SOL    HW143761   0.953   0.724   3.769 -1.0294  1.5933 -0.1674
13639SOL    HW243762   0.794   0.702   3.802 -0.8351 -0.2701 -0.4316
13640SOL     OW43763   0.803   5.785   0.280  0.1817 -0.7091 -0.3880
13640SOL    HW143764   0.818   5.751   0.373 -1.0034  0.0935  0.1164
13640SOL    HW243765   0.855   5.729   0.215  2.6656 -0.0365  0.9281
13641SOL     OW43766   8.410   9.488   4.494  0.2198  0.6096  0.4229
13641SOL    HW143767   8.313   9.465   4.483 -0.0216  1.8998 -0.1865
13641SOL    HW243768   8.463   9.447   4.420 -0.1389  1.5769 -0.3723
13642SOL     OW43769   4.597   2.951   3.412  0.1663  0.1276 -0.1795
13642SOL    HW143770   4.670   2.971   3.347  1.5215  2.2573  1.8996
13642SOL    HW243771   4.589   2.853   3.426  1.0465 -0.2444 -2.1838
13643SOL     OW43772   8.182   8.640   1.699 -0.4480 -0.0925  0.7010
13643SOL    HW143773   8.275   8.667   1.674 -1.0047  0.0867 -1.2928
13643SOL    HW243774   8.180   8.610   1.794  1.4127  1.0255  1.1186
13644SOL     OW43775   6.826   0.745   4.264 -0.3785  0.3796  0.6004
13644SOL    HW143776   6.797   0.834   4.301 -1.5483 -0.0352  0.6818
13644SOL    HW243777   6.853   0.685   4.340  1.4632  1.0204  0.4798
13645SOL     OW43778   1.523   5.959   4.708 -0.4440 -0.3190 -0.3097
13645SOL    HW143779   1.542   6.027   4.637 -0.3173 -0.1769 -0.1388
13645SOL    HW243780   1.602   5.900   4.719  0.5930  1.3632  1.6293
13646SOL     OW43781   9.495   7.904   1.166 -0.0728  0.0567 -0.4181
13646SOL    HW143782   9.574   7.940   1.214 -1.1831  0.3549  1.2432
13646SOL    HW243783   9.418   7.967   1.177 -0.3820  0.0796 -2.5345
13647SOL     OW43784   5.767   9.041   4.017 -0.4050  0.1739  0.5483
13647SOL    HW143785   5.678   9.087   4.026 -0.8125 -0.5782  0.4034
13647SOL    HW243786   5.811   9.072   3.933 -0.0635  1.3328  1.1446
13648SOL     OW43787   9.630   9.388   4.139  0.1821  0.0371  0.9486
13648SOL    HW143788   9.543   9.421   4.102 -0.5000 -1.4408  1.1736
13648SOL    HW243789   9.640   9.418   4.234 -0.3159 -0.2070  1.0790
13649SOL     OW43790   0.736   7.630   3.522  0.4430  0.2064  0.3296
13649SOL    HW143791   0.739   7.712   3.579 -0.1373  0.3487  0.1611
13649SOL    HW243792   0.827   7.611   3.486  0.4153  1.2604 -0.3118
13650SOL     OW43793   9.032   7.986   1.153 -0.4975  0.2866 -0.2157
13650SOL    HW143794   9.009   7.895   1.119  1.0140 -0.5640  0.9551
13650SOL    HW243795   8.994   7.997   1.245  0.5387  0.2922  0.2155
13652SOL     OW43796   0.910   6.960   2.047  0.7100  0.0504  0.4227
13652SOL    HW143797   0.896   7.019   2.126 -0.7717  0.4602 -0.1263
13652SOL    HW243798   0.942   6.870   2.077 -0.3823  0.0222  1.5224
13653SOL     OW43799   7.383   8.238   3.550  0.4319 -0.3112  0.4087
13653SOL    HW143800   7.381   8.271   3.455  0.2474  0.4361  0.6732
13653SOL    HW243801   7.311   8.170   3.563  0.5776 -0.5541 -0.0366
13654SOL     OW43802   5.613   9.329   2.970 -0.4084 -0.2962  0.0983
13654SOL    HW143803   5.640   9.266   2.897  0.9913 -0.4110  0.6981
13654SOL    HW243804   5.530   9.376   2.944 -0.0763 -0.5433 -1.4604
13656SOL     OW43805   8.000   9.445   1.015 -0.6213  0.0930  0.8085
13656SOL    HW143806   7.979   9.491   1.101  0.0054 -0.5718  1.3270
13656SOL    HW243807   8.096   9.417   1.014 -0.1097  1.8607 -0.9600
13657SOL     OW43808   2.885   4.440   2.975  0.1148  0.1394  0.7281
13657SOL    HW143809   2.792   4.469   2.953  0.2786 -0.0970 -0.2894
13657SOL    HW243810   2.892   4.422   3.073 -0.6044  1.2853  0.9947
13658SOL     OW43811   0.082   2.648   3.045  0.2332 -0.1636 -0.3187
13658SOL    HW143812   0.040   2.739   3.052  1.5128  0.5455 -1.5671
13658SOL    HW243813   0.047   2.590   3.118 -1.0743  1.1421  0.1286
13659SOL     OW43814   2.966   7.901   0.634 -0.3016  0.0789  0.0113
13659SOL    HW143815   2.913   7.972   0.589 -0.6740 -1.0084 -1.2866
13659SOL    HW243816   3.058   7.936   0.655 -0.0198  0.5001 -1.8783
13660SOL     OW43817   9.588   9.464   0.439  0.1200 -0.2380  0.5269
13660SOL    HW143818   9.496   9.434   0.412  0.3557 -0.4962  0.0068
13660SOL    HW243819   9.592   9.474   0.539 -0.3367 -0.6861  0.5934
13661SOL     OW43820   1.308   6.544   3.695  0.5691 -0.1434 -0.1257
13661SOL    HW143821   1.394   6.579   3.658 -0.1374 -1.0672 -2.7016
13661SOL    HW243822   1.257   6.619   3.736  0.5077  1.3041 -2.7549
13662SOL     OW43823   0.848   6.162   2.498  0.2388 -0.0854  0.2963
13662SOL    HW143824   0.854   6.251   2.543  1.8116 -0.2418  0.4291
13662SOL    HW243825   0.768   6.161   2.437 -0.8956  0.7368  1.7215
13663SOL     OW43826   4.669   6.729   1.417  0.0343 -0.4715  0.4320
13663SOL    HW143827   4.674   6.630   1.406  0.0131 -0.4007 -0.2778
13663SOL    HW243828   4.623   6.752   1.502  2.0070 -1.0847  1.7036
13664SOL     OW43829   9.899   6.170   4.725  0.0689 -0.1619 -0.4965
13664SOL    HW143830   9.885   6.237   4.798  2.0999 -0.4038  0.1303
13664SOL    HW243831   9.892   6.078   4.763 -1.7694 -0.3373 -1.1839
13665SOL     OW43832   1.180   9.021   4.364  0.1488 -0.4452 -0.6191
13665SOL    HW143833   1.134   9.077   4.433 -1.6536 -1.6758 -0.7763
13665SOL    HW243834   1.266   8.986   4.401 -0.0149  0.2326  0.4158
13667SOL     OW43835   1.937   5.235   5.032 -0.6089  0.9087  0.3189
13667SOL    HW143836   1.844   5.207   5.055 -0.9642  0.5721 -1.4543
13667SOL    HW243837   1.935   5.292   4.950  0.6933  1.3792  0.6030
13668SOL     OW43838   9.516   0.858   1.779  0.2022  0.1740  0.4350
13668SOL    HW143839   9.599   0.912   1.791  0.9443 -1.0229  0.8126
13668SOL    HW243840   9.445   0.891   1.842  0.1311  1.6721 -0.4071
13669SOL     OW43841   4.561   1.079   2.749  0.5256  0.1766 -0.9333
13669SOL    HW143842   4.541   1.121   2.838  0.9508 -0.7700 -0.3876
13669SOL    HW243843   4.481   1.086   2.690 -0.0498  0.0220 -0.1723
13671SOL     OW43844   0.551   7.903   0.952  0.2435 -0.1909 -0.0287
13671SOL    HW143845   0.559   7.911   1.051 -0.4131 -1.5217  0.1426
13671SOL    HW243846   0.454   7.909   0.926  0.3110 -1.0266 -0.4775
13672SOL     OW43847   7.133   7.538   4.774  1.0564 -0.1864  0.2446
13672SOL    HW143848   7.164   7.515   4.682  0.5767  1.2675 -0.2924
13672SOL    HW243849   7.212   7.563   4.830  1.6307 -3.2916  0.9258
13673SOL     OW43850   4.351   4.697   3.240 -0.0011  0.1482  0.1698
13673SOL    HW143851   4.251   4.701   3.238  0.0642  1.4875 -1.2206
13673SOL    HW243852   4.382   4.688   3.335 -1.4272  0.0512  0.6425
13674SOL     OW43853   4.938   6.987   2.016 -0.2328  0.1823 -0.4049
13674SOL    HW143854   4.943   7.080   1.980  1.1046  0.0758 -0.5406
13674SOL    HW243855   4.996   6.980   2.098  2.2604 -1.3236 -2.2237
13675SOL     OW43856   1.864   8.431   2.911  0.1478 -0.4130 -0.0323
13675SOL    HW143857   1.844   8.351   2.968 -0.4106  0.1248  0.5316
13675SOL    HW243858   1.870   8.512   2.968  0.6696 -0.0395 -0.6108
13676SOL     OW43859   7.637   4.650   1.049  0.2950  0.2680  0.4336
13676SOL    HW143860   7.588   4.665   0.963  2.4783  1.9789 -0.5787
13676SOL    HW243861   7.611   4.562   1.088 -3.4989  1.0918 -0.0671
13677SOL     OW43862   8.459   4.787   1.563 -0.0178  0.1179 -0.7290
13677SOL    HW143863   8.499   4.865   1.515 -1.8600  0.8585 -1.1310
13677SOL    HW243864   8.504   4.774   1.651  1.0892  0.9072 -1.1751
13678SOL     OW43865   3.413   5.421   3.327  0.4649 -1.1573 -0.6035
13678SOL    HW143866   3.328   5.372   3.310 -0.5398  0.7237 -1.0220
13678SOL    HW243867   3.461   5.435   3.241 -0.2649  0.4293 -0.7593
13679SOL     OW43868   6.610   0.696   3.495 -0.2059 -0.3145 -0.6502
13679SOL    HW143869   6.611   0.786   3.538  0.4490 -0.4197 -0.4464
13679SOL    HW243870   6.533   0.691   3.431 -0.0911  0.4745 -0.8533
13680SOL     OW43871   9.682   0.699   1.955  0.1001 -0.1983  0.5904
13680SOL    HW143872   9.779   0.722   1.940  0.4045 -1.6487  0.2659
13680SOL    HW243873   9.627   0.742   1.884  0.7638 -1.1718 -0.5319
13681SOL     OW43874   2.089   4.829   2.849 -0.2495 -0.2480  0.2583
13681SOL    HW143875   2.051   4.795   2.935 -1.7946  1.0844  0.1348
13681SOL    HW243876   2.174   4.878   2.867 -2.0359  2.5647  1.4809
13682SOL     OW43877   8.768   9.845   2.935 -0.0142  0.0787  0.2205
13682SOL    HW143878   8.674   9.868   2.958  0.6938  1.9738  1.2674
13682SOL    HW243879   8.788   9.751   2.966 -1.0592  0.2438  1.4287
13683SOL     OW43880   0.668   6.677   5.290 -0.5591  0.1099  0.2058
13683SOL    HW143881   0.644   6.605   5.355 -1.3885  0.1243 -0.0807
13683SOL    HW243882   0.592   6.742   5.283  0.4175  1.3656  0.9370
13684SOL     OW43883   7.667   1.193   2.976 -0.4348 -0.4975 -0.2507
13684SOL    HW143884   7.639   1.166   2.884  0.8481  1.1068 -1.1543
13684SOL    HW243885   7.763   1.167   2.990  0.1025  1.3315 -0.2764
13685SOL     OW43886   9.076   0.879   3.377  0.2496 -0.0385 -0.1102
13685SOL    HW143887   9.167   0.919   3.363  0.5477 -0.7854 -0.3717
13685SOL    HW243888   9.009   0.931   3.324  1.1489 -1.9336 -3.2618
13687SOL     OW43889   2.327   9.287   4.820 -0.1812 -0.0127 -0.1251
13687SOL    HW143890   2.237   9.259   4.853 -1.3321  0.8451 -2.3870
13687SOL    HW243891   2.345   9.382   4.846  0.9834 -0.8029  2.0773
13688SOL     OW43892   7.134   2.475   1.517 -0.5035 -0.0009 -0.1809
13688SOL    HW143893   7.122   2.386   1.474 -1.5042  0.2182 -0.3581
13688SOL    HW243894   7.227   2.482   1.554  0.2357 -0.3554 -1.9104
13690SOL     OW43895   0.579   9.962   1.043 -0.3438 -0.1035  0.1302
13690SOL    HW143896   0.529   9.881   1.072  1.3228 -1.6983 -1.3771
13690SOL    HW243897   0.665   9.969   1.095  0.5734 -0.5655 -1.2896
13691SOL     OW43898   2.128   8.175   2.481  0.2402  0.1204 -0.2585
13691SOL    HW143899   2.052   8.118   2.511  0.3335  0.0748 -0.1072
13691SOL    HW243900   2.167   8.136   2.397  1.0604 -0.7171  0.4948
13693SOL     OW43901   0.368   9.980   1.623  0.2777 -0.1455 -0.0747
13693SOL    HW143902   0.426  10.060   1.639  1.4140 -0.9601 -0.0944
13693SOL    HW243903   0.286   9.987   1.679  0.1167  1.2878 -0.4646
13694SOL     OW43904   1.380   3.825   3.735 -0.3244  0.0658  0.6224
13694SOL    HW143905   1.426   3.904   3.774 -0.1817  0.0212  0.5442
13694SOL    HW243906   1.400   3.819   3.638  0.6532 -0.7556  0.8648
13695SOL     OW43907   8.842   1.109   1.614 -0.1701 -0.3859 -0.3421
13695SOL    HW143908   8.791   1.190   1.585  0.9979  0.5951  0.3258
13695SOL    HW243909   8.907   1.084   1.542  0.6019  0.2411  0.1310
13699SOL     OW43910   5.997   9.330   4.955  0.0965  0.1961  0.7218
13699SOL    HW143911   5.961   9.273   5.029  1.1322  0.9487  1.8128
13699SOL    HW243912   5.932   9.404   4.936 -0.0156  0.1941  1.0921
13700SOL     OW43913   3.361   9.925   2.054 -0.1241 -0.6603  0.0447
13700SOL    HW143914   3.360   9.836   2.008 -4.0077 -0.8899  0.4569
13700SOL    HW243915   3.345   9.913   2.152 -1.0545  0.4965  0.0467
13701SOL     OW43916   1.276   5.130   2.175 -0.0156  0.0397  0.3332
13701SOL    HW143917   1.342   5.070   2.221  0.4053  0.7419  0.6558
13701SOL    HW243918   1.273   5.218   2.222 -0.6534  0.2613 -0.1193
13702SOL     OW43919   8.743   3.317   0.361  0.2494 -0.1853 -0.1813
13702SOL    HW143920   8.783   3.251   0.424 -0.0366 -0.8424 -0.6784
13702SOL    HW243921   8.656   3.349   0.397  0.2759 -0.2555 -0.0556
13703SOL     OW43922   3.378   3.533   0.017 -0.0363 -0.3928 -0.3173
13703SOL    HW143923   3.355   3.627   0.043 -1.8581 -0.6198 -1.0579
13703SOL    HW243924   3.305   3.471   0.046  0.9159 -1.5278 -0.2961
13704SOL     OW43925   4.476   1.639   3.082  0.2970  0.0726  0.4016
13704SOL    HW143926   4.461   1.689   3.167 -0.0981 -2.4907  1.8977
13704SOL    HW243927   4.542   1.565   3.098 -1.0716 -1.5155 -1.0592
13705SOL     OW43928   8.424   2.970   3.608 -0.6450 -0.5305  0.0285
13705SOL    HW143929   8.439   3.067   3.592 -1.5214 -0.8493 -2.9094
13705SOL    HW243930   8.472   2.943   3.692  2.8481  1.5733 -1.1688
13707SOL     OW43931   8.758   0.141   0.078  0.4807  0.2045 -0.2611
13707SOL    HW143932   8.678   0.109   0.026  0.0953  1.4274 -0.4471
13707SOL    HW243933   8.841   0.126   0.024  0.8558 -4.3896  1.3584
13708SOL     OW43934   2.329   6.638   3.388  0.0723 -0.0447  0.2482
13708SOL    HW143935   2.233   6.620   3.366  0.4540 -0.9998 -0.6621
13708SOL    HW243936   2.381   6.648   3.303  1.0884 -1.1837  0.7187
13709SOL     OW43937   3.712   2.938   0.142 -0.4121 -0.7877  0.1843
13709SOL    HW143938   3.728   2.866   0.209  0.4274  0.3752  1.2635
13709SOL    HW243939   3.614   2.958   0.137 -0.3287  0.2057  2.2347
13710SOL     OW43940   2.852   0.675   1.545 -0.5973 -0.1314 -0.7961
13710SOL    HW143941   2.852   0.735   1.465 -2.3230  0.0450 -0.6804
13710SOL    HW243942   2.864   0.580   1.516 -0.0307  0.0427 -1.1500
13712SOL     OW43943   7.649   0.494   1.262  0.7345  0.0525  0.9404
13712SOL    HW143944   7.711   0.556   1.214  0.3917 -0.5492 -0.3103
13712SOL    HW243945   7.588   0.546   1.321  0.6550  0.8902  0.1368
13713SOL     OW43946   1.192   0.037   1.910 -0.0420 -0.4569  0.3226
13713SOL    HW143947   1.277   0.035   1.858 -0.3254 -1.2474 -0.1133
13713SOL    HW243948   1.211   0.014   2.005  0.2788 -0.2960  0.2983
13714SOL     OW43949   3.544   7.136   4.222 -0.3886 -0.1032  0.3658
13714SOL    HW143950   3.555   7.218   4.166 -0.9626  0.4319  1.0289
13714SOL    HW243951   3.608   7.140   4.299 -0.3102 -0.3583  0.3159
13715SOL     OW43952   3.907   6.581   2.783  0.3692 -0.1346 -0.4882
13715SOL    HW143953   3.900   6.578   2.684  0.5265 -1.2698 -0.4669
13715SOL    HW243954   3.933   6.673   2.812  0.3110  0.1997 -1.4948
13716SOL     OW43955   7.290   1.354   2.242 -0.1498 -0.4113  0.0987
13716SOL    HW143956   7.386   1.375   2.224 -0.3087  1.0677  0.8644
13716SOL    HW243957   7.283   1.295   2.322  0.1959 -1.7859 -0.8710
13717SOL     OW43958   7.336   1.820   3.901 -0.6873  0.2971 -0.1420
13717SOL    HW143959   7.270   1.790   3.970 -1.6677  0.8962 -0.8002
13717SOL    HW243960   7.425   1.834   3.943 -1.1660  0.2051  0.9082
13718SOL     OW43961   4.921   4.464   2.052 -0.3841 -0.0153  0.2687
13718SOL    HW143962   4.848   4.512   2.101 -1.9325 -1.0576 -0.9748
13718SOL    HW243963   4.988   4.428   2.118 -0.6159  1.5269  1.3666
13719SOL     OW43964   6.843   2.368   4.070  0.4630 -0.1582 -0.4858
13719SOL    HW143965   6.886   2.440   4.125  1.6619 -0.5001 -0.9755
13719SOL    HW243966   6.791   2.307   4.130 -0.6291  1.1500 -0.0721
13721SOL     OW43967   5.668   9.148   1.284  0.2629 -0.1399  0.7374
13721SOL    HW143968   5.649   9.075   1.350  1.1293  0.2019  1.3786
13721SOL    HW243969   5.756   9.131   1.241  0.1789  0.2038  0.4337
13722SOL     OW43970   9.041   8.234   1.978  0.4290 -0.4742  0.4065
13722SOL    HW143971   9.078   8.227   2.071  0.0689  1.9632  0.7498
13722SOL    HW243972   9.116   8.225   1.912  1.2273  1.3157  1.0271
13723SOL     OW43973   9.871   6.751   2.652  0.2782 -0.4192  0.5570
13723SOL    HW143974   9.890   6.659   2.686 -0.0093 -0.4564  0.6197
13723SOL    HW243975   9.934   6.816   2.694  1.3016 -0.7585 -0.4153
13724SOL     OW43976   3.781   6.599   3.082 -0.2948  0.0988  0.0315
13724SOL    HW143977   3.779   6.504   3.051 -0.7247 -0.1290  0.7244
13724SOL    HW243978   3.701   6.647   3.048 -1.6099 -0.5809  2.0606
13725SOL     OW43979   3.290   8.467   2.996  0.9114  0.1774  0.0523
13725SOL    HW143980   3.238   8.549   3.016  1.8213  1.3030 -2.0445
13725SOL    HW243981   3.231   8.398   2.954  0.3996  0.1556  0.7969
13726SOL     OW43982   7.384   4.000   1.048  0.6645  0.0730 -0.1528
13726SOL    HW143983   7.350   3.917   1.004 -0.8019  0.7769 -0.3628
13726SOL    HW243984   7.459   4.039   0.994  0.9013 -0.7317 -0.4079
13727SOL     OW43985   2.515   5.493   4.499  0.0302  0.3616  0.3617
13727SOL    HW143986   2.581   5.422   4.525 -1.5275 -0.5063  2.0833
13727SOL    HW243987   2.529   5.574   4.556 -0.4800  0.1148  0.8446
13728SOL     OW43988   7.325   0.898   2.164 -0.2627 -0.0349 -0.1040
13728SOL    HW143989   7.269   0.842   2.224  1.1125 -1.5984 -0.2535
13728SOL    HW243990   7.348   0.847   2.082 -0.3067  1.3196 -0.9853
13729SOL     OW43991   9.153   4.553   0.291  0.4153  0.0947 -0.1618
13729SOL    HW143992   9.165   4.570   0.389 -2.7774  2.4957 -0.1139
13729SOL    HW243993   9.078   4.488   0.277  2.5142 -2.2522 -0.9855
13730SOL     OW43994   8.586   7.259   0.547  0.1193 -0.0817 -0.1436
13730SOL    HW143995   8.579   7.197   0.468  0.3107  0.7484 -0.8234
13730SOL    HW243996   8.638   7.340   0.520  0.1156  0.2389  0.8236
13731SOL     OW43997   2.459   5.442   2.626  0.8856 -0.1874  0.2025
13731SOL    HW143998   2.383   5.409   2.571  1.5999 -0.3811 -0.6755
13731SOL    HW243999   2.428   5.517   2.685 -0.2427 -1.0000  0.6672
13732SOL     OW44000   0.552   4.672   3.293 -0.3610 -0.4569 -0.1781
13732SOL    HW144001   0.504   4.720   3.219  1.4894  0.3377 -0.9030
13732SOL    HW244002   0.523   4.708   3.381 -1.0325  0.0658 -0.6088
13734SOL     OW44003   3.201   5.271   2.002  0.5609 -0.0663 -0.2517
13734SOL    HW144004   3.280   5.265   1.941  1.8112  0.8820  1.2333
13734SOL    HW244005   3.147   5.351   1.978  1.2472  0.5090  0.0718
13735SOL     OW44006   2.305   2.901   3.791 -0.3367  0.1355  0.1518
13735SOL    HW144007   2.209   2.872   3.788  0.6369 -3.2579 -1.0119
13735SOL    HW244008   2.314   2.992   3.751 -2.7606 -0.5095 -2.0123
13736SOL     OW44009   2.272   6.996   1.489  0.0200 -0.3893  0.2238
13736SOL    HW144010   2.307   6.908   1.521 -3.1332 -1.1220  1.9622
13736SOL    HW244011   2.284   7.003   1.390  0.7244 -2.6053  0.1315
13737SOL     OW44012   3.370   2.856   1.144  0.3010 -0.5202  0.6631
13737SOL    HW144013   3.323   2.877   1.230 -2.7239 -3.8799 -0.0484
13737SOL    HW244014   3.442   2.788   1.161 -1.1772 -2.1861  0.3918
13739SOL     OW44015   8.074   9.603   5.252  0.3716 -0.0525 -0.1146
13739SOL    HW144016   8.046   9.540   5.324 -0.0148  0.7789  0.4690
13739SOL    HW244017   8.174   9.613   5.253  0.5437 -1.6465 -1.0467
13740SOL     OW44018   7.147   3.622   1.925  0.3750 -0.1139  0.4672
13740SOL    HW144019   7.131   3.630   2.024 -1.2408  1.8100  0.0906
13740SOL    HW244020   7.176   3.711   1.889  0.2397 -0.6214 -0.9300
13741SOL     OW44021   7.844   2.519   2.295  0.3066 -0.3485  0.5440
13741SOL    HW144022   7.841   2.505   2.394 -0.8461 -0.9946  0.4243
13741SOL    HW244023   7.826   2.616   2.275 -1.0656 -0.5144  0.8947
13743SOL     OW44024   1.996   6.319   0.842 -0.7617  0.4340  0.1291
13743SOL    HW144025   1.933   6.374   0.786 -1.5685 -0.5202  0.0668
13743SOL    HW244026   1.999   6.226   0.805 -2.1385 -0.5165  2.2943
13747SOL     OW44027   9.603   8.119   2.121 -0.3256  0.7827  0.6853
13747SOL    HW144028   9.610   8.131   2.220 -3.5636 -2.4952  1.4186
13747SOL    HW244029   9.686   8.075   2.086  0.3531  0.8976  2.1304
13748SOL     OW44030   2.591   3.978   1.116  0.1046 -0.4073  0.2584
13748SOL    HW144031   2.661   3.981   1.045 -0.2421 -0.0501 -0.0748
13748SOL    HW244032   2.600   4.059   1.175 -0.8942  0.3586 -0.6276
13749SOL     OW44033   3.416   3.536   2.886 -0.9684 -0.1950 -0.2239
13749SOL    HW144034   3.438   3.454   2.834 -0.1691  0.4311 -0.8902
13749SOL    HW244035   3.395   3.611   2.823 -2.0097  0.0369  0.3797
13751SOL     OW44036   0.865   2.549   1.832  0.3416  0.2676 -0.3280
13751SOL    HW144037   0.782   2.492   1.834  0.7703 -0.4435 -2.0730
13751SOL    HW244038   0.863   2.608   1.752  1.3019  0.5779 -0.1258
13752SOL     OW44039   0.878   5.326   1.288  0.3753 -0.1338  0.2531
13752SOL    HW144040   0.896   5.415   1.330 -0.5526 -0.1719  0.7506
13752SOL    HW244041   0.964   5.277   1.273  0.7543  0.1367  1.5556
13753SOL     OW44042   6.681   1.026   4.982 -0.2027 -0.7370 -0.3483
13753SOL    HW144043   6.651   0.932   5.000  0.0611 -1.1188 -1.7712
13753SOL    HW244044   6.712   1.068   5.067  2.9376 -3.1340 -0.1868
13754SOL     OW44045   0.241   6.118   1.248  0.0141 -0.2271 -0.7133
13754SOL    HW144046   0.293   6.183   1.193  0.1863  0.4742  0.2675
13754SOL    HW244047   0.302   6.069   1.309 -0.3715  0.0944 -0.0605
13755SOL     OW44048   9.561   0.807   3.944  0.2121 -0.4624 -0.1407
13755SOL    HW144049   9.463   0.790   3.929  0.2006 -0.1742 -0.3979
13755SOL    HW244050   9.611   0.785   3.860  0.1604  1.0837 -0.5999
13756SOL     OW44051   3.366   2.984   1.827  0.0705 -0.0881 -0.1910
13756SOL    HW144052   3.449   3.031   1.856 -1.1248  1.1828  1.2313
13756SOL    HW244053   3.383   2.885   1.824  1.6299  0.1662  0.0666
13757SOL     OW44054   0.918   5.850   0.931  0.1147 -0.6971 -0.2041
13757SOL    HW144055   0.988   5.819   0.866 -0.3168 -1.1206 -0.4723
13757SOL    HW244056   0.829   5.813   0.904  0.1075 -1.7839  1.2438
13759SOL     OW44057   8.702   6.635   4.320  0.1722  0.2708 -0.0924
13759SOL    HW144058   8.610   6.600   4.341  0.7493  0.1857  2.4363
13759SOL    HW244059   8.696   6.732   4.297 -0.6865 -0.0073 -1.0681
13760SOL     OW44060   7.656   9.409   2.499  0.0689  0.2216 -0.0751
13760SOL    HW144061   7.667   9.497   2.545  0.0666 -0.8685  2.0585
13760SOL    HW244062   7.739   9.355   2.510 -1.2041 -1.4551  1.7778
13761SOL     OW44063   1.615   0.182   4.217 -0.1014 -0.8558 -0.2968
13761SOL    HW144064   1.541   0.149   4.159 -0.9456 -1.0885  0.8950
13761SOL    HW244065   1.637   0.277   4.193  0.3233 -1.2943 -1.7264
13762SOL     OW44066   0.718   1.641   1.246  1.0060 -0.0947  0.0970
13762SOL    HW144067   0.676   1.724   1.283  0.9322 -1.3242  2.8591
13762SOL    HW244068   0.813   1.660   1.220  0.8476  0.9576  0.2830
13763SOL     OW44069   3.623   9.737   0.921 -0.5007  0.1260  0.1617
13763SOL    HW144070   3.622   9.798   0.842  3.5737  0.1342  0.0124
13763SOL    HW244071   3.655   9.646   0.893  1.9453  0.4044  1.9300
13764SOL     OW44072   8.229   6.122   3.471  0.1206  0.3626 -0.6060
13764SOL    HW144073   8.268   6.140   3.381  0.0982 -0.8675 -0.8700
13764SOL    HW244074   8.133   6.151   3.472  0.5481  1.7844 -0.4959
13765SOL     OW44075   1.273   1.981   4.765  0.3798 -0.0538 -0.0219
13765SOL    HW144076   1.338   2.047   4.801  1.3384 -0.7335 -0.4682
13765SOL    HW244077   1.322   1.911   4.713 -0.6337 -0.9922  0.2616
13766SOL     OW44078   3.503   0.884   4.188 -0.4710  0.1733 -0.6159
13766SOL    HW144079   3.538   0.817   4.254 -0.9821  0.2316 -0.2830
13766SOL    HW244080   3.532   0.976   4.216 -0.2715  0.1476 -0.7424
13767SOL     OW44081   9.354   3.685   0.950 -0.6708  0.1763  0.4424
13767SOL    HW144082   9.385   3.673   1.044  1.6106 -0.7044 -0.3778
13767SOL    HW244083   9.256   3.706   0.949 -1.1720 -1.8773  2.8919
13768SOL     OW44084   0.556   6.814   0.436 -0.2652  0.4039 -0.0855
13768SOL    HW144085   0.651   6.831   0.462 -0.3705  0.2343  0.4152
13768SOL    HW244086   0.544   6.718   0.411 -0.3861  0.3327  0.2332
13769SOL     OW44087   5.298   1.441   1.814  0.5366  0.4780  0.1124
13769SOL    HW144088   5.338   1.519   1.766 -0.2990  0.7673 -0.1318
13769SOL    HW244089   5.336   1.435   1.906  0.1731  1.5402  0.3411
13771SOL     OW44090   3.429   6.060   3.635  0.3242 -0.1982 -0.6007
13771SOL    HW144091   3.381   6.017   3.558 -0.7201  0.9079 -0.5996
13771SOL    HW244092   3.406   6.013   3.720  1.6395 -1.5501 -0.9799
13773SOL     OW44093   3.698   6.998   2.145  0.0579 -0.8534 -0.0086
13773SOL    HW144094   3.784   7.023   2.102  0.3640 -1.1109  0.4485
13773SOL    HW244095   3.637   6.957   2.077  0.4566 -1.0574 -0.2429
13774SOL     OW44096   4.255   6.117   1.074  0.1699 -0.0829  0.4040
13774SOL    HW144097   4.178   6.060   1.045  0.7720 -0.9364  0.4750
13774SOL    HW244098   4.221   6.197   1.123 -0.7465  0.2256 -0.7076
13775SOL     OW44099   0.583   9.047   2.225 -0.1228  0.7115 -0.9464
13775SOL    HW144100   0.530   9.126   2.192  0.1818  1.2003 -0.2981
13775SOL    HW244101   0.675   9.078   2.252  0.6942 -0.2323 -2.6186
13776SOL     OW44102   8.837   7.435   5.078  0.0301 -0.6943 -0.3066
13776SOL    HW144103   8.756   7.410   5.026 -0.5825 -1.4661  0.9914
13776SOL    HW244104   8.911   7.373   5.057 -0.7984 -2.2254  1.1740
13777SOL     OW44105   9.982   8.773   1.563 -0.0491  0.1974 -0.1129
13777SOL    HW144106  10.023   8.794   1.652 -0.1206 -0.5339  0.0949
13777SOL    HW244107   9.887   8.744   1.576  0.2477 -0.8928 -0.3284
13778SOL     OW44108   2.597   8.939   4.540  0.2280 -0.2490  0.2227
13778SOL    HW144109   2.594   8.963   4.637  0.4490 -1.0827  0.4411
13778SOL    HW244110   2.551   8.851   4.526  2.0710 -1.1824 -0.0912
13779SOL     OW44111   1.490   1.317   1.915  0.0537 -0.2018 -0.5736
13779SOL    HW144112   1.467   1.257   1.838  0.4284 -2.2119  0.8316
13779SOL    HW244113   1.588   1.309   1.935  0.1378  1.0225 -0.4787
13781SOL     OW44114   0.132   4.788   3.086  0.3490  0.7236  0.1687
13781SOL    HW144115   0.159   4.821   3.176  0.5745 -0.0445  0.3857
13781SOL    HW244116   0.033   4.799   3.074  0.5099  2.0480 -0.0050
13782SOL     OW44117   6.849   0.300   3.278  0.4818  0.1095  0.3504
13782SOL    HW144118   6.785   0.330   3.348 -0.5904 -0.7472 -0.2400
13782SOL    HW244119   6.943   0.309   3.312  0.0417  1.1695  1.3003
13783SOL     OW44120   0.185   4.467   1.021  0.9350 -0.0473 -0.5487
13783SOL    HW144121   0.133   4.432   1.099 -0.2615  2.1729 -0.2914
13783SOL    HW244122   0.157   4.421   0.938  0.2293 -0.5116 -0.0557
13786SOL     OW44123   7.338   3.157   3.844  0.3049 -0.0798 -0.0760
13786SOL    HW144124   7.359   3.194   3.753 -0.6952  1.0008  0.1136
13786SOL    HW244125   7.274   3.080   3.834  0.3991 -0.1275 -0.3121
13787SOL     OW44126   1.147   6.309   3.165  0.5064 -0.1423 -0.8598
13787SOL    HW144127   1.193   6.378   3.109  1.3177  0.6490  0.7629
13787SOL    HW244128   1.074   6.352   3.217  0.6729 -0.6104 -0.2346
13788SOL     OW44129   8.559   9.983   4.362  0.0224 -0.4586  0.2610
13788SOL    HW144130   8.557  10.073   4.406 -2.0848 -0.1671 -0.3620
13788SOL    HW244131   8.524   9.914   4.426 -0.7292 -0.4185 -0.0933
13789SOL     OW44132   9.208   7.727   4.758 -0.1856  0.3900 -0.5570
13789SOL    HW144133   9.286   7.704   4.816 -1.1907 -0.6253  0.4056
13789SOL    HW244134   9.207   7.825   4.740  1.4501  0.3767 -0.7817
13791SOL     OW44135   7.586   8.422   4.510  0.0634 -0.1136 -0.4387
13791SOL    HW144136   7.532   8.505   4.498  1.7000  0.7764 -1.9309
13791SOL    HW244137   7.660   8.421   4.443  0.1662 -2.7131 -0.3337
13792SOL     OW44138   6.872   4.918   0.287  0.1144  0.0314  0.5268
13792SOL    HW144139   6.883   4.975   0.206  3.2212 -1.3039 -0.0603
13792SOL    HW244140   6.776   4.920   0.316 -1.0412  0.6957 -3.0492
13794SOL     OW44141   9.260   0.416   2.888 -0.0634 -0.3543 -0.3742
13794SOL    HW144142   9.240   0.405   2.790 -0.1884  4.4813 -1.0021
13794SOL    HW244143   9.186   0.468   2.931  0.1587 -2.1313  2.3122
13795SOL     OW44144   2.493   2.197   0.040  0.3996 -0.0988 -0.2111
13795SOL    HW144145   2.420   2.140   0.003 -0.5587 -1.1656  3.1758
13795SOL    HW244146   2.453   2.274   0.089  1.5772 -0.1377  0.8160
13796SOL     OW44147   4.766   9.149   4.739  0.0961 -0.0348  0.0912
13796SOL    HW144148   4.823   9.086   4.791  1.1699  2.0562  1.5526
13796SOL    HW244149   4.818   9.186   4.662 -0.0226  0.1765  0.1110
13797SOL     OW44150   8.385   3.781   2.642 -0.1113  0.1610 -0.1267
13797SOL    HW144151   8.413   3.861   2.695  0.2446  0.9504 -1.4876
13797SOL    HW244152   8.459   3.754   2.580 -0.2919 -1.1233  0.1908
13798SOL     OW44153   8.563   3.786   0.101  0.4346  0.1265  0.3850
13798SOL    HW144154   8.487   3.790   0.036 -0.0238  2.2189  1.0077
13798SOL    HW244155   8.549   3.710   0.165  0.1733 -1.0600 -1.0530
13799SOL     OW44156   5.597   1.654   4.462  0.5001 -0.4587  0.2161
13799SOL    HW144157   5.528   1.616   4.522 -1.0700 -1.0377 -1.9028
13799SOL    HW244158   5.574   1.749   4.440  0.8429 -0.3848  0.1632
13801SOL     OW44159   6.986   9.058   3.319  0.1608 -0.1204 -0.1633
13801SOL    HW144160   6.943   8.980   3.275  1.0777 -0.4340 -0.4978
13801SOL    HW244161   6.966   9.056   3.417  1.7941 -1.8506  0.1582
13802SOL     OW44162   8.312   6.095   1.122 -0.2254 -0.0724 -0.0992
13802SOL    HW144163   8.258   6.139   1.050 -1.3884 -0.0103  0.7907
13802SOL    HW244164   8.267   6.009   1.149  0.4752 -0.3452  0.2009
13803SOL     OW44165   3.684   3.873   4.863 -0.2801 -0.2443 -0.3136
13803SOL    HW144166   3.725   3.823   4.939 -0.5266 -1.5261 -0.9970
13803SOL    HW244167   3.735   3.853   4.779  0.9212  2.3658 -0.2264
13805SOL     OW44168   2.250   8.105   2.214 -0.3911 -0.1131  0.1708
13805SOL    HW144169   2.154   8.091   2.190 -0.9922  0.7911  1.9413
13805SOL    HW244170   2.271   8.203   2.211 -0.1416 -0.0856  1.8731
13806SOL     OW44171   2.623   4.555   2.033  0.1844 -0.4023 -0.3875
13806SOL    HW144172   2.649   4.617   2.107 -0.9527 -0.6976  0.2742
13806SOL    HW244173   2.677   4.472   2.039  1.2571  0.2523 -0.8841
13807SOL     OW44174   2.165   7.389   3.551 -0.0031  0.9748  0.0328
13807SOL    HW144175   2.233   7.349   3.489 -0.6548  0.0232 -0.0854
13807SOL    HW244176   2.092   7.322   3.567 -1.2093  2.2052 -0.3025
13808SOL     OW44177   8.479   4.464   4.939  0.0221  0.4558  0.0305
13808SOL    HW144178   8.417   4.425   4.871 -0.7411  0.1419  0.8969
13808SOL    HW244179   8.426   4.513   5.009  0.7632  0.4200  0.6261
13809SOL     OW44180   9.046   2.742   2.177 -0.0098  0.1417  0.4370
13809SOL    HW144181   9.096   2.701   2.253 -0.8131 -0.5286  0.6095
13809SOL    HW244182   9.065   2.840   2.175 -0.3852  0.2614  1.8246
13810SOL     OW44183   2.814   1.438   2.861 -0.4054  0.2005  0.3534
13810SOL    HW144184   2.764   1.359   2.825 -0.7892  0.9478 -0.7845
13810SOL    HW244185   2.804   1.515   2.798  0.5953  0.9330  1.0757
13813SOL     OW44186   0.712   0.830   3.135 -0.4065  0.4247  0.1740
13813SOL    HW144187   0.712   0.822   3.036  0.4980  2.6804 -0.0428
13813SOL    HW244188   0.630   0.786   3.173 -0.9036 -0.1797 -1.5796
13815SOL     OW44189   5.150   7.665   4.439  0.5537 -0.4527 -0.0956
13815SOL    HW144190   5.228   7.645   4.499  1.4731 -1.5691 -1.6161
13815SOL    HW244191   5.145   7.595   4.367 -2.1260 -0.6631  0.2316
13816SOL     OW44192   9.089   2.653   4.577  0.2751  0.6550  0.1294
13816SOL    HW144193   9.115   2.750   4.582  0.8833  0.4656  0.7160
13816SOL    HW244194   9.132   2.603   4.652  0.7499 -0.2528 -0.7336
13817SOL     OW44195   3.791   5.544   1.764  0.2643 -0.4899 -0.0135
13817SOL    HW144196   3.767   5.461   1.713  0.7901 -1.5608  1.4474
13817SOL    HW244197   3.720   5.564   1.831 -0.5873  1.1048 -1.3452
13818SOL     OW44198   2.622   1.743   4.719  0.0429 -0.5994 -0.5883
13818SOL    HW144199   2.628   1.720   4.622  2.2198 -2.2717 -0.1088
13818SOL    HW244200   2.676   1.824   4.738 -0.7378 -0.0162 -0.8388
13819SOL     OW44201   2.114   8.240   1.451  0.4742  0.1432 -0.0667
13819SOL    HW144202   2.054   8.292   1.512  0.0692  2.2384 -2.1714
13819SOL    HW244203   2.196   8.293   1.433  0.4779 -0.3489 -1.5260
13820SOL     OW44204   9.930   2.920   4.043  0.1237  0.4437 -0.6977
13820SOL    HW144205   9.999   2.991   4.055  0.1735  0.3902 -0.6623
13820SOL    HW244206   9.865   2.947   3.972 -1.5852  1.8879  1.3327
13822SOL     OW44207   6.528   7.845   5.160  0.1104  0.4265 -0.2612
13822SOL    HW144208   6.489   7.779   5.224 -1.1321  1.0859 -0.3344
13822SOL    HW244209   6.602   7.801   5.109 -0.9208 -1.0236 -0.5565
13823SOL     OW44210   4.066   3.975   4.413 -0.0993 -0.3042  0.8411
13823SOL    HW144211   4.011   4.005   4.491  0.9482  2.9388  0.4444
13823SOL    HW244212   4.012   3.915   4.355 -1.5148 -1.2462  3.0634
13824SOL     OW44213   0.661   5.335   1.933  0.0279  0.1206  0.5066
13824SOL    HW144214   0.642   5.239   1.951  1.8916 -0.1683  0.9931
13824SOL    HW244215   0.602   5.392   1.992 -2.6057 -0.6392 -1.2867
13825SOL     OW44216   7.897   4.716   0.267  0.5125  0.3274  0.1704
13825SOL    HW144217   7.801   4.706   0.241  0.9203 -2.1020 -0.5683
13825SOL    HW244218   7.923   4.812   0.266 -1.3830  0.8409 -1.5591
13827SOL     OW44219   2.674   7.003   3.769 -0.4757 -0.7567 -0.3491
13827SOL    HW144220   2.598   7.063   3.742  1.0967  1.1273 -0.7500
13827SOL    HW244221   2.724   7.046   3.844  0.8022 -1.4765 -0.7729
13829SOL     OW44222   3.889   5.633   2.893 -0.3222 -0.5822 -0.4423
13829SOL    HW144223   3.885   5.724   2.852 -2.7259 -1.0791 -1.3812
13829SOL    HW244224   3.857   5.565   2.828 -3.6032 -1.4572  1.9756
13830SOL     OW44225   0.100   0.239   1.656 -0.1547  0.1275 -0.1589
13830SOL    HW144226   0.121   0.335   1.670 -1.0463  0.1580  1.0156
13830SOL    HW244227   0.130   0.186   1.735 -1.3629 -0.2891  0.0349
13831SOL     OW44228   8.551   9.662   5.034  0.2256  0.0783  0.1910
13831SOL    HW144229   8.625   9.614   4.987  0.2107  0.4649 -0.2422
13831SOL    HW244230   8.526   9.744   4.981 -0.2887  0.1252  0.5006
13832SOL     OW44231   3.988   8.901   0.832 -0.2639 -0.3230 -0.4444
13832SOL    HW144232   3.991   8.989   0.785  2.8169  0.1721  0.5691
13832SOL    HW244233   3.979   8.916   0.930 -1.6128 -1.2143 -0.4216
13833SOL     OW44234   3.029   9.933   2.642  0.9681 -0.8282 -0.1255
13833SOL    HW144235   3.009   9.883   2.558  0.7214 -1.3042  0.2139
13833SOL    HW244236   2.958   9.913   2.710 -0.1595  1.3890 -0.5833
13834SOL     OW44237   3.041   9.078   5.159  0.3896  0.6060 -0.3881
13834SOL    HW144238   3.050   9.069   5.258 -1.3172 -0.5402 -0.3297
13834SOL    HW244239   3.015   9.172   5.136 -0.9728  0.4307  0.3863
13835SOL     OW44240   2.475   2.777   4.523 -0.3785 -0.0785 -0.6189
13835SOL    HW144241   2.568   2.794   4.490  0.0304 -0.4681  0.3114
13835SOL    HW244242   2.468   2.804   4.619 -0.9873 -0.8412 -0.4413
13836SOL     OW44243   9.851   5.317   4.564  0.0057  0.2074 -0.2055
13836SOL    HW144244   9.922   5.363   4.510 -0.5253  1.1631 -0.1023
13836SOL    HW244245   9.862   5.218   4.556  0.8261  0.3473 -0.8833
13837SOL     OW44246   9.143   0.912   3.001 -0.5887 -0.6602 -0.0653
13837SOL    HW144247   9.241   0.930   2.998 -0.8234  0.5991 -2.9805
13837SOL    HW244248   9.096   0.993   3.036 -0.6394 -0.9326  0.4896
13838SOL     OW44249   7.581   2.961   1.708 -0.2072 -0.4110  0.3772
13838SOL    HW144250   7.513   2.983   1.778  0.4408 -0.1184  0.9207
13838SOL    HW244251   7.608   3.045   1.660 -0.3884 -0.5593  0.0100
13839SOL     OW44252   0.917   8.063   2.356  0.1210 -0.4592 -0.0224
13839SOL    HW144253   0.830   8.018   2.334  0.8245 -2.0178  0.3333
13839SOL    HW244254   0.915   8.095   2.450 -0.6390  0.8788 -0.4845
13840SOL     OW44255   8.586   3.570   0.626 -0.2857 -0.5828 -0.3248
13840SOL    HW144256   8.615   3.518   0.706  2.1045  0.3243 -0.5569
13840SOL    HW244257   8.495   3.540   0.598 -0.1064 -2.6749  1.1940
13841SOL     OW44258   2.390   0.815   3.761  0.5053 -0.1685 -0.1215
13841SOL    HW144259   2.349   0.905   3.749  1.7149  0.2688 -1.0577
13841SOL    HW244260   2.324   0.754   3.805 -1.5566  0.1787 -2.5977
13842SOL     OW44261   5.155   7.255   2.403  0.2511 -0.1162  0.6546
13842SOL    HW144262   5.235   7.314   2.389 -0.4919  0.7444  0.0514
13842SOL    HW244263   5.124   7.264   2.498 -0.4317  1.1919  0.3219
13843SOL     OW44264   1.685   4.483   3.458  0.5840 -0.3720 -0.1245
13843SOL    HW144265   1.586   4.494   3.465  0.7148  0.8117  0.0330
13843SOL    HW244266   1.715   4.408   3.516 -0.2009 -0.6061 -0.0264
13844SOL     OW44267   3.554   3.208   0.924 -0.4464 -0.1559 -0.5104
13844SOL    HW144268   3.551   3.141   0.849  0.2552 -0.3940 -0.3324
13844SOL    HW244269   3.552   3.160   1.012  2.2924 -0.0980 -0.3643
13845SOL     OW44270   2.120   4.761   2.107 -0.3754 -0.1176  0.4188
13845SOL    HW144271   2.133   4.835   2.173 -0.6986 -0.0833  0.4443
13845SOL    HW244272   2.162   4.787   2.020 -0.2385 -0.0237  0.5125
13846SOL     OW44273   7.473   0.494   1.506 -0.0643  0.2043 -0.7056
13846SOL    HW144274   7.391   0.439   1.492 -0.2764  0.5028 -0.6367
13846SOL    HW244275   7.462   0.551   1.588 -0.0288  0.6814 -1.0277
13849SOL     OW44276   5.083   2.590   3.446  0.0134  0.4459  0.2239
13849SOL    HW144277   5.027   2.611   3.366  0.2397  0.4231  0.0626
13849SOL    HW244278   5.133   2.672   3.473 -1.5523  1.0152  1.5132
13850SOL     OW44279   8.396   0.077   0.747  0.1734  0.0887 -0.3743
13850SOL    HW144280   8.389   0.074   0.647  0.5012 -0.3983 -0.3829
13850SOL    HW244281   8.475   0.025   0.777 -0.6001 -0.7698  0.2130
13851SOL     OW44282   1.827   2.731   1.793 -0.3310  0.3465 -0.5775
13851SOL    HW144283   1.914   2.770   1.824  0.8714 -1.4749 -1.5243
13851SOL    HW244284   1.810   2.645   1.841 -0.7821 -0.1163 -1.5470
13852SOL     OW44285   8.625   9.903   0.529  0.4423  0.0876  0.4718
13852SOL    HW144286   8.669   9.925   0.442 -0.4484  1.0597  0.2515
13852SOL    HW244287   8.528   9.885   0.514 -0.2836  2.7638  1.5465
13854SOL     OW44288   8.237   0.202   1.728  0.5296  0.4070  0.2003
13854SOL    HW144289   8.286   0.284   1.757 -1.1023  1.7050 -0.6524
13854SOL    HW244290   8.167   0.179   1.796  1.4860 -0.7407  0.8169
13855SOL     OW44291   9.458   5.174   2.211  0.0336 -0.0466 -0.6407
13855SOL    HW144292   9.411   5.257   2.241  1.1552  0.6634 -0.7954
13855SOL    HW244293   9.447   5.103   2.280 -2.3216 -0.3038 -1.2636
13857SOL     OW44294   8.674   7.955   2.085  1.2375 -0.4068 -0.0291
13857SOL    HW144295   8.647   7.859   2.077 -0.3823  0.0654 -0.5257
13857SOL    HW244296   8.658   8.002   1.998  1.1287  0.5235  0.4791
13858SOL     OW44297   5.899   9.340   2.071  0.4381 -0.4099  0.2130
13858SOL    HW144298   5.895   9.282   1.990 -0.7088 -1.5324  1.0598
13858SOL    HW244299   5.991   9.336   2.110  0.6565 -0.8187 -0.3397
13859SOL     OW44300   2.392   4.532   0.641 -0.1346  0.1694 -0.5614
13859SOL    HW144301   2.363   4.627   0.631  2.9204  1.2380  0.1623
13859SOL    HW244302   2.398   4.509   0.738  0.4937 -0.3073 -0.7122
13860SOL     OW44303   6.874   1.163   3.407 -0.0039 -0.0918 -0.1678
13860SOL    HW144304   6.954   1.221   3.398  1.2767 -1.6210  1.1408
13860SOL    HW244305   6.851   1.124   3.317 -1.2159  2.8240 -1.1609
13861SOL     OW44306   0.283   8.211   4.514  0.2435 -0.2532  0.6953
13861SOL    HW144307   0.381   8.219   4.534  0.2395 -1.7747  1.3756
13861SOL    HW244308   0.253   8.118   4.533 -1.3963  0.2750  0.7230
13862SOL     OW44309   8.746   6.401   0.605 -0.1211 -0.0733 -0.4878
13862SOL    HW144310   8.750   6.301   0.604  1.0476 -0.0587  0.9876
13862SOL    HW244311   8.827   6.438   0.561 -0.6782  0.2233 -1.2610
13863SOL     OW44312   1.072   5.397   2.814 -0.0387 -0.1381  0.4573
13863SOL    HW144313   1.069   5.418   2.717 -0.1450 -1.5134  0.1596
13863SOL    HW244314   1.062   5.298   2.828  0.7746 -0.0441  1.8176
13864SOL     OW44315   4.049   0.480   3.294 -0.1831  0.3297 -0.2997
13864SOL    HW144316   4.098   0.554   3.340 -1.1226  0.4229  0.5728
13864SOL    HW244317   3.950   0.497   3.299 -0.4845 -1.5563  0.9634
13865SOL     OW44318   9.185   3.449   0.071  0.1250 -0.0776 -0.2344
13865SOL    HW144319   9.245   3.471   0.148 -1.1240  1.1207  0.4272
13865SOL    HW244320   9.094   3.426   0.106  0.2690 -2.2190 -1.2051
13866SOL     OW44321   8.682   6.328   3.612 -0.4647 -0.4210 -0.0047
13866SOL    HW144322   8.709   6.239   3.648 -0.5783  0.0784  1.3405
13866SOL    HW244323   8.587   6.324   3.579 -1.2925 -0.1840  2.2674
13868SOL     OW44324   9.794   4.330   1.642  0.5327  0.3497  0.1148
13868SOL    HW144325   9.775   4.242   1.686 -2.0796  1.5578  1.5115
13868SOL    HW244326   9.824   4.396   1.710  3.8049  0.2261 -1.1404
13869SOL     OW44327   0.228   2.083   2.354 -0.0737  0.1871  0.3128
13869SOL    HW144328   0.219   2.182   2.370  0.2467  0.6386 -2.1285
13869SOL    HW244329   0.139   2.040   2.365 -0.1861  0.7163  1.5714
13870SOL     OW44330   6.300   1.361   2.300 -0.0171 -0.2792 -0.0286
13870SOL    HW144331   6.328   1.269   2.327 -1.2483 -1.2518 -1.9873
13870SOL    HW244332   6.240   1.399   2.370 -0.0813 -1.2493  0.4539
13871SOL     OW44333   2.662   3.339   3.243  0.0361 -0.2216 -0.0968
13871SOL    HW144334   2.624   3.274   3.308  1.7252 -0.9892  0.1497
13871SOL    HW244335   2.688   3.423   3.292  3.1688 -1.5464  0.6402
13872SOL     OW44336   8.644   2.630   1.060  0.1549 -0.3512  0.5847
13872SOL    HW144337   8.654   2.710   1.119 -1.2178  0.2680  0.0166
13872SOL    HW244338   8.565   2.576   1.090  1.5190 -1.9137  1.4186
13875SOL     OW44339   3.749   2.063   2.970  0.4789  0.2956  0.0586
13875SOL    HW144340   3.763   2.071   3.068 -0.4123 -0.8406  0.2771
13875SOL    HW244341   3.652   2.049   2.950  0.8987 -1.4463 -0.8547
13876SOL     OW44342   7.765   3.015   2.043  0.1951 -0.5508 -0.0495
13876SOL    HW144343   7.861   2.990   2.028 -0.3486 -1.0957 -2.8325
13876SOL    HW244344   7.759   3.113   2.063  1.1629 -0.0585 -2.0541
13877SOL     OW44345   8.874   7.909   5.151  0.3888 -0.1561  0.5819
13877SOL    HW144346   8.962   7.949   5.126  0.9923 -0.9314  1.4362
13877SOL    HW244347   8.827   7.876   5.069 -0.4796  2.9712 -0.2631
13878SOL     OW44348   0.588   1.490   1.894  0.6282  0.2297 -0.1252
13878SOL    HW144349   0.522   1.533   1.955  1.2522  2.4429 -0.9672
13878SOL    HW244350   0.678   1.530   1.908  0.7746  0.8156 -2.4921
13880SOL     OW44351   2.691   7.309   1.940  0.4678  0.3588 -0.2522
13880SOL    HW144352   2.739   7.228   1.908 -0.7674 -0.3666 -0.3187
13880SOL    HW244353   2.656   7.361   1.862 -0.8812 -0.3844 -0.1647
13881SOL     OW44354   9.537   2.943   0.330 -0.5104  0.0880  0.2819
13881SOL    HW144355   9.633   2.924   0.349 -0.4528  0.0262 -0.0713
13881SOL    HW244356   9.530   3.028   0.277 -0.6328 -0.0427  0.0862
13882SOL     OW44357   2.539   7.921   1.200  0.1916  0.4886 -0.2484
13882SOL    HW144358   2.496   7.987   1.262  1.5415  0.1651  1.0752
13882SOL    HW244359   2.490   7.919   1.113 -1.1196  1.7062  0.4502
13883SOL     OW44360   5.450   5.694   1.572  0.1285 -0.3223  0.0222
13883SOL    HW144361   5.363   5.716   1.617  1.9173  0.2706  3.3180
13883SOL    HW244362   5.484   5.776   1.525 -0.1464 -0.0190  0.3505
13884SOL     OW44363   3.522   8.741   4.078  0.4692  0.6134 -0.2375
13884SOL    HW144364   3.469   8.712   4.159  0.9409  0.1071 -0.1074
13884SOL    HW244365   3.608   8.782   4.108  1.0257 -0.3483 -0.5030
13885SOL     OW44366   9.722   6.669   2.993 -0.1429 -0.0191 -0.0748
13885SOL    HW144367   9.772   6.755   3.001 -0.9636  0.2898  1.9631
13885SOL    HW244368   9.771   6.608   2.930  0.3435  1.9745 -1.6786
13886SOL     OW44369   3.872   7.240   3.783  0.1855  0.2907  0.5299
13886SOL    HW144370   3.912   7.323   3.823  2.5007 -0.1349 -0.8080
13886SOL    HW244371   3.781   7.262   3.745  0.7856  2.2444  0.1362
13887SOL     OW44372   5.479   0.989   0.869  0.4580  0.6870 -0.1694
13887SOL    HW144373   5.468   1.026   0.961  0.7189 -0.7135  0.4305
13887SOL    HW244374   5.573   0.960   0.854 -0.1399 -1.5066  0.0661
13888SOL     OW44375   2.102   0.023   1.666  0.2941  0.2815  0.3258
13888SOL    HW144376   2.082   0.016   1.763  1.2360  0.2884  0.5208
13888SOL    HW244377   2.022  -0.008   1.613 -0.6818  1.4523  1.0772
13889SOL     OW44378   1.689   6.483   2.982  0.5549  0.1078 -0.0203
13889SOL    HW144379   1.768   6.428   2.951 -0.0033 -1.4626  1.2492
13889SOL    HW244380   1.623   6.490   2.908  0.9144 -0.4170 -0.4004
13890SOL     OW44381   7.115   0.540   3.823  0.3153  0.2936  0.0444
13890SOL    HW144382   7.179   0.583   3.887  1.6312 -0.4520 -0.7547
13890SOL    HW244383   7.089   0.606   3.753  0.2240  0.5924  0.3582
13891SOL     OW44384   0.557   9.818   1.901  0.0528 -0.7190 -0.5397
13891SOL    HW144385   0.520   9.788   1.813  1.9668 -1.3682 -1.1660
13891SOL    HW244386   0.492   9.798   1.974 -0.9074 -1.5940 -1.6224
13892SOL     OW44387   3.867   8.852   3.164 -0.3106  0.7396 -0.4004
13892SOL    HW144388   3.944   8.882   3.220 -1.0725  0.6616  0.7010
13892SOL    HW244389   3.831   8.930   3.113  0.2356  0.8565 -0.6171
13893SOL     OW44390   1.566   0.255   5.295 -0.1492 -0.1412  0.0891
13893SOL    HW144391   1.480   0.291   5.258 -0.8932  0.0180  1.8935
13893SOL    HW244392   1.576   0.159   5.269 -0.8068 -0.1178 -0.2762
13894SOL     OW44393   1.954   9.222   2.034 -0.1650  0.0375 -0.0851
13894SOL    HW144394   1.944   9.311   1.991 -1.1156  0.6079  1.2731
13894SOL    HW244395   2.024   9.227   2.105  1.0678 -0.7740 -1.2304
13895SOL     OW44396   2.872   1.752   0.905  0.6384 -0.4948 -0.0342
13895SOL    HW144397   2.958   1.793   0.876  0.7849  0.4130  1.6326
13895SOL    HW244398   2.836   1.803   0.983  0.3419 -2.9404  1.4658
13897SOL     OW44399   1.476   5.416   1.586  0.3838 -0.0640  0.3114
13897SOL    HW144400   1.439   5.503   1.554  1.0283 -0.1757 -0.7492
13897SOL    HW244401   1.575   5.423   1.595  0.2826 -0.2249  1.7247
13898SOL     OW44402   1.988   3.807   2.691 -0.4274  0.5668  0.3128
13898SOL    HW144403   1.992   3.862   2.608  0.7769  2.0336  1.3174
13898SOL    HW244404   1.932   3.854   2.759 -0.1504  0.1062  0.8587
13899SOL     OW44405   4.438   3.022   1.823 -0.6558  0.2035  0.3197
13899SOL    HW144406   4.365   3.084   1.852 -0.2723  0.7519  0.1336
13899SOL    HW244407   4.522   3.044   1.873 -0.1719  0.7030 -0.6993
13900SOL     OW44408   2.036   4.189   4.441 -0.0037  0.1788  0.1942
13900SOL    HW144409   2.067   4.107   4.490 -1.4043  0.9066  2.3728
13900SOL    HW244410   1.938   4.182   4.423 -0.1781  1.4326  0.5652
13901SOL     OW44411   2.712   9.059   1.806  0.1301 -0.7909 -0.4479
13901SOL    HW144412   2.805   9.097   1.808 -0.3031  0.2212  1.5035
13901SOL    HW244413   2.649   9.121   1.852 -1.4118 -1.8154 -1.1139
13902SOL     OW44414   0.027   8.746   0.407  0.3014  0.3223 -0.4392
13902SOL    HW144415   0.126   8.752   0.394  0.3590 -0.0502 -0.1687
13902SOL    HW244416   0.006   8.744   0.504 -0.0243  1.2482 -0.4861
13903SOL     OW44417   2.436   9.520   1.343  0.2408 -0.5023 -0.0534
13903SOL    HW144418   2.346   9.526   1.301  1.4961 -0.0770 -2.7408
13903SOL    HW244419   2.459   9.608   1.386  0.1465 -0.0233 -0.9793
13907SOL     OW44420   4.048   6.151   1.500 -0.2661  0.1328  0.2144
13907SOL    HW144421   3.965   6.206   1.507 -0.1962  0.2774 -0.0819
13907SOL    HW244422   4.057   6.117   1.406 -0.1256 -0.0949  0.3105
13908SOL     OW44423   8.535   4.375   0.565  0.0541  0.0558 -0.0191
13908SOL    HW144424   8.551   4.461   0.613 -0.7900  0.2508 -0.0761
13908SOL    HW244425   8.438   4.353   0.569 -0.0808  0.2479 -1.9169
13909SOL     OW44426   3.118   8.492   4.246 -0.2471  0.7656 -0.1163
13909SOL    HW144427   3.118   8.433   4.166 -0.6136  0.7915 -0.1401
13909SOL    HW244428   3.057   8.570   4.229 -1.8134 -0.2182  0.9008
13912SOL     OW44429   3.092   1.067   0.128 -0.0839 -0.0106  0.5738
13912SOL    HW144430   3.051   1.146   0.083  0.7401  0.2425  0.2544
13912SOL    HW244431   3.184   1.090   0.160 -0.5345 -0.3004  2.0881
13915SOL     OW44432   1.494   5.489   0.351  0.0001 -0.2313 -0.8046
13915SOL    HW144433   1.464   5.476   0.257 -1.0926  0.1528 -0.5104
13915SOL    HW244434   1.593   5.473   0.357 -0.1854 -1.7307 -1.7167
13916SOL     OW44435   9.734   9.271   0.331  0.4207  0.2214 -0.3191
13916SOL    HW144436   9.690   9.350   0.374  1.3042  1.6831 -2.0402
13916SOL    HW244437   9.673   9.192   0.338 -1.1025  1.4081  0.1735
13918SOL     OW44438   9.073   5.852   0.214  0.1751  0.0781  0.3789
13918SOL    HW144439   9.134   5.789   0.263 -0.6055 -1.0590 -0.0985
13918SOL    HW244440   9.122   5.890   0.135  0.6771  0.1361  0.7144
13919SOL     OW44441   4.348   5.876   1.956 -0.0512  0.2792 -0.3150
13919SOL    HW144442   4.271   5.815   1.974 -0.9468  1.6798  0.7532
13919SOL    HW244443   4.313   5.963   1.919  1.2116  0.0743 -2.0553
13922SOL     OW44444   2.613   7.921   2.548  0.4034  0.1554 -0.1686
13922SOL    HW144445   2.636   8.001   2.604  2.3267 -0.7863  0.4218
13922SOL    HW244446   2.578   7.951   2.460  1.4081  1.6499 -0.0755
13923SOL     OW44447   7.065   3.669   1.347  0.4270  0.3181 -0.5658
13923SOL    HW144448   7.083   3.758   1.390  0.8001  0.3405 -0.7695
13923SOL    HW244449   7.042   3.683   1.250 -0.0700  0.2379 -0.4640
13924SOL     OW44450   7.256   1.466   5.127 -0.2865  0.1948  0.5628
13924SOL    HW144451   7.313   1.496   5.203  0.5419  1.7030 -0.6140
13924SOL    HW244452   7.242   1.543   5.064 -2.6945 -0.4523  0.2615
13925SOL     OW44453   2.862   8.997   4.400 -0.2043 -0.2945 -0.1682
13925SOL    HW144454   2.768   8.987   4.431  0.0207 -0.4317  0.4759
13925SOL    HW244455   2.900   8.907   4.378 -0.6497 -0.1196 -1.7086
13926SOL     OW44456   9.503   0.485   0.038 -0.1716  0.1530 -0.1902
13926SOL    HW144457   9.427   0.536   0.078  0.4152  0.0440  1.0851
13926SOL    HW244458   9.485   0.387   0.045 -0.0579  0.1318 -0.2030
13927SOL     OW44459   5.290   9.622   3.651  0.6994  0.5536 -0.4842
13927SOL    HW144460   5.333   9.533   3.636  1.6198  1.0178 -0.6446
13927SOL    HW244461   5.321   9.687   3.582  1.0091  1.3314  0.3587
13928SOL     OW44462   0.480   9.453   2.315 -0.1218 -0.4465 -0.3925
13928SOL    HW144463   0.540   9.525   2.349 -0.7779  0.5135 -1.2512
13928SOL    HW244464   0.411   9.432   2.384  0.1410 -0.3491 -0.0967
13929SOL     OW44465   7.226   8.550   5.269  0.0700  0.8582 -0.3364
13929SOL    HW144466   7.180   8.626   5.223 -0.4405  1.0718  0.5114
13929SOL    HW244467   7.165   8.510   5.338 -0.2381 -1.3137 -1.8030
13930SOL     OW44468   3.860   0.713   4.993 -0.0104 -0.0090 -0.3419
13930SOL    HW144469   3.762   0.731   4.990 -0.1330 -0.2073  1.7167
13930SOL    HW244470   3.908   0.793   5.027  0.6068  0.3061 -1.9611
13931SOL     OW44471   7.389   2.100   2.624  0.2718  0.1433  0.1089
13931SOL    HW144472   7.341   2.023   2.666  0.3110  0.2978  0.4322
13931SOL    HW244473   7.349   2.118   2.534  1.9139 -1.9194 -1.0995
13933SOL     OW44474   7.413   8.895   2.486  0.3988  0.1483  0.2194
13933SOL    HW144475   7.332   8.940   2.448  1.4645  0.7196 -1.4078
13933SOL    HW244476   7.484   8.963   2.503  0.3489 -0.2595  2.2217
13935SOL     OW44477   7.831   4.196   1.844  0.0898 -0.7522  0.0913
13935SOL    HW144478   7.825   4.238   1.753  3.1305  1.0027  0.6090
13935SOL    HW244479   7.804   4.263   1.913 -0.5806 -1.5272  0.5820
13937SOL     OW44480   3.094   0.994   0.574  0.9980  0.4307 -0.3041
13937SOL    HW144481   3.057   0.983   0.666  0.0310  1.3813 -0.5659
13937SOL    HW244482   3.127   0.906   0.540 -0.0006 -0.2175  0.3738
13938SOL     OW44483   8.956   9.907   1.936  0.2668  0.1456  0.1096
13938SOL    HW144484   9.032   9.890   1.999 -0.6452 -0.4524  1.0696
13938SOL    HW244485   8.909   9.992   1.963 -0.7149 -0.6155  0.8419
13939SOL     OW44486   1.870   3.743   0.225 -0.3472  0.1588 -0.1020
13939SOL    HW144487   1.931   3.689   0.282  0.1576  0.9077  0.0601
13939SOL    HW244488   1.811   3.800   0.282 -0.1333  0.5915 -0.3080
13940SOL     OW44489   3.064   8.141   3.542 -0.1716 -0.1066 -1.0365
13940SOL    HW144490   3.047   8.085   3.461 -0.0647 -1.1335 -0.3570
13940SOL    HW244491   3.107   8.227   3.514  1.2934 -1.1050 -1.9318
13941SOL     OW44492   8.005   5.782   4.359  0.0803  0.0206  0.5425
13941SOL    HW144493   7.943   5.842   4.309 -0.6164 -0.9115  0.2779
13941SOL    HW244494   8.097   5.788   4.320 -0.2229  0.1060 -0.1556
13944SOL     OW44495   3.733   1.761   0.582 -0.3397  0.1134 -0.1830
13944SOL    HW144496   3.649   1.806   0.553 -0.2149 -0.7740 -1.9782
13944SOL    HW244497   3.811   1.801   0.533  0.1033 -0.0986  0.3404
13945SOL     OW44498   0.193   3.442   2.813  0.0682 -0.9161 -0.4301
13945SOL    HW144499   0.205   3.350   2.777 -2.4523 -1.1039 -0.8473
13945SOL    HW244500   0.146   3.499   2.745 -2.7818 -0.6919  1.6350
13947SOL     OW44501   0.029   3.273   3.463 -0.2814 -1.0256 -0.4620
13947SOL    HW144502   0.030   3.246   3.560 -0.6552 -1.0025 -0.4532
13947SOL    HW244503   0.123   3.274   3.429 -0.2124 -1.8773 -0.3295
13948SOL     OW44504   3.197   6.656   2.343 -0.1886 -0.1181 -0.4414
13948SOL    HW144505   3.216   6.609   2.430  0.0504  0.8539  0.0422
13948SOL    HW244506   3.142   6.737   2.361  0.5804  0.5555 -1.1028
13949SOL     OW44507   6.520   8.707   3.830  0.0597  0.3896 -0.0118
13949SOL    HW144508   6.449   8.770   3.860 -0.9847 -0.2051 -1.1913
13949SOL    HW244509   6.578   8.682   3.908 -0.5250  1.5100  0.7889
13950SOL     OW44510   8.301   8.906   2.692 -0.3813 -0.4445  0.1911
13950SOL    HW144511   8.357   8.824   2.691 -0.7514 -0.7036  0.5778
13950SOL    HW244512   8.262   8.921   2.602  2.3513  1.1511 -0.8058
13951SOL     OW44513   0.622   7.805   3.830 -0.2704  0.1772 -0.0982
13951SOL    HW144514   0.652   7.855   3.749 -1.8278  0.8629 -0.2765
13951SOL    HW244515   0.557   7.735   3.804 -1.9820  1.4273  0.7077
13952SOL     OW44516   2.500   4.863   2.503  0.3003  0.4252  0.2203
13952SOL    HW144517   2.589   4.858   2.458  0.1055  2.8428 -0.5213
13952SOL    HW244518   2.498   4.802   2.582  3.2155  1.6482  1.2836
13953SOL     OW44519   3.010   9.408   4.718  0.8412  0.6924  0.4081
13953SOL    HW144520   2.926   9.354   4.710  0.9395  0.0934  2.9165
13953SOL    HW244521   2.988   9.505   4.713  0.1566  0.5178 -0.0737
13954SOL     OW44522   2.364   3.004   2.188  0.4439  0.5650  0.3952
13954SOL    HW144523   2.351   3.004   2.287 -1.6207  0.8801  0.1299
13954SOL    HW244524   2.462   3.001   2.168  0.8990  1.0164  2.4456
13955SOL     OW44525   0.875   1.630   3.468  0.3112  0.0675  0.0983
13955SOL    HW144526   0.881   1.536   3.502 -2.7718 -0.5397 -0.8907
13955SOL    HW244527   0.967   1.670   3.464  1.4940 -2.2914  2.1664
13958SOL     OW44528   4.158   1.681   4.507  0.4646  0.5374 -0.2755
13958SOL    HW144529   4.150   1.617   4.584 -0.3857 -0.5324 -1.2378
13958SOL    HW244530   4.246   1.728   4.512 -0.0093  1.3003  1.9696
13959SOL     OW44531   6.285   0.238   4.197 -0.0821  0.0975 -0.4185
13959SOL    HW144532   6.350   0.305   4.232  0.4511 -0.1672 -0.8854
13959SOL    HW244533   6.334   0.171   4.140 -0.6996 -0.3332 -0.4473
13960SOL     OW44534   5.561   1.097   1.873  0.0427  0.3874  0.1220
13960SOL    HW144535   5.465   1.122   1.858  0.3214  2.4992  1.5938
13960SOL    HW244536   5.575   1.077   1.970  1.1750  0.4920 -0.0152
13962SOL     OW44537   6.325   0.502   2.090 -0.1856 -0.1774 -0.1425
13962SOL    HW144538   6.332   0.485   2.188  1.4805  0.5576 -0.1211
13962SOL    HW244539   6.365   0.591   2.068 -2.4217  0.6004 -1.2259
13963SOL     OW44540   9.453   2.635   2.209 -0.1792 -0.5152  0.5893
13963SOL    HW144541   9.435   2.687   2.125 -2.0761 -0.0267  1.2565
13963SOL    HW244542   9.375   2.645   2.271  1.6270  0.0133  2.8687
13964SOL     OW44543   6.416   0.150   2.279  0.2053 -0.0305  0.0927
13964SOL    HW144544   6.425   0.109   2.370 -0.8935 -0.7222 -0.0899
13964SOL    HW244545   6.328   0.196   2.273  0.1633 -0.2147 -0.7056
13966SOL     OW44546   6.835   0.746   0.646  1.1446  0.1964  0.2543
13966SOL    HW144547   6.738   0.727   0.632  1.0648  0.6905  0.1508
13966SOL    HW244548   6.884   0.737   0.560  1.4783 -1.7317  0.6053
13967SOL     OW44549   8.997   2.294   3.070 -0.3780 -0.0917  0.0777
13967SOL    HW144550   9.000   2.288   2.970  0.8527 -0.2225  0.1117
13967SOL    HW244551   9.047   2.376   3.099 -1.2051  0.2413  0.5571
13968SOL     OW44552   9.888   6.431   0.245 -0.9781 -0.0967  0.3400
13968SOL    HW144553   9.953   6.366   0.284  0.3848  2.9757  3.4088
13968SOL    HW244554   9.936   6.493   0.183 -1.2840  1.1444  1.3363
13969SOL     OW44555   2.814   1.348   1.738 -0.0063  0.5322  0.4792
13969SOL    HW144556   2.742   1.278   1.735  1.2999 -0.7888 -1.8868
13969SOL    HW244557   2.801   1.412   1.663  2.2498 -0.7624 -1.0644
13971SOL     OW44558   3.961   8.358   1.518 -0.6518  0.4414 -0.4550
13971SOL    HW144559   3.868   8.384   1.492 -0.3068  2.1141 -0.1057
13971SOL    HW244560   4.009   8.322   1.438 -1.4606 -0.0300 -0.7318
13973SOL     OW44561   9.369   4.556   0.785 -0.2376  0.0626 -0.1066
13973SOL    HW144562   9.354   4.655   0.794 -0.0164  0.3134 -2.1811
13973SOL    HW244563   9.302   4.507   0.839 -0.2343  1.3603  1.1037
13974SOL     OW44564   8.263   2.354   4.940 -0.5273 -0.0483  0.5305
13974SOL    HW144565   8.191   2.404   4.892 -0.9027 -0.2538  0.8818
13974SOL    HW244566   8.239   2.343   5.036 -0.0483 -0.1559  0.6405
13975SOL     OW44567   0.696   4.038   2.408 -0.3105  0.1288 -0.3272
13975SOL    HW144568   0.638   3.959   2.391  1.2308 -1.2725  0.7166
13975SOL    HW244569   0.708   4.050   2.507  0.4882  0.9186 -0.5094
13976SOL     OW44570   7.015   3.951   0.862 -0.5065 -0.0836 -0.8051
13976SOL    HW144571   6.980   4.014   0.931 -1.9391 -0.5162 -1.1080
13976SOL    HW244572   7.050   4.003   0.784  0.7600  0.3913  0.0776
13978SOL     OW44573   4.122   8.123   3.953  0.3158  0.0567  0.6699
13978SOL    HW144574   4.160   8.123   3.860 -1.3233 -2.2401 -0.0206
13978SOL    HW244575   4.086   8.215   3.973  2.5642  1.1649 -0.1395
13979SOL     OW44576   8.240   0.356   3.605 -0.2961 -0.0186 -0.4350
13979SOL    HW144577   8.170   0.426   3.621 -0.4754 -0.4057  0.5168
13979SOL    HW244578   8.243   0.294   3.683  0.3229 -0.6839 -0.9827
13980SOL     OW44579   6.608   9.724   4.946 -0.0763 -0.4942 -0.0670
13980SOL    HW144580   6.599   9.817   4.984 -0.9697 -0.8119  0.5265
13980SOL    HW244581   6.682   9.676   4.992  1.4042  0.4347 -1.4376
13981SOL     OW44582   4.588   5.024   0.600  0.3457  0.0459 -0.0484
13981SOL    HW144583   4.589   5.059   0.694 -0.8815 -0.8561  0.3167
13981SOL    HW244584   4.544   5.091   0.541 -0.0678  0.0583  0.2651
13982SOL     OW44585   4.749   0.068   4.140  0.2429 -0.3663  0.3741
13982SOL    HW144586   4.652   0.083   4.120  0.1507  0.6503  1.5014
13982SOL    HW244587   4.773  -0.027   4.119 -1.5408 -1.2379  2.1053
13983SOL     OW44588   4.826   6.921   1.785  0.8667  0.8008 -0.0328
13983SOL    HW144589   4.898   6.955   1.724  1.9025  0.2791  0.8851
13983SOL    HW244590   4.856   6.929   1.880  0.3171 -0.8165  0.2932
13984SOL     OW44591   3.754   1.305   5.268 -0.0019  0.5047  0.0147
13984SOL    HW144592   3.731   1.343   5.358  1.1649  2.4301 -0.4648
13984SOL    HW244593   3.783   1.210   5.278 -0.7975  0.4105  1.5466
13986SOL     OW44594   1.448   3.324   4.582 -0.2002  0.0242 -0.0315
13986SOL    HW144595   1.373   3.386   4.559 -1.0215 -0.8467  0.2517
13986SOL    HW244596   1.415   3.230   4.579  1.6478 -0.5770 -2.9045
13987SOL     OW44597   3.582   4.928   2.436 -0.0528 -0.1654 -0.5285
13987SOL    HW144598   3.574   4.897   2.341  1.3942 -1.1559 -0.3365
13987SOL    HW244599   3.537   4.862   2.496 -2.1074  1.1040 -0.5991
13988SOL     OW44600   3.008   7.270   0.410  0.0195 -0.1384  0.7138
13988SOL    HW144601   2.934   7.337   0.414 -0.7246 -0.8793 -0.2635
13988SOL    HW244602   3.089   7.307   0.455 -0.8875  0.7516  1.6381
13989SOL     OW44603   1.356   0.329   3.974  0.0904 -0.4275 -0.1670
13989SOL    HW144604   1.352   0.355   4.071 -1.0106  1.8290 -0.7845
13989SOL    HW244605   1.446   0.349   3.937  0.0839  0.0173  0.0545
13990SOL     OW44606   7.702   6.372   3.264  0.0539 -0.3267 -0.2697
13990SOL    HW144607   7.730   6.441   3.331 -1.1839  1.3811 -1.4584
13990SOL    HW244608   7.688   6.417   3.175 -3.1542 -1.6944 -0.5014
13991SOL     OW44609   7.433   2.440   3.766 -0.4448 -0.1673 -0.2049
13991SOL    HW144610   7.532   2.455   3.776 -0.4909  0.5458 -0.8045
13991SOL    HW244611   7.417   2.363   3.705 -0.2639  0.1665 -0.6780
13992SOL     OW44612   1.867   9.143   0.693  0.1047  0.5819 -0.3456
13992SOL    HW144613   1.795   9.211   0.705 -0.7893 -0.4065 -0.0294
13992SOL    HW244614   1.884   9.096   0.779 -0.9294 -1.2164 -1.1054
13993SOL     OW44615   8.155   1.417   5.269  0.2775 -0.4402 -0.5032
13993SOL    HW144616   8.084   1.367   5.220 -0.9153  1.3302 -0.6219
13993SOL    HW244617   8.205   1.353   5.328 -0.3791 -1.9926 -1.5842
13994SOL     OW44618   0.927   7.441   0.911  0.5874 -0.0050 -0.3574
13994SOL    HW144619   0.836   7.438   0.871  0.4400  1.4875 -0.1641
13994SOL    HW244620   0.976   7.521   0.877  1.4179 -0.1787  0.3983
13995SOL     OW44621   2.496   1.998   1.786  0.6895 -0.5536 -0.5065
13995SOL    HW144622   2.555   2.022   1.863  1.1841 -2.0113 -0.4257
13995SOL    HW244623   2.524   2.051   1.706  0.5591  0.5230  0.1434
13996SOL     OW44624   1.133   1.780   3.525 -0.8212 -0.4369  0.3681
13996SOL    HW144625   1.194   1.784   3.445  0.3550 -1.4171  1.2016
13996SOL    HW244626   1.116   1.872   3.559  0.2590 -0.1721  0.1861
13997SOL     OW44627   6.896   0.984   0.323  0.4844  0.4990  0.8171
13997SOL    HW144628   6.968   1.029   0.270  1.7306 -3.3002 -0.9280
13997SOL    HW244629   6.818   0.965   0.263 -0.4407  1.1956  1.7774
13998SOL     OW44630   3.200   5.190   4.225 -0.4576  0.3258 -0.0536
13998SOL    HW144631   3.158   5.212   4.137 -1.9488 -0.0602  0.5457
13998SOL    HW244632   3.264   5.114   4.214  0.6449  1.3798 -1.1094
13999SOL     OW44633   9.557   9.123   4.357 -0.1804  0.1911 -0.7754
13999SOL    HW144634   9.497   9.131   4.278 -1.3865  0.0096  0.1220
13999SOL    HW244635   9.595   9.213   4.379  1.2388  0.0181 -2.3779
14000SOL     OW44636   4.799   2.143   2.346  0.3287 -0.7415 -0.4344
14000SOL    HW144637   4.813   2.129   2.444 -0.5487 -1.8192 -0.4434
14000SOL    HW244638   4.724   2.207   2.332 -0.1309 -1.2681 -0.3977
14001SOL     OW44639   8.120   1.803   1.443  0.5725 -0.5681 -0.2759
14001SOL    HW144640   8.083   1.710   1.441  0.1956 -0.4373  0.4149
14001SOL    HW244641   8.080   1.856   1.369  0.1617 -0.7240 -0.1663
14002SOL     OW44642   5.293   0.326   4.571 -0.4640  0.4998  0.5223
14002SOL    HW144643   5.358   0.401   4.578 -0.9731  1.0500 -0.7075
14002SOL    HW244644   5.201   0.362   4.552 -0.4887 -0.4972 -1.3339
14003SOL     OW44645   4.806   1.807   4.047 -0.2031  0.4540 -0.4148
14003SOL    HW144646   4.885   1.863   4.021  0.2467 -0.3180 -0.7245
14003SOL    HW244647   4.722   1.854   4.019  0.2693 -0.3481 -3.3437
14004SOL     OW44648   9.764   4.256   0.617  0.5256  0.0092 -0.9867
14004SOL    HW144649   9.859   4.230   0.598  0.7441 -0.4194  0.6832
14004SOL    HW244650   9.702   4.186   0.581  0.8989 -0.4443 -0.7469
14007SOL     OW44651   3.273   3.417   5.197  0.2271 -0.5652  0.1228
14007SOL    HW144652   3.349   3.444   5.255  0.9008 -0.9190 -0.5783
14007SOL    HW244653   3.197   3.384   5.253  1.1096 -1.5010  0.7800
14008SOL     OW44654   0.491   9.718   0.029  0.2422  0.1586 -0.8144
14008SOL    HW144655   0.456   9.680  -0.057 -1.5128 -0.0590 -0.0192
14008SOL    HW244656   0.444   9.674   0.106  0.6873  1.4777  0.2179
14009SOL     OW44657   3.796   7.961   1.470  0.1312  0.5368  0.0970
14009SOL    HW144658   3.753   7.966   1.379  0.4269  1.2282 -0.0051
14009SOL    HW244659   3.875   7.901   1.465  0.2547  0.7168 -0.1494
14011SOL     OW44660   2.771   3.093   3.753 -1.0290  0.1605  0.5263
14011SOL    HW144661   2.849   3.120   3.697 -2.0670  1.5846 -0.2375
14011SOL    HW244662   2.789   3.119   3.848 -0.6415  0.6202  0.3314
14012SOL     OW44663   3.948   0.823   4.262  0.1474 -0.2867  0.3098
14012SOL    HW144664   3.899   0.773   4.333  0.5171 -0.5055  0.4169
14012SOL    HW244665   3.931   0.780   4.173  0.2819 -0.4665  0.3708
14013SOL     OW44666   5.785   9.775   3.066  0.1459 -0.2346  0.2616
14013SOL    HW144667   5.746   9.697   3.115  1.8009 -0.8977  0.5615
14013SOL    HW244668   5.870   9.748   3.022  0.2050  1.1408 -0.4985
14014SOL     OW44669   7.879   2.215   3.792  0.0582  0.1189  0.4561
14014SOL    HW144670   7.787   2.178   3.802 -0.3693  0.6311 -1.4338
14014SOL    HW244671   7.946   2.149   3.826 -1.0214  0.0023  2.4392
14015SOL     OW44672   7.480   0.284   5.097 -0.8444  0.3576 -0.0337
14015SOL    HW144673   7.537   0.340   5.037 -2.0229  0.6160 -0.9176
14015SOL    HW244674   7.523   0.279   5.188  0.3662  0.8857 -0.5651
14016SOL     OW44675   8.234   5.073   4.936 -0.0856  0.7394  0.3265
14016SOL    HW144676   8.226   5.141   4.863  4.4917  1.2547  0.1784
14016SOL    HW244677   8.208   5.114   5.023 -2.3634  1.0898 -0.4818
14017SOL     OW44678   3.136   7.076   1.406  0.0066  0.3979 -1.0965
14017SOL    HW144679   3.162   7.163   1.448  1.5364  0.0491 -1.2817
14017SOL    HW244680   3.050   7.044   1.445  1.1140  0.3316  1.4304
14018SOL     OW44681   2.940   9.185   1.880 -0.0361 -0.2377 -0.3420
14018SOL    HW144682   2.919   9.275   1.841 -1.2694 -0.3217  0.0947
14018SOL    HW244683   3.025   9.151   1.841  0.6093  1.2623 -0.2732
14019SOL     OW44684   2.606   9.966   2.004 -0.0636 -0.1351  0.0619
14019SOL    HW144685   2.656  10.020   1.935 -1.2480  0.1153 -0.6081
14019SOL    HW244686   2.516   9.942   1.968  0.1561 -1.9149  0.6537
14020SOL     OW44687   4.178   1.385   3.773 -0.2700  0.1847 -0.7951
14020SOL    HW144688   4.230   1.463   3.808 -1.7636  1.1245 -0.6411
14020SOL    HW244689   4.085   1.388   3.809 -0.1952 -1.9709 -0.3512
14021SOL     OW44690   7.852   1.314   4.652  0.6633  0.2547  0.3384
14021SOL    HW144691   7.758   1.287   4.673  0.3551  1.8058  1.0023
14021SOL    HW244692   7.913   1.287   4.726  0.3258  1.5248  1.0892
14022SOL     OW44693   0.289   7.607   2.389 -0.4689  0.1738  0.4127
14022SOL    HW144694   0.218   7.660   2.436 -1.1057 -0.6535  0.3818
14022SOL    HW244695   0.247   7.552   2.316  0.5983  2.0672 -1.7057
14023SOL     OW44696   4.547   7.507   3.480 -0.2066 -0.4018 -0.4464
14023SOL    HW144697   4.512   7.481   3.571  2.0299  0.4492  0.6975
14023SOL    HW244698   4.638   7.469   3.468  1.1514  2.7791 -0.7043
14024SOL     OW44699   8.764   7.315   3.586 -0.0962 -0.3116 -0.0664
14024SOL    HW144700   8.721   7.269   3.664 -0.0618  0.8554  0.6567
14024SOL    HW244701   8.700   7.381   3.547  1.3097  2.1903  1.6694
14025SOL     OW44702   4.871   5.033   1.778  0.2550  0.2406  0.3006
14025SOL    HW144703   4.830   5.093   1.710  1.6649  0.8809 -0.0232
14025SOL    HW244704   4.812   4.954   1.794 -1.3314  1.4017  0.2772
14026SOL     OW44705   8.198   1.706   3.033  0.2487 -0.0537 -0.3655
14026SOL    HW144706   8.167   1.762   2.957 -0.8419 -0.1031  0.0280
14026SOL    HW244707   8.179   1.753   3.119  2.4856  0.4957 -0.1420
14028SOL     OW44708   2.175   2.603   2.549  0.0057  0.1290  0.0769
14028SOL    HW144709   2.209   2.697   2.540 -0.1898  0.2230  0.3130
14028SOL    HW244710   2.178   2.576   2.645 -0.1338 -0.0335  0.0359
14030SOL     OW44711   4.234   1.285   2.704  0.7394  0.1776  0.4813
14030SOL    HW144712   4.284   1.227   2.639 -0.8964  0.8246 -1.4203
14030SOL    HW244713   4.289   1.367   2.723  1.7109 -0.5319  0.7896
14031SOL     OW44714   4.346   0.589   1.270 -0.7966 -0.4552  0.5867
14031SOL    HW144715   4.446   0.588   1.275 -0.7563  1.2194  0.4399
14031SOL    HW244716   4.309   0.517   1.329  0.4585 -0.3504  1.5229
14032SOL     OW44717   2.349   6.060   2.483 -0.2006 -0.1528 -0.8046
14032SOL    HW144718   2.407   6.009   2.546  0.8131  0.4951 -1.2123
14032SOL    HW244719   2.349   6.157   2.508  0.7658  0.2212 -2.2194
14034SOL     OW44720   5.212   3.978   1.468  0.4040 -0.2760  0.6432
14034SOL    HW144721   5.189   3.996   1.564  0.0647 -0.4668  0.6003
14034SOL    HW244722   5.248   4.061   1.426 -0.9216  0.2573  0.5076
14035SOL     OW44723   4.265   6.905   3.723  0.4169 -0.0422 -0.4122
14035SOL    HW144724   4.228   6.817   3.693  1.5012  0.2757 -2.7207
14035SOL    HW244725   4.201   6.978   3.699  1.3424  0.2260 -2.1518
14036SOL     OW44726   8.710   4.024   0.448  0.6676 -0.7371  0.1637
14036SOL    HW144727   8.710   3.929   0.477 -0.3570 -0.5676  0.7448
14036SOL    HW244728   8.702   4.084   0.528 -2.7450 -0.2791 -0.4373
14037SOL     OW44729   9.870   2.713   2.412 -0.2642  0.5988 -0.4873
14037SOL    HW144730   9.916   2.624   2.404 -0.9145  0.4344 -2.6942
14037SOL    HW244731   9.774   2.698   2.437 -0.2643  0.6932 -0.4307
14038SOL     OW44732   1.805   5.942   3.700 -0.7177 -0.0099  0.3673
14038SOL    HW144733   1.802   5.842   3.699  2.6238 -0.1831 -1.3948
14038SOL    HW244734   1.851   5.973   3.784  0.7719 -0.1228 -0.3858
14040SOL     OW44735   4.929   9.977   2.439 -0.4419  0.0169 -0.8064
14040SOL    HW144736   5.023   9.948   2.419 -0.7491 -1.1586 -0.5542
14040SOL    HW244737   4.887  10.013   2.355 -0.2512 -0.7917 -1.2472
14041SOL     OW44738   8.116   3.349   4.936  0.3635  0.2333  0.2902
14041SOL    HW144739   8.110   3.424   4.870  0.6012 -0.6105 -0.7031
14041SOL    HW244740   8.094   3.262   4.891  1.2912 -0.4556  1.1270
14042SOL     OW44741   9.881   2.930   2.633  0.1734 -0.0253 -0.2058
14042SOL    HW144742   9.981   2.930   2.636  0.2001  1.3234 -0.6139
14042SOL    HW244743   9.845   2.879   2.711  1.1603  0.8645  0.8466
14043SOL     OW44744   1.004   5.339   3.982 -0.0648 -0.0800 -0.3048
14043SOL    HW144745   0.966   5.422   3.942 -0.1090  0.3758  0.6885
14043SOL    HW244746   1.096   5.357   4.017 -0.8197  0.0526  1.6408
14044SOL     OW44747   0.549   9.271   4.991  0.1330  0.7800 -0.4277
14044SOL    HW144748   0.512   9.285   5.083 -0.8206  0.5675 -0.7731
14044SOL    HW244749   0.538   9.354   4.937  0.0092  0.6669 -0.5808
14045SOL     OW44750   1.262   1.310   1.244 -0.1566  0.1134  0.0420
14045SOL    HW144751   1.263   1.408   1.225  0.2332  0.8407  3.5123
14045SOL    HW244752   1.188   1.289   1.308  1.2011 -1.4676  1.1414
14046SOL     OW44753   0.369   0.371   4.137 -0.3124  0.6209  0.3189
14046SOL    HW144754   0.442   0.371   4.068 -0.4100  0.8057  0.2176
14046SOL    HW244755   0.282   0.389   4.093 -0.5338 -0.4040  0.3181
14048SOL     OW44756   7.336   9.234   1.894 -0.4779  0.8546 -0.2281
14048SOL    HW144757   7.285   9.158   1.853  0.0021 -0.5923  1.8038
14048SOL    HW244758   7.404   9.268   1.828 -0.1996 -0.9630 -0.9095
14051SOL     OW44759   1.125   7.938   2.543 -0.1445 -0.1027 -0.3652
14051SOL    HW144760   1.053   8.004   2.522 -1.0344 -0.8197  0.4011
14051SOL    HW244761   1.091   7.870   2.607  1.2332 -0.4342  0.0433
14053SOL     OW44762   1.160   4.403   0.083 -0.1432  0.7339  0.2351
14053SOL    HW144763   1.083   4.441   0.030  0.2221  0.9422 -0.1493
14053SOL    HW244764   1.129   4.382   0.175 -0.1302  2.7756  0.7271
14055SOL     OW44765   4.195   4.366   4.739 -0.7073  0.3202  0.2014
14055SOL    HW144766   4.241   4.454   4.744  1.3376 -0.6791 -0.5662
14055SOL    HW244767   4.111   4.375   4.686 -0.5811  1.8137  0.2316
14059SOL     OW44768   1.596   7.577   1.711 -0.0012  0.1755 -0.8255
14059SOL    HW144769   1.648   7.644   1.764 -1.0548  0.7082 -0.4520
14059SOL    HW244770   1.621   7.583   1.615  0.7561  0.2985 -0.6251
14060SOL     OW44771   8.078   4.611   5.049  0.4283 -0.3221 -0.2281
14060SOL    HW144772   8.167   4.574   5.074  1.2429  1.1324 -0.8778
14060SOL    HW244773   8.068   4.608   4.949  0.3800  0.8773 -0.2679
14061SOL     OW44774   2.371   4.947   3.376  0.0648 -0.1728  0.3609
14061SOL    HW144775   2.279   4.946   3.415  0.7196 -2.6996  1.9151
14061SOL    HW244776   2.424   5.021   3.418 -0.3836 -0.5389  1.5954
14063SOL     OW44777   0.651   0.245   2.815 -0.2007 -0.1229 -0.4480
14063SOL    HW144778   0.646   0.210   2.909 -2.0625  2.5036  0.5033
14063SOL    HW244779   0.601   0.331   2.810  1.9964  1.0564 -3.2940
14064SOL     OW44780   9.117   0.121   1.167 -0.0319  0.0479 -0.1515
14064SOL    HW144781   9.125   0.195   1.233  0.6460  1.7075 -2.0694
14064SOL    HW244782   9.029   0.074   1.180 -1.5324  2.7032 -0.4475
14065SOL     OW44783   7.819   2.538   4.794  0.3643  0.0834  0.7130
14065SOL    HW144784   7.877   2.617   4.775  0.3586  0.5169  2.4755
14065SOL    HW244785   7.727   2.568   4.818  0.3010 -0.4646  1.1765
14066SOL     OW44786   3.055   0.790   0.213 -0.4805  0.8852 -0.2431
14066SOL    HW144787   3.078   0.884   0.189 -1.4810  1.1763 -0.0514
14066SOL    HW244788   3.113   0.759   0.289 -0.4801  1.4979  0.0020
14067SOL     OW44789   1.746   7.051   2.744 -0.2669 -0.0295 -0.0113
14067SOL    HW144790   1.653   7.068   2.774  0.5286  1.0500  1.8779
14067SOL    HW244791   1.776   7.124   2.682 -0.5537 -0.2063 -0.3602
14068SOL     OW44792   3.738   4.899   4.231 -0.5233  0.0668  0.2992
14068SOL    HW144793   3.697   4.988   4.248  0.3805  0.4724  0.3892
14068SOL    HW244794   3.727   4.875   4.135  1.4958  1.4475 -0.3009
14069SOL     OW44795   6.376   0.524   0.580 -0.4547 -0.1007 -0.5448
14069SOL    HW144796   6.283   0.549   0.554  0.4226  2.5728 -1.2193
14069SOL    HW244797   6.373   0.450   0.648 -2.9761 -1.6767 -2.2808
14070SOL     OW44798   1.328   8.462   3.076 -0.3207 -0.0981 -0.4281
14070SOL    HW144799   1.357   8.539   3.020 -2.7800  3.7982  3.3544
14070SOL    HW244800   1.401   8.437   3.140  0.3244 -0.6379 -1.3719
14072SOL     OW44801   2.580   3.855   3.421  0.5323 -0.0193  0.4157
14072SOL    HW144802   2.522   3.779   3.450  0.8927 -0.8494 -0.9777
14072SOL    HW244803   2.566   3.873   3.323  1.7663  0.5130  0.3244
14074SOL     OW44804   0.023   5.165   5.020 -0.3592  0.0957  0.6989
14074SOL    HW144805  -0.054   5.104   5.036 -0.0709 -0.6492 -0.7030
14074SOL    HW244806  -0.005   5.239   4.958  0.5465 -1.2810 -1.4192
14075SOL     OW44807   7.915   8.249   3.285  0.2085  0.4025 -0.1898
14075SOL    HW144808   7.904   8.339   3.327 -1.1686  0.4071 -0.5655
14075SOL    HW244809   7.923   8.180   3.357 -4.0366  0.1666  0.1544
14076SOL     OW44810   2.257   6.358   3.253 -0.3261  0.3522 -0.0792
14076SOL    HW144811   2.217   6.271   3.284 -1.6317  0.0156 -2.5225
14076SOL    HW244812   2.193   6.433   3.273 -1.9674 -0.0882 -3.3133
14077SOL     OW44813   6.574   1.108   0.078 -0.3071  0.3108  0.2947
14077SOL    HW144814   6.592   1.028   0.134  1.0659  0.6237  0.3052
14077SOL    HW244815   6.617   1.189   0.118 -1.7840  1.0937  0.3510
14079SOL     OW44816   1.633   5.491   5.149  0.5267  0.3013  0.2723
14079SOL    HW144817   1.719   5.504   5.099 -0.2310  2.6019 -0.4820
14079SOL    HW244818   1.556   5.496   5.086 -0.3049  0.5475  1.2814
14081SOL     OW44819   6.115   1.554   2.923  0.4318 -0.0092  0.1401
14081SOL    HW144820   6.020   1.580   2.943  0.1461 -1.2809  0.4977
14081SOL    HW244821   6.127   1.549   2.823 -0.4376 -1.7709  0.0992
14082SOL     OW44822   9.640   8.638   0.458  0.4790 -0.4384 -0.1833
14082SOL    HW144823   9.689   8.711   0.507 -0.4672  0.6651 -0.8567
14082SOL    HW244824   9.703   8.594   0.394  0.7061  0.7351 -0.7907
14083SOL     OW44825   1.399   7.936   1.530 -0.0847 -0.5766  0.3880
14083SOL    HW144826   1.487   7.897   1.501 -0.4640 -1.3870  0.3082
14083SOL    HW244827   1.382   8.022   1.481  0.0851 -1.0518 -0.5108
14084SOL     OW44828   7.626   8.022   5.066 -0.5902  0.6134 -0.4274
14084SOL    HW144829   7.616   8.115   5.031  0.7594  0.3273 -1.5882
14084SOL    HW244830   7.617   7.957   4.991  2.3640 -0.0119 -0.2872
14085SOL     OW44831   4.527   2.264   3.222  0.3685 -0.3885 -0.5905
14085SOL    HW144832   4.453   2.197   3.231 -0.2046  0.5553  1.8387
14085SOL    HW244833   4.499   2.336   3.158 -1.5643  0.9304  1.6682
14086SOL     OW44834   4.282   8.091   1.703  0.1791 -0.0906 -0.8716
14086SOL    HW144835   4.316   8.070   1.795  0.8884  1.6492 -0.7207
14086SOL    HW244836   4.356   8.083   1.637 -0.1440 -0.5380 -1.1849
14087SOL     OW44837   2.184   2.681   1.396 -0.3540 -0.0309 -0.2245
14087SOL    HW144838   2.153   2.759   1.450 -1.4540 -0.6301  0.0066
14087SOL    HW244839   2.118   2.607   1.402  0.6708 -0.9886 -0.4596
14088SOL     OW44840   8.929   0.219   3.921  0.3571  0.2667 -0.1315
14088SOL    HW144841   8.909   0.245   3.826 -0.3570  0.6678  0.1221
14088SOL    HW244842   8.879   0.135   3.944 -0.7393  1.0452  0.3778
14089SOL     OW44843   5.855   7.649   3.712  0.5252  0.4850 -0.8996
14089SOL    HW144844   5.837   7.555   3.683  2.2479  0.1549 -0.9402
14089SOL    HW244845   5.883   7.703   3.633 -1.2859  1.2735 -1.0401
14090SOL     OW44846   1.447   3.055   2.480  0.1943 -0.6872 -0.1021
14090SOL    HW144847   1.541   3.048   2.445  0.1504  0.4404 -0.4400
14090SOL    HW244848   1.418   2.965   2.512  2.1885 -0.6045  2.0769
14091SOL     OW44849   4.621   5.447   3.349 -0.4841 -0.3976  0.2652
14091SOL    HW144850   4.685   5.394   3.404 -0.3745 -0.6576 -0.1113
14091SOL    HW244851   4.668   5.484   3.269 -1.2593 -2.2273 -1.0596
14093SOL     OW44852   3.241   2.170   3.929 -0.3367 -0.0854 -0.2269
14093SOL    HW144853   3.322   2.117   3.904  0.1665  0.2498  0.6783
14093SOL    HW244854   3.237   2.252   3.872 -0.4744 -0.4982 -0.8169
14094SOL     OW44855   5.274   5.418   1.850  0.4300 -0.3016  0.3162
14094SOL    HW144856   5.254   5.324   1.876  1.6903 -1.0189 -1.2079
14094SOL    HW244857   5.369   5.424   1.819  0.1739  1.3481 -0.1776
14096SOL     OW44858   2.506   3.810   1.309  0.1195  0.4392  0.2762
14096SOL    HW144859   2.536   3.892   1.260  0.3440 -0.7139 -1.5700
14096SOL    HW244860   2.410   3.791   1.287 -0.3050  0.9287  1.7036
14097SOL     OW44861   4.248   1.409   2.303  0.5904 -0.1071  0.0165
14097SOL    HW144862   4.302   1.380   2.225  1.3064  0.6823  0.2152
14097SOL    HW244863   4.186   1.335   2.330 -1.2186  0.3700 -2.6449
14098SOL     OW44864   2.408   0.507   1.155  0.4217  0.1170 -0.0639
14098SOL    HW144865   2.432   0.417   1.117  2.4271  0.2738  0.7416
14098SOL    HW244866   2.419   0.504   1.254  0.2429  1.1721 -0.0146
14099SOL     OW44867   4.042   1.211   2.410 -0.5717 -0.1940 -0.4455
14099SOL    HW144868   4.024   1.299   2.453  1.5109 -0.4964  1.1445
14099SOL    HW244869   3.955   1.165   2.391 -1.6287  0.7478  1.8408
14100SOL     OW44870   1.996   8.686   3.614 -0.0119  0.6028 -0.1010
14100SOL    HW144871   1.977   8.760   3.550  0.5537 -0.0503 -1.0480
14100SOL    HW244872   2.082   8.705   3.663  1.4858 -0.6113 -2.1855
14101SOL     OW44873   9.609   5.061   4.633  0.3654 -0.0513 -0.2490
14101SOL    HW144874   9.679   5.015   4.578 -1.2484 -1.2886 -1.3223
14101SOL    HW244875   9.522   5.059   4.584 -0.8888 -0.2784  1.9285
14102SOL     OW44876   0.612   2.297   1.546  0.2135  0.1551 -0.1683
14102SOL    HW144877   0.528   2.249   1.572 -0.1827  0.4234 -0.9262
14102SOL    HW244878   0.627   2.287   1.447 -0.9739  3.2341 -0.7209
14103SOL     OW44879   8.534   5.142   5.053  0.1738  0.0092 -0.6293
14103SOL    HW144880   8.600   5.092   4.997  0.3557  0.5589 -0.9067
14103SOL    HW244881   8.459   5.175   4.995 -0.2505 -0.4343 -0.3498
14104SOL     OW44882   8.335   0.399   1.352  0.1696 -0.1748 -0.5192
14104SOL    HW144883   8.290   0.448   1.277  2.5180  1.0020 -1.2205
14104SOL    HW244884   8.298   0.430   1.439 -1.2915 -0.1991 -1.1184
14105SOL     OW44885   2.355   9.633   3.124  0.3890 -0.1832  0.4423
14105SOL    HW144886   2.443   9.588   3.112  0.2596 -0.2939 -0.1007
14105SOL    HW244887   2.328   9.678   3.039  0.6554  1.1812  1.0691
14106SOL     OW44888   2.516   4.234   5.198  0.1634 -0.3928  0.1243
14106SOL    HW144889   2.469   4.269   5.279  0.2164  0.5949 -0.2667
14106SOL    HW244890   2.485   4.285   5.117  0.4901 -1.0269 -0.4047
14107SOL     OW44891   7.497   0.600   1.777 -0.1514  0.1860  0.8340
14107SOL    HW144892   7.589   0.564   1.794 -0.4524 -0.9765  0.0171
14107SOL    HW244893   7.462   0.641   1.862  1.6340  1.8458  0.8115
14109SOL     OW44894   1.667   0.772   4.450 -0.3459  0.6588 -0.0475
14109SOL    HW144895   1.651   0.803   4.544  1.8622  1.7995 -0.0187
14109SOL    HW244896   1.747   0.819   4.412 -0.9763 -0.0761 -2.3748
14111SOL     OW44897   6.544   0.799   5.121 -0.2226 -0.3748 -0.0983
14111SOL    HW144898   6.566   0.783   5.217  0.8811 -0.3129 -0.3299
14111SOL    HW244899   6.575   0.722   5.066  0.5080  0.2481 -0.5823
14112SOL     OW44900   7.734   3.078   0.157  0.1792 -0.2267 -0.0718
14112SOL    HW144901   7.658   3.138   0.182 -0.0246 -0.0325 -1.1362
14112SOL    HW244902   7.710   2.984   0.180 -0.1792 -0.1061  0.0588
14113SOL     OW44903   1.402   2.351   1.459  0.2323 -0.1309 -0.5939
14113SOL    HW144904   1.448   2.429   1.501 -2.0913  1.5606 -1.0844
14113SOL    HW244905   1.357   2.381   1.374 -2.7786 -1.4168  0.4953
14114SOL     OW44906   9.055   5.436   1.906 -0.3815  0.5916  0.0483
14114SOL    HW144907   9.094   5.517   1.862 -0.2458  0.1551 -0.6440
14114SOL    HW244908   9.106   5.415   1.989 -0.3740  1.1768  0.1975
14115SOL     OW44909   7.280   6.823   4.849  0.2665  0.4764  0.4167
14115SOL    HW144910   7.251   6.875   4.929  2.6372  1.4776  0.6570
14115SOL    HW244911   7.310   6.732   4.877 -2.7227 -0.6369  0.1434
14116SOL     OW44912   4.409   1.557   2.741 -0.5787  0.3965 -0.1241
14116SOL    HW144913   4.490   1.499   2.743 -0.1205  0.9995 -1.0097
14116SOL    HW244914   4.401   1.605   2.829  0.5186  0.9938 -0.3331
14117SOL     OW44915   2.795   6.935   1.985 -0.3060  0.9212 -0.3399
14117SOL    HW144916   2.700   6.906   1.977 -0.3873  0.6420  1.5370
14117SOL    HW244917   2.810   6.980   2.073  1.4505  0.3145 -0.2982
14118SOL     OW44918   6.134   3.749   0.114  0.1333 -0.4164  0.1794
14118SOL    HW144919   6.178   3.669   0.156  0.6703 -0.4650 -0.4620
14118SOL    HW244920   6.061   3.782   0.174 -2.5023 -3.5763 -1.1485
14119SOL     OW44921   5.203   0.857   0.583  0.5027  0.3536 -0.0250
14119SOL    HW144922   5.182   0.784   0.518 -0.5267  0.3358  0.3089
14119SOL    HW244923   5.123   0.917   0.593  1.0055  0.9590  0.4356
14120SOL     OW44924   9.134   7.847   0.288  0.4281  0.4841  0.4884
14120SOL    HW144925   9.047   7.803   0.312  0.3894  0.9319  1.1557
14120SOL    HW244926   9.171   7.895   0.367  1.5676 -0.1590  0.3507
14121SOL     OW44927   2.243   3.338   2.445 -0.0774  0.1477 -0.1837
14121SOL    HW144928   2.183   3.270   2.487 -1.7306 -0.8408 -3.9151
14121SOL    HW244929   2.338   3.318   2.470 -0.8245 -1.6477  1.3291
14122SOL     OW44930   2.234   8.732   1.505 -0.5002 -0.2367 -0.2550
14122SOL    HW144931   2.159   8.667   1.518  0.4534 -1.6150 -1.4589
14122SOL    HW244932   2.239   8.759   1.409  0.3797  0.0413 -0.1409
14123SOL     OW44933   5.823   5.887   0.865  0.6212  0.2975  0.1974
14123SOL    HW144934   5.808   5.978   0.826 -1.4195 -0.5126 -0.9709
14123SOL    HW244935   5.781   5.818   0.807  2.1901 -1.4187  1.0588
14124SOL     OW44936   7.168   1.376   1.782  0.0144 -0.1876  0.2001
14124SOL    HW144937   7.119   1.401   1.865 -0.8528  0.7813 -0.5940
14124SOL    HW244938   7.164   1.277   1.769  1.1049 -0.4772  1.8888
14125SOL     OW44939   9.025   6.342   2.724 -0.1919 -0.3034 -0.5579
14125SOL    HW144940   9.035   6.336   2.625 -0.1403  2.5468 -0.7685
14125SOL    HW244941   9.114   6.364   2.765 -0.6652  0.7490 -0.0939
14126SOL     OW44942   9.549   5.702   0.881  0.4143 -0.4553  0.0153
14126SOL    HW144943   9.466   5.703   0.936  0.7576  0.6586  0.5329
14126SOL    HW244944   9.528   5.664   0.790 -0.4890 -0.8531  0.3830
14128SOL     OW44945   0.403   6.988   1.651  0.1080 -0.7176  0.3603
14128SOL    HW144946   0.482   7.001   1.591 -0.0085 -2.5630 -0.2239
14128SOL    HW244947   0.337   6.927   1.606 -0.5228 -1.1598  1.8727
14129SOL     OW44948   4.677   3.571   2.599  0.2295  0.5955  0.0077
14129SOL    HW144949   4.706   3.508   2.671 -0.2613 -0.4871 -0.7334
14129SOL    HW244950   4.717   3.661   2.616 -0.0881  0.4320  1.7803
14130SOL     OW44951   9.773   3.940   3.593  0.6414 -0.3322 -0.7004
14130SOL    HW144952   9.779   3.974   3.687  0.3399  0.5436 -0.9969
14130SOL    HW244953   9.700   3.873   3.587  2.9683 -3.0972  0.4982
14132SOL     OW44954   4.992   4.243   0.724 -0.0312 -0.4235  0.1246
14132SOL    HW144955   5.005   4.324   0.782  0.7744  1.6613 -2.8581
14132SOL    HW244956   4.894   4.226   0.713 -0.2854  2.0407 -1.7225
14134SOL     OW44957   2.615   4.073   3.587 -0.0088 -0.3361  0.0806
14134SOL    HW144958   2.587   3.995   3.531  0.1579 -0.2463 -0.1282
14134SOL    HW244959   2.715   4.077   3.592 -0.0016  0.2217 -0.4222
14136SOL     OW44960   7.403   9.330   2.618 -0.3263 -0.0250  0.0159
14136SOL    HW144961   7.406   9.317   2.717  2.6031 -1.0347 -0.1784
14136SOL    HW244962   7.491   9.363   2.585 -0.8029 -1.0620 -2.4466
14137SOL     OW44963   2.582   8.458   2.738 -0.3529 -0.2840  0.8222
14137SOL    HW144964   2.519   8.487   2.665 -0.0375  0.4859  0.8550
14137SOL    HW244965   2.542   8.381   2.787 -1.8152  0.9473  1.6003
14138SOL     OW44966   4.961   4.449   1.768 -0.0855  0.2645 -0.3970
14138SOL    HW144967   4.874   4.429   1.722 -1.3684  0.0981  2.0199
14138SOL    HW244968   4.947   4.451   1.867  2.8100 -0.4262  0.0809
14139SOL     OW44969   5.649   0.903   4.866 -0.0975 -0.7273 -0.8434
14139SOL    HW144970   5.745   0.878   4.859 -0.0707 -1.6684  2.0249
14139SOL    HW244971   5.640   0.991   4.912 -0.5906 -0.4265 -1.5056
14140SOL     OW44972   1.267   7.892   3.198  0.4702 -0.2624 -0.7896
14140SOL    HW144973   1.314   7.891   3.286  0.6123  0.6050 -0.8452
14140SOL    HW244974   1.248   7.987   3.172  0.0973 -0.5324 -1.5135
14142SOL     OW44975   8.171   8.561   1.967  0.4372  0.0481 -0.5509
14142SOL    HW144976   8.166   8.592   2.062  0.8083 -1.0222 -0.1702
14142SOL    HW244977   8.100   8.492   1.951  1.2590 -0.7800 -0.6595
14143SOL     OW44978   0.317   9.175   1.727  0.0705 -0.3667 -0.2925
14143SOL    HW144979   0.218   9.159   1.729 -0.1108  0.4348 -1.9041
14143SOL    HW244980   0.337   9.252   1.665  1.7717 -1.0088 -0.5727
14144SOL     OW44981   9.524   5.255   0.048  0.3352  0.1455 -0.8961
14144SOL    HW144982   9.620   5.280   0.057  1.5687 -3.4391 -2.8986
14144SOL    HW244983   9.483   5.248   0.139  3.0826 -2.0062  0.2720
14145SOL     OW44984   9.615   9.781   2.493  0.4098  0.1838 -0.4729
14145SOL    HW144985   9.693   9.836   2.522  0.1478  0.2598  0.1005
14145SOL    HW244986   9.534   9.809   2.544  0.1437 -0.3268 -0.6116
14146SOL     OW44987   8.068   2.164   3.571  0.0276 -0.0971  0.6863
14146SOL    HW144988   8.016   2.158   3.486 -1.0701 -3.8950  1.5434
14146SOL    HW244989   8.006   2.166   3.649  1.0530 -4.0386  1.6957
14147SOL     OW44990   6.706   4.498   1.065 -0.1422  0.1392  0.7659
14147SOL    HW144991   6.755   4.540   0.989 -3.2086  0.3496 -1.1378
14147SOL    HW244992   6.686   4.568   1.134 -0.3232  0.6406  0.2098
14148SOL     OW44993   0.868   6.599   1.739  0.0181 -0.5401 -0.4123
14148SOL    HW144994   0.891   6.503   1.757 -0.1529 -0.4024  0.5407
14148SOL    HW244995   0.797   6.629   1.802 -1.4868 -0.4192 -2.1454
14149SOL     OW44996   3.700   9.379   0.603 -0.0643 -0.2510  0.1812
14149SOL    HW144997   3.740   9.470   0.590  0.2771 -0.5279 -0.7886
14149SOL    HW244998   3.601   9.386   0.602 -0.0814  0.4089  2.3295
14150SOL     OW44999   0.061   4.338   4.150  0.0711 -0.0753 -0.0260
14150SOL    HW145000  -0.033   4.323   4.181  0.4969  0.1540  1.4323
14150SOL    HW245001   0.061   4.381   4.060 -1.2239  0.3325  0.1659
14151SOL     OW45002   5.083   1.741   3.401  0.4906  0.2401  0.1684
14151SOL    HW145003   5.083   1.787   3.490  0.5422  1.0131 -0.2229
14151SOL    HW245004   5.154   1.781   3.343 -1.3562  1.6859 -1.1849
14152SOL     OW45005   1.129   5.485   0.188  0.2400  0.6337  0.3218
14152SOL    HW145006   1.040   5.531   0.193 -0.0051  0.2055 -0.0102
14152SOL    HW245007   1.145   5.453   0.095 -2.1204 -4.8301  1.5625
14153SOL     OW45008   8.143   4.725   4.160 -0.1125 -0.1842  0.5080
14153SOL    HW145009   8.175   4.635   4.132 -2.2037 -1.0610  0.8462
14153SOL    HW245010   8.183   4.795   4.101  0.2342 -1.4874 -0.8147
14154SOL     OW45011   4.828   9.433   4.597  0.4848  0.1913  0.2568
14154SOL    HW145012   4.898   9.418   4.666 -0.3235  0.4025  1.1227
14154SOL    HW245013   4.761   9.500   4.630  0.7050  1.1375 -1.1596
14155SOL     OW45014   4.040   8.761   0.596  0.1584 -0.3776 -0.2156
14155SOL    HW145015   4.006   8.800   0.681  1.2151 -1.3153  0.6528
14155SOL    HW245016   4.073   8.668   0.613 -1.1607 -1.2147 -1.9771
14156SOL     OW45017   0.604   8.516   4.551 -0.0574  0.1588 -0.0574
14156SOL    HW145018   0.542   8.541   4.477 -0.0976  1.5262  0.4323
14156SOL    HW245019   0.602   8.416   4.563  0.6739 -0.1870 -2.5037
14157SOL     OW45020   1.670   8.438   5.015 -0.1678  0.3876  0.5639
14157SOL    HW145021   1.590   8.386   4.987  0.4159 -0.4080  0.3487
14157SOL    HW245022   1.655   8.476   5.106 -0.4057 -0.5856  0.9408
14158SOL     OW45023   9.733   5.846   0.736  0.8098  0.3983  0.1795
14158SOL    HW145024   9.783   5.899   0.805  1.2258  0.7304 -0.3678
14158SOL    HW245025   9.659   5.795   0.780  1.0836  0.5916  0.8710
14159SOL     OW45026   3.107   1.626   0.250  0.0878 -0.2301  0.1196
14159SOL    HW145027   3.195   1.588   0.280  0.1174 -0.0069  0.3141
14159SOL    HW245028   3.085   1.590   0.159 -0.0414 -0.9699  0.4363
14160SOL     OW45029   5.211   8.847   1.795 -0.0303  0.3924  1.2057
14160SOL    HW145030   5.130   8.899   1.768  0.4470  0.3042 -0.4938
14160SOL    HW245031   5.190   8.750   1.795 -0.1597  0.4191  1.6213
14162SOL     OW45032   9.493   2.662   4.886  0.2972  0.2321 -0.0168
14162SOL    HW145033   9.501   2.634   4.791  0.8528 -0.3930  0.2092
14162SOL    HW245034   9.554   2.739   4.903  0.4996  0.0798 -0.0594
14163SOL     OW45035   0.340   8.451   5.251 -0.4476  0.3288  0.1762
14163SOL    HW145036   0.309   8.538   5.212  0.2748  0.1032 -0.9537
14163SOL    HW245037   0.396   8.469   5.332 -2.9730  0.7554  1.8619
14164SOL     OW45038   5.990   0.558   4.738  0.0454 -0.4547  0.1802
14164SOL    HW145039   6.032   0.468   4.748 -0.7275 -0.7993  0.3832
14164SOL    HW245040   5.890   0.549   4.744 -0.1516  0.1406 -1.8088
14165SOL     OW45041   3.601   4.650   2.232  0.4168  0.0895 -0.0482
14165SOL    HW145042   3.699   4.664   2.221  0.6984  1.7360  3.7345
14165SOL    HW245043   3.551   4.718   2.178  1.4356  1.1649  0.3405
14166SOL     OW45044   3.810   8.167   4.096 -0.6527  0.0231  0.2510
14166SOL    HW145045   3.800   8.163   3.997 -0.2551 -0.9933  0.2516
14166SOL    HW245046   3.805   8.075   4.135 -1.0537  0.4343  1.1989
14168SOL     OW45047   0.468   0.475   2.793 -0.5138 -0.0271  0.0336
14168SOL    HW145048   0.430   0.509   2.878 -0.9852 -0.2479 -0.0888
14168SOL    HW245049   0.442   0.379   2.781  0.6215 -0.3860  0.2771
14169SOL     OW45050   9.855   2.684   4.184 -0.4744 -0.0207 -0.5091
14169SOL    HW145051   9.812   2.706   4.272 -0.0309  0.0219 -0.3038
14169SOL    HW245052   9.861   2.768   4.129 -0.9673 -0.0907 -0.6807
14170SOL     OW45053   9.908   6.318   1.111  0.2197 -0.1335 -0.3789
14170SOL    HW145054   9.852   6.348   1.034 -0.6109  0.3345  0.4050
14170SOL    HW245055   9.868   6.236   1.152 -0.0029  0.3314  0.3235
14171SOL     OW45056   2.359   5.691   4.292  0.3187 -0.6098  0.1404
14171SOL    HW145057   2.346   5.774   4.347  0.4325 -0.0010 -0.7417
14171SOL    HW245058   2.404   5.621   4.347  0.5893  0.0593  0.7678
14172SOL     OW45059   7.581   3.192   3.079  0.4681  0.2626  0.0877
14172SOL    HW145060   7.624   3.129   3.144  2.0933 -0.1011 -1.2994
14172SOL    HW245061   7.548   3.273   3.127  2.6156  0.5006  1.2568
14173SOL     OW45062   4.788   4.091   4.923  0.2288 -0.2008 -1.0812
14173SOL    HW145063   4.727   4.169   4.938 -0.8769 -0.9165 -1.7720
14173SOL    HW245064   4.739   4.020   4.873  1.2897 -1.2575 -0.6367
14175SOL     OW45065   1.699   6.779   3.748  0.0896 -0.5586  0.1414
14175SOL    HW145066   1.796   6.762   3.762  0.2103  0.6025  0.7219
14175SOL    HW245067   1.677   6.873   3.772 -0.8191 -0.2464 -1.8593
14177SOL     OW45068   2.279   6.168   1.299  0.2222 -0.2641  0.3896
14177SOL    HW145069   2.189   6.175   1.257  1.1953 -0.0417 -1.7354
14177SOL    HW245070   2.326   6.256   1.292  1.0490 -0.6969  0.4123
14178SOL     OW45071   1.658   2.585   4.843  0.1962 -0.1067 -0.3325
14178SOL    HW145072   1.574   2.556   4.889  1.0561 -2.4984 -0.1765
14178SOL    HW245073   1.638   2.608   4.748 -0.5530 -1.2711 -0.4699
14179SOL     OW45074   4.802   1.851   2.264  0.0557 -0.5707  0.3871
14179SOL    HW145075   4.789   1.949   2.280  0.4310 -0.4031 -0.3546
14179SOL    HW245076   4.745   1.800   2.329  1.1506  0.1195  1.9245
14180SOL     OW45077   3.392   5.699   2.894 -0.2881  0.3804  0.2626
14180SOL    HW145078   3.414   5.740   2.805  2.1665  0.2700  0.7733
14180SOL    HW245079   3.302   5.730   2.924 -0.8456  0.9810 -1.9246
14182SOL     OW45080   3.366   5.131   2.196  0.4492  0.0176  0.7434
14182SOL    HW145081   3.312   5.176   2.125  1.3562  0.8492  0.5557
14182SOL    HW245082   3.322   5.144   2.285 -1.1857 -1.8363  0.2342
14183SOL     OW45083   0.949   5.687   2.548  0.0305 -0.6753 -0.5157
14183SOL    HW145084   0.865   5.710   2.500 -0.6000  0.3519  1.0087
14183SOL    HW245085   0.957   5.588   2.557 -1.0450 -0.7793 -0.6330
14185SOL     OW45086   9.007   2.236   4.097 -0.1244 -0.4385 -0.3270
14185SOL    HW145087   9.092   2.203   4.056  1.4065  1.1578  1.4529
14185SOL    HW245088   8.988   2.329   4.064 -1.6089 -1.0862 -1.3174
14187SOL     OW45089   8.695   8.901   0.035 -0.3014  0.0580 -0.0234
14187SOL    HW145090   8.658   8.987  -0.001  0.0523  0.1902 -0.0746
14187SOL    HW245091   8.750   8.920   0.116  1.4230  0.1155 -1.1864
14188SOL     OW45092   4.069   1.867   3.929 -0.0135 -0.5993  0.0986
14188SOL    HW145093   4.018   1.789   3.892 -2.4509  1.3617 -0.8188
14188SOL    HW245094   4.044   1.882   4.024  0.9967 -1.3109  0.4996
14189SOL     OW45095   3.359   7.878   5.167  0.1029  0.4434  0.6080
14189SOL    HW145096   3.348   7.795   5.112 -0.7113 -0.0602  1.5266
14189SOL    HW245097   3.294   7.947   5.137  1.7488  1.2915 -1.1302
14190SOL     OW45098   5.094   2.518   2.540  0.1527 -0.2818  0.0757
14190SOL    HW145099   5.076   2.439   2.480 -0.2331  0.0585 -0.2583
14190SOL    HW245100   5.029   2.517   2.616 -0.0701 -0.0959 -0.1130
14191SOL     OW45101   0.639   9.077   3.918  0.3926 -0.0806 -0.4317
14191SOL    HW145102   0.550   9.060   3.960 -0.6539  1.5685 -1.8984
14191SOL    HW245103   0.669   8.995   3.869 -1.1415 -0.1107 -1.3625
14192SOL     OW45104   1.360   0.481   1.153  1.0026  0.4059  0.0361
14192SOL    HW145105   1.405   0.450   1.237  1.2097  2.3552  0.6576
14192SOL    HW245106   1.301   0.408   1.119  1.8051 -0.8357  1.2291
14193SOL     OW45107   4.025   8.755   2.938  0.3533 -0.5878  0.6008
14193SOL    HW145108   3.990   8.759   3.031  1.6734  0.5829  1.0717
14193SOL    HW245109   3.960   8.799   2.875  0.1115 -0.1218  1.1764
14194SOL     OW45110   8.934   2.721   0.408 -0.0244 -0.0624  0.6999
14194SOL    HW145111   8.916   2.793   0.341  0.4081 -0.2890  0.3344
14194SOL    HW245112   8.896   2.747   0.496 -0.9037  0.0875  0.2856
14195SOL     OW45113   7.568   6.890   4.832 -0.4251  0.1824 -0.2900
14195SOL    HW145114   7.477   6.848   4.838 -0.8916  1.2883  0.5421
14195SOL    HW245115   7.606   6.901   4.924  0.3159  0.2354 -0.6020
14196SOL     OW45116   5.520   0.498   4.986 -0.2087 -0.3909  0.1326
14196SOL    HW145117   5.617   0.477   4.979  0.1942  1.4149  0.1742
14196SOL    HW245118   5.508   0.589   5.027 -1.7754  1.2763 -3.7434
14197SOL     OW45119   2.710   7.680   2.272  0.1833  0.4999 -0.0398
14197SOL    HW145120   2.645   7.750   2.242  1.0342  0.8500 -1.0986
14197SOL    HW245121   2.667   7.624   2.343 -0.6972  1.7484  0.4467
14198SOL     OW45122   5.781   2.450   3.090  0.5239  0.3721 -0.5704
14198SOL    HW145123   5.687   2.415   3.085  1.2628 -1.7333 -0.4746
14198SOL    HW245124   5.800   2.484   3.182 -0.2786  1.2370 -0.7163
14202SOL     OW45125   0.364   9.468   0.512 -0.5742 -0.9723 -0.0613
14202SOL    HW145126   0.269   9.472   0.481 -0.3891  0.5763 -0.4570
14202SOL    HW245127   0.377   9.531   0.589  0.2542 -0.7812 -0.3519
14203SOL     OW45128   9.283   0.503   5.286  0.0455  0.0399  0.0441
14203SOL    HW145129   9.293   0.550   5.198  0.9239 -0.3035 -0.0482
14203SOL    HW245130   9.372   0.466   5.314 -0.0470  0.8948  1.4999
14205SOL     OW45131   2.987   7.177   0.986 -0.1309  0.5112  0.2058
14205SOL    HW145132   2.894   7.208   1.008  0.3228  0.9930  1.4508
14205SOL    HW245133   3.033   7.246   0.930 -1.7619 -1.3088 -3.5855
14206SOL     OW45134   7.439   9.786   5.034  0.0758  0.0305 -0.7021
14206SOL    HW145135   7.503   9.758   5.105 -0.3953  2.8848  0.9178
14206SOL    HW245136   7.350   9.744   5.050  0.0292  0.4929  0.3206
14207SOL     OW45137   3.888   2.730   4.712 -0.4973 -0.6939 -0.2023
14207SOL    HW145138   3.892   2.642   4.759  1.8947 -0.1981  0.5948
14207SOL    HW245139   3.838   2.719   4.626 -3.1775 -2.0433  1.4661
14209SOL     OW45140   0.737   4.281   4.610 -0.1149 -0.4916  0.2270
14209SOL    HW145141   0.647   4.322   4.627  0.4917  1.7106 -1.6578
14209SOL    HW245142   0.729   4.214   4.536 -0.3323 -0.7174  0.4583
14210SOL     OW45143   0.891   3.843   4.961 -0.5008 -0.6799 -0.0219
14210SOL    HW145144   0.917   3.932   4.925  0.7931 -0.6286  1.0215
14210SOL    HW245145   0.907   3.773   4.891 -0.3781 -0.2586 -0.4204
14211SOL     OW45146   3.853   4.317   0.909 -0.5557 -0.2619  0.2324
14211SOL    HW145147   3.859   4.225   0.949  1.0187 -0.1954  0.1950
14211SOL    HW245148   3.907   4.320   0.825 -0.5505  0.7197  0.2692
14213SOL     OW45149   2.677   3.385   0.708  0.2707 -0.2945  0.3362
14213SOL    HW145150   2.713   3.477   0.696  1.4419 -0.8732 -0.7937
14213SOL    HW245151   2.684   3.358   0.804 -0.4646  0.9378  0.7386
14214SOL     OW45152   5.493   1.593   4.741 -0.5736  0.3035  0.2150
14214SOL    HW145153   5.510   1.587   4.839 -2.7708  2.2606  0.7593
14214SOL    HW245154   5.395   1.582   4.723 -0.4981  2.2465 -1.5412
14216SOL     OW45155   5.752   7.642   2.870 -1.0449  0.2188 -0.0688
14216SOL    HW145156   5.665   7.624   2.915 -0.9320 -1.8890 -0.6354
14216SOL    HW245157   5.816   7.683   2.935 -1.8200 -0.1104  0.9049
14217SOL     OW45158   1.213   6.269   2.757  0.6895  0.0367 -0.2507
14217SOL    HW145159   1.194   6.174   2.784  2.6110 -0.6004 -1.0864
14217SOL    HW245160   1.148   6.297   2.687 -0.1244 -0.5212  0.2667
14218SOL     OW45161   0.317   9.887   0.260 -0.0207  0.1370 -0.0273
14218SOL    HW145162   0.402   9.913   0.305 -0.5021 -1.3970  1.8702
14218SOL    HW245163   0.325   9.793   0.225 -0.0553  0.9031 -2.1365
14219SOL     OW45164   4.627   0.769   3.941 -0.4720 -0.2672 -0.2653
14219SOL    HW145165   4.613   0.671   3.950 -1.8676 -0.1008 -0.5660
14219SOL    HW245166   4.664   0.789   3.850 -0.9866 -0.4325 -0.5123
14220SOL     OW45167   2.601   4.319   0.986 -0.0360 -0.2232 -0.2942
14220SOL    HW145168   2.684   4.354   0.942 -0.6456  1.5697 -0.0590
14220SOL    HW245169   2.612   4.324   1.085 -0.6481  0.5584 -0.2661
14221SOL     OW45170   6.053   7.662   5.050  0.2421 -0.1954 -0.0347
14221SOL    HW145171   6.048   7.723   5.129  2.5429  1.3035 -0.9835
14221SOL    HW245172   5.976   7.681   4.989 -0.4155  0.0624  0.8718
14222SOL     OW45173   1.440   2.485   3.560 -0.1265 -0.0899  0.1071
14222SOL    HW145174   1.448   2.442   3.470 -3.2797 -0.2495 -0.1467
14222SOL    HW245175   1.485   2.427   3.628  1.8246 -0.2249 -1.2486
14223SOL     OW45176   9.761   9.787   0.586  0.0445 -0.3836  0.1178
14223SOL    HW145177   9.800   9.804   0.677  0.8787 -1.4555 -0.0305
14223SOL    HW245178   9.814   9.715   0.540  1.0985  1.7408 -2.1309
14225SOL     OW45179   7.897   0.647   3.520 -0.0768  0.1945  0.1930
14225SOL    HW145180   7.799   0.661   3.506 -0.5340 -0.6258  2.4367
14225SOL    HW245181   7.942   0.735   3.534 -0.9047  0.4046  1.6150
14226SOL     OW45182   3.763   3.440   0.720 -0.1503  0.2722  0.3090
14226SOL    HW145183   3.673   3.482   0.725 -0.3547 -0.2721  1.2973
14226SOL    HW245184   3.833   3.510   0.731 -0.4441  0.6589 -0.2029
14227SOL     OW45185   7.433   8.113   2.941 -0.4172  0.4311 -0.5876
14227SOL    HW145186   7.344   8.146   2.910 -1.0425 -0.0474  0.6827
14227SOL    HW245187   7.464   8.040   2.880 -0.9173  0.5617 -1.0008
14228SOL     OW45188   3.368   4.582   3.606  0.2010  0.0723  0.6245
14228SOL    HW145189   3.373   4.485   3.630  0.2755  0.2895  1.5325
14228SOL    HW245190   3.452   4.609   3.560 -0.5317 -0.6929 -1.2235
14229SOL     OW45191   1.176   9.702   4.161 -0.1717 -0.2505  0.3627
14229SOL    HW145192   1.118   9.717   4.241 -0.6350  1.0712 -0.2088
14229SOL    HW245193   1.130   9.736   4.079  1.9103  1.9973  0.0678
14230SOL     OW45194   5.260   9.532   1.762  0.2275  0.3029 -0.4317
14230SOL    HW145195   5.349   9.543   1.808 -0.0737  2.6824 -0.3239
14230SOL    HW245196   5.256   9.443   1.718  2.2005 -0.3315  0.5977
14232SOL     OW45197   2.406   0.618   2.486 -0.0655  0.1564 -0.5312
14232SOL    HW145198   2.377   0.714   2.482 -0.6275  0.0356  0.5084
14232SOL    HW245199   2.505   0.613   2.497 -0.0573  0.6233 -0.4024
14233SOL     OW45200   4.897   5.069   0.858 -0.1797  0.5184 -0.8859
14233SOL    HW145201   4.997   5.072   0.857 -0.0660 -1.9726 -0.0635
14233SOL    HW245202   4.863   5.093   0.949 -0.2282 -0.3635 -0.6613
14234SOL     OW45203   1.689   9.385   0.643  0.0558  0.3781  0.0098
14234SOL    HW145204   1.630   9.335   0.580 -0.6250 -0.4720  1.2792
14234SOL    HW245205   1.734   9.460   0.595  1.4913 -1.7262 -2.0933
14235SOL     OW45206   1.870   3.847   4.420  0.2405 -0.3596  0.2990
14235SOL    HW145207   1.892   3.908   4.497 -2.2571  1.5364 -0.4148
14235SOL    HW245208   1.896   3.891   4.334 -1.1116 -0.5164 -0.1970
14236SOL     OW45209   1.685   9.810   4.857  0.6134  0.3478 -0.9698
14236SOL    HW145210   1.766   9.814   4.799  0.8180 -1.2971 -0.8229
14236SOL    HW245211   1.711   9.786   4.950  0.0219  0.4699 -0.7689
14237SOL     OW45212   1.585   2.787   1.671  0.0779  0.6956 -0.4280
14237SOL    HW145213   1.591   2.862   1.605  2.4048 -0.0003 -1.0432
14237SOL    HW245214   1.667   2.786   1.728 -1.2816  0.4199  1.5411
14239SOL     OW45215   4.883   9.478   4.023 -0.3343 -0.0223 -0.4006
14239SOL    HW145216   4.875   9.410   3.950  0.7464 -0.1105 -0.4451
14239SOL    HW245217   4.976   9.513   4.026 -0.6725  0.8645  0.1638
14240SOL     OW45218   6.131   9.375   1.541  0.0706  0.2377  0.2063
14240SOL    HW145219   6.157   9.470   1.560 -0.7829  0.7698 -1.1878
14240SOL    HW245220   6.143   9.357   1.443 -1.8237 -0.4439  0.0923
14241SOL     OW45221   7.715   1.038   1.290 -0.1597 -0.1253 -0.2394
14241SOL    HW145222   7.662   1.115   1.324 -0.8323 -0.3436 -0.7857
14241SOL    HW245223   7.654   0.970   1.250  0.6328  0.3417 -2.2994
14242SOL     OW45224   9.383   9.044   3.350  0.6687 -0.0352 -0.1774
14242SOL    HW145225   9.360   8.947   3.341  0.6597 -0.1754  1.2408
14242SOL    HW245226   9.299   9.099   3.345  0.6220 -0.1395 -0.5221
14243SOL     OW45227   1.038   5.267   1.826 -0.5751  0.0474 -0.0768
14243SOL    HW145228   1.031   5.212   1.909  1.2684  0.1808  0.1947
14243SOL    HW245229   1.134   5.285   1.806 -1.0573  1.2041 -1.4672
14246SOL     OW45230   2.421   0.226   5.176 -0.2341 -0.0420 -0.0650
14246SOL    HW145231   2.401   0.230   5.078 -1.3196  0.7844  0.1843
14246SOL    HW245232   2.514   0.261   5.192  0.0413 -0.4106 -0.8198
14247SOL     OW45233   2.770   3.962   3.824  0.4032  0.4991  0.0027
14247SOL    HW145234   2.788   3.948   3.921  1.1312  1.7148  0.0473
14247SOL    HW245235   2.782   3.875   3.775  1.7000  0.2474  0.7465
14248SOL     OW45236   2.641   8.925   2.720 -0.0781  0.2934  0.3081
14248SOL    HW145237   2.579   8.982   2.666 -1.1215  0.2214  1.4269
14248SOL    HW245238   2.590   8.851   2.763  1.1715 -1.1437 -0.6385
14249SOL     OW45239   3.721   3.810   3.709  0.5660 -0.1152  0.6090
14249SOL    HW145240   3.676   3.882   3.656 -1.6374 -1.1078  1.0715
14249SOL    HW245241   3.806   3.784   3.663 -0.1413  0.6480 -1.2008
14250SOL     OW45242   8.900   7.578   2.780  0.1111  0.0550 -0.0463
14250SOL    HW145243   8.970   7.512   2.807  0.0283 -0.6267 -1.4529
14250SOL    HW245244   8.813   7.553   2.821 -0.0401 -1.0313 -1.0278
14252SOL     OW45245   2.851   8.114   0.512  0.3246  0.1252 -0.2893
14252SOL    HW145246   2.777   8.180   0.499  2.2721  2.7081  1.3217
14252SOL    HW245247   2.936   8.153   0.475  1.5093 -1.4778  0.7241
14254SOL     OW45248   8.719   9.237   3.618  0.7954  0.0025  0.4322
14254SOL    HW145249   8.683   9.158   3.570  0.7623 -0.2913  0.9369
14254SOL    HW245250   8.742   9.212   3.712 -0.0966  0.8240  0.8797
14255SOL     OW45251   6.161   0.765   1.564  0.1153  0.2200  0.1889
14255SOL    HW145252   6.197   0.783   1.656  0.3652 -1.4892  0.4493
14255SOL    HW245253   6.063   0.782   1.562  0.0514 -0.0590  0.8642
14256SOL     OW45254   9.103   8.329   0.812  0.9868  0.5958  0.4764
14256SOL    HW145255   9.063   8.267   0.880 -0.5288 -1.0767 -1.8450
14256SOL    HW245256   9.069   8.422   0.827 -0.1551  0.0530  1.3722
14257SOL     OW45257   2.451   0.979   1.890  0.4160 -0.8366 -0.0280
14257SOL    HW145258   2.371   0.973   1.950 -0.7565  2.3851 -1.1750
14257SOL    HW245259   2.422   0.963   1.795  0.9605  1.0436 -0.5343
14258SOL     OW45260   8.056   6.545   0.618  0.5614  0.0643  0.1623
14258SOL    HW145261   8.045   6.576   0.713  0.0184  2.7855 -0.7718
14258SOL    HW245262   8.042   6.621   0.556 -1.5936 -2.2297 -2.2847
14259SOL     OW45263   9.753   1.872   0.437  0.0864  0.8931 -0.5341
14259SOL    HW145264   9.806   1.817   0.373 -1.7989  0.0358 -1.4003
14259SOL    HW245265   9.785   1.967   0.435  0.9426  0.5814 -1.7455
14261SOL     OW45266   3.486   6.895   1.957  0.1756 -0.3651 -0.6693
14261SOL    HW145267   3.461   6.991   1.943  2.2136 -0.1182 -2.8938
14261SOL    HW245268   3.423   6.854   2.024 -0.6085  2.5334  0.4568
14262SOL     OW45269   8.779   4.512   1.171 -0.1610 -0.3349 -0.4985
14262SOL    HW145270   8.863   4.522   1.118  0.3363  0.4533  0.4094
14262SOL    HW245271   8.786   4.431   1.229  1.4870  1.6429  2.2022
14263SOL     OW45272   3.167   2.380   2.669 -0.5824  0.2096  0.0567
14263SOL    HW145273   3.117   2.411   2.749  0.4319  2.4553 -0.1356
14263SOL    HW245274   3.135   2.430   2.588 -2.5082 -2.9347 -1.2189
14264SOL     OW45275   9.172   5.651   2.157  0.1236  0.0602 -0.2264
14264SOL    HW145276   9.240   5.664   2.229  0.3928  1.5052 -0.7230
14264SOL    HW245277   9.083   5.684   2.189  0.4668  1.7195 -0.9067
14265SOL     OW45278   5.142   2.850   3.186 -0.1808 -0.0706  0.1314
14265SOL    HW145279   5.208   2.786   3.226 -1.1289 -0.6954  0.7268
14265SOL    HW245280   5.140   2.838   3.087  0.7973  0.1517  0.0726
14266SOL     OW45281   3.488   9.389   2.984  0.7086 -0.0324  0.0643
14266SOL    HW145282   3.487   9.307   2.927  1.8951 -0.4763  0.6742
14266SOL    HW245283   3.581   9.425   2.990 -0.1450  2.6662 -2.0385
14267SOL     OW45284   0.534   7.232   2.370 -0.0342 -0.5277 -0.5718
14267SOL    HW145285   0.512   7.188   2.458  0.4635 -1.8108 -1.0756
14267SOL    HW245286   0.473   7.196   2.300 -0.0814  0.1080 -0.8525
14268SOL     OW45287   1.725   9.253   4.114 -0.0877  0.5486 -0.0486
14268SOL    HW145288   1.689   9.291   4.029  0.2987 -0.6972 -0.7763
14268SOL    HW245289   1.652   9.252   4.183 -0.0183  2.8659  0.0714
14269SOL     OW45290   4.923   2.430   3.797  0.3523  0.2158  0.9825
14269SOL    HW145291   4.922   2.523   3.832 -1.1772 -0.1932  2.0681
14269SOL    HW245292   4.856   2.375   3.846 -1.3181 -0.5846 -2.0760
14270SOL     OW45293   4.609   9.165   0.758 -0.8238 -0.1376 -0.5247
14270SOL    HW145294   4.706   9.145   0.770 -0.3022  1.4588 -1.9836
14270SOL    HW245295   4.560   9.080   0.735  0.3849 -0.7607 -0.8243
14271SOL     OW45296   4.686   2.158   1.038  0.4371  0.2661 -0.2401
14271SOL    HW145297   4.777   2.181   1.074  0.2054 -2.5449  2.2885
14271SOL    HW245298   4.679   2.060   1.025 -1.3906  0.6963 -3.0050
14272SOL     OW45299   1.599   0.377   4.870 -0.4668  0.1306  0.1428
14272SOL    HW145300   1.529   0.307   4.887  0.7114 -1.0575  0.1436
14272SOL    HW245301   1.689   0.341   4.895  0.3345  1.1279 -1.2633
14273SOL     OW45302   9.392   4.751   3.343 -0.2508  1.5243 -0.3587
14273SOL    HW145303   9.371   4.666   3.294 -1.2548  1.7006 -0.2394
14273SOL    HW245304   9.318   4.771   3.408  2.4554 -0.4331  3.5985
14274SOL     OW45305   1.307   4.879   1.398 -0.4146  0.3176  0.3276
14274SOL    HW145306   1.217   4.855   1.362 -0.4920 -2.1730  2.0837
14274SOL    HW245307   1.376   4.817   1.358  0.5636  2.2310 -1.0401
14275SOL     OW45308   9.302   2.062   1.357  0.0554  0.3751  0.4217
14275SOL    HW145309   9.383   2.105   1.317 -0.2066 -0.7672 -1.4449
14275SOL    HW245310   9.312   2.057   1.456  2.4166 -0.0268  0.1996
14276SOL     OW45311   4.300   2.722   3.817 -0.2413 -0.2459 -0.2841
14276SOL    HW145312   4.252   2.726   3.730  0.9688 -1.7146 -1.0430
14276SOL    HW245313   4.389   2.768   3.808  0.4648 -1.5829 -0.2263
14277SOL     OW45314   2.080   8.417   0.522  0.1538  0.2133  0.0190
14277SOL    HW145315   2.029   8.488   0.473  0.7749 -1.2996 -2.9498
14277SOL    HW245316   2.018   8.364   0.579 -1.5776 -1.0997 -2.9455
14278SOL     OW45317   4.082   1.143   1.878 -0.0177 -0.6078  0.2706
14278SOL    HW145318   4.030   1.065   1.841  1.2283 -1.5307  0.4453
14278SOL    HW245319   4.018   1.215   1.903 -1.3069 -2.0280  1.1892
14279SOL     OW45320   4.343   4.995   1.832  0.2606 -0.4690 -0.3472
14279SOL    HW145321   4.392   5.077   1.803  1.9797 -1.1676  0.4641
14279SOL    HW245322   4.280   4.966   1.760 -0.9329  1.9692 -0.3304
14280SOL     OW45323   4.482   0.029   4.503 -0.1210 -0.3711  0.2812
14280SOL    HW145324   4.464  -0.069   4.499 -1.7226 -0.0538 -0.4713
14280SOL    HW245325   4.564   0.046   4.558 -0.1276 -2.0877  0.8292
14281SOL     OW45326   9.659   1.088   0.258 -0.0929 -0.3487  0.2628
14281SOL    HW145327   9.602   1.056   0.182 -0.0229  1.2370 -0.4776
14281SOL    HW245328   9.672   1.186   0.250  2.7978 -0.6876  0.4026
14282SOL     OW45329   5.430   8.252   3.842  0.1959 -0.5644 -0.2482
14282SOL    HW145330   5.527   8.270   3.863  0.7053 -2.4129 -0.9345
14282SOL    HW245331   5.417   8.155   3.825 -1.7886 -0.3139 -0.2754
14283SOL     OW45332   3.861   0.377   1.603  0.0566  0.1020 -0.5293
14283SOL    HW145333   3.794   0.350   1.671 -1.0685 -0.7485 -1.9483
14283SOL    HW245334   3.818   0.437   1.535  0.8598 -0.0011 -1.1477
14285SOL     OW45335   4.400   4.517   4.587  0.2781  0.5805  0.1586
14285SOL    HW145336   4.364   4.431   4.621 -1.3403  0.8695 -0.7820
14285SOL    HW245337   4.499   4.509   4.574  0.3421 -0.6919  1.3507
14286SOL     OW45338   2.810   5.755   2.215 -0.1144 -0.2079 -0.0810
14286SOL    HW145339   2.830   5.664   2.178 -0.1644 -1.3779  2.6243
14286SOL    HW245340   2.722   5.754   2.261 -0.2419  1.3022 -0.2541
14287SOL     OW45341   9.599   8.854   4.341 -0.2836 -0.1050  0.0339
14287SOL    HW145342   9.578   8.951   4.354 -0.4502 -0.4361  2.4879
14287SOL    HW245343   9.517   8.805   4.313 -0.4408  0.2650 -0.1520
14288SOL     OW45344   1.424   4.677   1.179  0.0363  0.0643 -0.7538
14288SOL    HW145345   1.411   4.757   1.121  0.9254  0.1894 -0.7939
14288SOL    HW245346   1.492   4.616   1.138 -0.2171 -0.4352 -0.4446
14289SOL     OW45347   5.969   4.876   0.600  0.1516 -0.3094  0.3866
14289SOL    HW145348   5.871   4.866   0.618 -0.0326 -0.1966 -0.5260
14289SOL    HW245349   5.982   4.936   0.522  1.0171  1.0914  1.5882
14290SOL     OW45350   0.050   3.544   5.204  0.4359 -0.4873  0.0481
14290SOL    HW145351   0.043   3.492   5.289 -2.0471  0.0310  0.2123
14290SOL    HW245352   0.134   3.520   5.156  2.3812 -0.0495  3.1286
14291SOL     OW45353   4.579   2.685   3.471 -0.1617  0.4379 -0.0459
14291SOL    HW145354   4.614   2.677   3.564  2.1273  4.2401 -0.4971
14291SOL    HW245355   4.641   2.638   3.408 -0.1997  0.2879  0.0280
14293SOL     OW45356   7.864   5.282   0.049 -0.5314 -0.0846 -0.1483
14293SOL    HW145357   7.767   5.290   0.073 -0.5489  0.2579 -0.3414
14293SOL    HW245358   7.919   5.286   0.132 -0.7786 -1.9050  0.1349
14294SOL     OW45359   1.171   0.497   3.814  0.9496  0.1667 -0.0817
14294SOL    HW145360   1.238   0.449   3.871  0.1829 -0.1945  0.5234
14294SOL    HW245361   1.160   0.591   3.848 -0.4737 -0.4368  1.2093
14295SOL     OW45362   1.886   6.089   0.171  0.5767  0.1778 -0.7959
14295SOL    HW145363   1.899   5.992   0.149 -0.8993 -0.3562  0.5732
14295SOL    HW245364   1.920   6.107   0.263 -1.3305  0.4131 -0.1222
14297SOL     OW45365   5.054   5.552   1.779 -0.0668 -0.1071  0.3279
14297SOL    HW145366   5.144   5.510   1.763  0.3628  0.3493  1.4878
14297SOL    HW245367   5.021   5.526   1.869 -1.3118 -0.6209 -0.2721
14298SOL     OW45368   0.585   4.817   1.535  0.6217  0.0656 -0.3840
14298SOL    HW145369   0.511   4.803   1.600  0.5239  0.2193 -0.4600
14298SOL    HW245370   0.615   4.913   1.539  0.6544  0.0620 -0.5222
14299SOL     OW45371   0.415   5.519   2.292  0.6915  0.1003  0.5272
14299SOL    HW145372   0.321   5.536   2.323  0.7389  0.5205  0.4489
14299SOL    HW245373   0.462   5.462   2.359 -0.2913 -1.9768 -0.4877
14300SOL     OW45374   7.560   0.811   4.400  0.4834  0.2230  0.0978
14300SOL    HW145375   7.528   0.734   4.457  1.2555 -0.3781 -0.2741
14300SOL    HW245376   7.611   0.875   4.457 -1.5182  1.2982  0.7452
14301SOL     OW45377   8.260   7.030   5.158 -0.0888 -0.0438  0.4289
14301SOL    HW145378   8.351   6.995   5.179  1.1234  3.3450  1.0647
14301SOL    HW245379   8.223   7.076   5.239 -1.5659  0.3270 -0.4435
14302SOL     OW45380   5.050   6.072   1.382 -0.0552 -0.0306 -0.4815
14302SOL    HW145381   4.978   6.134   1.349  0.8365  1.2549 -0.0789
14302SOL    HW245382   5.137   6.098   1.341  0.2309 -1.3976 -0.7453
14303SOL     OW45383   0.139   9.711   4.977  0.6209 -0.3796  0.5645
14303SOL    HW145384   0.091   9.623   4.965  1.6626 -0.7395 -1.0853
14303SOL    HW245385   0.076   9.777   5.017 -0.5222 -1.5545  0.7622
14304SOL     OW45386   5.702   0.397   1.206 -0.6182  0.2242  0.0949
14304SOL    HW145387   5.748   0.353   1.129  0.5555  0.3385  0.7280
14304SOL    HW245388   5.769   0.440   1.266 -1.4716 -0.2450  1.4333
14305SOL     OW45389   5.939   4.536   0.381 -0.3284 -0.3229 -0.2232
14305SOL    HW145390   5.884   4.492   0.452 -0.6166  0.1030 -0.1811
14305SOL    HW245391   5.928   4.635   0.388  0.5928 -0.2263 -0.0936
14306SOL     OW45392   9.264   4.018   3.427  0.7025  0.3295  0.1568
14306SOL    HW145393   9.247   3.983   3.335  2.3658 -1.0886  0.3583
14306SOL    HW245394   9.177   4.036   3.473 -0.1504 -0.5437 -1.0965
14307SOL     OW45395   7.365   2.527   4.521 -0.3232 -0.0168 -0.2900
14307SOL    HW145396   7.292   2.492   4.580  0.6620  1.5852  1.9379
14307SOL    HW245397   7.324   2.573   4.442 -1.6748 -1.2155 -0.3154
14308SOL     OW45398   0.866   5.100   3.902 -0.7218 -0.1713  0.2253
14308SOL    HW145399   0.905   5.184   3.939 -0.0089 -0.4799  0.1896
14308SOL    HW245400   0.767   5.106   3.903 -0.6828  0.4691  0.6929
14310SOL     OW45401   8.687   3.749   0.469 -0.3017  0.1979 -0.2425
14310SOL    HW145402   8.632   3.686   0.524  0.9430  0.0600  0.8570
14310SOL    HW245403   8.769   3.702   0.437 -0.4565  0.6209 -1.2659
14311SOL     OW45404   2.801   1.208   4.042  0.4835  0.2436 -0.5184
14311SOL    HW145405   2.815   1.112   4.018  2.4457  0.4953 -0.5089
14311SOL    HW245406   2.706   1.223   4.067  0.2911 -1.8290  0.1001
14312SOL     OW45407   8.056   3.044   1.980 -0.1636 -0.0818  0.3872
14312SOL    HW145408   8.084   3.125   2.032 -2.1101  1.4764 -0.9398
14312SOL    HW245409   8.063   3.063   1.882 -2.9219 -0.6847  0.0441
14313SOL     OW45410   1.325   5.723   2.023 -0.0191  0.3643 -0.2913
14313SOL    HW145411   1.274   5.743   1.939 -1.3465 -2.3694 -0.1724
14313SOL    HW245412   1.421   5.705   2.000 -0.2372  0.2761 -1.1442
14314SOL     OW45413   7.120   3.753   0.113  0.2067  0.1447  0.2347
14314SOL    HW145414   7.116   3.754   0.013  0.8228  2.5971  0.1762
14314SOL    HW245415   7.033   3.722   0.150  0.1985 -1.4530 -1.0502
14315SOL     OW45416   3.037   6.616   3.178  0.4250  0.4368  0.2989
14315SOL    HW145417   3.080   6.624   3.088  0.9201 -0.6679  0.4213
14315SOL    HW245418   3.002   6.523   3.189 -0.7087  0.9174  0.7766
14316SOL     OW45419   4.688   6.295   1.660 -0.5642 -0.1510 -0.0016
14316SOL    HW145420   4.774   6.246   1.645 -0.8956 -0.3015 -1.5728
14316SOL    HW245421   4.615   6.229   1.679 -0.7517 -0.1912 -0.8257
14318SOL     OW45422   8.376   5.200   0.512 -0.3725 -0.6073 -0.1644
14318SOL    HW145423   8.325   5.133   0.458 -0.4510 -1.5784  1.0987
14318SOL    HW245424   8.413   5.270   0.451 -3.7001  0.4768 -1.0795
14319SOL     OW45425   5.564   8.204   2.071 -0.3351 -0.0224  0.2962
14319SOL    HW145426   5.469   8.228   2.090 -0.9806 -1.3093 -1.2477
14319SOL    HW245427   5.570   8.108   2.046  1.4199 -0.0140  0.6138
14320SOL     OW45428   0.614   3.644   4.176  0.2042  0.8010 -0.0850
14320SOL    HW145429   0.599   3.736   4.140  0.5739  0.9813  0.2235
14320SOL    HW245430   0.542   3.584   4.143  0.9102  0.8097 -1.6922
14321SOL     OW45431   8.252   4.133   0.325 -0.1500  0.3756 -0.0714
14321SOL    HW145432   8.344   4.104   0.301 -0.8283 -2.7726  0.8689
14321SOL    HW245433   8.196   4.140   0.243 -0.5232 -3.2410 -0.2256
14324SOL     OW45434   4.310   2.588   4.970  0.1831  0.7085  0.2775
14324SOL    HW145435   4.314   2.636   4.883  0.6045  0.5742  0.2183
14324SOL    HW245436   4.215   2.575   4.998  0.0624  1.8319  0.4349
14325SOL     OW45437   1.588   3.473   3.766 -0.0945  0.0084  0.2742
14325SOL    HW145438   1.629   3.557   3.802 -0.6021  0.2204  0.3641
14325SOL    HW245439   1.491   3.471   3.789  0.4055 -1.7633  2.4197
14326SOL     OW45440   7.388   8.778   2.096 -0.2685  0.2132  0.2442
14326SOL    HW145441   7.409   8.710   2.167 -1.1578 -0.7385 -0.3762
14326SOL    HW245442   7.443   8.759   2.015  0.4835  1.0761  0.5597
14327SOL     OW45443   2.104   7.493   2.782 -0.4695  0.0531  0.8303
14327SOL    HW145444   2.041   7.515   2.707  0.4331  2.1139  0.6486
14327SOL    HW245445   2.095   7.396   2.806  0.2305 -0.9942 -2.8645
14328SOL     OW45446   1.068   0.979   4.791  0.0192 -0.5758  0.3816
14328SOL    HW145447   1.078   1.047   4.718  0.5657 -1.4518 -0.3664
14328SOL    HW245448   1.129   1.003   4.867  0.3318 -0.3174  0.0507
14329SOL     OW45449   7.156   9.996   3.524  0.1764  0.3462  0.3658
14329SOL    HW145450   7.206   9.914   3.552  0.5469  0.4371 -0.0211
14329SOL    HW245451   7.220  10.072   3.513 -0.2329  0.8167  1.2047
14331SOL     OW45452   5.254   1.206   4.255 -0.1971  0.1899  0.1509
14331SOL    HW145453   5.171   1.241   4.297  0.6490  1.7300  0.6038
14331SOL    HW245454   5.260   1.238   4.160  0.0313  0.3811  0.2261
14333SOL     OW45455   9.098   4.281   4.325  0.6962 -0.2252 -0.3491
14333SOL    HW145456   9.138   4.298   4.415  0.3871  3.1212 -0.8049
14333SOL    HW245457   9.023   4.345   4.309  1.6650  0.1869 -3.5684
14334SOL     OW45458   1.480   8.393   4.274 -0.0116 -0.4266 -0.2709
14334SOL    HW145459   1.548   8.435   4.215 -0.5415 -0.3140 -0.8009
14334SOL    HW245460   1.508   8.300   4.297  0.1802 -0.4765 -0.7186
14335SOL     OW45461   8.899   3.943   3.751  0.2122  0.3437 -0.0487
14335SOL    HW145462   8.989   3.902   3.733 -1.1051 -3.0655  0.6987
14335SOL    HW245463   8.908   4.016   3.818  2.3929 -0.1232  0.2049
14336SOL     OW45464   7.813   7.251   3.578  0.4808 -0.3333 -0.1629
14336SOL    HW145465   7.883   7.249   3.650 -1.6839 -0.3080  2.0094
14336SOL    HW245466   7.778   7.159   3.564 -0.4188 -0.0423  0.1555
14337SOL     OW45467   3.745   8.939   1.311 -0.1101  1.0679  0.4931
14337SOL    HW145468   3.694   9.012   1.267  0.1993  0.9215 -0.1129
14337SOL    HW245469   3.714   8.850   1.277  0.8267  0.9924 -0.1974
14338SOL     OW45470   1.952   4.910   0.124  0.0765  0.1833  0.5149
14338SOL    HW145471   2.023   4.841   0.137 -1.1224 -0.7293  2.4243
14338SOL    HW245472   1.946   4.968   0.205  0.0925  1.6506 -0.5025
14339SOL     OW45473   1.113   4.820   5.224 -0.4751  0.5443  0.4526
14339SOL    HW145474   1.144   4.901   5.275 -1.8327  0.3756  1.5630
14339SOL    HW245475   1.040   4.775   5.275  0.3614 -1.4722 -0.1128
14340SOL     OW45476   2.297   7.943   5.200  0.0824 -0.4849 -0.3447
14340SOL    HW145477   2.294   7.937   5.100 -0.1039 -2.0207 -0.2647
14340SOL    HW245478   2.345   7.863   5.236 -2.5035 -1.5013  0.9480
14341SOL     OW45479   8.769   2.415   1.892 -0.1464  0.6116 -0.6470
14341SOL    HW145480   8.819   2.433   1.807 -1.5233  2.0986 -1.1557
14341SOL    HW245481   8.794   2.483   1.961 -0.3963  0.4863 -0.4309
14342SOL     OW45482   2.098   8.561   4.686  0.3252 -0.1852  0.2478
14342SOL    HW145483   2.051   8.538   4.772 -1.8932  1.0262 -0.6062
14342SOL    HW245484   2.146   8.648   4.697 -1.5533  0.9488 -0.2894
14343SOL     OW45485   5.562   0.337   3.530 -0.4949  0.0404  0.2398
14343SOL    HW145486   5.492   0.266   3.534 -0.5222  0.1529  2.2445
14343SOL    HW245487   5.608   0.344   3.619  2.2961 -0.2687 -1.1279
14344SOL     OW45488   2.378   2.395   2.974 -0.4135 -0.3489 -0.4708
14344SOL    HW145489   2.407   2.339   3.052 -1.0570 -0.6420 -0.4357
14344SOL    HW245490   2.369   2.337   2.893  0.5708  0.0162 -0.8412
14345SOL     OW45491   1.524   5.015   3.939  0.0669  0.2892  0.4410
14345SOL    HW145492   1.498   5.074   3.863  1.7977  0.2616 -0.1662
14345SOL    HW245493   1.622   5.023   3.957 -0.1162 -0.5603  1.9272
14346SOL     OW45494   4.481   6.163   2.141  0.4205  0.8036 -0.1552
14346SOL    HW145495   4.499   6.103   2.063  0.4695  1.6667 -0.8152
14346SOL    HW245496   4.529   6.249   2.128  1.1682  0.6049  1.2776
14347SOL     OW45497   2.165   3.377   0.912  0.3114 -0.3685  0.0157
14347SOL    HW145498   2.071   3.349   0.928  0.3838 -1.5747 -1.5196
14347SOL    HW245499   2.169   3.476   0.897 -0.8619 -0.4625 -0.9943
14348SOL     OW45500   4.093   1.707   0.629  0.2018  0.1234 -0.3756
14348SOL    HW145501   4.060   1.717   0.536 -0.5872  0.2047 -0.0944
14348SOL    HW245502   4.193   1.717   0.631  0.1551  0.7908 -1.1149
14349SOL     OW45503   0.725   1.588   0.444  0.6174 -0.7833  0.5047
14349SOL    HW145504   0.771   1.506   0.477 -0.7060 -0.8269  2.3523
14349SOL    HW245505   0.692   1.641   0.523  0.0452  0.6865 -0.7042
14350SOL     OW45506   2.098   1.502   0.255 -0.7083 -1.2742 -0.4165
14350SOL    HW145507   2.136   1.464   0.340 -1.1498 -0.5779  0.1044
14350SOL    HW245508   2.157   1.576   0.223 -1.3695 -0.4881  0.1505
14352SOL     OW45509   0.736   9.228   1.136 -0.3672  0.2981 -0.2031
14352SOL    HW145510   0.707   9.135   1.115 -0.1865  0.8136 -2.9463
14352SOL    HW245511   0.736   9.242   1.235 -1.1890 -2.3435  0.1979
14353SOL     OW45512   3.529   1.215   2.287  0.1228  0.4639  0.1283
14353SOL    HW145513   3.487   1.127   2.311 -1.1669  0.0969 -3.1878
14353SOL    HW245514   3.503   1.284   2.354 -1.4580 -0.9747  1.0407
14355SOL     OW45515   1.604   0.975   3.724  0.5791  0.3049 -0.5510
14355SOL    HW145516   1.641   1.065   3.748  1.6125 -0.8292  2.3730
14355SOL    HW245517   1.656   0.905   3.772  0.1145 -1.9125 -3.2009
14357SOL     OW45518   9.674   5.641   0.090 -0.0128  0.3627  0.1013
14357SOL    HW145519   9.738   5.714   0.114 -0.1964  1.1071 -1.6509
14357SOL    HW245520   9.581   5.667   0.118 -0.9305  3.0747 -4.8840
14358SOL     OW45521   3.147   9.052   1.748  0.0013 -0.0926  0.0528
14358SOL    HW145522   3.115   9.019   1.659 -0.3825  2.1352 -0.6780
14358SOL    HW245523   3.246   9.037   1.755 -0.2996 -2.1573  0.1208
14359SOL     OW45524   7.971   4.269   1.176  0.2287  0.2474 -0.0452
14359SOL    HW145525   7.890   4.251   1.233 -1.7130  0.4857 -2.6436
14359SOL    HW245526   8.021   4.346   1.214  0.5908 -1.3771  2.9510
14360SOL     OW45527   6.972   4.981   1.337  0.1415 -0.2879  0.3393
14360SOL    HW145528   6.897   5.030   1.382 -1.2738 -1.9099 -0.1572
14360SOL    HW245529   7.005   4.908   1.398 -0.6872 -1.4471 -0.5620
14361SOL     OW45530   5.668   9.303   2.423  0.4436 -0.4023  0.1954
14361SOL    HW145531   5.636   9.212   2.450 -2.1497  0.8503  1.5450
14361SOL    HW245532   5.682   9.305   2.324 -0.9271 -1.8684 -0.0547
14363SOL     OW45533   4.957   9.851   1.131 -0.4288 -0.3688 -0.6811
14363SOL    HW145534   5.008   9.926   1.171  0.5500 -0.9239 -0.8889
14363SOL    HW245535   4.881   9.826   1.192  0.1815 -0.2530  0.1347
14364SOL     OW45536   9.328   8.236   1.315  0.1710 -0.3198  0.7041
14364SOL    HW145537   9.377   8.315   1.277 -1.9631  1.7444  2.0604
14364SOL    HW245538   9.389   8.184   1.375  1.6425  0.2261 -0.2965
14365SOL     OW45539   8.684   5.635   3.943  0.1652 -0.9737  0.5591
14365SOL    HW145540   8.708   5.554   3.998  2.7068 -0.0204  0.9235
14365SOL    HW245541   8.691   5.717   4.000 -1.6536 -0.4132 -0.0099
14366SOL     OW45542   8.820   4.353   0.826 -0.0873  0.0482  0.1980
14366SOL    HW145543   8.842   4.300   0.908 -1.3197 -1.1027 -0.2047
14366SOL    HW245544   8.811   4.450   0.851  1.1101 -0.0652  1.1241
14367SOL     OW45545   9.931   9.116   4.626 -0.3460  0.2341 -0.8495
14367SOL    HW145546  10.022   9.086   4.654  0.5853  2.8103 -0.9194
14367SOL    HW245547   9.927   9.124   4.526 -0.7038 -0.0555 -0.8603
14368SOL     OW45548   9.422   6.470   0.094 -0.0389  0.7114  0.1574
14368SOL    HW145549   9.331   6.511   0.084 -0.2880  0.2436  0.4644
14368SOL    HW245550   9.425   6.384   0.043  0.3375  0.8988 -0.1280
14369SOL     OW45551   3.341   0.468   0.790 -0.0869 -0.2011  0.0389
14369SOL    HW145552   3.395   0.543   0.828  0.5509  0.0960 -1.4175
14369SOL    HW245553   3.328   0.483   0.692 -2.1490 -0.6762  0.2232
14370SOL     OW45554   9.629   1.814   4.307  0.0856 -0.4753 -0.4115
14370SOL    HW145555   9.718   1.780   4.337 -0.0729 -0.4644  0.0763
14370SOL    HW245556   9.586   1.866   4.381 -0.2709 -0.3728 -0.6866
14374SOL     OW45557   2.225   7.216   0.357 -0.6432 -0.5374 -0.1600
14374SOL    HW145558   2.270   7.221   0.268  3.0105 -0.8707  1.5491
14374SOL    HW245559   2.207   7.120   0.380 -2.4144 -0.3985 -0.8859
14375SOL     OW45560   4.020   4.683   5.250 -0.4450  0.2188 -0.1660
14375SOL    HW145561   4.082   4.606   5.264 -0.6610 -0.1307 -1.0583
14375SOL    HW245562   4.064   4.749   5.189 -1.2958 -0.4605 -1.5403
14377SOL     OW45563   9.019   1.870   2.279  0.2656  0.4797  0.3041
14377SOL    HW145564   8.965   1.790   2.254  1.0104 -0.1157  0.5774
14377SOL    HW245565   8.961   1.938   2.323 -0.1872 -0.2905  0.8888
14379SOL     OW45566   3.816   0.311   2.148 -0.2512  0.0768 -0.1185
14379SOL    HW145567   3.905   0.339   2.113 -0.0573 -0.6000 -0.1866
14379SOL    HW245568   3.774   0.247   2.084  0.3370 -1.5847  1.1002
14380SOL     OW45569   4.424   5.011   1.541  0.2229  0.1102 -0.7160
14380SOL    HW145570   4.469   5.082   1.595  0.1856  0.1420 -0.7264
14380SOL    HW245571   4.463   5.009   1.449  0.5356 -0.1879 -0.5777
14381SOL     OW45572   0.997   0.642   0.534 -0.0841 -0.6377 -0.2688
14381SOL    HW145573   0.914   0.696   0.525  1.8937  2.2539 -1.9676
14381SOL    HW245574   1.016   0.595   0.447  0.7505 -0.2233 -0.3183
14382SOL     OW45575   8.672   4.651   4.188  0.1603  0.2600  0.2490
14382SOL    HW145576   8.663   4.556   4.218  1.7350 -0.7170 -2.2062
14382SOL    HW245577   8.753   4.692   4.230 -0.4228  0.5005  1.1698
14383SOL     OW45578   2.789   9.905   5.103 -0.3268  0.5254  0.1657
14383SOL    HW145579   2.842   9.902   5.188 -0.4163 -0.6569  0.1899
14383SOL    HW245580   2.763   9.999   5.084  1.1176  1.0256  0.5683
14384SOL     OW45581   4.634   5.298   0.423  0.3481 -0.2388 -0.3319
14384SOL    HW145582   4.562   5.363   0.402 -1.0577 -1.1441  1.5045
14384SOL    HW245583   4.659   5.247   0.341 -0.9608  0.2132 -1.0168
14385SOL     OW45584   2.419   1.487   1.805 -0.7161 -0.1545  0.6187
14385SOL    HW145585   2.398   1.409   1.745  1.4642  0.9732 -1.7221
14385SOL    HW245586   2.494   1.539   1.766 -1.3862  2.5149  2.7377
14386SOL     OW45587   3.517   1.953   0.559  0.6801 -0.2883  0.6797
14386SOL    HW145588   3.506   2.053   0.566  0.2352 -0.4286  2.1561
14386SOL    HW245589   3.484   1.922   0.470 -2.0265  0.5220  1.3425
14387SOL     OW45590   1.100   6.570   1.257  0.1990 -0.2954 -0.2928
14387SOL    HW145591   1.036   6.503   1.295  1.8975 -0.8030  1.8299
14387SOL    HW245592   1.149   6.615   1.332  2.7016 -0.3051 -1.8494
14388SOL     OW45593   3.533   4.179   2.761 -0.3114 -0.7669 -0.7258
14388SOL    HW145594   3.461   4.182   2.692 -1.2887 -1.5543  0.2499
14388SOL    HW245595   3.493   4.195   2.852  0.7057 -1.4099 -0.1614
14389SOL     OW45596   0.114   5.430   1.754  0.0968 -0.2792  0.7658
14389SOL    HW145597   0.104   5.371   1.673  0.6287  2.1157 -1.0975
14389SOL    HW245598   0.195   5.402   1.805  1.5783  0.1399 -1.2753
14390SOL     OW45599   2.308   1.822   1.716  0.5024  0.0929 -0.5107
14390SOL    HW145600   2.312   1.790   1.621  1.1959 -0.9086 -0.1498
14390SOL    HW245601   2.379   1.892   1.729 -0.4220  1.1635 -1.0533
14391SOL     OW45602   3.507   4.864   0.674 -0.1819  0.2124 -0.4715
14391SOL    HW145603   3.557   4.881   0.589  0.2148 -1.0936 -0.5114
14391SOL    HW245604   3.571   4.847   0.748 -0.5481 -0.8649 -0.3894
14392SOL     OW45605   4.881   2.704   3.822 -0.6613  0.2204 -0.0504
14392SOL    HW145606   4.885   2.708   3.922 -2.2546  1.1893  0.0064
14392SOL    HW245607   4.914   2.790   3.784 -0.0701 -0.1423 -0.3526
14394SOL     OW45608   4.465   8.527   2.947  0.0071 -0.2904  0.3154
14394SOL    HW145609   4.387   8.561   3.000 -0.6544  0.6891 -1.2529
14394SOL    HW245610   4.469   8.428   2.954 -1.4243 -0.3550  0.3672
14395SOL     OW45611   1.676   6.507   0.478  1.1755 -0.1307 -0.1952
14395SOL    HW145612   1.768   6.516   0.517  0.8429  0.8440  0.3757
14395SOL    HW245613   1.680   6.529   0.380  1.5031  0.1804 -0.1162
14396SOL     OW45614   7.693   0.274   3.190  0.2799  0.3432 -0.2422
14396SOL    HW145615   7.729   0.187   3.221  0.6472  0.6088  0.0672
14396SOL    HW245616   7.645   0.319   3.265 -3.0490 -1.2273 -1.3244
14397SOL     OW45617   8.376   0.689   0.974  0.3501 -0.0417 -0.3101
14397SOL    HW145618   8.361   0.709   0.877  0.4747 -1.4563 -0.6333
14397SOL    HW245619   8.474   0.677   0.990  0.3085 -0.0225 -0.0468
14398SOL     OW45620   6.767   8.399   4.568 -0.7057  0.0062 -0.8169
14398SOL    HW145621   6.843   8.462   4.550  1.6160 -2.8071 -1.1408
14398SOL    HW245622   6.728   8.419   4.658  1.0809  0.8527 -0.2029
14399SOL     OW45623   9.488   9.266   2.987 -0.2458 -0.3431  0.1925
14399SOL    HW145624   9.388   9.273   2.992 -0.0980  1.2194  1.4759
14399SOL    HW245625   9.524   9.248   3.079  0.7526  0.8275  0.0399
14400SOL     OW45626   3.040   4.535   1.664 -0.0420  0.5581  0.4124
14400SOL    HW145627   3.103   4.521   1.588 -0.1207  0.5817  0.3420
14400SOL    HW245628   3.085   4.511   1.750 -0.6253 -1.6078  0.1604
14401SOL     OW45629   1.419   2.485   0.363 -0.7356 -0.0911 -0.1711
14401SOL    HW145630   1.473   2.401   0.359 -0.6399 -0.2027  2.2936
14401SOL    HW245631   1.397   2.505   0.459  0.5279  3.4974 -0.5572
14402SOL     OW45632   2.847   4.669   2.717 -0.4714  0.4476 -0.5359
14402SOL    HW145633   2.812   4.736   2.651  1.8916  1.5231 -0.7263
14402SOL    HW245634   2.925   4.621   2.677 -1.7108 -2.0038 -0.1472
14406SOL     OW45635   7.370   2.947   0.275  0.4413  0.2229 -0.5044
14406SOL    HW145636   7.437   2.872   0.276  1.2664  0.9588  0.3128
14406SOL    HW245637   7.372   2.991   0.185 -0.9434 -1.5097 -1.4144
14407SOL     OW45638   4.903   3.878   4.072  0.3707 -0.4505  0.0617
14407SOL    HW145639   4.953   3.844   4.152  1.0652 -0.8233 -0.5220
14407SOL    HW245640   4.952   3.852   3.988  0.5972  1.4936 -0.4342
14408SOL     OW45641   8.948   4.359   0.249  0.0559  0.0753  0.4073
14408SOL    HW145642   8.959   4.328   0.154 -0.6894 -1.2573  0.7503
14408SOL    HW245643   8.962   4.282   0.311  1.8873  1.2291  1.4669
14409SOL     OW45644   5.497   5.801   1.904 -0.4958 -0.3026  0.0405
14409SOL    HW145645   5.544   5.723   1.946  0.3666 -0.9899 -2.1341
14409SOL    HW245646   5.411   5.769   1.863  0.1137 -0.2380 -1.3192
14410SOL     OW45647   5.788   3.995   0.609 -0.1133 -1.2017  0.2117
14410SOL    HW145648   5.709   4.034   0.562  0.8446 -0.3529 -0.7039
14410SOL    HW245649   5.757   3.943   0.688 -1.5850 -0.8195 -0.1018
14411SOL     OW45650   9.402   3.965   2.750 -0.1181 -0.3395  0.0769
14411SOL    HW145651   9.307   3.940   2.731 -0.3350  0.7888 -0.3402
14411SOL    HW245652   9.419   3.959   2.849 -1.1165  1.1602  0.3406
14412SOL     OW45653   0.826   3.859   0.821  0.6711  0.2711  0.0691
14412SOL    HW145654   0.780   3.774   0.847 -3.0617  1.9836 -0.6425
14412SOL    HW245655   0.881   3.892   0.898 -2.1639 -0.0107  2.2948
14413SOL     OW45656   0.308   0.718   1.929 -0.2846  0.5725 -0.2718
14413SOL    HW145657   0.369   0.713   1.850  0.7806  2.5623  0.4207
14413SOL    HW245658   0.360   0.703   2.013 -1.1263  0.1886  0.1944
14414SOL     OW45659   5.939   0.567   4.428 -0.1150 -0.1336  0.3738
14414SOL    HW145660   5.961   0.487   4.371  1.1757  0.9512 -0.6813
14414SOL    HW245661   5.971   0.550   4.521  2.0278 -0.0606 -0.3092
14415SOL     OW45662   5.556   9.300   1.596  0.1015 -0.1505  0.4160
14415SOL    HW145663   5.651   9.276   1.575  0.2312  2.0290 -1.5767
14415SOL    HW245664   5.548   9.398   1.611 -1.7140 -0.4198  1.4030
14416SOL     OW45665   4.566   9.982   1.155 -0.5175  0.2813 -0.0899
14416SOL    HW145666   4.489   9.996   1.093 -0.8147 -2.3537 -0.3770
14416SOL    HW245667   4.586   9.885   1.161  1.3407  0.7504  1.7624
14417SOL     OW45668   1.462   9.158   2.465 -0.1386  0.0219 -0.0476
14417SOL    HW145669   1.502   9.242   2.503  0.6772 -0.9868  1.3720
14417SOL    HW245670   1.363   9.169   2.458  0.0791  1.5361 -1.0038
14418SOL     OW45671   3.481   4.712   3.165  0.1813  0.1125  0.0269
14418SOL    HW145672   3.514   4.755   3.249 -0.7657  0.6005  0.1559
14418SOL    HW245673   3.513   4.764   3.086  0.4727  0.0644  0.1123
14419SOL     OW45674   6.743   1.588   3.264  0.0201 -0.2408 -0.2664
14419SOL    HW145675   6.752   1.688   3.259 -0.7192 -0.1084  0.7886
14419SOL    HW245676   6.832   1.547   3.281  0.5202  0.1553 -1.9155
14420SOL     OW45677   9.523   7.952   2.678 -0.3976 -0.3750  0.3005
14420SOL    HW145678   9.442   7.996   2.716 -0.7024  0.0846 -0.8588
14420SOL    HW245679   9.599   8.018   2.677  0.1064 -0.9262  1.7606
14422SOL     OW45680   9.620   4.041   1.956  0.4236  0.0006  0.1309
14422SOL    HW145681   9.697   3.981   1.979 -0.4225 -1.2910 -0.3054
14422SOL    HW245682   9.606   4.108   2.029  0.9650 -0.7778  0.9567
14423SOL     OW45683   0.718   3.707   1.493  0.1319 -0.3074  0.2355
14423SOL    HW145684   0.752   3.638   1.558  1.1698 -1.3211 -1.3440
14423SOL    HW245685   0.796   3.757   1.454 -0.6197  2.0090  1.5749
14425SOL     OW45686   5.868   2.046   4.113  0.5303 -0.0659 -0.1364
14425SOL    HW145687   5.827   2.022   4.025 -1.0235 -0.9444  0.7881
14425SOL    HW245688   5.847   2.142   4.135 -1.0852 -0.5094  0.3287
14426SOL     OW45689   0.085   7.501   3.446  0.0853  0.0621 -0.7107
14426SOL    HW145690   0.060   7.588   3.490  0.5130 -0.7009  1.1048
14426SOL    HW245691   0.003   7.459   3.408 -0.2874  0.8056 -0.7411
14427SOL     OW45692   7.664   3.794   3.988  0.4737  0.1031  0.2386
14427SOL    HW145693   7.672   3.887   3.952 -1.8817 -0.1761 -1.0532
14427SOL    HW245694   7.718   3.731   3.931  1.3432  0.5233  0.5868
14428SOL     OW45695   5.282   4.585   0.594  0.7976  0.0945 -0.1378
14428SOL    HW145696   5.192   4.540   0.595  0.8989 -0.1118 -0.2470
14428SOL    HW245697   5.287   4.647   0.515 -0.2410  2.1459  1.3384
14429SOL     OW45698   0.301   1.290   4.477 -0.0228  0.5189  0.3667
14429SOL    HW145699   0.262   1.216   4.533  0.7149  0.5714  0.9626
14429SOL    HW245700   0.349   1.355   4.537 -0.1337  1.1456 -0.2215
14430SOL     OW45701   5.140   7.864   1.773 -0.9138  0.5224  0.4703
14430SOL    HW145702   5.195   7.834   1.851 -2.2413 -0.1650  1.1558
14430SOL    HW245703   5.057   7.910   1.806 -2.8534 -2.2037 -0.4821
14431SOL     OW45704   5.121   5.905   1.981  0.5758  0.2134  0.0845
14431SOL    HW145705   5.022   5.912   1.969  0.4364  0.4993  1.3511
14431SOL    HW245706   5.164   5.991   1.953  0.5658 -0.2185 -1.3129
14433SOL     OW45707   5.272   1.074   3.116 -0.0809 -0.1192  0.1492
14433SOL    HW145708   5.203   1.014   3.156 -0.1043  0.3457  0.8269
14433SOL    HW245709   5.271   1.162   3.164 -0.5231  0.6675 -1.2852
14434SOL     OW45710   8.840   4.800   2.244  0.7738 -0.4567  0.8774
14434SOL    HW145711   8.745   4.831   2.236  0.4407 -1.6195  0.1584
14434SOL    HW245712   8.900   4.863   2.195  0.1583 -0.6740 -0.1825
14435SOL     OW45713   3.406   7.855   0.046 -0.6194 -0.3191  0.8165
14435SOL    HW145714   3.450   7.900   0.123  3.5609 -0.1650 -1.5201
14435SOL    HW245715   3.386   7.760   0.070 -0.1738 -0.0402  2.3594
14436SOL     OW45716   7.435   0.117   0.531  0.0381  0.8796 -0.5985
14436SOL    HW145717   7.491   0.192   0.496  0.2405  1.9035  1.8608
14436SOL    HW245718   7.348   0.152   0.565  0.5638  0.1878  1.5644
14438SOL     OW45719   5.835   0.321   2.614  0.0569  0.1578  0.0621
14438SOL    HW145720   5.799   0.412   2.594 -1.2743 -0.4259 -0.2719
14438SOL    HW245721   5.844   0.269   2.529  1.6460  0.2592  0.1439
14440SOL     OW45722   8.907   4.743   0.686 -0.3526  0.5902 -0.2744
14440SOL    HW145723   8.992   4.708   0.647 -0.8083 -0.4291 -0.3588
14440SOL    HW245724   8.896   4.839   0.661  0.7931  0.7403 -0.2237
14441SOL     OW45725   4.695   9.718   1.226  0.1007 -0.3477 -0.1574
14441SOL    HW145726   4.681   9.645   1.293  2.6880 -0.3011  0.4838
14441SOL    HW245727   4.691   9.679   1.134 -0.2953 -1.0003  0.1363
14442SOL     OW45728   3.572   4.245   3.298 -0.2285  0.1167 -0.2084
14442SOL    HW145729   3.635   4.314   3.263  0.4790  0.5998  1.9407
14442SOL    HW245730   3.539   4.189   3.222  2.9270 -0.2636 -1.4149
14443SOL     OW45731   0.075   8.812   1.810 -0.4376 -0.7515  0.8118
14443SOL    HW145732   0.155   8.852   1.855  0.2625  0.1487 -1.1760
14443SOL    HW245733  -0.003   8.813   1.873  0.8664 -0.7858  2.4493
14444SOL     OW45734   5.080   2.315   1.796  0.2088 -0.0282  0.3557
14444SOL    HW145735   5.142   2.276   1.864  0.9341 -0.5586 -0.5995
14444SOL    HW245736   5.096   2.272   1.707 -1.2495  0.1114  0.0034
14445SOL     OW45737   7.885   8.344   2.603 -0.2302 -0.3978  0.1894
14445SOL    HW145738   7.821   8.323   2.529  0.5040  0.7346 -0.7872
14445SOL    HW245739   7.843   8.320   2.691 -0.5734 -3.0619 -0.6583
14447SOL     OW45740   0.375   5.705   1.666 -0.1159  0.2994 -0.8229
14447SOL    HW145741   0.460   5.716   1.718  0.4013  0.5300 -1.7057
14447SOL    HW245742   0.388   5.637   1.595 -0.6788  0.3225 -0.9490
14448SOL     OW45743   1.106   6.845   0.727 -0.2179  0.4488 -0.2445
14448SOL    HW145744   1.131   6.841   0.630  2.4498  3.3238  0.2559
14448SOL    HW245745   1.044   6.922   0.742 -0.6551 -0.0142  0.3390
14449SOL     OW45746   2.793   8.671   2.812  0.1819  0.0231  0.0376
14449SOL    HW145747   2.723   8.601   2.827 -0.2544  0.0025 -1.9387
14449SOL    HW245748   2.881   8.626   2.795  0.5335  0.0336  1.7692
14450SOL     OW45749   4.850   9.260   0.171  0.4912 -0.1851  0.0753
14450SOL    HW145750   4.827   9.318   0.093  0.7081  0.7888  0.7330
14450SOL    HW245751   4.908   9.185   0.140 -0.5471 -0.5917 -0.9445
14451SOL     OW45752   0.619   5.131   0.221  0.8075  0.3394 -0.2758
14451SOL    HW145753   0.712   5.125   0.256  0.8053 -0.2144 -0.3553
14451SOL    HW245754   0.569   5.048   0.245  0.1915  0.8443  0.1743
14452SOL     OW45755   8.700   8.012   0.150 -0.2279  0.0763 -0.1964
14452SOL    HW145756   8.662   8.078   0.215  0.3320  0.4611 -0.2518
14452SOL    HW245757   8.800   8.019   0.151 -0.1579 -0.8917 -0.0812
14453SOL     OW45758   9.109   3.277   3.674  0.6819  0.0419  0.5589
14453SOL    HW145759   9.177   3.306   3.608  2.0504 -0.3056  1.7772
14453SOL    HW245760   9.135   3.187   3.711 -0.0446  0.2285  1.5558
14454SOL     OW45761   9.856   2.537   0.542  0.1431 -0.2371 -0.2543
14454SOL    HW145762   9.890   2.629   0.563 -2.6528  0.5422  1.1137
14454SOL    HW245763   9.812   2.538   0.452  1.8328 -0.7468 -1.1094
14455SOL     OW45764   0.256   3.064   4.225  0.4052 -0.0882  0.1792
14455SOL    HW145765   0.257   2.989   4.159  1.1881  0.4367 -0.4044
14455SOL    HW245766   0.170   3.115   4.216 -0.1092 -0.8678  0.5428
14456SOL     OW45767   0.822   0.382   0.236 -0.0567  0.7570  0.0867
14456SOL    HW145768   0.867   0.392   0.148 -0.7519  0.8607 -0.2589
14456SOL    HW245769   0.853   0.455   0.297  0.5145  0.6148 -0.0267
14457SOL     OW45770   7.393   9.131   4.179  0.4002  0.4697 -0.0653
14457SOL    HW145771   7.446   9.092   4.254  0.5529 -1.4037 -1.1241
14457SOL    HW245772   7.350   9.217   4.209  1.8526  0.6298  1.6129
14459SOL     OW45773   2.281   4.001   2.957  0.9592 -0.1328 -0.0818
14459SOL    HW145774   2.252   4.092   2.985  0.4092 -0.3874  0.1761
14459SOL    HW245775   2.222   3.932   2.999  1.4029 -0.6126 -0.2318
14460SOL     OW45776   1.167   2.261   5.243 -0.1310  0.5024  0.0097
14460SOL    HW145777   1.122   2.269   5.153  0.9506  1.9976 -0.4307
14460SOL    HW245778   1.195   2.352   5.273  1.6556 -0.2790  0.7623
14461SOL     OW45779   3.082   5.261   3.985  0.3531 -0.8751 -0.5190
14461SOL    HW145780   3.064   5.235   3.890  0.6502  1.7102 -1.3306
14461SOL    HW245781   3.128   5.350   3.987 -3.1695  1.0244  2.1639
14462SOL     OW45782   5.144   7.426   5.095  0.0183  0.0639 -0.4696
14462SOL    HW145783   5.060   7.378   5.067 -0.3196  0.6453 -0.4585
14462SOL    HW245784   5.147   7.430   5.195 -0.5383  1.0800 -0.4841
14463SOL     OW45785   3.882   1.667   0.814  0.2199  0.4565 -0.3864
14463SOL    HW145786   3.968   1.654   0.763 -0.4326  1.3605 -1.7415
14463SOL    HW245787   3.813   1.706   0.753 -1.0362  0.1299  0.8125
14465SOL     OW45788   9.291   1.891   2.370  0.1315 -0.7008 -0.1960
14465SOL    HW145789   9.298   1.988   2.396 -0.5018 -0.5321 -0.6536
14465SOL    HW245790   9.198   1.871   2.339  1.2007 -0.5379 -3.7505
14466SOL     OW45791   9.640   6.150   0.874  0.2035  0.3556  0.0550
14466SOL    HW145792   9.722   6.093   0.876  0.4893  0.7311 -0.8191
14466SOL    HW245793   9.666   6.246   0.882 -0.1818  0.4536  0.1248
14467SOL     OW45794   1.276   0.038   5.116 -0.9161 -0.4951  0.0182
14467SOL    HW145795   1.330  -0.039   5.081 -0.8348 -0.3360 -0.2051
14467SOL    HW245796   1.209   0.004   5.182 -0.1912 -0.6322  0.7027
14468SOL     OW45797   1.460   2.491   4.005 -0.1951 -0.7527 -0.6048
14468SOL    HW145798   1.466   2.405   3.954  0.6298  0.2432 -2.2386
14468SOL    HW245799   1.413   2.560   3.950 -1.1455 -0.2449  0.8206
14469SOL     OW45800   0.455   2.681   0.187 -0.3504 -0.2439 -0.0124
14469SOL    HW145801   0.512   2.604   0.215 -1.1971 -1.6755 -2.1280
14469SOL    HW245802   0.406   2.717   0.266  0.2730 -1.6744  1.0473
14471SOL     OW45803   4.248   4.188   1.946  0.6229  0.0874  0.3922
14471SOL    HW145804   4.282   4.193   1.852 -3.2573 -2.8700 -1.3255
14471SOL    HW245805   4.174   4.254   1.959  0.8773  0.2166  1.2535
14472SOL     OW45806   8.733   2.138   1.782 -0.7557 -0.0596  0.2283
14472SOL    HW145807   8.723   2.237   1.777 -0.8139 -0.0891 -0.2871
14472SOL    HW245808   8.830   2.114   1.785 -0.7561  0.0485  1.2140
14474SOL     OW45809   3.854   2.328   0.176  0.3760  0.0890 -0.6087
14474SOL    HW145810   3.856   2.237   0.134 -2.2776  0.1799 -1.0176
14474SOL    HW245811   3.888   2.396   0.111 -2.2659  0.0227 -2.1036
14476SOL     OW45812   8.039   1.445   0.239 -0.5112  0.4765 -0.0687
14476SOL    HW145813   7.979   1.524   0.249 -0.3178  0.6611 -0.3459
14476SOL    HW245814   8.064   1.410   0.329 -0.4396  0.8505  0.0566
14478SOL     OW45815   7.952   2.194   3.283  0.0582 -0.1615  0.6943
14478SOL    HW145816   8.023   2.261   3.257 -0.2623  0.2769  0.9391
14478SOL    HW245817   7.862   2.234   3.268 -0.1790 -1.4375 -1.5232
14479SOL     OW45818   3.730   2.057   4.032 -0.3458  0.2535  0.1604
14479SOL    HW145819   3.721   2.010   4.119  0.0023  1.4627  0.8603
14479SOL    HW245820   3.762   2.151   4.047  0.1299  0.3512 -1.2874
14480SOL     OW45821   7.242   4.586   0.654 -0.0566 -0.3241  0.2049
14480SOL    HW145822   7.254   4.532   0.570 -0.4355 -0.8224  0.4645
14480SOL    HW245823   7.331   4.606   0.694  0.1773  0.5984 -0.7389
14481SOL     OW45824   9.205   2.980   2.131 -0.1289 -0.2115  0.0001
14481SOL    HW145825   9.304   2.995   2.129 -0.3017  0.9184 -1.1913
14481SOL    HW245826   9.178   2.926   2.051 -0.3866 -1.1587  0.7184
14482SOL     OW45827   7.313   0.686   4.553  0.5302 -0.2237 -0.2046
14482SOL    HW145828   7.276   0.600   4.518  1.3624  0.3523 -2.6135
14482SOL    HW245829   7.396   0.667   4.606 -0.1172 -1.0256  0.5362
14483SOL     OW45830   4.372   9.573   4.973  0.0737 -0.3145  0.0940
14483SOL    HW145831   4.380   9.647   4.905 -0.5440 -0.0217  0.3298
14483SOL    HW245832   4.408   9.605   5.060  0.4599 -0.5389  0.0161
14486SOL     OW45833   9.322   0.368   1.765  0.1972 -0.0028 -0.3223
14486SOL    HW145834   9.413   0.338   1.738  1.3007  0.3076  2.7723
14486SOL    HW245835   9.309   0.464   1.739  0.6335 -0.1485 -1.0732
14487SOL     OW45836   6.353   8.976   3.460 -0.5154 -0.2325 -0.5403
14487SOL    HW145837   6.315   8.985   3.552 -1.8739  0.7500 -1.1725
14487SOL    HW245838   6.290   8.921   3.403  1.2571 -2.5010 -0.3682
14488SOL     OW45839   7.827   0.523   4.545 -0.2594 -0.4213  0.0455
14488SOL    HW145840   7.768   0.508   4.624  0.3931  2.2791  1.1301
14488SOL    HW245841   7.772   0.521   4.461 -1.0373 -2.8386  0.5708
14490SOL     OW45842   9.002   7.279   2.505 -0.1010 -0.6558  0.4842
14490SOL    HW145843   8.917   7.323   2.533 -0.1311 -0.7635  0.5652
14490SOL    HW245844   8.988   7.180   2.501 -0.1650 -0.6276 -0.1412
14493SOL     OW45845   3.115   2.781   3.175 -0.6387 -0.2795  0.2568
14493SOL    HW145846   3.043   2.848   3.154  0.7591  0.9624 -0.6983
14493SOL    HW245847   3.134   2.727   3.093  2.2791  2.1082 -0.7406
14494SOL     OW45848   3.673   7.997   4.496  0.0711  0.1824 -0.0608
14494SOL    HW145849   3.628   7.918   4.537 -1.2141  0.8465 -0.1501
14494SOL    HW245850   3.639   8.081   4.538 -0.0968  0.7960 -1.3729
14495SOL     OW45851   8.527   6.190   0.984 -0.2025  0.1247 -0.1483
14495SOL    HW145852   8.579   6.106   0.969  1.2824  0.6018  2.1294
14495SOL    HW245853   8.446   6.170   1.038 -1.0683 -0.2021 -1.5524
14496SOL     OW45854   9.465   1.894   0.452  0.1910  0.8407 -0.9325
14496SOL    HW145855   9.427   1.946   0.528 -1.2504  0.3087 -1.2690
14496SOL    HW245856   9.565   1.893   0.459  0.0390 -0.4139  1.7803
14497SOL     OW45857   7.549   9.459   2.237 -0.2973  0.3424  0.2006
14497SOL    HW145858   7.585   9.368   2.213  1.7753  1.0802  0.3778
14497SOL    HW245859   7.547   9.468   2.337  1.3611  1.1810  0.1738
14498SOL     OW45860   2.861   5.535   3.032  0.0731 -0.2910  0.3816
14498SOL    HW145861   2.899   5.461   2.975 -1.2886 -1.0062  0.3758
14498SOL    HW245862   2.912   5.619   3.017 -0.7366 -0.2747 -2.4865
14500SOL     OW45863   0.728   8.875   3.586 -1.0540  0.4192 -0.0451
14500SOL    HW145864   0.631   8.863   3.609 -1.2887  0.4660 -0.9587
14500SOL    HW245865   0.764   8.955   3.633 -1.2043 -0.1445  1.0395
14501SOL     OW45866   4.142   7.625   1.269  0.7906  0.3962  0.4455
14501SOL    HW145867   4.170   7.649   1.362 -1.2992  2.2801  0.6389
14501SOL    HW245868   4.163   7.700   1.207 -1.6574  0.9415  0.2071
14503SOL     OW45869   3.132   2.487   0.056 -0.0990 -0.5504 -0.3102
14503SOL    HW145870   3.092   2.402   0.021  0.1784 -0.3476 -1.1316
14503SOL    HW245871   3.141   2.481   0.155  1.0823 -1.9729 -0.4912
14504SOL     OW45872   8.085   5.591   4.064 -0.2640 -0.2882 -0.4940
14504SOL    HW145873   8.167   5.645   4.083  0.4358 -1.2052 -0.8772
14504SOL    HW245874   8.049   5.556   4.150  0.1909 -0.5185 -0.3935
14505SOL     OW45875   7.126   3.420   0.301  0.9297  0.0968  0.2829
14505SOL    HW145876   7.050   3.357   0.319  2.1542 -1.2631  0.8342
14505SOL    HW245877   7.139   3.429   0.202 -0.2587  0.7328  0.1790
14506SOL     OW45878   2.050   5.926   4.432 -0.1064  0.4623  0.3010
14506SOL    HW145879   2.148   5.923   4.414  0.0047 -0.6947  1.0626
14506SOL    HW245880   2.011   6.009   4.392  1.1012  0.7023 -0.3861
14507SOL     OW45881   9.979   7.635   3.006 -0.4997 -0.3680 -0.2284
14507SOL    HW145882   9.997   7.541   2.978  1.0667 -0.1999  0.1728
14507SOL    HW245883   9.881   7.647   3.022 -0.7171 -1.9084 -0.3567
14508SOL     OW45884   4.271   9.237   0.290  0.1109  0.2376  0.1800
14508SOL    HW145885   4.276   9.273   0.197  1.3632 -0.2699  0.0311
14508SOL    HW245886   4.348   9.175   0.305  0.3362  0.8922  1.7957
14512SOL     OW45887   4.354   7.303   2.982  0.3538  0.2645 -0.2473
14512SOL    HW145888   4.297   7.377   3.018  0.6276 -0.4066  1.6301
14512SOL    HW245889   4.328   7.217   3.027  1.1489 -0.4894 -1.2203
14513SOL     OW45890   2.626   9.008   5.169 -0.2222 -0.1619 -0.2834
14513SOL    HW145891   2.698   8.944   5.139 -0.2365 -0.7418  0.8894
14513SOL    HW245892   2.604   9.070   5.094  0.1098 -1.2507 -1.3143
14515SOL     OW45893   3.092   3.160   5.289 -0.7459 -0.0153  0.0735
14515SOL    HW145894   3.059   3.079   5.242 -0.2685 -0.0640 -0.1908
14515SOL    HW245895   3.183   3.142   5.327 -0.4568  0.5208 -0.3471
14516SOL     OW45896   0.572   4.714   2.791 -0.4575 -0.6066 -0.4561
14516SOL    HW145897   0.490   4.745   2.838 -0.0278  0.4905 -0.4043
14516SOL    HW245898   0.547   4.653   2.716 -1.3368 -0.0285 -0.6367
14518SOL     OW45899   1.992   1.906   4.532  0.0137  0.1918  0.2391
14518SOL    HW145900   2.071   1.936   4.479 -0.1206 -0.6818 -0.4595
14518SOL    HW245901   1.936   1.986   4.556 -0.1188  0.5674 -1.2463
14519SOL     OW45902   2.085   3.022   3.091  0.5348 -0.6056  0.1781
14519SOL    HW145903   2.023   3.070   3.153  0.6664 -0.6196  0.3216
14519SOL    HW245904   2.035   2.952   3.041  0.5133 -0.8683  0.5652
14520SOL     OW45905   4.464   7.340   2.090  0.0261 -0.2973 -0.2387
14520SOL    HW145906   4.487   7.362   1.995 -1.5140  1.0325 -0.3390
14520SOL    HW245907   4.545   7.347   2.147  0.3239  2.2217 -0.9050
14521SOL     OW45908   3.949   5.889   1.730  0.3915  0.6414 -0.3486
14521SOL    HW145909   4.026   5.872   1.667  0.0178  1.7598 -1.1215
14521SOL    HW245910   3.980   5.875   1.824  1.3880  0.5190 -0.6799
14522SOL     OW45911   1.250   8.456   4.583  0.1868  0.5118  0.8522
14522SOL    HW145912   1.265   8.427   4.677  0.7175 -0.5305  0.4521
14522SOL    HW245913   1.160   8.426   4.552  0.2327  0.3809  0.8467
14523SOL     OW45914   7.108   9.393   4.062 -0.2044  0.7695 -0.5768
14523SOL    HW145915   7.205   9.415   4.071 -0.1505  0.1050  0.5754
14523SOL    HW245916   7.087   9.373   3.966  1.3844 -1.7122 -0.4469
14524SOL     OW45917   0.830   9.071   4.647 -0.1315 -0.3199 -0.3335
14524SOL    HW145918   0.758   9.047   4.583 -0.8815 -0.9562  0.7281
14524SOL    HW245919   0.883   9.148   4.612 -2.4646  1.3326 -0.2922
14526SOL     OW45920   6.753   2.695   2.944  0.1044 -0.3989  0.2571
14526SOL    HW145921   6.687   2.766   2.921 -1.8974 -2.3584 -0.3050
14526SOL    HW245922   6.808   2.674   2.863  0.8292  0.6356  0.4791
14528SOL     OW45923   4.458   2.051   2.876 -0.4357 -0.5305 -0.4916
14528SOL    HW145924   4.519   2.027   2.951  2.0731 -0.8559 -2.5763
14528SOL    HW245925   4.365   2.019   2.897  0.0921 -0.1764  2.6487
14529SOL     OW45926   3.436   2.484   4.264 -0.7918 -0.6014 -0.4578
14529SOL    HW145927   3.525   2.444   4.288 -0.7110 -0.8889 -1.2397
14529SOL    HW245928   3.422   2.479   4.165 -0.8894  1.1047 -0.5404
14530SOL     OW45929   0.674   9.736   0.781 -0.2431  0.0780 -0.3717
14530SOL    HW145930   0.579   9.760   0.761 -0.0087  1.4338  0.0519
14530SOL    HW245931   0.689   9.741   0.879 -0.2383 -2.1110 -0.2500
14531SOL     OW45932   0.607   8.748   0.339 -0.4385  0.0100 -0.0787
14531SOL    HW145933   0.652   8.826   0.382 -0.2645 -1.2539  2.1236
14531SOL    HW245934   0.525   8.779   0.291  0.2352  1.6824 -0.1844
14532SOL     OW45935   8.789   7.458   0.517  0.1713 -0.3106  0.0933
14532SOL    HW145936   8.881   7.452   0.556  0.4916 -0.7993 -0.7448
14532SOL    HW245937   8.768   7.554   0.496  0.1309 -0.0841  1.1403
14533SOL     OW45938   4.218   5.600   2.649  0.0069  0.0596  0.5049
14533SOL    HW145939   4.231   5.682   2.593  0.4512  0.0628  0.6130
14533SOL    HW245940   4.235   5.622   2.745  0.4881 -0.2432  0.4932
14534SOL     OW45941   2.600   0.127   2.690 -0.2831 -0.1403  0.0440
14534SOL    HW145942   2.696   0.152   2.703 -0.3226 -0.6765  1.4621
14534SOL    HW245943   2.542   0.200   2.725 -0.3992  0.2475 -0.9463
14535SOL     OW45944   0.118   1.572   1.829 -0.1873 -0.1867  0.7948
14535SOL    HW145945   0.147   1.486   1.789  1.6476  1.4100 -1.4746
14535SOL    HW245946   0.021   1.587   1.810  0.3283 -0.1100 -1.9689
14536SOL     OW45947   4.271   9.447   4.464 -0.4308 -0.3158 -0.2895
14536SOL    HW145948   4.313   9.402   4.542 -0.4381 -0.3459 -0.3034
14536SOL    HW245949   4.218   9.381   4.411 -0.7312 -0.2165 -0.1118
14537SOL     OW45950   9.850   5.586   0.698  0.1169 -0.0818  0.8124
14537SOL    HW145951   9.789   5.513   0.729 -0.7389  1.0637  1.8698
14537SOL    HW245952   9.796   5.665   0.669  0.9341 -0.5916 -2.3495
14538SOL     OW45953   9.341   7.600   0.934  0.1208  0.2753 -0.6097
14538SOL    HW145954   9.263   7.614   0.872  1.6505 -0.2971 -2.7167
14538SOL    HW245955   9.349   7.502   0.954 -0.9342  0.5475  1.3121
14540SOL     OW45956   2.578   9.223   2.002 -0.3505 -0.0410 -0.0952
14540SOL    HW145957   2.570   9.320   1.980 -1.8117 -0.1604 -0.1697
14540SOL    HW245958   2.608   9.212   2.096  2.1726  0.4800 -0.8119
14541SOL     OW45959   0.274   8.586   3.321 -0.1827 -0.1230  0.6923
14541SOL    HW145960   0.356   8.542   3.284 -1.1440 -1.2639 -0.1130
14541SOL    HW245961   0.281   8.685   3.307 -0.3268 -0.4695 -2.2477
14543SOL     OW45962   1.437   6.188   0.799  0.2299 -0.2715  0.0931
14543SOL    HW145963   1.342   6.185   0.768  0.3884 -0.0996 -0.4184
14543SOL    HW245964   1.442   6.159   0.895 -0.5219  1.0993  0.5627
14544SOL     OW45965   3.354   5.542   1.608  0.0593  0.2694  0.0833
14544SOL    HW145966   3.422   5.475   1.639  0.8054  0.6953 -0.6027
14544SOL    HW245967   3.328   5.601   1.685  0.1561 -0.1668  0.4510
14545SOL     OW45968   9.895   6.375   1.607 -0.0688  0.6903 -0.2020
14545SOL    HW145969   9.840   6.291   1.609  0.9161  0.0552  0.5596
14545SOL    HW245970   9.966   6.366   1.537  2.1996 -0.5280  2.1549
14548SOL     OW45971   5.892   7.243   2.570  0.2571 -0.1854  0.0159
14548SOL    HW145972   5.848   7.297   2.643 -1.5698 -0.5026 -0.8220
14548SOL    HW245973   5.990   7.236   2.589  0.0581  1.0028  1.6548
14550SOL     OW45974   6.188   9.065   2.656 -0.1314 -0.0121  0.2546
14550SOL    HW145975   6.182   8.990   2.722 -2.8463  0.1134  0.2280
14550SOL    HW245976   6.280   9.069   2.617  0.4796 -2.3410  1.3958
14551SOL     OW45977   2.377   3.595   4.505 -0.1899  0.0038  0.4760
14551SOL    HW145978   2.367   3.619   4.409  0.5620 -3.0596 -0.4233
14551SOL    HW245979   2.293   3.616   4.554 -1.3941 -0.5326 -1.3198
14552SOL     OW45980   6.525   1.500   1.813  0.2390 -0.4538  0.0346
14552SOL    HW145981   6.567   1.589   1.800 -0.7077 -0.2186 -1.5090
14552SOL    HW245982   6.495   1.491   1.909  1.9063  0.1749  0.6291
14553SOL     OW45983   3.522   5.100   0.367 -0.0153 -0.1774 -0.5677
14553SOL    HW145984   3.461   5.120   0.444  3.7825  2.3295  1.9035
14553SOL    HW245985   3.569   5.013   0.384  0.2480 -0.0100 -0.4447
14555SOL     OW45986   3.134   7.265   3.579 -0.2927  0.0791  0.4372
14555SOL    HW145987   3.079   7.314   3.648 -0.1857  1.3770 -0.3761
14555SOL    HW245988   3.096   7.174   3.565 -0.3282 -0.1983  2.1997
14556SOL     OW45989   4.622   8.768   3.271 -0.7216  0.5064 -0.2613
14556SOL    HW145990   4.663   8.798   3.185  2.8004 -1.4183  0.6690
14556SOL    HW245991   4.670   8.810   3.348 -0.9003 -1.2787  0.8582
14557SOL     OW45992   4.527   3.238   4.627  0.0133  0.2215 -0.5291
14557SOL    HW145993   4.511   3.139   4.635  0.8164  0.2688  2.4720
14557SOL    HW245994   4.530   3.264   4.531 -1.6268 -2.4372 -1.3454
14560SOL     OW45995   9.397   6.340   1.900 -0.0722  0.7495  0.3772
14560SOL    HW145996   9.431   6.277   1.970 -0.3344 -0.6722 -0.7502
14560SOL    HW245997   9.297   6.341   1.903 -0.0459  1.6645  0.8683
14562SOL     OW45998   2.971   3.646   2.707  0.2283 -0.3712 -0.2726
14562SOL    HW145999   2.995   3.623   2.802  1.3057 -0.1533 -0.4861
14562SOL    HW246000   2.929   3.737   2.706 -0.4163 -0.6584  0.0764
14564SOL     OW46001   1.196   3.982   0.811  0.4960  0.1587 -0.0217
14564SOL    HW146002   1.218   3.972   0.714  0.3047  0.2244 -0.0711
14564SOL    HW246003   1.111   3.933   0.831 -1.0612  2.5911 -0.4975
14565SOL     OW46004   3.098   0.125   2.315  0.2732  0.7999 -0.1178
14565SOL    HW146005   3.041   0.204   2.340 -0.6405  0.1914 -0.2675
14565SOL    HW246006   3.041   0.055   2.271  0.9527 -0.2349  0.6340
14566SOL     OW46007   0.751   7.314   3.113  1.0195  0.0601  0.4489
14566SOL    HW146008   0.847   7.340   3.106  1.0468 -0.7839 -3.2927
14566SOL    HW246009   0.699   7.359   3.041 -0.9201 -1.5646  0.8022
14567SOL     OW46010   0.721   2.355   3.394  0.1679  0.5507  0.2002
14567SOL    HW146011   0.790   2.359   3.322 -1.4316  0.7879 -1.3845
14567SOL    HW246012   0.737   2.276   3.452  1.2129  0.0746 -0.7260
14569SOL     OW46013   0.374   4.972   4.951 -0.2922  0.2142 -0.0243
14569SOL    HW146014   0.301   4.956   4.884  0.4179  0.5334 -0.8827
14569SOL    HW246015   0.386   4.890   5.007 -2.6350  0.8125  1.4497
14570SOL     OW46016   2.401   9.815   2.459  0.3887  0.1985 -0.3364
14570SOL    HW146017   2.342   9.888   2.423  0.8058  1.0043  0.5839
14570SOL    HW246018   2.456   9.776   2.385 -0.1989  0.4786 -0.9235
14571SOL     OW46019   1.781   1.267   1.164  0.4262  0.3881  0.0985
14571SOL    HW146020   1.829   1.303   1.083  1.0622  0.0892  0.3456
14571SOL    HW246021   1.704   1.211   1.134  0.0894  1.0516 -0.2989
14575SOL     OW46022   4.411   6.207   2.854 -0.0117  0.1935 -0.6734
14575SOL    HW146023   4.375   6.248   2.771 -0.4370  0.3241 -0.4297
14575SOL    HW246024   4.488   6.260   2.888  0.8682 -0.4855 -1.5882
14576SOL     OW46025   5.199   5.162   1.892  0.5388  0.2450 -0.2661
14576SOL    HW146026   5.288   5.129   1.863  0.9278  0.0700  1.1074
14576SOL    HW246027   5.135   5.085   1.897  1.2006 -0.2014  2.0173
14578SOL     OW46028   9.427   3.803   3.294 -0.1746  0.0478  0.0661
14578SOL    HW146029   9.520   3.766   3.302  0.2477  1.2724  1.0123
14578SOL    HW246030   9.381   3.796   3.382 -0.3924  0.9686  0.0295
14579SOL     OW46031   8.186   9.463   2.419 -0.1474  0.3534  0.7081
14579SOL    HW146032   8.250   9.513   2.361 -2.7816  1.0103 -1.7577
14579SOL    HW246033   8.171   9.372   2.381 -1.8159  0.7586  0.3260
14580SOL     OW46034   4.105   9.724   1.087 -0.3376 -0.2451 -0.2790
14580SOL    HW146035   4.076   9.776   1.007 -1.2855  0.7867  0.7211
14580SOL    HW246036   4.161   9.647   1.058  0.8195  1.1409 -1.8165
14581SOL     OW46037   1.850   4.692   1.976 -0.0714 -0.0150 -0.0047
14581SOL    HW146038   1.868   4.688   1.878  0.3297 -1.2434  0.1035
14581SOL    HW246039   1.924   4.742   2.022 -0.0249  0.1634 -0.2744
14582SOL     OW46040   9.785   5.375   3.022  0.3552 -0.8997 -0.6880
14582SOL    HW146041   9.860   5.311   3.009 -0.2450 -1.5873 -0.7678
14582SOL    HW246042   9.817   5.468   3.003  1.6170 -0.9992  0.8428
14583SOL     OW46043   2.116   2.892   0.478  0.8912  0.2952  0.4162
14583SOL    HW146044   2.054   2.920   0.405  1.0879 -0.0518  0.1135
14583SOL    HW246045   2.075   2.914   0.567  0.5156  0.4362  0.2097
14584SOL     OW46046   1.784   9.221   3.030  0.0078  0.6500 -0.2273
14584SOL    HW146047   1.761   9.132   2.992 -2.6533  1.0027  0.4017
14584SOL    HW246048   1.775   9.219   3.129  0.8020  1.3693 -0.1337
14586SOL     OW46049   9.179   8.830   3.663  0.2378  0.5163 -0.0777
14586SOL    HW146050   9.146   8.742   3.699  0.8681  0.8689  1.3879
14586SOL    HW246051   9.121   8.904   3.696  0.1594  0.7404 -0.7016
14587SOL     OW46052   7.779   8.035   3.809 -0.5181 -0.1419 -0.0248
14587SOL    HW146053   7.804   7.999   3.899  1.4905  1.3055  0.0330
14587SOL    HW246054   7.720   8.115   3.820  1.0790  1.0449  0.0855
14588SOL     OW46055   2.569   7.384   3.547 -0.3345 -0.4478  0.3790
14588SOL    HW146056   2.629   7.446   3.596 -2.5038  0.2537  2.2453
14588SOL    HW246057   2.619   7.300   3.524  1.1250 -0.2396  2.6302
14591SOL     OW46058   8.533   1.894   2.988  0.7913 -0.6885 -0.6546
14591SOL    HW146059   8.530   1.800   2.955  3.0263 -0.7072 -0.8605
14591SOL    HW246060   8.469   1.904   3.065  1.0107 -2.5381 -0.2043
14592SOL     OW46061   1.817   7.885   0.832  0.4164 -0.1088 -0.0145
14592SOL    HW146062   1.792   7.964   0.777  0.3207 -0.4977 -0.5361
14592SOL    HW246063   1.736   7.846   0.873  0.2761 -0.7714 -0.8957
14593SOL     OW46064   6.419   8.186   3.315 -0.0918 -0.1707  0.1706
14593SOL    HW146065   6.469   8.267   3.284 -2.5822  0.7500 -1.5305
14593SOL    HW246066   6.462   8.104   3.277  2.6305  0.2331  2.1468
14595SOL     OW46067   3.268   8.607   1.565 -0.0694 -0.0177  0.1849
14595SOL    HW146068   3.215   8.658   1.632 -1.8416 -0.7112 -0.6621
14595SOL    HW246069   3.282   8.513   1.597 -0.4244 -0.1852 -0.1390
14596SOL     OW46070   9.570   3.202   2.091 -0.4476 -0.3100  0.4120
14596SOL    HW146071   9.652   3.246   2.126  0.0343 -0.0241 -1.0123
14596SOL    HW246072   9.578   3.191   1.992 -2.2367 -0.0448  0.2096
14597SOL     OW46073   9.739   0.617   4.897  0.2986  0.1369  0.8628
14597SOL    HW146074   9.724   0.593   4.993 -0.7109 -0.2772  0.6152
14597SOL    HW246075   9.822   0.572   4.864  0.2585 -0.2976  1.3437
14598SOL     OW46076   3.401   8.032   1.462 -0.1619 -0.3376 -0.4591
14598SOL    HW146077   3.394   7.980   1.547 -0.2743  0.5487  0.0664
14598SOL    HW246078   3.493   8.021   1.424  0.2332  0.1757  0.3514
14599SOL     OW46079   4.923   2.162   2.083 -0.4611  0.1975  0.2525
14599SOL    HW146080   5.019   2.135   2.091 -0.7290 -0.6997  0.4632
14599SOL    HW246081   4.882   2.166   2.174 -1.1612 -1.4303  0.0298
14600SOL     OW46082   0.827   3.408   4.953 -0.1914  0.1104 -0.4913
14600SOL    HW146083   0.836   3.398   4.854 -0.6361  1.5607 -0.6806
14600SOL    HW246084   0.887   3.482   4.985  2.2279 -2.2972  0.7410
14603SOL     OW46085   2.611   5.725   3.184 -0.6444  0.1552 -0.2478
14603SOL    HW146086   2.679   5.704   3.112 -0.4451 -1.1723  0.3123
14603SOL    HW246087   2.591   5.823   3.183 -1.0712  0.0836 -2.5024
14604SOL     OW46088   0.673   6.307   4.003 -0.0296  0.1137 -0.0009
14604SOL    HW146089   0.766   6.280   4.026  0.3375  0.4218 -1.0706
14604SOL    HW246090   0.625   6.229   3.963  0.3772  0.4391 -1.1744
14605SOL     OW46091   7.662   9.570   1.890  0.5434  0.5149  0.0749
14605SOL    HW146092   7.568   9.604   1.883  0.2302 -0.6322 -1.5431
14605SOL    HW246093   7.666   9.476   1.856  1.5571 -0.8125  3.6768
14607SOL     OW46094   2.659   6.781   1.401  0.4078  0.8475 -0.3863
14607SOL    HW146095   2.697   6.814   1.315 -0.0560 -0.5635 -1.1409
14607SOL    HW246096   2.706   6.697   1.429  0.6388  1.3595  0.8056
14608SOL     OW46097   5.972   8.342   2.683  0.3979 -0.2239  0.3317
14608SOL    HW146098   5.906   8.281   2.726  0.9926 -2.2243 -1.4816
14608SOL    HW246099   5.933   8.380   2.599  0.5148  0.8409  0.7615
14609SOL     OW46100   8.760   1.637   1.720  0.0729 -0.0850  0.1466
14609SOL    HW146101   8.686   1.637   1.653  0.0251 -2.2695  0.1659
14609SOL    HW246102   8.839   1.685   1.681 -0.7869  0.8649 -0.4792
14610SOL     OW46103   1.583   7.208   4.197  0.0348  0.0557  0.0161
14610SOL    HW146104   1.660   7.164   4.243 -0.4062 -0.1361  0.5809
14610SOL    HW246105   1.611   7.238   4.106  1.0860  0.9610  0.6270
14611SOL     OW46106   2.632   8.357   0.960  1.0662 -0.1457 -0.0468
14611SOL    HW146107   2.648   8.455   0.954  0.9848  0.0117  1.7735
14611SOL    HW246108   2.537   8.340   0.988  0.6100 -0.7960 -1.9616
14612SOL     OW46109   0.608   6.960   1.465 -0.1824  0.3190 -0.1665
14612SOL    HW146110   0.634   7.031   1.399  1.5851  1.0288  1.2604
14612SOL    HW246111   0.674   6.958   1.540 -0.2436 -2.7521 -0.1091
14613SOL     OW46112   3.862   9.829   2.796  0.4656  0.1433 -0.5254
14613SOL    HW146113   3.834   9.768   2.721  1.1984  1.5078 -1.9553
14613SOL    HW246114   3.794   9.826   2.869 -1.1751  0.0720 -2.0173
14614SOL     OW46115   0.170   1.543   4.059 -0.1310 -0.0139  0.0392
14614SOL    HW146116   0.172   1.462   4.118 -2.2888 -0.1017  0.0347
14614SOL    HW246117   0.139   1.515   3.967  1.2228  0.4574 -0.5617
14615SOL     OW46118   1.883   0.389   3.799  0.5159 -0.2297  0.0291
14615SOL    HW146119   1.785   0.407   3.809  0.3354 -0.8714 -0.5486
14615SOL    HW246120   1.926   0.387   3.889 -0.0021  0.0327  0.2860
14616SOL     OW46121   4.810   3.335   3.628 -0.5153  0.6044  0.0825
14616SOL    HW146122   4.746   3.412   3.630 -0.1048  0.9409  0.4144
14616SOL    HW246123   4.843   3.321   3.535 -2.8376 -1.0482 -0.5322
14617SOL     OW46124   0.269   9.287   2.899  0.3473  0.6577 -0.0307
14617SOL    HW146125   0.242   9.339   2.818 -1.3701  0.3423  0.3181
14617SOL    HW246126   0.265   9.346   2.979 -0.0583  0.4197  0.1290
14618SOL     OW46127   9.088   4.341   3.355 -0.0307  0.4400  0.2569
14618SOL    HW146128   9.028   4.286   3.298  0.0226 -0.6121  1.1965
14618SOL    HW246129   9.037   4.377   3.433  0.2953  0.4521  0.4664
14619SOL     OW46130   1.091   9.023   3.413  0.2117 -0.6637  0.7526
14619SOL    HW146131   1.058   8.972   3.492  0.9212 -0.3066  1.2858
14619SOL    HW246132   1.159   8.969   3.364  0.4160 -0.5324  0.8904
14620SOL     OW46133   3.749   4.773   1.663 -0.3175 -0.1747 -0.1732
14620SOL    HW146134   3.781   4.865   1.639 -0.9515  0.2761  0.6520
14620SOL    HW246135   3.792   4.744   1.749  0.9976 -1.2599 -1.1816
14621SOL     OW46136   7.270   8.474   3.696 -0.6035 -0.8835 -0.1194
14621SOL    HW146137   7.277   8.394   3.636  0.7070 -1.0449  0.2342
14621SOL    HW246138   7.301   8.450   3.788 -1.5800 -0.3450  0.3618
14622SOL     OW46139   1.606   2.916   4.155  0.6511 -0.1497  0.6753
14622SOL    HW146140   1.645   2.960   4.236  0.8329  0.8072  0.0711
14622SOL    HW246141   1.638   2.822   4.150 -0.6271 -0.7401  2.6033
14623SOL     OW46142   7.196   7.634   4.035 -0.2773  0.3053 -0.8053
14623SOL    HW146143   7.195   7.540   4.002  0.8490  0.8335 -2.3642
14623SOL    HW246144   7.205   7.634   4.135 -0.8684 -1.2363 -0.7407
14624SOL     OW46145   3.423   6.330   3.714 -0.1050 -0.0236 -0.5008
14624SOL    HW146146   3.332   6.370   3.714 -0.1136 -0.0098  1.0143
14624SOL    HW246147   3.416   6.231   3.705 -0.2860 -0.0413 -0.1810
14626SOL     OW46148   7.590   0.885   2.660  0.1331  0.3735 -0.6188
14626SOL    HW146149   7.646   0.807   2.633  0.1689  0.0140  0.4663
14626SOL    HW246150   7.517   0.854   2.720 -1.8247  0.6977 -2.7687
14627SOL     OW46151   7.156   1.999   4.806  0.2491  0.1780 -0.0316
14627SOL    HW146152   7.140   1.972   4.902 -0.1788  2.6392  0.6147
14627SOL    HW246153   7.251   2.025   4.795  0.7533 -1.8604 -0.7503
14628SOL     OW46154   1.760   4.042   0.764  0.7674  0.2247  0.0334
14628SOL    HW146155   1.846   4.075   0.802  0.3605  0.0025  1.1732
14628SOL    HW246156   1.708   3.995   0.836 -1.4541  2.5652  0.0107
14629SOL     OW46157   3.521   9.619   4.170 -0.0534  0.2054 -0.0205
14629SOL    HW146158   3.422   9.607   4.179  0.0661  0.4162  1.7478
14629SOL    HW246159   3.551   9.693   4.229  1.2263 -0.1176 -0.2519
14630SOL     OW46160   9.127   1.460   1.720  0.2052  0.1261 -0.0714
14630SOL    HW146161   9.184   1.377   1.720  0.4610  0.2716 -3.0223
14630SOL    HW246162   9.058   1.452   1.649 -0.4494  2.0256  0.3462
14632SOL     OW46163   2.482   1.799   2.481 -0.2919  0.8330 -0.1704
14632SOL    HW146164   2.463   1.796   2.383 -0.2846 -0.3183 -0.1505
14632SOL    HW246165   2.563   1.854   2.498 -0.0113  0.6332 -0.8592
14633SOL     OW46166   0.280   7.419   0.286  0.2328  0.4637 -0.3897
14633SOL    HW146167   0.326   7.387   0.368  1.7088  1.1871 -0.9187
14633SOL    HW246168   0.260   7.517   0.294 -0.6338  0.3003 -0.4406
14635SOL     OW46169   1.974   8.592   2.666  0.2923  0.0813  0.0501
14635SOL    HW146170   1.964   8.607   2.567 -0.1526  0.2098  0.1146
14635SOL    HW246171   2.021   8.505   2.682 -3.1219 -1.9020 -0.2230
14636SOL     OW46172   3.616   1.888   2.430 -0.3125  0.5092 -0.0343
14636SOL    HW146173   3.628   1.987   2.420  3.0880 -0.0043 -1.7393
14636SOL    HW246174   3.657   1.858   2.516  0.4976  0.3195 -0.4816
14637SOL     OW46175   7.661   4.088   0.912 -0.3838  0.5113 -0.4109
14637SOL    HW146176   7.633   4.069   0.817  0.4426  1.3087 -0.8109
14637SOL    HW246177   7.740   4.148   0.912 -1.2831  1.7191  0.8235
14640SOL     OW46178   5.726   8.182   3.132 -0.0046 -0.2340  0.4125
14640SOL    HW146179   5.748   8.279   3.122 -0.3331 -0.3434 -1.4796
14640SOL    HW246180   5.641   8.171   3.183 -0.5594  0.5112 -0.3561
14641SOL     OW46181   9.352   9.984   3.850  0.3784 -0.2064 -0.4095
14641SOL    HW146182   9.322  10.067   3.802  0.7340 -0.8297 -1.7397
14641SOL    HW246183   9.443   9.999   3.888  1.3682 -0.6657 -2.4919
14642SOL     OW46184   8.972   8.044   0.166 -0.4999 -0.0742  0.4629
14642SOL    HW146185   8.974   8.136   0.205 -0.3262 -0.3998  1.2095
14642SOL    HW246186   9.026   7.982   0.222 -0.7975 -0.6852  0.0782
14643SOL     OW46187   2.962   1.086   1.426  0.0770 -0.2515 -0.3483
14643SOL    HW146188   2.982   1.079   1.524 -0.4891  2.0441 -0.0540
14643SOL    HW246189   2.864   1.102   1.413  0.2173 -0.1366 -1.2805
14644SOL     OW46190   4.182   8.297   3.600  0.2887  0.4556  0.1716
14644SOL    HW146191   4.087   8.318   3.576  0.3714 -0.8829 -1.4226
14644SOL    HW246192   4.244   8.354   3.546  0.4018  1.0901  0.9668
14645SOL     OW46193   1.256   3.209   2.897  0.3026  0.3568 -0.0203
14645SOL    HW146194   1.353   3.187   2.883  0.5200  2.1705 -1.4418
14645SOL    HW246195   1.200   3.156   2.833  0.3703 -0.3946  0.5330
14646SOL     OW46196   4.411   2.566   1.467 -0.2951  0.0643  0.8409
14646SOL    HW146197   4.506   2.595   1.456 -0.3653 -0.1116 -0.3162
14646SOL    HW246198   4.400   2.474   1.431 -0.9584  0.1837  0.7316
14647SOL     OW46199   9.533   6.022   0.658  0.4052  0.2465 -0.2670
14647SOL    HW146200   9.550   6.090   0.729  0.9690  0.8093 -0.9346
14647SOL    HW246201   9.600   5.948   0.666  0.9641  0.7045 -0.7019
14648SOL     OW46202   1.862   4.279   1.855 -0.1303 -0.1299 -0.6198
14648SOL    HW146203   1.823   4.188   1.841  1.8832 -1.2385  0.6539
14648SOL    HW246204   1.906   4.283   1.945  0.5209  1.8359 -0.9946
14649SOL     OW46205   7.300   1.292   1.282 -0.1228  0.4559 -0.2574
14649SOL    HW146206   7.252   1.209   1.311 -1.0863  0.7037 -1.1024
14649SOL    HW246207   7.275   1.314   1.188 -0.9900  2.5174  0.4243
14650SOL     OW46208   2.021   5.088   2.660  0.4728  0.4458 -0.3071
14650SOL    HW146209   2.034   5.183   2.633  1.3268 -0.0470 -1.6944
14650SOL    HW246210   2.108   5.040   2.657 -0.4035 -1.1390 -2.7723
14651SOL     OW46211   1.868   2.459   4.185 -0.6447 -0.5020  0.1335
14651SOL    HW146212   1.921   2.381   4.217 -0.8161 -0.4954  0.4295
14651SOL    HW246213   1.778   2.428   4.155 -0.1682 -0.6486 -1.1992
14653SOL     OW46214   3.502   6.781   2.372 -0.0785 -0.0966  0.4328
14653SOL    HW146215   3.519   6.683   2.361  2.5191  0.2829  0.7427
14653SOL    HW246216   3.562   6.817   2.444 -0.5411  1.8387 -0.1312
14654SOL     OW46217   6.334   9.958   3.112 -0.3630  0.8541  0.1732
14654SOL    HW146218   6.377   9.901   3.183 -0.1450  1.1386  0.2694
14654SOL    HW246219   6.252  10.001   3.150 -0.8933  0.0963 -0.0899
14656SOL     OW46220   2.908   1.599   3.097 -0.2495 -0.7336  0.0562
14656SOL    HW146221   2.900   1.571   3.002 -0.5122 -0.6721  0.0597
14656SOL    HW246222   2.818   1.625   3.132  0.0838  0.7521 -0.1386
14657SOL     OW46223   8.311   8.267   2.647  0.1623 -0.3559 -0.1502
14657SOL    HW146224   8.264   8.310   2.725  0.9221  1.4134 -0.6399
14657SOL    HW246225   8.245   8.247   2.575  0.0090  1.5482 -0.5826
14658SOL     OW46226   8.479   9.471   1.831 -0.4925  0.0044 -0.6787
14658SOL    HW146227   8.396   9.476   1.886  0.4541 -1.1946  0.8840
14658SOL    HW246228   8.559   9.479   1.890  0.5322  0.3649 -2.0803
14659SOL     OW46229   3.438   8.195   0.212 -0.3317  0.0918 -0.2574
14659SOL    HW146230   3.362   8.231   0.159 -0.5517 -0.1401 -0.0998
14659SOL    HW246231   3.427   8.096   0.224 -0.1114  0.0904 -0.0655
14660SOL     OW46232   5.463   9.586   1.955 -0.6421 -1.2020  0.0675
14660SOL    HW146233   5.469   9.620   2.049  0.0841  1.1564 -0.8030
14660SOL    HW246234   5.555   9.562   1.922 -0.5305  0.5879 -0.9622
14662SOL     OW46235   2.783   2.613   2.580 -0.0912  0.2727 -0.0210
14662SOL    HW146236   2.756   2.631   2.674  0.6982  2.6837 -0.2082
14662SOL    HW246237   2.872   2.569   2.578  0.5260  1.4798  0.3511
14663SOL     OW46238   8.976   1.169   3.819 -0.4576 -1.0896  0.1391
14663SOL    HW146239   8.949   1.250   3.870  1.3262  0.7010 -1.7015
14663SOL    HW246240   9.059   1.130   3.859 -0.5090 -1.1891  0.1504
14665SOL     OW46241   6.980   9.886   1.384  0.4740 -0.1607 -0.5771
14665SOL    HW146242   6.961   9.893   1.286  0.6130  2.7800 -0.4474
14665SOL    HW246243   6.896   9.861   1.433  0.0287 -0.0978 -1.3070
14666SOL     OW46244   6.733   1.298   1.794  0.2714  0.2333  0.3087
14666SOL    HW146245   6.652   1.356   1.800  0.3188  0.3788 -0.3501
14666SOL    HW246246   6.746   1.249   1.880  0.6177  1.7098  1.1116
14667SOL     OW46247   6.936   1.676   3.024  0.1807 -0.2798 -0.7186
14667SOL    HW146248   6.970   1.661   2.932  0.6245  3.4870 -1.2394
14667SOL    HW246249   6.857   1.738   3.021  0.0928 -0.2314  1.4043
14668SOL     OW46250   0.222   8.378   4.758 -0.1515 -0.2650  0.0389
14668SOL    HW146251   0.254   8.352   4.667  0.6407 -0.0067  0.2375
14668SOL    HW246252   0.300   8.385   4.820 -0.5910  0.4341  0.5220
14669SOL     OW46253   8.518   5.495   4.184  0.1764 -0.2050 -0.1674
14669SOL    HW146254   8.509   5.511   4.282 -1.7981 -0.4388 -0.2951
14669SOL    HW246255   8.615   5.499   4.158  0.7561 -0.6047  1.8583
14670SOL     OW46256   8.475   9.776   2.545 -0.3505  0.2466  0.2873
14670SOL    HW146257   8.384   9.753   2.578 -0.6381  0.6871 -0.1914
14670SOL    HW246258   8.537   9.699   2.562 -0.5804  0.3136  1.4835
14671SOL     OW46259   3.416   8.880   3.863  0.6751  0.0639 -0.1687
14671SOL    HW146260   3.333   8.889   3.807  0.9106  1.0593 -0.3598
14671SOL    HW246261   3.402   8.807   3.930 -0.6116  0.6651  0.2440
14672SOL     OW46262   4.205   5.675   1.603  0.3706 -0.7313  0.0430
14672SOL    HW146263   4.172   5.763   1.571  0.3345 -1.4877 -2.0954
14672SOL    HW246264   4.286   5.688   1.660  0.7821  0.6442 -0.8405
14673SOL     OW46265   0.998   0.839   2.409  0.5490  0.3617 -0.4875
14673SOL    HW146266   1.015   0.777   2.486 -1.2850 -0.3447 -0.6252
14673SOL    HW246267   1.067   0.823   2.338  1.3973  0.0231  0.4045
14676SOL     OW46268   9.159   3.979   3.164 -0.1954 -0.2191  0.0546
14676SOL    HW146269   9.086   4.001   3.099 -0.3568 -0.7530  0.0499
14676SOL    HW246270   9.246   4.014   3.129 -0.5412  0.9607  0.3534
14677SOL     OW46271   5.911   9.670   2.769  0.1818  0.0791 -0.2478
14677SOL    HW146272   5.983   9.697   2.833  1.8681  0.5692 -2.2872
14677SOL    HW246273   5.924   9.574   2.744 -0.9683 -0.3532  0.7398
14679SOL     OW46274   9.167   2.296   2.824 -0.2409  0.7948  0.3891
14679SOL    HW146275   9.244   2.233   2.825 -0.6056  0.2760 -2.1208
14679SOL    HW246276   9.086   2.251   2.788 -1.1727  1.9668  0.9521
14680SOL     OW46277   8.746   2.646   4.236  0.2117 -0.1609 -0.1484
14680SOL    HW146278   8.651   2.666   4.213 -0.0476 -2.8146 -1.6380
14680SOL    HW246279   8.750   2.575   4.305  1.1275  0.5694  0.5678
14681SOL     OW46280   2.514   0.843   4.009 -0.3175  0.3801 -0.0581
14681SOL    HW146281   2.462   0.917   4.052 -0.1084  1.3535 -1.4145
14681SOL    HW246282   2.456   0.796   3.942  0.2696  0.9268 -0.9684
14682SOL     OW46283   1.758   2.596   1.227 -0.3635  0.3916  0.4017
14682SOL    HW146284   1.836   2.545   1.263 -2.3003 -1.0807  2.6147
14682SOL    HW246285   1.762   2.690   1.261 -0.6433 -0.2261  2.1872
14683SOL     OW46286   5.244   1.988   3.994 -0.7606 -0.2678 -0.0554
14683SOL    HW146287   5.306   2.059   3.962 -0.9702 -0.4649 -0.9014
14683SOL    HW246288   5.242   1.912   3.929 -0.9243 -0.8285  0.5918
14686SOL     OW46289   3.265   1.195   0.601 -0.1128  0.1544  0.2056
14686SOL    HW146290   3.191   1.127   0.598 -0.4081  0.3898  1.8328
14686SOL    HW246291   3.232   1.280   0.561 -0.1963 -0.2248 -0.5491
14687SOL     OW46292   2.609   6.436   1.651 -0.0402 -0.3097  0.1771
14687SOL    HW146293   2.694   6.463   1.696  0.7891  1.4472 -2.2914
14687SOL    HW246294   2.629   6.407   1.557 -2.2909  1.6633 -0.9700
14688SOL     OW46295   8.624   4.594   1.991 -0.0135 -0.3862  0.3258
14688SOL    HW146296   8.659   4.501   2.007  0.1395 -0.1202  1.6442
14688SOL    HW246297   8.543   4.590   1.934 -0.1802 -1.3656  0.6186
14689SOL     OW46298   0.366   3.830   4.733  0.8602  0.1424  0.2295
14689SOL    HW146299   0.428   3.785   4.668 -0.4735  0.1446 -1.0498
14689SOL    HW246300   0.374   3.930   4.723 -0.2720  0.1338 -0.8244
14690SOL     OW46301   0.442   2.669   3.098 -0.1673  0.1983 -0.2366
14690SOL    HW146302   0.433   2.755   3.149  0.8776  0.5269 -0.6041
14690SOL    HW246303   0.400   2.679   3.008  0.7796  0.6272 -0.6354
14693SOL     OW46304   3.502   9.250   1.941  0.2159  0.3009 -0.5415
14693SOL    HW146305   3.577   9.191   1.969 -1.8780 -1.4023  1.7584
14693SOL    HW246306   3.531   9.345   1.945  2.2137 -0.3223  0.4129
14696SOL     OW46307   2.878   8.290   1.900 -0.0487  0.5398 -0.0636
14696SOL    HW146308   2.823   8.349   1.959 -2.3266 -0.9544 -0.6173
14696SOL    HW246309   2.876   8.324   1.806 -0.6034  0.0954 -0.2131
14697SOL     OW46310   2.655   3.496   3.764  0.5071 -0.5767 -0.0360
14697SOL    HW146311   2.690   3.427   3.701 -0.7924 -0.3271 -1.0501
14697SOL    HW246312   2.724   3.567   3.776  0.9710 -0.8919 -0.7661
14698SOL     OW46313   0.864   5.135   0.351  0.4847  0.1096 -0.4745
14698SOL    HW146314   0.903   5.146   0.259  0.1312 -1.1231 -0.7838
14698SOL    HW246315   0.882   5.217   0.405  2.7248 -0.0624 -0.8994
14699SOL     OW46316   9.169   5.003   2.922  0.6017 -0.0712 -0.3844
14699SOL    HW146317   9.139   5.088   2.967  1.0451  1.5915 -3.1287
14699SOL    HW246318   9.223   4.949   2.987  0.7071  1.9474  1.2751
14700SOL     OW46319   6.455   2.694   3.207 -0.1721 -0.0889  0.2719
14700SOL    HW146320   6.446   2.713   3.304 -0.2290  2.2229 -0.1463
14700SOL    HW246321   6.545   2.655   3.188  0.6246  1.3639  1.0024
14701SOL     OW46322   4.984   1.961   1.521 -0.1895  0.0546 -0.1326
14701SOL    HW146323   4.958   1.871   1.557 -1.3820  0.5338  0.2534
14701SOL    HW246324   5.031   1.949   1.434  2.9730 -1.1444  1.6601
14702SOL     OW46325   0.059   2.561   3.694  0.1474 -0.0769  0.3965
14702SOL    HW146326  -0.009   2.620   3.737  0.6814  0.7825  0.0812
14702SOL    HW246327   0.139   2.616   3.668  0.1631 -0.7268 -0.9589
14703SOL     OW46328   2.340   6.434   2.039  0.2250 -0.0862  0.5509
14703SOL    HW146329   2.343   6.494   1.959  0.9333  1.2273  1.5434
14703SOL    HW246330   2.353   6.340   2.011 -1.5952  0.1253 -1.1313
14705SOL     OW46331   4.747   8.149   2.496  0.0884 -0.0541  0.1805
14705SOL    HW146332   4.818   8.081   2.475  0.8016  0.9852 -0.8586
14705SOL    HW246333   4.684   8.156   2.418 -1.2205 -1.0237  1.1277
14706SOL     OW46334   0.734   6.894   1.706 -0.3729  0.0713 -0.0203
14706SOL    HW146335   0.829   6.863   1.709 -0.3191  0.1295 -0.9312
14706SOL    HW246336   0.714   6.949   1.787  0.0788 -0.7671  0.6707
14707SOL     OW46337   7.459   9.686   3.254 -0.4311 -0.0220  0.3283
14707SOL    HW146338   7.403   9.752   3.204 -1.0119 -0.0294  0.9687
14707SOL    HW246339   7.416   9.596   3.250 -0.1488 -0.1558  0.3042
14708SOL     OW46340   0.151   5.688   3.921 -0.1997 -0.1231 -0.1819
14708SOL    HW146341   0.078   5.676   3.854 -0.8554 -1.5610  0.7503
14708SOL    HW246342   0.226   5.625   3.900 -0.5003 -0.7361  0.5294
14709SOL     OW46343   6.106   0.575   5.275 -0.2115  0.5010  0.0168
14709SOL    HW146344   6.102   0.675   5.274 -1.7425  0.4949  1.9339
14709SOL    HW246345   6.107   0.541   5.181  1.2517  2.3306 -0.6730
14710SOL     OW46346   4.110   5.102   0.543 -0.2754  0.2682 -0.2567
14710SOL    HW146347   4.013   5.084   0.556 -0.3653  1.4914  0.8386
14710SOL    HW246348   4.122   5.168   0.469 -0.3042  0.4895 -0.0636
14711SOL     OW46349   2.713   8.827   1.932  0.8389  0.4108 -0.3361
14711SOL    HW146350   2.622   8.795   1.961  0.9108 -0.0449 -0.6022
14711SOL    HW246351   2.706   8.921   1.898  0.6274  0.6974  0.4863
14712SOL     OW46352   1.841   5.683   4.012  0.2457  0.0453 -0.2388
14712SOL    HW146353   1.830   5.696   3.914 -2.0673  0.8543  0.0785
14712SOL    HW246354   1.807   5.592   4.037 -0.6475  0.4274 -0.0097
14713SOL     OW46355   1.948   1.588   3.942  0.1629 -0.4790  0.6211
14713SOL    HW146356   1.968   1.590   4.040 -0.6758 -0.9501  0.8149
14713SOL    HW246357   1.874   1.523   3.925 -1.4767  1.4920  0.0103
14714SOL     OW46358   1.741   2.895   3.326  0.3281 -0.3660 -0.3876
14714SOL    HW146359   1.762   2.950   3.407 -0.8812 -0.3626 -0.0557
14714SOL    HW246360   1.675   2.944   3.269 -0.1725 -1.1370 -0.4811
14715SOL     OW46361   3.082   8.278   3.213 -0.7372 -0.1841 -0.4095
14715SOL    HW146362   3.141   8.201   3.236 -3.3672 -1.6937  1.5294
14715SOL    HW246363   3.069   8.281   3.114  1.6793 -0.4375 -0.7811
14716SOL     OW46364   6.678   9.821   2.275  0.0370 -0.6224 -0.3507
14716SOL    HW146365   6.662   9.862   2.185  0.7291 -2.3705 -1.2749
14716SOL    HW246366   6.695   9.894   2.341 -2.3549  0.8006 -1.2205
14717SOL     OW46367   3.528   3.283   4.062 -0.6560 -0.1376  0.2816
14717SOL    HW146368   3.505   3.377   4.036 -0.2821  0.3051  1.5452
14717SOL    HW246369   3.626   3.278   4.085 -0.5929 -0.9205 -0.1145
14718SOL     OW46370   0.709   8.351   5.151 -0.3166 -0.2594 -0.1440
14718SOL    HW146371   0.770   8.358   5.072 -2.4309  0.7589 -1.7380
14718SOL    HW246372   0.666   8.440   5.167 -2.5227 -1.3256 -0.0034
14719SOL     OW46373   6.193   4.763   0.702  0.6791  0.1005 -0.1916
14719SOL    HW146374   6.162   4.692   0.766  1.1735 -0.8574 -1.0050
14719SOL    HW246375   6.114   4.810   0.663  0.3821  1.4748  1.9777
14720SOL     OW46376   9.955   4.815   0.082  0.6337  0.3091  0.2413
14720SOL    HW146377   9.914   4.837   0.170 -0.5531 -2.5387  0.4236
14720SOL    HW246378   9.886   4.818   0.010  0.9792 -0.3974 -0.1234
14721SOL     OW46379   8.200   2.153   3.923  0.1329  0.2548  0.0405
14721SOL    HW146380   8.265   2.081   3.899 -0.2165 -0.2707  0.6680
14721SOL    HW246381   8.111   2.112   3.943 -1.0558  1.1252 -3.0607
14722SOL     OW46382   9.902   6.111   0.167  0.5076  0.1168 -0.0211
14722SOL    HW146383   9.857   6.163   0.095 -0.2400 -0.9650 -0.3630
14722SOL    HW246384   9.872   6.015   0.162 -0.6958  0.2945  2.5987
14723SOL     OW46385   2.578   8.796   1.155  0.1001 -0.9229 -0.9384
14723SOL    HW146386   2.541   8.712   1.196  0.3152 -0.8378 -0.5657
14723SOL    HW246387   2.641   8.772   1.082 -0.7715 -1.0722 -1.6608
14724SOL     OW46388   2.549   9.755   0.976 -0.8048 -0.2854 -0.1752
14724SOL    HW146389   2.564   9.782   0.880 -0.6068 -1.0793 -0.3714
14724SOL    HW246390   2.469   9.803   1.012 -0.5007  0.5044 -0.5409
14725SOL     OW46391   7.094   1.378   4.761 -0.2298 -0.1146  0.4128
14725SOL    HW146392   7.176   1.330   4.792  0.2681  1.4089  1.5027
14725SOL    HW246393   7.102   1.398   4.663 -0.9249 -3.1753 -0.3030
14726SOL     OW46394   7.694   8.490   2.408 -0.2945  0.4007 -0.0940
14726SOL    HW146395   7.684   8.391   2.397 -2.8911  0.6352 -0.2728
14726SOL    HW246396   7.679   8.514   2.504 -1.0832  0.7541 -0.2993
14727SOL     OW46397   9.000   1.980   0.850  0.0775 -0.1592 -0.4253
14727SOL    HW146398   8.969   1.945   0.762 -1.5456  0.2162 -0.0124
14727SOL    HW246399   9.014   2.079   0.844  1.5451 -0.3774 -0.7034
14728SOL     OW46400   2.464   9.118   2.588  0.0193  0.2369 -1.1198
14728SOL    HW146401   2.455   9.207   2.631  0.7421 -0.3624  0.3185
14728SOL    HW246402   2.390   9.105   2.522 -0.6886  1.4683 -0.5837
14729SOL     OW46403   6.576   1.669   2.285 -0.4996 -0.1873 -0.1208
14729SOL    HW146404   6.672   1.641   2.287 -0.8511 -1.3520  0.8342
14729SOL    HW246405   6.559   1.733   2.361 -0.1841  1.0324 -1.0633
14730SOL     OW46406   1.060   2.467   0.475 -0.2014  0.5193  0.2034
14730SOL    HW146407   0.989   2.402   0.448 -0.0056  0.3222  0.1622
14730SOL    HW246408   1.120   2.424   0.543  1.0402  0.0134 -1.1946
14731SOL     OW46409   6.923   0.326   5.188 -0.4602 -0.8333 -0.0394
14731SOL    HW146410   6.957   0.243   5.231  2.1998 -0.1164 -0.6871
14731SOL    HW246411   6.961   0.406   5.234  1.5150 -0.0479 -2.9158
14732SOL     OW46412   4.784   0.608   4.224  0.5954 -0.7723  1.0403
14732SOL    HW146413   4.863   0.617   4.285  1.7023 -2.9516 -0.0099
14732SOL    HW246414   4.816   0.599   4.129 -0.8766 -2.5406  0.6959
14733SOL     OW46415   9.639   3.746   4.730 -0.0439  0.3453  0.5643
14733SOL    HW146416   9.731   3.716   4.706  0.7337  1.7027  1.7251
14733SOL    HW246417   9.625   3.840   4.699 -2.1842 -0.8576 -2.3889
14734SOL     OW46418   4.087   0.261   4.136  0.0995 -0.2823  0.4051
14734SOL    HW146419   4.116   0.351   4.169  1.1458 -0.9132  1.2508
14734SOL    HW246420   4.140   0.190   4.183 -1.0098 -1.3560  0.0576
14735SOL     OW46421   3.548   7.906   2.893  0.0195  0.3005 -0.8596
14735SOL    HW146422   3.521   7.996   2.859  2.0536  1.0294 -0.5926
14735SOL    HW246423   3.641   7.885   2.864  0.8259 -0.2279  1.9516
14736SOL     OW46424   9.509   0.338   3.413  0.4620 -0.2608 -0.1368
14736SOL    HW146425   9.576   0.287   3.359 -0.7348 -1.8651 -0.1491
14736SOL    HW246426   9.478   0.418   3.362  1.6921 -0.0188 -0.5039
14737SOL     OW46427   2.656   3.072   4.524  0.9093 -0.1538  0.5166
14737SOL    HW146428   2.561   3.078   4.556  0.4417  0.1429 -0.8789
14737SOL    HW246429   2.717   3.067   4.602 -0.4375 -3.2931  1.4529
14739SOL     OW46430   1.891   6.657   1.405 -0.0194 -0.4812 -0.1878
14739SOL    HW146431   1.814   6.614   1.357 -1.5969  0.6061  1.2932
14739SOL    HW246432   1.931   6.727   1.346 -0.5077 -0.6761 -0.7672
14740SOL     OW46433   0.891   8.450   1.984  0.1882  0.4437 -0.2774
14740SOL    HW146434   0.830   8.397   1.924  1.5657 -0.5685 -0.8092
14740SOL    HW246435   0.872   8.547   1.972 -0.7133  0.1839 -1.1069
14741SOL     OW46436   8.632   1.891   2.162  0.4583  0.1134 -0.3975
14741SOL    HW146437   8.672   1.818   2.218  0.8071  1.4608  1.1506
14741SOL    HW246438   8.629   1.862   2.066  1.4156 -1.5733  0.0655
14742SOL     OW46439   9.454   9.279   1.439  0.0820 -0.0454  0.2925
14742SOL    HW146440   9.359   9.296   1.467 -0.6415 -1.1864 -1.3083
14742SOL    HW246441   9.472   9.327   1.353  0.3629 -1.2667 -0.3441
14743SOL     OW46442   2.841   7.515   2.856  0.1029 -0.2960  0.1831
14743SOL    HW146443   2.814   7.605   2.820  0.6458  0.6955  2.2131
14743SOL    HW246444   2.940   7.511   2.867  0.1666 -1.4543 -0.6402
14746SOL     OW46445   6.569   1.700   1.389 -0.0080  0.2986 -0.1780
14746SOL    HW146446   6.520   1.621   1.425  0.1490  0.5342  0.5618
14746SOL    HW246447   6.574   1.694   1.289  0.5866 -0.9749 -0.0841
14747SOL     OW46448   8.620   5.990   2.528  0.3041 -0.2420  0.1113
14747SOL    HW146449   8.659   5.998   2.436  0.6255  0.2604  0.2903
14747SOL    HW246450   8.651   6.066   2.584  1.2177 -1.2952  1.0546
14748SOL     OW46451   6.984   1.088   1.563  0.9507  0.1049 -0.5723
14748SOL    HW146452   6.981   1.104   1.662  0.0966 -1.4443 -0.3290
14748SOL    HW246453   6.901   1.126   1.521  0.8345 -0.1234 -0.5513
14749SOL     OW46454   4.476   2.336   1.922  0.0597  0.9284 -0.4596
14749SOL    HW146455   4.516   2.393   1.993 -0.4079 -0.6609  1.1128
14749SOL    HW246456   4.548   2.293   1.868  0.4458  0.8022  0.1567
14750SOL     OW46457   9.857   9.573   2.641  0.7535  0.0465 -0.3243
14750SOL    HW146458   9.871   9.563   2.543  1.4135 -1.2097 -0.1209
14750SOL    HW246459   9.914   9.648   2.676 -0.7411  1.5767 -1.1640
14751SOL     OW46460   8.714   7.783   4.954 -0.1297 -0.4044 -0.6214
14751SOL    HW146461   8.791   7.731   4.919 -0.2828 -1.4727  0.6115
14751SOL    HW246462   8.629   7.748   4.913 -0.0856 -0.0543 -1.0193
14753SOL     OW46463   0.700   1.265   2.346 -0.1946 -0.2326 -0.9983
14753SOL    HW146464   0.639   1.208   2.292  0.2393 -1.1395 -0.5469
14753SOL    HW246465   0.794   1.234   2.333  0.1072  0.7571 -1.2056
14755SOL     OW46466   1.882   7.911   4.150 -0.0817 -0.3950  0.2691
14755SOL    HW146467   1.843   7.998   4.119  0.8109  0.3430  1.1733
14755SOL    HW246468   1.889   7.848   4.072  0.5481  0.8322 -0.6967
14756SOL     OW46469   5.030   4.474   0.555  0.1079 -0.7268  0.1555
14756SOL    HW146470   5.038   4.374   0.548  0.1752 -0.6076 -1.8113
14756SOL    HW246471   4.967   4.507   0.485  1.1440  0.7564 -0.0802
14757SOL     OW46472   7.836   1.181   2.476 -0.4835  0.5702 -0.2954
14757SOL    HW146473   7.827   1.087   2.441 -0.0262  0.7818 -1.0006
14757SOL    HW246474   7.933   1.206   2.478 -0.5695  0.8511  0.3658
14758SOL     OW46475   1.402   6.119   1.068  0.2582  0.3165 -0.2497
14758SOL    HW146476   1.447   6.179   1.134  0.6657 -1.7253  1.4256
14758SOL    HW246477   1.305   6.109   1.092  0.0913  0.6437 -0.7797
14759SOL     OW46478   2.369   7.924   1.593 -0.5813 -0.1612  0.2400
14759SOL    HW146479   2.389   7.827   1.584  0.4655  0.1196 -0.4704
14759SOL    HW246480   2.450   7.978   1.573 -1.2532  0.8843  0.2581
14760SOL     OW46481   1.313   9.496   1.396 -0.0357 -0.6940 -0.2748
14760SOL    HW146482   1.221   9.481   1.359  0.7647 -0.9913 -2.2269
14760SOL    HW246483   1.370   9.416   1.375  1.2944  0.4531 -1.1296
14761SOL     OW46484   0.412   7.785   0.479 -0.0719 -0.0638 -0.6434
14761SOL    HW146485   0.441   7.753   0.569 -2.1309  1.6850  0.6909
14761SOL    HW246486   0.482   7.846   0.441  0.5392 -0.3361  0.0370
14762SOL     OW46487   8.625   9.661   2.116 -0.2160 -0.2201 -0.3277
14762SOL    HW146488   8.698   9.718   2.154  0.2423  0.4161 -2.1225
14762SOL    HW246489   8.658   9.567   2.106 -0.0103 -0.1716 -0.1056
14763SOL     OW46490   5.950   0.948   3.026  0.0199  0.3362  0.1485
14763SOL    HW146491   5.860   0.950   3.071 -0.6116  1.3296 -1.1366
14763SOL    HW246492   5.967   0.856   2.991 -0.7898  0.3115 -0.1951
14764SOL     OW46493   2.173   7.942   4.674  0.1233  0.2179 -0.0922
14764SOL    HW146494   2.084   7.988   4.670  0.2656  0.5279  0.2425
14764SOL    HW246495   2.244   8.004   4.640  0.3177  0.2461  0.3644
14766SOL     OW46496   3.862   4.698   1.902  0.0252 -0.1506 -0.0801
14766SOL    HW146497   3.957   4.727   1.890  0.5309 -1.5490  0.4401
14766SOL    HW246498   3.851   4.604   1.870 -1.5313  0.4713 -1.4994
14767SOL     OW46499   1.271   6.867   3.601 -0.2241 -1.4818  0.2083
14767SOL    HW146500   1.248   6.842   3.696  0.9196  0.6538  1.0827
14767SOL    HW246501   1.369   6.856   3.588  0.3914  2.6009  0.7116
14768SOL     OW46502   1.193   6.748   2.352  0.1073  0.2887  0.3429
14768SOL    HW146503   1.275   6.716   2.400  1.8696 -0.4352 -3.0079
14768SOL    HW246504   1.185   6.847   2.362  0.5735  0.1867  1.8732
14769SOL     OW46505   1.115   3.997   4.728 -0.3592 -0.4014  0.0338
14769SOL    HW146506   1.183   3.931   4.759  1.2944  0.5239 -1.5226
14769SOL    HW246507   1.064   3.960   4.650  0.4971  0.1058 -0.7732
14770SOL     OW46508   4.720   2.615   2.444  0.3227 -0.0065 -0.0696
14770SOL    HW146509   4.801   2.584   2.393  0.5774  1.4579 -0.5892
14770SOL    HW246510   4.644   2.628   2.381  0.3908  0.9598  0.0295
14771SOL     OW46511   3.608   8.788   1.799 -0.0457  0.8005  0.6530
14771SOL    HW146512   3.700   8.816   1.827  0.8607  1.3117 -2.6451
14771SOL    HW246513   3.614   8.715   1.731 -2.1356  0.3029  0.9453
14772SOL     OW46514   2.004   9.796   2.459  0.2159  0.5019  0.0996
14772SOL    HW146515   1.966   9.760   2.544  0.5885 -0.4353 -0.1238
14772SOL    HW246516   2.028   9.720   2.399 -1.4072  1.1638 -1.4357
14773SOL     OW46517   1.951   6.948   3.212 -0.1883  0.0774  0.3532
14773SOL    HW146518   1.992   7.039   3.221  0.6113 -0.2745  0.2235
14773SOL    HW246519   1.893   6.930   3.292 -1.6553  1.3552 -0.3883
14775SOL     OW46520   5.143   9.310   4.128 -0.4041  0.2262 -0.1168
14775SOL    HW146521   5.118   9.270   4.040 -0.5865 -1.1072  0.5171
14775SOL    HW246522   5.060   9.336   4.177 -0.4706 -1.6584  0.8318
14776SOL     OW46523   5.835   9.131   1.928  0.4513  0.5365  0.1824
14776SOL    HW146524   5.830   9.083   2.015  0.5485  1.9822  0.9998
14776SOL    HW246525   5.746   9.129   1.883  0.8492 -1.7902 -0.5602
14778SOL     OW46526   0.355   2.751   0.435 -0.4749  1.0424 -0.3783
14778SOL    HW146527   0.438   2.720   0.482 -0.5298 -0.0289 -0.9824
14778SOL    HW246528   0.326   2.838   0.475  0.2325  0.8143  0.6795
14779SOL     OW46529   7.181   1.944   0.135  0.4165  0.5485 -0.4415
14779SOL    HW146530   7.166   1.894   0.049  0.3019 -0.1166 -0.0363
14779SOL    HW246531   7.125   2.027   0.135 -0.6607 -0.1732 -0.4078
14780SOL     OW46532   3.807   3.360   3.954  0.3779 -0.6512 -0.5354
14780SOL    HW146533   3.801   3.348   4.053 -0.1549 -1.6005 -0.6674
14780SOL    HW246534   3.810   3.457   3.932  3.5679 -0.4385  0.5616
14781SOL     OW46535   4.707   0.505   1.002 -0.4736  0.1612  0.0408
14781SOL    HW146536   4.636   0.506   0.932 -0.0081 -0.5374 -0.4538
14781SOL    HW246537   4.703   0.418   1.052  1.2606 -0.7350 -1.2924
14782SOL     OW46538   8.489   3.103   1.670 -0.2826  0.1874 -0.1286
14782SOL    HW146539   8.526   3.069   1.756 -0.3675 -1.2147 -0.6245
14782SOL    HW246540   8.500   3.202   1.665  1.1019  0.0907  0.8261
14785SOL     OW46541   5.755   8.174   2.383 -0.3801  0.4163 -0.4163
14785SOL    HW146542   5.844   8.208   2.414  0.1632 -0.1287 -1.3309
14785SOL    HW246543   5.704   8.249   2.341  0.6371  0.2244 -2.0345
14786SOL     OW46544   8.466   3.776   2.271  0.4810 -0.0082  0.0557
14786SOL    HW146545   8.500   3.846   2.208  0.5569 -1.6247 -1.7541
14786SOL    HW246546   8.537   3.709   2.288 -1.2827 -2.7552 -2.8075
14787SOL     OW46547   4.035   2.092   3.741 -0.6394  0.2141 -0.2013
14787SOL    HW146548   4.043   2.016   3.806 -0.7240  0.3309 -0.0534
14787SOL    HW246549   4.100   2.079   3.666 -1.8808 -0.9073 -1.1036
14789SOL     OW46550   9.714   1.252   1.775  0.0231 -0.6499 -0.4397
14789SOL    HW146551   9.799   1.301   1.755  1.2938 -2.1300  1.1444
14789SOL    HW246552   9.736   1.161   1.810 -2.2069 -0.6503  1.0559
14790SOL     OW46553   1.232   0.826   1.237 -0.6048 -0.4273  0.4236
14790SOL    HW146554   1.143   0.871   1.237 -0.5055 -0.2226 -0.8789
14790SOL    HW246555   1.225   0.735   1.196 -0.6134 -1.2580  2.1945
14791SOL     OW46556   3.454   9.306   0.905 -0.4878 -0.3036  0.3538
14791SOL    HW146557   3.374   9.360   0.878 -1.1440 -0.9913  0.8941
14791SOL    HW246558   3.479   9.328   0.999  1.4716  1.6944 -0.5805
14793SOL     OW46559   3.331   4.758   5.263 -1.0418  0.2234  0.0402
14793SOL    HW146560   3.366   4.746   5.356 -0.0670  1.3077 -0.1786
14793SOL    HW246561   3.353   4.850   5.230 -2.2386  0.1892 -0.9036
14794SOL     OW46562   2.072   6.760   3.989  0.0946 -0.0758 -0.6206
14794SOL    HW146563   2.125   6.703   4.052 -0.5733 -1.3184 -1.1565
14794SOL    HW246564   2.009   6.818   4.040  0.3701 -0.2461 -0.0900
14795SOL     OW46565   9.550   6.431   2.718 -0.3545 -0.6083  0.2571
14795SOL    HW146566   9.580   6.527   2.722 -2.4647  0.0568  0.5654
14795SOL    HW246567   9.628   6.371   2.739  1.0058  1.0162 -0.0089
14798SOL     OW46568   1.928   5.295   0.308 -0.3146  0.1321 -0.7039
14798SOL    HW146569   1.966   5.238   0.235  0.4872  1.2140 -1.1330
14798SOL    HW246570   1.846   5.342   0.275  1.6692  2.8967 -1.8755
14799SOL     OW46571   7.627   2.346   2.229 -0.0791 -0.1416  0.5515
14799SOL    HW146572   7.555   2.412   2.247 -0.7984 -0.4766 -1.0457
14799SOL    HW246573   7.716   2.386   2.253 -0.6830  0.6967  1.4014
14800SOL     OW46574   9.777   1.415   1.026 -0.0746 -0.5543  0.3337
14800SOL    HW146575   9.803   1.508   1.053 -1.7031 -0.1868  0.6762
14800SOL    HW246576   9.733   1.369   1.103 -1.4435 -0.7758 -0.5758
14801SOL     OW46577   1.186   5.506   3.224  0.3170 -0.4549 -0.1429
14801SOL    HW146578   1.196   5.419   3.272 -0.5781  0.1183  1.1240
14801SOL    HW246579   1.215   5.581   3.284 -3.3224  0.5092  0.5683
14802SOL     OW46580   1.751   3.189   0.174 -0.3098  0.3567  0.0323
14802SOL    HW146581   1.688   3.228   0.241  0.2275  1.5705 -0.1576
14802SOL    HW246582   1.703   3.176   0.087 -0.8311 -0.6130  0.4549
14803SOL     OW46583   1.048   2.594   3.370 -0.1213  0.0107  0.0300
14803SOL    HW146584   1.023   2.584   3.273  1.5010  0.7038 -0.4733
14803SOL    HW246585   0.985   2.540   3.426 -1.3399 -0.0676 -1.3708
14804SOL     OW46586   0.308   5.947   0.518 -0.1693  0.0674  0.1104
14804SOL    HW146587   0.322   5.963   0.616 -0.3681  0.1446  0.1276
14804SOL    HW246588   0.243   6.014   0.483  0.0574  0.1627 -0.1186
14805SOL     OW46589   8.705   5.811   4.794 -0.4111  0.0121  0.6622
14805SOL    HW146590   8.649   5.732   4.769  1.0559 -2.0061  3.5499
14805SOL    HW246591   8.788   5.812   4.737 -0.7552 -0.1079  0.1517
14806SOL     OW46592   5.998   1.913   1.933  0.1198  0.1227 -0.3020
14806SOL    HW146593   6.094   1.900   1.957 -0.3882  1.1567  2.4349
14806SOL    HW246594   5.941   1.849   1.985 -0.8115  0.6215 -0.6863
14808SOL     OW46595   3.785   6.866   2.361 -0.4416 -0.2221  0.0583
14808SOL    HW146596   3.738   6.898   2.279 -1.3474 -0.1107  0.6140
14808SOL    HW246597   3.781   6.937   2.431  1.2167  0.0786 -0.1414
14809SOL     OW46598   8.402   6.469   0.397  0.0743 -0.1274  0.1960
14809SOL    HW146599   8.356   6.404   0.336 -0.1863 -0.4888  0.7728
14809SOL    HW246600   8.375   6.450   0.491  0.1540  0.6942  0.3827
14810SOL     OW46601   4.759   4.281   0.893  0.3671  0.5115 -0.5498
14810SOL    HW146602   4.759   4.381   0.902 -0.8489  0.5287 -0.7053
14810SOL    HW246603   4.797   4.241   0.976  0.1621  1.0777 -0.1783
14811SOL     OW46604   0.781   0.479   5.150 -0.2614  0.1133  0.0712
14811SOL    HW146605   0.782   0.535   5.067 -1.0310  1.1692  0.7649
14811SOL    HW246606   0.856   0.506   5.210 -2.9799  3.2397  2.2312
14812SOL     OW46607   3.011   9.583   2.796  0.0644 -0.3324 -0.3117
14812SOL    HW146608   2.984   9.679   2.789 -0.1656 -0.4041 -0.3939
14812SOL    HW246609   3.097   9.569   2.747  0.0792 -0.1777 -0.3305
14813SOL     OW46610   8.298   7.895   3.154 -0.0911  0.2496  0.2641
14813SOL    HW146611   8.218   7.854   3.199 -1.1313  1.0301 -0.8245
14813SOL    HW246612   8.356   7.939   3.222 -0.0693 -1.1868  1.1919
14814SOL     OW46613   6.088   9.131   4.216 -0.1236  0.4959 -0.1710
14814SOL    HW146614   6.001   9.093   4.247 -0.6289  1.4622 -0.3656
14814SOL    HW246615   6.162   9.101   4.276 -0.4372 -1.1319 -0.5782
14815SOL     OW46616   1.872   8.634   4.506 -0.3451  0.0570 -0.0507
14815SOL    HW146617   1.808   8.558   4.515 -1.7590  1.2903  0.5152
14815SOL    HW246618   1.944   8.625   4.574 -0.9712 -0.3330  0.5679
14816SOL     OW46619   8.528   6.978   2.475  0.1992 -0.1625 -0.0544
14816SOL    HW146620   8.543   6.925   2.559  1.6056  1.1214  0.5252
14816SOL    HW246621   8.606   7.038   2.459 -0.4006  0.1684 -1.8849
14817SOL     OW46622   8.294   7.134   3.381  0.0409  0.0928  0.5245
14817SOL    HW146623   8.384   7.092   3.383 -0.5649 -1.3045 -0.8036
14817SOL    HW246624   8.273   7.164   3.288 -1.7761 -1.6678  0.3366
14819SOL     OW46625   6.348   1.812   2.209  0.1512  0.1330  0.3210
14819SOL    HW146626   6.310   1.795   2.118  0.0287  1.2484  0.1528
14819SOL    HW246627   6.423   1.748   2.226 -0.3522 -0.6212 -0.2357
14820SOL     OW46628   6.153   8.778   4.398 -0.0604  0.5499  0.2195
14820SOL    HW146629   6.119   8.695   4.441 -1.2621  0.7864 -0.2442
14820SOL    HW246630   6.155   8.766   4.299 -1.0878  1.3690  0.0884
14821SOL     OW46631   9.512   2.714   1.226 -0.3177  0.1117 -0.6586
14821SOL    HW146632   9.462   2.717   1.139  0.2120  1.9648 -0.9283
14821SOL    HW246633   9.468   2.774   1.292 -0.5560 -1.0846  0.2771
14822SOL     OW46634   7.471   7.868   2.532  0.0302 -0.8306  0.3582
14822SOL    HW146635   7.444   7.861   2.628  0.0388 -1.1781  0.3352
14822SOL    HW246636   7.395   7.906   2.479 -0.1152 -1.0072  0.4381
14823SOL     OW46637   0.359   4.469   3.843 -0.5290  0.5960  0.5429
14823SOL    HW146638   0.399   4.536   3.906 -0.1603  0.4306  0.4855
14823SOL    HW246639   0.323   4.517   3.763  0.7128  0.6405 -0.0127
14824SOL     OW46640   3.041   9.622   3.063 -0.5875 -0.3339  0.2227
14824SOL    HW146641   3.137   9.607   3.087  0.0471  1.1971 -1.2214
14824SOL    HW246642   3.029   9.608   2.965 -2.0456 -1.3999  0.5406
14825SOL     OW46643   2.965   7.388   1.802 -0.0335  0.5551 -1.0084
14825SOL    HW146644   2.992   7.480   1.831 -0.9452  0.2013  1.0361
14825SOL    HW246645   2.996   7.322   1.870 -2.8451 -0.2378 -0.4414
14826SOL     OW46646   4.891   4.652   4.384  0.3622  0.3112  0.2855
14826SOL    HW146647   4.818   4.716   4.359 -0.2030 -0.7572 -0.8453
14826SOL    HW246648   4.957   4.646   4.308 -0.7387 -2.0695 -0.5456
14829SOL     OW46649   6.769   8.956   2.842 -0.6972  0.2348 -0.2863
14829SOL    HW146650   6.823   8.873   2.857 -1.0807 -0.1270 -0.8834
14829SOL    HW246651   6.830   9.030   2.814  0.0366  0.9285  2.9517
14830SOL     OW46652   6.842   9.921   2.696 -0.1371 -0.0881 -0.0840
14830SOL    HW146653   6.811   9.892   2.787 -0.4259 -0.0927 -0.1851
14830SOL    HW246654   6.912   9.991   2.706 -1.5010  1.2542  0.1033
14831SOL     OW46655   2.900   4.415   4.151  0.5968  0.1578  0.4583
14831SOL    HW146656   2.930   4.363   4.230 -0.4197  1.0518  1.4380
14831SOL    HW246657   2.820   4.469   4.174  0.1675  0.2857 -1.2355
14832SOL     OW46658   3.552   8.573   3.123 -0.1764  0.6381 -0.5485
14832SOL    HW146659   3.482   8.527   3.068 -0.8854  0.2065  0.6999
14832SOL    HW246660   3.528   8.670   3.133 -0.6394  0.4733 -0.0535
14833SOL     OW46661   1.342   5.366   2.734  0.2028 -0.5886  0.1030
14833SOL    HW146662   1.275   5.314   2.682  1.1243  0.2290 -1.9453
14833SOL    HW246663   1.312   5.373   2.829 -2.4310 -0.5011 -0.6995
14834SOL     OW46664   2.525   7.685   4.978  0.1862 -0.3401 -0.6399
14834SOL    HW146665   2.465   7.605   4.969  0.3476 -0.4541 -0.7055
14834SOL    HW246666   2.474   7.760   5.020 -0.0207 -0.4173 -0.7542
14835SOL     OW46667   8.233   9.874   5.275  0.0550  0.4263 -0.0009
14835SOL    HW146668   8.297   9.797   5.282 -1.3147 -0.7777 -0.4933
14835SOL    HW246669   8.191   9.890   5.364 -0.7515 -0.3637 -0.2340
14836SOL     OW46670   7.910   9.083   3.529  0.3937  0.1939  0.1394
14836SOL    HW146671   7.949   9.129   3.609 -0.4349  1.6050 -0.2550
14836SOL    HW246672   7.810   9.078   3.539  0.5040 -2.1783  0.5077
14838SOL     OW46673   8.361   2.861   3.951 -0.3028 -1.1490  0.3068
14838SOL    HW146674   8.292   2.793   3.928 -1.8947  0.6584 -0.3187
14838SOL    HW246675   8.323   2.928   4.015  0.2564  0.9303 -1.4656
14839SOL     OW46676   4.449   8.106   1.490 -0.0112 -0.0607 -0.1289
14839SOL    HW146677   4.539   8.084   1.452 -0.1353  0.4995 -0.7689
14839SOL    HW246678   4.381   8.101   1.417  0.0388  2.9727 -0.4808
14840SOL     OW46679   3.320   5.935   4.788  0.2346 -0.5889  0.0977
14840SOL    HW146680   3.414   5.968   4.786 -0.3013  1.0400  0.9297
14840SOL    HW246681   3.320   5.836   4.803  1.8167 -0.6950 -0.4646
14841SOL     OW46682   9.257   9.872   1.198  0.2763 -0.2791 -0.0134
14841SOL    HW146683   9.229   9.967   1.209  0.5436 -0.0358 -1.2965
14841SOL    HW246684   9.326   9.848   1.266 -1.4973 -0.2571  1.8300
14844SOL     OW46685   8.813   2.411   2.245 -0.2872 -0.1744 -0.0233
14844SOL    HW146686   8.773   2.320   2.250  0.7271 -0.7426 -2.1793
14844SOL    HW246687   8.909   2.407   2.274 -0.0925  0.1215 -0.6335
14845SOL     OW46688   7.532   9.418   4.901  0.2342  0.0243  0.4379
14845SOL    HW146689   7.580   9.336   4.933  2.0744 -0.0777 -2.4589
14845SOL    HW246690   7.598   9.490   4.884 -0.9175  0.7145 -1.1874
14846SOL     OW46691   4.662   2.839   1.152  0.0376 -0.0026 -0.0147
14846SOL    HW146692   4.693   2.848   1.057 -1.1772  2.4392 -0.2033
14846SOL    HW246693   4.705   2.910   1.208 -0.6110 -0.3446  0.9258
14847SOL     OW46694   9.114   8.275   3.823  0.2495  0.6277 -0.4774
14847SOL    HW146695   9.067   8.304   3.906  0.0255 -0.1209 -0.3456
14847SOL    HW246696   9.048   8.237   3.758  0.5696  0.2502 -0.5829
14848SOL     OW46697   7.714   0.224   4.591 -0.4594 -0.1025  0.2449
14848SOL    HW146698   7.655   0.188   4.519  0.4516  2.6174 -1.9483
14848SOL    HW246699   7.808   0.232   4.558  0.5231 -1.3485  2.6460
14849SOL     OW46700   6.298   5.632   0.628 -0.1771  0.3619 -0.0392
14849SOL    HW146701   6.298   5.708   0.693  0.6980 -0.0879  0.4924
14849SOL    HW246702   6.245   5.555   0.665  1.6310 -0.4768  0.8423
14850SOL     OW46703   3.372   3.132   2.504  0.0020 -0.3684  0.3656
14850SOL    HW146704   3.358   3.181   2.419 -0.0075  2.0748  1.7421
14850SOL    HW246705   3.463   3.089   2.504  0.6221  0.9208 -0.2520
14851SOL     OW46706   6.433   4.327   0.172  0.6773  0.5092  0.4040
14851SOL    HW146707   6.454   4.234   0.201 -0.1227  0.2139  0.0564
14851SOL    HW246708   6.350   4.326   0.116 -0.7704  1.7631  2.4645
14852SOL     OW46709   2.574   1.201   3.767  0.0399 -0.3350  0.2329
14852SOL    HW146710   2.589   1.159   3.677  2.0505  2.0978 -0.6051
14852SOL    HW246711   2.622   1.148   3.837  1.8168  0.0276 -0.6922
14853SOL     OW46712   5.733   0.175   4.922  0.3678  0.1293 -0.1305
14853SOL    HW146713   5.816   0.222   4.952 -0.0650  0.0693  1.1809
14853SOL    HW246714   5.657   0.199   4.983 -0.0366 -1.6443  0.0952
14854SOL     OW46715   3.808   3.179   0.632  0.2856  0.5531 -0.0883
14854SOL    HW146716   3.801   3.174   0.532  2.7355  3.4413 -0.4694
14854SOL    HW246717   3.794   3.274   0.661  0.8303 -0.0653  2.2173
14855SOL     OW46718   2.099   2.162   2.515  0.6708 -0.0622  0.1331
14855SOL    HW146719   2.159   2.083   2.517 -0.4541 -1.0169 -2.0068
14855SOL    HW246720   2.017   2.141   2.461 -0.0217  2.2997  0.1806
14856SOL     OW46721   8.627   5.811   4.259 -0.5336 -0.4389  0.1699
14856SOL    HW146722   8.591   5.849   4.173  0.5540  0.7998  0.2392
14856SOL    HW246723   8.552   5.772   4.312 -1.7570  1.8208  0.1851
14857SOL     OW46724   9.082   3.291   0.677 -0.0895 -0.6271  0.2305
14857SOL    HW146725   9.117   3.373   0.722 -2.0103  0.1733  0.3019
14857SOL    HW246726   9.115   3.289   0.582  0.6177 -0.1930  0.4605
14859SOL     OW46727   9.531   4.818   4.237 -0.4052  0.7222 -0.1178
14859SOL    HW146728   9.480   4.753   4.294  0.1135  1.8435  1.6319
14859SOL    HW246729   9.609   4.771   4.196  0.2234  0.3246  1.4946
14860SOL     OW46730   6.398   8.465   3.535  0.1399  0.4576  0.2473
14860SOL    HW146731   6.494   8.456   3.561 -0.4314 -1.7776  1.7276
14860SOL    HW246732   6.390   8.529   3.458  3.0547 -0.9647 -1.3133
14861SOL     OW46733   7.549   3.517   0.884 -0.4338 -0.7991  0.0282
14861SOL    HW146734   7.644   3.487   0.899 -0.3874 -0.2704  0.7818
14861SOL    HW246735   7.489   3.471   0.949 -0.5755 -0.4295  0.1568
14862SOL     OW46736   2.884   6.375   3.131  0.3854 -0.1475 -0.1198
14862SOL    HW146737   2.802   6.319   3.144  1.1350 -0.7270  2.5119
14862SOL    HW246738   2.965   6.321   3.155  1.2609  1.4740  0.6228
14864SOL     OW46739   0.629   5.756   1.422 -0.2409 -0.5474 -0.4681
14864SOL    HW146740   0.623   5.809   1.506  0.0614  0.3929 -1.0290
14864SOL    HW246741   0.589   5.665   1.436 -1.7688  0.2086  0.1873
14865SOL     OW46742   2.090   9.308   0.779 -0.2730 -0.0685  0.3052
14865SOL    HW146743   2.153   9.260   0.841  1.0584 -0.9997 -1.7219
14865SOL    HW246744   2.015   9.247   0.755  0.2337 -0.3983 -0.4888
14866SOL     OW46745   8.433   7.623   2.961  0.0200  0.2876 -0.7980
14866SOL    HW146746   8.443   7.528   2.990 -2.0463  0.7632  1.7458
14866SOL    HW246747   8.500   7.644   2.890  1.0863 -2.7967 -0.7888
14867SOL     OW46748   6.361   1.006   5.068 -0.1580  0.2210 -0.4330
14867SOL    HW146749   6.281   0.968   5.020 -0.0331  1.0407 -1.3107
14867SOL    HW246750   6.414   0.931   5.108 -0.4569 -0.4573 -1.2852
14868SOL     OW46751   2.169   9.539   1.300  0.1539  0.6512  0.0292
14868SOL    HW146752   2.168   9.529   1.399 -2.2853 -2.4055 -0.2566
14868SOL    HW246753   2.098   9.603   1.272  0.0523  0.5914  0.1559
14869SOL     OW46754   5.580   0.029   1.778  0.1397  0.0961  0.0835
14869SOL    HW146755   5.503  -0.034   1.783  0.2578 -0.2119 -1.8539
14869SOL    HW246756   5.554   0.117   1.817  0.1119 -1.2355  3.2301
14870SOL     OW46757   1.318   9.717   0.670 -0.0167  0.3890  0.3207
14870SOL    HW146758   1.388   9.657   0.710 -0.3483 -1.0109 -1.1436
14870SOL    HW246759   1.247   9.661   0.628 -0.6203  1.8214 -0.5906
14871SOL     OW46760   9.970   0.133   1.168  0.1399  0.2866 -0.5091
14871SOL    HW146761  10.024   0.064   1.120 -0.1126  1.3249 -2.3417
14871SOL    HW246762   9.873   0.121   1.146 -0.0905  0.1541  0.5503
14872SOL     OW46763   6.571   4.539   0.262  0.1193  0.1098  0.3387
14872SOL    HW146764   6.516   4.462   0.231  0.8257 -0.1963 -0.1518
14872SOL    HW246765   6.512   4.620   0.272 -0.5042 -0.3292  0.2741
14873SOL     OW46766   8.732   5.288   3.642  0.1390 -0.2268 -0.5242
14873SOL    HW146767   8.717   5.209   3.700 -1.0545  0.0414 -0.4576
14873SOL    HW246768   8.801   5.266   3.572  0.7788 -0.8886  0.3075
14875SOL     OW46769   0.757   7.009   2.530  0.8146  0.0891 -0.4221
14875SOL    HW146770   0.683   6.947   2.505  0.1206  1.2541 -1.3352
14875SOL    HW246771   0.790   6.987   2.622 -0.7322 -0.3936  0.0371
14876SOL     OW46772   1.840   1.190   4.281 -0.3322  0.6835 -0.2644
14876SOL    HW146773   1.782   1.201   4.362 -1.2774 -1.3531 -0.6196
14876SOL    HW246774   1.924   1.243   4.292 -0.6938  0.8615  1.7943
14878SOL     OW46775   9.889   0.570   3.856 -0.0374  0.0581  0.2009
14878SOL    HW146776   9.985   0.597   3.848  0.0275 -0.0268  0.6839
14878SOL    HW246777   9.874   0.524   3.944 -0.3268 -0.7192 -0.2441
14879SOL     OW46778   4.046   1.245   3.415 -0.7006 -0.3910 -0.6372
14879SOL    HW146779   4.106   1.171   3.385 -0.9264 -0.9352  0.2302
14879SOL    HW246780   3.977   1.209   3.478 -0.5768  0.6210  0.1004
14880SOL     OW46781   0.080   4.291   1.809 -0.6654 -0.0713  0.4210
14880SOL    HW146782   0.150   4.286   1.739 -1.2127  2.5249 -0.3624
14880SOL    HW246783   0.044   4.199   1.828  1.2655 -1.1065 -0.8312
14881SOL     OW46784   9.417   5.549   0.481  0.3921  0.1378 -0.2238
14881SOL    HW146785   9.447   5.644   0.491  0.3710  0.3373 -1.9065
14881SOL    HW246786   9.494   5.493   0.451  1.0214 -0.8700  3.0917
14882SOL     OW46787   9.067   1.015   2.103  0.5395  0.2139 -0.1147
14882SOL    HW146788   9.014   1.061   2.032 -0.8703  0.7457  1.2712
14882SOL    HW246789   9.128   1.081   2.147 -0.5674  0.4947  1.0141
14883SOL     OW46790   3.692   6.956   3.770  0.5263 -0.0707  0.6759
14883SOL    HW146791   3.660   7.026   3.707  1.2301 -1.3281 -1.1240
14883SOL    HW246792   3.774   6.989   3.818  0.2644  0.7156  0.5885
14884SOL     OW46793   3.540   5.488   3.007  0.2885 -0.0965  0.1384
14884SOL    HW146794   3.499   5.573   2.974  1.0679  0.3914  0.4228
14884SOL    HW246795   3.574   5.435   2.929 -1.7319 -0.9506 -0.1777
14885SOL     OW46796   0.326   0.290   2.591  0.7828 -0.0541  0.5373
14885SOL    HW146797   0.397   0.295   2.520 -0.8203 -0.2454 -1.1347
14885SOL    HW246798   0.300   0.382   2.619  0.3526  0.0798 -0.2626
14886SOL     OW46799   7.218   8.704   2.619  0.3472 -0.5269  0.2991
14886SOL    HW146800   7.236   8.732   2.714 -1.4060  1.2815  0.1385
14886SOL    HW246801   7.303   8.710   2.567  1.3034 -1.4002  1.7019
14887SOL     OW46802   8.022   6.426   3.759  0.2929 -0.0508  0.7772
14887SOL    HW146803   7.958   6.424   3.836  1.8855  0.6161  2.1680
14887SOL    HW246804   8.057   6.334   3.742 -1.2673 -0.4714 -0.2047
14888SOL     OW46805   7.448   3.802   0.809 -0.2287  0.4885  0.1677
14888SOL    HW146806   7.521   3.737   0.829  0.7495  0.8761 -2.0198
14888SOL    HW246807   7.374   3.757   0.759 -0.1274  0.7619 -0.2337
14889SOL     OW46808   2.188   9.067   3.516 -0.3228 -0.3038 -0.0342
14889SOL    HW146809   2.159   9.074   3.611 -3.2774  0.3141 -0.9240
14889SOL    HW246810   2.133   8.997   3.470 -0.3493  0.8388 -1.7811
14890SOL     OW46811   1.826   6.135   4.700  0.1752  0.6047 -0.3185
14890SOL    HW146812   1.823   6.158   4.603 -0.7959 -0.1187 -0.4697
14890SOL    HW246813   1.823   6.036   4.711 -0.0040  0.6933  0.4487
14891SOL     OW46814   2.974   6.856   4.399 -0.0132 -0.7924  0.2619
14891SOL    HW146815   2.926   6.914   4.334  0.7683 -1.0915 -0.5828
14891SOL    HW246816   3.010   6.776   4.352 -2.0414 -2.5484  1.6104
14892SOL     OW46817   2.427   5.567   3.274  0.4047 -0.5718  0.0019
14892SOL    HW146818   2.399   5.504   3.201 -1.0390  0.4827 -0.3701
14892SOL    HW246819   2.501   5.625   3.240 -0.2692 -0.0783 -0.6224
14893SOL     OW46820   7.687   1.387   0.133  0.2839 -0.1889 -0.6129
14893SOL    HW146821   7.604   1.332   0.129 -0.5999  1.1536 -1.4693
14893SOL    HW246822   7.705   1.413   0.228 -0.8623  0.3346 -0.5211
14894SOL     OW46823   4.770   1.732   1.458 -0.1565 -1.0662 -0.3693
14894SOL    HW146824   4.846   1.698   1.513  1.8909  1.1359 -1.7361
14894SOL    HW246825   4.719   1.799   1.511 -0.4791 -1.7242  0.1591
14895SOL     OW46826   9.301   5.590   1.334  0.5201 -0.0714  0.3941
14895SOL    HW146827   9.254   5.675   1.359  2.9124  1.5226 -0.4024
14895SOL    HW246828   9.280   5.519   1.401 -0.2041  1.6100  1.9773
14897SOL     OW46829   8.786   7.727   4.546  0.2146  0.6476 -0.0253
14897SOL    HW146830   8.804   7.636   4.582  0.2558  0.5142 -0.3775
14897SOL    HW246831   8.838   7.795   4.598  0.2839  0.4569  0.1532
14899SOL     OW46832   9.352   0.142   2.861  0.1354 -0.1265  0.3682
14899SOL    HW146833   9.309   0.229   2.886 -0.3978 -0.3073  0.0892
14899SOL    HW246834   9.290   0.090   2.802  0.2805 -0.8876  0.8882
14900SOL     OW46835   4.598   8.454   3.265  0.2032  0.1706  0.7954
14900SOL    HW146836   4.692   8.422   3.278  0.9010  1.8058 -0.1218
14900SOL    HW246837   4.596   8.554   3.268 -1.0992  0.2650 -1.8897
14901SOL     OW46838   9.609   8.051   4.682  0.0852  0.5401  0.0555
14901SOL    HW146839   9.633   8.076   4.588  0.4236  1.2642  0.3407
14901SOL    HW246840   9.678   7.988   4.718  0.5885  1.2005  0.2407
14902SOL     OW46841   5.921   9.364   4.288  1.0160 -0.8894 -0.3199
14902SOL    HW146842   5.910   9.345   4.385 -0.8031  0.4769 -0.2372
14902SOL    HW246843   5.995   9.307   4.251  1.7724 -1.3672  1.8543
14903SOL     OW46844   2.041   1.976   0.603 -0.7984 -0.0824 -0.0977
14903SOL    HW146845   1.982   1.897   0.584 -0.1341 -1.3812  2.8714
14903SOL    HW246846   2.092   1.959   0.687 -0.1586  3.3002  0.2456
14904SOL     OW46847   9.420   0.648   1.129 -0.4192 -0.0731  0.0711
14904SOL    HW146848   9.412   0.635   1.030  1.4688 -0.3801 -0.0656
14904SOL    HW246849   9.432   0.560   1.174  0.0159  0.1700  0.4383
14905SOL     OW46850   2.296   2.529   1.797 -0.0667 -0.0995 -0.6614
14905SOL    HW146851   2.346   2.502   1.879  0.6159  1.0409 -0.6819
14905SOL    HW246852   2.270   2.448   1.745 -0.4723 -0.8296  0.6608
14906SOL     OW46853   2.495   6.279   0.612 -0.4572  0.3829  1.3830
14906SOL    HW146854   2.428   6.238   0.550  1.5849 -1.7587  0.5099
14906SOL    HW246855   2.516   6.215   0.686  1.5367  0.4723  0.9363
14907SOL     OW46856   1.286   2.258   3.877  0.4964  0.4915  0.0094
14907SOL    HW146857   1.248   2.337   3.829  0.3201 -0.0764 -0.7886
14907SOL    HW246858   1.214   2.213   3.930  0.2948  0.0465 -0.6456
14908SOL     OW46859   8.520   9.044   2.831 -0.3968 -0.1487  0.4592
14908SOL    HW146860   8.433   9.015   2.791  0.0536 -2.2319  0.9780
14908SOL    HW246861   8.595   9.013   2.774  0.0875  0.4134  0.7837
14911SOL     OW46862   8.960   8.193   1.673  0.2588 -0.1106 -0.1862
14911SOL    HW146863   8.862   8.176   1.658  0.1013 -0.2466  0.9549
14911SOL    HW246864   8.982   8.177   1.769  1.3800  0.0626 -0.4110
14912SOL     OW46865   8.305   8.641   4.944  0.0592 -0.7024 -0.0982
14912SOL    HW146866   8.324   8.544   4.927 -2.0264 -1.3500  1.1302
14912SOL    HW246867   8.379   8.681   4.998  0.4592 -1.8467  0.2057
14914SOL     OW46868   4.429   9.764   4.478  0.5274 -0.4398 -0.4155
14914SOL    HW146869   4.423   9.712   4.393 -0.7850  0.3828 -0.8488
14914SOL    HW246870   4.385   9.712   4.552 -0.2290 -0.2285 -0.7114
14915SOL     OW46871   5.292   9.974   3.933 -0.5899  0.3762  1.0219
14915SOL    HW146872   5.279  10.067   3.899  0.0620  0.0710 -0.0767
14915SOL    HW246873   5.388   9.948   3.922 -1.0783 -1.0034 -0.1324
14916SOL     OW46874   6.348   9.252   2.727  0.6048  0.5377  0.5878
14916SOL    HW146875   6.266   9.194   2.727  1.5523 -0.8596  2.2090
14916SOL    HW246876   6.321   9.347   2.744 -1.0593  0.7944 -3.0162
14917SOL     OW46877   4.882   3.669   4.815  0.3699 -0.4873  0.3901
14917SOL    HW146878   4.942   3.725   4.873  0.3804 -0.1565  0.0599
14917SOL    HW246879   4.818   3.618   4.872  0.4596 -0.2524  0.6984
14918SOL     OW46880   0.047   3.134   0.458  0.0394  0.2860  0.5723
14918SOL    HW146881   0.058   3.233   0.457  0.0476  0.3345 -3.4571
14918SOL    HW246882   0.136   3.091   0.442 -0.2119 -0.3372  0.8325
14920SOL     OW46883   0.789   3.993   3.116  1.1536  0.0105 -0.4322
14920SOL    HW146884   0.867   4.043   3.076  1.2551 -2.1711 -3.0811
14920SOL    HW246885   0.717   3.984   3.047  0.2680 -1.6212  0.6868
14921SOL     OW46886   1.626   3.108   1.729  0.0823 -0.9437  0.4451
14921SOL    HW146887   1.544   3.053   1.746 -0.5892  0.1946  0.9617
14921SOL    HW246888   1.609   3.202   1.758  1.0966 -0.3854 -0.7534
14922SOL     OW46889   1.490   6.487   2.186 -0.2484 -0.7700  0.0866
14922SOL    HW146890   1.562   6.542   2.143 -1.2205 -0.4151 -1.0960
14922SOL    HW246891   1.527   6.396   2.206  0.7762 -0.3302  0.2361
14923SOL     OW46892   2.548   5.858   2.647  0.2778 -0.4421 -0.0647
14923SOL    HW146893   2.487   5.804   2.705 -1.2420  2.1120  0.7766
14923SOL    HW246894   2.576   5.941   2.695  2.1930 -0.1931 -1.5138
14924SOL     OW46895   9.156   9.742   2.316 -0.0974  0.0205 -0.1092
14924SOL    HW146896   9.202   9.682   2.381  1.6043  0.6687 -0.6608
14924SOL    HW246897   9.114   9.688   2.244  0.6933 -0.5656 -0.1433
14925SOL     OW46898   4.689   3.570   4.987  0.8065  0.3778  0.2054
14925SOL    HW146899   4.609   3.513   5.006 -0.3515  1.2373 -1.9171
14925SOL    HW246900   4.666   3.666   5.001  1.5282  0.6226 -0.2471
14927SOL     OW46901   4.657   0.620   1.920 -0.1279 -0.1505 -0.4973
14927SOL    HW146902   4.696   0.712   1.925  0.2752 -0.4411  2.6134
14927SOL    HW246903   4.724   0.558   1.879  0.4831  0.4905 -0.4823
14928SOL     OW46904   5.574   1.895   2.364 -0.6771  0.1057 -0.3215
14928SOL    HW146905   5.484   1.855   2.346 -0.0682 -0.6802 -1.7363
14928SOL    HW246906   5.632   1.829   2.412 -0.5537  0.2724 -0.2395
14929SOL     OW46907   8.598   9.032   3.496  0.1438  0.1100 -0.4716
14929SOL    HW146908   8.502   9.058   3.492 -0.3521 -1.7332 -1.3458
14929SOL    HW246909   8.607   8.948   3.550  1.1567 -0.1255 -0.9924
14930SOL     OW46910   8.335   2.260   4.591 -0.4241 -0.2290 -0.2149
14930SOL    HW146911   8.337   2.186   4.523 -1.1630 -0.7394  0.3028
14930SOL    HW246912   8.257   2.246   4.652 -1.1491  1.5472 -0.7280
14931SOL     OW46913   1.941   4.938   3.698 -0.3812  0.2234 -0.6592
14931SOL    HW146914   1.933   4.919   3.796  2.5943 -1.7096 -0.7166
14931SOL    HW246915   1.919   4.855   3.647  0.2737  0.5737 -1.5172
14932SOL     OW46916   7.919   6.264   0.727  0.0903  0.1950  0.2050
14932SOL    HW146917   7.953   6.309   0.810  0.0808  0.0432  0.2920
14932SOL    HW246918   7.957   6.308   0.647  1.2755 -0.6043  0.3183
14933SOL     OW46919   9.677   5.747   1.141  0.1900  0.4684 -0.0528
14933SOL    HW146920   9.674   5.724   1.043  0.7043 -0.7119  0.1975
14933SOL    HW246921   9.651   5.666   1.194  0.9155  0.8047  0.8165
14934SOL     OW46922   9.745   3.797   4.342  0.1517 -0.2900 -0.3958
14934SOL    HW146923   9.665   3.738   4.331 -0.3274  0.2711  0.0672
14934SOL    HW246924   9.783   3.785   4.434 -0.3397  0.6206 -0.0771
14937SOL     OW46925   6.481   8.344   4.905 -0.2003 -0.2038 -0.9161
14937SOL    HW146926   6.455   8.288   4.827  0.7017 -1.5022 -0.2983
14937SOL    HW246927   6.463   8.295   4.990  0.9861  0.2616 -0.3798
14939SOL     OW46928   7.108   5.057   0.612  0.2166 -0.1112 -0.0246
14939SOL    HW146929   7.107   4.968   0.566  0.4519 -0.5240  0.7591
14939SOL    HW246930   7.091   5.044   0.709 -1.4792  0.8671 -0.1684
14940SOL     OW46931   7.257   0.027   4.406 -0.2124  0.6435  0.6381
14940SOL    HW146932   7.309  -0.059   4.403  0.5097  1.0622  1.1282
14940SOL    HW246933   7.282   0.078   4.488 -2.0585  0.4378  1.3616
14942SOL     OW46934   0.426   1.286   2.008  0.3150 -0.7147 -0.6108
14942SOL    HW146935   0.485   1.217   2.051 -0.0057 -0.4669  0.2331
14942SOL    HW246936   0.481   1.344   1.947  0.8166 -0.9127 -0.3464
14943SOL     OW46937   3.234   7.201   2.794  0.1187  0.6945 -0.6387
14943SOL    HW146938   3.149   7.150   2.780  0.7557 -0.7715  0.6144
14943SOL    HW246939   3.258   7.198   2.891  1.4149  1.4030 -0.9305
14944SOL     OW46940   9.833   0.137   0.652  0.4078  0.1198  0.4974
14944SOL    HW146941   9.911   0.088   0.689 -0.0789  0.3635  1.8833
14944SOL    HW246942   9.754   0.125   0.712  0.3670  2.8791  1.0768
14945SOL     OW46943   5.242   0.533   1.255 -0.0195  0.4953  0.8677
14945SOL    HW146944   5.335   0.545   1.218 -0.4321  0.3303 -0.2587
14945SOL    HW246945   5.197   0.458   1.207 -0.7712  0.6491  1.3343
14946SOL     OW46946   0.172   5.028   4.434 -0.1255 -0.4721 -0.2917
14946SOL    HW146947   0.222   5.107   4.398 -1.1361  0.5172  0.4393
14946SOL    HW246948   0.237   4.964   4.476  0.6736  0.0832 -0.6682
14947SOL     OW46949   5.691   8.724   2.703  0.1646 -0.3693 -0.4913
14947SOL    HW146950   5.617   8.788   2.725 -1.8106 -2.4902 -0.7791
14947SOL    HW246951   5.753   8.716   2.781 -0.4383  0.6917  0.1028
14949SOL     OW46952   9.253   9.586   2.533  0.3983 -0.0567  0.5481
14949SOL    HW146953   9.349   9.563   2.522  0.2010  0.0885 -1.6484
14949SOL    HW246954   9.204   9.505   2.566  0.4532 -1.7181 -3.1202
14950SOL     OW46955   3.004   7.848   2.529  0.6802 -0.4059  0.8730
14950SOL    HW146956   2.984   7.886   2.620  2.1251  0.4680  0.8445
14950SOL    HW246957   3.003   7.748   2.533 -2.2184 -0.4189  1.1760
14951SOL     OW46958   2.520   9.638   1.767 -0.1090 -0.4522 -0.1276
14951SOL    HW146959   2.478   9.702   1.831 -0.2196  1.7728 -2.3955
14951SOL    HW246960   2.449   9.579   1.727 -0.1930 -1.0167  0.8288
14952SOL     OW46961   4.340   8.850   2.475  0.4496 -0.3224  0.2568
14952SOL    HW146962   4.384   8.924   2.424 -0.2477 -0.7517 -1.0005
14952SOL    HW246963   4.388   8.764   2.457  0.5732 -0.3737  0.8199
14953SOL     OW46964   9.221   7.857   3.361  0.3287  0.5854  0.1725
14953SOL    HW146965   9.151   7.800   3.319 -0.7661  1.2760  1.0289
14953SOL    HW246966   9.302   7.802   3.383 -0.5334 -0.5259  0.5730
14954SOL     OW46967   0.794   2.848   3.777 -0.1088  0.0979  0.4532
14954SOL    HW146968   0.751   2.789   3.709  3.7213 -0.3609 -1.7179
14954SOL    HW246969   0.820   2.794   3.856 -2.1369  0.1226  1.1758
14955SOL     OW46970   2.006   5.663   4.766 -0.2137 -0.1070  0.5582
14955SOL    HW146971   2.042   5.738   4.821 -0.5845  0.6819 -0.2690
14955SOL    HW246972   2.030   5.576   4.809 -1.4575  0.4991  2.5754
14956SOL     OW46973   8.675   3.338   0.803 -0.6893 -0.1020 -0.3195
14956SOL    HW146974   8.731   3.260   0.833 -0.2650  0.5243  0.5676
14956SOL    HW246975   8.578   3.315   0.813 -0.5633 -0.2173  0.7660
14957SOL     OW46976   8.755   2.136   5.045 -0.0178  0.5415  0.1958
14957SOL    HW146977   8.676   2.196   5.060  0.0570  0.6451  0.1643
14957SOL    HW246978   8.778   2.135   4.948 -0.0438  0.4310  0.1908
14958SOL     OW46979   4.700   0.055   3.309 -0.7363 -0.0335 -0.4542
14958SOL    HW146980   4.635   0.118   3.265 -3.1686 -0.0032  2.9456
14958SOL    HW246981   4.735   0.096   3.393  0.0844 -1.9446  0.1789
14959SOL     OW46982   6.365   5.055   1.006  0.1532  0.4255  0.0066
14959SOL    HW146983   6.345   5.153   1.007  0.9207  0.5767  0.4913
14959SOL    HW246984   6.384   5.026   0.912 -0.6467  0.6216 -0.2201
14961SOL     OW46985   9.252   2.926   2.605  0.5724 -0.0380 -0.3364
14961SOL    HW146986   9.158   2.950   2.581  1.5504  2.2217 -2.0777
14961SOL    HW246987   9.293   2.874   2.529  2.4123  3.7187 -2.0801
14962SOL     OW46988   1.421   7.539   4.960  0.3192 -0.4532  0.2605
14962SOL    HW146989   1.417   7.487   5.046 -0.9658 -1.2618 -0.2705
14962SOL    HW246990   1.482   7.493   4.896 -0.8909 -1.3765 -0.2427
14963SOL     OW46991   2.052   7.822   5.318  0.4696  0.5704  0.3486
14963SOL    HW146992   2.141   7.819   5.273  0.6050  0.6809  0.6072
14963SOL    HW246993   2.058   7.775   5.406  0.6601  1.8727  1.0424
14964SOL     OW46994   8.096   1.326   4.443  0.5194  0.0524  0.5706
14964SOL    HW146995   8.093   1.359   4.537 -1.0800  0.5996  0.3480
14964SOL    HW246996   8.063   1.231   4.440  1.4839 -0.2852  0.6937
14965SOL     OW46997   2.101   2.017   3.829 -0.7654  0.2586 -0.5215
14965SOL    HW146998   2.133   1.972   3.913 -0.4140  1.3848 -0.0375
14965SOL    HW246999   2.133   1.966   3.749 -1.4089 -1.0236  0.0324
14968SOL     OW47000   2.336   3.274   2.714 -0.0199 -0.0400 -0.3678
14968SOL    HW147001   2.428   3.311   2.725 -0.5185  0.8212  1.0617
14968SOL    HW247002   2.281   3.340   2.662 -0.3776  0.3733  0.5235
14970SOL     OW47003   7.678   9.509   0.217 -0.7320 -0.1413 -0.0469
14970SOL    HW147004   7.654   9.585   0.277 -1.6485 -0.7426  0.3734
14970SOL    HW247005   7.714   9.543   0.131 -0.0644  0.7459  0.5762
14971SOL     OW47006   1.547   5.821   0.583  0.2021 -0.4585 -0.1884
14971SOL    HW147007   1.530   5.828   0.681  1.9825 -0.5661  0.1287
14971SOL    HW247008   1.614   5.890   0.555  0.5837 -1.1915 -1.1129
14972SOL     OW47009   4.619   8.920   4.119  0.4785  0.0761 -0.1508
14972SOL    HW147010   4.581   8.829   4.102 -0.4962  0.2040  1.2814
14972SOL    HW247011   4.544   8.986   4.129  1.1787  1.0319 -1.0805
14973SOL     OW47012   4.721   7.706   4.319 -0.1515 -1.0273 -0.1832
14973SOL    HW147013   4.648   7.685   4.254 -0.2712 -1.1006 -0.0259
14973SOL    HW247014   4.763   7.794   4.295 -0.8863 -0.5493  0.2448
14974SOL     OW47015   8.495   3.705   3.355  0.0517 -0.3722 -0.2977
14974SOL    HW147016   8.512   3.607   3.350  1.2099 -0.2772  1.3441
14974SOL    HW247017   8.568   3.749   3.407 -0.5320  1.3405 -0.8924
14976SOL     OW47018   6.945   8.791   2.556 -0.3088 -0.2295 -0.0986
14976SOL    HW147019   7.037   8.771   2.592 -0.2299  0.4399  0.0795
14976SOL    HW247020   6.902   8.707   2.525  0.5348 -0.4930 -0.5635
14977SOL     OW47021   8.838   3.788   3.065 -0.1917  0.5430 -0.5685
14977SOL    HW147022   8.768   3.852   3.034 -0.4407  0.6244  0.1446
14977SOL    HW247023   8.856   3.804   3.162  1.3399  1.0075 -0.9202
14978SOL     OW47024   0.668   9.765   2.910 -0.3438  0.2489 -0.0142
14978SOL    HW147025   0.630   9.681   2.871 -0.1329  0.4477 -0.6474
14978SOL    HW247026   0.709   9.820   2.837 -0.2999  0.8047  0.4307
14979SOL     OW47027   9.187   2.169   2.448 -0.0877 -0.0484  0.5604
14979SOL    HW147028   9.270   2.185   2.395 -1.6956 -0.0142 -2.0495
14979SOL    HW247029   9.204   2.188   2.545  2.7014  0.6891 -0.0445
14982SOL     OW47030   5.814   4.482   0.959 -0.6323  0.6641 -0.2962
14982SOL    HW147031   5.795   4.400   0.906  0.2508  1.0675 -1.2649
14982SOL    HW247032   5.783   4.469   1.053 -2.8312  0.1898 -1.0529
14983SOL     OW47033   0.753   1.687   0.026 -0.0973 -0.2462  0.2391
14983SOL    HW147034   0.850   1.708   0.012 -0.1976  0.1819  0.1580
14983SOL    HW247035   0.710   1.668  -0.063 -0.2029  0.0960  0.2140
14984SOL     OW47036   7.985   2.004   3.987  0.2178  0.5731 -0.2694
14984SOL    HW147037   7.944   1.959   4.066  2.1348  0.3941  0.6274
14984SOL    HW247038   7.996   1.938   3.913  0.0622  0.3235 -0.0703
14985SOL     OW47039   6.872   5.060   0.020 -0.5643  0.4778  0.1771
14985SOL    HW147040   6.961   5.100   0.045  0.1162  0.6896 -2.4127
14985SOL    HW247041   6.808   5.133  -0.002  0.3521  0.2811 -3.4793
14986SOL     OW47042   9.281   0.077   4.589  0.0658  0.5747 -0.7441
14986SOL    HW147043   9.350   0.038   4.649  1.0269  0.6387 -1.7983
14986SOL    HW247044   9.301   0.174   4.574 -1.2205  1.0233  0.3090
14988SOL     OW47045   7.996   4.434   0.661  0.6021 -0.0172  0.3212
14988SOL    HW147046   8.018   4.514   0.606 -0.0726  1.3145  1.9220
14988SOL    HW247047   8.062   4.425   0.735  0.3630 -0.6344  0.4647
14989SOL     OW47048   9.061   3.919   4.692 -1.0250 -0.7286 -0.3183
14989SOL    HW147049   8.995   3.850   4.661 -0.0814 -1.5096 -0.6102
14989SOL    HW247050   9.022   3.970   4.769 -2.7703  0.1957 -1.7879
14990SOL     OW47051   9.228   8.474   2.027 -0.4430  0.1010  1.0772
14990SOL    HW147052   9.185   8.513   2.109 -0.5722 -2.3406  2.2313
14990SOL    HW247053   9.159   8.461   1.956 -0.5231  1.3154  0.9299
14994SOL     OW47054   3.410   7.380   3.200  0.2200  0.2396 -0.1148
14994SOL    HW147055   3.394   7.412   3.107 -0.7141 -1.2832 -0.4795
14994SOL    HW247056   3.505   7.349   3.209  0.7353  1.7282 -0.1399
14995SOL     OW47057   1.168   0.353   1.563  0.2136 -0.1591  0.0595
14995SOL    HW147058   1.220   0.317   1.640  0.1680  0.1430  0.2331
14995SOL    HW247059   1.180   0.293   1.483 -1.4024 -1.6174  0.8839
14996SOL     OW47060   3.884   4.048   1.653  0.2770  0.1301 -0.1015
14996SOL    HW147061   3.858   3.965   1.604 -0.9241  0.6669 -0.3872
14996SOL    HW247062   3.978   4.073   1.629  0.8732 -1.4790  0.4605
14998SOL     OW47063   8.871   1.777   3.593 -0.0418  0.3720  0.4843
14998SOL    HW147064   8.964   1.778   3.558 -0.1169 -1.3560  0.2052
14998SOL    HW247065   8.867   1.829   3.679  1.3496 -0.2312  0.9333
14999SOL     OW47066   0.249   3.819   4.360 -0.1076  0.3377  0.5462
14999SOL    HW147067   0.334   3.865   4.386 -0.1299  0.2317  0.8119
14999SOL    HW247068   0.266   3.721   4.346 -0.1074  0.3849  0.2156
15000SOL     OW47069   4.026   4.740   2.618  0.9345  0.3251  0.3279
15000SOL    HW147070   4.043   4.757   2.521  0.0664  3.5742  0.6784
15000SOL    HW247071   4.088   4.670   2.652  1.0293 -1.0766 -2.6408
15001SOL     OW47072   7.552   7.509   3.395  0.2060 -0.0686 -0.2899
15001SOL    HW147073   7.581   7.414   3.406  0.0797 -0.0848 -0.0896
15001SOL    HW247074   7.574   7.561   3.477  0.4668  0.1263 -0.4824
15003SOL     OW47075   2.400   8.570   3.343  0.3289 -0.1828  0.7917
15003SOL    HW147076   2.413   8.656   3.392 -1.2089  0.6854 -0.3201
15003SOL    HW247077   2.314   8.527   3.371 -0.3408  0.0904 -0.7865
15004SOL     OW47078   9.863   8.917   3.160  0.3282 -0.5196  0.7130
15004SOL    HW147079   9.803   8.865   3.221  0.9112 -2.9069 -0.6452
15004SOL    HW247080   9.948   8.941   3.207  0.8209 -2.4381  0.8449
15005SOL     OW47081   1.787   1.481   1.796 -0.4287 -0.0204  0.0203
15005SOL    HW147082   1.856   1.455   1.729  0.0219  1.2834 -0.0369
15005SOL    HW247083   1.726   1.550   1.756 -0.3532  0.5312  0.8474
15007SOL     OW47084   8.643   3.108   3.184 -0.2959 -0.3202  0.0707
15007SOL    HW147085   8.743   3.102   3.187 -0.2542  0.2695 -0.1068
15007SOL    HW247086   8.604   3.039   3.246  0.2627  1.1326  2.0931
15009SOL     OW47087   7.981   0.209   2.279  0.0138  0.2748  0.2860
15009SOL    HW147088   8.076   0.223   2.307 -0.0954 -1.8846  1.9123
15009SOL    HW247089   7.925   0.190   2.360 -1.0623 -2.2717 -1.0107
15010SOL     OW47090   8.918   7.124   0.530 -0.1521  0.0023 -0.0712
15010SOL    HW147091   8.875   7.068   0.600 -2.6346 -1.1121 -2.4205
15010SOL    HW247092   8.984   7.069   0.478  1.1074  0.6164  0.8590
15011SOL     OW47093   0.313   5.246   1.313  1.1950 -0.6271 -0.2444
15011SOL    HW147094   0.297   5.339   1.278  0.5361 -0.4374  0.5535
15011SOL    HW247095   0.363   5.252   1.399 -1.0491 -0.8843  1.1137
15013SOL     OW47096   0.887   8.957   5.156  0.5325 -0.0036 -0.9759
15013SOL    HW147097   0.857   8.927   5.065  0.2515  0.1127 -0.9199
15013SOL    HW247098   0.808   8.985   5.210  0.6751 -0.3408 -0.5975
15014SOL     OW47099   3.591   2.200   0.398  0.3802 -0.3756  0.3955
15014SOL    HW147100   3.559   2.273   0.458 -2.1700 -0.8707 -0.3007
15014SOL    HW247101   3.680   2.168   0.429 -0.0988  0.5636  2.8710
15015SOL     OW47102   2.731   3.210   4.013 -0.0480 -0.1196  0.3012
15015SOL    HW147103   2.638   3.242   3.999 -0.3641 -0.8489  0.7101
15015SOL    HW247104   2.737   3.162   4.101  0.0160 -2.5867 -0.9902
15017SOL     OW47105   4.057   4.965   0.221  0.1361  1.1628  0.0360
15017SOL    HW147106   4.021   4.912   0.144  0.4538  0.2079  0.5409
15017SOL    HW247107   4.113   5.040   0.186 -0.5217  1.3257 -0.6904
15018SOL     OW47108   4.775   4.949   3.648 -0.0571  0.0898  0.3232
15018SOL    HW147109   4.805   4.898   3.568 -0.5953  0.6069 -0.2156
15018SOL    HW247110   4.738   4.886   3.716 -0.3729 -0.2748 -0.1848
15019SOL     OW47111   1.218   5.811   3.564 -0.0076 -0.4430 -0.2071
15019SOL    HW147112   1.140   5.796   3.504 -0.3658 -2.0935  0.6572
15019SOL    HW247113   1.286   5.867   3.516  0.3635 -2.9047 -2.7184
15020SOL     OW47114   1.761   9.664   3.255 -0.6141  0.5349 -0.2067
15020SOL    HW147115   1.810   9.733   3.308  0.3146 -0.5596  0.3876
15020SOL    HW247116   1.825   9.617   3.194 -0.9489 -0.7395  0.4034
15021SOL     OW47117   5.945   4.136   0.104  0.5431 -0.4745 -0.0745
15021SOL    HW147118   5.863   4.094   0.143  0.8938 -2.1912 -1.1101
15021SOL    HW247119   6.004   4.167   0.178 -0.4729 -0.3512  0.6994
15023SOL     OW47120   0.421   9.120   4.788 -0.1508  0.0493 -1.0073
15023SOL    HW147121   0.462   9.158   4.871  2.5508 -1.4560 -1.5908
15023SOL    HW247122   0.445   9.023   4.780 -1.4165 -0.1316 -2.9331
15024SOL     OW47123   3.586   0.418   2.212 -0.4272  0.1512  0.1366
15024SOL    HW147124   3.672   0.399   2.163  0.0116  1.0813  0.5469
15024SOL    HW247125   3.509   0.394   2.153  0.1024 -1.9209  0.2439
15025SOL     OW47126   3.455   1.526   3.672 -0.4913  0.2752  0.7552
15025SOL    HW147127   3.451   1.427   3.688  0.4887  0.1767  0.3885
15025SOL    HW247128   3.364   1.565   3.686 -0.7666 -0.5939  1.4368
15027SOL     OW47129   4.070   0.628   1.183 -0.6048  0.2064  0.5499
15027SOL    HW147130   3.992   0.577   1.220 -1.0555  1.5178  1.4483
15027SOL    HW247131   4.153   0.600   1.230 -0.3357 -1.9464 -1.1169
15028SOL     OW47132   1.080   4.793   4.143  0.2267 -0.5401  0.0382
15028SOL    HW147133   1.017   4.795   4.065 -0.1687 -0.1722  0.3675
15028SOL    HW247134   1.099   4.887   4.172  2.4855 -0.5316 -1.3160
15029SOL     OW47135   3.884   5.005   1.600  0.0432 -0.0434  0.4452
15029SOL    HW147136   3.929   4.942   1.536  0.2878  0.3326  0.2438
15029SOL    HW247137   3.946   5.023   1.676  0.6311  1.2356 -0.3134
15030SOL     OW47138   2.639   2.606   2.116  0.2613 -0.0937 -0.9729
15030SOL    HW147139   2.547   2.590   2.080 -0.0616 -0.0584 -0.1868
15030SOL    HW247140   2.683   2.679   2.064 -0.3195  0.1854 -1.0808
15031SOL     OW47141   4.052   4.978   4.668  0.2332  0.5456 -0.1186
15031SOL    HW147142   4.065   5.009   4.574  0.0298  0.1255 -0.2882
15031SOL    HW247143   4.094   5.043   4.731 -0.5386  1.3647 -0.4392
15032SOL     OW47144   7.084   0.171   1.180  0.3580  0.1997 -0.7013
15032SOL    HW147145   7.151   0.143   1.249  0.2512  0.8527 -0.3253
15032SOL    HW247146   6.992   0.163   1.218  0.3228  0.9722 -0.6223
15033SOL     OW47147   3.280   6.822   0.388 -0.1524 -0.4300  0.0420
15033SOL    HW147148   3.351   6.787   0.450  0.4749 -0.2449 -0.5576
15033SOL    HW247149   3.243   6.907   0.426  0.0803 -0.4257  0.2712
15034SOL     OW47150   6.930   1.494   4.328  0.4326  0.0816  0.4616
15034SOL    HW147151   6.985   1.487   4.245 -0.0017 -1.8970  0.3151
15034SOL    HW247152   6.848   1.547   4.309  1.1124  1.0124  0.0622
15035SOL     OW47153   1.306   9.974   0.624 -0.0402  0.3352  0.5223
15035SOL    HW147154   1.225  10.011   0.668 -1.3287 -1.2305 -0.4769
15035SOL    HW247155   1.313   9.876   0.643  0.4113  0.0119 -1.1833
15036SOL     OW47156   2.932   4.242   1.128 -0.3862  0.0428 -0.1334
15036SOL    HW147157   3.025   4.273   1.142  0.3580 -0.7497 -2.9382
15036SOL    HW247158   2.886   4.302   1.063 -1.2984 -0.5049 -0.0098
15037SOL     OW47159   4.355   6.795   1.641 -0.0396  0.6491  0.6859
15037SOL    HW147160   4.365   6.883   1.593 -0.3154  0.2300 -0.1600
15037SOL    HW247161   4.437   6.776   1.694  0.5754  0.7839 -0.2126
15038SOL     OW47162   3.214   5.973   0.660 -0.0755  0.1511  0.2529
15038SOL    HW147163   3.225   5.895   0.722  0.1273 -0.3157 -0.3641
15038SOL    HW247164   3.180   6.052   0.712 -1.6018 -0.7273  0.6219
15039SOL     OW47165   0.041   1.939   1.969  0.1433 -0.1838 -0.1878
15039SOL    HW147166   0.070   1.904   1.879 -1.4420  1.5530 -1.4089
15039SOL    HW247167  -0.054   1.912   1.986 -0.9205  2.9539 -0.8976
15041SOL     OW47168   3.512   7.370   4.039 -0.2781  0.4405 -0.0314
15041SOL    HW147169   3.483   7.394   4.131 -1.8189 -0.2520 -0.3190
15041SOL    HW247170   3.435   7.381   3.976  0.6327  0.4627 -1.1636
15042SOL     OW47171   4.325   7.692   2.948 -0.2362  0.2440 -0.0486
15042SOL    HW147172   4.288   7.765   3.005 -1.6827 -0.4154 -0.1387
15042SOL    HW247173   4.313   7.715   2.851 -0.2852  0.0855 -0.0801
15043SOL     OW47174   9.386   1.356   1.145 -0.1317  0.1595 -0.1403
15043SOL    HW147175   9.315   1.425   1.131 -1.0515 -0.3495  1.7865
15043SOL    HW247176   9.343   1.269   1.167  1.0925 -0.0615  1.4364
15044SOL     OW47177   7.219   0.477   3.112  0.0622  0.2054 -0.2567
15044SOL    HW147178   7.143   0.528   3.073  1.0082  1.1617 -0.8729
15044SOL    HW247179   7.216   0.482   3.211 -2.4650 -2.3781 -0.1329
15045SOL     OW47180   1.015   2.710   2.397  0.1352 -0.2643  0.2384
15045SOL    HW147181   1.091   2.692   2.335  0.4504 -1.1399  0.8541
15045SOL    HW247182   0.992   2.626   2.447 -1.8413 -0.2567 -0.5928
15047SOL     OW47183   2.724   6.443   2.498 -0.6651  0.0538  0.1958
15047SOL    HW147184   2.738   6.442   2.399  0.1783 -1.0265  0.3118
15047SOL    HW247185   2.664   6.518   2.523 -1.1460  0.1309 -1.1769
15048SOL     OW47186   5.686   1.255   3.177 -0.4957  0.3707 -0.4933
15048SOL    HW147187   5.685   1.307   3.092  0.3673  1.3704  0.0981
15048SOL    HW247188   5.683   1.157   3.156  0.0330  0.5993 -1.6820
15049SOL     OW47189   3.813   8.178   3.809  0.3005 -0.2694 -0.6798
15049SOL    HW147190   3.820   8.276   3.787  1.0578  0.0443  0.8999
15049SOL    HW247191   3.863   8.125   3.741 -0.4310  0.4057 -1.7656
15050SOL     OW47192   3.688   9.273   3.198 -0.3880 -0.3783 -0.0345
15050SOL    HW147193   3.735   9.237   3.278  1.6962 -0.0055 -1.0531
15050SOL    HW247194   3.717   9.222   3.117 -0.8993  0.5946 -0.8405
15051SOL     OW47195   0.599   1.120   5.249 -0.1887  0.2759 -0.3077
15051SOL    HW147196   0.520   1.068   5.283 -0.3813  0.5044 -0.4000
15051SOL    HW247197   0.601   1.118   5.149  0.2117 -0.1517 -0.2892
15052SOL     OW47198   1.248   9.796   4.757  0.4283 -0.6705  0.2293
15052SOL    HW147199   1.306   9.810   4.837  1.0930 -0.2831 -0.3097
15052SOL    HW247200   1.156   9.829   4.776  1.1837  1.6519  0.0477
15054SOL     OW47201   4.063   3.466   3.907 -0.4570 -0.5096  0.0822
15054SOL    HW147202   3.987   3.403   3.922 -1.0873  0.0095 -0.8699
15054SOL    HW247203   4.087   3.510   3.993 -3.1023  1.3974 -0.0736
15057SOL     OW47204   3.767   0.478   3.225 -0.0851 -0.0384  0.9647
15057SOL    HW147205   3.747   0.489   3.322 -0.5340 -0.2982  0.9033
15057SOL    HW247206   3.681   0.470   3.174  0.1743 -2.7899  0.8849
15058SOL     OW47207   8.100   4.174   5.060  0.2924 -0.1387 -0.3208
15058SOL    HW147208   8.044   4.238   5.113 -0.6291 -1.7155  0.6705
15058SOL    HW247209   8.118   4.212   4.969  1.0096  2.1464  0.7623
15063SOL     OW47210   1.176   8.496   4.033  0.1345  0.3795 -0.3450
15063SOL    HW147211   1.204   8.575   4.087 -0.0064  0.6900 -0.7216
15063SOL    HW247212   1.209   8.507   3.939 -1.2296  0.7393 -0.7879
15064SOL     OW47213   8.015   9.365   4.993 -0.6920 -0.0059 -0.3296
15064SOL    HW147214   8.041   9.459   5.017 -1.1830  0.2610 -0.8098
15064SOL    HW247215   8.026   9.306   5.072  1.0193  0.1646 -0.4240
15065SOL     OW47216   3.778   3.625   3.956 -0.0598 -0.1531  0.3652
15065SOL    HW147217   3.830   3.667   4.030 -0.3081  0.4669  0.1850
15065SOL    HW247218   3.777   3.686   3.877 -2.8136  0.7754  1.0620
15066SOL     OW47219   0.532   5.717   3.308 -0.3258 -0.3297 -0.3304
15066SOL    HW147220   0.560   5.792   3.248 -1.7502  0.2028 -0.3396
15066SOL    HW247221   0.433   5.721   3.323  0.0771 -0.1725  2.4501
15067SOL     OW47222   4.532   8.950   0.388 -0.0168  0.0059  0.5500
15067SOL    HW147223   4.559   9.030   0.334  0.2131  1.1813  2.3707
15067SOL    HW247224   4.453   8.906   0.345 -0.2646  1.3191 -0.3631
15068SOL     OW47225   0.201   0.493   3.411 -0.3147 -0.0836  0.1027
15068SOL    HW147226   0.279   0.551   3.433  0.5323 -0.6267 -1.3832
15068SOL    HW247227   0.116   0.547   3.417  0.3140  0.8946  0.2617
15069SOL     OW47228   3.650   2.730   4.046 -0.0826 -0.3077  0.3982
15069SOL    HW147229   3.613   2.660   3.985 -0.4955 -0.5525  0.9315
15069SOL    HW247230   3.720   2.689   4.105  0.6084  0.0170 -0.1744
15070SOL     OW47231   3.943   7.615   1.907 -0.1127  0.7338 -0.0496
15070SOL    HW147232   3.992   7.551   1.967 -0.4238  0.9572  0.4437
15070SOL    HW247233   3.847   7.590   1.904 -0.1107  0.7641 -0.4107
15072SOL     OW47234   7.657   0.871   0.197  0.3746  0.4505  0.1693
15072SOL    HW147235   7.730   0.870   0.128  2.0980  2.2250  1.8935
15072SOL    HW247236   7.697   0.849   0.286 -1.5979 -0.5940  0.8109
15073SOL     OW47237   0.909   1.898   1.962  0.1909  0.5390  0.0298
15073SOL    HW147238   0.976   1.911   2.034 -0.4774  1.9939  0.3974
15073SOL    HW247239   0.830   1.848   1.998 -0.0578  1.0973  0.2626
15074SOL     OW47240   3.999   0.049   2.700  0.9410  0.5624 -0.0283
15074SOL    HW147241   3.948   0.106   2.637  0.6778  0.2967 -0.0550
15074SOL    HW247242   3.938  -0.018   2.742  1.1366  0.6592  0.4158
15076SOL     OW47243   8.312   9.566   2.869 -0.3285  0.0073  0.0426
15076SOL    HW147244   8.406   9.578   2.837 -0.4549  0.0475 -0.3124
15076SOL    HW247245   8.263   9.653   2.861 -0.2795  0.0932  0.6156
15077SOL     OW47246   2.819   6.883   5.185 -0.6023  0.1471  0.4100
15077SOL    HW147247   2.905   6.911   5.229 -0.1532  1.7928 -1.4583
15077SOL    HW247248   2.831   6.793   5.144  0.3007  0.4415  0.0037
15078SOL     OW47249   2.553   4.529   4.799  0.4026  0.3319  0.1370
15078SOL    HW147250   2.617   4.476   4.745 -0.2257 -0.9085  0.5943
15078SOL    HW247251   2.510   4.599   4.741 -2.3196 -2.7567 -1.7125
15079SOL     OW47252   7.971   3.953   2.801 -0.6062  0.6907 -0.0174
15079SOL    HW147253   8.043   3.964   2.870 -0.9997 -0.7036  0.6576
15079SOL    HW247254   7.965   4.034   2.744 -0.6684  2.1358  1.9966
15080SOL     OW47255   5.600   9.421   3.996  0.2565  0.1017 -0.8746
15080SOL    HW147256   5.598   9.341   3.935 -4.1626 -0.1431 -0.5582
15080SOL    HW247257   5.532   9.488   3.965  0.6050  1.6457  1.6046
15081SOL     OW47258   4.026   3.281   1.669  0.0711  0.4149 -0.6561
15081SOL    HW147259   3.995   3.203   1.616  0.1139 -0.3621  0.4427
15081SOL    HW247260   4.059   3.250   1.758  1.1603  1.5555 -0.6395
15082SOL     OW47261   5.754   1.015   1.113  0.1172 -0.1042  0.2936
15082SOL    HW147262   5.793   0.952   1.180  0.2823 -1.5138 -1.0911
15082SOL    HW247263   5.773   1.109   1.140  0.6929 -0.6711  1.9050
15083SOL     OW47264   7.522   1.829   1.067  0.0828  0.0441 -0.0109
15083SOL    HW147265   7.565   1.738   1.064 -0.6325 -0.2973  0.1021
15083SOL    HW247266   7.574   1.892   1.009 -0.0656 -0.7150 -0.9687
15084SOL     OW47267   7.920   5.748   0.527  0.4614  1.1748  0.4150
15084SOL    HW147268   7.862   5.688   0.582 -0.4414  1.7296  0.0751
15084SOL    HW247269   7.957   5.820   0.585  1.8029  0.1202  0.8926
15085SOL     OW47270   4.724   2.652   4.819 -0.0710  0.4203  0.0893
15085SOL    HW147271   4.748   2.680   4.726  1.0260  0.5271  0.3997
15085SOL    HW247272   4.666   2.571   4.815  0.3690  0.1336 -0.6771
15086SOL     OW47273   0.483   3.150   0.262  0.1518  0.1923  0.4561
15086SOL    HW147274   0.530   3.102   0.336  2.7248  1.1709 -0.4975
15086SOL    HW247275   0.446   3.084   0.197  0.1908 -0.5909  1.2140
15087SOL     OW47276   1.389   2.787   2.499 -0.4345  0.1119  0.2616
15087SOL    HW147277   1.353   2.800   2.591  2.1570 -2.0704  1.6252
15087SOL    HW247278   1.360   2.699   2.463 -1.0264  0.7421 -0.8681
15088SOL     OW47279   5.950   1.341   0.651 -0.2414  0.2651 -0.2538
15088SOL    HW147280   5.881   1.318   0.721 -0.3373  0.6863 -0.2093
15088SOL    HW247281   5.968   1.439   0.653 -0.4590  0.3268 -1.0151
15089SOL     OW47282   2.310   9.991   4.530  0.1332  0.2346  0.1956
15089SOL    HW147283   2.307   9.913   4.467  2.7990 -0.5504  0.9670
15089SOL    HW247284   2.232   9.988   4.592 -0.2374 -1.3384 -0.3386
15090SOL     OW47285   9.545   1.976   1.594 -0.6088  0.1406  0.2683
15090SOL    HW147286   9.562   2.065   1.552  0.6180  0.1771  0.8426
15090SOL    HW247287   9.592   1.905   1.543  0.0933  0.0680  1.0114
15091SOL     OW47288   6.035   7.789   4.694 -0.0499  0.1655  0.0367
15091SOL    HW147289   5.993   7.702   4.671 -0.0190 -0.2284  1.4336
15091SOL    HW247290   5.998   7.823   4.780  0.9366  0.8546  0.2062
15092SOL     OW47291   2.475   4.126   2.798 -0.3735 -0.0718  0.0144
15092SOL    HW147292   2.572   4.101   2.787 -0.7974 -1.1897 -1.4208
15092SOL    HW247293   2.426   4.051   2.843 -0.4958  0.6834  1.1596
15093SOL     OW47294   3.733   0.194   1.932  0.1191  0.2920  0.0047
15093SOL    HW147295   3.693   0.246   1.856 -1.0991 -0.2081  0.2816
15093SOL    HW247296   3.792   0.123   1.895 -0.3426  0.1513 -0.4841
15095SOL     OW47297   8.013   0.147   1.908 -0.2003  0.9476 -0.1567
15095SOL    HW147298   7.955   0.114   1.982  0.9347  2.5483  1.4891
15095SOL    HW247299   8.002   0.088   1.828 -1.2170 -0.9810  1.3712
15097SOL     OW47300   3.670   0.993   2.633 -0.4447  0.7432 -0.3854
15097SOL    HW147301   3.682   0.991   2.732 -0.8007  3.1854 -0.2452
15097SOL    HW247302   3.753   1.027   2.590 -0.8037  1.1180 -0.7956
15098SOL     OW47303   3.976   5.676   4.840 -0.0528 -0.1081  0.3425
15098SOL    HW147304   3.952   5.591   4.886 -0.5511  0.1931  0.6375
15098SOL    HW247305   3.897   5.737   4.837 -0.3536 -0.5493 -1.8990
15099SOL     OW47306   8.354   1.438   1.661  0.1453  0.1039  0.0068
15099SOL    HW147307   8.271   1.485   1.692 -0.2020 -0.6696  0.2433
15099SOL    HW247308   8.388   1.378   1.733  2.5516  2.5641  1.0025
15103SOL     OW47309   1.269   8.917   0.726  0.2478  0.0606  0.2663
15103SOL    HW147310   1.313   9.004   0.748  0.7691 -0.4412  1.2591
15103SOL    HW247311   1.258   8.863   0.810  0.1927 -0.9487 -0.3769
15104SOL     OW47312   9.541   7.916   3.575 -0.1931  0.3119 -0.1462
15104SOL    HW147313   9.638   7.913   3.601 -0.3625 -2.4243  0.2761
15104SOL    HW247314   9.485   7.902   3.656 -0.8690 -1.2769 -0.8812
15106SOL     OW47315   2.429   8.470   2.494 -0.1887  0.0641 -0.1359
15106SOL    HW147316   2.352   8.531   2.507 -0.9988 -0.8570 -0.5321
15106SOL    HW247317   2.500   8.516   2.440 -1.2295  0.2874 -1.3254
15107SOL     OW47318   4.976   8.598   3.440 -0.5155  0.5023  0.0602
15107SOL    HW147319   4.952   8.626   3.347 -0.1528 -1.2173 -0.5541
15107SOL    HW247320   5.062   8.548   3.439 -2.2942 -2.7122  0.7851
15108SOL     OW47321   3.486   9.087   1.285  0.0961  0.0981  0.4075
15108SOL    HW147322   3.455   9.018   1.220  1.8329 -0.2006 -0.1398
15108SOL    HW247323   3.476   9.178   1.244  1.1514 -0.0858 -0.2703
15109SOL     OW47324   4.327   5.795   2.484 -0.9704 -0.4065  0.1022
15109SOL    HW147325   4.373   5.718   2.439  0.8487  0.1466  0.9574
15109SOL    HW247326   4.318   5.871   2.419  0.8174  0.0647  0.3833
15110SOL     OW47327   1.600   3.584   2.286 -0.4450  0.2825 -0.2773
15110SOL    HW147328   1.677   3.525   2.311 -1.1694 -0.5990 -0.1288
15110SOL    HW247329   1.632   3.679   2.282  0.3852  0.0743  0.9788
15111SOL     OW47330   8.851   4.006   1.809  0.1810 -0.3250  0.3189
15111SOL    HW147331   8.858   3.998   1.908  1.6492  1.5484  0.4076
15111SOL    HW247332   8.791   4.083   1.786  1.5338  0.6044 -0.1908
15112SOL     OW47333   5.915   9.207   3.415  0.3029  0.0412 -0.3228
15112SOL    HW147334   5.888   9.222   3.320  0.3000 -1.4590 -0.5663
15112SOL    HW247335   6.010   9.235   3.428  0.4749 -0.2600 -0.9038
15113SOL     OW47336   9.767   4.860   4.993  0.1664 -0.2402 -0.3730
15113SOL    HW147337   9.778   4.949   4.948  1.2793 -1.5034 -2.6652
15113SOL    HW247338   9.857   4.816   5.001 -0.6176 -2.0096 -1.0730
15114SOL     OW47339   3.735   5.244   5.150  0.3851  0.4837 -0.1650
15114SOL    HW147340   3.757   5.311   5.221  0.5786  1.4207 -1.0937
15114SOL    HW247341   3.776   5.273   5.063 -1.0474  0.0958 -0.9904
15115SOL     OW47342   9.884   9.329   4.097  0.0095  0.2058  0.0130
15115SOL    HW147343   9.908   9.305   4.003  1.3473  1.0347  0.1383
15115SOL    HW247344   9.784   9.330   4.106 -0.1342  0.2576 -1.4301
15116SOL     OW47345   5.457   3.904   1.158  0.0762 -0.3351 -0.1440
15116SOL    HW147346   5.444   3.993   1.203  0.0606 -0.6608  0.5054
15116SOL    HW247347   5.460   3.832   1.228 -2.3816 -1.1382 -0.8191
15118SOL     OW47348   1.167   0.065   3.294 -0.1484 -0.2848 -0.3204
15118SOL    HW147349   1.188   0.001   3.220  1.6877  0.9797 -0.9477
15118SOL    HW247350   1.193   0.157   3.266 -1.0642  0.4725  1.2558
15120SOL     OW47351   2.636   2.355   3.287 -0.3886 -0.2487 -0.1708
15120SOL    HW147352   2.539   2.334   3.276 -0.3100 -1.1055  0.7078
15120SOL    HW247353   2.649   2.454   3.284 -1.3474 -0.1094  0.1806
15121SOL     OW47354   1.354   8.706   3.605 -0.2799  0.1383 -0.7396
15121SOL    HW147355   1.418   8.645   3.558  0.1712  1.0369 -1.2975
15121SOL    HW247356   1.370   8.702   3.704  1.1509  0.9266 -0.9328
15122SOL     OW47357   0.741   4.070   4.422 -0.2082  0.1098 -0.6903
15122SOL    HW147358   0.657   4.016   4.429 -1.1095  1.5154 -0.3270
15122SOL    HW247359   0.779   4.060   4.330  0.1610 -1.8749 -0.3298
15123SOL     OW47360   2.794   3.249   4.894  0.9401  0.2767 -0.1462
15123SOL    HW147361   2.783   3.232   4.991  1.1222  0.7861 -0.0359
15123SOL    HW247362   2.723   3.313   4.863  1.0091  0.2776 -0.3026
15124SOL     OW47363   6.853   8.018   5.034  0.1570  0.1737 -0.0266
15124SOL    HW147364   6.944   8.006   5.075  0.3478 -1.1408 -0.7892
15124SOL    HW247365   6.858   8.087   4.962  0.1298  1.4743  1.2211
15126SOL     OW47366   9.259   6.347   4.852 -0.2655  0.0348  0.4919
15126SOL    HW147367   9.261   6.271   4.787  1.6947  0.1986  0.3155
15126SOL    HW247368   9.353   6.374   4.874 -0.9064  0.8181  2.4162
15127SOL     OW47369   1.583   7.122   0.658  0.2886  0.0122  0.3592
15127SOL    HW147370   1.558   7.114   0.754 -0.6421  3.3890  0.4528
15127SOL    HW247371   1.544   7.045   0.606 -2.1673  0.0603  2.0935
15128SOL     OW47372   2.917   3.246   0.602 -0.9675  0.4946  0.1251
15128SOL    HW147373   2.855   3.311   0.643  0.7911  2.5195 -0.3339
15128SOL    HW247374   2.987   3.220   0.669 -0.5777  0.5240 -0.2701
15129SOL     OW47375   8.457   0.592   2.382  0.7489  0.5065 -0.4399
15129SOL    HW147376   8.467   0.499   2.418 -0.1036  0.9826  1.0468
15129SOL    HW247377   8.548   0.631   2.366  1.1383  0.0802  0.6710
15130SOL     OW47378   1.710   6.671   2.196 -0.4999 -0.1975 -0.2333
15130SOL    HW147379   1.656   6.704   2.274  0.8381  0.0209  0.6251
15130SOL    HW247380   1.755   6.749   2.152  0.7622 -0.5955  0.3337
15131SOL     OW47381   9.072   3.434   3.176  0.0104  0.2901 -0.4186
15131SOL    HW147382   9.156   3.406   3.129  0.6883 -0.8287  1.3876
15131SOL    HW247383   9.089   3.520   3.225  0.7869 -0.9818  1.6391
15132SOL     OW47384   6.487   0.571   1.291  0.8061 -0.3027 -0.1497
15132SOL    HW147385   6.448   0.571   1.384  0.2444 -1.3587 -0.3763
15132SOL    HW247386   6.582   0.600   1.295  0.4800  0.6826  0.6323
15133SOL     OW47387   6.190   4.317   0.037 -0.0572  0.2900  0.2876
15133SOL    HW147388   6.137   4.287   0.117 -1.1895  1.2713 -0.0792
15133SOL    HW247389   6.165   4.260  -0.041  1.1412 -0.7504  0.6545
15134SOL     OW47390   9.268   0.470   3.913  0.1411  0.4372 -0.2843
15134SOL    HW147391   9.190   0.483   3.974  0.4284  1.0946 -0.0425
15134SOL    HW247392   9.266   0.379   3.874  0.6798 -0.4698  1.7396
15136SOL     OW47393   8.379   6.048   4.581 -0.0543 -0.4330  0.0987
15136SOL    HW147394   8.388   6.147   4.585  2.4845 -0.6264  0.4578
15136SOL    HW247395   8.375   6.012   4.675 -1.1609 -0.6583 -0.0339
15137SOL     OW47396   8.342   4.057   2.663 -0.7889  0.3156  0.3380
15137SOL    HW147397   8.274   4.000   2.617 -0.6826 -0.0752  0.6581
15137SOL    HW247398   8.297   4.132   2.711 -0.7728  1.7718 -1.8626
15139SOL     OW47399   3.388   4.323   4.987 -0.0307  0.5776  0.0028
15139SOL    HW147400   3.459   4.253   4.990 -1.5564 -0.9824  0.8388
15139SOL    HW247401   3.356   4.341   5.080 -0.1457  1.8836 -0.2816
15140SOL     OW47402   9.363   8.932   0.544 -0.0803 -0.6456 -0.1744
15140SOL    HW147403   9.457   8.931   0.579  0.4673 -0.8148 -1.5891
15140SOL    HW247404   9.299   8.913   0.618  0.9242  0.6509  1.0449
15141SOL     OW47405   9.447   8.250   3.945 -0.1003 -0.4572  0.4111
15141SOL    HW147406   9.368   8.211   3.992 -1.2862 -0.0994 -1.2496
15141SOL    HW247407   9.420   8.333   3.897  1.2337 -0.4445 -0.3378
15142SOL     OW47408   0.183   2.522   0.449  0.5755  0.3957 -0.4171
15142SOL    HW147409   0.146   2.518   0.541  0.0033 -1.9363 -0.7072
15142SOL    HW247410   0.267   2.577   0.448  0.5215  0.5151  1.4515
15143SOL     OW47411   0.739   0.649   2.204 -0.2530  0.4019 -0.4624
15143SOL    HW147412   0.838   0.658   2.189 -0.0604 -0.6976  0.1342
15143SOL    HW247413   0.718   0.555   2.231 -1.6414  0.2621 -1.9537
15144SOL     OW47414   2.744   4.454   4.609  0.0480  0.7812 -0.5053
15144SOL    HW147415   2.750   4.354   4.604 -2.1953  0.5790  0.3298
15144SOL    HW247416   2.829   4.491   4.645  0.5454 -0.9095  0.0884
15145SOL     OW47417   5.093   4.795   3.103  0.0871  0.3009  0.1858
15145SOL    HW147418   5.083   4.712   3.158  1.2760 -0.1335 -0.2496
15145SOL    HW247419   5.005   4.842   3.099 -0.9552 -1.6340 -0.6685
15146SOL     OW47420   8.545   5.898   0.348  0.1424 -0.0184 -0.1829
15146SOL    HW147421   8.641   5.875   0.330 -0.1232 -1.5579  0.2990
15146SOL    HW247422   8.533   5.914   0.446 -0.1437 -0.0693 -0.2099
15147SOL     OW47423   4.883   1.192   3.054 -0.3612 -0.1339  0.2357
15147SOL    HW147424   4.843   1.142   3.131  0.8212 -0.8456  0.3899
15147SOL    HW247425   4.963   1.243   3.085 -0.2601  0.0866 -0.3803
15148SOL     OW47426   2.651   3.927   0.235  0.3540  0.2451  0.6734
15148SOL    HW147427   2.657   4.025   0.256  0.5401  0.4910 -0.4816
15148SOL    HW247428   2.655   3.914   0.136  0.4666 -0.9486  0.8275
15149SOL     OW47429   9.057   7.362   1.537  0.9361 -0.6518  0.0186
15149SOL    HW147430   9.005   7.423   1.597  1.3553 -0.1010 -0.1763
15149SOL    HW247431   9.032   7.267   1.557 -1.8197 -0.3297 -1.6120
15151SOL     OW47432   7.683   2.624   1.919  0.1564 -0.6525  0.1276
15151SOL    HW147433   7.645   2.653   1.831  2.2878 -0.1905 -0.6703
15151SOL    HW247434   7.673   2.525   1.928  0.8441 -0.8486 -1.1085
15153SOL     OW47435   3.988   0.391   2.860 -0.0566 -0.3654 -0.3463
15153SOL    HW147436   4.028   0.325   2.923  0.7322 -1.0829 -1.5988
15153SOL    HW247437   3.957   0.471   2.912 -1.6515 -1.9811  1.2656
15154SOL     OW47438   4.888   0.372   0.681 -0.2279  0.5368 -0.1269
15154SOL    HW147439   4.804   0.384   0.734 -0.4055 -1.8581  0.2208
15154SOL    HW247440   4.966   0.367   0.743 -0.0029  1.3303 -0.3469
15155SOL     OW47441   1.337   0.896   1.805  0.0846  0.0746  0.5995
15155SOL    HW147442   1.358   0.982   1.759 -0.5974 -0.7096 -1.2686
15155SOL    HW247443   1.300   0.831   1.738  1.9405 -2.1574  1.6586
15156SOL     OW47444   9.423   4.126   1.444 -0.5876  0.5908  0.6422
15156SOL    HW147445   9.453   4.082   1.529  0.0987  0.3601  0.2766
15156SOL    HW247446   9.323   4.130   1.443 -0.5884  1.1159  1.7314
15157SOL     OW47447   5.450   0.475   5.259 -0.1355 -0.6138  0.0777
15157SOL    HW147448   5.465   0.435   5.169 -1.0482  2.8072 -1.6629
15157SOL    HW247449   5.536   0.513   5.293 -0.3814  0.5954 -0.6313
15158SOL     OW47450   2.820   7.779   5.080 -0.1343 -0.0793 -0.9070
15158SOL    HW147451   2.871   7.765   5.165 -0.3547  0.2642 -0.7169
15158SOL    HW247452   2.733   7.729   5.085 -0.6899  0.9265 -0.4377
15159SOL     OW47453   4.473   8.264   2.821 -0.1039 -0.0854 -0.0185
15159SOL    HW147454   4.561   8.266   2.773  0.3415 -0.6087  0.7600
15159SOL    HW247455   4.403   8.306   2.764  0.3507 -0.9815 -1.2568
15160SOL     OW47456   1.785   7.289   2.619  0.7168  0.3995  0.2943
15160SOL    HW147457   1.774   7.304   2.521 -0.5711  0.3613  0.4290
15160SOL    HW247458   1.758   7.372   2.669 -0.0397 -0.0750  0.6845
15161SOL     OW47459   5.005   0.999   2.031 -0.0506  0.0294  0.5205
15161SOL    HW147460   4.907   1.011   2.048  0.0782  1.6034  0.1685
15161SOL    HW247461   5.029   1.034   1.941  1.0800  0.9293  1.1479
15162SOL     OW47462   3.424   9.184   2.767  0.1734 -0.0461  0.1071
15162SOL    HW147463   3.401   9.166   2.671 -1.7932 -0.7185  0.6617
15162SOL    HW247464   3.346   9.157   2.825  1.9980 -1.3381  2.0404
15164SOL     OW47465   8.876   6.962   5.091  0.2550 -0.3892 -0.3786
15164SOL    HW147466   8.903   6.867   5.079 -0.1327 -0.5490 -0.0117
15164SOL    HW247467   8.798   6.967   5.153  1.6662  0.3306  1.3858
15165SOL     OW47468   6.755   1.388   1.352  0.0861 -0.0704  0.8188
15165SOL    HW147469   6.771   1.471   1.405 -2.1051 -0.2572  1.8396
15165SOL    HW247470   6.725   1.314   1.413 -2.8771 -0.1770 -0.6848
15167SOL     OW47471   8.621   5.456   0.193  0.3429 -0.1283  0.6772
15167SOL    HW147472   8.532   5.478   0.154  0.2912 -0.2868  0.7050
15167SOL    HW247473   8.613   5.379   0.256  0.4846 -0.0889  0.7450
15168SOL     OW47474   8.166   0.534   0.120  0.3197  0.5573  0.0294
15168SOL    HW147475   8.240   0.529   0.187  0.7847 -0.6796 -0.5589
15168SOL    HW247476   8.124   0.624   0.123  2.9302  1.8661 -0.7777
15170SOL     OW47477   7.135   2.665   3.545  0.1735 -0.7859 -0.1298
15170SOL    HW147478   7.135   2.690   3.448  1.2981 -0.4891 -0.0551
15170SOL    HW247479   7.054   2.609   3.564  0.0527 -1.0229 -1.2825
15171SOL     OW47480   9.428   6.755   3.110  0.4953 -0.3103 -0.3770
15171SOL    HW147481   9.352   6.754   3.174 -0.6407 -1.4178 -1.6956
15171SOL    HW247482   9.466   6.662   3.102  2.4180  0.3577  0.7585
15173SOL     OW47483   0.663   5.620   2.224  0.0772  0.9496 -0.7085
15173SOL    HW147484   0.576   5.573   2.231 -0.1148  1.5228  0.9615
15173SOL    HW247485   0.738   5.553   2.226 -0.2624  0.5773 -0.4631
15174SOL     OW47486   6.730   0.563   2.731  0.3115 -0.1012  0.5208
15174SOL    HW147487   6.743   0.482   2.789  1.1715  0.4140  1.0648
15174SOL    HW247488   6.793   0.634   2.760 -0.4654  0.7814  0.0595
15176SOL     OW47489   7.710   1.795   2.631  0.0317 -0.2716  0.5476
15176SOL    HW147490   7.690   1.774   2.535  2.1218  2.0054 -0.4421
15176SOL    HW247491   7.805   1.772   2.651  0.2283  1.2638  1.4599
15177SOL     OW47492   6.581   1.336   2.427  0.3284  0.4889  0.3148
15177SOL    HW147493   6.650   1.398   2.465  0.0119  0.6824  0.5773
15177SOL    HW247494   6.512   1.389   2.378  0.1728  0.3208  0.3529
15178SOL     OW47495   4.305   8.167   2.454 -0.1700 -0.1646  0.3562
15178SOL    HW147496   4.222   8.151   2.507 -0.2581  0.6574  0.4794
15178SOL    HW247497   4.383   8.126   2.501 -0.3396  0.0326  0.8172
15179SOL     OW47498   7.699   6.910   4.595 -0.0006  0.4888 -0.6345
15179SOL    HW147499   7.678   6.836   4.532  1.0811  0.2228 -0.6831
15179SOL    HW247500   7.637   6.905   4.674  0.6150 -0.9730 -0.2328
15181SOL     OW47501   7.682   9.670   2.580  0.4937 -0.0746  0.2686
15181SOL    HW147502   7.742   9.726   2.636 -1.0636  0.1265  1.7892
15181SOL    HW247503   7.594   9.716   2.568  0.1087 -1.0211 -0.6411
15183SOL     OW47504   1.473   9.462   1.011 -0.2947  0.2316 -0.5050
15183SOL    HW147505   1.404   9.392   1.028  0.8655 -0.3461  1.9630
15183SOL    HW247506   1.551   9.449   1.072  1.3882  1.7443 -2.2346
15184SOL     OW47507   0.977   3.673   3.610 -0.0670 -0.1515 -0.0140
15184SOL    HW147508   0.952   3.764   3.576 -1.0143 -0.4286 -0.0605
15184SOL    HW247509   0.894   3.619   3.625  0.4437 -0.6364  1.0508
15185SOL     OW47510   2.781   7.412   0.364  0.0635  0.1095 -0.4989
15185SOL    HW147511   2.724   7.434   0.284 -0.1492  0.7443 -0.1705
15185SOL    HW247512   2.723   7.380   0.439 -0.0488  2.3087  0.3891
15186SOL     OW47513   9.433   6.859   4.581 -1.3658  0.1160 -0.2972
15186SOL    HW147514   9.504   6.799   4.617 -2.8643 -0.7283  1.3112
15186SOL    HW247515   9.396   6.819   4.497 -1.2818 -0.4274 -0.0773
15187SOL     OW47516   9.022   3.053   1.316 -0.0534 -0.4424  0.1110
15187SOL    HW147517   9.109   3.027   1.274 -0.8707 -2.7085 -0.2457
15187SOL    HW247518   8.968   2.971   1.334 -1.8164  0.8890  1.0138
15188SOL     OW47519   8.983   3.326   0.216 -0.6091  0.2820 -0.2356
15188SOL    HW147520   8.886   3.307   0.230  0.0759 -1.3643  2.8721
15188SOL    HW247521   9.036   3.284   0.290  2.5018  0.9858 -1.9619
15190SOL     OW47522   9.267   7.266   2.664  0.2110  0.6808 -0.3516
15190SOL    HW147523   9.176   7.283   2.626  0.0931  0.0945 -0.3235
15190SOL    HW247524   9.296   7.173   2.642  0.5570  0.6720  0.1501
15191SOL     OW47525   4.974   8.962   5.257 -1.1536 -0.6531  0.5436
15191SOL    HW147526   4.919   8.892   5.303 -0.3553 -0.9602  1.0382
15191SOL    HW247527   4.951   9.052   5.294  0.2855 -1.0079  2.3550
15192SOL     OW47528   8.703   8.234   1.156 -0.2625  0.4407  0.6038
15192SOL    HW147529   8.718   8.188   1.243  1.2126 -0.4066 -0.0791
15192SOL    HW247530   8.653   8.173   1.094  0.8979  0.0772  0.0101
15193SOL     OW47531   0.028   4.605   1.480  0.2926 -0.2187 -0.4768
15193SOL    HW147532   0.035   4.627   1.578 -1.8128 -0.6954 -0.2007
15193SOL    HW247533   0.094   4.534   1.458  0.6685 -0.2381  0.6409
15194SOL     OW47534   6.043   0.111   3.251  0.0034  0.1713  0.0431
15194SOL    HW147535   5.967   0.046   3.259  1.7131 -2.1264 -1.6246
15194SOL    HW247536   6.007   0.203   3.235 -2.4348 -0.7762 -0.1317
15195SOL     OW47537   3.785   9.649   2.226 -0.3483  0.5892  0.1295
15195SOL    HW147538   3.822   9.640   2.319  2.5187  1.6875 -0.8220
15195SOL    HW247539   3.718   9.723   2.224 -0.8768  0.1566  1.4545
15196SOL     OW47540   5.364   0.761   3.415  0.3570  0.0207  0.0490
15196SOL    HW147541   5.317   0.838   3.458  1.2345  1.5670 -1.6891
15196SOL    HW247542   5.324   0.675   3.448 -2.2301  1.2503  0.2632
15197SOL     OW47543   5.133   9.638   2.438 -0.5876  0.4957 -0.1125
15197SOL    HW147544   5.177   9.549   2.427 -0.0176  0.6904  0.5255
15197SOL    HW247545   5.131   9.662   2.535  0.0995  1.5897 -0.3568
15198SOL     OW47546   1.380   0.350   2.141 -0.3482 -0.0858  0.0008
15198SOL    HW147547   1.421   0.437   2.113 -1.8559  0.1274 -1.6188
15198SOL    HW247548   1.281   0.361   2.149 -0.3721 -1.2376  1.4327
15199SOL     OW47549  10.001   9.891   3.410 -0.4090  0.2683  0.2008
15199SOL    HW147550   9.907   9.879   3.441 -1.0790 -0.4338 -2.0129
15199SOL    HW247551  10.051   9.804   3.420 -0.8059 -0.1342 -1.2322
15200SOL     OW47552   9.673   5.624   2.361  0.5368  0.0601 -0.1632
15200SOL    HW147553   9.610   5.595   2.433  0.5004 -0.9021 -0.5746
15200SOL    HW247554   9.656   5.570   2.278  2.0669 -0.3617 -0.2039
15201SOL     OW47555   9.391   5.049   1.668  0.1605  0.1118 -0.0780
15201SOL    HW147556   9.386   4.974   1.733  0.3337 -0.5705 -0.8453
15201SOL    HW247557   9.487   5.070   1.648  0.0993 -0.1112 -0.6068
15203SOL     OW47558   5.420   5.878   2.615 -0.0143  0.3029  0.6082
15203SOL    HW147559   5.340   5.916   2.569  1.1397  0.5878 -1.2098
15203SOL    HW247560   5.406   5.780   2.632 -1.6899  0.8256  2.4514
15205SOL     OW47561   0.871   7.289   3.612 -0.0909  0.7624 -0.0541
15205SOL    HW147562   0.934   7.213   3.630  0.0624  0.6289 -1.1421
15205SOL    HW247563   0.815   7.268   3.532 -1.4907  0.9105  0.8738
15206SOL     OW47564   7.799   2.550   1.271  0.0566 -0.3829  0.1529
15206SOL    HW147565   7.819   2.462   1.228  1.9359  0.5289 -0.8682
15206SOL    HW247566   7.883   2.590   1.306 -0.4111  2.1728 -1.5749
15208SOL     OW47567   5.427   7.368   3.773  0.2021  0.1448 -0.5202
15208SOL    HW147568   5.433   7.416   3.685  0.6515 -0.9930 -1.1260
15208SOL    HW247569   5.476   7.419   3.843  3.0233 -0.7749 -1.7654
15209SOL     OW47570   0.613   8.956   1.107  0.1058 -0.3082  0.0036
15209SOL    HW147571   0.523   8.927   1.076  0.5489 -0.3198 -1.3041
15209SOL    HW247572   0.682   8.890   1.078  1.0327  1.6165 -2.3484
15210SOL     OW47573   4.274   1.548   1.811  0.6037 -0.5561  0.9249
15210SOL    HW147574   4.336   1.626   1.817 -0.3339  0.2359  0.5439
15210SOL    HW247575   4.275   1.511   1.719  0.2175 -0.2875  0.8101
15211SOL     OW47576   2.988   3.778   0.415 -0.2450  0.0069 -0.1872
15211SOL    HW147577   3.059   3.773   0.485  0.7021  0.4889 -1.0909
15211SOL    HW247578   2.981   3.690   0.368 -0.4453 -0.1225  0.0795
15212SOL     OW47579   7.211   2.370   3.014 -0.1078 -0.0246  0.3143
15212SOL    HW147580   7.122   2.401   2.981 -1.1261 -2.1587  0.9595
15212SOL    HW247581   7.236   2.423   3.096 -1.4551 -0.3545  0.9603
15213SOL     OW47582   0.419   7.647   3.705  0.0743  0.2285  0.3907
15213SOL    HW147583   0.329   7.676   3.735 -0.6741 -0.3421 -1.2517
15213SOL    HW247584   0.432   7.550   3.728  0.4892  0.4449  1.0978
15214SOL     OW47585   7.157   1.632   4.930 -0.3935  0.4780  0.6366
15214SOL    HW147586   7.204   1.694   4.867  0.1596 -0.3540  0.2261
15214SOL    HW247587   7.116   1.557   4.878  0.9320 -0.7754  1.3523
15217SOL     OW47588   7.990   0.394   5.124  0.3201 -0.5947 -0.1669
15217SOL    HW147589   7.931   0.315   5.110 -0.3142 -0.5649  2.1392
15217SOL    HW247590   7.980   0.427   5.218  0.2103  2.5327 -1.2290
15218SOL     OW47591   9.067   1.433   4.768  0.6251  0.0515 -0.3206
15218SOL    HW147592   9.025   1.359   4.717 -0.0822  0.2050  0.0376
15218SOL    HW247593   9.006   1.463   4.841  2.1141 -0.9494  1.3787
15219SOL     OW47594   8.542   1.218   0.810  0.0986 -0.2056 -0.1447
15219SOL    HW147595   8.555   1.290   0.878 -0.4779 -0.1111 -0.1302
15219SOL    HW247596   8.630   1.192   0.772  0.3790  0.0491  0.3265
15220SOL     OW47597   4.077   9.105   2.783  0.2741 -0.1624 -0.3235
15220SOL    HW147598   4.107   9.033   2.720 -1.0284 -1.3664  0.3938
15220SOL    HW247599   4.091   9.194   2.741  0.5104 -0.8930 -1.8419
15221SOL     OW47600   3.368   2.969   0.620  0.7170 -0.2525  0.7654
15221SOL    HW147601   3.365   2.880   0.573 -0.1618 -0.7963  1.8239
15221SOL    HW247602   3.463   2.995   0.637  1.0295 -0.2740 -0.8777
15222SOL     OW47603   6.524   8.145   2.219 -1.2629 -0.4263 -0.5071
15222SOL    HW147604   6.479   8.059   2.244  0.5099 -1.0982  0.5044
15222SOL    HW247605   6.556   8.191   2.302 -0.4584  0.2304 -1.1693
15224SOL     OW47606   3.346   7.649   4.928 -0.1600  0.8749  0.0196
15224SOL    HW147607   3.437   7.631   4.963 -0.0074  1.7148  0.0610
15224SOL    HW247608   3.308   7.565   4.888  0.1612  0.2391  1.0450
15225SOL     OW47609   4.292   2.737   0.436  0.1738  0.3425  0.1100
15225SOL    HW147610   4.335   2.825   0.459  0.7325 -0.3370  1.7631
15225SOL    HW247611   4.222   2.716   0.504 -0.4127 -0.1849 -0.6510
15226SOL     OW47612   8.690   7.172   1.019  0.3836  0.5551 -0.6200
15226SOL    HW147613   8.783   7.200   1.044 -0.1482  1.3424  0.5714
15226SOL    HW247614   8.644   7.248   0.973 -0.0133  0.5500 -0.2400
15227SOL     OW47615   0.886   9.498   2.899  0.3968 -0.3284  0.0705
15227SOL    HW147616   0.893   9.566   2.971  0.4087 -0.9372  0.6526
15227SOL    HW247617   0.961   9.510   2.834  2.3548 -1.8671  1.9621
15228SOL     OW47618   3.818   9.860   3.608  0.2569 -0.4402 -0.3324
15228SOL    HW147619   3.882   9.909   3.549  0.1899 -0.9562 -0.8315
15228SOL    HW247620   3.836   9.762   3.602 -0.7608 -0.6054 -0.6810
15229SOL     OW47621   3.533   5.408   0.492 -0.4730 -0.2016 -0.2793
15229SOL    HW147622   3.518   5.449   0.582  0.2093  1.3244 -0.8387
15229SOL    HW247623   3.456   5.431   0.431  0.8346  1.9876 -1.1770
15230SOL     OW47624   7.829   4.862   4.862 -0.7287 -0.1450  0.4356
15230SOL    HW147625   7.871   4.877   4.952  1.8767 -2.5273 -0.3143
15230SOL    HW247626   7.813   4.764   4.849  0.0240  0.0508 -2.1522
15231SOL     OW47627   3.929   4.101   0.306  0.1218 -0.2426  0.1735
15231SOL    HW147628   3.894   4.188   0.343  0.9162 -0.4893  1.5461
15231SOL    HW247629   4.019   4.116   0.267  0.2045 -0.4241  0.2943
15232SOL     OW47630   4.431   5.611   2.346 -0.2454  0.1618  0.1131
15232SOL    HW147631   4.336   5.583   2.333 -1.0746  1.4578  2.9570
15232SOL    HW247632   4.488   5.571   2.274 -2.3754 -3.4379  0.3271
15233SOL     OW47633   2.975   2.797   4.856 -0.0764  0.2780  0.7011
15233SOL    HW147634   3.061   2.837   4.887  0.0773 -0.3139  1.0247
15233SOL    HW247635   2.977   2.698   4.869  0.2025 -0.0510 -1.6625
15234SOL     OW47636   0.166   9.546   1.992 -0.2435  0.1487 -0.5254
15234SOL    HW147637   0.174   9.448   2.012 -1.5864 -0.0921 -1.0655
15234SOL    HW247638   0.071   9.574   2.005 -0.3799  0.8319 -2.7419
15235SOL     OW47639   3.070   4.017   3.008 -0.0908 -0.1556 -0.0517
15235SOL    HW147640   3.086   3.975   2.918 -0.2662 -0.4941  0.0756
15235SOL    HW247641   3.131   4.095   3.019  0.6100 -0.6931 -0.0762
15237SOL     OW47642   0.924   7.973   4.813 -0.2721  0.3484  0.8089
15237SOL    HW147643   0.989   7.993   4.887  1.2125 -1.0570 -0.0805
15237SOL    HW247644   0.944   7.882   4.776 -2.2564  0.2443 -0.0243
15238SOL     OW47645   9.627   8.900   0.646  0.3205  1.0135 -0.6539
15238SOL    HW147646   9.702   8.964   0.660  1.3693 -0.5464  1.0359
15238SOL    HW247647   9.620   8.839   0.725 -2.8502  1.2551 -0.6652
15239SOL     OW47648   3.569   1.096   5.134 -0.2830  0.6333  0.1581
15239SOL    HW147649   3.573   1.169   5.066 -1.2417 -0.2859 -0.9131
15239SOL    HW247650   3.661   1.078   5.169  0.1607  1.3756 -0.5994
15240SOL     OW47651   2.836   2.501   0.226 -0.2074 -0.3210 -0.0710
15240SOL    HW147652   2.874   2.410   0.212 -1.2988 -0.5385 -1.7923
15240SOL    HW247653   2.895   2.553   0.288  1.0085 -1.8130  0.0426
15242SOL     OW47654   1.955   2.723   4.915 -0.6812 -0.3045 -0.0721
15242SOL    HW147655   1.960   2.656   4.841 -1.6530  0.1835 -0.5921
15242SOL    HW247656   1.946   2.676   5.002  1.9368 -0.9237 -0.1003
15243SOL     OW47657   7.290   0.892   4.798  0.1200 -0.0053 -0.7224
15243SOL    HW147658   7.303   0.857   4.705  1.7090 -1.2612 -0.0461
15243SOL    HW247659   7.250   0.821   4.855 -2.4378  1.2976 -0.8189
15244SOL     OW47660   9.106   8.445   5.266  0.0384 -0.6006 -0.0039
15244SOL    HW147661   9.074   8.501   5.190  2.4981 -2.7786 -2.7839
15244SOL    HW247662   9.165   8.499   5.325 -0.2414  0.6093 -0.8094
15246SOL     OW47663   2.435   3.394   3.083 -0.3531 -0.3268  0.2377
15246SOL    HW147664   2.407   3.469   3.022  0.1304 -0.7151 -0.4631
15246SOL    HW247665   2.525   3.414   3.120  0.2339 -1.0618 -0.7801
15247SOL     OW47666   1.024   7.661   2.181 -0.5021  0.5873 -0.1114
15247SOL    HW147667   0.936   7.626   2.149 -0.6351  1.1996 -0.4202
15247SOL    HW247668   1.073   7.588   2.229  0.8223 -1.1217 -3.8981
15249SOL     OW47669   3.796   0.710   4.484 -0.3289 -0.4609 -0.0018
15249SOL    HW147670   3.714   0.662   4.516 -2.0042  0.7699 -2.3201
15249SOL    HW247671   3.793   0.805   4.516 -0.1163 -0.2421 -0.6389
15250SOL     OW47672   6.731   1.706   3.664  0.1123 -1.3522 -0.4781
15250SOL    HW147673   6.679   1.634   3.618  1.2305 -2.1264 -0.5472
15250SOL    HW247674   6.762   1.673   3.753 -1.5375 -0.0603  0.6157
15251SOL     OW47675   3.639   8.963   3.718 -0.1356 -0.3341  0.5860
15251SOL    HW147676   3.624   8.934   3.624 -0.0791 -0.5864  0.6529
15251SOL    HW247677   3.562   8.934   3.775 -0.3877  0.2227  0.5315
15252SOL     OW47678   1.212   8.772   0.969 -0.4203 -0.6203  0.0382
15252SOL    HW147679   1.299   8.756   1.016 -0.2130  2.2187  0.6823
15252SOL    HW247680   1.164   8.685   0.957  0.9323 -1.7853  2.7702
15253SOL     OW47681   5.066   1.233   0.407 -0.0615 -0.0687  0.0368
15253SOL    HW147682   5.011   1.299   0.356 -2.6266 -0.5439  2.0968
15253SOL    HW247683   5.110   1.278   0.485  1.4952  0.0254 -0.8631
15254SOL     OW47684   8.673   7.498   4.235 -0.0686 -0.8020  0.7172
15254SOL    HW147685   8.752   7.486   4.294 -0.4072 -1.4731  1.0499
15254SOL    HW247686   8.590   7.474   4.286 -0.4212 -0.7715  0.1632
15255SOL     OW47687   4.529   4.140   2.518 -0.1197 -0.2836  0.4898
15255SOL    HW147688   4.552   4.052   2.476  0.3128 -1.8656  3.8601
15255SOL    HW247689   4.611   4.179   2.562 -0.9149  0.4993  1.3021
15256SOL     OW47690   5.202   1.360   0.599  0.1355 -0.5480  0.1756
15256SOL    HW147691   5.267   1.313   0.657  0.4950  0.8704  0.9596
15256SOL    HW247692   5.135   1.408   0.656 -0.9705 -1.1265 -0.6086
15258SOL     OW47693   2.040   5.115   0.920 -0.6147  0.0876  0.3848
15258SOL    HW147694   2.065   5.097   0.825 -0.7152 -0.0430  0.3821
15258SOL    HW247695   1.941   5.129   0.927 -0.7096 -0.6285  0.5743
15259SOL     OW47696   1.216   0.953   3.212  0.0087  0.2705 -0.2024
15259SOL    HW147697   1.267   1.022   3.263  0.5851  0.5196 -1.1050
15259SOL    HW247698   1.161   0.998   3.141 -0.3549 -0.1199 -0.1744
15260SOL     OW47699   3.008   9.347   2.380  0.3014  0.6532 -0.3975
15260SOL    HW147700   3.100   9.361   2.345  0.2640 -0.8091 -1.1292
15260SOL    HW247701   2.950   9.307   2.308 -1.1846  2.5166 -0.2700
15261SOL     OW47702   2.119   9.793   3.931  0.8612  0.0189 -0.5576
15261SOL    HW147703   2.022   9.796   3.956  0.9510  0.9232 -0.3035
15261SOL    HW247704   2.139   9.705   3.888  0.1138 -0.5059  0.1526
15262SOL     OW47705   9.974   9.180   4.324 -0.0385 -0.2239  0.4450
15262SOL    HW147706   9.966   9.110   4.252  3.0486  0.0586 -0.2132
15262SOL    HW247707   9.930   9.264   4.292  1.3827 -0.0679 -1.2137
15263SOL     OW47708   6.315   0.023   4.833 -0.2774  0.3047 -0.1301
15263SOL    HW147709   6.252   0.073   4.773 -2.0453 -0.1222  1.3387
15263SOL    HW247710   6.345  -0.061   4.787 -0.6892  0.5633 -0.8735
15265SOL     OW47711   2.795   2.527   3.088 -0.0495  0.2022 -0.1173
15265SOL    HW147712   2.749   2.539   3.000  0.2515 -0.5228 -0.3772
15265SOL    HW247713   2.771   2.603   3.149  0.0467  0.9139 -0.9585
15266SOL     OW47714   2.008   5.477   0.783 -0.0305  0.4397 -0.4657
15266SOL    HW147715   1.927   5.433   0.744 -1.8981  2.1622  1.3933
15266SOL    HW247716   2.021   5.446   0.877  0.8468  1.0146 -0.3950
15267SOL     OW47717   2.159   2.378   4.632  0.2831 -0.4760 -0.5571
15267SOL    HW147718   2.185   2.338   4.720  0.9653  0.6923 -0.2217
15267SOL    HW247719   2.237   2.427   4.594 -1.1340  2.2686 -0.0004
15268SOL     OW47720   2.519   0.826   2.269 -0.5084  0.0673  0.5045
15268SOL    HW147721   2.573   0.744   2.287 -0.4147  0.5226  2.4483
15268SOL    HW247722   2.427   0.800   2.239  0.1526 -0.7147 -0.8857
15269SOL     OW47723   8.171   8.630   2.217  0.1538 -0.2168 -0.0735
15269SOL    HW147724   8.141   8.686   2.294 -1.7539 -2.6992  1.0508
15269SOL    HW247725   8.248   8.573   2.245  0.2812 -0.2050 -0.3916
15270SOL     OW47726   0.596   2.466   4.036  0.6327 -0.5967 -0.1489
15270SOL    HW147727   0.644   2.483   3.949  1.1079  1.1247  0.4433
15270SOL    HW247728   0.663   2.461   4.110 -0.0714  1.4921  0.6384
15271SOL     OW47729   2.157   4.266   1.859 -0.0842 -0.3167  0.3812
15271SOL    HW147730   2.087   4.239   1.925  1.7125 -1.2135  1.9955
15271SOL    HW247731   2.181   4.362   1.873  0.7559 -0.6731  1.5213
15273SOL     OW47732   4.678   2.431   2.876 -0.0162  0.4239  0.4750
15273SOL    HW147733   4.740   2.452   2.801  0.5252  1.8869  1.3079
15273SOL    HW247734   4.659   2.514   2.928 -0.1828 -0.6093  2.1104
15276SOL     OW47735   2.546   6.000   4.937 -0.0820 -0.7454  0.4969
15276SOL    HW147736   2.477   5.928   4.939 -0.1335 -0.6713  2.1344
15276SOL    HW247737   2.629   5.966   4.892 -1.4281 -0.5798 -2.1877
15277SOL     OW47738   4.439   7.361   4.120 -0.5672  0.2165  0.1529
15277SOL    HW147739   4.369   7.293   4.097 -2.0975  2.3312 -1.6960
15277SOL    HW247740   4.526   7.335   4.080 -1.2452 -0.4375 -0.9146
15278SOL     OW47741   0.290   2.237   3.091  0.1955  0.1796  0.4696
15278SOL    HW147742   0.268   2.163   3.154  0.7477 -0.2626  0.1448
15278SOL    HW247743   0.370   2.287   3.124 -0.2571  0.7201  0.7593
15280SOL     OW47744   2.882   9.790   1.492 -0.2698 -0.5524  0.0286
15280SOL    HW147745   2.958   9.855   1.494 -1.1782  0.5161  0.2537
15280SOL    HW247746   2.855   9.768   1.586 -0.7085 -0.3672 -0.0541
15281SOL     OW47747   9.158   8.641   2.379  0.1585  0.1344 -0.7071
15281SOL    HW147748   9.256   8.654   2.365  0.5448 -1.7504  0.0960
15281SOL    HW247749   9.137   8.646   2.477 -0.4718  0.0644 -0.8369
15282SOL     OW47750   9.132   6.357   2.462 -0.0153 -0.4044  0.0953
15282SOL    HW147751   9.137   6.452   2.433 -0.0750 -0.8004 -1.2403
15282SOL    HW247752   9.213   6.308   2.429 -1.3785 -1.4904 -1.7473
15284SOL     OW47753   4.756   8.712   0.681 -0.5213 -0.7253  0.3748
15284SOL    HW147754   4.754   8.789   0.746  1.1936 -0.4024  0.0715
15284SOL    HW247755   4.792   8.744   0.593  0.4818 -1.9245  0.3378
15286SOL     OW47756   1.738   1.970   3.935 -0.7354 -0.3937 -0.2504
15286SOL    HW147757   1.774   2.051   3.981 -0.1825 -0.9372  0.2940
15286SOL    HW247758   1.638   1.974   3.936 -0.7800 -0.9267  2.0375
15287SOL     OW47759   0.950   9.044   0.028 -0.0138 -0.8167  0.0422
15287SOL    HW147760   0.977   8.957   0.068  0.9168 -0.9017 -0.7461
15287SOL    HW247761   0.997   9.057  -0.060  0.2766  0.7212  0.3966
15288SOL     OW47762   7.250   1.269   0.456 -0.4383  0.0406  0.1815
15288SOL    HW147763   7.223   1.325   0.535 -0.9570  0.2926 -0.1708
15288SOL    HW247764   7.305   1.325   0.394 -0.2579 -0.0775  0.2377
15289SOL     OW47765   0.932   8.794   0.681  0.7290  0.4850 -0.0961
15289SOL    HW147766   0.951   8.822   0.775 -0.1307 -1.1250  0.5912
15289SOL    HW247767   0.833   8.797   0.665  0.8388  0.3376 -0.8118
15290SOL     OW47768   2.867   0.125   3.565 -0.1307  0.1313 -0.2722
15290SOL    HW147769   2.802   0.059   3.603  0.7432  0.6358  2.2019
15290SOL    HW247770   2.837   0.218   3.587 -0.2474  0.4988 -1.9107
15291SOL     OW47771   3.142   3.892   4.538  0.3584 -0.4565  0.5292
15291SOL    HW147772   3.077   3.871   4.465 -0.1633 -0.3316  0.9593
15291SOL    HW247773   3.187   3.808   4.567  0.5994 -0.5004  0.0332
15292SOL     OW47774   0.523   7.735   3.351 -0.0296 -0.1408  0.2007
15292SOL    HW147775   0.566   7.816   3.312 -0.1573 -0.6184 -0.9417
15292SOL    HW247776   0.593   7.673   3.386  0.2797 -1.1067 -2.0200
15293SOL     OW47777   2.110   7.635   0.309  0.1176 -0.3590 -0.3341
15293SOL    HW147778   2.198   7.623   0.355 -0.2495  0.2590  0.5641
15293SOL    HW247779   2.105   7.727   0.269 -1.3874  0.8791  2.5326
15294SOL     OW47780   2.779   1.843   4.010 -0.0517 -0.1594  0.0823
15294SOL    HW147781   2.778   1.789   4.094  4.0049  0.2699  0.4906
15294SOL    HW247782   2.863   1.896   4.005 -1.2175  1.5541 -3.2181
15295SOL     OW47783   5.007   8.334   5.320  0.0339 -0.4272  0.4467
15295SOL    HW147784   5.032   8.424   5.286 -2.1872  0.0616  0.0460
15295SOL    HW247785   4.943   8.291   5.257  0.3436 -1.9021  1.1172
15296SOL     OW47786   4.417   9.842   4.909  0.1460  0.3561 -0.2017
15296SOL    HW147787   4.380   9.883   4.825  0.6620  1.1527 -0.0413
15296SOL    HW247788   4.354   9.858   4.985  0.7640  1.6534  0.0561
15297SOL     OW47789   7.304   9.759   3.606  0.4863 -0.2307  1.0859
15297SOL    HW147790   7.401   9.777   3.622  0.7777 -1.4703  0.7913
15297SOL    HW247791   7.272   9.688   3.669  0.2205 -1.0595  0.0562
15298SOL     OW47792   0.550   7.865   2.058  0.8981 -0.2780 -0.0367
15298SOL    HW147793   0.644   7.848   2.028  0.9918 -2.6483  1.4801
15298SOL    HW247794   0.510   7.780   2.090 -1.0554  1.1375  1.3523
15301SOL     OW47795   4.113   7.748   4.828 -0.2598  0.3491  0.3860
15301SOL    HW147796   4.078   7.663   4.787 -0.1550  1.0373 -1.1480
15301SOL    HW247797   4.172   7.725   4.906  0.5285 -1.0232 -0.5956
15302SOL     OW47798   8.360   2.042   4.926 -0.1347 -0.4183  0.1735
15302SOL    HW147799   8.357   1.943   4.921  0.6737 -0.5403  1.8372
15302SOL    HW247800   8.437   2.076   4.871 -0.6037 -0.6750 -0.6549
15303SOL     OW47801   3.051   6.829   1.919 -0.2122  0.1643 -0.0617
15303SOL    HW147802   3.085   6.895   1.852  0.8860 -0.5795 -0.2421
15303SOL    HW247803   2.957   6.852   1.943 -0.5019  0.6414 -1.5929
15305SOL     OW47804   4.263   9.053   2.986  1.0765  0.4818 -0.6069
15305SOL    HW147805   4.187   9.076   2.924  0.5232 -1.1855 -0.5839
15305SOL    HW247806   4.276   8.954   2.986  2.5679  0.6727  0.2197
15306SOL     OW47807   9.915   1.134   3.046 -0.2667 -0.2585  0.7437
15306SOL    HW147808  10.009   1.107   3.068  0.4776  0.7889 -1.0294
15306SOL    HW247809   9.858   1.052   3.035  1.4008 -1.0785 -2.2499
15308SOL     OW47810   3.050   5.258   4.768 -0.4719  0.3966  0.3167
15308SOL    HW147811   3.100   5.344   4.774  0.6734 -0.0504 -2.0808
15308SOL    HW247812   3.089   5.201   4.695  0.1400 -3.0722  3.2081
15309SOL     OW47813   3.542   4.778   1.924 -0.2485  0.3060 -0.2382
15309SOL    HW147814   3.642   4.777   1.931 -0.3110  0.6826  0.7964
15309SOL    HW247815   3.510   4.688   1.894  0.3806  0.1046 -0.3155
15310SOL     OW47816   3.807   0.984   4.056  0.1454  0.1234  0.4555
15310SOL    HW147817   3.884   1.043   4.031 -0.8839  1.4483  0.3311
15310SOL    HW247818   3.776   1.007   4.148  0.8939 -1.4996  1.1326
15311SOL     OW47819   9.883   9.382   0.735  0.4689 -0.1954  0.1092
15311SOL    HW147820   9.870   9.424   0.824 -0.1108  0.2151 -0.1690
15311SOL    HW247821   9.794   9.358   0.696  0.5926  1.4078 -1.2064
15312SOL     OW47822   1.012   1.361   0.708 -0.2028  0.5760  0.1214
15312SOL    HW147823   0.961   1.428   0.762  1.1173  1.6693  0.0490
15312SOL    HW247824   1.095   1.404   0.673 -0.1594 -0.6544 -1.2925
15314SOL     OW47825   3.804   3.414   1.272  0.3732  0.4100 -0.1360
15314SOL    HW147826   3.714   3.384   1.305  0.2575 -0.8412 -1.5082
15314SOL    HW247827   3.815   3.386   1.177  2.0583  0.9261 -0.1085
15315SOL     OW47828   1.194   4.039   3.428  0.3837 -0.0315 -0.4815
15315SOL    HW147829   1.262   4.096   3.472  0.8778 -0.5105 -0.6230
15315SOL    HW247830   1.236   3.954   3.397 -0.1733 -0.1316 -0.9786
15316SOL     OW47831   0.147   7.791   4.234 -0.1886  0.0246  0.0228
15316SOL    HW147832   0.145   7.848   4.152  3.2226 -0.1250 -0.2227
15316SOL    HW247833   0.066   7.732   4.235 -1.0425  1.0817 -2.4398
15319SOL     OW47834   4.598   6.480   2.038 -0.2864 -0.0418 -0.1872
15319SOL    HW147835   4.687   6.461   2.078 -0.2374 -0.0201 -0.2877
15319SOL    HW247836   4.609   6.514   1.945 -0.4153 -0.3956 -0.3331
15320SOL     OW47837   4.551   9.017   2.707 -0.0797  0.0563 -0.4665
15320SOL    HW147838   4.524   8.967   2.789  0.3110  1.3846  0.4857
15320SOL    HW247839   4.496   8.986   2.629 -1.6816  0.0031  0.6572
15321SOL     OW47840   1.493   4.957   0.634  0.6062  0.1653  0.1496
15321SOL    HW147841   1.412   5.011   0.660  0.5037 -0.7282  1.8054
15321SOL    HW247842   1.489   4.868   0.681  1.9139 -0.3787 -0.7656
15322SOL     OW47843   0.332   4.712   2.067  0.0238  0.2959 -0.4617
15322SOL    HW147844   0.414   4.756   2.104 -0.6713  1.1811  0.0604
15322SOL    HW247845   0.265   4.698   2.141  0.4139 -2.0672 -0.5444
15323SOL     OW47846   0.453   5.503   4.989  0.6494  0.3276  0.1273
15323SOL    HW147847   0.501   5.469   5.069  1.8991 -0.8626 -1.1023
15323SOL    HW247848   0.514   5.561   4.936  0.0612  0.5278 -0.3279
15324SOL     OW47849   5.718   2.899   3.770  0.4397  0.3539 -0.6344
15324SOL    HW147850   5.730   2.853   3.682  2.5988 -2.2982  0.9853
15324SOL    HW247851   5.802   2.947   3.794 -0.5878  2.2034 -0.5905
15325SOL     OW47852   9.016   8.878   1.545 -0.2688 -0.0165 -1.2126
15325SOL    HW147853   8.959   8.822   1.485 -0.0155 -0.8719 -0.6688
15325SOL    HW247854   8.981   8.971   1.547 -2.3936 -0.7906  0.0461
15326SOL     OW47855   8.349   6.210   1.360  0.3087 -0.6692  0.1436
15326SOL    HW147856   8.263   6.180   1.402 -0.7333  0.3028 -1.2614
15326SOL    HW247857   8.367   6.154   1.280 -0.2814  0.7014 -0.9626
15327SOL     OW47858   1.225   1.442   0.973 -0.2058  0.0737 -0.9394
15327SOL    HW147859   1.201   1.364   1.031 -1.4236  0.4090 -0.9784
15327SOL    HW247860   1.274   1.410   0.892 -0.9012 -0.6703 -1.0628
15329SOL     OW47861   7.377   2.218   3.631  0.5528  0.0435  0.3097
15329SOL    HW147862   7.407   2.176   3.545 -0.8794  0.5241 -0.4364
15329SOL    HW247863   7.320   2.153   3.681 -0.9383  0.7709 -0.4330
15330SOL     OW47864   5.308   1.936   3.363 -0.0227 -0.0949 -0.6220
15330SOL    HW147865   5.366   1.868   3.407  2.2712  0.5991 -2.4731
15330SOL    HW247866   5.278   2.003   3.431 -0.3834 -1.6179  0.7498
15332SOL     OW47867   1.383   1.136   3.356  0.2160  0.4981  0.5653
15332SOL    HW147868   1.470   1.179   3.332  0.4714  0.1451  0.8603
15332SOL    HW247869   1.398   1.068   3.427 -0.1523 -0.2525 -0.0759
15333SOL     OW47870   1.984   0.023   3.743  0.1332 -0.0409  0.0034
15333SOL    HW147871   1.953  -0.010   3.654  0.2757 -1.5513  0.5032
15333SOL    HW247872   2.030  -0.051   3.792  0.5354  0.9292  1.1120
15334SOL     OW47873   0.996   4.875   2.268  0.2207 -0.1126  0.6621
15334SOL    HW147874   0.914   4.833   2.306  0.3332 -0.1626  0.8511
15334SOL    HW247875   1.039   4.932   2.338 -0.0884  0.5443  0.3229
15336SOL     OW47876   0.341   4.229   1.107  0.5096 -0.1534  0.1012
15336SOL    HW147877   0.351   4.329   1.109  0.9957 -0.1765 -1.1102
15336SOL    HW247878   0.431   4.187   1.100  0.3762 -0.7193  1.6321
15338SOL     OW47879   5.198   0.197   3.122 -1.0795  0.2887 -0.2412
15338SOL    HW147880   5.151   0.111   3.144  0.9322 -0.5343  1.0171
15338SOL    HW247881   5.186   0.218   3.025 -1.5715 -1.4247 -0.5725
15339SOL     OW47882   6.326   9.036   4.314 -0.4246 -0.7986  0.2436
15339SOL    HW147883   6.386   9.109   4.279 -2.1655  0.3145 -0.4769
15339SOL    HW247884   6.367   8.997   4.396  1.2165  0.0475 -0.1310
15340SOL     OW47885   2.432   9.347   1.541  0.0918  0.8674  0.4074
15340SOL    HW147886   2.440   9.415   1.469  0.1413 -0.9682 -1.3673
15340SOL    HW247887   2.421   9.393   1.629 -0.9270  3.1530 -0.8606
15341SOL     OW47888   8.809   1.262   4.815 -0.5686 -0.3204 -0.1735
15341SOL    HW147889   8.837   1.207   4.736  0.6085 -3.1805  2.1202
15341SOL    HW247890   8.726   1.224   4.854 -0.3315  0.1803  0.8334
15342SOL     OW47891   1.558   1.546   4.131 -0.5083 -0.0493 -0.3898
15342SOL    HW147892   1.537   1.460   4.177  0.8025 -0.0498  0.2466
15342SOL    HW247893   1.601   1.527   4.043 -2.2586 -0.0458 -1.2522
15343SOL     OW47894   9.863   6.683   3.812 -0.0172 -0.1017  0.5893
15343SOL    HW147895   9.948   6.662   3.860  0.9754  1.9653 -0.1879
15343SOL    HW247896   9.804   6.737   3.872  0.6620  1.3460 -0.0294
15344SOL     OW47897   2.124   8.789   0.998 -0.7434 -0.5254  0.2727
15344SOL    HW147898   2.176   8.704   0.992 -1.5699 -1.0043 -0.1901
15344SOL    HW247899   2.101   8.821   0.906  1.1370  1.1800  0.3663
15345SOL     OW47900   4.893   8.780   1.564 -0.5012  0.3258  0.2879
15345SOL    HW147901   4.855   8.725   1.639 -2.1802 -0.3954 -1.0656
15345SOL    HW247902   4.956   8.724   1.510 -0.7030  0.3125  0.0689
15346SOL     OW47903   2.285   9.052   0.211 -0.1589  0.5772  0.1398
15346SOL    HW147904   2.288   9.081   0.306 -0.1445 -5.6283  2.2960
15346SOL    HW247905   2.191   9.050   0.179 -0.4383  0.0902  0.9780
15347SOL     OW47906   6.621   0.965   2.821  0.1040  0.0791  0.5194
15347SOL    HW147907   6.645   0.928   2.731  1.3922 -0.1449  0.9455
15347SOL    HW247908   6.612   1.065   2.814 -2.0341 -0.1535 -0.3349
15348SOL     OW47909   8.021   6.572   2.586  0.2510  0.0686 -0.0664
15348SOL    HW147910   7.936   6.561   2.534  1.0057 -1.1236 -1.0740
15348SOL    HW247911   8.055   6.482   2.614  1.0039  0.5625  0.6231
15349SOL     OW47912   2.632   8.715   3.124  0.0144  0.6608  0.2110
15349SOL    HW147913   2.562   8.657   3.081  0.0039  0.8319  0.0017
15349SOL    HW247914   2.718   8.664   3.131 -0.6157 -0.1998  2.1144
15350SOL     OW47915   1.800   7.572   2.085  0.0525 -0.2506 -0.2397
15350SOL    HW147916   1.880   7.528   2.127  1.3395  0.8607 -1.4430
15350SOL    HW247917   1.759   7.510   2.018 -0.0110 -0.7763  0.2858
15351SOL     OW47918   3.739   0.068   1.523  0.0574  0.4849 -0.1903
15351SOL    HW147919   3.718   0.008   1.600  0.0174 -0.2706 -0.7856
15351SOL    HW247920   3.832   0.053   1.492  0.0625  0.7613 -0.3152
15352SOL     OW47921   8.215   4.277   2.755 -0.5772 -0.4669  0.4950
15352SOL    HW147922   8.126   4.248   2.790 -0.2865 -1.0694  0.7480
15352SOL    HW247923   8.230   4.373   2.776 -1.3487 -0.2546  0.0835
15353SOL     OW47924   3.683   3.705   2.934 -0.0551  0.6569  0.8837
15353SOL    HW147925   3.735   3.682   3.016  0.9912 -0.5928 -0.1148
15353SOL    HW247926   3.592   3.664   2.938 -0.0322  0.6674  1.4461
15354SOL     OW47927   9.115   9.725   4.757  0.5979 -0.0772  0.1224
15354SOL    HW147928   9.205   9.682   4.763  1.2650  1.3816  0.7902
15354SOL    HW247929   9.071   9.698   4.671  1.4258 -1.2489  0.0517
15355SOL     OW47930   0.119   0.433   4.043  0.1747 -0.0960  0.3252
15355SOL    HW147931   0.061   0.394   4.114  1.9203  0.0478  1.8795
15355SOL    HW247932   0.101   0.531   4.034 -1.6861 -0.5234 -1.1013
15356SOL     OW47933   1.609   0.456   2.683  0.5028 -0.2088  0.0348
15356SOL    HW147934   1.648   0.385   2.623  1.9855  1.7134 -1.3284
15356SOL    HW247935   1.669   0.468   2.763  0.7608  0.1796 -0.2171
15357SOL     OW47936   7.850   2.157   4.895 -0.2971  0.0312 -0.4604
15357SOL    HW147937   7.815   2.241   4.935 -0.3868  0.1396 -0.7646
15357SOL    HW247938   7.900   2.105   4.964  4.3007  2.7911 -1.4971
15358SOL     OW47939   1.913   1.486   2.684  0.1124 -0.3745  0.0317
15358SOL    HW147940   1.846   1.485   2.758  0.1772 -0.6662  0.0864
15358SOL    HW247941   1.976   1.409   2.694  1.6853  1.0259  1.1069
15359SOL     OW47942   2.591   9.748   4.948  0.4920  0.0971  0.2436
15359SOL    HW147943   2.640   9.792   5.023  0.3225  0.1176  0.3431
15359SOL    HW247944   2.634   9.773   4.861  0.4721  0.3618  0.3088
15360SOL     OW47945   6.585   4.355   0.601 -0.1025  0.9214 -0.1976
15360SOL    HW147946   6.658   4.343   0.535 -0.1319  0.4603 -0.1502
15360SOL    HW247947   6.623   4.353   0.694 -0.4103 -1.3186 -0.0951
15362SOL     OW47948   4.238   7.510   3.964  0.1429  0.2176 -0.2290
15362SOL    HW147949   4.287   7.571   3.903  0.4064  0.5628  0.3222
15362SOL    HW247950   4.303   7.452   4.013 -0.0921 -0.3413 -0.5827
15363SOL     OW47951   3.081   9.564   3.646  0.4118  0.3838  0.6288
15363SOL    HW147952   3.175   9.570   3.613  0.4687  0.7992  0.8657
15363SOL    HW247953   3.021   9.618   3.587 -0.1754 -2.2661 -1.3380
15364SOL     OW47954   2.891   1.422   2.002  0.3469 -0.1478  0.5315
15364SOL    HW147955   2.990   1.434   2.004  0.1341  2.2242 -1.2778
15364SOL    HW247956   2.861   1.408   1.908 -0.8835 -2.4673  1.2382
15365SOL     OW47957   4.411   4.413   3.661 -0.5677 -0.1983  0.1447
15365SOL    HW147958   4.348   4.346   3.701  0.7156  0.1354  2.7718
15365SOL    HW247959   4.496   4.366   3.634  0.0103  0.2263  1.2265
15366SOL     OW47960   9.678   8.789   2.140 -0.5885  0.1159  0.1860
15366SOL    HW147961   9.599   8.727   2.139 -1.3523  1.0690 -1.2023
15366SOL    HW247962   9.701   8.812   2.234 -1.8176 -0.3780  0.6265
15367SOL     OW47963   3.575   5.554   3.734 -1.0670  0.3828 -0.3522
15367SOL    HW147964   3.570   5.654   3.731 -3.2617  0.2614 -3.1564
15367SOL    HW247965   3.540   5.521   3.821 -0.8405  2.0242  0.3845
15368SOL     OW47966   4.631   9.584   4.774  0.3874  0.1455  0.3573
15368SOL    HW147967   4.679   9.671   4.785  0.0037  0.3591  0.3675
15368SOL    HW247968   4.536   9.602   4.748 -0.1983 -0.2229  2.1797
15369SOL     OW47969   0.555   8.244   0.253  0.1772  1.0104 -0.1160
15369SOL    HW147970   0.545   8.328   0.307 -0.9587  0.0636  1.2001
15369SOL    HW247971   0.650   8.216   0.253  0.4209  1.8034  0.2088
15370SOL     OW47972   8.228   9.870   1.381 -0.0764 -0.6023  0.5460
15370SOL    HW147973   8.248   9.963   1.409 -0.7192 -0.4267  0.4441
15370SOL    HW247974   8.267   9.805   1.446 -0.5543 -0.2331  1.2060
15371SOL     OW47975   9.795   4.451   2.774 -0.0026 -0.4739 -0.0852
15371SOL    HW147976   9.854   4.437   2.853 -1.6929  0.4942  1.3930
15371SOL    HW247977   9.783   4.365   2.725  1.3050 -1.0173  0.5260
15372SOL     OW47978   8.219   0.135   1.434  0.1054 -0.1055  0.1630
15372SOL    HW147979   8.211   0.156   1.531 -0.4760  0.4265  0.0045
15372SOL    HW247980   8.278   0.203   1.390  0.8305 -0.6753  0.2470
15375SOL     OW47981   2.886   4.828   3.556  0.0391  0.4948 -0.2596
15375SOL    HW147982   2.790   4.845   3.579 -0.3919 -0.4725 -1.2574
15375SOL    HW247983   2.927   4.913   3.522 -0.5429  0.8567 -0.0754
15377SOL     OW47984   9.198   5.472   3.053 -0.3611  0.0076 -0.1203
15377SOL    HW147985   9.159   5.380   3.050 -1.7084  0.6044 -1.5088
15377SOL    HW247986   9.137   5.532   3.104  1.9833 -0.4922  3.4802
15378SOL     OW47987   3.571   1.057   1.886 -0.4012 -0.0828  0.2415
15378SOL    HW147988   3.624   0.997   1.946  0.5136  0.7686  0.2901
15378SOL    HW247989   3.595   1.038   1.791 -0.6992 -0.3422  0.2167
15379SOL     OW47990   6.704   1.750   2.714 -0.0494  0.0451 -0.4713
15379SOL    HW147991   6.669   1.784   2.801  0.0573  1.1875 -0.8614
15379SOL    HW247992   6.639   1.771   2.641 -0.2247 -1.0762 -0.6449
15380SOL     OW47993   9.747   4.824   2.426  0.5586  0.2467  0.0431
15380SOL    HW147994   9.747   4.730   2.391  3.2854 -0.1440  0.9901
15380SOL    HW247995   9.768   4.887   2.352  1.1175 -0.1031 -0.0969
15384SOL     OW47996   0.585   1.777   0.650  0.3418 -0.0220  0.1343
15384SOL    HW147997   0.555   1.859   0.700 -0.6678  0.0341 -0.5346
15384SOL    HW247998   0.504   1.727   0.618  0.9692 -0.7227 -0.3551
15385SOL     OW47999   8.491   9.138   0.340  0.0458  0.3184 -0.2592
15385SOL    HW148000   8.578   9.156   0.296 -0.0707  0.7882 -0.2960
15385SOL    HW248001   8.434   9.220   0.337 -1.0481 -0.4806 -1.7218
15386SOL     OW48002   1.669   1.896   4.369  0.1047 -0.5232  0.0968
15386SOL    HW148003   1.695   1.911   4.464  1.6958 -0.1635 -0.3845
15386SOL    HW248004   1.587   1.949   4.348  0.2637  0.0864  1.0124
15387SOL     OW48005   9.815   6.071   3.581  0.3588  0.5435 -0.0081
15387SOL    HW148006   9.767   6.004   3.638 -2.1166  1.9797 -0.3185
15387SOL    HW248007   9.803   6.048   3.484  0.8190  0.5762 -0.0753
15389SOL     OW48008   1.121   2.001   4.180  0.2391  0.4900  0.2448
15389SOL    HW148009   1.115   1.995   4.279 -2.8813  0.8072  0.1433
15389SOL    HW248010   1.122   1.909   4.141  0.3864  0.3678  0.5361
15390SOL     OW48011   1.536   2.929   0.280 -0.0709 -0.1870 -0.1915
15390SOL    HW148012   1.629   2.903   0.306 -0.6650 -0.6984  1.4943
15390SOL    HW248013   1.496   2.857   0.224  0.7227  0.2686 -1.3635
15392SOL     OW48014   4.850   8.845   2.019  0.7686  0.2657 -0.0034
15392SOL    HW148015   4.906   8.794   2.085 -0.6157  0.8118  1.6407
15392SOL    HW248016   4.805   8.781   1.957 -1.0483 -0.5617  2.1238
15393SOL     OW48017   1.085   0.351   1.097  0.2682 -0.5673  0.2962
15393SOL    HW148018   1.041   0.434   1.061  0.2917 -1.3646 -1.6295
15393SOL    HW248019   1.021   0.304   1.158 -0.5896 -0.3603 -0.4393
15394SOL     OW48020   1.995   9.786   0.648 -0.2185 -0.3068 -0.2079
15394SOL    HW148021   1.955   9.867   0.690  1.7478 -0.3243  1.8091
15394SOL    HW248022   2.027   9.809   0.555  0.7602  1.3899  0.5256
15395SOL     OW48023   7.896   2.777   0.773 -0.2183  0.0892  0.3219
15395SOL    HW148024   7.971   2.726   0.815  0.4443  1.2115  0.5034
15395SOL    HW248025   7.843   2.823   0.843 -0.6755 -0.1431  0.1334
15396SOL     OW48026   7.353   7.750   5.187 -0.1395  0.0689  0.6344
15396SOL    HW148027   7.350   7.850   5.188 -0.8188  0.0579  0.1237
15396SOL    HW248028   7.439   7.719   5.227  1.9513  0.9365 -2.9418
15398SOL     OW48029   2.626   7.658   0.434  0.7177  0.6390 -0.2670
15398SOL    HW148030   2.629   7.670   0.335  0.1023 -2.6956 -0.7428
15398SOL    HW248031   2.531   7.658   0.465  0.5586 -3.6703 -0.4806
15399SOL     OW48032   0.163   3.027   2.895  0.0760 -0.0215 -0.0750
15399SOL    HW148033   0.187   2.937   2.858 -1.1443  0.4385 -2.0869
15399SOL    HW248034   0.078   3.021   2.947 -0.4477  0.1068 -0.9055
15400SOL     OW48035   1.232   2.610   4.454 -0.1553 -0.0658 -0.4023
15400SOL    HW148036   1.237   2.579   4.359 -0.9674  0.7585 -0.7183
15400SOL    HW248037   1.178   2.694   4.459  0.4879  0.2945  0.6896
15401SOL     OW48038   7.327   0.477   0.710 -0.4915  0.6394  0.1077
15401SOL    HW148039   7.272   0.396   0.691  0.2293  0.7217 -2.5543
15401SOL    HW248040   7.317   0.543   0.636 -0.4682  2.6790  1.8764
15403SOL     OW48041   8.495   3.973   3.501 -0.1246  0.3516  0.3778
15403SOL    HW148042   8.405   3.975   3.545 -1.6328  1.4705 -2.6296
15403SOL    HW248043   8.484   3.959   3.403  3.0699 -0.6366  0.1114
15404SOL     OW48044   1.313   0.495   5.307  0.1610  0.0131  0.0313
15404SOL    HW148045   1.404   0.536   5.299  0.5687 -0.5194  1.7706
15404SOL    HW248046   1.302   0.426   5.236  1.6656 -0.9227  0.6727
15405SOL     OW48047   0.451   7.277   1.021  0.2697 -0.5839 -0.1738
15405SOL    HW148048   0.547   7.275   0.993  0.0972  0.6006 -0.8826
15405SOL    HW248049   0.421   7.184   1.045  1.8322 -0.8263  0.9078
15406SOL     OW48050   5.047   1.107   4.691  0.1739 -0.8273 -0.1309
15406SOL    HW148051   4.979   1.046   4.651 -1.2592  1.2518 -0.9546
15406SOL    HW248052   5.040   1.198   4.648  3.4283 -0.5385 -0.2056
15407SOL     OW48053   1.948   2.708   2.748 -0.5439 -0.2027 -0.2222
15407SOL    HW148054   1.905   2.622   2.721 -0.5783 -0.4593  0.6317
15407SOL    HW248055   2.043   2.691   2.774 -0.7474 -0.1005  0.6013
15410SOL     OW48056   9.967   4.767   2.585 -0.1839 -0.0366 -0.2482
15410SOL    HW148057   9.893   4.797   2.525  0.8079  0.6436 -1.1609
15410SOL    HW248058   9.938   4.771   2.680 -0.9705  1.2180 -0.5382
15411SOL     OW48059   3.842   0.766   5.321  0.1850 -0.0296  0.2593
15411SOL    HW148060   3.829   0.702   5.396  1.8446 -1.5100 -0.6736
15411SOL    HW248061   3.818   0.722   5.234 -0.4579  1.2267 -0.2082
15412SOL     OW48062   6.191   8.706   4.140 -0.2502  0.1004 -0.0423
15412SOL    HW148063   6.109   8.648   4.143 -0.0671 -0.0924  1.4560
15412SOL    HW248064   6.272   8.650   4.151  0.0436  0.4154 -0.5589
15413SOL     OW48065   2.860   7.410   4.510 -0.2062 -0.3987 -0.1339
15413SOL    HW148066   2.923   7.488   4.517 -0.6624  0.0196 -0.6800
15413SOL    HW248067   2.834   7.397   4.415  0.0739 -1.3879 -0.0831
15414SOL     OW48068   2.840   6.767   0.915  0.1450 -0.4086 -0.6070
15414SOL    HW148069   2.928   6.756   0.960 -0.1629  1.3117  0.4718
15414SOL    HW248070   2.829   6.698   0.844  0.7775 -3.0198  1.7635
15415SOL     OW48071   8.393   6.341   2.445  0.4529 -0.4984 -0.1197
15415SOL    HW148072   8.331   6.294   2.507 -1.4677  0.9832 -0.8743
15415SOL    HW248073   8.435   6.275   2.383  0.1581 -1.5847  0.8300
15418SOL     OW48074   0.700   6.337   5.249  0.3688 -0.6496 -0.1080
15418SOL    HW148075   0.768   6.326   5.322 -0.2644 -0.9672  0.4503
15418SOL    HW248076   0.735   6.300   5.164  1.2472  0.0143 -0.0394
15419SOL     OW48077   9.982   0.291   4.892 -0.0068  0.0657  0.5459
15419SOL    HW148078   9.931   0.362   4.842 -1.0516 -0.0208  1.4676
15419SOL    HW248079  10.055   0.334   4.945 -0.0245  0.3514  0.3395
15420SOL     OW48080   4.054   6.120   2.181 -0.0248 -1.1164  0.6757
15420SOL    HW148081   3.959   6.109   2.150 -0.4482  1.0534  1.1087
15420SOL    HW248082   4.087   6.211   2.156  2.1575 -2.0595  0.0299
15421SOL     OW48083   8.026   9.922   2.461  0.2379  0.1398  0.0623
15421SOL    HW148084   8.070   9.837   2.431 -0.7069 -0.4559  0.3225
15421SOL    HW248085   7.933   9.926   2.423 -0.3199  0.2534  1.4280
15422SOL     OW48086   4.438   9.543   2.438  0.2980  0.3316 -0.2759
15422SOL    HW148087   4.519   9.574   2.488  1.0745 -2.6558  0.3777
15422SOL    HW248088   4.463   9.466   2.379 -2.5689 -2.2715  1.7886
15423SOL     OW48089   9.002   6.284   3.202 -0.1933 -0.0801  0.3045
15423SOL    HW148090   9.087   6.334   3.219 -0.6871  0.2119  2.0209
15423SOL    HW248091   8.940   6.296   3.280 -1.1612 -1.6330 -0.2026
15424SOL     OW48092   5.095   2.130   4.212 -0.4653  0.1114  0.1654
15424SOL    HW148093   5.106   2.092   4.121 -3.2459 -1.5003  0.4332
15424SOL    HW248094   4.998   2.145   4.230  0.0066  0.0864  2.9693
15426SOL     OW48095   8.227   3.723   1.499 -0.0665  0.1927 -0.0301
15426SOL    HW148096   8.206   3.737   1.402 -0.0977  0.4445  0.0144
15426SOL    HW248097   8.233   3.625   1.517  0.6123  0.1559 -0.4372
15427SOL     OW48098   9.063   9.391   5.206  0.3091 -0.0843 -0.0043
15427SOL    HW148099   9.158   9.361   5.219  0.0558 -0.8223  0.2070
15427SOL    HW248100   9.003   9.331   5.259 -0.3786 -0.4142 -1.1379
15428SOL     OW48101   9.881   3.899   0.593 -0.0196  0.1699 -0.0701
15428SOL    HW148102   9.829   3.867   0.672 -0.7372 -2.8976 -1.7369
15428SOL    HW248103   9.836   3.979   0.554 -1.9712 -0.8106  0.1339
15429SOL     OW48104   3.928   0.611   3.686  0.0932 -0.0635  0.4566
15429SOL    HW148105   3.860   0.656   3.743 -0.4776 -0.9312  0.4742
15429SOL    HW248106   3.996   0.566   3.745 -0.8724 -1.5286  0.4784
15430SOL     OW48107   9.168   2.530   3.138  0.0022  0.7344 -0.0391
15430SOL    HW148108   9.154   2.594   3.062  1.0784  2.3396  1.0870
15430SOL    HW248109   9.263   2.535   3.169 -1.1074  2.2781  3.3171
15431SOL     OW48110   6.208   1.423   1.683 -0.5829  0.4270 -0.1605
15431SOL    HW148111   6.254   1.512   1.692  2.1465 -0.6922 -2.1334
15431SOL    HW248112   6.160   1.419   1.595 -0.0437 -0.2847 -0.4323
15433SOL     OW48113   0.809   3.666   3.004  0.1876 -0.3596 -0.1036
15433SOL    HW148114   0.838   3.571   3.019 -0.3314 -0.5704 -0.3852
15433SOL    HW248115   0.858   3.727   3.066  0.8283 -0.7667 -0.2060
15434SOL     OW48116   1.105   4.738   3.606 -0.1816  0.0150 -0.3990
15434SOL    HW148117   1.094   4.789   3.691  0.1147  1.1227 -1.0148
15434SOL    HW248118   1.036   4.767   3.540  2.3812  2.4876 -2.1010
15435SOL     OW48119   6.040   2.731   4.256 -0.1023 -0.2742  0.3211
15435SOL    HW148120   6.134   2.765   4.243 -0.2771 -0.0913 -0.4997
15435SOL    HW248121   5.980   2.808   4.279 -0.0973 -0.3614  0.6365
15436SOL     OW48122   0.616   8.552   4.107 -0.1593 -0.4063 -0.2111
15436SOL    HW148123   0.697   8.565   4.163 -0.5781  0.8216  0.1383
15436SOL    HW248124   0.597   8.636   4.056 -0.5925 -1.0417 -1.1150
15437SOL     OW48125   9.394   7.675   4.077 -0.1576 -0.3094 -0.0066
15437SOL    HW148126   9.428   7.718   3.994 -2.7965 -0.3721 -1.1833
15437SOL    HW248127   9.407   7.737   4.154  1.3086  0.2013 -0.6427
15438SOL     OW48128   3.145   4.484   4.004  0.0937  0.0854 -0.2057
15438SOL    HW148129   3.114   4.501   3.911 -1.3886 -3.2102 -0.3961
15438SOL    HW248130   3.066   4.469   4.064  1.0868 -0.7993  0.9353
15439SOL     OW48131   4.532   8.446   4.439 -0.0059  0.4318 -0.4685
15439SOL    HW148132   4.569   8.448   4.531  2.4611  0.1770 -1.4359
15439SOL    HW248133   4.489   8.357   4.422  1.9182 -0.5113 -0.4735
15440SOL     OW48134   2.178   6.426   0.537  0.4412  0.2883 -0.2327
15440SOL    HW148135   2.208   6.442   0.631 -2.6697  1.5079  0.6156
15440SOL    HW248136   2.210   6.499   0.478 -0.6127  1.4524  0.6111
15441SOL     OW48137   1.122   4.022   1.246  0.3924  0.2009 -0.6084
15441SOL    HW148138   1.063   4.102   1.233  3.4311  2.2312 -2.3630
15441SOL    HW248139   1.163   4.025   1.337  0.0079  0.2587 -0.4347
15442SOL     OW48140   5.181   7.272   3.243 -0.0082 -0.1081 -0.0512
15442SOL    HW148141   5.203   7.352   3.188  0.6755  0.5286  1.1247
15442SOL    HW248142   5.243   7.268   3.321  0.2641 -2.0348 -0.3360
15444SOL     OW48143   8.185   1.907   4.545  0.4132  0.1185 -0.1401
15444SOL    HW148144   8.176   1.947   4.454  0.6689 -0.6726 -0.5128
15444SOL    HW248145   8.147   1.970   4.613 -0.7855  0.2123 -0.8997
15445SOL     OW48146   4.718   9.297   3.533  0.2065 -0.0960  0.9998
15445SOL    HW148147   4.689   9.239   3.457  0.4311 -0.0063  0.8449
15445SOL    HW248148   4.653   9.288   3.608 -1.1118  1.3312  0.0723
15446SOL     OW48149   3.549   1.140   3.947  0.3259 -0.3014 -0.1741
15446SOL    HW148150   3.571   1.088   4.030  0.1632 -0.2346 -0.0879
15446SOL    HW248151   3.502   1.081   3.882 -0.1738 -0.1685  0.0676
15447SOL     OW48152   2.949   0.344   2.327  0.3546  0.6422 -0.0234
15447SOL    HW148153   3.006   0.416   2.287 -0.0344  0.7254 -0.4194
15447SOL    HW248154   2.893   0.302   2.256  1.2612 -0.6830  0.0375
15448SOL     OW48155   5.469   1.785   5.034  0.2166 -0.2151  0.0446
15448SOL    HW148156   5.421   1.758   5.117  0.1797 -0.3484 -0.0209
15448SOL    HW248157   5.536   1.716   5.009 -0.1396 -0.4272 -0.3303
15450SOL     OW48158   5.206   1.428   2.582 -0.2570 -0.2596  0.6155
15450SOL    HW148159   5.180   1.350   2.638 -0.4568 -0.3557  0.3885
15450SOL    HW248160   5.132   1.495   2.580 -0.3153 -0.3304  0.3357
15451SOL     OW48161   0.126   1.222   3.775 -0.0998  0.1162 -0.0657
15451SOL    HW148162   0.089   1.189   3.688  0.4126  1.2706 -0.7299
15451SOL    HW248163   0.053   1.227   3.842 -0.5101 -0.7522 -0.4374
15453SOL     OW48164   8.230   3.719   3.463 -0.1306  0.1088 -0.0827
15453SOL    HW148165   8.234   3.760   3.554  1.8249 -2.1350  0.9049
15453SOL    HW248166   8.323   3.705   3.429 -0.7656 -1.8923 -1.0903
15454SOL     OW48167   9.465   8.348   4.928 -0.3953  0.0222 -0.2172
15454SOL    HW148168   9.437   8.253   4.912 -0.0849 -0.0026 -0.6464
15454SOL    HW248169   9.557   8.362   4.892  0.9095 -0.3864  2.8198
15455SOL     OW48170   2.208   3.655   4.913 -0.2684 -0.0566 -0.3042
15455SOL    HW148171   2.253   3.620   4.995 -0.5885  1.6179  0.6148
15455SOL    HW248172   2.120   3.696   4.938 -1.3195 -1.3411 -1.7787
15456SOL     OW48173   8.800   1.853   4.112 -0.4113 -0.4958 -0.5470
15456SOL    HW148174   8.812   1.803   4.198  0.3599 -0.6504 -0.7403
15456SOL    HW248175   8.795   1.951   4.131  1.3271 -0.4180 -0.4712
15457SOL     OW48176   7.851   7.461   3.399 -0.5913 -0.2178  0.1400
15457SOL    HW148177   7.946   7.474   3.374 -1.0220  0.2380 -1.2842
15457SOL    HW248178   7.843   7.387   3.466  0.6041 -1.0827 -0.6826
15458SOL     OW48179   1.629   3.457   0.326 -0.3300 -0.5232 -0.1680
15458SOL    HW148180   1.577   3.371   0.324  0.5218 -1.0295 -1.0114
15458SOL    HW248181   1.712   3.444   0.379 -0.3980 -0.1096  0.0348
15459SOL     OW48182   0.208   2.136   2.067  0.1274 -0.1460 -0.0458
15459SOL    HW148183   0.147   2.068   2.026  1.5989 -1.9228  0.6637
15459SOL    HW248184   0.200   2.131   2.166  0.1405  0.8349  0.0052
15461SOL     OW48185   8.399   0.371   4.254  0.0547 -0.6469 -0.1586
15461SOL    HW148186   8.463   0.336   4.186  1.6301 -0.0603  0.9892
15461SOL    HW248187   8.429   0.462   4.285 -0.0026 -1.3546  2.1129
15462SOL     OW48188   3.438   9.782   3.372  0.5337 -0.1083 -0.1654
15462SOL    HW148189   3.502   9.841   3.421 -0.1549  0.0738  0.5398
15462SOL    HW248190   3.365   9.838   3.333 -0.7447 -0.5927  1.4760
15463SOL     OW48191   8.330   9.377   0.316 -0.1222 -0.2775  0.3531
15463SOL    HW148192   8.245   9.353   0.361  0.1370  1.1831  1.6457
15463SOL    HW248193   8.378   9.447   0.369  0.9858  0.2754 -1.3198
15466SOL     OW48194   0.649   7.884   4.678  0.9112 -0.1778  1.0285
15466SOL    HW148195   0.683   7.825   4.605  0.4239  0.8345 -0.0260
15466SOL    HW248196   0.720   7.950   4.703  0.7206  0.1054  0.8079
15468SOL     OW48197   7.201   7.193   3.549  0.0839 -0.4250  0.0358
15468SOL    HW148198   7.250   7.280   3.541  0.1659 -0.4242  0.5481
15468SOL    HW248199   7.201   7.147   3.460 -0.5506  0.4069 -0.3981
15469SOL     OW48200   4.767   6.564   3.000 -0.1809  0.0346 -0.0546
15469SOL    HW148201   4.850   6.615   3.023  0.3554 -0.2810 -1.2882
15469SOL    HW248202   4.689   6.627   3.000  0.0627  0.3508  0.9932
15470SOL     OW48203   1.191   3.449   3.525  0.6335 -0.2151  0.0344
15470SOL    HW148204   1.121   3.512   3.561  1.4014 -0.1608  1.4891
15470SOL    HW248205   1.259   3.433   3.596  1.2658 -1.4923 -0.8632
15472SOL     OW48206   1.337   8.404   1.577 -0.4750 -0.4661 -0.1836
15472SOL    HW148207   1.302   8.392   1.670  1.6527  0.8746  0.8014
15472SOL    HW248208   1.398   8.482   1.574  1.0465 -1.6981 -2.2916
15473SOL     OW48209   6.361   1.267   5.091 -0.5086 -0.3403  0.3842
15473SOL    HW148210   6.341   1.170   5.102 -3.1371  0.1093 -0.1381
15473SOL    HW248211   6.351   1.314   5.179  1.6333 -0.6608  0.8250
15474SOL     OW48212   5.928   9.146   2.622  0.4751  0.5035  0.0974
15474SOL    HW148213   6.016   9.135   2.667  0.5408 -0.2727 -0.2043
15474SOL    HW248214   5.941   9.148   2.523  0.0673 -0.5986  0.0116
15475SOL     OW48215   4.232   9.506   1.652 -0.4930  0.3975  0.1005
15475SOL    HW148216   4.150   9.454   1.629 -0.8029  0.0151  1.9895
15475SOL    HW248217   4.270   9.473   1.738  2.4586 -0.3457 -1.4243
15477SOL     OW48218   1.445   3.668   3.936 -0.2305  0.7201  0.0141
15477SOL    HW148219   1.432   3.718   3.851  0.1035  1.2197  0.2535
15477SOL    HW248220   1.476   3.731   4.007 -3.7014  1.0098  1.4067
15480SOL     OW48221   2.640   5.625   0.236 -0.2935 -0.0503  0.4819
15480SOL    HW148222   2.672   5.589   0.323  3.7654 -2.0202 -1.6673
15480SOL    HW248223   2.545   5.596   0.220  0.1295 -2.7612  2.6001
15481SOL     OW48224   4.612   9.338   4.892  0.0267 -0.0916 -0.1689
15481SOL    HW148225   4.615   9.435   4.867 -0.1504  0.3906  1.6441
15481SOL    HW248226   4.662   9.285   4.823  1.5234  1.4625 -0.3322
15482SOL     OW48227   3.473   8.813   0.159 -0.1749  0.0264  0.0794
15482SOL    HW148228   3.453   8.777   0.068 -3.0717 -0.5504  0.8903
15482SOL    HW248229   3.394   8.864   0.193  0.7398 -0.0290  2.3987
15484SOL     OW48230   2.400   4.227   0.062 -0.1568  0.1778  0.6247
15484SOL    HW148231   2.333   4.165   0.102 -0.1717  2.8500  5.1194
15484SOL    HW248232   2.367   4.321   0.070  1.5740  1.1316 -2.4963
15487SOL     OW48233   4.747   3.461   4.218 -0.1690  0.1654 -0.2117
15487SOL    HW148234   4.738   3.525   4.295  0.6866  0.0683 -0.0318
15487SOL    HW248235   4.730   3.510   4.132  2.3085  1.0874 -0.2165
15488SOL     OW48236   0.905   7.386   4.804  0.4359 -0.0456  0.2508
15488SOL    HW148237   0.926   7.328   4.726  1.3782  1.2980 -0.5266
15488SOL    HW248238   0.990   7.405   4.855 -0.0081 -0.0862  1.0130
15489SOL     OW48239   0.203   9.699   3.484  0.1645 -0.1082  0.5361
15489SOL    HW148240   0.237   9.679   3.575  0.8316  0.2013  0.3602
15489SOL    HW248241   0.277   9.687   3.417 -0.5750 -1.3500 -0.0928
15490SOL     OW48242   1.818   5.302   3.838  0.1228  0.4958 -0.7238
15490SOL    HW148243   1.776   5.327   3.751 -1.3140 -0.5740 -0.3655
15490SOL    HW248244   1.916   5.320   3.835  0.1515  0.0818 -2.7154
15491SOL     OW48245   4.061   1.686   2.424  0.0619  0.4215  0.1172
15491SOL    HW148246   4.114   1.680   2.340  0.7288 -0.6925  0.6202
15491SOL    HW248247   4.043   1.595   2.460 -1.4004  0.8219  0.4565
15492SOL     OW48248   9.041   0.079   5.236  0.3659 -0.7457 -0.4730
15492SOL    HW148249   8.977   0.127   5.176  0.1539 -2.1334 -1.3927
15492SOL    HW248250   9.132   0.078   5.195  0.5821 -0.3380 -0.0157
15493SOL     OW48251   5.362   7.023   2.205  0.6821 -0.3818 -0.2597
15493SOL    HW148252   5.412   6.995   2.287  1.8147 -0.7987 -1.0752
15493SOL    HW248253   5.359   7.123   2.201 -3.6412 -0.2304  2.8221
15494SOL     OW48254   7.764   3.825   1.247  0.0433  0.2845 -0.1460
15494SOL    HW148255   7.711   3.883   1.310 -0.3187  1.3796 -1.4284
15494SOL    HW248256   7.843   3.877   1.214  0.5675 -0.5000 -0.1269
15495SOL     OW48257   1.451   4.060   4.044  0.0058  0.0220  0.3022
15495SOL    HW148258   1.497   3.975   4.068 -1.3754 -1.2185 -1.3052
15495SOL    HW248259   1.406   4.098   4.125  1.4939 -0.2213  1.2496
15497SOL     OW48260   2.404   7.336   2.754  0.1173 -0.1927  0.6164
15497SOL    HW148261   2.384   7.431   2.729  1.4792  0.3780  1.6256
15497SOL    HW248262   2.337   7.304   2.820 -0.6380 -0.0989 -0.1010
15500SOL     OW48263   0.191   8.584   4.560  0.1382  0.0983 -0.0786
15500SOL    HW148264   0.197   8.522   4.637  0.5179  0.6573  0.3486
15500SOL    HW248265   0.136   8.664   4.586 -1.6152 -0.7519 -1.0916
15501SOL     OW48266   2.900   4.686   3.784 -0.3596  0.3673 -0.1735
15501SOL    HW148267   2.806   4.660   3.804 -0.0463  0.2479  1.1563
15501SOL    HW248268   2.901   4.755   3.712 -1.5621  1.7428  1.1117
15502SOL     OW48269   4.187   1.954   2.860 -0.3919 -0.2015  1.1438
15502SOL    HW148270   4.100   1.920   2.895  0.8600 -1.3000  3.3050
15502SOL    HW248271   4.208   1.907   2.774 -1.7164 -0.2414  0.8226
15503SOL     OW48272   8.881   8.819   0.965  0.1629  0.2797 -0.9071
15503SOL    HW148273   8.801   8.871   0.935  1.5582  1.9686 -1.8036
15503SOL    HW248274   8.953   8.883   0.995  0.8862 -1.2207  0.6709
15504SOL     OW48275   2.931   2.058   3.432  0.2257  0.0053 -0.8176
15504SOL    HW148276   2.947   2.027   3.526 -0.5264 -2.7263 -1.5281
15504SOL    HW248277   3.016   2.091   3.393  0.5077  1.3439  0.8742
15505SOL     OW48278   2.782   0.919   1.031  0.3894 -0.2314 -0.4691
15505SOL    HW148279   2.807   0.889   0.939  1.2987 -2.2395  0.3989
15505SOL    HW248280   2.692   0.882   1.055  1.3258 -1.9735  0.4424
15506SOL     OW48281   2.456   8.932   0.051  0.5795 -0.1130 -0.3757
15506SOL    HW148282   2.536   8.993   0.055  1.1152 -0.8035 -0.4748
15506SOL    HW248283   2.382   8.971   0.106  0.8215  0.7693 -0.6627
15508SOL     OW48284   2.377   0.287   2.137  0.3114  0.5717  0.0279
15508SOL    HW148285   2.367   0.187   2.145 -0.4765  0.6452  0.0068
15508SOL    HW248286   2.355   0.329   2.225  0.5044  0.7337 -0.0032
15509SOL     OW48287   7.694   7.934   3.533 -0.2573  0.0529  0.6601
15509SOL    HW148288   7.721   7.986   3.614 -1.8834 -0.2059  1.4026
15509SOL    HW248289   7.599   7.958   3.509 -0.5287 -1.4958  0.1599
15511SOL     OW48290   4.913   4.550   0.322  0.8088  0.5452 -0.1783
15511SOL    HW148291   4.843   4.479   0.319  1.2225  0.0952  0.6525
15511SOL    HW248292   4.870   4.640   0.312  0.1319  0.2572  0.1084
15512SOL     OW48293   3.846   0.371   4.642 -0.6258  0.1567 -0.4804
15512SOL    HW148294   3.845   0.271   4.633 -0.5209  0.1080  0.0351
15512SOL    HW248295   3.897   0.410   4.566  2.4731 -0.4190  1.1987
15513SOL     OW48296   4.141   8.789   4.577 -0.1492  0.4797  0.5420
15513SOL    HW148297   4.063   8.769   4.637 -0.5923 -0.5007 -0.3525
15513SOL    HW248298   4.188   8.870   4.611 -1.5812  1.1101  1.0720
15514SOL     OW48299   0.013   5.455   4.369  0.1218 -0.0754 -0.4599
15514SOL    HW148300   0.091   5.496   4.417  0.7627 -2.7170  0.8328
15514SOL    HW248301  -0.004   5.506   4.285  1.1824  2.5221  0.8512
15515SOL     OW48302   2.014   1.049   4.997  0.6330 -0.0644  0.2198
15515SOL    HW148303   2.081   1.117   5.027  1.8442 -0.8602 -0.6796
15515SOL    HW248304   2.032   0.962   5.042  0.0899 -0.2363  0.1055
15516SOL     OW48305   9.899   0.454   1.853 -0.0665  0.1870 -0.0260
15516SOL    HW148306   9.821   0.448   1.915 -1.2276 -2.0617 -1.6202
15516SOL    HW248307   9.867   0.448   1.758  1.5628  4.5325 -0.9745
15517SOL     OW48308   1.910   8.105   2.248 -0.6590  0.0742  0.1774
15517SOL    HW148309   1.899   8.028   2.310  0.2941 -0.2345 -0.0305
15517SOL    HW248310   1.951   8.182   2.297 -1.2122  0.3074  0.2774
15518SOL     OW48311   3.719   9.495   0.878  0.1434 -0.2109 -0.6092
15518SOL    HW148312   3.802   9.444   0.899 -0.1009 -0.2437  0.3082
15518SOL    HW248313   3.649   9.431   0.845 -0.0063 -0.4094  0.0793
15519SOL     OW48314   1.762   4.629   2.510  0.0550 -0.1779  0.6056
15519SOL    HW148315   1.717   4.666   2.428 -0.0085  1.1565  1.2304
15519SOL    HW248316   1.807   4.703   2.560  1.9465 -1.3001  0.6428
15520SOL     OW48317   1.901   2.181   4.973 -0.5372 -0.2457  0.1923
15520SOL    HW148318   1.848   2.265   4.980  1.1177  0.8517 -0.1632
15520SOL    HW248319   1.998   2.203   4.966 -0.1148 -2.1727 -0.4284
15523SOL     OW48320   1.016   0.087   2.279  0.4349  0.0673  0.3646
15523SOL    HW148321   0.989  -0.006   2.258 -0.5533  0.2271  0.8911
15523SOL    HW248322   1.106   0.086   2.324  0.5123 -0.6092  0.1971
15524SOL     OW48323   9.520   9.914   4.660  0.1921  0.5079 -0.0217
15524SOL    HW148324   9.605   9.860   4.658  1.2430  2.1486 -1.0535
15524SOL    HW248325   9.460   9.879   4.732  2.6898  0.7325  2.2246
15525SOL     OW48326   8.160   3.937   4.805 -0.7819 -0.3211 -0.2521
15525SOL    HW148327   8.204   3.871   4.744 -1.0899 -1.8196  1.0962
15525SOL    HW248328   8.076   3.971   4.763 -1.2661 -1.7305 -0.4491
15526SOL     OW48329   9.562   0.482   2.939  0.0620  0.8558 -0.0972
15526SOL    HW148330   9.467   0.498   2.911 -0.4964 -0.3983  1.0297
15526SOL    HW248331   9.565   0.408   3.007  2.1058 -0.9225 -2.0448
15527SOL     OW48332   5.397   4.318   1.039 -0.4888  0.3713  0.5418
15527SOL    HW148333   5.308   4.319   0.993  0.0012 -0.9173 -0.4501
15527SOL    HW248334   5.461   4.376   0.989 -0.4954  0.4960  0.6788
15528SOL     OW48335   9.733   6.669   3.264  0.3604 -0.1131 -1.1508
15528SOL    HW148336   9.707   6.650   3.169  2.6276 -1.4239 -1.5488
15528SOL    HW248337   9.664   6.631   3.325 -0.0227 -1.1706 -2.2192
15529SOL     OW48338   2.997   8.132   3.917  0.3973  0.2689 -0.6893
15529SOL    HW148339   2.907   8.100   3.946  1.8060 -0.1557  3.4582
15529SOL    HW248340   3.041   8.061   3.862 -0.9386 -0.3394 -1.0063
15530SOL     OW48341   0.290   9.037   5.104 -0.1301 -0.2364  0.2828
15530SOL    HW148342   0.293   9.050   5.203 -0.5740  0.1056  0.2553
15530SOL    HW248343   0.365   8.977   5.075  0.2704  0.0289  0.7701
15531SOL     OW48344   9.641   3.630   3.377  0.1576 -0.6155 -0.1955
15531SOL    HW148345   9.625   3.634   3.476 -2.2452  0.2359 -0.5985
15531SOL    HW248346   9.667   3.537   3.352 -0.4735 -1.1519  1.0726
15532SOL     OW48347   0.697   4.832   2.075 -0.4560 -0.1533 -0.1347
15532SOL    HW148348   0.695   4.813   2.174 -1.6186  0.3492 -0.0591
15532SOL    HW248349   0.787   4.806   2.039 -0.7723 -2.4964  0.6295
15533SOL     OW48350   6.899   2.418   3.590  0.2855 -0.2200  0.2695
15533SOL    HW148351   6.983   2.416   3.535  0.7829  0.2592  0.9924
15533SOL    HW248352   6.915   2.372   3.677 -0.1633  0.0006  0.4710
15534SOL     OW48353   9.074   7.419   2.897 -1.2591 -0.5110  0.1869
15534SOL    HW148354   9.021   7.335   2.910 -1.7896 -0.0618  0.9321
15534SOL    HW248355   9.082   7.467   2.984 -0.6596  0.0369 -0.1709
15535SOL     OW48356   2.216   2.226   4.871  0.5318  0.1835 -0.4655
15535SOL    HW148357   2.283   2.247   4.943 -1.6373  0.2913  1.5721
15535SOL    HW248358   2.248   2.147   4.818  1.9392 -0.1937  0.9105
15540SOL     OW48359   2.296   7.352   1.513 -0.5074  0.3579  0.1175
15540SOL    HW148360   2.211   7.298   1.512 -0.1496 -0.2123 -0.1873
15540SOL    HW248361   2.374   7.290   1.501 -0.0368  0.8594  0.5874
15541SOL     OW48362   8.548   9.938   4.901 -0.5243 -0.2171  0.1755
15541SOL    HW148363   8.485   9.947   4.823  1.1952 -3.1663 -1.6599
15541SOL    HW248364   8.638   9.971   4.874 -0.1152 -0.4633  1.2259
15542SOL     OW48365   5.756   0.760   4.123  0.0319  0.1306 -0.3731
15542SOL    HW148366   5.852   0.765   4.150 -0.7218 -0.4139  2.6447
15542SOL    HW248367   5.749   0.724   4.030  2.7624  0.8082 -0.8703
15543SOL     OW48368   9.511   8.100   1.479 -0.2208 -0.7292  0.0099
15543SOL    HW148369   9.579   8.041   1.436  0.6444 -0.2842  0.7395
15543SOL    HW248370   9.434   8.044   1.512  1.0077 -1.5834  1.5085
15545SOL     OW48371   2.930   5.896   1.280 -0.9686 -0.3911 -0.4289
15545SOL    HW148372   2.999   5.859   1.217 -1.1990 -0.8808 -0.3953
15545SOL    HW248373   2.955   5.873   1.374  1.1785  3.2141 -0.0248
15546SOL     OW48374   6.189   2.468   3.856 -1.2343 -0.1251  0.3698
15546SOL    HW148375   6.227   2.478   3.765  0.0607 -1.7271  0.7063
15546SOL    HW248376   6.209   2.376   3.891 -0.9071  0.7514  2.6081
15547SOL     OW48377   4.968   9.055   1.063  0.3025  0.1893 -0.3719
15547SOL    HW148378   4.890   9.000   1.096  0.1304  0.2356 -0.6917
15547SOL    HW248379   4.976   9.137   1.118  1.7898 -1.1009  1.4001
15548SOL     OW48380   2.484   6.157   4.724  0.3631 -0.1770 -0.3337
15548SOL    HW148381   2.471   6.256   4.723  0.3339 -0.1852 -1.0782
15548SOL    HW248382   2.539   6.131   4.804 -1.2112  0.2353  0.9119
15550SOL     OW48383   3.503   0.463   3.080 -0.0549  0.0109  0.5279
15550SOL    HW148384   3.488   0.417   2.993  1.0182  0.8316 -0.0994
15550SOL    HW248385   3.496   0.562   3.066  0.0961  0.1441  1.3811
15551SOL     OW48386   3.674   3.042   2.835  0.1521  0.3818 -0.3232
15551SOL    HW148387   3.649   3.117   2.896 -2.2223  0.8902 -1.8420
15551SOL    HW248388   3.597   2.979   2.827  2.1206 -2.2989  0.9553
15552SOL     OW48389   2.172   2.969   3.453 -0.4510  0.5168  0.3023
15552SOL    HW148390   2.144   2.900   3.387 -0.6585  2.2971 -1.5256
15552SOL    HW248391   2.104   2.975   3.526  0.1733 -2.0150  1.1567
15553SOL     OW48392   8.288   4.850   4.722 -0.7964 -0.1432 -0.1479
15553SOL    HW148393   8.371   4.886   4.679 -0.7528 -1.6905 -1.4038
15553SOL    HW248394   8.276   4.891   4.812  0.8867  0.7116 -0.3051
15554SOL     OW48395   2.273   1.957   2.580 -0.4910  0.4774  0.3347
15554SOL    HW148396   2.358   1.908   2.559  0.0815  1.0298  1.3453
15554SOL    HW248397   2.283   2.006   2.667 -1.2838  1.8842 -0.3603
15556SOL     OW48398   4.488   4.176   5.221  0.2753  0.4272 -0.0212
15556SOL    HW148399   4.493   4.181   5.121 -0.3032 -1.3121 -0.1441
15556SOL    HW248400   4.537   4.254   5.260  1.6039  0.4404 -1.6432
15558SOL     OW48401   9.659   7.538   3.515 -0.7469 -0.9461  0.4615
15558SOL    HW148402   9.602   7.469   3.559 -1.4514  0.9109  2.5637
15558SOL    HW248403   9.727   7.572   3.580  1.0323 -1.2303 -1.2139
15559SOL     OW48404   0.257   1.636   4.497  0.1047  0.0525  0.2209
15559SOL    HW148405   0.167   1.604   4.469  0.8639 -2.2769  0.3296
15559SOL    HW248406   0.311   1.559   4.530  2.2064  1.3831 -0.0081
15560SOL     OW48407   0.513   7.301   1.992  0.3793  0.1010  0.4641
15560SOL    HW148408   0.559   7.215   1.971 -1.3455 -0.7707  0.1239
15560SOL    HW248409   0.482   7.343   1.906 -0.9114 -0.1766  0.7767
15561SOL     OW48410   1.298   7.317   1.047  0.4175  0.6779 -0.7032
15561SOL    HW148411   1.370   7.297   1.113  1.4955  1.5633 -1.5914
15561SOL    HW248412   1.212   7.336   1.096  0.3376 -2.0707  0.2878
15562SOL     OW48413   8.716   5.306   2.537 -0.6062  0.0625  0.2213
15562SOL    HW148414   8.688   5.319   2.442 -0.6612 -0.7704  0.1210
15562SOL    HW248415   8.700   5.211   2.564  0.9232 -0.1219  0.5572
15563SOL     OW48416   7.729   1.856   4.406 -0.4120  0.6563 -0.1225
15563SOL    HW148417   7.674   1.827   4.485 -0.3408 -0.8449 -0.6137
15563SOL    HW248418   7.826   1.841   4.425 -0.3391  1.0643 -0.1763
15564SOL     OW48419   2.816   3.000   4.754 -0.6588 -0.0851  0.1792
15564SOL    HW148420   2.869   2.931   4.804  0.3299 -0.6104 -1.5479
15564SOL    HW248421   2.821   3.087   4.802 -0.2489 -0.7175  1.3112
15565SOL     OW48422   3.645   9.656   3.939 -0.6136  0.1266 -0.2595
15565SOL    HW148423   3.736   9.614   3.941  0.4113  2.2254 -0.5167
15565SOL    HW248424   3.595   9.631   4.022  0.1106 -1.2202 -0.2163
15566SOL     OW48425   7.100   9.939   2.998  0.4331  0.0649  0.1077
15566SOL    HW148426   7.121  10.037   2.996  0.4202  0.0464 -1.6538
15566SOL    HW248427   7.012   9.924   2.953  1.1164 -0.9285 -0.8848
15567SOL     OW48428   3.820   9.876   3.873  0.1354 -0.0936 -0.0845
15567SOL    HW148429   3.814   9.878   3.773  0.4000 -1.5329 -0.1402
15567SOL    HW248430   3.768   9.797   3.907  0.5443  0.0517  0.8748
15568SOL     OW48431   2.475   0.829   3.025  0.6036 -0.0717 -0.2355
15568SOL    HW148432   2.503   0.925   3.016  2.1918 -0.4306  0.7912
15568SOL    HW248433   2.520   0.775   2.954  1.8605 -0.5111  0.8934
15569SOL     OW48434   3.423   3.949   3.917  0.1506  0.1966  0.3420
15569SOL    HW148435   3.383   3.920   3.830 -0.6230  0.2763  0.6675
15569SOL    HW248436   3.458   4.042   3.909 -0.3636  0.3835  0.2564
15570SOL     OW48437   7.978   1.327   5.081 -0.2670  0.2704 -0.2998
15570SOL    HW148438   7.939   1.408   5.038 -0.7344  0.0279 -0.3380
15570SOL    HW248439   8.016   1.267   5.011 -1.9543 -0.6129 -0.4696
15571SOL     OW48440   4.871   9.555   5.038 -0.1942  0.1629  0.1183
15571SOL    HW148441   4.784   9.548   4.990  0.0413  1.1887 -0.4561
15571SOL    HW248442   4.875   9.641   5.089 -0.3410 -0.7968  1.7993
15572SOL     OW48443   7.893   3.939   3.895  0.1346  0.2412 -0.3643
15572SOL    HW148444   7.896   3.923   3.796  2.6743  1.9214 -0.6103
15572SOL    HW248445   7.848   3.862   3.940 -1.9707 -0.1052 -2.8980
15573SOL     OW48446   8.369   4.805   0.620 -0.0727 -0.4766 -0.2433
15573SOL    HW148447   8.403   4.840   0.707  0.5697 -0.8496 -0.3460
15573SOL    HW248448   8.307   4.729   0.637  0.5401 -0.9523 -0.1396
15574SOL     OW48449   4.031   5.071   2.643 -0.1379  0.5709  0.2221
15574SOL    HW148450   3.955   5.007   2.638  0.2559  0.1911 -0.9592
15574SOL    HW248451   4.040   5.105   2.737 -0.9682 -0.3417  0.6338
15575SOL     OW48452   8.403   6.484   1.226  0.2014 -0.4985  0.1990
15575SOL    HW148453   8.383   6.387   1.244  1.8460 -0.4842  2.2576
15575SOL    HW248454   8.451   6.491   1.138 -1.8265 -1.3041 -1.0122
15577SOL     OW48455   9.217   3.608   1.429 -0.5104 -0.2231  0.8349
15577SOL    HW148456   9.219   3.510   1.443  0.9676 -0.1467  1.2366
15577SOL    HW248457   9.138   3.647   1.476 -1.1801 -1.2321  0.5509
15578SOL     OW48458   8.920   9.960   0.936 -0.1396  0.0027  0.3732
15578SOL    HW148459   8.837   9.952   0.881 -0.7254  0.6815  1.1425
15578SOL    HW248460   8.899  10.006   1.023  1.4123  2.1466 -0.3153
15579SOL     OW48461   8.640   8.967   0.895 -0.0624  0.1680 -0.0938
15579SOL    HW148462   8.631   8.987   0.798  0.1741  1.0393  0.0552
15579SOL    HW248463   8.649   9.053   0.946  0.2162 -0.2957  0.6512
15580SOL     OW48464   1.946   9.811   4.750  0.7245 -0.2933 -0.3822
15580SOL    HW148465   1.991   9.748   4.814 -0.0779 -0.4179  0.0570
15580SOL    HW248466   2.001   9.894   4.742  1.4540 -0.7715 -0.4676
15581SOL     OW48467   8.231   6.794   3.429 -0.4034  0.4527 -0.2742
15581SOL    HW148468   8.321   6.753   3.438 -1.8668 -2.9016 -0.0149
15581SOL    HW248469   8.233   6.888   3.463  2.6798  0.0055  0.9004
15583SOL     OW48470   4.671   2.534   5.223 -0.0601 -0.5092 -0.2478
15583SOL    HW148471   4.713   2.464   5.282  0.3077  0.2771  0.4329
15583SOL    HW248472   4.742   2.593   5.185 -0.5194  0.8545  0.9487
15584SOL     OW48473   5.593   8.468   2.500 -0.1107  0.1560 -0.0325
15584SOL    HW148474   5.629   8.429   2.415  0.7277  0.3839  0.2191
15584SOL    HW248475   5.618   8.564   2.506 -0.1842  0.1447  0.4688
15585SOL     OW48476   7.567   2.034   5.097  0.4836 -0.1013  0.2288
15585SOL    HW148477   7.516   2.094   5.159  1.7909  0.7867  0.4686
15585SOL    HW248478   7.658   2.017   5.134  0.7490 -0.8005 -0.7166
15586SOL     OW48479   4.117   1.536   5.008  0.3481  0.2209  0.8851
15586SOL    HW148480   4.059   1.474   5.062  0.1538  0.2079  0.6593
15586SOL    HW248481   4.205   1.545   5.053 -0.3614  1.4530  2.0500
15588SOL     OW48482   3.310   9.871   0.075  0.1361  0.1467  0.7411
15588SOL    HW148483   3.211   9.862   0.068  0.2576 -0.6865 -0.0876
15588SOL    HW248484   3.352   9.851  -0.014  1.2220 -2.4621  1.7774
15589SOL     OW48485   8.831   0.682   4.436  0.0933 -0.3894 -0.0815
15589SOL    HW148486   8.797   0.770   4.404  0.4897 -0.3732 -0.4744
15589SOL    HW248487   8.811   0.671   4.533 -0.9318 -0.3406 -0.2827
15590SOL     OW48488   3.372   9.115   2.522 -0.1770  0.5366  0.5126
15590SOL    HW148489   3.307   9.058   2.472 -0.7441  1.0045  0.7114
15590SOL    HW248490   3.458   9.122   2.471 -0.3208  0.0020  0.2023
15591SOL     OW48491   1.347   1.955   0.461 -0.4892  0.3369  0.2863
15591SOL    HW148492   1.324   1.993   0.372  0.1563 -0.7636 -0.3528
15591SOL    HW248493   1.295   2.003   0.532 -0.3736  1.7840 -0.5903
15592SOL     OW48494   7.157   0.031   4.011 -0.4916  0.2052 -0.4764
15592SOL    HW148495   7.085   0.015   3.944 -0.0272 -1.2679 -0.6427
15592SOL    HW248496   7.245   0.003   3.973  0.0708  1.3408 -0.0253
15593SOL     OW48497   6.948   0.331   3.773  0.5390  0.2134 -0.0656
15593SOL    HW148498   7.003   0.414   3.776 -2.4235  2.3336 -1.3412
15593SOL    HW248499   6.885   0.330   3.851 -0.7464  0.1561 -1.0892
15594SOL     OW48500   8.772   4.525   2.598  0.5842  0.1545  0.2272
15594SOL    HW148501   8.753   4.487   2.688 -0.8578  1.1667  0.3697
15594SOL    HW248502   8.697   4.502   2.536  1.0465  0.3908 -0.4273
15595SOL     OW48503   1.214   9.108   2.774  0.4538 -0.1507 -0.5266
15595SOL    HW148504   1.165   9.054   2.706  0.0315 -0.7690  0.2580
15595SOL    HW248505   1.297   9.147   2.733  0.3990 -0.8234 -1.2814
15596SOL     OW48506   5.025   5.003   1.312  0.4925  0.4401  0.0612
15596SOL    HW148507   5.070   4.915   1.325  0.2491  0.3483  0.2966
15596SOL    HW248508   5.047   5.063   1.389 -1.0842 -0.1598  1.0254
15597SOL     OW48509   0.613   4.019   4.973  0.2363 -0.1002  0.0807
15597SOL    HW148510   0.582   4.055   5.061 -1.0123 -0.8333 -0.0540
15597SOL    HW248511   0.625   3.920   4.979  0.5644 -0.0943 -0.4544
15598SOL     OW48512   8.861   3.987   1.427  0.0126 -0.0140  0.4679
15598SOL    HW148513   8.868   4.079   1.388  2.3154  0.2358  1.4154
15598SOL    HW248514   8.947   3.962   1.471 -0.8531 -2.3137  0.9551
15599SOL     OW48515   7.681   0.035   0.976  0.6071  0.3033 -0.7819
15599SOL    HW148516   7.625   0.029   0.893  0.4258  0.4913 -0.6749
15599SOL    HW248517   7.732  -0.050   0.988 -1.2410 -0.6755  0.2489
15600SOL     OW48518   9.979   0.668   3.453 -0.0381  0.2833 -0.5348
15600SOL    HW148519   9.965   0.763   3.427 -2.8231  0.0838  0.0246
15600SOL    HW248520   9.910   0.611   3.407 -0.4407 -1.0198  1.5975
15601SOL     OW48521   3.577   6.368   4.981 -0.1034  0.2823  0.1943
15601SOL    HW148522   3.502   6.401   5.038 -0.5415 -0.8076  0.2743
15601SOL    HW248523   3.564   6.399   4.887  0.6147  2.0729  0.6765
15602SOL     OW48524   4.195   5.678   1.022 -0.5623  0.0331 -0.2126
15602SOL    HW148525   4.251   5.605   1.061 -0.8935 -0.1214 -0.0333
15602SOL    HW248526   4.181   5.661   0.924 -0.8155 -0.2512 -0.1263
15603SOL     OW48527   8.439   6.740   0.983  0.2300  0.2781  0.2978
15603SOL    HW148528   8.536   6.765   0.978  0.9293 -2.2781  0.3914
15603SOL    HW248529   8.390   6.781   0.906  1.2195  2.1831  0.6457
15604SOL     OW48530   3.046   9.319   0.631 -0.3206 -0.0062 -0.1988
15604SOL    HW148531   3.072   9.382   0.704  0.7319 -1.3477  0.5835
15604SOL    HW248532   2.964   9.355   0.585  0.5271  2.1756 -0.0789
15605SOL     OW48533   9.401   1.318   1.504  0.1844 -0.0327 -0.2335
15605SOL    HW148534   9.477   1.263   1.538 -0.2479 -0.3206  0.2778
15605SOL    HW248535   9.422   1.415   1.515  0.1599 -0.1192  0.6106
15606SOL     OW48536   1.401   5.542   0.835  0.5154  0.1771 -0.4318
15606SOL    HW148537   1.448   5.629   0.823  1.1289 -0.0152  0.5990
15606SOL    HW248538   1.459   5.468   0.802  0.0962  0.1314 -1.0711
15607SOL     OW48539   8.201   1.878   0.013 -0.2479 -0.7647  0.0017
15607SOL    HW148540   8.229   1.965   0.054 -0.5760 -0.3893 -0.5692
15607SOL    HW248541   8.269   1.851  -0.056  0.2738 -1.3659  0.7354
15610SOL     OW48542   2.122   6.172   3.617  0.1621 -0.2685  0.3021
15610SOL    HW148543   2.046   6.143   3.675  0.6190 -0.5641  0.7460
15610SOL    HW248544   2.176   6.242   3.664  0.9444 -1.0154  0.5143
15611SOL     OW48545   2.832   7.136   0.666  0.3901  0.5936  0.0816
15611SOL    HW148546   2.745   7.099   0.698  1.2674  0.6563  2.6676
15611SOL    HW248547   2.818   7.226   0.626 -0.7677  0.4612  0.1865
15612SOL     OW48548   6.733   0.863   2.568 -0.4955 -0.3399  0.2981
15612SOL    HW148549   6.827   0.832   2.587  0.5176  1.6775 -1.1675
15612SOL    HW248550   6.693   0.805   2.497 -0.3439 -1.2021  0.9155
15613SOL     OW48551   1.482   0.880   4.732 -0.1313 -0.0939 -0.1876
15613SOL    HW148552   1.486   0.796   4.786  0.3463  1.2973  1.9914
15613SOL    HW248553   1.573   0.920   4.724 -0.4102  0.4333 -0.8946
15614SOL     OW48554   4.268   8.213   2.177 -0.1312  0.3214 -0.0519
15614SOL    HW148555   4.295   8.216   2.273  0.9430  0.0588 -0.3400
15614SOL    HW248556   4.191   8.275   2.162 -1.8128 -1.3346  1.4351
15618SOL     OW48557   2.676   5.568   3.516 -0.4587  0.1376  0.1964
15618SOL    HW148558   2.623   5.547   3.434  2.1466  0.0275 -1.5120
15618SOL    HW248559   2.667   5.494   3.582  1.5310 -2.2815 -2.1355
15620SOL     OW48560   3.495   6.793   0.565  0.2713 -0.3452 -0.4747
15620SOL    HW148561   3.560   6.789   0.490 -0.5506  0.2128 -1.2301
15620SOL    HW248562   3.527   6.857   0.634  0.5108 -0.0507 -0.8596
15621SOL     OW48563   8.542   3.768   1.844  0.2503 -0.1969  0.3876
15621SOL    HW148564   8.536   3.670   1.863 -0.3588 -0.2892 -0.2745
15621SOL    HW248565   8.453   3.802   1.814  0.5466  0.4835  0.2582
15622SOL     OW48566   2.881   8.555   2.004  0.3939  0.3425 -0.4272
15622SOL    HW148567   2.815   8.629   1.991  0.4454  0.0350 -2.8062
15622SOL    HW248568   2.961   8.589   2.054 -1.0213  1.0202  1.3989
15623SOL     OW48569   7.080   1.707   0.501 -0.1768  0.4970 -0.0586
15623SOL    HW148570   7.125   1.767   0.567 -0.8379  0.8261  0.0953
15623SOL    HW248571   7.016   1.760   0.445  1.2340  0.4431 -1.7647
15625SOL     OW48572   2.530   0.423   3.172  0.5956  0.2592 -0.1124
15625SOL    HW148573   2.587   0.364   3.229 -0.3217 -0.2736  0.2747
15625SOL    HW248574   2.488   0.494   3.228  2.6943  2.0855 -0.7903
15626SOL     OW48575   4.737   4.703   0.145  0.2010  0.1726 -0.0246
15626SOL    HW148576   4.751   4.801   0.161  1.5727 -0.2741  1.6819
15626SOL    HW248577   4.649   4.676   0.184  0.7445  0.3363  1.3600
15627SOL     OW48578   5.006   4.057   4.521  0.1645  0.3636 -0.0606
15627SOL    HW148579   5.102   4.052   4.548  0.5514 -0.3785 -1.5291
15627SOL    HW248580   4.983   4.152   4.497  0.4151  0.6132  0.6681
15628SOL     OW48581   9.993   7.862   2.421 -0.4576 -0.2499  0.1961
15628SOL    HW148582  10.020   7.833   2.513 -1.0754  1.7595  1.0543
15628SOL    HW248583   9.893   7.873   2.418 -0.3578  0.5362 -0.4426
15630SOL     OW48584   0.470   8.011   4.117 -0.0025 -0.2052  0.2432
15630SOL    HW148585   0.436   8.005   4.023  0.6497  2.0568 -0.1913
15630SOL    HW248586   0.564   7.976   4.121  0.1048  0.0461 -0.0451
15631SOL     OW48587   2.284   9.841   3.297 -0.2963  0.1834  0.1581
15631SOL    HW148588   2.340   9.906   3.246 -1.4961 -0.3249 -1.8698
15631SOL    HW248589   2.292   9.750   3.254 -0.4366 -0.4991  1.5612
15632SOL     OW48590   8.302   2.259   2.153  0.0132 -0.0238 -0.3435
15632SOL    HW148591   8.386   2.290   2.108 -0.8276 -0.1527 -2.0557
15632SOL    HW248592   8.314   2.164   2.184  1.5339  0.9460  2.1948
15633SOL     OW48593   1.891   3.131   3.539 -0.3418 -0.2678 -0.0060
15633SOL    HW148594   1.977   3.180   3.523 -0.6435  0.3911  0.4130
15633SOL    HW248595   1.820   3.196   3.566 -0.9482 -0.8272 -0.2594
15634SOL     OW48596   9.254   4.838   0.171  0.1464  0.3737  0.3215
15634SOL    HW148597   9.273   4.753   0.122 -0.5214  0.2140  0.3332
15634SOL    HW248598   9.314   4.845   0.251 -1.3128 -1.1630  1.5792
15635SOL     OW48599   0.691   0.676   4.146 -0.2334 -0.1275 -0.3880
15635SOL    HW148600   0.743   0.611   4.201  2.5872  1.8346 -0.6146
15635SOL    HW248601   0.738   0.691   4.059 -1.3384  1.4842 -0.7412
15636SOL     OW48602   7.971   3.977   0.216  0.0283  0.0973  0.2076
15636SOL    HW148603   8.051   3.929   0.252  0.6752  0.7856 -0.2983
15636SOL    HW248604   7.896   3.971   0.281  0.3547 -0.9188  0.5011
15637SOL     OW48605   4.397   3.889   3.635 -0.0992 -0.4247  0.1598
15637SOL    HW148606   4.418   3.794   3.611 -0.6510 -0.5627  0.2149
15637SOL    HW248607   4.442   3.912   3.720  0.7315 -0.3708 -0.2901
15638SOL     OW48608   2.623   4.209   2.029  0.1699 -0.4411  0.0476
15638SOL    HW148609   2.583   4.251   1.948 -1.0720  2.1215  1.8957
15638SOL    HW248610   2.705   4.259   2.056 -0.6186  0.1057  1.5499
15640SOL     OW48611   4.801   5.151   2.547 -0.6412  0.2970 -0.0955
15640SOL    HW148612   4.863   5.077   2.523 -1.8636 -0.0735 -2.2195
15640SOL    HW248613   4.762   5.134   2.638  1.5196  0.0031  0.7919
15641SOL     OW48614   0.588   2.847   4.322  0.1471  0.3642  0.1593
15641SOL    HW148615   0.540   2.777   4.269  0.9348 -0.8311  1.0061
15641SOL    HW248616   0.521   2.901   4.373 -0.3908 -0.5997  0.4992
15642SOL     OW48617   4.662   7.791   3.434  0.1064 -0.4374 -0.3058
15642SOL    HW148618   4.692   7.727   3.505 -2.0821 -0.7407  0.3848
15642SOL    HW248619   4.620   7.740   3.358 -0.6549  0.0833 -0.2468
15643SOL     OW48620   5.805   9.184   3.155  0.6487  0.0784 -0.0675
15643SOL    HW148621   5.850   9.109   3.107  0.0289 -1.3459  1.5386
15643SOL    HW248622   5.762   9.244   3.089  2.7087  0.0564 -1.4893
15644SOL     OW48623   9.435   2.811   1.898  0.4443 -0.1983  0.2486
15644SOL    HW148624   9.499   2.778   1.828  0.4340  1.7565 -0.7110
15644SOL    HW248625   9.342   2.802   1.864  0.4674  1.2817 -0.2382
15645SOL     OW48626   8.529   0.048   4.110 -0.3293 -0.1420  0.1791
15645SOL    HW148627   8.538   0.147   4.099  0.2786 -0.4140 -1.9028
15645SOL    HW248628   8.549   0.023   4.205  2.6071  1.3758  0.0067
15646SOL     OW48629   2.638   8.572   0.167 -0.3104  0.1972 -0.4602
15646SOL    HW148630   2.717   8.529   0.211  0.3670  0.4158 -1.4432
15646SOL    HW248631   2.597   8.507   0.103 -0.7600  0.1793 -0.1526
15647SOL     OW48632   0.951   1.949   4.430 -0.3973 -0.1960  0.4458
15647SOL    HW148633   0.949   1.852   4.456  2.2609 -0.9781 -1.9942
15647SOL    HW248634   0.906   1.961   4.342  1.6680  0.2913 -0.5747
15648SOL     OW48635   8.097   6.945   4.061 -0.5759  0.1133  0.3667
15648SOL    HW148636   8.059   7.033   4.088  0.8512  0.3799  1.5043
15648SOL    HW248637   8.151   6.956   3.978  1.2732  0.6991  1.6293
15649SOL     OW48638   0.781   6.435   0.382  0.5629 -0.1255  0.3378
15649SOL    HW148639   0.685   6.461   0.395  0.8350  1.1086 -0.0272
15649SOL    HW248640   0.802   6.356   0.439 -0.5417 -0.0921  0.8035
15650SOL     OW48641   6.341   7.606   4.313 -0.0498 -0.1902 -0.1494
15650SOL    HW148642   6.369   7.545   4.387  0.5346 -1.2164 -1.2131
15650SOL    HW248643   6.303   7.690   4.352 -1.2295 -1.3784  1.3441
15651SOL     OW48644   9.263   1.082   0.528  0.4766 -0.0290  0.5829
15651SOL    HW148645   9.282   0.995   0.573 -0.7914 -1.9214 -2.4142
15651SOL    HW248646   9.318   1.090   0.445 -1.8313  0.4908 -0.9498
15655SOL     OW48647   4.576   3.292   4.371 -0.3003  0.5443  0.2244
15655SOL    HW148648   4.645   3.341   4.320  1.0667 -0.0069  1.5019
15655SOL    HW248649   4.509   3.253   4.308  0.7291  0.8139 -1.0485
15656SOL     OW48650   1.383   7.221   4.474 -0.1585  1.2964 -0.0148
15656SOL    HW148651   1.472   7.176   4.472 -0.5536  0.4701 -4.0472
15656SOL    HW248652   1.367   7.266   4.386 -3.0215  2.8458  1.2377
15657SOL     OW48653   1.442   2.430   0.939  0.9366  0.4573  0.0971
15657SOL    HW148654   1.489   2.345   0.915  2.2705  1.0408  0.5855
15657SOL    HW248655   1.358   2.438   0.885  0.3908 -1.5348  0.6089
15659SOL     OW48656   3.777   2.871   1.614  0.0370  0.2031  0.3964
15659SOL    HW148657   3.848   2.802   1.626 -0.3167 -0.8981 -3.1791
15659SOL    HW248658   3.693   2.840   1.658  0.3259 -0.9038  0.1886
15660SOL     OW48659   4.926   1.621   3.883 -0.1496 -0.3855 -0.2172
15660SOL    HW148660   5.007   1.602   3.939  0.8499  0.1349 -1.4676
15660SOL    HW248661   4.861   1.675   3.937  0.3581 -0.7368  0.7706
15661SOL     OW48662   8.429   1.465   3.691  0.1964  0.4415  0.4963
15661SOL    HW148663   8.503   1.415   3.735 -0.3428 -0.5235  0.3483
15661SOL    HW248664   8.407   1.421   3.604 -0.3311  0.9037  0.3919
15662SOL     OW48665   1.568   5.091   4.855  0.6941  0.1961  0.3085
15662SOL    HW148666   1.492   5.028   4.836  1.7701 -0.8838 -0.5304
15662SOL    HW248667   1.555   5.176   4.805  0.5585 -0.3977 -0.6785
15663SOL     OW48668   9.081   6.234   0.749 -0.2569 -0.0581  0.1336
15663SOL    HW148669   9.024   6.286   0.685 -1.6723  0.8988  2.1407
15663SOL    HW248670   9.167   6.282   0.764 -0.2623  0.1285 -0.4194
15666SOL     OW48671   0.908   8.660   1.572  0.5471 -0.3412  0.4690
15666SOL    HW148672   0.823   8.665   1.624 -0.9075 -1.6712 -1.6984
15666SOL    HW248673   0.986   8.662   1.635 -1.1153 -0.6565  2.5860
15667SOL     OW48674   7.778   9.848   4.526  0.0401  0.0897 -0.2109
15667SOL    HW148675   7.876   9.854   4.504  0.1382  0.6409  0.3449
15667SOL    HW248676   7.738   9.768   4.481  1.0727 -0.9854  0.7652
15668SOL     OW48677   4.488   8.936   0.642  0.6048 -0.4534  0.1859
15668SOL    HW148678   4.458   8.842   0.656 -0.9311  0.0186  0.2029
15668SOL    HW248679   4.526   8.946   0.550 -0.8159 -0.6973 -0.4361
15669SOL     OW48680   8.768   6.670   1.705  0.3711  0.2107 -0.2196
15669SOL    HW148681   8.712   6.741   1.749  0.5213  0.0103  0.2870
15669SOL    HW248682   8.794   6.701   1.614  0.4815  0.8337  0.0209
15670SOL     OW48683   8.228   9.322   3.017  0.1450  0.5177  0.3099
15670SOL    HW148684   8.224   9.287   2.923  1.1165  1.9008 -0.2756
15670SOL    HW248685   8.244   9.421   3.014  0.7269  0.4789  1.9355
15671SOL     OW48686   9.368   7.625   2.047 -0.0519 -0.9208  0.0153
15671SOL    HW148687   9.282   7.651   2.003  0.6109 -0.8397 -1.2479
15671SOL    HW248688   9.369   7.659   2.141 -1.2656 -0.6553 -0.0563
15672SOL     OW48689   1.356   2.011   3.352  0.3152  0.0484 -0.2876
15672SOL    HW148690   1.412   2.052   3.424  0.6571 -1.2120  0.1690
15672SOL    HW248691   1.358   1.911   3.360 -0.4901 -0.0706 -1.4071
15674SOL     OW48692   2.737   0.252   3.339 -0.2652  0.6489 -0.2684
15674SOL    HW148693   2.809   0.308   3.379 -1.6623  1.5095  1.1417
15674SOL    HW248694   2.735   0.163   3.384 -0.8752  1.0869  0.6094
15675SOL     OW48695   3.194   4.395   4.746  0.1446  0.3900  0.3556
15675SOL    HW148696   3.244   4.391   4.833 -0.4812 -2.1581  0.6578
15675SOL    HW248697   3.115   4.456   4.756  1.0463  1.4480  1.0530
15676SOL     OW48698   9.574   0.293   0.553  0.5133  0.1469  0.0142
15676SOL    HW148699   9.663   0.248   0.556 -0.2955 -1.5305 -0.4100
15676SOL    HW248700   9.516   0.257   0.626  0.2369  1.3515  0.3953
15677SOL     OW48701   0.732   4.886   0.998 -0.0891 -0.4812  0.2142
15677SOL    HW148702   0.671   4.917   1.071  0.9180 -0.2316  0.9593
15677SOL    HW248703   0.728   4.786   0.992 -1.0842 -0.4273 -0.2064
15678SOL     OW48704   4.766   1.733   3.688  0.0984  0.2399 -0.2505
15678SOL    HW148705   4.829   1.679   3.745  0.8427  2.0299  0.6713
15678SOL    HW248706   4.679   1.744   3.736  0.0504  0.1155 -0.3092
15679SOL     OW48707   3.721   4.486   1.077 -0.0633 -0.1603 -0.2420
15679SOL    HW148708   3.769   4.432   1.008 -0.2745 -1.7451  0.8341
15679SOL    HW248709   3.767   4.574   1.088  0.7680 -0.4327 -1.4230
15680SOL     OW48710   4.814   1.808   3.088  0.5025  0.1595  0.3021
15680SOL    HW148711   4.911   1.826   3.104  1.0080 -0.0623 -2.2293
15680SOL    HW248712   4.798   1.709   3.093  0.6239  0.1070 -0.2550
15682SOL     OW48713   0.991   9.505   0.916 -0.0403 -0.7727  0.0681
15682SOL    HW148714   0.943   9.512   0.829 -1.8963 -2.7201  0.8513
15682SOL    HW248715   0.924   9.509   0.991  1.1512 -2.1189  1.2587
15683SOL     OW48716   3.814   1.028   1.616 -0.3503  0.3797  0.0291
15683SOL    HW148717   3.825   1.126   1.634 -2.0284  0.6084 -0.0774
15683SOL    HW248718   3.872   0.975   1.678  0.6394  1.4499  0.0169
15684SOL     OW48719   2.153   2.139   2.941  0.5185 -0.3735 -0.4243
15684SOL    HW148720   2.199   2.090   3.015  1.5866  0.7494 -0.3351
15684SOL    HW248721   2.218   2.159   2.868 -0.3742 -0.8797 -1.3826
15688SOL     OW48722   3.935   4.613   4.938  0.2505 -0.0336 -0.2980
15688SOL    HW148723   3.849   4.649   4.973  1.6554  1.2057  2.0460
15688SOL    HW248724   3.968   4.672   4.864  0.9998  1.8115  1.4506
15692SOL     OW48725   0.700   0.274   3.411 -0.1220  0.4916 -0.4682
15692SOL    HW148726   0.779   0.334   3.397 -0.8929  1.5697 -0.2146
15692SOL    HW248727   0.724   0.202   3.476  0.4122  1.2876  0.2221
15693SOL     OW48728   0.965   3.942   3.555 -0.6834 -0.0015  0.7071
15693SOL    HW148729   1.043   3.990   3.517  0.8307 -2.2668  0.8330
15693SOL    HW248730   0.897   4.008   3.587  1.1064  2.0017  0.4864
15694SOL     OW48731   7.559   3.589   1.679 -0.2846 -0.0068  0.8980
15694SOL    HW148732   7.622   3.530   1.628 -0.4823  1.8914 -1.6284
15694SOL    HW248733   7.470   3.588   1.635 -0.2574  2.2595  0.7319
15695SOL     OW48734   1.618   8.617   4.157 -0.0897  0.3612  0.0807
15695SOL    HW148735   1.535   8.672   4.144 -0.3377 -0.0340 -0.0251
15695SOL    HW248736   1.659   8.599   4.068 -0.8051 -0.8367 -0.0169
15696SOL     OW48737   7.727   9.926   3.459  0.1203  0.1628 -0.0284
15696SOL    HW148738   7.710   9.964   3.550 -2.1530 -0.0852 -0.3039
15696SOL    HW248739   7.701   9.829   3.459  1.8186 -0.2938 -0.4648
15698SOL     OW48740   2.712   5.117   3.348 -0.0326  0.2097 -0.3785
15698SOL    HW148741   2.761   5.073   3.272  2.0839  1.2474  0.3598
15698SOL    HW248742   2.734   5.214   3.350 -0.3341  0.2518  1.3720
15700SOL     OW48743   1.017   7.864   3.466  0.0670  0.1393  0.1085
15700SOL    HW148744   0.974   7.910   3.390  1.0674  1.4435  0.3222
15700SOL    HW248745   1.036   7.769   3.441  0.4007  0.5606 -1.2595
15701SOL     OW48746   4.961   0.232   1.445  0.0223 -0.1172  0.8096
15701SOL    HW148747   5.048   0.243   1.492  0.2934  0.5740  0.1656
15701SOL    HW248748   4.978   0.219   1.347 -0.6238  0.7353  0.5771
15702SOL     OW48749   7.436   0.968   4.200  0.4628  0.0667 -0.0288
15702SOL    HW148750   7.486   1.048   4.234  0.6901 -0.7829  1.7113
15702SOL    HW248751   7.462   0.887   4.254 -1.6409 -0.6883 -0.0933
15703SOL     OW48752   7.852   0.602   0.991  0.0085 -0.4176 -0.7471
15703SOL    HW148753   7.922   0.574   0.925  0.3183 -0.7677 -0.2646
15703SOL    HW248754   7.878   0.689   1.033  0.1572 -0.5547 -0.5579
15705SOL     OW48755   1.517   6.373   1.666 -0.2411 -0.3708  0.3439
15705SOL    HW148756   1.425   6.341   1.689 -0.9889 -0.2214 -2.3219
15705SOL    HW248757   1.571   6.296   1.632 -0.1158  0.0115 -0.3155
15706SOL     OW48758   1.723   4.932   1.850 -0.3116 -0.2603 -0.5676
15706SOL    HW148759   1.703   4.877   1.931  0.6160 -0.8997 -0.7630
15706SOL    HW248760   1.640   4.944   1.797 -1.7060  2.9208  2.1266
15707SOL     OW48761   4.870   5.216   3.305  0.2786  0.8432  0.1298
15707SOL    HW148762   4.921   5.302   3.303  0.7215  0.6223  1.3836
15707SOL    HW248763   4.931   5.140   3.284  0.0942  0.7485 -0.0608
15708SOL     OW48764   5.430   1.400   3.722 -0.1732 -0.1192 -0.2188
15708SOL    HW148765   5.480   1.433   3.642 -1.2519  3.9156  0.6631
15708SOL    HW248766   5.495   1.381   3.796  0.7351 -2.9099 -1.6620
15710SOL     OW48767   6.057   9.716   3.293  0.6557  0.9285 -0.5147
15710SOL    HW148768   5.999   9.646   3.335  0.4120  1.6874  0.4316
15710SOL    HW248769   6.143   9.724   3.344  0.0113  2.4347  0.3693
15711SOL     OW48770   8.020   1.602   2.795  0.2889 -0.1531  0.2972
15711SOL    HW148771   7.973   1.603   2.707  0.9301  1.0406 -0.0414
15711SOL    HW248772   8.016   1.510   2.834 -1.7311 -0.2221 -0.0367
15712SOL     OW48773   9.644   2.857   4.964  0.1851 -0.4036  0.0773
15712SOL    HW148774   9.674   2.839   5.057 -1.7977  1.4268  1.1244
15712SOL    HW248775   9.723   2.876   4.906  1.3473 -0.2920  1.6772
15713SOL     OW48776   0.292   5.463   2.553 -0.1621  0.9534 -0.2437
15713SOL    HW148777   0.208   5.496   2.510 -0.3240 -0.3709 -0.9531
15713SOL    HW248778   0.270   5.408   2.633 -0.0847 -1.4723 -1.8536
15714SOL     OW48779   2.904   6.111   1.092  0.3340  0.3985  1.0687
15714SOL    HW148780   2.904   6.033   1.154  1.6492 -0.0321  0.5414
15714SOL    HW248781   2.810   6.145   1.081 -0.4091 -1.7471  0.5017
15715SOL     OW48782   1.219   3.937   2.627 -0.1229 -0.4983 -0.4164
15715SOL    HW148783   1.165   3.993   2.565 -0.1242 -1.7558 -1.5638
15715SOL    HW248784   1.271   3.869   2.575  0.5503 -0.9965  0.8804
15716SOL     OW48785   7.595   7.239   2.987  0.0707 -0.0026 -0.6689
15716SOL    HW148786   7.645   7.303   3.046  0.9292 -0.3372 -1.0232
15716SOL    HW248787   7.642   7.150   2.988 -0.9248 -0.5290 -0.4396
15717SOL     OW48788   8.894   7.937   4.723  0.0686  0.2637 -0.2775
15717SOL    HW148789   8.994   7.938   4.727  0.0213 -0.6117  1.7622
15717SOL    HW248790   8.859   8.022   4.763 -0.0136  0.5901 -1.0339
15718SOL     OW48791   4.826   2.805   2.780 -0.6359  0.1533 -0.0042
15718SOL    HW148792   4.781   2.871   2.840 -0.5596 -0.8768  1.2132
15718SOL    HW248793   4.757   2.746   2.738 -0.5058 -0.8445  1.1611
15719SOL     OW48794   2.266   5.401   3.746  0.0373  0.1650  0.0140
15719SOL    HW148795   2.275   5.319   3.802  0.7220 -0.1229 -0.5114
15719SOL    HW248796   2.304   5.479   3.796 -0.9244  0.2413  0.6540
15721SOL     OW48797   6.389   8.534   4.182  0.1857 -0.1380 -0.0270
15721SOL    HW148798   6.347   8.445   4.167  0.6749 -0.2484 -0.7972
15721SOL    HW248799   6.438   8.534   4.269  2.4501 -1.5219 -1.2503
15722SOL     OW48800   8.211   3.663   2.280  0.1108  0.0222 -0.5243
15722SOL    HW148801   8.139   3.731   2.271 -0.5193 -0.5011  0.4594
15722SOL    HW248802   8.299   3.710   2.289 -0.1488  0.6677 -1.2786
15723SOL     OW48803   0.647   2.618   2.812  0.4264  0.0903 -0.6729
15723SOL    HW148804   0.684   2.564   2.887  0.0206  0.0018 -0.5375
15723SOL    HW248805   0.547   2.618   2.816  0.3736 -0.6218 -1.7101
15724SOL     OW48806   2.676   5.287   0.903  0.4888  0.8987  0.2760
15724SOL    HW148807   2.763   5.265   0.946  0.5319 -2.8154 -1.4756
15724SOL    HW248808   2.603   5.232   0.945 -0.4057  1.4091 -0.5791
15726SOL     OW48809   0.589   5.115   0.864  0.2617 -0.2002  0.5699
15726SOL    HW148810   0.519   5.075   0.805 -0.8970  0.4844  1.4725
15726SOL    HW248811   0.630   5.043   0.921 -0.1816 -0.4857  0.5248
15727SOL     OW48812   6.646   8.606   2.820  0.2558  0.0082 -0.0193
15727SOL    HW148813   6.737   8.565   2.814  1.1808  1.9584  0.2914
15727SOL    HW248814   6.588   8.570   2.747  2.0980  0.7450 -1.8878
15728SOL     OW48815   0.460   6.697   4.293 -0.6871 -0.2534 -0.1892
15728SOL    HW148816   0.526   6.728   4.362 -0.7802 -0.0062 -0.2076
15728SOL    HW248817   0.458   6.597   4.291 -0.9673 -0.2631  0.4429
15729SOL     OW48818   9.930   3.046   4.383  0.4965  0.0951 -0.5837
15729SOL    HW148819   9.999   3.116   4.403  1.6470 -1.4601  1.0741
15729SOL    HW248820   9.863   3.083   4.320  0.2973  3.1677  1.3091
15730SOL     OW48821   2.686   9.173   1.024 -0.0878 -0.1945 -0.4787
15730SOL    HW148822   2.591   9.192   1.003  0.1690  0.9566 -0.5953
15730SOL    HW248823   2.708   9.207   1.115  0.7323  1.3486 -1.2333
15731SOL     OW48824   4.655   3.065   2.028 -0.8307 -0.3396  0.1733
15731SOL    HW148825   4.612   3.148   2.064  0.5603  0.1882  0.6455
15731SOL    HW248826   4.637   2.989   2.089 -2.6579 -0.5433 -0.5907
15732SOL     OW48827   0.793   7.902   2.834  0.2073  0.4539 -0.4642
15732SOL    HW148828   0.844   7.854   2.763  1.7123  1.9942 -0.4509
15732SOL    HW248829   0.732   7.969   2.792 -1.0362 -0.6288 -0.4241
15735SOL     OW48830   6.545   1.533   2.898  0.0395 -0.1303 -0.2194
15735SOL    HW148831   6.644   1.546   2.895  0.1547 -0.3236  1.9888
15735SOL    HW248832   6.501   1.621   2.920 -0.3352  0.1013 -1.8486
15736SOL     OW48833   2.805   6.359   4.990  0.1981 -0.5128  0.2048
15736SOL    HW148834   2.713   6.321   5.000  0.5135 -1.2527  0.3868
15736SOL    HW248835   2.872   6.292   5.023  0.9524 -0.9693 -2.1907
15737SOL     OW48836   8.949   7.234   4.022  0.2054  0.1035  0.6023
15737SOL    HW148837   8.909   7.310   3.970  0.4148  1.1800  1.9774
15737SOL    HW248838   9.016   7.270   4.088 -0.7577 -1.1302  2.2939
15739SOL     OW48839   0.687   9.804   4.576  0.3216  0.0909  0.3229
15739SOL    HW148840   0.712   9.744   4.652 -2.3731  0.3758  1.5074
15739SOL    HW248841   0.747   9.884   4.576 -0.5734  0.8407  3.1471
15740SOL     OW48842   1.331   2.172   1.665 -0.1100 -0.0264 -0.6227
15740SOL    HW148843   1.350   2.247   1.602 -0.4391  0.0551 -0.6269
15740SOL    HW248844   1.236   2.178   1.696 -0.1048 -0.3767 -0.5357
15741SOL     OW48845   5.754   7.708   2.607  0.3439  0.9961 -0.0307
15741SOL    HW148846   5.668   7.757   2.592  0.4853  1.8956  1.8395
15741SOL    HW248847   5.759   7.678   2.702  1.7302  0.2161 -0.3316
15743SOL     OW48848   3.473   1.225   4.731 -0.4226 -0.3197  0.5647
15743SOL    HW148849   3.428   1.288   4.668  0.2203 -0.1591  0.2677
15743SOL    HW248850   3.423   1.138   4.732 -0.1061 -0.5226 -0.6027
15744SOL     OW48851   8.756   8.505   0.130 -0.6977 -0.9357 -0.1465
15744SOL    HW148852   8.809   8.432   0.087 -0.3055  0.7411 -2.6647
15744SOL    HW248853   8.814   8.557   0.192 -0.6425 -1.9810  0.6812
15745SOL     OW48854   1.492   9.853   3.278  0.4243  0.4041  0.6537
15745SOL    HW148855   1.549   9.772   3.290  0.0635  0.2579  1.3929
15745SOL    HW248856   1.464   9.888   3.367 -0.8688  0.3112  0.2999
15746SOL     OW48857   7.681   0.272   2.029 -0.3691  0.1434  0.2773
15746SOL    HW148858   7.741   0.222   2.091 -1.2242  0.7943  1.6334
15746SOL    HW248859   7.598   0.300   2.077 -1.1186  0.5126 -1.1960
15747SOL     OW48860   8.758   2.247   1.131  0.0305 -0.5854 -0.2175
15747SOL    HW148861   8.823   2.303   1.182 -0.5765 -0.0418 -0.0254
15747SOL    HW248862   8.758   2.154   1.168  2.2812 -1.1810 -1.6451
15748SOL     OW48863   8.501   6.488   0.068 -0.0220  0.0118  0.0026
15748SOL    HW148864   8.519   6.571   0.121  3.1536 -0.6383  0.0273
15748SOL    HW248865   8.466   6.417   0.129  2.6906 -0.4280  1.1433
15749SOL     OW48866   1.086   8.560   1.769 -0.5925  0.4474  0.1280
15749SOL    HW148867   1.023   8.488   1.741 -0.7468  0.2755  0.9076
15749SOL    HW248868   1.176   8.520   1.789 -0.3619  0.6295 -0.5170
15750SOL     OW48869   9.945   3.187   1.703 -0.2504 -0.7069  0.0438
15750SOL    HW148870   9.846   3.185   1.716 -0.0868  0.0114  1.4831
15750SOL    HW248871   9.990   3.208   1.790  1.1897 -1.4850 -0.4981
15751SOL     OW48872   4.149   9.567   0.777 -0.1201  0.1500  0.1242
15751SOL    HW148873   4.217   9.494   0.770  0.3872  0.4170  1.9853
15751SOL    HW248874   4.196   9.655   0.790 -0.7956  0.5097  0.1380
15752SOL     OW48875   1.705   7.391   1.874 -0.3406  0.7384  0.0493
15752SOL    HW148876   1.668   7.460   1.812  0.0778  0.2673 -0.7381
15752SOL    HW248877   1.780   7.343   1.829 -0.0583  0.3673  0.9157
15753SOL     OW48878   9.753   7.617   2.264 -0.4493 -0.1073  0.1966
15753SOL    HW148879   9.818   7.554   2.221 -0.5951 -0.7876  0.9661
15753SOL    HW248880   9.724   7.685   2.197  1.5124  0.5732 -0.0160
15754SOL     OW48881   4.359   5.887   1.174  0.3545 -0.1992  0.4970
15754SOL    HW148882   4.326   5.974   1.136  0.4816  0.3573  1.6430
15754SOL    HW248883   4.284   5.821   1.175  0.4753 -0.3784 -1.1751
15755SOL     OW48884   4.333   5.979   3.038  0.5102 -0.1569  0.0154
15755SOL    HW148885   4.396   6.037   3.090  1.3556 -0.9306 -0.1309
15755SOL    HW248886   4.336   6.005   2.941 -1.8592  1.9973  0.4794
15756SOL     OW48887   0.898   2.324   3.180 -0.0957 -0.1183  0.5305
15756SOL    HW148888   0.906   2.412   3.134 -2.0433 -0.9908 -1.5609
15756SOL    HW248889   0.964   2.260   3.142 -0.7857 -0.4430 -0.1410
15759SOL     OW48890   9.611   7.597   0.771  0.4295  0.7427  0.4162
15759SOL    HW148891   9.644   7.647   0.691  1.3407 -0.9033 -0.2662
15759SOL    HW248892   9.512   7.611   0.780  0.1029  0.0185 -1.7029
15760SOL     OW48893   4.418   3.760   0.586  0.5280 -0.5545 -0.4875
15760SOL    HW148894   4.489   3.781   0.653  0.9822 -1.1620 -0.7803
15760SOL    HW248895   4.330   3.796   0.619  1.0182  0.4762 -0.2719
15762SOL     OW48896   0.897   8.354   3.746  0.9469 -0.2082  0.1101
15762SOL    HW148897   0.993   8.338   3.723  1.1174 -1.6429  1.6818
15762SOL    HW248898   0.890   8.375   3.843 -0.2953  0.3048 -0.0910
15763SOL     OW48899   3.248   7.398   0.494  0.1823  0.5720 -0.1488
15763SOL    HW148900   3.221   7.458   0.569  1.6633  1.1624 -0.0620
15763SOL    HW248901   3.343   7.368   0.508  0.9441  1.7479 -2.4313
15764SOL     OW48902   3.265   5.670   4.381 -0.0136 -0.1074 -0.9006
15764SOL    HW148903   3.239   5.700   4.289  2.0629  0.1316 -1.4192
15764SOL    HW248904   3.279   5.750   4.439 -3.0666 -0.2753  0.1568
15765SOL     OW48905   1.887   8.640   1.364 -0.0616 -0.5341  0.1432
15765SOL    HW148906   1.952   8.688   1.304  1.1400 -0.6151  1.3538
15765SOL    HW248907   1.929   8.627   1.454 -2.4949  1.1571  1.5777
15766SOL     OW48908   3.357   9.895   5.306  0.0319  0.2885 -0.3967
15766SOL    HW148909   3.277   9.875   5.363 -0.2583 -0.8207 -1.1725
15766SOL    HW248910   3.396   9.809   5.274  1.0938  0.8644 -0.6321
15769SOL     OW48911   7.669   0.063   1.852 -0.1770  0.7841 -0.4872
15769SOL    HW148912   7.759   0.049   1.811  0.0855 -0.1238  0.3902
15769SOL    HW248913   7.671   0.145   1.909  0.7542 -0.4974  1.3622
15770SOL     OW48914   9.104   4.044   0.999 -0.4122  0.4212 -0.0891
15770SOL    HW148915   9.163   4.118   1.031  0.2529  0.7027 -1.8951
15770SOL    HW248916   9.096   3.975   1.070  3.0634 -0.1907 -0.1917
15771SOL     OW48917   9.833   8.423   1.742  0.2381  0.4271 -0.0254
15771SOL    HW148918   9.809   8.515   1.772  1.0655  0.6926 -0.1417
15771SOL    HW248919   9.765   8.390   1.676 -0.7469  0.4390  0.9785
15773SOL     OW48920   2.734   5.096   1.313 -0.7428  0.4365 -0.3914
15773SOL    HW148921   2.638   5.108   1.287 -0.6654  1.0785 -0.4057
15773SOL    HW248922   2.773   5.185   1.336 -1.1501 -0.2178  3.1706
15774SOL     OW48923   0.927   3.196   0.111 -0.1628 -0.1060 -0.0410
15774SOL    HW148924   0.945   3.098   0.104 -1.4582 -0.2450 -2.1027
15774SOL    HW248925   0.998   3.240   0.166  1.8318 -1.8284 -1.1572
15775SOL     OW48926   4.747   8.893   1.129  0.1678  0.1331  0.3233
15775SOL    HW148927   4.761   8.799   1.097 -0.0960  0.2066 -0.0074
15775SOL    HW248928   4.682   8.939   1.068  0.5562  0.6341  0.2911
15776SOL     OW48929   8.952   0.109   4.612  0.0836 -0.0837 -0.7918
15776SOL    HW148930   8.930   0.202   4.642 -0.4234  0.0833 -1.6628
15776SOL    HW248931   9.043   0.083   4.647 -0.3008  0.2584  0.5036
15777SOL     OW48932   9.677   1.332   3.217  0.7429 -0.2130  0.1691
15777SOL    HW148933   9.691   1.411   3.277  0.0394 -0.5430  0.7762
15777SOL    HW248934   9.758   1.320   3.160  0.8463  0.9645  0.0437
15779SOL     OW48935   3.186   0.188   4.520  0.4197 -0.4780 -0.0252
15779SOL    HW148936   3.222   0.279   4.499  0.9117 -0.5183  0.6236
15779SOL    HW248937   3.261   0.127   4.546 -0.0505 -0.7154  0.7986
15780SOL     OW48938   9.065   0.565   0.991  0.4045 -0.4733  0.1444
15780SOL    HW148939   9.015   0.584   0.907 -1.2101 -0.3597  1.1020
15780SOL    HW248940   9.109   0.476   0.983 -1.7976 -1.6095  0.0774
15781SOL     OW48941   4.614   4.021   1.294 -0.4368 -0.3241  0.3646
15781SOL    HW148942   4.572   3.949   1.350 -2.6399  0.5703 -0.0577
15781SOL    HW248943   4.660   4.087   1.354 -2.0462  0.1655  1.0861
15783SOL     OW48944   7.966   1.874   4.871 -0.4621  0.0950  0.2231
15783SOL    HW148945   8.059   1.904   4.847 -0.8130  0.7462 -0.3288
15783SOL    HW248946   7.972   1.803   4.940  0.3782  1.7478  1.9119
15784SOL     OW48947   8.326   1.848   3.755 -0.1903  0.0302  0.6042
15784SOL    HW148948   8.275   1.794   3.822  0.1804  0.4892  1.2696
15784SOL    HW248949   8.423   1.821   3.757  0.1424  1.2543  1.5090
15785SOL     OW48950   8.423   9.437   2.179 -0.5833 -0.5800 -1.0582
15785SOL    HW148951   8.428   9.530   2.215 -0.7039 -0.6037 -0.9823
15785SOL    HW248952   8.338   9.425   2.127 -0.8947 -0.8557 -0.4941
15786SOL     OW48953   3.807   9.131   3.832  0.4400  0.4045 -0.0904
15786SOL    HW148954   3.759   9.212   3.867 -0.0204  2.0111 -4.0463
15786SOL    HW248955   3.741   9.069   3.791  1.0704 -0.7256  0.5951
15787SOL     OW48956   0.365   7.557   1.096 -0.3628 -0.0942  0.1216
15787SOL    HW148957   0.267   7.544   1.110 -0.6474  0.4248 -1.3494
15787SOL    HW248958   0.408   7.468   1.078 -0.7366 -0.1890 -0.2937
15788SOL     OW48959   1.828   6.923   0.447  0.3019  0.1593 -0.7661
15788SOL    HW148960   1.752   6.953   0.504  0.7669 -1.6843  0.8917
15788SOL    HW248961   1.801   6.926   0.351 -1.8518 -0.3874 -0.2099
15789SOL     OW48962   3.030   3.202   4.259 -0.3238 -0.1900 -0.0714
15789SOL    HW148963   3.083   3.176   4.340 -1.8904 -0.7805  0.8083
15789SOL    HW248964   3.007   3.299   4.264  0.3075 -0.0329 -0.2347
15794SOL     OW48965   7.393   8.381   3.920 -0.2804  0.7344  0.3121
15794SOL    HW148966   7.397   8.283   3.938 -1.3560  0.6104 -0.0365
15794SOL    HW248967   7.418   8.432   4.002 -0.1287  0.1685  0.6186
15795SOL     OW48968   2.591   3.995   4.480 -0.2863 -0.0233  0.2648
15795SOL    HW148969   2.588   3.895   4.476  0.8648 -0.0488 -0.2165
15795SOL    HW248970   2.598   4.032   4.388 -0.2746  0.4891  0.4703
15796SOL     OW48971   1.713   6.334   0.238  0.1780 -0.4017  0.0413
15796SOL    HW148972   1.782   6.262   0.231  0.6293  0.0652 -0.2828
15796SOL    HW248973   1.624   6.292   0.258  0.5675 -0.9940  0.5607
15797SOL     OW48974   2.033   6.083   2.225  0.0138  0.5901 -0.0867
15797SOL    HW148975   2.132   6.068   2.231 -0.0343  0.9089  2.2426
15797SOL    HW248976   1.987   5.996   2.211  0.5424  0.2250  0.4107
15798SOL     OW48977   5.751   8.218   2.811 -0.7351 -0.0968  0.2759
15798SOL    HW148978   5.662   8.255   2.837 -0.6498  0.1318  0.2430
15798SOL    HW248979   5.756   8.122   2.838 -0.3936  0.3104  1.7124
15799SOL     OW48980   8.373   0.564   3.472 -0.1591 -0.0445  0.1556
15799SOL    HW148981   8.352   0.473   3.506  0.4527 -1.2549 -2.6215
15799SOL    HW248982   8.360   0.568   3.373  2.8311  1.9729 -0.2507
15800SOL     OW48983   9.663   8.084   5.048  0.0039  0.0241  0.0139
15800SOL    HW148984   9.703   8.167   5.086 -1.3000  0.6391  0.0717
15800SOL    HW248985   9.733   8.013   5.041  1.1352  1.1397 -0.0842
15801SOL     OW48986   4.640   6.353   2.865  0.1462  0.2165 -0.1593
15801SOL    HW148987   4.699   6.274   2.880  0.7989  0.6398 -0.4719
15801SOL    HW248988   4.681   6.434   2.905 -0.4494  0.4288  0.0291
15802SOL     OW48989   4.591   4.418   0.103  0.0534 -0.1315 -0.0593
15802SOL    HW148990   4.535   4.485   0.151 -0.7898 -0.4034 -0.6578
15802SOL    HW248991   4.584   4.433   0.004 -0.4824 -1.3591 -0.2190
15803SOL     OW48992   8.765   2.247   1.481  0.3232 -0.0258 -0.1634
15803SOL    HW148993   8.807   2.204   1.401  1.6935 -0.4298  0.7565
15803SOL    HW248994   8.680   2.199   1.504 -0.1535  0.1852 -1.4465
15804SOL     OW48995   4.671   1.450   2.136  0.8036 -1.0558 -0.2207
15804SOL    HW148996   4.699   1.459   2.232  1.3141 -0.2516 -0.4402
15804SOL    HW248997   4.750   1.424   2.081  0.9391  0.3069 -0.6993
15805SOL     OW48998   6.836   0.871   1.733 -0.0650 -0.2200  0.2607
15805SOL    HW148999   6.744   0.834   1.745  0.5785 -1.5950  1.1572
15805SOL    HW249000   6.899   0.797   1.709  0.7805  0.7293 -0.5310
15806SOL     OW49001   2.627   8.972   1.358  0.4971 -0.1592 -0.3875
15806SOL    HW149002   2.610   8.896   1.294 -2.4379  0.6473 -0.6532
15806SOL    HW249003   2.633   9.058   1.307 -0.6785  0.3434  0.3064
15807SOL     OW49004   3.187   2.722   1.544 -0.2201  0.5700  0.5304
15807SOL    HW149005   3.198   2.821   1.554  1.3618  0.7051 -2.0039
15807SOL    HW249006   3.097   2.702   1.505  0.2453  1.2011 -0.9268
15808SOL     OW49007   7.010   2.243   4.777  0.3649  0.3331  0.1668
15808SOL    HW149008   6.923   2.246   4.826  0.3539 -0.2437  0.1864
15808SOL    HW249009   7.063   2.164   4.808  1.1055  0.9580  0.5108
15809SOL     OW49010   1.644   1.694   1.728 -0.1962 -0.3692 -0.2308
15809SOL    HW149011   1.568   1.638   1.762 -0.5411  0.4869  0.4421
15809SOL    HW249012   1.615   1.790   1.723  0.5295 -0.1843 -0.9254
15810SOL     OW49013   0.663   5.631   4.850  0.4092  0.1332  0.0412
15810SOL    HW149014   0.660   5.680   4.764 -0.9122 -0.2442 -0.1290
15810SOL    HW249015   0.735   5.561   4.846 -0.0174 -0.2602 -0.9605
15811SOL     OW49016   0.447   2.676   4.161 -0.0718 -0.1428  0.3955
15811SOL    HW149017   0.347   2.671   4.156 -0.0924  0.8680 -0.4184
15811SOL    HW249018   0.487   2.603   4.107 -0.3718  1.9900 -2.8386
15812SOL     OW49019   5.075   0.276   2.429  0.0509  0.3390  0.3299
15812SOL    HW149020   5.039   0.321   2.510 -0.7470  0.0850  0.1199
15812SOL    HW249021   5.077   0.177   2.442  0.9884  0.3678  0.4625
15813SOL     OW49022   4.109   9.645   0.232  0.2481 -0.0820 -0.2811
15813SOL    HW149023   4.194   9.647   0.284 -0.3260  1.3450  0.6207
15813SOL    HW249024   4.036   9.609   0.290 -0.2312  0.7638 -0.3548
15814SOL     OW49025   3.751   5.479   3.152 -0.7485  0.2013  0.0303
15814SOL    HW149026   3.769   5.572   3.184 -0.8805  0.1861  0.1506
15814SOL    HW249027   3.664   5.477   3.104 -0.4785  0.2561 -0.4626
15815SOL     OW49028   1.305   2.553   2.957  0.0134 -0.3169  0.2146
15815SOL    HW149029   1.325   2.606   2.874 -1.4055 -0.6075 -0.3237
15815SOL    HW249030   1.208   2.560   2.978  0.3213 -0.4655  1.7123
15816SOL     OW49031   4.321   1.158   3.760  0.3746  0.0371 -0.0179
15816SOL    HW149032   4.346   1.142   3.856  0.2435 -1.6726 -0.2573
15816SOL    HW249033   4.272   1.245   3.753  2.1324  1.1568  1.1523
15817SOL     OW49034   2.025   7.380   0.347 -0.6723 -0.2947  0.4596
15817SOL    HW149035   2.102   7.327   0.383 -0.4148  0.1294  0.5323
15817SOL    HW249036   2.054   7.474   0.328 -1.3748  0.0921  1.2504
15818SOL     OW49037   8.809   0.687   5.056  0.1850  0.6829  0.5802
15818SOL    HW149038   8.806   0.684   5.156 -0.7819 -1.0009  0.5188
15818SOL    HW249039   8.904   0.697   5.026  0.7342 -1.0737  1.6428
15819SOL     OW49040   8.302   5.078   5.285 -0.4791 -0.4837 -0.0904
15819SOL    HW149041   8.241   5.147   5.323 -0.1969 -0.2146 -0.1264
15819SOL    HW249042   8.390   5.119   5.264 -0.2502 -0.8961  0.0551
15820SOL     OW49043   7.924   4.761   0.604  0.0496 -0.1309  0.2230
15820SOL    HW149044   7.887   4.842   0.558  1.8866  0.5273 -0.1334
15820SOL    HW249045   7.859   4.685   0.596 -0.5010  0.5307 -1.7993
15821SOL     OW49046   3.073   7.966   4.741  0.0220  0.3155 -0.0626
15821SOL    HW149047   3.103   7.973   4.836  0.6901 -1.7361 -0.0812
15821SOL    HW249048   3.129   8.027   4.684  0.7543  0.3078  0.6334
15822SOL     OW49049   1.947   6.584   5.286 -0.1245 -0.1834  0.0088
15822SOL    HW149050   1.979   6.589   5.380  1.4043 -0.3253 -0.4883
15822SOL    HW249051   1.876   6.514   5.278 -0.5294  0.0912  1.1173
15823SOL     OW49052   1.934   7.987   4.813 -0.3671 -0.3854 -0.4436
15823SOL    HW149053   1.851   7.936   4.836 -0.8575  0.0249 -1.2704
15823SOL    HW249054   1.980   8.016   4.898 -0.5455 -1.4392  0.0227
15824SOL     OW49055   0.573   4.592   3.982 -0.3582  0.0462  0.4524
15824SOL    HW149056   0.647   4.527   4.002  0.1923  0.4853 -0.1271
15824SOL    HW249057   0.564   4.657   4.057 -0.2183 -0.0680  0.5683
15825SOL     OW49058   7.624   7.342   4.905 -0.2340 -0.1480  0.2522
15825SOL    HW149059   7.677   7.402   4.845  0.8706 -2.3219 -0.9925
15825SOL    HW249060   7.537   7.386   4.927  0.3024  1.6550 -1.0809
15826SOL     OW49061   4.846   0.640   1.666  0.2486  0.0448 -0.2133
15826SOL    HW149062   4.925   0.668   1.610 -0.2378 -0.7717 -1.3184
15826SOL    HW249063   4.859   0.546   1.698  0.0518  0.1579  0.2014
15827SOL     OW49064   9.984   1.741   3.365 -0.3318 -0.1527  0.1345
15827SOL    HW149065  10.037   1.739   3.280 -0.4561  2.9277 -0.0797
15827SOL    HW249066  10.046   1.752   3.443 -0.4487  0.5073  0.1359
15828SOL     OW49067   3.827   0.287   4.242 -0.0477  0.3097 -0.1036
15828SOL    HW149068   3.915   0.282   4.194  0.0445  1.1982 -0.0292
15828SOL    HW249069   3.842   0.326   4.333 -0.2931 -0.9256  0.4741
15829SOL     OW49070   0.762   7.292   3.381 -0.1396 -0.5709 -0.0918
15829SOL    HW149071   0.687   7.334   3.431  1.2590  0.6864  1.0226
15829SOL    HW249072   0.758   7.319   3.285 -1.9868 -1.7814 -0.3624
15830SOL     OW49073   4.096   8.900   3.319 -0.5301  0.0034  0.1401
15830SOL    HW149074   4.108   8.923   3.416 -1.8073  1.7564 -0.0967
15830SOL    HW249075   4.184   8.902   3.273  0.2710 -2.0434  1.4998
15831SOL     OW49076   4.881   9.417   3.215 -0.5129 -0.1577 -0.2274
15831SOL    HW149077   4.848   9.360   3.290 -0.7105 -2.3042 -1.8935
15831SOL    HW249078   4.981   9.414   3.212 -0.4848  0.2451  0.1642
15832SOL     OW49079   3.584   3.541   1.731  0.1593  0.0261 -0.1523
15832SOL    HW149080   3.538   3.572   1.648  0.2052 -0.1269 -0.2356
15832SOL    HW249081   3.678   3.514   1.710  0.4093  0.7021  0.0912
15833SOL     OW49082   9.454   7.146   1.878 -0.0211  0.4296 -0.0650
15833SOL    HW149083   9.423   7.113   1.788  0.2783 -0.2587  0.0819
15833SOL    HW249084   9.404   7.099   1.950  0.4206  0.2796  0.1473
15834SOL     OW49085   1.365   8.192   4.687 -0.4012  0.4175  0.2673
15834SOL    HW149086   1.347   8.097   4.711  1.6035 -0.5879 -1.9941
15834SOL    HW249087   1.308   8.218   4.610  0.7104  0.2643 -0.6345
15835SOL     OW49088   0.673   3.587   0.239  0.4031  0.4841  0.2811
15835SOL    HW149089   0.656   3.512   0.303  1.4971  1.4043  1.6916
15835SOL    HW249090   0.760   3.571   0.192  0.1990  0.4271 -0.0798
15837SOL     OW49091   2.549   6.625   4.047 -0.1091 -0.2794 -0.3752
15837SOL    HW149092   2.566   6.534   4.085  1.7201  0.0021 -0.4923
15837SOL    HW249093   2.635   6.674   4.036 -1.2647  2.3334  1.7636
15838SOL     OW49094   0.847   2.299   0.975 -0.0552 -0.4107  0.1419
15838SOL    HW149095   0.791   2.221   0.948 -0.3368  0.6511 -2.5142
15838SOL    HW249096   0.943   2.271   0.980 -0.2206 -1.0565 -0.2854
15839SOL     OW49097   1.121   3.793   3.804  0.4577  0.6264 -0.1198
15839SOL    HW149098   1.081   3.757   3.720  0.0112 -1.4617  0.9453
15839SOL    HW249099   1.220   3.803   3.792  0.9330 -2.9149  0.1198
15840SOL     OW49100   7.957   2.570   1.686 -0.1205  0.1506 -0.0657
15840SOL    HW149101   7.942   2.633   1.762  1.4171  0.7043 -0.2093
15840SOL    HW249102   7.919   2.480   1.710 -1.5141  0.8810  0.4961
15841SOL     OW49103   6.233   7.903   2.934  0.8015  0.0604 -0.2228
15841SOL    HW149104   6.149   7.871   2.890  1.3049 -1.0209 -0.4044
15841SOL    HW249105   6.210   7.971   3.003 -0.1045  0.8327 -1.2610
15842SOL     OW49106   4.875   7.919   2.405  0.3097 -0.0600 -0.7517
15842SOL    HW149107   4.968   7.885   2.396  0.9988  1.3643  0.6970
15842SOL    HW249108   4.829   7.874   2.481 -0.0822 -0.5296 -1.2627
15843SOL     OW49109   7.313   2.834   1.122 -0.2986  0.0653 -0.0609
15843SOL    HW149110   7.262   2.795   1.199 -3.5955 -1.2806 -2.8549
15843SOL    HW249111   7.352   2.761   1.067  0.6652  0.9822 -0.6262
15844SOL     OW49112   9.642   4.989   1.110  0.6038 -0.2366  0.0010
15844SOL    HW149113   9.662   5.084   1.086  0.7877 -0.0566  0.8597
15844SOL    HW249114   9.685   4.928   1.042  0.0333  0.3048 -0.8503
15845SOL     OW49115   8.770   2.128   2.276  0.5175 -1.2612  0.3015
15845SOL    HW149116   8.718   2.062   2.222  0.5918 -0.2846 -0.9970
15845SOL    HW249117   8.795   2.088   2.364 -1.9081 -1.9555  0.7058
15847SOL     OW49118   7.141   1.552   0.145 -0.4285  0.1933 -0.1084
15847SOL    HW149119   7.180   1.564   0.236  2.2586 -0.5978 -1.1123
15847SOL    HW249120   7.043   1.536   0.153 -0.0914 -0.7889  2.7087
15848SOL     OW49121   2.545   5.654   1.582  0.1165  0.0144  0.3664
15848SOL    HW149122   2.463   5.633   1.530 -1.0572  3.4842  0.7282
15848SOL    HW249123   2.623   5.663   1.520 -0.3362 -0.4754 -0.2725
15849SOL     OW49124   2.822   1.900   5.264 -0.4787  0.1810  0.1386
15849SOL    HW149125   2.921   1.908   5.252 -0.5856 -1.6962 -2.3313
15849SOL    HW249126   2.796   1.941   5.351  2.3751  1.3331  0.5028
15850SOL     OW49127   0.407   2.220   0.191 -0.6433  0.4304 -0.5836
15850SOL    HW149128   0.391   2.173   0.104 -1.6984 -0.3059 -0.0087
15850SOL    HW249129   0.325   2.272   0.215 -0.8970 -0.5304  0.6772
15851SOL     OW49130   8.605   3.515   1.907  0.2956  0.4136  0.4707
15851SOL    HW149131   8.667   3.449   1.865  0.1360  0.4800  0.1301
15851SOL    HW249132   8.568   3.477   1.992  1.8859  0.9057  1.4228
15853SOL     OW49133   3.766   3.472   4.705  0.2340 -0.2552  0.1405
15853SOL    HW149134   3.794   3.480   4.801  1.0489  0.1980 -0.1267
15853SOL    HW249135   3.844   3.495   4.646 -0.0526 -1.2375 -0.6299
15854SOL     OW49136   2.866   1.121   0.438 -0.7980 -0.1088  0.6337
15854SOL    HW149137   2.923   1.046   0.472 -1.2079 -0.8555 -0.2973
15854SOL    HW249138   2.778   1.120   0.485 -0.3434  0.5426  1.4937
15855SOL     OW49139   4.343   4.940   1.112  0.3433 -0.3405 -0.5495
15855SOL    HW149140   4.389   4.960   1.026 -0.4069 -0.4253 -0.9772
15855SOL    HW249141   4.265   4.879   1.095 -1.7718  2.2072 -0.3164
15857SOL     OW49142   7.689   3.861   1.593  0.1111 -0.4887 -0.8452
15857SOL    HW149143   7.650   3.777   1.630 -0.1504 -0.6440 -1.4666
15857SOL    HW249144   7.789   3.856   1.596  0.0901 -0.4953 -0.1562
15858SOL     OW49145   9.044   9.588   2.148  0.1557 -0.4152 -0.5001
15858SOL    HW149146   8.979   9.515   2.170  0.1820 -0.1110  0.6482
15858SOL    HW249147   9.105   9.558   2.075 -1.2313 -0.7288 -1.5393
15859SOL     OW49148   2.681   5.121   0.269 -0.3737  0.0472  0.0144
15859SOL    HW149149   2.719   5.104   0.178 -0.7933  1.6661 -0.4784
15859SOL    HW249150   2.730   5.066   0.336  0.3443 -0.7053 -1.1020
15860SOL     OW49151   9.446   6.726   1.347  0.7072 -0.3927  0.3401
15860SOL    HW149152   9.509   6.687   1.414  1.0501  0.3707  0.4689
15860SOL    HW249153   9.352   6.703   1.372  0.9074 -1.1365  0.4089
15861SOL     OW49154   5.062   1.847   3.638 -0.0212 -0.5788 -0.0240
15861SOL    HW149155   4.966   1.869   3.658 -0.0004  0.0826 -0.6248
15861SOL    HW249156   5.107   1.816   3.721 -0.8074 -1.0615  0.2269
15862SOL     OW49157   6.046   8.294   4.497  0.4381  0.0715  0.0792
15862SOL    HW149158   5.989   8.236   4.438 -0.2304  1.7466 -0.9386
15862SOL    HW249159   6.141   8.289   4.465 -0.2419  2.6173 -2.5220
15864SOL     OW49160   5.594   8.270   5.300  0.5797  0.5420  0.2500
15864SOL    HW149161   5.504   8.228   5.307  1.1980 -0.6814  1.2186
15864SOL    HW249162   5.585   8.365   5.270 -1.0384  0.5103  0.5978
15866SOL     OW49163   8.664   4.279   1.489 -0.3637 -0.6316 -0.2291
15866SOL    HW149164   8.720   4.289   1.407  0.0091 -1.2030 -0.0505
15866SOL    HW249165   8.592   4.348   1.489  0.2414  0.0030 -0.5431
15867SOL     OW49166   2.079   5.193   0.113 -0.4885 -0.5421 -0.4942
15867SOL    HW149167   2.165   5.206   0.063  0.7842 -1.0404  1.5010
15867SOL    HW249168   2.016   5.138   0.058  0.2268  0.3334 -2.2298
15869SOL     OW49169   1.327   9.800   2.203 -0.5793 -0.2418  0.1310
15869SOL    HW149170   1.246   9.744   2.220 -1.5343  0.5493 -1.6612
15869SOL    HW249171   1.354   9.790   2.107 -0.0107  1.3665  0.1190
15870SOL     OW49172   9.999   4.364   2.950 -0.1605 -0.1521 -0.2023
15870SOL    HW149173   9.965   4.332   3.038  1.7303 -0.4495  0.4348
15870SOL    HW249174  10.003   4.288   2.886  2.1505 -0.7515  0.6275
15871SOL     OW49175   5.103   0.965   0.002 -0.1593 -0.0643 -0.7303
15871SOL    HW149176   5.117   1.038  -0.065  0.4329 -0.0267 -0.5684
15871SOL    HW249177   5.115   1.001   0.094  1.7691 -0.7179 -0.7104
15872SOL     OW49178   0.523   0.629   2.555 -0.2132  0.1209  0.0505
15872SOL    HW149179   0.454   0.629   2.482  0.1692  1.3912 -0.3192
15872SOL    HW249180   0.494   0.566   2.628 -0.4125 -1.4464 -1.3462
15873SOL     OW49181   7.635   0.264   1.560  0.1327 -0.3017 -0.8031
15873SOL    HW149182   7.582   0.343   1.530 -2.1402 -1.5309 -0.1253
15873SOL    HW249183   7.725   0.295   1.590 -1.3772  2.3429  1.3381
15874SOL     OW49184   9.257   2.528   1.984 -0.2190 -0.1755  0.0815
15874SOL    HW149185   9.340   2.476   1.969 -0.1074 -0.4569  1.6154
15874SOL    HW249186   9.202   2.485   2.055 -1.4530  0.2811 -0.5619
15875SOL     OW49187   9.910   1.926   4.961 -0.0541 -0.2892 -0.1012
15875SOL    HW149188   9.926   2.023   4.941 -0.3539 -0.3485 -0.6433
15875SOL    HW249189   9.928   1.872   4.879 -1.3001 -0.5377 -0.2162
15876SOL     OW49190   8.669   0.457   2.919  0.4109 -0.2173 -0.0340
15876SOL    HW149191   8.675   0.440   3.017 -0.7575 -1.3836 -0.1410
15876SOL    HW249192   8.710   0.545   2.898 -0.5807  0.6974  1.7086
15877SOL     OW49193   7.885   1.189   0.766 -0.5925 -0.5778  0.3336
15877SOL    HW149194   7.825   1.129   0.820 -2.8502  0.8211 -0.5542
15877SOL    HW249195   7.843   1.207   0.677  1.3911  0.0792 -0.4952
15878SOL     OW49196   2.963   5.184   3.731  0.0156 -0.0705  0.6915
15878SOL    HW149197   2.938   5.281   3.729 -0.7408 -0.2559  0.7209
15878SOL    HW249198   2.966   5.148   3.638  1.0574  0.1684  0.6358
15879SOL     OW49199   3.401   4.897   3.844 -0.5108  0.2905 -0.0118
15879SOL    HW149200   3.332   4.825   3.833  0.0985 -0.3069  0.0069
15879SOL    HW249201   3.444   4.916   3.755  0.4999 -0.5725  0.2729
15881SOL     OW49202   7.797   2.838   2.276 -0.4860 -0.3926  0.5914
15881SOL    HW149203   7.734   2.832   2.353  0.0503  0.3876  1.0919
15881SOL    HW249204   7.751   2.883   2.199 -0.4431  0.4576  1.0621
15882SOL     OW49205   0.007   7.015   2.692  1.0255  0.2223  0.2076
15882SOL    HW149206  -0.032   7.045   2.779 -4.1977 -1.7436 -1.2926
15882SOL    HW249207   0.045   7.094   2.643 -2.6298  2.6380  1.0965
15883SOL     OW49208   8.833   7.717   2.267  0.2983  0.6228 -0.2789
15883SOL    HW149209   8.909   7.651   2.268 -0.5776 -0.4236 -1.7507
15883SOL    HW249210   8.870   7.810   2.276  1.5629 -0.0120  1.5961
15884SOL     OW49211   2.764   1.808   0.490 -0.3571 -0.1175  0.3297
15884SOL    HW149212   2.801   1.857   0.569 -1.6487  0.4178  0.6202
15884SOL    HW249213   2.711   1.872   0.433  1.3207 -0.2765 -1.4887
15885SOL     OW49214   9.068   6.828   2.689 -0.2025  0.6473  0.3522
15885SOL    HW149215   9.002   6.801   2.760  0.9997  1.0560  1.6625
15885SOL    HW249216   9.155   6.783   2.706  0.1722  0.9609 -0.7271
15886SOL     OW49217   2.482   4.367   3.744  0.4313  0.1284 -0.3375
15886SOL    HW149218   2.427   4.303   3.690  0.3467  0.0102 -0.1139
15886SOL    HW249219   2.421   4.421   3.803  0.5262  0.2312 -0.3337
15887SOL     OW49220   9.369   2.864   1.388  0.3129  0.6967  0.1859
15887SOL    HW149221   9.320   2.918   1.320 -0.0048  0.3710  0.1521
15887SOL    HW249222   9.313   2.785   1.414  0.3516  0.9211  0.9669
15888SOL     OW49223   0.865   9.596   4.200 -0.2400 -0.3618  0.1489
15888SOL    HW149224   0.912   9.676   4.238 -0.6981  0.3297 -0.7224
15888SOL    HW249225   0.772   9.621   4.175 -0.8282 -1.5192  1.1084
15889SOL     OW49226   1.704   9.732   5.116 -0.1633  0.1912 -0.2487
15889SOL    HW149227   1.801   9.725   5.142 -0.0850 -0.3420 -0.6762
15889SOL    HW249228   1.655   9.652   5.149 -0.0800 -0.4585 -1.6541
15890SOL     OW49229   4.055   6.696   0.974 -0.3017  0.5333 -0.2673
15890SOL    HW149230   4.068   6.791   0.945 -0.5154 -0.1402 -2.7437
15890SOL    HW249231   4.143   6.657   1.002 -0.1420  1.3296  0.3588
15891SOL     OW49232   4.805   1.586   5.129  0.3423  0.0725 -0.0603
15891SOL    HW149233   4.781   1.540   5.044  1.2208 -0.6059  0.0523
15891SOL    HW249234   4.904   1.579   5.144  0.3604  1.1960  0.4196
15892SOL     OW49235   4.634   8.539   1.236 -0.7980  0.3974  0.4126
15892SOL    HW149236   4.552   8.562   1.288 -1.2988 -0.3234 -0.0271
15892SOL    HW249237   4.704   8.503   1.297 -0.3997  2.0568  0.9414
15894SOL     OW49238   6.819   1.178   5.207  0.3706  0.3260 -0.1439
15894SOL    HW149239   6.786   1.252   5.265 -0.1710 -0.0004 -0.0342
15894SOL    HW249240   6.869   1.216   5.129  0.0551  0.8069 -0.1102
15895SOL     OW49241   2.649   3.881   2.515 -0.6656  0.3605  0.4678
15895SOL    HW149242   2.586   3.887   2.592 -0.3504  1.4180  0.6541
15895SOL    HW249243   2.665   3.785   2.492 -0.2301 -0.0002  2.1756
15896SOL     OW49244   1.173   2.184   2.233  0.2613  0.2659  0.2550
15896SOL    HW149245   1.094   2.245   2.240 -0.0817 -0.0857 -0.4685
15896SOL    HW249246   1.180   2.128   2.316 -0.7636 -0.3041 -0.0271
15898SOL     OW49247   3.102   5.295   3.039  1.0517 -0.1213  0.1454
15898SOL    HW149248   3.059   5.205   3.035 -1.1294  0.8948  0.1140
15898SOL    HW249249   3.116   5.321   3.135 -1.7603  1.0792  0.2614
15899SOL     OW49250   6.552   0.239   2.776 -0.2273  0.6629 -0.3669
15899SOL    HW149251   6.637   0.266   2.820  0.0507  0.7914 -0.9852
15899SOL    HW249252   6.522   0.150   2.812  0.7523  0.0862 -0.9561
15900SOL     OW49253   9.289   4.239   1.104  0.0300  0.4755  0.1958
15900SOL    HW149254   9.314   4.302   1.178  0.2887 -1.9535  2.2234
15900SOL    HW249255   9.351   4.161   1.104 -0.9652 -0.3387 -1.5762
15901SOL     OW49256   3.827   4.075   3.948  0.2050 -0.5029 -0.2197
15901SOL    HW149257   3.855   4.151   4.006  1.1863 -0.7693 -0.3370
15901SOL    HW249258   3.795   4.110   3.860  0.1169 -0.1903 -0.0637
15903SOL     OW49259   2.742   8.894   1.602  0.9660  0.2857  0.3880
15903SOL    HW149260   2.693   8.910   1.516 -0.0039 -0.2279  0.8464
15903SOL    HW249261   2.708   8.956   1.672  2.2481  1.1915  0.2276
15904SOL     OW49262   1.343   0.594   2.712  0.1054 -0.4324  0.4514
15904SOL    HW149263   1.291   0.602   2.797  1.6783 -0.0279  1.4111
15904SOL    HW249264   1.440   0.582   2.734  0.6790  0.8357 -1.3100
15905SOL     OW49265   2.221   4.507   0.349 -0.2480 -0.3533 -0.0818
15905SOL    HW149266   2.134   4.494   0.303 -0.9973  1.9408  0.6407
15905SOL    HW249267   2.206   4.543   0.441  1.3837 -1.6356  0.7182
15906SOL     OW49268   8.672   0.851   3.491 -0.2752  0.1764 -0.2624
15906SOL    HW149269   8.654   0.795   3.410  0.5669 -0.2058 -0.1977
15906SOL    HW249270   8.673   0.947   3.465  3.2471 -0.0853 -1.4061
15907SOL     OW49271   8.325   9.497   0.053 -0.1862  0.7609 -0.5578
15907SOL    HW149272   8.321   9.462   0.146  0.3352  1.8444 -0.1268
15907SOL    HW249273   8.399   9.452   0.003  0.9025  1.7023  0.1886
15908SOL     OW49274   8.043   1.445   3.498  0.2019  0.2679  0.1501
15908SOL    HW149275   7.967   1.383   3.478  0.6456  0.0390 -0.8456
15908SOL    HW249276   8.097   1.459   3.416  1.2647  0.3900  0.8616
15909SOL     OW49277   0.260   4.983   2.768  0.6692 -0.0667  0.0757
15909SOL    HW149278   0.338   5.039   2.795  0.2484  0.4136  0.2932
15909SOL    HW249279   0.266   4.893   2.813  0.2291  0.5559  1.3966
15910SOL     OW49280   8.078   7.339   5.180 -0.1918 -0.0273 -0.1694
15910SOL    HW149281   8.121   7.415   5.230 -0.7233  0.2539 -0.1355
15910SOL    HW249282   8.047   7.270   5.246 -0.5052  0.1419 -0.1381
15911SOL     OW49283   1.238   0.714   0.265  0.5548  0.3334  0.3755
15911SOL    HW149284   1.326   0.678   0.234  0.1214 -1.0289  0.6814
15911SOL    HW249285   1.237   0.719   0.365  1.1888  2.7361  0.2910
15912SOL     OW49286   1.826   2.203   1.570 -0.7100 -0.5245 -0.2771
15912SOL    HW149287   1.834   2.278   1.636 -0.3915  0.0286 -0.9302
15912SOL    HW249288   1.870   2.121   1.606  0.4005  0.0797 -0.2497
15913SOL     OW49289   0.666   8.899   0.088  0.1970  0.4297 -0.2282
15913SOL    HW149290   0.671   8.945   0.176 -0.5733  1.6971 -0.8343
15913SOL    HW249291   0.705   8.958   0.017 -1.4823  0.4836 -1.1354
15914SOL     OW49292   9.339   6.017   1.689 -0.0207 -0.3703 -0.3033
15914SOL    HW149293   9.416   5.995   1.748 -0.1839 -0.2415 -0.0435
15914SOL    HW249294   9.361   6.096   1.633 -0.3583  0.3143  0.5228
15915SOL     OW49295   2.559   2.083   4.014 -0.3477  0.2013 -0.2501
15915SOL    HW149296   2.514   2.099   3.927 -0.0043  1.5418 -0.1951
15915SOL    HW249297   2.628   2.011   4.004  0.2529  0.9191 -1.2738
15916SOL     OW49298   6.984   8.013   2.254 -0.2361  0.0536  0.1513
15916SOL    HW149299   6.936   7.927   2.270  0.5141 -0.2249  0.9818
15916SOL    HW249300   6.919   8.084   2.228 -0.8774 -0.7286 -0.3885
15917SOL     OW49301   0.748   5.835   4.165 -0.8772 -0.1595  0.2521
15917SOL    HW149302   0.770   5.751   4.214 -1.2600 -1.0683 -1.0806
15917SOL    HW249303   0.705   5.901   4.227 -2.4007 -1.7130  0.8900
15919SOL     OW49304   1.857   9.400   1.662 -0.4047 -0.6690 -0.2124
15919SOL    HW149305   1.797   9.349   1.600 -1.4954  0.9176 -0.5040
15919SOL    HW249306   1.840   9.370   1.756 -0.2358 -1.6223 -0.4777
15920SOL     OW49307   0.533   0.109   1.971  0.5155 -0.1370  0.0286
15920SOL    HW149308   0.548   0.150   1.881  1.8099 -1.5040 -0.4008
15920SOL    HW249309   0.562   0.013   1.969 -0.7238 -0.5562  1.5248
15921SOL     OW49310   2.594   6.653   0.153  0.4097 -0.0416 -0.6727
15921SOL    HW149311   2.547   6.597   0.085 -0.8171  0.6281 -0.3991
15921SOL    HW249312   2.568   6.749   0.140  1.3093  0.2761 -0.1802
15922SOL     OW49313   7.981   2.679   2.880 -0.1745 -0.1438  0.4411
15922SOL    HW149314   8.070   2.671   2.837 -1.1035  0.1555 -1.5951
15922SOL    HW249315   7.948   2.587   2.904 -0.2336 -0.4534 -0.7603
15923SOL     OW49316   0.458   6.233   5.294  0.0698 -0.1103  0.7414
15923SOL    HW149317   0.548   6.275   5.284 -0.6536  1.3889  0.2296
15923SOL    HW249318   0.440   6.174   5.215  0.2473  0.3116  0.3796
15924SOL     OW49319   9.037   2.323   4.377  0.5180  0.5295 -0.0661
15924SOL    HW149320   9.064   2.417   4.355 -0.6156  0.5692 -1.4047
15924SOL    HW249321   8.986   2.285   4.300  0.1519 -0.8641  0.8548
15926SOL     OW49322   1.538   1.183   0.459  0.7127 -0.5993  0.7563
15926SOL    HW149323   1.477   1.262   0.465  1.5590  0.0951  0.2036
15926SOL    HW249324   1.496   1.114   0.399  0.1406 -0.4226  0.9485
15927SOL     OW49325   2.209   2.831   4.908  0.0558  1.1717 -0.3108
15927SOL    HW149326   2.118   2.788   4.913  0.2081  0.9395  0.5583
15927SOL    HW249327   2.211   2.912   4.967  1.0947 -0.1046  1.4545
15928SOL     OW49328   4.337   2.853   2.550 -0.6673  0.1293 -0.1289
15928SOL    HW149329   4.241   2.829   2.559 -0.2938 -1.0044  1.0039
15928SOL    HW249330   4.354   2.940   2.597 -1.3731  0.9695 -1.4045
15931SOL     OW49331   0.055   7.804   0.839 -0.0021  0.3374 -0.2622
15931SOL    HW149332   0.016   7.712   0.832  0.8836 -0.2238  1.7791
15931SOL    HW249333  -0.019   7.870   0.856 -0.5233 -0.1337 -0.6569
15932SOL     OW49334   1.149   0.927   0.124  0.3665  0.2689  0.2027
15932SOL    HW149335   1.141   1.009   0.181  0.7596  0.0987  0.5033
15932SOL    HW249336   1.173   0.849   0.181  2.1403  0.3690 -0.3823
15933SOL     OW49337   2.338   9.651   0.227 -0.0435  0.2605  0.2898
15933SOL    HW149338   2.425   9.625   0.184 -0.3292 -0.9376  0.4094
15933SOL    HW249339   2.264   9.597   0.187 -0.5352  0.2862  1.1569
15934SOL     OW49340   2.059   9.174   3.003 -0.6016  0.4388 -0.6487
15934SOL    HW149341   1.963   9.186   3.030 -0.0626  2.0725  0.5865
15934SOL    HW249342   2.109   9.259   3.018  1.2613 -0.6697 -0.4164
15935SOL     OW49343   2.716   5.314   2.656 -0.0135 -0.1531  0.0594
15935SOL    HW149344   2.629   5.361   2.640 -0.1355  0.0164  1.2053
15935SOL    HW249345   2.791   5.380   2.655 -0.1468  0.0108  1.3311
15936SOL     OW49346   9.302   6.215   3.737  0.7571  0.1398 -0.4622
15936SOL    HW149347   9.212   6.247   3.710  0.7108  0.2426 -0.1897
15936SOL    HW249348   9.294   6.156   3.817  0.9540  0.3480 -0.2869
15937SOL     OW49349   7.177   2.709   5.025  0.5226 -0.1600 -0.7750
15937SOL    HW149350   7.225   2.793   5.050  0.8286 -0.8180  0.9331
15937SOL    HW249351   7.126   2.675   5.104  1.8317 -2.5414 -0.8908
15938SOL     OW49352   8.770   9.502   3.643  0.2344  0.0383 -0.0683
15938SOL    HW149353   8.846   9.528   3.584  0.4908 -0.1467  0.1764
15938SOL    HW249354   8.756   9.403   3.638 -0.9094  0.2387 -1.2055
15940SOL     OW49355   3.143   9.411   1.381  0.0257  0.1681  0.0507
15940SOL    HW149356   3.045   9.404   1.361  0.5497 -2.8732 -1.6408
15940SOL    HW249357   3.157   9.398   1.480 -1.1148 -1.5594  0.0114
15942SOL     OW49358   9.552   8.508   3.647  0.5168 -0.5733 -0.2397
15942SOL    HW149359   9.462   8.501   3.690 -0.0990 -0.4120 -1.4791
15942SOL    HW249360   9.623   8.482   3.713 -0.4524 -0.9746  0.6543
15943SOL     OW49361   3.881   9.240   2.086  0.3841  0.0155 -0.5118
15943SOL    HW149362   3.816   9.296   2.137 -1.3764  0.8290 -3.5288
15943SOL    HW249363   3.974   9.265   2.112 -0.4289  0.9517  1.6614
15945SOL     OW49364   4.837   2.455   2.673  0.3869 -0.4511 -0.2970
15945SOL    HW149365   4.816   2.359   2.654  2.5287 -1.0114  0.0281
15945SOL    HW249366   4.806   2.511   2.596  1.8920 -1.7694 -1.9244
15946SOL     OW49367   1.324   4.399   2.302  0.2320 -0.0404 -0.6375
15946SOL    HW149368   1.235   4.382   2.258  0.4500  0.4514 -1.2699
15946SOL    HW249369   1.396   4.359   2.246  0.3408 -1.2107  0.3262
15947SOL     OW49370   8.933   3.386   2.886  0.2453  0.1314  0.3457
15947SOL    HW149371   8.967   3.420   2.974 -0.1143  0.1307  0.4862
15947SOL    HW249372   8.907   3.463   2.828 -1.7561  0.0658  1.1409
15948SOL     OW49373   3.271   8.892   2.354 -0.2458 -0.3677  0.2004
15948SOL    HW149374   3.191   8.951   2.364 -2.6121 -3.5241  0.9952
15948SOL    HW249375   3.305   8.897   2.260  0.0039  2.6585  0.4296
15949SOL     OW49376   2.947   0.793   4.179  0.5699  0.2866 -0.1126
15949SOL    HW149377   2.878   0.821   4.113  0.2631 -1.0242 -0.3566
15949SOL    HW249378   3.008   0.871   4.198  1.2851  0.4201 -2.6835
15950SOL     OW49379   7.694   2.893   0.472  0.1333 -0.1019  0.1895
15950SOL    HW149380   7.630   2.851   0.535  3.0985 -1.3743  2.4826
15950SOL    HW249381   7.692   2.992   0.482 -1.5179 -0.1260  0.1450
15951SOL     OW49382   1.041   1.064   0.375 -0.3833 -0.0899  0.4826
15951SOL    HW149383   1.009   0.984   0.324 -0.7540  0.8726 -0.8350
15951SOL    HW249384   0.985   1.076   0.456  0.2220 -1.6623  1.1554
15952SOL     OW49385   8.369   5.680   3.696  0.0134 -0.4269 -0.5289
15952SOL    HW149386   8.458   5.657   3.657 -0.3031 -0.7052 -1.1013
15952SOL    HW249387   8.304   5.606   3.676 -0.0198 -0.8344  0.9933
15955SOL     OW49388   0.617   7.012   4.747 -0.5478  0.2278  0.2151
15955SOL    HW149389   0.674   7.087   4.713 -2.5432  0.8431 -1.9488
15955SOL    HW249390   0.536   7.050   4.792 -0.1888 -0.6359  1.6102
15956SOL     OW49391   2.931   7.140   5.309 -0.3174  0.1239 -0.0593
15956SOL    HW149392   2.995   7.122   5.233  0.5884  0.6562  0.5698
15956SOL    HW249393   2.974   7.201   5.375 -0.1203 -2.3474  2.1957
15958SOL     OW49394   2.594   8.317   1.696 -0.4839 -1.0260  0.4131
15958SOL    HW149395   2.522   8.373   1.655  0.3889 -0.4413 -0.3393
15958SOL    HW249396   2.674   8.374   1.715  0.1156 -1.8496  0.3869
15959SOL     OW49397   4.713   1.702   1.197 -0.2486  0.7360 -0.4241
15959SOL    HW149398   4.730   1.727   1.292  0.3219  1.2994 -0.6716
15959SOL    HW249399   4.751   1.611   1.178 -1.1278  0.2555  0.1166
15960SOL     OW49400   4.277   6.136   1.868  0.1031 -0.2796 -0.7830
15960SOL    HW149401   4.183   6.117   1.838  0.2812  0.8129 -2.0670
15960SOL    HW249402   4.276   6.198   1.946 -0.2395 -0.2182 -0.8370
15961SOL     OW49403   8.845   5.927   3.445  0.5410  0.4512 -0.1146
15961SOL    HW149404   8.875   5.971   3.530 -0.2241  1.0201 -0.1374
15961SOL    HW249405   8.908   5.952   3.371  1.0944  0.1145  0.2304
15962SOL     OW49406   2.003   7.192   4.276 -0.1397  0.0798 -0.6980
15962SOL    HW149407   2.097   7.224   4.268 -0.7497  1.7986 -1.1367
15962SOL    HW249408   1.981   7.176   4.372 -0.2985  2.4606 -0.3120
15963SOL     OW49409   3.897   1.962   2.762  0.3882 -0.4830 -0.3881
15963SOL    HW149410   3.837   1.994   2.835  1.6238  1.8250 -0.3152
15963SOL    HW249411   3.931   2.041   2.711  2.0504 -1.8613 -1.4560
15964SOL     OW49412   0.146   9.644   2.584 -0.2527 -0.6375 -0.4138
15964SOL    HW149413   0.245   9.644   2.594 -0.5237  0.2485  2.6557
15964SOL    HW249414   0.118   9.725   2.533  0.4423  0.3556  0.7602
15965SOL     OW49415   1.407   8.516   2.042 -0.3303  0.1909 -0.0235
15965SOL    HW149416   1.462   8.433   2.055  0.1378  0.0605 -2.5523
15965SOL    HW249417   1.310   8.492   2.047 -0.2297 -0.8578 -2.3999
15966SOL     OW49418   9.052   4.550   4.769 -0.5273 -0.0263 -0.0252
15966SOL    HW149419   9.030   4.501   4.853  0.7034 -1.4403 -0.4854
15966SOL    HW249420   9.045   4.648   4.784  0.3707 -0.2304  1.9489
15968SOL     OW49421   1.684   3.835   4.930 -0.5229 -0.8495  0.0246
15968SOL    HW149422   1.684   3.837   4.830  1.2084  0.2946  0.0194
15968SOL    HW249423   1.619   3.902   4.965 -0.5610 -0.6843 -0.3555
15970SOL     OW49424   0.546   6.133   1.488 -0.9169 -0.0821  0.4059
15970SOL    HW149425   0.484   6.212   1.488 -2.3788 -1.2017  0.9473
15970SOL    HW249426   0.508   6.061   1.546  1.3695 -0.4570  1.4712
15971SOL     OW49427   3.723   1.683   2.263 -0.0699 -0.0089 -0.3017
15971SOL    HW149428   3.681   1.758   2.315  1.8504  1.6010 -1.0019
15971SOL    HW249429   3.771   1.622   2.326  0.8797  1.0329  0.0184
15973SOL     OW49430   0.034   7.478   0.564  0.0720 -0.0314  0.1148
15973SOL    HW149431   0.122   7.432   0.560  0.4467  0.5062  1.6106
15973SOL    HW249432   0.010   7.497   0.660 -1.2057  0.6929 -0.3224
15975SOL     OW49433   1.462   2.363   1.972 -0.1000 -0.0040 -0.1621
15975SOL    HW149434   1.392   2.378   1.902  0.6195 -0.8745 -1.0977
15975SOL    HW249435   1.423   2.375   2.063 -1.2982  0.1545 -0.6971
15976SOL     OW49436   5.736   0.893   1.800  0.1555  0.1948  0.0376
15976SOL    HW149437   5.812   0.931   1.852 -0.2849  1.7649 -0.4590
15976SOL    HW249438   5.655   0.950   1.812 -1.4471 -2.3403  1.9056
15977SOL     OW49439   8.466   8.897   1.879 -0.1541  0.0638 -0.6390
15977SOL    HW149440   8.425   8.898   1.787  2.1986 -3.1958 -1.8202
15977SOL    HW249441   8.552   8.948   1.877 -0.2956  0.3172 -0.1431
15978SOL     OW49442   0.873   8.161   0.313  0.1765  0.4082  0.0459
15978SOL    HW149443   0.894   8.197   0.403  1.7993  0.4194 -0.3239
15978SOL    HW249444   0.937   8.197   0.246 -1.7468  1.3440 -1.3511
15979SOL     OW49445   2.605   6.068   2.802  0.2667 -0.2824  0.2019
15979SOL    HW149446   2.645   6.155   2.772 -0.6404  0.4014  0.9475
15979SOL    HW249447   2.508   6.081   2.823 -0.0107 -1.6030 -0.1997
15980SOL     OW49448   5.746   5.433   1.077  0.2295 -0.2412 -0.1485
15980SOL    HW149449   5.770   5.528   1.098 -0.4894  0.5819 -2.8974
15980SOL    HW249450   5.813   5.395   1.014 -1.4791 -0.3293 -1.9707
15981SOL     OW49451   1.813   1.345   3.473  0.1901 -0.3706 -0.0143
15981SOL    HW149452   1.908   1.325   3.450 -0.1108 -1.0840 -0.6569
15981SOL    HW249453   1.788   1.434   3.436  0.2172 -0.7653 -1.0010
15984SOL     OW49454   9.884   1.008   1.563  0.3886 -0.1197  0.0933
15984SOL    HW149455   9.978   1.000   1.596  0.6487 -0.5984 -0.7464
15984SOL    HW249456   9.885   1.037   1.467 -0.3149 -0.3086  0.0263
15985SOL     OW49457   1.321   3.724   2.447  0.2153  0.2338 -0.0457
15985SOL    HW149458   1.389   3.689   2.383 -1.5993  0.1241 -1.9689
15985SOL    HW249459   1.240   3.666   2.444 -1.3250  2.3526 -0.4066
15986SOL     OW49460   9.902   4.515   1.801 -0.2937 -0.0408 -0.4647
15986SOL    HW149461   9.943   4.606   1.791  0.4309 -0.1989  0.7923
15986SOL    HW249462   9.974   4.446   1.795 -0.0403 -0.2389  3.4472
15988SOL     OW49463   4.629   4.002   0.474  0.0347 -0.2677  0.4125
15988SOL    HW149464   4.697   3.949   0.525  0.2116 -0.9613 -0.5443
15988SOL    HW249465   4.666   4.026   0.385 -1.8498 -2.6983 -1.0723
15989SOL     OW49466   3.713   5.537   4.904  0.0984  0.1707  0.1939
15989SOL    HW149467   3.671   5.605   4.843 -1.0372 -0.4835  0.2331
15989SOL    HW249468   3.775   5.479   4.850  0.4151  0.6874 -0.0031
15990SOL     OW49469   7.917   3.152   3.945 -0.2884  0.0700  0.4163
15990SOL    HW149470   8.014   3.149   3.919 -0.4574  0.0544 -0.2363
15990SOL    HW249471   7.881   3.244   3.927 -0.4218  0.0404  0.5335
15991SOL     OW49472   3.222   8.360   4.894  0.5651 -0.9478  0.5163
15991SOL    HW149473   3.196   8.290   4.961 -0.1565 -1.1799  0.0014
15991SOL    HW249474   3.239   8.317   4.805 -3.4819 -0.1511 -0.7755
15992SOL     OW49475   3.381   0.389   3.738 -0.8651  0.4355  0.2638
15992SOL    HW149476   3.375   0.348   3.646 -0.6462  0.5114  0.2169
15992SOL    HW249477   3.318   0.467   3.743  1.5471  2.5244 -0.9100
15994SOL     OW49478   8.272   4.913   1.961 -0.2892 -0.2918 -0.7057
15994SOL    HW149479   8.253   4.861   1.878 -0.0220 -1.5498  0.0123
15994SOL    HW249480   8.371   4.923   1.971 -0.3518  2.0189 -1.8351
15995SOL     OW49481   5.684   8.476   3.242 -0.0270  0.1830  0.9130
15995SOL    HW149482   5.748   8.513   3.310 -1.0860 -0.1050  2.0712
15995SOL    HW249483   5.731   8.469   3.154  2.4899 -2.8417  2.4146
15996SOL     OW49484   7.451   6.512   5.126 -0.4093 -0.6458 -0.4615
15996SOL    HW149485   7.385   6.508   5.201  1.0558  0.2102  0.8961
15996SOL    HW249486   7.517   6.437   5.135  2.1792  1.7640  1.4339
15997SOL     OW49487   3.515   3.557   0.778 -0.3137  0.0495  0.5296
15997SOL    HW149488   3.476   3.551   0.869  0.3259 -0.3114  0.7800
15997SOL    HW249489   3.483   3.641   0.734  1.0886  1.3104  1.8832
15998SOL     OW49490   7.536   1.957   4.092 -0.1962  0.2914  0.2389
15998SOL    HW149491   7.613   1.894   4.080  0.8716  1.1204  2.4280
15998SOL    HW249492   7.489   1.935   4.178 -0.6752  1.5964  0.3150
15999SOL     OW49493   2.120   9.537   2.528  0.1933  0.4803  0.4855
15999SOL    HW149494   2.087   9.522   2.435  2.5421  1.2974 -0.5164
15999SOL    HW249495   2.044   9.564   2.586 -1.8387 -2.7671 -0.5320
16001SOL     OW49496   0.946   5.318   4.316 -0.2709 -0.0519 -0.2211
16001SOL    HW149497   1.017   5.319   4.246  1.3635 -1.5114  1.3892
16001SOL    HW249498   0.958   5.396   4.377 -0.0012 -0.3494  0.1050
16002SOL     OW49499   4.116   5.471   1.452  0.1039 -0.5691 -0.0237
16002SOL    HW149500   4.179   5.394   1.459 -0.1029 -0.5847  1.7852
16002SOL    HW249501   4.144   5.543   1.516 -1.7395 -0.5949  0.8347
16003SOL     OW49502   0.643   2.355   1.818 -0.2206 -0.5374 -0.0956
16003SOL    HW149503   0.634   2.329   1.722 -0.9687 -1.2866  0.1704
16003SOL    HW249504   0.709   2.295   1.864  0.8263  0.3970 -0.3442
16004SOL     OW49505   2.059   9.592   4.317  0.1356  0.1916  0.0876
16004SOL    HW149506   2.015   9.618   4.231  0.8868 -2.8657 -1.2742
16004SOL    HW249507   1.994   9.602   4.392 -0.4603  3.1041 -0.7582
16005SOL     OW49508   8.467   6.599   3.426 -1.2633 -0.2890  0.2329
16005SOL    HW149509   8.406   6.521   3.439 -0.7623 -0.7034  0.1148
16005SOL    HW249510   8.562   6.569   3.434 -1.0783  0.3859  0.5930
16006SOL     OW49511   7.208   0.954   1.754 -0.2972 -0.0038  0.1820
16006SOL    HW149512   7.160   1.041   1.767  0.1477  0.4860 -1.3130
16006SOL    HW249513   7.304   0.972   1.735 -0.4617 -0.7440 -1.4217
16007SOL     OW49514   7.221   9.588   2.557  0.9246  0.4584 -0.3609
16007SOL    HW149515   7.273   9.521   2.611  0.1150  0.3857  0.3339
16007SOL    HW249516   7.128   9.554   2.544 -0.4611  2.9277  2.7547
16008SOL     OW49517   8.429   7.206   2.203  0.8650  0.0102  0.4768
16008SOL    HW149518   8.343   7.162   2.230 -0.1635  1.0846 -1.0166
16008SOL    HW249519   8.454   7.274   2.272 -0.4705  1.0022  0.0098
16009SOL     OW49520   5.264   9.592   2.955 -0.1342 -0.3775 -0.0348
16009SOL    HW149521   5.356   9.631   2.965 -0.3694  0.5531 -1.2438
16009SOL    HW249522   5.261   9.500   2.994  1.4864 -0.6693 -0.5747
16010SOL     OW49523   1.081   2.494   1.569  0.5114  0.2365  0.0804
16010SOL    HW149524   1.018   2.570   1.586  1.8277  1.3560  0.0971
16010SOL    HW249525   1.031   2.408   1.569 -0.9344  1.0627  0.5612
16011SOL     OW49526   7.165   7.973   4.154 -0.4174 -0.5971 -0.2664
16011SOL    HW149527   7.157   7.909   4.230 -1.0633  0.3174  0.4482
16011SOL    HW249528   7.078   7.977   4.104 -0.7690  0.6262  0.4291
16012SOL     OW49529   1.899   0.793   1.747  0.2544 -0.2132 -0.3908
16012SOL    HW149530   1.895   0.886   1.710 -3.0130  0.1179  0.6565
16012SOL    HW249531   1.839   0.734   1.694 -2.1424 -0.4110  2.4303
16014SOL     OW49532   4.085   0.027   1.882  0.4158 -0.4977 -0.0462
16014SOL    HW149533   4.137   0.099   1.929  1.4729 -1.7152  0.6862
16014SOL    HW249534   4.072   0.052   1.786  1.1479  0.4758  0.1042
16015SOL     OW49535   4.889   0.191   0.481  0.0391  0.3810 -0.0467
16015SOL    HW149536   4.875   0.096   0.511 -0.7634  0.1849 -1.0141
16015SOL    HW249537   4.889   0.251   0.561 -2.2838 -0.1151  0.3785
16016SOL     OW49538   1.927   1.586   0.576 -0.2697  0.1540 -0.4217
16016SOL    HW149539   1.871   1.523   0.630  1.3306 -0.2838  0.7780
16016SOL    HW249540   2.023   1.567   0.593  0.2417  1.9503 -1.2193
16017SOL     OW49541   8.063   8.080   4.021 -1.0493  0.5731 -0.0679
16017SOL    HW149542   8.110   7.996   3.996  0.4886  0.9229  1.5230
16017SOL    HW249543   7.999   8.062   4.096 -0.9692  0.7449  0.0430
16018SOL     OW49544   4.979   1.264   4.291 -0.0924  0.3027  0.1801
16018SOL    HW149545   4.928   1.262   4.377 -1.0797 -0.5042 -0.4103
16018SOL    HW249546   4.916   1.283   4.215  0.4889 -0.6656 -0.5537
16019SOL     OW49547   4.718   4.005   4.477  0.4723 -0.4457 -0.1393
16019SOL    HW149548   4.818   4.013   4.467  0.5246 -0.8157  0.0678
16019SOL    HW249549   4.698   3.938   4.549  0.0717 -0.6388 -0.4332
16020SOL     OW49550   9.111   0.681   2.687  0.2194 -0.2905  0.3781
16020SOL    HW149551   9.205   0.677   2.720  0.5109 -0.3031 -0.4441
16020SOL    HW249552   9.062   0.755   2.733  1.1744  0.9527 -0.5609
16021SOL     OW49553   0.068   2.970   0.780 -0.4602 -0.4549 -0.2407
16021SOL    HW149554   0.115   2.971   0.868 -1.2066  1.5235  0.1625
16021SOL    HW249555   0.067   3.062   0.741 -1.1749 -1.0811 -1.7734
16022SOL     OW49556   0.573   3.331   1.670  0.4331  0.4008 -0.3874
16022SOL    HW149557   0.535   3.338   1.762 -0.0620 -0.7770 -0.4869
16022SOL    HW249558   0.670   3.354   1.672  0.4444  0.2873  0.4552
16023SOL     OW49559   2.124   6.762   0.815 -0.1856  0.7624  0.3478
16023SOL    HW149560   2.155   6.669   0.796 -0.2523  0.5739  1.1577
16023SOL    HW249561   2.196   6.813   0.862 -0.1021  1.1639 -0.2066
16024SOL     OW49562   0.573   9.232   0.188  0.0303  0.2993 -0.5553
16024SOL    HW149563   0.665   9.191   0.191 -0.1909 -0.3689 -2.2716
16024SOL    HW249564   0.577   9.324   0.226  0.7274 -0.9389  2.5248
16025SOL     OW49565   5.434   9.579   4.229 -0.3533 -0.2967  0.0721
16025SOL    HW149566   5.475   9.573   4.137 -1.8767  1.7363 -0.7757
16025SOL    HW249567   5.416   9.487   4.263  1.5666 -1.1290 -1.0510
16026SOL     OW49568   0.442   6.703   1.351 -0.5572 -0.5305 -0.1058
16026SOL    HW149569   0.462   6.780   1.412 -1.3078 -2.0690  2.1383
16026SOL    HW249570   0.462   6.617   1.397 -2.5177 -1.7940 -1.5085
16027SOL     OW49571   9.819   1.940   3.848 -0.4884 -0.1986 -0.1191
16027SOL    HW149572   9.823   1.937   3.748  0.8786 -0.6115 -0.0581
16027SOL    HW249573   9.847   2.031   3.879  1.3319 -0.7582 -0.0322
16028SOL     OW49574   3.238   3.794   1.346  0.1336 -0.1470  0.2943
16028SOL    HW149575   3.240   3.811   1.247 -4.6023  2.0605  0.4304
16028SOL    HW249576   3.224   3.697   1.362 -0.3241 -0.3691 -1.2993
16029SOL     OW49577   1.817   2.345   0.325 -0.0766 -0.4735  0.1105
16029SOL    HW149578   1.800   2.262   0.271 -0.6090 -0.5256  0.3574
16029SOL    HW249579   1.836   2.320   0.420  1.2640 -0.4080 -0.1234
16030SOL     OW49580   4.438   2.977   0.440 -0.2970 -0.3659 -0.2092
16030SOL    HW149581   4.435   3.031   0.356 -0.6142 -0.5537 -0.3173
16030SOL    HW249582   4.511   2.909   0.433 -0.1909 -0.2488 -0.2483
16031SOL     OW49583   3.669   6.097   0.802 -0.1909  0.1506 -0.2479
16031SOL    HW149584   3.600   6.136   0.864 -0.6084 -0.4745 -0.3133
16031SOL    HW249585   3.754   6.148   0.810 -0.2782  0.1424  0.7669
16033SOL     OW49586   0.952   1.276   2.919 -0.3521  0.2403 -0.2651
16033SOL    HW149587   1.018   1.312   2.854  1.2455  0.0469  1.2328
16033SOL    HW249588   0.966   1.318   3.009 -1.1490 -1.0465  0.4858
16034SOL     OW49589   2.864   7.770   1.706  0.2146  0.0311  0.0285
16034SOL    HW149590   2.775   7.803   1.735  0.2067 -0.0385  0.0839
16034SOL    HW249591   2.852   7.691   1.645  0.2120  0.5798 -0.6821
16035SOL     OW49592   6.043   9.653   1.878  0.0861 -0.1087  0.5273
16035SOL    HW149593   6.010   9.561   1.855  0.2386  0.2016 -0.9342
16035SOL    HW249594   5.965   9.711   1.902 -0.1597 -0.1640 -0.1400
16036SOL     OW49595   0.519   2.179   3.675  0.6428 -0.0579  0.0601
16036SOL    HW149596   0.472   2.242   3.614  1.4060  1.2699  0.8274
16036SOL    HW249597   0.455   2.111   3.710 -0.6664  1.6093  0.9496
16037SOL     OW49598   5.293   8.805   4.743  0.2131 -0.3178  0.4686
16037SOL    HW149599   5.349   8.879   4.706  0.9082 -0.7278  0.6953
16037SOL    HW249600   5.290   8.812   4.843 -2.8067  1.6243  0.3198
16038SOL     OW49601   2.150   7.468   3.976  0.1214  0.2962  0.0429
16038SOL    HW149602   2.055   7.436   3.977  0.1390  0.2510  1.5285
16038SOL    HW249603   2.170   7.517   4.061  0.6237  2.7579 -1.4542
16040SOL     OW49604   2.775   3.059   4.242 -1.1636 -0.2362 -0.0708
16040SOL    HW149605   2.729   3.030   4.326 -1.6967 -0.1810 -0.3450
16040SOL    HW249606   2.873   3.072   4.261 -1.2163 -0.5742  0.4547
16041SOL     OW49607   0.838   6.828   2.743 -0.4751 -0.3529 -0.0512
16041SOL    HW149608   0.744   6.797   2.732 -1.0191  0.6792  1.4966
16041SOL    HW249609   0.876   6.791   2.827 -0.4147  1.3665  0.7088
16043SOL     OW49610   3.091   1.994   5.230 -0.5711 -0.3093 -0.2849
16043SOL    HW149611   3.174   1.945   5.255 -0.7889 -1.4616 -1.7104
16043SOL    HW249612   3.115   2.083   5.189 -0.0699 -0.3164 -0.0038
16044SOL     OW49613   0.675   1.414   1.348  0.0193 -0.3664 -0.4108
16044SOL    HW149614   0.710   1.502   1.315 -2.3916  0.5625 -0.5452
16044SOL    HW249615   0.617   1.429   1.428 -1.3419 -1.7319 -1.1376
16045SOL     OW49616   3.290   0.946   1.684 -0.0864 -0.1515 -0.7484
16045SOL    HW149617   3.356   0.988   1.621  0.3523  0.5021  0.1463
16045SOL    HW249618   3.261   1.013   1.752 -1.0843 -0.6645 -0.6637
16046SOL     OW49619   1.609   3.162   5.018  0.4215  0.2625 -0.2911
16046SOL    HW149620   1.544   3.237   5.024  1.8138  1.4977 -0.4481
16046SOL    HW249621   1.670   3.164   5.096  0.4426 -0.7384 -0.2759
16049SOL     OW49622   6.164   8.012   5.069  0.4078 -0.0507  0.5679
16049SOL    HW149623   6.248   8.003   5.015  0.6627  4.2803  0.0405
16049SOL    HW249624   6.087   8.030   5.007  0.2879  2.5786  1.4540
16050SOL     OW49625   9.782   7.911   3.651  0.1482 -0.7892 -0.2529
16050SOL    HW149626   9.755   7.960   3.734 -0.8674 -2.3139  0.3281
16050SOL    HW249627   9.873   7.942   3.623 -0.9027  2.1895 -0.5148
16051SOL     OW49628   0.118   4.753   1.091 -0.7199 -0.0008  0.6511
16051SOL    HW149629   0.137   4.847   1.062  0.6759 -0.1551  1.0468
16051SOL    HW249630   0.133   4.745   1.190 -0.8173 -0.6433  0.6180
16052SOL     OW49631   6.418   1.313   3.510 -0.4636 -0.9367 -0.0326
16052SOL    HW149632   6.423   1.267   3.599 -0.8328 -0.0042  0.4699
16052SOL    HW249633   6.452   1.251   3.439  1.2522 -1.1487  0.9489
16053SOL     OW49634   2.890   9.226   2.175 -0.3644  0.2605  0.0817
16053SOL    HW149635   2.907   9.212   2.077  1.1401  0.5866  0.2782
16053SOL    HW249636   2.802   9.186   2.199 -3.0107  4.2273 -2.3603
16054SOL     OW49637   3.720   5.324   2.010 -0.4246 -0.0663  0.4401
16054SOL    HW149638   3.625   5.347   2.032  0.0184  0.8360  1.4680
16054SOL    HW249639   3.722   5.249   1.943 -1.8547  0.4526 -0.1982
16057SOL     OW49640   8.418   0.450   4.566 -0.2897 -0.1583 -0.3751
16057SOL    HW149641   8.337   0.415   4.614  0.8623 -0.0490  1.7195
16057SOL    HW249642   8.389   0.504   4.486 -2.3448  0.9314  1.0505
16058SOL     OW49643   9.781   9.333   1.241  0.8839  0.3505  0.0433
16058SOL    HW149644   9.831   9.331   1.328  2.1859  3.3714 -0.5471
16058SOL    HW249645   9.686   9.360   1.258  0.5217 -1.2983  0.7370
16059SOL     OW49646   7.559   4.452   1.230  0.2253 -0.3357  0.4916
16059SOL    HW149647   7.573   4.520   1.302  0.6434  0.2362 -0.1168
16059SOL    HW249648   7.460   4.441   1.214  0.1721  1.1141 -0.3037
16061SOL     OW49649   1.549   6.343   3.918  0.0004  0.5492  0.4536
16061SOL    HW149650   1.471   6.348   3.855  1.1912  3.1314 -0.8567
16061SOL    HW249651   1.569   6.434   3.954  1.8538 -0.2415  1.4814
16062SOL     OW49652   9.659   9.480   5.085 -0.2628  0.3166  0.3055
16062SOL    HW149653   9.681   9.384   5.104 -0.3231  0.2331 -0.0497
16062SOL    HW249654   9.562   9.488   5.062 -0.2040  0.4330  0.1037
16063SOL     OW49655   9.594   5.591   4.107 -0.0031 -0.2284 -0.4386
16063SOL    HW149656   9.498   5.571   4.090 -0.5535  0.1739  2.1020
16063SOL    HW249657   9.645   5.506   4.117 -0.5296 -0.4352  0.5276
16064SOL     OW49658   2.513   0.739   4.971 -0.2607 -0.0053  0.3936
16064SOL    HW149659   2.496   0.708   4.877 -0.3121 -0.1398  0.4473
16064SOL    HW249660   2.612   0.752   4.984 -0.3586  1.2182 -0.0486
16065SOL     OW49661   1.005   6.321   4.011 -0.5791 -0.0643  0.0384
16065SOL    HW149662   1.015   6.382   3.932  1.7547  1.5811  1.5636
16065SOL    HW249663   0.956   6.368   4.084 -0.6814 -0.7859  0.4449
16066SOL     OW49664   2.288   0.751   0.395 -0.1192 -0.0544 -0.4286
16066SOL    HW149665   2.331   0.833   0.432  1.6406 -1.1899  0.1045
16066SOL    HW249666   2.253   0.694   0.470  0.1483 -0.5790 -0.6955
16069SOL     OW49667   3.487   4.216   3.910  0.4636  0.5814 -0.4882
16069SOL    HW149668   3.415   4.261   3.857 -0.3633 -0.7759 -0.5174
16069SOL    HW249669   3.576   4.246   3.876 -0.0557  0.1440 -2.2762
16071SOL     OW49670   1.659   8.556   3.885  0.7445 -0.6276 -0.1421
16071SOL    HW149671   1.689   8.631   3.826  1.3519 -1.2817 -0.6769
16071SOL    HW249672   1.699   8.471   3.853 -1.0802 -1.4084 -0.4033
16072SOL     OW49673   8.964   5.243   4.263 -0.1569  0.1200  0.1212
16072SOL    HW149674   8.904   5.273   4.337 -0.3151  0.6240 -0.2047
16072SOL    HW249675   9.059   5.267   4.285 -0.1953  0.2056  0.1942
16073SOL     OW49676   8.327   1.056   0.731 -0.0242  0.3408  0.3900
16073SOL    HW149677   8.400   1.101   0.782  1.8758 -0.4174 -1.5731
16073SOL    HW249678   8.367   1.004   0.655 -2.5428 -0.8676 -0.1503
16075SOL     OW49679   8.283   5.862   0.941  0.0099  0.3479 -0.0097
16075SOL    HW149680   8.215   5.928   0.907  0.7184  0.3675 -1.4391
16075SOL    HW249681   8.355   5.851   0.873  0.7119 -0.7417  0.8920
16076SOL     OW49682   1.996   4.996   3.261 -0.7976 -0.4634  0.1214
16076SOL    HW149683   2.040   4.953   3.340 -0.8281 -0.0434  0.3720
16076SOL    HW249684   1.928   5.062   3.293 -0.1248  0.4218 -0.2339
16077SOL     OW49685   9.222   3.783   2.045 -0.6577 -0.2403 -0.2172
16077SOL    HW149686   9.299   3.720   2.056  0.0104  0.4167 -0.9901
16077SOL    HW249687   9.170   3.758   1.963 -1.1451 -0.5568  0.1876
16078SOL     OW49688   1.016   9.745   3.922 -0.5689  0.0921  0.2364
16078SOL    HW149689   0.925   9.723   3.887  0.3639  1.5652 -3.3403
16078SOL    HW249690   1.024   9.844   3.935  0.8649  0.0759 -0.4756
16079SOL     OW49691   6.776   9.380   3.328 -0.0782  0.6952 -0.0350
16079SOL    HW149692   6.820   9.357   3.415 -0.6189  0.8292  0.2765
16079SOL    HW249693   6.841   9.430   3.270  1.0780 -1.5348 -0.6937
16080SOL     OW49694   8.472   0.692   2.701 -0.3867 -0.1299 -0.0685
16080SOL    HW149695   8.463   0.595   2.676 -1.0982  0.0124 -0.3796
16080SOL    HW249696   8.553   0.704   2.759  0.5035 -0.6901 -1.1731
16081SOL     OW49697   5.375   1.686   2.674  0.4810  0.4938 -0.2000
16081SOL    HW149698   5.324   1.752   2.619  0.2818  0.0566 -0.5373
16081SOL    HW249699   5.427   1.625   2.614  1.9235  1.3503  0.1488
16082SOL     OW49700   8.910   4.665   4.532  1.1456 -0.2754 -0.0636
16082SOL    HW149701   8.823   4.622   4.559  1.4093  0.5975  2.2997
16082SOL    HW249702   8.984   4.599   4.542  0.6958 -1.2307 -2.7339
16085SOL     OW49703   8.989   3.749   2.748 -0.2320  0.8469  1.1141
16085SOL    HW149704   9.032   3.752   2.838  0.1975 -0.1637  0.9432
16085SOL    HW249705   8.899   3.705   2.756  1.2112 -2.3182  0.4969
16086SOL     OW49706   1.232   3.670   4.494  0.0511  0.0492  0.4256
16086SOL    HW149707   1.277   3.603   4.434 -1.7454 -1.3226  0.5663
16086SOL    HW249708   1.203   3.625   4.578 -1.3230  0.9754  0.4500
16087SOL     OW49709   5.025   2.549   4.403 -0.1428  0.1740  0.0278
16087SOL    HW149710   5.094   2.488   4.365 -0.4621 -0.7876  0.9487
16087SOL    HW249711   5.016   2.531   4.501 -0.3240  1.6322  0.2899
16088SOL     OW49712   6.245   8.909   2.879  0.2046  0.3797 -0.2631
16088SOL    HW149713   6.334   8.952   2.895  1.0132 -1.0508 -0.8552
16088SOL    HW249714   6.213   8.866   2.963 -0.5115  1.9358  0.2774
16089SOL     OW49715   9.245   1.605   2.901  0.1438  0.0140  0.1161
16089SOL    HW149716   9.209   1.601   2.995  2.4147  1.4507  1.0988
16089SOL    HW249717   9.311   1.531   2.889 -1.7705 -1.5558 -1.1289
16090SOL     OW49718   1.291   0.507   2.453  0.4550  0.1374 -0.3068
16090SOL    HW149719   1.213   0.444   2.457  0.8438 -0.4235 -1.3885
16090SOL    HW249720   1.318   0.531   2.546 -0.4546 -0.3529  0.0986
16091SOL     OW49721   0.197   7.527   1.766  0.3081  0.1452 -0.1518
16091SOL    HW149722   0.208   7.592   1.691  0.7921 -1.0856 -1.1649
16091SOL    HW249723   0.257   7.448   1.751 -0.8808 -0.9277  0.6105
16092SOL     OW49724   3.931   0.038   3.416 -0.1218 -0.0449  0.0046
16092SOL    HW149725   4.022  -0.003   3.422 -0.1733 -0.1552  0.0385
16092SOL    HW249726   3.916   0.072   3.323 -0.5582 -1.2185 -0.3528
16093SOL     OW49727   0.946   0.920   1.926 -0.6226  0.0067 -0.8026
16093SOL    HW149728   0.975   1.009   1.961  0.8779  0.0443 -2.1035
16093SOL    HW249729   0.902   0.932   1.837 -3.7413 -0.1734  0.6460
16094SOL     OW49730   0.778   8.694   4.429 -0.2821 -0.3250  0.2879
16094SOL    HW149731   0.738   8.737   4.348  0.5869  0.4596  0.2622
16094SOL    HW249732   0.708   8.640   4.477 -1.2398  0.6402 -0.0073
16095SOL     OW49733   1.696   7.341   5.284  0.1707 -0.0768  0.1264
16095SOL    HW149734   1.620   7.403   5.265  0.4423  0.0830 -0.4295
16095SOL    HW249735   1.690   7.262   5.224  0.8352  0.2674 -0.3940
16096SOL     OW49736   4.023   2.979   0.474 -0.1827 -0.1415  0.7517
16096SOL    HW149737   3.979   3.052   0.526 -1.9668 -1.1197  0.6403
16096SOL    HW249738   4.015   2.892   0.524  1.4651 -0.3745  0.6433
16097SOL     OW49739   7.509   2.592   2.566 -0.0017  0.0674 -0.0901
16097SOL    HW149740   7.507   2.549   2.475 -1.5924 -0.9112  0.3900
16097SOL    HW249741   7.535   2.524   2.634  0.3103  0.5867  0.3116
16098SOL     OW49742   0.368   2.718   0.786  0.4527  0.3345  0.2845
16098SOL    HW149743   0.409   2.746   0.700  0.6467 -0.9073 -0.0381
16098SOL    HW249744   0.283   2.667   0.768  0.4591  0.1230  0.8247
16099SOL     OW49745   4.586   0.335   4.569 -0.6429  0.0901  0.1386
16099SOL    HW149746   4.531   0.252   4.555  2.9625 -2.6747  1.6494
16099SOL    HW249747   4.633   0.358   4.484 -0.5208 -0.2417  0.1170
16100SOL     OW49748   0.410   9.480   1.577  0.3272  0.1513  0.2269
16100SOL    HW149749   0.348   9.537   1.631  0.0722 -1.8036  2.0609
16100SOL    HW249750   0.491   9.458   1.631  2.2278  1.9067 -1.8250
16102SOL     OW49751   0.356   0.698   1.633  0.0886 -0.0691  0.2645
16102SOL    HW149752   0.411   0.648   1.566  1.0518  0.7366  0.4503
16102SOL    HW249753   0.392   0.791   1.643 -0.7123  0.1528  1.1048
16103SOL     OW49754   3.630   1.875   4.816 -0.2369  0.1003  0.3595
16103SOL    HW149755   3.719   1.833   4.799 -1.1672 -1.4216 -0.9909
16103SOL    HW249756   3.595   1.844   4.905 -0.8839 -2.0193 -0.5956
16105SOL     OW49757   9.903   5.950   4.903 -0.2531  0.1321 -0.5139
16105SOL    HW149758   9.861   5.975   4.990 -1.7515 -4.3812  0.2053
16105SOL    HW249759   9.994   5.913   4.919  0.1496  0.8729 -1.0658
16106SOL     OW49760   8.669   8.730   0.645 -0.0725 -0.4455  0.4960
16106SOL    HW149761   8.671   8.781   0.731  1.4257  2.2124 -1.0585
16106SOL    HW249762   8.638   8.791   0.572 -0.7368 -2.5214 -0.9723
16107SOL     OW49763   4.136   0.462   0.922  0.4577 -0.1278 -0.0342
16107SOL    HW149764   4.069   0.524   0.963 -0.0196 -0.7483  0.1141
16107SOL    HW249765   4.184   0.412   0.993  0.2580 -0.5468 -0.1962
16108SOL     OW49766   9.650   7.706   4.295  0.3588  0.5663 -0.1179
16108SOL    HW149767   9.560   7.732   4.330  0.0101  0.8515 -1.2266
16108SOL    HW249768   9.707   7.674   4.371 -0.5737  0.6703  0.6306
16109SOL     OW49769   3.238   5.580   3.499 -0.0912 -0.0329  0.3867
16109SOL    HW149770   3.268   5.564   3.594 -1.2403  0.4187  0.8306
16109SOL    HW249771   3.292   5.521   3.438 -0.0035 -1.0510  1.4072
16110SOL     OW49772   2.421   2.906   4.768  0.0029  0.0289 -0.3318
16110SOL    HW149773   2.405   2.999   4.735  0.1512 -0.0821 -0.7250
16110SOL    HW249774   2.350   2.881   4.834  1.2241  1.2274  1.4659
16111SOL     OW49775   1.577   1.510   2.138  0.3989  0.2805  0.1883
16111SOL    HW149776   1.555   1.448   2.063  0.1535  0.7359 -0.1215
16111SOL    HW249777   1.494   1.529   2.191  1.0102 -1.7930  1.9208
16112SOL     OW49778   7.259   9.097   3.410  0.2942  0.1605 -0.2362
16112SOL    HW149779   7.179   9.099   3.351  0.5294  0.5194 -0.5535
16112SOL    HW249780   7.342   9.092   3.353  0.4418 -1.6507  0.1305
16113SOL     OW49781   0.662   6.673   0.752 -0.1626  0.8250  0.1617
16113SOL    HW149782   0.626   6.750   0.804 -2.6833 -0.1886 -0.0436
16113SOL    HW249783   0.675   6.701   0.657 -0.1058  1.2778  0.2977
16114SOL     OW49784   2.093   1.885   1.887 -0.2092 -0.4726 -0.2984
16114SOL    HW149785   2.061   1.800   1.928  0.2568 -0.8667 -0.7403
16114SOL    HW249786   2.166   1.865   1.822  0.2706  0.3259 -0.0080
16115SOL     OW49787   8.518   0.454   1.871 -0.5204 -0.2385 -0.0082
16115SOL    HW149788   8.527   0.379   1.806  0.5519 -0.0455 -0.0941
16115SOL    HW249789   8.498   0.419   1.962 -0.4510 -0.5993 -0.1345
16116SOL     OW49790   4.310   9.340   0.019  0.5698 -0.6367 -0.6212
16116SOL    HW149791   4.364   9.329  -0.064  2.4910  2.0163  0.2141
16116SOL    HW249792   4.225   9.388  -0.002  0.2097 -1.5636 -1.3208
16119SOL     OW49793   1.561   2.205   4.641 -0.0937 -0.0355  0.0103
16119SOL    HW149794   1.624   2.128   4.632 -0.6338 -0.5714  0.7237
16119SOL    HW249795   1.477   2.186   4.591  0.5203  0.9175 -1.4045
16120SOL     OW49796   8.835   6.450   4.195 -0.4921 -0.0596 -0.1697
16120SOL    HW149797   8.888   6.475   4.114 -0.2595 -0.4963 -0.1560
16120SOL    HW249798   8.795   6.532   4.236 -2.2153 -0.0435 -1.8318
16121SOL     OW49799   0.878   5.953   1.882 -0.4723  0.0739  0.5519
16121SOL    HW149800   0.817   6.031   1.892  0.1458  0.5034  0.9807
16121SOL    HW249801   0.967   5.974   1.924  0.3487 -0.1279 -1.0724
16123SOL     OW49802   4.692   4.782   2.057 -0.1862 -0.7326 -0.3115
16123SOL    HW149803   4.713   4.764   1.961 -0.4397  1.7027 -0.8599
16123SOL    HW249804   4.606   4.834   2.063 -0.0603 -0.6796  1.2170
16124SOL     OW49805   4.206   5.326   2.895  0.1060 -0.0828 -0.4191
16124SOL    HW149806   4.291   5.333   2.843  0.2768  0.4597 -0.0683
16124SOL    HW249807   4.215   5.374   2.982 -1.4866  2.4189 -1.5866
16126SOL     OW49808   0.415   5.555   3.946  0.4438  0.0869 -0.7431
16126SOL    HW149809   0.426   5.520   4.038 -1.4730 -0.1273 -0.5894
16126SOL    HW249810   0.479   5.508   3.884 -0.1366 -1.6751 -0.0291
16129SOL     OW49811   3.996   7.914   2.329 -0.0292 -0.6236 -0.4797
16129SOL    HW149812   4.086   7.885   2.362  0.4783  0.6713 -0.6678
16129SOL    HW249813   3.994   7.910   2.229  0.6449  1.5705 -0.6161
16130SOL     OW49814   6.400   9.285   3.019  0.0306  0.3983 -0.3511
16130SOL    HW149815   6.495   9.266   3.040  0.2254  0.6441 -0.9851
16130SOL    HW249816   6.376   9.242   2.931 -0.0826  1.3910 -0.8163
16131SOL     OW49817   8.817   4.783   1.268  0.3065  0.3168  0.3123
16131SOL    HW149818   8.789   4.691   1.242 -0.6183 -0.4685  3.8463
16131SOL    HW249819   8.899   4.809   1.217  0.6560 -2.5040 -0.6355
16132SOL     OW49820   0.762   9.713   3.858  0.1178  0.2343  0.3123
16132SOL    HW149821   0.688   9.647   3.870 -1.0360  0.9687 -2.3971
16132SOL    HW249822   0.723   9.803   3.835  1.7847  1.0839  0.7437
16133SOL     OW49823   7.076   2.080   4.176  0.2269 -0.2063 -0.3711
16133SOL    HW149824   7.133   2.143   4.229  0.1160 -1.2821  1.0427
16133SOL    HW249825   6.988   2.068   4.221  0.0588 -0.9817 -0.8959
16134SOL     OW49826   4.021   8.956   1.361 -0.1302  0.2559  0.2303
16134SOL    HW149827   3.924   8.937   1.345 -0.0701  0.2079 -0.0742
16134SOL    HW249828   4.041   8.946   1.459 -0.4618  0.4010  0.3160
16135SOL     OW49829   8.702   9.100   5.011 -0.0246 -0.0618  0.5441
16135SOL    HW149830   8.790   9.057   4.990 -0.5755 -1.8366  1.7233
16135SOL    HW249831   8.681   9.170   4.942  2.1198  0.1147  0.0481
16136SOL     OW49832   1.719   5.599   0.577  0.1119 -0.2437  0.1717
16136SOL    HW149833   1.636   5.648   0.550 -0.5112  0.3918  3.0965
16136SOL    HW249834   1.784   5.663   0.619  0.8445 -1.2854  0.6495
16137SOL     OW49835   9.118   2.930   3.297 -0.3856 -0.4754  0.8116
16137SOL    HW149836   9.069   2.875   3.365 -0.2514 -2.8356 -0.9576
16137SOL    HW249837   9.067   2.930   3.211  1.5206 -1.0559 -0.3662
16138SOL     OW49838   0.138   0.719   2.999  0.0716  0.1081  0.2627
16138SOL    HW149839   0.135   0.776   2.916 -1.3024  2.3322  1.7848
16138SOL    HW249840   0.053   0.667   3.006  1.2524 -2.0497 -1.0314
16139SOL     OW49841   4.618   2.767   0.366  0.0966 -0.0963  0.3041
16139SOL    HW149842   4.651   2.740   0.276  0.8190  0.8764  0.2705
16139SOL    HW249843   4.603   2.685   0.422  0.1236 -0.6729 -0.5266
16140SOL     OW49844   3.566   6.758   3.600  0.0695 -0.2556 -0.2349
16140SOL    HW149845   3.530   6.815   3.527 -0.4531 -1.1577 -0.6990
16140SOL    HW249846   3.604   6.816   3.673 -0.6809  0.6762 -0.5754
16141SOL     OW49847   9.671   4.816   0.827  1.0214  0.1682  0.3163
16141SOL    HW149848   9.766   4.786   0.833  0.9141 -0.0568  0.8525
16141SOL    HW249849   9.624   4.766   0.754  0.9042 -0.7976  1.0516
16142SOL     OW49850   0.441   0.845   2.774  0.1568 -0.0269 -0.0809
16142SOL    HW149851   0.466   0.840   2.677  0.2323 -0.1040 -0.0577
16142SOL    HW249852   0.500   0.783   2.826  0.7556  0.7205  0.1372
16143SOL     OW49853   7.290   0.896   0.147 -0.3817  0.0147  0.0320
16143SOL    HW149854   7.287   0.990   0.181 -0.6205 -0.3514  1.0300
16143SOL    HW249855   7.341   0.894   0.061  0.8729  0.8415  0.7405
16144SOL     OW49856   7.721   1.034   3.272  0.3385 -0.1669 -0.4226
16144SOL    HW149857   7.641   1.073   3.317  0.8888  1.5678 -0.9203
16144SOL    HW249858   7.786   1.003   3.341 -0.0646 -0.1303 -0.0209
16147SOL     OW49859   2.775   1.944   4.757  0.0681  0.6031 -1.2848
16147SOL    HW149860   2.836   1.988   4.823 -0.0379 -1.2655  0.0614
16147SOL    HW249861   2.688   1.994   4.754 -0.7524 -0.5668  1.6273
16148SOL     OW49862   2.870   2.388   0.513  0.7521 -0.5684 -0.2135
16148SOL    HW149863   2.858   2.386   0.612  0.1978 -1.3705 -0.2889
16148SOL    HW249864   2.958   2.347   0.489  0.9384 -0.2637 -0.0408
16149SOL     OW49865   2.364   5.748   5.260 -0.3428  0.2231 -0.3417
16149SOL    HW149866   2.330   5.840   5.243 -0.6068  0.7170  2.6163
16149SOL    HW249867   2.294   5.695   5.308 -0.4427 -1.7611 -2.5751
16151SOL     OW49868   2.187   5.696   1.972 -0.5334  0.4742  0.4383
16151SOL    HW149869   2.207   5.706   2.070 -1.2925 -3.7571  1.1000
16151SOL    HW249870   2.273   5.692   1.922 -0.0917  0.3071  1.1905
16152SOL     OW49871   4.925   5.484   2.840  0.3522  0.0036 -0.0342
16152SOL    HW149872   5.020   5.483   2.807  0.6350 -0.7412  0.7879
16152SOL    HW249873   4.904   5.574   2.877  1.2067 -0.2397  1.0822
16153SOL     OW49874   6.974   4.559   0.493 -0.1527  0.4750  0.1386
16153SOL    HW149875   6.898   4.613   0.529  1.1733  2.3402  0.2237
16153SOL    HW249876   6.996   4.486   0.558 -1.6919  0.0963  0.2367
16154SOL     OW49877   7.058   8.172   3.055 -0.0899 -0.0990 -0.1694
16154SOL    HW149878   7.039   8.260   3.099  0.3529  0.4729 -1.1047
16154SOL    HW249879   7.134   8.127   3.101  0.8360  0.8221 -0.7938
16155SOL     OW49880   1.760   7.594   1.483 -0.5724  0.0045  0.3423
16155SOL    HW149881   1.709   7.521   1.438 -0.9015 -0.3523  1.2896
16155SOL    HW249882   1.857   7.586   1.460 -0.6914 -0.3730 -0.0335
16156SOL     OW49883   3.164   9.112   0.965 -0.1091  0.0394 -0.2383
16156SOL    HW149884   3.090   9.063   1.010 -1.8661  1.5357 -1.4465
16156SOL    HW249885   3.166   9.206   0.997 -0.0038  0.5357 -1.6785
16157SOL     OW49886   4.055   8.379   4.059  0.2120  0.3053 -0.4037
16157SOL    HW149887   3.958   8.404   4.067  0.2686  0.5085 -0.3760
16157SOL    HW249888   4.100   8.392   4.147  0.5908  1.5455 -0.7715
16158SOL     OW49889   4.195   4.105   0.986  0.0832  0.4104  0.7158
16158SOL    HW149890   4.156   4.013   0.999 -0.9729  0.6580 -0.6119
16158SOL    HW249891   4.292   4.097   0.963 -0.7008 -0.5611 -2.5046
16159SOL     OW49892   5.921   1.696   1.679  0.3144 -0.2237  0.1904
16159SOL    HW149893   5.993   1.759   1.651 -1.9220  2.5371  0.4261
16159SOL    HW249894   5.917   1.692   1.779 -1.9862  2.2786  0.2532
16161SOL     OW49895   3.760   2.799   1.917  0.0591  0.0751  0.3971
16161SOL    HW149896   3.804   2.886   1.895 -0.0062  0.3579  1.3782
16161SOL    HW249897   3.809   2.754   1.992  0.2080 -0.8295 -0.2289
16162SOL     OW49898   7.319   0.120   4.654  0.4314  0.0718  0.5627
16162SOL    HW149899   7.339   0.211   4.691 -2.2726 -0.4951  3.7758
16162SOL    HW249900   7.363   0.051   4.711 -0.5473 -0.7254  0.3673
16163SOL     OW49901   0.170   2.834   0.016  0.7692 -0.2453  0.1654
16163SOL    HW149902   0.143   2.931   0.017  0.7925 -0.2403  0.2667
16163SOL    HW249903   0.268   2.827   0.032  0.7858 -0.2800  0.0519
16164SOL     OW49904   3.405   1.814   4.184  0.2007  0.1112 -0.3700
16164SOL    HW149905   3.362   1.757   4.113 -1.4236 -0.0853  0.7652
16164SOL    HW249906   3.393   1.910   4.161 -1.8854  0.0926  0.5043
16165SOL     OW49907   0.929   9.058   3.186  1.0515  0.5119 -0.0849
16165SOL    HW149908   1.006   9.057   3.249  1.4908 -1.3355 -0.6098
16165SOL    HW249909   0.961   9.084   3.095  1.3197 -1.4558 -0.5808
16168SOL     OW49910   9.895   8.186   1.012 -0.2644 -0.3901 -0.2480
16168SOL    HW149911   9.991   8.160   1.024  0.2819  1.1211 -1.1386
16168SOL    HW249912   9.877   8.271   1.062 -0.6166  0.3956 -1.6711
16171SOL     OW49913   4.222   5.258   5.104 -0.1608  0.4878 -0.1099
16171SOL    HW149914   4.233   5.324   5.179  0.3286 -0.5819  0.7754
16171SOL    HW249915   4.296   5.270   5.038  0.6799 -0.0661  0.7326
16172SOL     OW49916   9.945   2.879   3.105 -0.7734  0.4348  0.3978
16172SOL    HW149917   9.853   2.840   3.104 -0.0881 -1.2906  2.5588
16172SOL    HW249918   9.957   2.935   3.187  0.6620 -0.7660  1.0261
16173SOL     OW49919   3.126   5.400   0.794 -0.1082  0.3661 -0.0955
16173SOL    HW149920   3.205   5.382   0.852 -0.6802  0.3912  0.6955
16173SOL    HW249921   3.150   5.382   0.698  1.1308  1.2436  0.0308
16174SOL     OW49922   6.925   3.209   0.389 -0.3813  0.8827 -0.2711
16174SOL    HW149923   7.012   3.159   0.385 -1.5950 -1.3565  0.4071
16174SOL    HW249924   6.900   3.224   0.485 -0.4883  1.9985 -0.4677
16175SOL     OW49925   3.514   3.855   1.614  0.1405 -0.1249 -0.1934
16175SOL    HW149926   3.521   3.844   1.713  0.6797 -0.5828 -0.2836
16175SOL    HW249927   3.499   3.766   1.571  1.8565 -0.2001 -0.6852
16176SOL     OW49928   1.642   6.405   4.416  0.0486  0.3333 -0.2529
16176SOL    HW149929   1.740   6.415   4.397  0.0410 -0.6699 -0.9215
16176SOL    HW249930   1.595   6.381   4.331 -0.5734 -0.5340  0.3262
16178SOL     OW49931   4.782   3.777   0.700  0.0853 -0.2756  0.4740
16178SOL    HW149932   4.770   3.687   0.657  0.9154  0.3794 -1.1636
16178SOL    HW249933   4.879   3.796   0.710  0.0232  1.8394 -2.2626
16179SOL     OW49934   5.225   2.492   3.155 -0.1620 -0.1669 -0.2223
16179SOL    HW149935   5.217   2.410   3.212 -1.8686  1.6584  2.3352
16179SOL    HW249936   5.285   2.558   3.200  0.7221  0.2308 -1.9537
16180SOL     OW49937   0.062   8.676   4.931 -0.2051  0.3291  0.5888
16180SOL    HW149938  -0.008   8.740   4.961 -1.8212 -1.3837  0.5584
16180SOL    HW249939   0.077   8.686   4.833 -0.4277  0.6852  0.5903
16181SOL     OW49940   6.673   8.798   4.723 -0.2649  0.4819 -0.4178
16181SOL    HW149941   6.706   8.708   4.752 -0.3187  1.1511  1.8166
16181SOL    HW249942   6.749   8.849   4.681  0.3715  0.2513  0.4287
16182SOL     OW49943   1.100   0.399   4.887 -0.2107 -0.4340  0.4476
16182SOL    HW149944   1.075   0.307   4.914  1.2531 -0.3090  2.3347
16182SOL    HW249945   1.086   0.462   4.963  1.6094  0.3680  0.1581
16184SOL     OW49946   3.317   8.733   4.716 -0.0791 -0.4119  0.0361
16184SOL    HW149947   3.307   8.709   4.812  2.5385 -1.4100  0.1115
16184SOL    HW249948   3.329   8.650   4.662 -2.5646  0.0720 -1.3280
16186SOL     OW49949   8.812   8.207   2.136 -0.0037 -0.0022  0.4551
16186SOL    HW149950   8.896   8.197   2.083 -1.2334 -0.3891 -1.4722
16186SOL    HW249951   8.777   8.117   2.161 -3.1923 -0.2514 -4.2398
16187SOL     OW49952   5.936   9.914   2.427  0.0093  0.1337  0.0087
16187SOL    HW149953   5.883   9.927   2.510  1.4657 -1.0151  1.1530
16187SOL    HW249954   5.963   9.818   2.420  0.6321  0.3926 -1.3392
16188SOL     OW49955   0.135   0.895   1.619  0.2912 -0.5594  0.5603
16188SOL    HW149956   0.152   0.797   1.613  0.5599 -0.5060  0.4371
16188SOL    HW249957   0.222   0.944   1.618  0.1203 -0.2594 -0.5760
16189SOL     OW49958   6.218   0.386   3.892  0.0418 -0.0816 -0.0076
16189SOL    HW149959   6.273   0.456   3.847  0.4525  0.6013  1.5033
16189SOL    HW249960   6.274   0.338   3.959 -0.6493 -0.8187  0.0453
16191SOL     OW49961   1.937   5.227   0.587  0.3294 -0.2800  0.4844
16191SOL    HW149962   1.958   5.287   0.509  0.4468 -2.9800 -1.6427
16191SOL    HW249963   2.021   5.182   0.618 -0.2722 -1.8607 -0.1253
16192SOL     OW49964   8.002   8.966   4.094  0.3039  0.4319 -0.5014
16192SOL    HW149965   8.083   8.922   4.135 -1.3494  0.0218  2.4561
16192SOL    HW249966   8.001   8.949   3.995  2.3071 -1.9772 -0.1524
16193SOL     OW49967   5.111   9.955   3.529  0.2241 -0.3550  0.0242
16193SOL    HW149968   5.110   9.944   3.430  2.2495 -0.4769 -0.0129
16193SOL    HW249969   5.018   9.945   3.565 -0.6150  0.2708 -1.9062
16194SOL     OW49970   5.803   9.962   2.179  0.0591 -0.2352  0.2915
16194SOL    HW149971   5.852   9.952   2.266 -0.0533  0.3097  0.4214
16194SOL    HW249972   5.715  10.007   2.196 -0.1143 -0.4464 -0.0558
16195SOL     OW49973   8.592   9.979   1.318  0.2359  0.4280  0.1246
16195SOL    HW149974   8.550  10.066   1.292  1.4659  0.6782 -1.0470
16195SOL    HW249975   8.619   9.929   1.236 -0.0201 -0.8488  0.8084
16196SOL     OW49976   0.876   3.432   1.206  0.2512 -0.0074 -0.3573
16196SOL    HW149977   0.790   3.483   1.198  0.9676  1.7387  2.1549
16196SOL    HW249978   0.883   3.395   1.299  1.7556 -0.9944 -0.8616
16197SOL     OW49979   7.137   0.573   0.145 -0.1492  0.8839 -0.0518
16197SOL    HW149980   7.201   0.635   0.100  1.5901 -0.3581  0.6273
16197SOL    HW249981   7.187   0.493   0.179 -1.9175  0.3635  1.3991
16198SOL     OW49982   0.032   5.130   2.802  0.4184  0.2027 -0.0066
16198SOL    HW149983   0.124   5.094   2.788  0.4096 -0.1349  0.7808
16198SOL    HW249984   0.011   5.133   2.900 -0.7368 -0.5611 -0.2112
16200SOL     OW49985   4.374   4.455   2.978 -0.2895 -0.1224 -0.1966
16200SOL    HW149986   4.414   4.459   2.887  1.7780 -1.5260  0.6267
16200SOL    HW249987   4.405   4.534   3.032 -2.0789  1.0978 -0.8905
16202SOL     OW49988   2.800   7.244   2.911  0.2263 -1.0415 -0.5716
16202SOL    HW149989   2.723   7.213   2.968  0.4681 -2.2216 -0.8723
16202SOL    HW249990   2.807   7.343   2.916 -1.0375 -0.9623 -0.1754
16204SOL     OW49991   7.759   8.762   4.928 -0.0326  0.1990  0.5198
16204SOL    HW149992   7.693   8.833   4.952 -0.4418  0.0204 -0.0653
16204SOL    HW249993   7.785   8.712   5.011  0.6860  1.3795  1.0273
16205SOL     OW49994   1.912   4.832   2.628 -0.4796  0.3560 -0.0535
16205SOL    HW149995   1.916   4.931   2.615  0.3250 -0.0176 -3.2693
16205SOL    HW249996   1.972   4.805   2.702  1.5101  2.0300 -1.0082
16206SOL     OW49997   7.870   2.291   1.727  0.0150  0.4527 -0.1088
16206SOL    HW149998   7.868   2.304   1.826 -1.5429 -0.7015  0.0293
16206SOL    HW249999   7.796   2.229   1.700  1.1034 -0.1139 -1.8657
16207SOL     OW50000   2.008   6.313   1.682  0.3197 -0.1304 -0.2798
16207SOL    HW150001   1.929   6.303   1.622  0.1313  1.2606 -0.2588
16207SOL    HW250002   2.048   6.403   1.671  1.1936 -0.4021  0.5822
16208SOL     OW50003   1.783   3.505   0.122  0.1250  0.6295 -0.1471
16208SOL    HW150004   1.746   3.477   0.211  0.3197 -0.1803 -0.3206
16208SOL    HW250005   1.807   3.602   0.125  0.6771  0.4642  0.8642
16210SOL     OW50006   3.064   6.421   4.218 -0.6486 -0.3156 -0.1662
16210SOL    HW150007   3.047   6.418   4.119  2.8296 -0.7086 -0.8172
16210SOL    HW250008   3.143   6.364   4.240 -2.2551 -1.4336  3.0916
16211SOL     OW50009   0.679   8.846   3.032 -0.0459 -0.3266  0.1286
16211SOL    HW150010   0.582   8.867   3.017  0.1225  0.1078 -0.3478
16211SOL    HW250011   0.704   8.871   3.125 -0.9820 -2.6163  1.0565
16212SOL     OW50012   1.608   1.769   3.569 -0.0051 -0.0096 -0.3392
16212SOL    HW150013   1.556   1.684   3.578 -0.5566  0.3123 -0.4430
16212SOL    HW250014   1.665   1.782   3.650 -1.0839  0.3026  0.3793
16214SOL     OW50015   3.006   7.655   1.906 -0.2201  0.1941  0.1486
16214SOL    HW150016   2.956   7.714   1.843 -0.2810  1.0379  0.9709
16214SOL    HW250017   2.943   7.620   1.976  0.0214  0.0051  0.2723
16215SOL     OW50018   5.231   1.275   0.977 -0.2924  0.3580  0.2123
16215SOL    HW150019   5.149   1.223   1.001  0.1303 -0.1941  0.4814
16215SOL    HW250020   5.275   1.310   1.060 -0.9291  1.7007 -0.0110
16217SOL     OW50021   2.421   1.514   3.428  0.2371  0.4151  0.5306
16217SOL    HW150022   2.416   1.448   3.354 -0.1733  0.2698  0.6891
16217SOL    HW250023   2.509   1.506   3.474 -0.0133 -0.3677  0.8758
16218SOL     OW50024   3.429   7.929   0.839 -0.6728  0.1728  0.3385
16218SOL    HW150025   3.396   8.012   0.882 -2.0191  0.1108 -0.5504
16218SOL    HW250026   3.452   7.861   0.909  0.5356  1.3073  1.0685
16219SOL     OW50027   0.393   0.985   1.626  0.0592 -0.1941 -0.0294
16219SOL    HW150028   0.405   1.006   1.529 -2.2255  1.7234  0.0366
16219SOL    HW250029   0.437   1.056   1.681 -1.8444  0.7905  0.2692
16220SOL     OW50030   4.402   2.869   1.302  0.0282 -0.0956 -0.0460
16220SOL    HW150031   4.382   2.842   1.208  2.0752  3.6870 -1.6832
16220SOL    HW250032   4.499   2.851   1.322 -0.0114  0.5785  0.7891
16221SOL     OW50033   7.116   2.390   3.408  0.3427 -0.5343 -0.3045
16221SOL    HW150034   7.042   2.413   3.345  0.3475 -2.9064 -1.2289
16221SOL    HW250035   7.203   2.420   3.369 -0.0535  2.0956  0.7004
16222SOL     OW50036   9.051   7.582   3.115  0.2339  0.2737 -0.2152
16222SOL    HW150037   8.969   7.638   3.129 -1.2723 -1.4576 -1.6861
16222SOL    HW250038   9.121   7.636   3.070 -1.0622  1.0914 -1.2988
16223SOL     OW50039   7.495   2.584   3.500  0.0832 -0.1729  0.1805
16223SOL    HW150040   7.507   2.682   3.485 -1.5572 -0.0962 -0.7345
16223SOL    HW250041   7.461   2.568   3.592 -1.7557  0.3154 -0.3825
16224SOL     OW50042   4.655   9.803   3.255 -0.0737  0.0106 -0.5302
16224SOL    HW150043   4.672   9.900   3.273 -2.5098  0.3933 -0.0483
16224SOL    HW250044   4.728   9.748   3.295  0.1564  1.5288  1.2414
16225SOL     OW50045   0.716   3.211   4.191 -0.0421 -0.0041  0.3362
16225SOL    HW150046   0.771   3.287   4.224  0.6674 -0.9189  1.3289
16225SOL    HW250047   0.671   3.236   4.105  0.6514  1.3104  0.3461
16227SOL     OW50048   0.816   9.846   2.267 -0.1214 -0.4667 -0.2948
16227SOL    HW150049   0.769   9.930   2.293  0.8719  0.1844 -0.5564
16227SOL    HW250050   0.789   9.819   2.175 -0.1801 -0.2378 -0.3444
16228SOL     OW50051   3.135   0.701   3.061  0.0672 -0.1304  0.1984
16228SOL    HW150052   3.215   0.728   3.115  0.7684 -2.2218  0.2378
16228SOL    HW250053   3.154   0.616   3.012 -1.9603 -0.3939 -0.1908
16229SOL     OW50054   4.068   2.775   2.540 -0.1147 -0.1328  0.3887
16229SOL    HW150055   3.983   2.791   2.589  0.4508  1.9233  0.7411
16229SOL    HW250056   4.075   2.678   2.516 -1.5702 -0.6935  2.1406
16231SOL     OW50057   4.206   6.731   1.994 -0.3786 -0.2586 -0.6602
16231SOL    HW150058   4.243   6.660   2.053 -1.3845  0.5058  0.9393
16231SOL    HW250059   4.107   6.720   1.985 -0.2619 -0.2548 -2.0595
16232SOL     OW50060   0.612   2.270   1.275  0.6524 -0.7961  0.0576
16232SOL    HW150061   0.669   2.326   1.216  0.5360 -1.6052 -0.8424
16232SOL    HW250062   0.516   2.279   1.247  0.5800 -1.0526  0.2156
16233SOL     OW50063   2.935   8.851   4.685 -0.1987  0.4499 -0.1939
16233SOL    HW150064   2.970   8.839   4.592  0.3144 -1.6999  0.2616
16233SOL    HW250065   2.837   8.872   4.681 -0.8821 -2.7167 -1.1384
16234SOL     OW50066   2.350   9.001   1.093  0.7028  0.0811 -0.4681
16234SOL    HW150067   2.442   8.965   1.108  1.7426  2.7344 -0.2847
16234SOL    HW250068   2.296   8.993   1.177  1.5081  0.6032  0.1026
16235SOL     OW50069   2.754   2.802   1.943  0.0373 -0.0888  0.3154
16235SOL    HW150070   2.832   2.800   2.006  0.2935 -2.2664 -0.0339
16235SOL    HW250071   2.748   2.891   1.900  0.0055  1.4041  3.2485
16236SOL     OW50072   3.462   8.151   2.837  0.0174  0.0328  0.3500
16236SOL    HW150073   3.520   8.213   2.890  1.6565 -0.8637 -0.3642
16236SOL    HW250074   3.384   8.202   2.800  0.7796  1.4394  0.6312
16237SOL     OW50075   2.008   6.718   3.075 -0.1717 -0.4428 -0.0672
16237SOL    HW150076   1.996   6.804   3.125  1.9384 -1.0619  1.6063
16237SOL    HW250077   2.066   6.733   2.995 -0.3191 -0.1992 -0.1293
16238SOL     OW50078   4.399   8.677   4.972  0.3493 -0.1762  0.2262
16238SOL    HW150079   4.322   8.738   4.951  1.1406  0.6290 -0.3413
16238SOL    HW250080   4.392   8.647   5.067 -0.9130 -0.4734  0.0562
16239SOL     OW50081   1.291   7.633   2.840 -0.1754  0.1051 -0.2218
16239SOL    HW150082   1.349   7.638   2.759 -0.0442 -0.3312 -0.1599
16239SOL    HW250083   1.200   7.602   2.814 -0.7099  1.8906 -0.4739
16240SOL     OW50084   8.377   3.553   3.062  0.4097 -0.1040 -0.3241
16240SOL    HW150085   8.346   3.468   3.018 -0.0490  0.3598 -0.8965
16240SOL    HW250086   8.365   3.545   3.161 -1.4670  0.0333 -0.5163
16241SOL     OW50087   6.608   0.499   3.088  0.5015  0.6701  0.1248
16241SOL    HW150088   6.630   0.468   3.180 -1.1585  0.5042  0.4745
16241SOL    HW250089   6.510   0.494   3.073  0.8150  0.0973 -1.8871
16242SOL     OW50090   1.474   3.417   2.985 -0.0687 -0.9027  0.0387
16242SOL    HW150091   1.409   3.341   2.993 -0.2126 -0.6496  1.4247
16242SOL    HW250092   1.448   3.476   2.909  0.7533 -2.9142 -1.8770
16243SOL     OW50093   9.695   0.119   4.616  0.5109 -0.1393 -0.8732
16243SOL    HW150094   9.633   0.041   4.621  0.8202 -0.3434 -0.1297
16243SOL    HW250095   9.778   0.099   4.669 -0.6570  1.8114  1.7959
16244SOL     OW50096   1.403   8.891   4.475 -0.6081  0.3985 -0.2474
16244SOL    HW150097   1.371   8.801   4.446 -0.1165  0.8308 -2.2349
16244SOL    HW250098   1.488   8.881   4.527 -0.7122 -0.2949 -0.2023
16245SOL     OW50099   7.708   1.079   0.952 -0.0618  0.9708  0.1866
16245SOL    HW150100   7.632   1.119   0.900 -0.6449  2.2080  1.9719
16245SOL    HW250101   7.692   0.981   0.964 -1.9987  1.4266  1.5756
16246SOL     OW50102   1.962   9.340   3.511 -0.3694  0.4213  0.0220
16246SOL    HW150103   2.023   9.372   3.439 -0.3501  2.0954  0.7379
16246SOL    HW250104   1.956   9.410   3.583 -0.9634 -0.8860  1.2852
16248SOL     OW50105   5.197   2.217   2.884  0.0213 -0.7351 -0.2903
16248SOL    HW150106   5.175   2.313   2.896  1.2344 -0.4915  0.0444
16248SOL    HW250107   5.263   2.188   2.954 -1.4614 -2.1970  0.5581
16249SOL     OW50108   8.406   3.303   0.860  0.5522 -0.3024 -0.8796
16249SOL    HW150109   8.360   3.283   0.774  1.1541  0.9733 -1.5083
16249SOL    HW250110   8.377   3.238   0.930 -1.0325 -0.4573 -1.6771
16250SOL     OW50111   5.047   8.289   2.883 -0.5895  0.7718 -0.4515
16250SOL    HW150112   4.979   8.294   2.956 -0.7581 -0.6929 -0.4947
16250SOL    HW250113   5.005   8.315   2.796 -0.7918  1.0051 -0.2838
16252SOL     OW50114   8.262   0.722   4.774  0.6869  0.1905 -0.1453
16252SOL    HW150115   8.184   0.739   4.834  1.2746  1.1755  0.3568
16252SOL    HW250116   8.305   0.635   4.799  0.2624  0.0548  0.1225
16253SOL     OW50117   2.024   1.969   1.642 -0.6680 -0.1104 -0.7826
16253SOL    HW150118   2.026   1.938   1.737 -1.8565 -0.3852 -0.8390
16253SOL    HW250119   2.103   2.028   1.625 -2.4271  3.0479  1.4765
16254SOL     OW50120   9.367   5.311   3.783  0.0972 -0.1454  0.4217
16254SOL    HW150121   9.272   5.340   3.770 -0.4630 -1.6872  0.9107
16254SOL    HW250122   9.419   5.331   3.700 -0.8565 -0.0656 -0.1714
16255SOL     OW50123   0.132   7.971   5.143  0.4942 -0.4096 -0.5650
16255SOL    HW150124   0.165   7.942   5.054  2.2151 -0.3407  0.0287
16255SOL    HW250125   0.179   8.055   5.170 -0.9515  0.2959 -0.1549
16256SOL     OW50126   7.467   7.921   4.626 -0.3766  0.1168 -0.0189
16256SOL    HW150127   7.473   7.822   4.637  2.1007  0.1090 -1.1304
16256SOL    HW250128   7.384   7.955   4.671 -0.0028 -2.1261  2.4346
16257SOL     OW50129   0.906   6.776   0.036  0.0180 -0.0941 -0.4776
16257SOL    HW150130   0.957   6.693   0.061 -0.8815 -0.7955 -0.9346
16257SOL    HW250131   0.897   6.834   0.116  0.4978 -0.5224 -0.1039
16258SOL     OW50132   3.216   8.899   3.673 -0.2708  0.0761  0.2671
16258SOL    HW150133   3.256   8.940   3.590  0.9654 -1.6341 -0.0001
16258SOL    HW250134   3.127   8.860   3.650  0.5629 -1.3867 -0.5285
16260SOL     OW50135   8.577   8.042   0.954  0.4022 -0.1199  0.3015
16260SOL    HW150136   8.608   7.960   0.907  0.0322  0.1289 -0.3882
16260SOL    HW250137   8.482   8.062   0.928  1.2438  1.8689 -1.4321
16261SOL     OW50138   4.558   3.217   5.154 -0.2547  0.0692 -0.4461
16261SOL    HW150139   4.504   3.220   5.238  0.0868 -1.6160 -0.1488
16261SOL    HW250140   4.655   3.221   5.176 -0.1605 -0.4597 -0.7649
16262SOL     OW50141   3.971   6.555   4.196 -0.3207  0.4385 -1.1918
16262SOL    HW150142   4.006   6.551   4.289 -1.4974 -1.0012 -0.7799
16262SOL    HW250143   3.885   6.605   4.195 -0.1426  0.7383 -1.5544
16263SOL     OW50144   8.668   7.413   2.880 -0.1268 -0.5026 -0.3012
16263SOL    HW150145   8.578   7.421   2.921 -0.1605  1.0664 -0.6475
16263SOL    HW250146   8.731   7.372   2.946 -0.8334 -0.5921  0.3228
16265SOL     OW50147   0.430   4.063   0.252 -0.2453  0.4060 -0.0774
16265SOL    HW150148   0.333   4.079   0.271 -0.0640  2.0368 -0.4569
16265SOL    HW250149   0.486   4.106   0.323  0.1870 -1.7502  0.9267
16266SOL     OW50150   1.392   3.386   2.257  0.1841  0.3887  0.0141
16266SOL    HW150151   1.400   3.325   2.335  1.2574 -1.4808 -1.5286
16266SOL    HW250152   1.472   3.446   2.252  0.1054  0.5225  0.3361
16267SOL     OW50153   3.959   1.259   1.236 -0.3617 -0.2873 -0.2525
16267SOL    HW150154   3.882   1.282   1.177 -1.7936 -0.4347  1.5095
16267SOL    HW250155   4.001   1.343   1.270 -0.2238 -0.2137 -0.6033
16268SOL     OW50156   1.397   9.822   4.985 -0.1506  0.2424  0.2205
16268SOL    HW150157   1.367   9.747   5.044 -1.3071  1.1643  0.8343
16268SOL    HW250158   1.497   9.829   4.987 -0.0279 -1.3614  0.0391
16269SOL     OW50159   3.696   5.109   2.998 -0.2237 -0.4202  0.5760
16269SOL    HW150160   3.775   5.163   2.970 -1.0622  0.0898 -0.8695
16269SOL    HW250161   3.663   5.140   3.087 -0.8622  1.6274 -0.3598
16270SOL     OW50162   8.071   0.279   0.168  0.0996  0.4335 -0.0760
16270SOL    HW150163   8.150   0.218   0.154  0.4832  0.9865 -0.3331
16270SOL    HW250164   8.103   0.374   0.170 -0.5799  0.6663 -0.3043
16271SOL     OW50165   8.828   0.704   0.302  0.1559  0.1834  0.4432
16271SOL    HW150166   8.829   0.792   0.350 -0.2890  0.3378  0.1833
16271SOL    HW250167   8.757   0.646   0.342 -0.5702  0.5072 -0.3529
16273SOL     OW50168   9.506   4.118   0.056 -0.2322 -0.6030  0.3030
16273SOL    HW150169   9.541   4.082  -0.031  1.9063 -0.3361  1.0180
16273SOL    HW250170   9.483   4.214   0.045  1.9503 -0.0279  0.5139
16274SOL     OW50171   1.044   8.805   3.037  0.3153 -0.0188 -0.1711
16274SOL    HW150172   0.970   8.793   3.103 -0.9944  1.9884 -1.1952
16274SOL    HW250173   1.022   8.757   2.952  1.4110 -1.5654  0.4124
16275SOL     OW50174   4.956   1.750   5.303 -0.0200  0.1948 -0.0224
16275SOL    HW150175   4.985   1.654   5.297 -0.3631  0.1371 -0.8920
16275SOL    HW250176   4.926   1.781   5.213 -0.3620  0.9788  0.3574
16276SOL     OW50177   1.267   1.379   3.031  0.3532  0.0903 -0.3038
16276SOL    HW150178   1.184   1.401   2.980  0.9469  1.0494 -0.8700
16276SOL    HW250179   1.274   1.279   3.042  0.4943 -0.1765 -2.5934
16277SOL     OW50180   4.077   0.136   1.638 -0.2694 -0.4038  0.2647
16277SOL    HW150181   4.073   0.072   1.561  1.0513  0.6603 -0.7076
16277SOL    HW250182   4.001   0.201   1.631 -0.3215 -0.4903  0.0285
16279SOL     OW50183   2.538   2.652   0.390 -0.3640 -0.7383  0.1937
16279SOL    HW150184   2.547   2.622   0.485  0.3359 -0.0687  0.3418
16279SOL    HW250185   2.463   2.718   0.383 -1.2526 -1.7341  0.0422
16281SOL     OW50186   6.504   7.867   4.135  0.1099 -0.5211  0.4181
16281SOL    HW150187   6.495   7.772   4.104 -0.2127 -0.0478 -1.0010
16281SOL    HW250188   6.429   7.889   4.197  0.8357 -1.5298  1.6773
16282SOL     OW50189   4.158   8.456   2.169  1.3925 -0.6747  0.3613
16282SOL    HW150190   4.172   8.552   2.192  2.2764 -0.8532  0.5808
16282SOL    HW250191   4.069   8.445   2.125  1.2447  0.2285  0.4278
16283SOL     OW50192   4.239   4.511   0.837 -0.3011  0.1458  0.2706
16283SOL    HW150193   4.321   4.463   0.806  0.4760  1.7810 -0.2459
16283SOL    HW250194   4.209   4.472   0.925  0.8620 -0.6370  0.3372
16284SOL     OW50195   4.573   8.015   1.714  0.0973  0.4177 -0.0020
16284SOL    HW150196   4.586   8.059   1.803 -2.6548 -0.6621  0.9797
16284SOL    HW250197   4.537   8.081   1.649  0.0454  0.6717  0.2816
16285SOL     OW50198   1.303   8.826   2.626 -0.3973 -0.0959 -0.2897
16285SOL    HW150199   1.260   8.740   2.598 -0.6425 -0.3792  0.9028
16285SOL    HW250200   1.270   8.850   2.717  0.4631  0.7279 -0.1939
16286SOL     OW50201   9.038   1.336   4.170 -0.1400  0.0892 -0.2953
16286SOL    HW150202   8.965   1.348   4.237  0.0884  2.6721 -0.4644
16286SOL    HW250203   9.000   1.338   4.078  0.2321  2.4572 -0.4185
16287SOL     OW50204   3.018   4.980   3.928 -0.2925  0.0195 -0.0814
16287SOL    HW150205   3.082   5.052   3.955  0.4302  0.1317 -2.0260
16287SOL    HW250206   2.991   4.994   3.833 -0.8112 -1.8067 -0.2149
16288SOL     OW50207   4.990   8.273   1.836  0.4926 -0.1518 -0.3308
16288SOL    HW150208   5.013   8.214   1.759  2.5887 -0.0419  0.2033
16288SOL    HW250209   4.895   8.256   1.863  1.0602 -3.2687 -0.1719
16289SOL     OW50210   1.615   7.508   4.283 -0.6281  0.1986 -0.1886
16289SOL    HW150211   1.548   7.437   4.263  0.2902 -0.4193 -1.0822
16289SOL    HW250212   1.628   7.566   4.202  1.2665 -0.8101 -0.6468
16290SOL     OW50213   7.321   9.405   3.309  0.6337 -0.5876 -0.1841
16290SOL    HW150214   7.282   9.407   3.401 -0.1264  2.7223 -0.5079
16290SOL    HW250215   7.250   9.380   3.244 -0.1106  1.7664 -0.3462
16291SOL     OW50216   2.154   9.411   5.196 -0.2956 -1.1462 -0.8095
16291SOL    HW150217   2.138   9.499   5.242 -2.3838  0.3941 -4.3544
16291SOL    HW250218   2.253   9.397   5.188  0.0973 -0.0810  1.5030
16292SOL     OW50219   7.626   8.277   3.713  0.1450 -0.4962 -0.1778
16292SOL    HW150220   7.568   8.271   3.632  0.4860 -0.9847 -0.3836
16292SOL    HW250221   7.594   8.352   3.771  2.1124  2.2626 -2.5172
16293SOL     OW50222   3.909   9.723   5.064 -0.6647 -0.3386 -0.0163
16293SOL    HW150223   3.924   9.817   5.034 -1.2796 -0.5852 -1.1679
16293SOL    HW250224   3.897   9.720   5.163 -1.4849  0.9063 -0.0681
16294SOL     OW50225   0.592   8.509   3.307  0.3156 -0.0036 -0.2766
16294SOL    HW150226   0.538   8.539   3.385  1.2798  0.6810  0.1379
16294SOL    HW250227   0.689   8.520   3.327  0.5880 -0.2807 -1.3811
16295SOL     OW50228   8.485   5.611   0.408  0.1043 -0.4162  0.1593
16295SOL    HW150229   8.455   5.706   0.414 -0.6291 -0.7317  1.8071
16295SOL    HW250230   8.583   5.608   0.387 -0.1037  0.6729 -1.0508
16296SOL     OW50231   1.658   9.795   1.221 -0.1285  0.3059  0.6950
16296SOL    HW150232   1.698   9.758   1.137  2.0249 -1.0914  2.2774
16296SOL    HW250233   1.718   9.866   1.258 -0.6893  0.4010  1.4408
16297SOL     OW50234   9.650   4.551   3.516  0.2082 -0.1238 -0.7422
16297SOL    HW150235   9.621   4.647   3.521  0.0001 -0.2403  0.4892
16297SOL    HW250236   9.625   4.513   3.427  0.6988  1.0924 -1.4103
16298SOL     OW50237   0.559   6.008   3.552 -0.4742  0.1963 -0.1058
16298SOL    HW150238   0.645   5.962   3.575 -0.9082 -0.3507  0.4588
16298SOL    HW250239   0.483   5.955   3.588 -1.1437 -0.1974 -2.0434
16300SOL     OW50240   4.689   4.770   0.502 -0.2042  0.4939 -0.8411
16300SOL    HW150241   4.638   4.840   0.552 -1.2070 -2.1866  2.0652
16300SOL    HW250242   4.787   4.781   0.519 -0.2140  2.1191 -1.7274
16301SOL     OW50243   4.692   8.443   0.603 -0.4299  0.1591  0.1320
16301SOL    HW150244   4.749   8.508   0.653 -0.3947 -0.1385  0.4779
16301SOL    HW250245   4.628   8.399   0.666 -0.2767 -0.3325 -0.0522
16302SOL     OW50246   4.586   1.511   5.251 -0.4550  0.1224  0.1331
16302SOL    HW150247   4.582   1.416   5.280  0.5681 -0.9125 -2.9589
16302SOL    HW250248   4.678   1.533   5.219 -1.5812  1.0860 -2.5836
16303SOL     OW50249   4.157   2.854   0.136  0.3097 -0.0015 -0.6008
16303SOL    HW150250   4.158   2.944   0.179 -1.2458  0.3123 -1.1731
16303SOL    HW250251   4.088   2.797   0.180  1.6414 -1.0942  0.0941
16304SOL     OW50252   9.345   7.535   2.750 -0.2685 -0.1178  0.0115
16304SOL    HW150253   9.337   7.545   2.849  1.3252 -1.7571  0.3371
16304SOL    HW250254   9.293   7.455   2.720 -1.2519  0.7307 -0.5702
16305SOL     OW50255   1.223   9.552   4.397 -0.4060 -0.4295 -0.0499
16305SOL    HW150256   1.177   9.523   4.313  0.5515  0.1582 -0.7873
16305SOL    HW250257   1.158   9.549   4.473 -2.1091  1.8201 -1.3397
16306SOL     OW50258   3.965   4.293   0.658  0.2942 -0.1223 -0.5304
16306SOL    HW150259   4.060   4.263   0.656  0.1381 -0.5556 -2.6798
16306SOL    HW250260   3.911   4.237   0.596 -1.3696  0.1594  0.6194
16307SOL     OW50261   9.875   6.528   2.807 -0.0836 -0.6776 -0.3640
16307SOL    HW150262   9.839   6.435   2.797  0.1614 -0.6648 -1.4628
16307SOL    HW250263   9.968   6.524   2.843  0.5584 -0.9635 -1.9954
16308SOL     OW50264   2.763   3.642   0.988 -0.1183 -0.3772 -0.3537
16308SOL    HW150265   2.743   3.740   0.978 -0.2394 -0.4181 -0.5132
16308SOL    HW250266   2.682   3.596   1.026 -0.1979 -0.4809 -0.6503
16309SOL     OW50267   2.039   4.532   0.569  0.1616  0.1553  0.0477
16309SOL    HW150268   1.945   4.555   0.546  0.2204 -0.0828 -0.4384
16309SOL    HW250269   2.043   4.495   0.662 -0.0699  1.1738  0.4698
16310SOL     OW50270   0.939   6.489   2.148  0.0225 -0.1573  0.0909
16310SOL    HW150271   0.965   6.565   2.087 -1.2386 -0.1231 -0.4263
16310SOL    HW250272   0.852   6.511   2.192  1.4525  0.3056  2.7950
16312SOL     OW50273   4.365   9.865   2.053 -0.2457  0.0671  0.0866
16312SOL    HW150274   4.343   9.885   1.958  1.8146 -2.2732 -0.9507
16312SOL    HW250275   4.295   9.804   2.091 -1.8099  2.0884  0.5511
16314SOL     OW50276   8.041   2.186   2.506 -0.1232 -0.8664 -0.7302
16314SOL    HW150277   8.047   2.260   2.573  0.3822 -1.4460 -0.1268
16314SOL    HW250278   8.088   2.213   2.422 -0.3477 -0.3187 -0.6826
16315SOL     OW50279   1.695   8.907   0.655  0.1963  0.2769  0.1630
16315SOL    HW150280   1.726   8.974   0.588  0.3454 -0.9054 -0.9597
16315SOL    HW250281   1.619   8.945   0.707 -0.5571  0.8427 -1.3309
16318SOL     OW50282   7.567   0.463   3.750 -0.0549  0.4994  0.0535
16318SOL    HW150283   7.583   0.388   3.815 -0.6874  0.1144 -0.2248
16318SOL    HW250284   7.647   0.474   3.692  0.0355  0.0218  0.0835
16319SOL     OW50285   3.401   3.308   2.293 -0.2508 -0.8639  0.3110
16319SOL    HW150286   3.493   3.284   2.261  0.0248  0.8229 -0.2342
16319SOL    HW250287   3.393   3.408   2.297 -2.0296 -1.0038  0.4535
16320SOL     OW50288   0.415   5.101   3.782  0.3237 -0.3349  0.5844
16320SOL    HW150289   0.412   5.188   3.733  1.8374 -1.0627 -0.8561
16320SOL    HW250290   0.345   5.040   3.746  1.4310 -0.8678 -0.6980
16321SOL     OW50291   3.934   5.691   3.171  0.3435 -0.3863  0.1555
16321SOL    HW150292   3.971   5.774   3.130  0.2413 -0.0344  0.7575
16321SOL    HW250293   3.913   5.624   3.100  0.3176  0.1490 -0.3419
16322SOL     OW50294   3.282   4.503   2.108 -0.4409  0.3008 -0.8667
16322SOL    HW150295   3.320   4.437   2.172  0.0412  1.5511  0.1595
16322SOL    HW250296   3.313   4.595   2.132 -0.5916  0.8428 -2.6456
16323SOL     OW50297   1.263   5.379   1.363  0.1880  0.1626 -0.5234
16323SOL    HW150298   1.235   5.302   1.420  0.3483  0.2163 -0.3723
16323SOL    HW250299   1.328   5.436   1.413  0.3847  0.1700 -0.7868
16324SOL     OW50300   3.035   0.656   3.301  0.3384  0.4094 -0.6641
16324SOL    HW150301   3.068   0.671   3.208  1.7522 -1.0021 -0.4178
16324SOL    HW250302   3.112   0.659   3.365  0.1536 -3.4038 -0.1237
16325SOL     OW50303   0.455   0.399   5.065  0.1310  0.0345  0.4548
16325SOL    HW150304   0.452   0.300   5.047 -0.7952 -0.2262  1.8988
16325SOL    HW250305   0.515   0.416   5.143  0.3778  0.6330  0.1360
16326SOL     OW50306   2.935   0.441   2.589  0.0856 -0.0133  0.2394
16326SOL    HW150307   2.939   0.399   2.498  1.7397  1.4991 -0.4090
16326SOL    HW250308   2.884   0.527   2.583  1.5791  0.8925  0.4063
16327SOL     OW50309   0.664   1.382   4.283 -0.6219  0.0446  0.7986
16327SOL    HW150310   0.591   1.440   4.319 -1.7318 -1.5059  1.0850
16327SOL    HW250311   0.636   1.286   4.287  2.1022 -0.7351  2.4908
16328SOL     OW50312   0.198   0.804   1.315  0.2396 -0.6356 -0.0579
16328SOL    HW150313   0.166   0.736   1.249 -0.0703 -0.5816  0.0352
16328SOL    HW250314   0.119   0.842   1.364  0.4432 -0.4639  0.1355
16329SOL     OW50315   1.165   8.627   0.651  0.3124  0.2158  0.3705
16329SOL    HW150316   1.203   8.706   0.603  0.5288  0.3298  0.7248
16329SOL    HW250317   1.089   8.657   0.708  0.1875  0.1158  0.2562
16331SOL     OW50318   1.945   0.863   3.000  0.1144  0.1024 -0.3643
16331SOL    HW150319   1.849   0.837   2.999 -0.7015  3.0175 -1.9720
16331SOL    HW250320   1.991   0.824   2.920  0.2927 -1.2669  0.3910
16332SOL     OW50321   0.030   2.407   3.270 -0.5329 -0.4911 -0.1535
16332SOL    HW150322   0.009   2.352   3.351 -0.0042 -0.7944 -0.2239
16332SOL    HW250323  -0.054   2.421   3.217 -0.9776  0.1443  0.7111
16333SOL     OW50324   1.246   1.149   3.706 -0.2953 -0.0127  0.1076
16333SOL    HW150325   1.147   1.160   3.702 -0.3912  0.8922  3.5210
16333SOL    HW250326   1.271   1.097   3.788  2.0428 -0.4223 -0.8207
16335SOL     OW50327   8.445   5.626   4.450 -0.8258  0.1172 -0.3980
16335SOL    HW150328   8.515   5.564   4.483 -1.3445  1.0396  2.5932
16335SOL    HW250329   8.392   5.661   4.527 -2.9351  1.4075 -2.3522
16336SOL     OW50330   2.329   9.753   4.752  0.1691 -0.1557 -0.8510
16336SOL    HW150331   2.419   9.718   4.726  1.5062  2.0965  0.6409
16336SOL    HW250332   2.266   9.743   4.675  1.3588 -2.7640 -1.5523
16337SOL     OW50333   5.400   2.467   3.478 -0.4083  0.0147 -0.1084
16337SOL    HW150334   5.463   2.446   3.553  1.3820 -1.8886 -2.0550
16337SOL    HW250335   5.321   2.405   3.482 -0.4201  0.0588  0.3269
16338SOL     OW50336   2.590   2.741   0.805 -0.6281 -0.0891  0.2215
16338SOL    HW150337   2.527   2.812   0.774  0.9158 -0.0984 -3.1937
16338SOL    HW250338   2.576   2.658   0.749  0.1411 -1.1930  1.6393
16339SOL     OW50339   4.316   0.054   1.051  0.1922 -0.2022 -0.0716
16339SOL    HW150340   4.299   0.022   0.957  1.6014 -1.4800  0.1005
16339SOL    HW250341   4.282   0.148   1.060  0.8056  0.2469 -2.1057
16340SOL     OW50342   7.898   6.842   3.928  0.0080  0.7116 -0.2944
16340SOL    HW150343   7.925   6.850   3.832  1.1812  0.3369  0.0001
16340SOL    HW250344   7.975   6.869   3.987  0.2250 -1.6941  0.5714
16342SOL     OW50345   7.976   8.956   3.842 -0.7117 -0.4107 -0.1807
16342SOL    HW150346   7.960   9.049   3.809 -1.1072 -0.4735 -0.1651
16342SOL    HW250347   7.904   8.895   3.809 -0.4738 -0.7053 -0.1614
16343SOL     OW50348   0.548   5.710   4.571 -0.4591  0.2391  0.0504
16343SOL    HW150349   0.620   5.669   4.515  0.5600 -0.7894  2.0734
16343SOL    HW250350   0.467   5.651   4.568 -0.8060  0.7469 -1.1839
16345SOL     OW50351   3.033   5.860   3.635 -0.1608  0.2808 -0.3737
16345SOL    HW150352   2.944   5.887   3.599 -0.3384 -1.1252 -1.0484
16345SOL    HW250353   3.105   5.885   3.570 -0.3110 -0.6692 -0.9289
16347SOL     OW50354   9.688   9.185   4.967 -0.0102 -0.5866 -0.1053
16347SOL    HW150355   9.733   9.183   4.878  0.5709 -0.2542  0.1746
16347SOL    HW250356   9.604   9.132   4.963  0.3060 -1.0511 -0.6953
16348SOL     OW50357   3.312   6.229   4.160 -0.5768  0.0417  0.4641
16348SOL    HW150358   3.346   6.306   4.106 -0.3734 -1.3704 -1.5028
16348SOL    HW250359   3.370   6.216   4.240  1.2759  0.0099 -0.8470
16349SOL     OW50360   9.774   7.479   0.121  0.4194 -0.5515  0.4261
16349SOL    HW150361   9.873   7.480   0.104  0.3853 -0.3375  0.2549
16349SOL    HW250362   9.756   7.521   0.210  0.2489  1.8940 -0.7302
16350SOL     OW50363   8.249   0.740   2.507  0.6023 -0.2227  0.0718
16350SOL    HW150364   8.299   0.825   2.489  1.6579 -0.9958 -0.7080
16350SOL    HW250365   8.294   0.664   2.459 -1.3650 -0.9271 -0.7234
16351SOL     OW50366   1.361   5.800   1.244 -0.2917  0.3938 -0.2518
16351SOL    HW150367   1.304   5.882   1.247 -1.0884 -0.1545 -0.2650
16351SOL    HW250368   1.323   5.736   1.177  2.0408  1.2725 -2.4868
16352SOL     OW50369   4.297   4.675   4.835 -0.1119  0.1402  0.0096
16352SOL    HW150370   4.336   4.614   4.904 -0.6241 -1.4471 -1.0857
16352SOL    HW250371   4.199   4.685   4.850 -0.3063 -0.5965 -0.7891
16354SOL     OW50372   2.867   3.328   0.106  0.3582 -0.3749 -0.0979
16354SOL    HW150373   2.854   3.305   0.009  0.3902  1.0298 -0.4428
16354SOL    HW250374   2.862   3.244   0.161 -2.7068 -0.8484 -1.0030
16355SOL     OW50375   9.529   2.423   1.929  0.3231  0.3140 -0.0037
16355SOL    HW150376   9.601   2.484   1.962  1.3268 -0.3145 -0.9616
16355SOL    HW250377   9.522   2.430   1.829 -0.7845  0.1904  0.0547
16356SOL     OW50378   0.660   3.309   0.949  0.3004 -0.0398 -0.1735
16356SOL    HW150379   0.755   3.340   0.935  0.9053 -1.5659  0.4287
16356SOL    HW250380   0.661   3.214   0.981 -1.4362  0.0691  0.2083
16357SOL     OW50381   4.802   4.223   2.627  0.2461  0.1222 -0.0786
16357SOL    HW150382   4.858   4.158   2.575 -0.8301 -1.2486  0.4501
16357SOL    HW250383   4.819   4.210   2.725  0.7250  1.2944  0.0023
16358SOL     OW50384   4.056   0.366   2.046 -0.4986 -0.3460 -0.1533
16358SOL    HW150385   4.075   0.432   1.973  1.2756 -0.4973  0.1461
16358SOL    HW250386   4.130   0.299   2.051 -0.2304  0.0660  2.2089
16359SOL     OW50387   2.331   2.975   4.396  0.1501  0.1382  0.0494
16359SOL    HW150388   2.385   2.990   4.313 -0.1665  0.7148 -0.0530
16359SOL    HW250389   2.361   2.890   4.440 -0.3994 -0.7420 -1.2247
16360SOL     OW50390   8.399   3.442   3.349  0.2040 -0.7377  0.2790
16360SOL    HW150391   8.463   3.371   3.319  1.5891  0.0900  1.2404
16360SOL    HW250392   8.324   3.399   3.400  1.2208 -1.4943  1.1532
16361SOL     OW50393   0.617   1.239   3.121  0.3775  0.3648 -0.6269
16361SOL    HW150394   0.697   1.232   3.181  0.7439  0.5917 -1.0882
16361SOL    HW250395   0.546   1.176   3.153  0.3276  0.9402  0.4211
16362SOL     OW50396   7.795   0.437   2.767  0.5833  0.2550 -0.1002
16362SOL    HW150397   7.760   0.502   2.699 -0.0461  0.3802  0.3360
16362SOL    HW250398   7.750   0.453   2.855  0.7822 -0.4536  0.1376
16363SOL     OW50399   6.202   7.709   2.534 -0.2162 -0.0941  0.4975
16363SOL    HW150400   6.275   7.663   2.484 -0.1191 -0.0946  0.6407
16363SOL    HW250401   6.113   7.675   2.502 -0.1543 -0.1010  0.3310
16364SOL     OW50402   0.269   0.112   0.927  0.0191 -0.0487 -0.5660
16364SOL    HW150403   0.280   0.122   0.828 -0.8707  1.8144 -0.5058
16364SOL    HW250404   0.331   0.175   0.973 -0.9138  0.4413  0.0214
16365SOL     OW50405   6.432   1.715   3.826  0.3984  0.0792  0.4070
16365SOL    HW150406   6.395   1.626   3.798  0.7359  0.2829 -0.7443
16365SOL    HW250407   6.401   1.737   3.918 -1.5569 -0.1907 -0.1670
16368SOL     OW50408   0.598   0.770   1.877  0.1795 -0.1645  0.7060
16368SOL    HW150409   0.544   0.750   1.959  0.3951  0.6292  1.0462
16368SOL    HW250410   0.677   0.708   1.872 -0.1445 -0.5875  0.7943
16369SOL     OW50411   9.661   0.141   1.196 -0.0333 -0.6984  1.0343
16369SOL    HW150412   9.587   0.196   1.158 -0.3147 -1.7389  0.0139
16369SOL    HW250413   9.633   0.103   1.284  0.9406  2.4243  2.7537
16370SOL     OW50414   0.649   8.405   0.710  0.4126  0.4350  0.7647
16370SOL    HW150415   0.682   8.442   0.797 -0.3725 -1.3332  1.8292
16370SOL    HW250416   0.727   8.384   0.651  0.9861  0.5671  1.4695
16371SOL     OW50417   7.167   1.086   2.987 -0.3677  0.2388  0.2269
16371SOL    HW150418   7.097   1.158   2.986 -1.0939 -0.4744 -1.4684
16371SOL    HW250419   7.252   1.123   3.025 -0.8349  1.8897 -0.2881
16372SOL     OW50420   8.953   6.772   1.024 -0.8704 -0.2345  0.4886
16372SOL    HW150421   8.949   6.676   1.050  2.2915 -0.2041  1.2818
16372SOL    HW250422   8.911   6.828   1.096 -1.0544 -0.8760  0.8801
16373SOL     OW50423   5.344   7.420   2.493  0.0310 -0.0566 -0.4200
16373SOL    HW150424   5.398   7.459   2.419 -0.0670  0.7654 -0.0602
16373SOL    HW250425   5.332   7.488   2.565  0.4368 -0.9601  0.5156
16374SOL     OW50426   0.256   1.119   1.880 -0.1864 -0.0676  0.3452
16374SOL    HW150427   0.283   1.027   1.852  0.6082  0.3932 -0.4284
16374SOL    HW250428   0.325   1.156   1.943 -0.5164 -0.0172  0.6732
16375SOL     OW50429   6.964   3.077   0.771 -0.2429  0.2092 -0.3249
16375SOL    HW150430   6.985   3.001   0.710  1.9017 -0.5748  1.3021
16375SOL    HW250431   6.940   3.158   0.718  1.7980 -0.3848 -2.2048
16376SOL     OW50432   9.423   7.002   3.221 -0.2517 -0.2136 -0.7549
16376SOL    HW150433   9.357   6.958   3.283 -0.7642 -0.7384 -1.6559
16376SOL    HW250434   9.438   6.943   3.142 -0.3688  0.9061 -1.6167
16378SOL     OW50435   9.658   7.355   1.241 -0.2310  0.4058  0.3003
16378SOL    HW150436   9.648   7.448   1.206 -0.5751 -0.0562 -0.8359
16378SOL    HW250437   9.594   7.341   1.317 -0.0029  1.1715  0.6369
16379SOL     OW50438   0.740   0.905   2.128  0.2893 -0.0579 -0.0288
16379SOL    HW150439   0.765   0.909   2.031 -1.5353 -1.5650 -0.5836
16379SOL    HW250440   0.732   0.809   2.156 -1.1609  0.3749  1.0745
16380SOL     OW50441   9.421   5.089   4.396 -0.3076 -0.0377 -0.0350
16380SOL    HW150442   9.470   5.166   4.437  0.5644 -0.0769 -0.9728
16380SOL    HW250443   9.485   5.032   4.345 -1.2161 -0.4857 -0.6989
16381SOL     OW50444   4.513   4.660   0.306  0.2188  0.0591  0.3317
16381SOL    HW150445   4.415   4.656   0.327  0.4035 -0.3284  1.1207
16381SOL    HW250446   4.565   4.677   0.390  0.7392  1.5888 -0.2882
16382SOL     OW50447   2.508   2.182   1.578  0.2974  0.0462  0.4350
16382SOL    HW150448   2.579   2.144   1.519  0.1816  0.2380  0.1714
16382SOL    HW250449   2.509   2.282   1.571  0.2533  0.0668  0.7227
16383SOL     OW50450   2.726   8.028   5.049 -0.4454 -0.3005 -0.4137
16383SOL    HW150451   2.755   7.932   5.055  0.9340  0.1160 -0.2098
16383SOL    HW250452   2.758   8.067   4.963 -1.2037 -0.0756 -0.5976
16385SOL     OW50453   3.048   5.091   0.567 -0.7620 -0.0704 -0.3777
16385SOL    HW150454   3.110   5.168   0.581  0.3054 -1.1734  1.0751
16385SOL    HW250455   2.987   5.111   0.490  0.6445  1.4910 -1.1088
16387SOL     OW50456   2.555   0.814   1.107 -0.2480  0.1107  0.0076
16387SOL    HW150457   2.527   0.875   1.181  1.2659 -0.3650  0.9812
16387SOL    HW250458   2.526   0.721   1.127 -1.4418  0.2697 -0.8845
16388SOL     OW50459   8.091   2.534   1.941  0.0621  0.2613 -0.1407
16388SOL    HW150460   8.155   2.512   1.868  0.0784  1.2772 -0.4493
16388SOL    HW250461   8.127   2.612   1.993 -0.5490  0.3329  0.1730
16389SOL     OW50462   9.251   7.110   4.958 -0.7131  0.0409 -0.3533
16389SOL    HW150463   9.260   7.037   4.890  1.0722  0.0460 -0.1443
16389SOL    HW250464   9.319   7.096   5.030 -0.8488  1.5034  0.0611
16390SOL     OW50465   7.645   3.585   1.289 -0.4305  0.3442  0.0938
16390SOL    HW150466   7.702   3.667   1.277 -0.4527  0.3394 -0.0517
16390SOL    HW250467   7.549   3.612   1.294 -0.8049  0.0700 -3.6444
16391SOL     OW50468   5.444   5.045   0.536 -0.0938 -0.4208 -0.1817
16391SOL    HW150469   5.437   5.106   0.458  1.1315 -0.3193 -0.2099
16391SOL    HW250470   5.353   5.008   0.558 -1.1123  2.5288  0.7537
16393SOL     OW50471   9.989   2.898   2.040  0.2162 -0.0213  0.0316
16393SOL    HW150472   9.902   2.878   1.996  0.2138  0.5085 -0.2106
16393SOL    HW250473  10.023   2.817   2.087  0.2039 -0.5720 -0.9173
16394SOL     OW50474   4.304   6.884   2.232 -0.8700 -0.0512 -0.0744
16394SOL    HW150475   4.306   6.829   2.148 -2.2424  1.8548 -1.3929
16394SOL    HW250476   4.382   6.945   2.235 -1.6833  1.0303 -0.7688
16397SOL     OW50477   0.896   2.231   0.456 -0.4394  0.2547 -0.3740
16397SOL    HW150478   0.883   2.188   0.367  1.5991 -1.4870  0.1194
16397SOL    HW250479   0.924   2.162   0.523  2.2163  2.1742  0.6039
16399SOL     OW50480   1.032   8.979   2.643 -0.7616  0.0233  0.4935
16399SOL    HW150481   1.056   8.883   2.661 -1.1457 -0.1112  0.3030
16399SOL    HW250482   0.970   9.011   2.715 -1.0635 -0.0383  0.2615
16400SOL     OW50483   7.821   5.574   0.720 -0.1999 -0.5842 -0.2032
16400SOL    HW150484   7.725   5.555   0.737 -0.2522 -0.0350  0.1412
16400SOL    HW250485   7.855   5.639   0.788  0.1116  0.1104 -0.9956
16401SOL     OW50486   9.112   1.791   0.263 -0.0111  0.1571 -0.0677
16401SOL    HW150487   9.180   1.865   0.265  0.4435 -0.1856 -1.8697
16401SOL    HW250488   9.139   1.723   0.195 -1.2353 -0.8957  0.4824
16403SOL     OW50489   1.102   3.440   2.922  0.5629 -0.3431 -0.2699
16403SOL    HW150490   1.089   3.458   2.825  2.0619  0.0523 -0.4152
16403SOL    HW250491   1.150   3.353   2.934 -4.4526 -3.2310  0.3466
16406SOL     OW50492   0.433   0.549   1.176 -0.1233  0.1033 -0.2042
16406SOL    HW150493   0.354   0.495   1.148 -0.4906  0.0384  0.9533
16406SOL    HW250494   0.502   0.489   1.217 -0.6363  0.5376  1.3112
16407SOL     OW50495   0.657   4.740   2.349 -0.1047  0.5809  0.1251
16407SOL    HW150496   0.659   4.648   2.311 -0.3875  1.0174 -0.9910
16407SOL    HW250497   0.671   4.737   2.448  0.8940 -0.5721 -0.0496
16408SOL     OW50498   8.048   7.740   3.186 -0.1879 -0.0294  0.1538
16408SOL    HW150499   7.966   7.769   3.236  0.2067  1.8159 -0.2021
16408SOL    HW250500   8.027   7.735   3.089  0.5440  2.2278 -0.1556
16409SOL     OW50501   6.376   0.768   0.949 -0.2002 -0.2101 -0.4948
16409SOL    HW150502   6.456   0.812   0.909  0.2659  1.8519  2.5704
16409SOL    HW250503   6.297   0.828   0.940 -0.0652  0.3350  1.7070
16411SOL     OW50504   0.311   0.922   4.816  0.2216  0.2650  0.4728
16411SOL    HW150505   0.256   0.921   4.734 -0.4232  1.5799  0.8750
16411SOL    HW250506   0.374   1.000   4.814  1.9093 -1.0664  0.1295
16412SOL     OW50507   8.016   9.939   0.772 -0.0241 -0.0232  0.1744
16412SOL    HW150508   7.945   9.997   0.732 -1.2003 -0.2070  1.9675
16412SOL    HW250509   7.974   9.856   0.809  1.2833 -0.6777  0.2096
16414SOL     OW50510   9.354   4.076   5.060 -0.2665 -0.0677 -0.0142
16414SOL    HW150511   9.438   4.112   5.101 -0.2770  1.0687 -0.9512
16414SOL    HW250512   9.280   4.078   5.128 -0.6231  3.0513 -0.4133
16415SOL     OW50513   3.291   8.179   4.657  0.1522  0.0028 -0.4724
16415SOL    HW150514   3.321   8.086   4.638  0.4249  0.0276 -0.1610
16415SOL    HW250515   3.287   8.231   4.572  1.7282  0.2242 -0.4085
16416SOL     OW50516   1.647   0.111   4.481  0.1954 -0.8239  0.4031
16416SOL    HW150517   1.631   0.117   4.383  0.8867  0.2981  0.3428
16416SOL    HW250518   1.588   0.176   4.528  0.5860 -0.6405  0.6426
16417SOL     OW50519   9.176   1.074   3.995 -0.1766  0.3366  0.0188
16417SOL    HW150520   9.144   1.031   4.080  0.1181  1.0928  0.5181
16417SOL    HW250521   9.276   1.078   3.995 -0.2029  0.9762 -0.0504
16418SOL     OW50522   0.084   0.009   2.063 -0.5065  0.4793 -0.1157
16418SOL    HW150523  -0.001  -0.008   2.014  0.1925  0.4035 -1.3301
16418SOL    HW250524   0.087  -0.049   2.145 -1.6380  0.5213 -0.0338
16419SOL     OW50525   1.887   8.291   3.391 -0.0211  0.1087  0.8750
16419SOL    HW150526   1.957   8.262   3.457  0.4903 -1.3062 -0.2552
16419SOL    HW250527   1.923   8.366   3.336 -0.4806  1.3500  2.2446
16420SOL     OW50528   0.811   8.694   2.073  0.2794  0.6671 -0.1760
16420SOL    HW150529   0.900   8.739   2.066  0.6632 -0.0340  0.1928
16420SOL    HW250530   0.779   8.696   2.167 -1.8398  4.2176 -0.8704
16421SOL     OW50531   3.523   3.306   0.081 -0.4859  0.1512 -0.1349
16421SOL    HW150532   3.502   3.249   0.001  2.8476 -0.1859 -0.8487
16421SOL    HW250533   3.485   3.398   0.067  0.3382  0.1983 -2.3103
16422SOL     OW50534   9.167   7.470   3.809 -0.4960  0.1436  0.0490
16422SOL    HW150535   9.179   7.375   3.781  1.3848  0.5520 -0.5986
16422SOL    HW250536   9.254   7.519   3.802 -1.4523  1.9528  0.2808
16423SOL     OW50537   1.150   7.057   4.577  0.0855 -0.1096 -0.5123
16423SOL    HW150538   1.084   7.073   4.650  1.1318 -2.4473  0.9973
16423SOL    HW250539   1.211   7.135   4.569 -1.1333  0.8948 -0.0777
16424SOL     OW50540   0.963   8.201   0.983 -0.2701 -0.0904 -0.1125
16424SOL    HW150541   0.931   8.158   0.899  0.7775  0.8273 -1.0002
16424SOL    HW250542   1.059   8.178   0.998 -0.0529  0.9024  0.0626
16425SOL     OW50543   9.442   0.623   1.525  0.1005  0.4514  0.3095
16425SOL    HW150544   9.438   0.696   1.457  1.6781  1.5788  1.3779
16425SOL    HW250545   9.515   0.643   1.590  1.2051 -2.5961  0.0601
16427SOL     OW50546   7.556   4.961   0.438  0.1792 -0.0555  0.7040
16427SOL    HW150547   7.482   4.905   0.401  0.8231 -0.0071 -0.6809
16427SOL    HW250548   7.536   5.057   0.422  0.9401 -0.0786 -0.4687
16428SOL     OW50549   2.735   0.341   3.662 -0.4490 -0.0913 -0.0375
16428SOL    HW150550   2.690   0.421   3.623 -0.0344  0.2391  0.1479
16428SOL    HW250551   2.667   0.283   3.706 -0.4932  1.3007  1.8052
16430SOL     OW50552   7.581   0.310   0.445  0.0470 -0.3635 -0.1503
16430SOL    HW150553   7.607   0.356   0.529 -2.4761  3.3310 -1.2563
16430SOL    HW250554   7.662   0.296   0.388  1.3003  0.0507  1.4952
16433SOL     OW50555   7.954   2.879   3.527 -0.0592 -0.1930  0.4287
16433SOL    HW150556   7.968   2.978   3.522  0.3808 -0.2976 -0.3844
16433SOL    HW250557   7.922   2.855   3.619  0.2354  0.6495  0.7578
16434SOL     OW50558   2.366   4.449   4.196 -0.2604 -0.2495 -0.2230
16434SOL    HW150559   2.457   4.410   4.181 -0.2176 -0.7932  1.3308
16434SOL    HW250560   2.297   4.379   4.175 -0.2904 -0.1676 -0.4000
16435SOL     OW50561   8.366   9.710   3.978 -0.3511 -0.5692  0.9344
16435SOL    HW150562   8.413   9.798   3.972  0.8354 -1.2306  0.3977
16435SOL    HW250563   8.289   9.709   3.915  0.9970 -0.7334 -0.7428
16437SOL     OW50564   1.025   4.860   2.804 -0.7813 -0.1201 -0.1324
16437SOL    HW150565   1.008   4.869   2.706  1.0606  0.0749 -0.4401
16437SOL    HW250566   1.098   4.793   2.819  0.1165  1.1166  1.0246
16438SOL     OW50567   2.856   4.185   1.684  0.9095 -0.3537  0.1822
16438SOL    HW150568   2.891   4.266   1.636 -0.7405  0.2909  0.0451
16438SOL    HW250569   2.757   4.181   1.675  1.0215 -2.7526 -0.3709
16439SOL     OW50570   8.305   4.427   3.728 -0.2015  0.2237 -0.2519
16439SOL    HW150571   8.285   4.485   3.807 -0.7253  1.0441 -0.9805
16439SOL    HW250572   8.380   4.467   3.675 -0.8399  0.4670 -0.9886
16441SOL     OW50573   8.957   2.308   5.105  0.4053  0.6549 -0.4411
16441SOL    HW150574   8.925   2.402   5.117 -0.3623  0.0746  2.3706
16441SOL    HW250575   8.879   2.250   5.082  0.2082  0.0714  1.6262
16442SOL     OW50576   5.067   0.414   1.945  0.3291  0.6046  0.0416
16442SOL    HW150577   5.010   0.394   1.865 -0.0194  1.2801  0.1207
16442SOL    HW250578   5.082   0.513   1.951  0.2743  0.5631  0.8663
16443SOL     OW50579   1.061   0.529   1.875  0.3803  0.3872 -0.8607
16443SOL    HW150580   1.078   0.431   1.869 -0.5937  0.2670 -1.8398
16443SOL    HW250581   1.086   0.562   1.966  0.5650 -0.7880 -0.4760
16445SOL     OW50582   0.248   3.015   4.921  0.1749  0.3005  0.3978
16445SOL    HW150583   0.281   3.088   4.981  1.9020  0.0217 -0.1928
16445SOL    HW250584   0.324   2.957   4.894 -1.0060 -1.0825 -0.0382
16446SOL     OW50585   9.049   6.271   4.031 -0.6903  0.2297 -0.4227
16446SOL    HW150586   8.989   6.191   4.033  0.0311 -0.2996  0.5979
16446SOL    HW250587   9.143   6.242   4.049 -0.6953  1.5506  1.9500
16447SOL     OW50588   6.672   8.792   4.381 -0.0949  0.3977  0.2175
16447SOL    HW150589   6.650   8.840   4.296 -1.0099 -0.0740  0.1761
16447SOL    HW250590   6.601   8.812   4.449 -0.9575 -1.5782 -0.0805
16448SOL     OW50591   3.423   7.017   2.279 -0.0033  0.2993  0.2701
16448SOL    HW150592   3.336   7.014   2.229  1.6076  0.3606 -2.6536
16448SOL    HW250593   3.446   6.924   2.309  0.1011 -0.1454 -1.1215
16449SOL     OW50594   8.788   7.431   2.582  0.3361 -0.2399 -0.1150
16449SOL    HW150595   8.848   7.482   2.644 -1.3792  0.8420  0.7112
16449SOL    HW250596   8.704   7.483   2.567 -0.1660 -1.4657 -1.6880
16450SOL     OW50597   9.757   5.060   2.268  0.3275 -0.2444  0.4086
16450SOL    HW150598   9.685   5.074   2.335  1.3271 -0.0038  1.4421
16450SOL    HW250599   9.827   5.131   2.278  0.6101 -0.3463 -0.7252
16453SOL     OW50600   7.864   0.023   5.185  0.0249 -0.1043  0.1521
16453SOL    HW150601   7.815   0.076   5.116  2.0504 -0.3020 -1.4876
16453SOL    HW250602   7.923   0.083   5.238 -0.5627 -0.1520  0.8667
16456SOL     OW50603   1.480   7.551   0.142 -0.2586  0.1093  0.0584
16456SOL    HW150604   1.566   7.501   0.139 -0.0848  0.1236  3.0392
16456SOL    HW250605   1.460   7.590   0.052  1.8322 -1.5454 -1.1504
16458SOL     OW50606   0.495   3.942   4.400  0.4109 -0.1141  0.0772
16458SOL    HW150607   0.454   4.029   4.426  0.2021 -0.2669  0.2622
16458SOL    HW250608   0.491   3.879   4.477 -1.0766 -0.8780 -0.5981
16460SOL     OW50609   1.219   4.575   0.692  0.1079  0.5166  0.1764
16460SOL    HW150610   1.208   4.544   0.597  1.1361 -0.3839  0.3478
16460SOL    HW250611   1.270   4.507   0.744 -1.5250  0.4155  1.7107
16461SOL     OW50612   1.947   0.399   1.536  0.7121 -0.4769  0.3624
16461SOL    HW150613   1.914   0.423   1.628  0.1107 -0.1337  0.0560
16461SOL    HW250614   2.035   0.352   1.544  0.2436 -1.2406  1.1766
16462SOL     OW50615   4.460   8.737   4.481 -0.1493 -0.3568  0.3596
16462SOL    HW150616   4.483   8.744   4.578  1.5877 -0.3278 -0.0350
16462SOL    HW250617   4.466   8.641   4.452 -0.0078 -0.2783  0.1268
16463SOL     OW50618   1.824   4.959   4.725  0.2952 -0.0160  0.1047
16463SOL    HW150619   1.750   5.003   4.775  1.1231  2.9841 -1.2136
16463SOL    HW250620   1.912   4.997   4.756  1.0704 -1.1342 -0.6893
16466SOL     OW50621   4.093   4.803   1.074 -0.5962  0.1487  0.5888
16466SOL    HW150622   4.026   4.763   1.137 -1.7094  0.3781 -0.4478
16466SOL    HW250623   4.050   4.873   1.018  0.7495  1.0059  0.5914
16467SOL     OW50624   0.385   0.084   3.767  0.2509  0.0745 -0.1581
16467SOL    HW150625   0.363   0.105   3.672  2.7844  1.5297 -0.4751
16467SOL    HW250626   0.344   0.153   3.827 -0.1175 -0.0036 -0.3199
16468SOL     OW50627   2.522   6.348   3.314  0.1009 -0.2956  0.1832
16468SOL    HW150628   2.570   6.288   3.250 -0.3727 -0.7679  0.2692
16468SOL    HW250629   2.425   6.350   3.291  0.1774  0.8015 -0.1108
16469SOL     OW50630   8.088   6.570   5.042 -0.5052  0.1948  0.2428
16469SOL    HW150631   8.079   6.580   4.943  1.0086  0.3699  0.1162
16469SOL    HW250632   8.117   6.657   5.082  2.7285 -0.8985  0.3709
16470SOL     OW50633   3.839   7.090   1.058 -0.1822 -0.5946 -0.0125
16470SOL    HW150634   3.816   7.172   1.005  2.2627  0.6289  0.7806
16470SOL    HW250635   3.785   7.089   1.142 -0.1544  0.2531  0.0190
16471SOL     OW50636   1.402   5.991   2.182  0.5420 -0.0098 -0.6409
16471SOL    HW150637   1.418   5.999   2.280  0.1171  1.3726 -0.6802
16471SOL    HW250638   1.465   6.051   2.132  0.9776 -0.9409 -1.2458
16472SOL     OW50639   9.159   9.112   2.709  0.4304 -0.0157  0.2808
16472SOL    HW150640   9.103   9.031   2.691  1.0334 -0.1913 -0.8492
16472SOL    HW250641   9.207   9.100   2.796  0.8887 -1.0967 -0.1080
16473SOL     OW50642   0.716   8.065   1.791 -0.5286  0.2573 -0.0918
16473SOL    HW150643   0.741   8.091   1.885  0.8427  3.4520 -1.2677
16473SOL    HW250644   0.792   8.017   1.749 -0.2613  0.8326 -0.2795
16474SOL     OW50645   6.167   1.620   4.667  0.0611 -0.1923 -0.5087
16474SOL    HW150646   6.086   1.566   4.689  1.0410 -1.8104 -0.7951
16474SOL    HW250647   6.173   1.632   4.568 -0.0991  0.3615 -0.4530
16475SOL     OW50648   0.653   7.077   3.972 -0.3341  0.1020 -0.1824
16475SOL    HW150649   0.574   7.133   3.998  0.1399  0.1355  1.2039
16475SOL    HW250650   0.697   7.041   4.054  1.7533  0.9776 -0.8953
16477SOL     OW50651   0.958   7.531   4.143  0.0824  0.1080 -0.1650
16477SOL    HW150652   0.915   7.578   4.065 -2.2039 -0.3475  0.7723
16477SOL    HW250653   0.983   7.438   4.116  0.3425  0.3166 -0.6652
16478SOL     OW50654   9.037   3.551   2.249 -0.3051  0.0204 -0.2773
16478SOL    HW150655   9.117   3.515   2.200 -0.7431  0.2262 -1.1480
16478SOL    HW250656   9.058   3.557   2.347  0.7850  0.1631 -0.5110
16481SOL     OW50657   2.266   1.202   5.014 -0.2156 -0.1711  0.0003
16481SOL    HW150658   2.321   1.152   4.947  1.3242  1.6639 -0.1493
16481SOL    HW250659   2.313   1.202   5.102 -0.6093  0.2932  0.2124
16482SOL     OW50660   5.614   0.653   4.759 -0.5014 -0.6335 -0.3176
16482SOL    HW150661   5.536   0.641   4.820 -0.4600  0.2027 -0.1001
16482SOL    HW250662   5.668   0.732   4.789  1.0305 -1.8538  0.1774
16483SOL     OW50663   1.476   0.117   2.003  0.3434  0.3347  0.0924
16483SOL    HW150664   1.530   0.187   1.956 -1.5116  0.4021 -2.0219
16483SOL    HW250665   1.453   0.149   2.095 -1.0728  2.8379 -1.0745
16484SOL     OW50666   2.258   7.503   2.122 -0.5682 -0.2007 -0.1224
16484SOL    HW150667   2.209   7.462   2.045 -0.3778 -0.2477 -0.2202
16484SOL    HW250668   2.251   7.603   2.117  1.4247 -0.1086 -1.5284
16486SOL     OW50669   7.715   2.299   3.107 -0.4323  0.0687 -0.3500
16486SOL    HW150670   7.651   2.233   3.068 -0.0724 -0.9153  0.7014
16486SOL    HW250671   7.668   2.355   3.175 -0.3858 -0.0329 -0.2360
16487SOL     OW50672   7.522   2.822   4.535  0.3644  0.3227 -0.4154
16487SOL    HW150673   7.566   2.897   4.485  0.1114  0.7217 -0.0413
16487SOL    HW250674   7.428   2.812   4.504  0.9436 -1.0576 -1.7918
16488SOL     OW50675   2.571   1.809   3.839 -0.1426 -0.1553 -0.5325
16488SOL    HW150676   2.640   1.838   3.906  1.6386  0.6233 -2.6123
16488SOL    HW250677   2.482   1.800   3.884  0.6605  1.9241  1.6027
16489SOL     OW50678   2.995   6.073   2.034  0.6136  0.1837  0.0730
16489SOL    HW150679   3.026   6.030   2.119 -0.2143  2.2126  1.4284
16489SOL    HW250680   3.071   6.121   1.992  0.7215  0.2091  0.2975
16490SOL     OW50681   3.605   6.036   4.762  0.5570  0.2364 -0.4686
16490SOL    HW150682   3.650   6.124   4.775  0.1624  0.3351  0.2663
16490SOL    HW250683   3.645   5.989   4.684  1.0974  0.8573 -0.5658
16491SOL     OW50684   1.406   0.722   1.001 -0.0841 -0.1975 -0.4769
16491SOL    HW150685   1.453   0.702   0.915  1.3743 -1.5040  0.5827
16491SOL    HW250686   1.384   0.636   1.048  0.1169  0.5156  0.9629
16492SOL     OW50687   1.738   3.733   3.801  0.4256  0.7181 -0.3283
16492SOL    HW150688   1.779   3.822   3.820  1.4045 -0.0122  1.0960
16492SOL    HW250689   1.785   3.662   3.854  0.1863 -0.7679 -2.0258
16494SOL     OW50690   1.741   8.077   2.032  0.5836 -0.2608 -0.6692
16494SOL    HW150691   1.751   7.983   1.997  1.8978 -0.6482  0.7188
16494SOL    HW250692   1.784   8.084   2.122 -1.0872  1.2183  0.0464
16495SOL     OW50693   6.167   9.315   2.204 -0.6469  0.1797 -0.1814
16495SOL    HW150694   6.244   9.335   2.144  0.1268 -2.1736 -0.0172
16495SOL    HW250695   6.188   9.343   2.297 -0.2365  0.1322 -0.2610
16497SOL     OW50696   3.801   7.958   2.774  0.0679  0.0812 -0.2072
16497SOL    HW150697   3.820   7.895   2.848 -0.5067 -1.7460 -1.5659
16497SOL    HW250698   3.846   7.926   2.690 -0.1452  1.5325 -0.8969
16498SOL     OW50699   3.044   2.184   0.445  0.0187  0.4181  0.6004
16498SOL    HW150700   3.002   2.213   0.359 -1.9166  1.2089  1.8013
16498SOL    HW250701   3.075   2.089   0.436 -1.9081 -0.1400 -0.3529
16500SOL     OW50702   1.079   5.424   2.546  0.1306 -0.1330  0.2439
16500SOL    HW150703   1.130   5.496   2.499  0.7319  0.6127  1.9605
16500SOL    HW250704   1.099   5.336   2.505 -0.8337  0.7002 -2.0796
16501SOL     OW50705   1.500   4.705   0.742  0.1332  0.5945  0.3731
16501SOL    HW150706   1.402   4.717   0.755  0.1247  0.6458  0.2624
16501SOL    HW250707   1.524   4.608   0.753 -0.0841  0.4234 -0.6255
16503SOL     OW50708   4.635   8.215   1.896 -0.4884  0.4036 -0.3854
16503SOL    HW150709   4.578   8.267   1.960  0.0242  0.6946 -0.1645
16503SOL    HW250710   4.705   8.166   1.947 -1.8886 -1.7019 -0.4525
16504SOL     OW50711   9.664   3.056   0.854  0.6177  0.7087  0.1070
16504SOL    HW150712   9.739   3.094   0.800 -0.0060 -0.4266 -1.6015
16504SOL    HW250713   9.580   3.107   0.835  0.3416  0.1453 -0.1877
16505SOL     OW50714   7.428   8.043   5.242  0.1242 -0.6753 -0.2944
16505SOL    HW150715   7.367   8.104   5.191  1.4721 -0.1622 -1.3134
16505SOL    HW250716   7.512   8.029   5.190  1.2808 -0.6177  1.5174
16506SOL     OW50717   7.365   3.111   0.032 -0.3975  0.0086 -0.0006
16506SOL    HW150718   7.459   3.108  -0.002  0.0758 -0.0781  1.2919
16506SOL    HW250719   7.303   3.129  -0.044  0.7950  1.5810 -0.6232
16507SOL     OW50720   0.964   7.092   3.354  0.5113  0.6325  0.0625
16507SOL    HW150721   0.930   7.041   3.434 -0.7713  2.1185  0.4973
16507SOL    HW250722   0.917   7.180   3.349  2.9356  1.9258 -0.4882
16508SOL     OW50723   1.131   4.842   4.723  0.0487 -0.2289  0.2222
16508SOL    HW150724   1.084   4.836   4.811  0.4486 -0.8281  0.4008
16508SOL    HW250725   1.183   4.758   4.708  0.1740 -0.0265 -0.4776
16509SOL     OW50726   4.459   8.698   4.149 -0.1785 -0.7186  0.1095
16509SOL    HW150727   4.384   8.648   4.107 -0.9368 -0.8806  1.6258
16509SOL    HW250728   4.441   8.710   4.247  1.4695 -0.2195  0.3732
16511SOL     OW50729   9.634   4.825   3.251 -0.3080  0.0580 -0.2271
16511SOL    HW150730   9.548   4.782   3.277 -0.5911 -0.3933 -1.8316
16511SOL    HW250731   9.631   4.922   3.272 -1.0893 -0.0186  0.0183
16512SOL     OW50732   1.528   6.788   1.730 -0.0109 -0.1448 -0.4643
16512SOL    HW150733   1.585   6.870   1.734 -0.3316 -0.0051  3.4498
16512SOL    HW250734   1.587   6.707   1.723  0.5644  0.1630  0.6476
16514SOL     OW50735   9.490   1.467   4.357  0.6659 -0.0991  0.1275
16514SOL    HW150736   9.452   1.398   4.296  0.1258 -0.5770  0.9866
16514SOL    HW250737   9.550   1.423   4.424  0.8943  0.3597  0.2262
16516SOL     OW50738   2.271   0.016   2.081  0.4097 -0.4319 -1.2301
16516SOL    HW150739   2.322   0.054   2.004 -0.3798  0.1654 -1.4575
16516SOL    HW250740   2.186  -0.024   2.049 -0.1494  0.2391 -0.6139
16517SOL     OW50741   8.007   2.730   4.184  0.6840  0.6620 -0.1077
16517SOL    HW150742   8.047   2.764   4.100  2.2318  1.0999  0.7897
16517SOL    HW250743   7.933   2.666   4.163  1.6388  0.1008 -1.7778
16521SOL     OW50744   9.776   0.743   0.556  0.9111 -0.2276 -0.1143
16521SOL    HW150745   9.734   0.659   0.522  0.7955 -0.8003  1.4019
16521SOL    HW250746   9.851   0.720   0.618  2.7560  0.7887 -1.9073
16522SOL     OW50747   0.008   6.923   4.152  0.0287  0.3107 -0.4436
16522SOL    HW150748   0.107   6.910   4.143  0.0959  1.3661 -1.4575
16522SOL    HW250749  -0.031   6.945   4.062 -1.0726  0.2338  0.0079
16523SOL     OW50750   1.569   4.226   1.766 -0.1518 -0.6806  0.9479
16523SOL    HW150751   1.515   4.204   1.848 -1.2241  1.2032  0.7644
16523SOL    HW250752   1.558   4.322   1.743  2.1577 -0.5930  0.0366
16524SOL     OW50753   8.727   2.512   4.841  0.3246  0.1892  0.0856
16524SOL    HW150754   8.769   2.504   4.931  0.3196 -1.5970 -0.0482
16524SOL    HW250755   8.795   2.497   4.770  0.8376  3.9275 -0.3097
16525SOL     OW50756   9.942   8.281   0.337  0.2301  0.3278 -0.0199
16525SOL    HW150757   9.944   8.187   0.372  2.1849  0.6750  0.8124
16525SOL    HW250758   9.961   8.280   0.239 -2.9204 -0.4126 -0.6926
16527SOL     OW50759   4.303   8.910   0.225  0.4313  0.1289  0.7956
16527SOL    HW150760   4.244   8.870   0.295 -0.4186 -0.6996 -0.3737
16527SOL    HW250761   4.347   8.837   0.173 -0.4894  0.7217 -0.8319
16528SOL     OW50762   9.978   3.483   2.296 -0.8324 -0.2742  0.1790
16528SOL    HW150763   9.987   3.512   2.200  1.0825  0.4351  0.5553
16528SOL    HW250764   9.958   3.562   2.353  2.3206  0.0750  0.9192
16529SOL     OW50765   3.480   7.742   4.243  0.1610 -0.2320  0.6055
16529SOL    HW150766   3.575   7.770   4.257 -0.6823  2.0162  2.1175
16529SOL    HW250767   3.457   7.750   4.146  1.1601  0.4679  0.4203
16530SOL     OW50768   7.251   0.441   5.105 -0.3371  0.4626 -0.2434
16530SOL    HW150769   7.327   0.379   5.084  0.3842  1.8620 -1.8523
16530SOL    HW250770   7.276   0.501   5.180 -0.6370 -0.4195  0.5870
16531SOL     OW50771   1.023   3.657   4.296  0.1906  0.4795  0.1861
16531SOL    HW150772   1.083   3.642   4.375 -0.4438  0.3569  0.6432
16531SOL    HW250773   1.079   3.676   4.215  0.8157  2.5887  1.0657
16532SOL     OW50774   3.178   9.895   0.657  0.6173 -0.1836  0.1776
16532SOL    HW150775   3.267   9.852   0.642 -0.5808 -2.5154 -0.4557
16532SOL    HW250776   3.161   9.963   0.585  1.9630  0.4446  0.4382
16533SOL     OW50777   3.204   3.567   3.539  0.6245  0.3113 -0.6167
16533SOL    HW150778   3.242   3.480   3.572 -0.4575 -0.2469 -0.8104
16533SOL    HW250779   3.213   3.636   3.610 -0.2879 -0.4762  0.2829
16534SOL     OW50780   4.550   8.323   4.037  0.3289 -0.5110  0.0819
16534SOL    HW150781   4.627   8.258   4.034  1.2110  0.4593  1.2848
16534SOL    HW250782   4.577   8.405   4.087 -1.9208 -0.7073  1.7220
16535SOL     OW50783   0.568   0.073   3.030 -0.5544  0.0857  0.5615
16535SOL    HW150784   0.556   0.017   2.948 -2.3540  0.0519  0.8338
16535SOL    HW250785   0.515   0.034   3.105 -1.6106  1.9983  0.8288
16536SOL     OW50786   7.113   3.968   0.322 -0.6021  0.2976 -0.2752
16536SOL    HW150787   7.045   4.026   0.367 -0.5911 -1.2925  1.9138
16536SOL    HW250788   7.067   3.888   0.282 -0.0430 -1.0010  1.5813
16538SOL     OW50789   0.936   2.782   1.975 -0.4422 -0.8772  0.6269
16538SOL    HW150790   0.931   2.689   1.939 -2.5781 -1.3461  2.0244
16538SOL    HW250791   0.844   2.813   2.000  0.0619  2.0946 -0.9645
16539SOL     OW50792   1.709   9.216   4.782 -0.6182 -0.4017  0.0290
16539SOL    HW150793   1.756   9.182   4.864 -1.3790  0.5679  0.8854
16539SOL    HW250794   1.775   9.230   4.709 -0.0530 -2.1278  0.1831
16540SOL     OW50795   4.077   4.681   0.690  0.4481 -0.0014  0.2409
16540SOL    HW150796   4.136   4.761   0.675 -0.6404  1.0738  1.5533
16540SOL    HW250797   4.127   4.612   0.742  0.1008  1.5238  2.6572
16541SOL     OW50798   9.184   1.950   2.015  0.0725  0.6487 -0.0235
16541SOL    HW150799   9.127   1.929   2.094 -0.1634  1.1613 -0.0541
16541SOL    HW250800   9.185   2.049   2.000 -0.7072  0.4822 -1.2781
16542SOL     OW50801   4.969   7.865   4.202  0.2770  0.3766 -0.4199
16542SOL    HW150802   4.939   7.870   4.106 -1.1541 -0.7765 -0.0518
16542SOL    HW250803   4.996   7.772   4.224  0.3188  0.5749  0.3761
16543SOL     OW50804   2.393   8.496   5.002  0.1075 -0.4792 -0.6329
16543SOL    HW150805   2.330   8.441   5.057 -0.9111  1.5003  0.2543
16543SOL    HW250806   2.467   8.529   5.061 -0.4134  0.7786 -0.6623
16544SOL     OW50807   8.311   5.959   3.683  0.2214 -0.4654 -0.1652
16544SOL    HW150808   8.276   5.996   3.598  0.9475 -1.3428 -0.8530
16544SOL    HW250809   8.319   5.860   3.676 -0.1144 -0.5868  1.0659
16545SOL     OW50810   9.691   6.008   2.244 -0.5736 -0.1875  0.1938
16545SOL    HW150811   9.702   6.032   2.341 -0.9400  0.6910  0.0194
16545SOL    HW250812   9.604   5.959   2.232 -0.2245 -0.8659  0.4109
16546SOL     OW50813   9.687   1.631   2.163  0.0264 -0.2018  0.1313
16546SOL    HW150814   9.767   1.602   2.215 -1.2312  1.2280  2.9430
16546SOL    HW250815   9.612   1.567   2.179 -0.7306  0.9092  1.0323
16547SOL     OW50816   0.495   7.002   3.747  0.3744  0.0931 -0.3189
16547SOL    HW150817   0.428   7.076   3.739  0.4901  0.2145 -0.1699
16547SOL    HW250818   0.544   7.011   3.834  0.0925 -0.4072 -0.1106
16548SOL     OW50819   4.710   1.080   0.449  0.4563  0.2224 -0.5310
16548SOL    HW150820   4.753   1.104   0.362  2.0941  0.1199  0.2371
16548SOL    HW250821   4.665   1.161   0.487 -1.3513 -0.0233 -2.0514
16549SOL     OW50822   7.240   1.876   3.625 -0.6409 -0.5204 -0.3182
16549SOL    HW150823   7.318   1.883   3.564 -0.6834 -1.1578 -0.4490
16549SOL    HW250824   7.271   1.852   3.717 -0.3601  2.5882  0.4716
16550SOL     OW50825   1.769   8.003   3.716 -0.0047  0.5811  0.2113
16550SOL    HW150826   1.671   8.008   3.736 -0.3022 -0.8525 -0.8063
16550SOL    HW250827   1.783   7.966   3.624  1.5089 -0.9926  1.0427
16552SOL     OW50828   9.079   5.767   3.536 -0.2366  0.4681  0.1366
16552SOL    HW150829   9.135   5.848   3.556  1.2019 -0.6205  0.5788
16552SOL    HW250830   9.065   5.761   3.437  0.8668  0.4708 -0.0297
16553SOL     OW50831   4.093   0.569   0.676 -0.9753  0.6306 -0.5996
16553SOL    HW150832   4.079   0.665   0.650  0.5342  0.6041 -1.5562
16553SOL    HW250833   4.128   0.565   0.769 -0.2707  1.0621 -0.8404
16554SOL     OW50834   3.712   0.108   0.341 -0.1651 -0.5224  0.3230
16554SOL    HW150835   3.772   0.150   0.409 -0.9940 -0.8822  1.2869
16554SOL    HW250836   3.767   0.062   0.271  0.6993  0.2969  0.4527
16555SOL     OW50837   8.248   2.139   0.118  0.2175 -0.0110 -0.0683
16555SOL    HW150838   8.173   2.124   0.182  0.7544 -1.0328  0.3264
16555SOL    HW250839   8.268   2.237   0.113  0.0034  0.0985  1.1237
16556SOL     OW50840   7.219   8.246   4.638 -0.1962 -1.0050 -0.6570
16556SOL    HW150841   7.272   8.286   4.712  0.4400  0.4652 -1.8991
16556SOL    HW250842   7.216   8.146   4.650  1.0851 -0.9136  0.5555
16557SOL     OW50843   2.942   5.841   3.077 -0.0635  0.2712  0.4713
16557SOL    HW150844   2.898   5.827   3.166  0.4544  1.6407  0.9504
16557SOL    HW250845   2.873   5.869   3.010  0.0442  2.2660  1.1852
16558SOL     OW50846   9.200   9.196   3.007  0.4062  0.2930 -0.2560
16558SOL    HW150847   9.109   9.210   2.970  1.4582  0.7846 -2.7418
16558SOL    HW250848   9.217   9.099   3.020 -0.8664  0.2622  1.3098
16559SOL     OW50849   9.301   9.281   5.269  0.4163 -0.2202 -0.1474
16559SOL    HW150850   9.368   9.336   5.318  0.4355 -0.2378 -0.1535
16559SOL    HW250851   9.344   9.197   5.235  0.7199  0.4150 -1.3245
16560SOL     OW50852   2.079   7.691   2.989 -0.2513  0.2511  0.1101
16560SOL    HW150853   2.164   7.728   3.026 -0.0154  0.1356 -0.3020
16560SOL    HW250854   2.100   7.638   2.906 -0.6946  0.0033  0.1577
16562SOL     OW50855   4.485   1.261   0.715 -0.0579 -0.4236  0.2269
16562SOL    HW150856   4.538   1.195   0.768 -0.6802 -0.6620  0.5536
16562SOL    HW250857   4.462   1.220   0.626 -3.5644 -2.0803  1.8055
16563SOL     OW50858   9.805   2.529   4.808 -0.5599  0.6140 -0.7222
16563SOL    HW150859   9.747   2.493   4.881 -0.7741 -0.3454 -1.3653
16563SOL    HW250860   9.872   2.461   4.780 -0.0592  1.2042 -0.9875
16567SOL     OW50861   1.304   1.332   2.472  0.0053  0.2922 -0.0244
16567SOL    HW150862   1.346   1.247   2.506  0.5485  0.0688 -1.2264
16567SOL    HW250863   1.208   1.335   2.500 -0.6161 -1.7817 -1.8254
16568SOL     OW50864   9.390   0.713   2.669  0.0438 -0.0233 -0.4518
16568SOL    HW150865   9.484   0.704   2.702  0.0817 -1.0137 -0.8127
16568SOL    HW250866   9.380   0.664   2.582 -1.3106 -1.6253  0.5806
16569SOL     OW50867   2.822   3.693   3.014 -0.0784  0.2757 -0.0355
16569SOL    HW150868   2.903   3.637   2.996  0.8654  2.1432 -1.7697
16569SOL    HW250869   2.833   3.741   3.101  0.4492  0.1393 -0.0236
16570SOL     OW50870   2.833   6.091   0.484 -0.2970  0.0183  0.0240
16570SOL    HW150871   2.824   6.039   0.399 -1.3276  0.0989  0.0697
16570SOL    HW250872   2.793   6.039   0.559 -0.4061  0.4360  0.2554
16571SOL     OW50873   2.814   6.117   5.216 -0.2397 -0.4912  0.3718
16571SOL    HW150874   2.912   6.124   5.200 -0.6809  0.5184 -2.1777
16571SOL    HW250875   2.792   6.027   5.253  1.7415 -0.3603  1.9559
16572SOL     OW50876   4.553   2.242   0.364  0.0324 -0.3943 -0.1914
16572SOL    HW150877   4.585   2.207   0.452 -1.7162  0.3456  0.7730
16572SOL    HW250878   4.604   2.198   0.290  3.4476  1.0030  1.2586
16573SOL     OW50879   7.659   0.780   3.423 -0.7485 -0.3540 -0.9592
16573SOL    HW150880   7.582   0.759   3.482 -1.6413  1.5875 -1.3876
16573SOL    HW250881   7.631   0.846   3.353  1.4721  0.9331 -0.6975
16574SOL     OW50882   7.361   2.039   1.989  0.3758  0.5791 -0.1095
16574SOL    HW150883   7.426   2.022   1.916 -0.5421  1.3840 -1.1467
16574SOL    HW250884   7.341   2.137   1.993 -1.0047  0.3057 -0.0283
16575SOL     OW50885   7.511   4.335   0.866  0.0113 -0.3658  0.5666
16575SOL    HW150886   7.594   4.287   0.893  1.2801  2.3156  1.5994
16575SOL    HW250887   7.495   4.321   0.768  2.3268  0.0412  0.1093
16576SOL     OW50888   9.808   0.859   4.774  0.1526 -0.2155 -0.0627
16576SOL    HW150889   9.762   0.776   4.806  0.7537 -0.3925  0.3356
16576SOL    HW250890   9.884   0.882   4.835  0.8042 -0.1041 -0.9052
16577SOL     OW50891   9.297   4.779   1.307  1.1106 -0.1810 -0.3094
16577SOL    HW150892   9.350   4.696   1.324  1.7267  0.1814 -0.4602
16577SOL    HW250893   9.272   4.822   1.394  0.2679 -0.8449 -0.2107
16578SOL     OW50894   4.113   5.464   3.609 -0.2433  0.5199  0.6125
16578SOL    HW150895   4.124   5.461   3.510  2.0421 -1.2491  0.8849
16578SOL    HW250896   4.115   5.559   3.640  2.0012  0.9295 -0.7380
16579SOL     OW50897   0.525   0.375   1.414 -0.2245  0.5437 -0.5387
16579SOL    HW150898   0.588   0.318   1.360 -0.2622  0.4403 -0.4730
16579SOL    HW250899   0.577   0.434   1.475 -0.2441 -0.7699  0.7603
16581SOL     OW50900   8.403   6.563   2.611 -0.1629  0.2676  0.3495
16581SOL    HW150901   8.399   6.476   2.562  1.0121 -0.4535  1.5333
16581SOL    HW250902   8.333   6.625   2.574  0.4333 -0.3982 -1.9661
16582SOL     OW50903   1.269   3.370   3.825 -0.6401 -0.1471  0.2416
16582SOL    HW150904   1.172   3.345   3.828 -0.7271  0.1640  0.0113
16582SOL    HW250905   1.325   3.287   3.818 -0.9879 -0.2263 -1.9161
16585SOL     OW50906   0.049   2.665   2.118  0.2926  0.5852 -0.0564
16585SOL    HW150907   0.094   2.579   2.091 -0.0728  0.5588 -0.5822
16585SOL    HW250908  -0.021   2.645   2.186  1.7453  0.7443  1.5444
16586SOL     OW50909   7.697   7.941   2.399  0.1157 -0.7872 -0.3656
16586SOL    HW150910   7.617   7.883   2.412  0.5718 -1.5577 -0.9310
16586SOL    HW250911   7.717   7.950   2.302  0.4054 -0.1707 -0.2520
16588SOL     OW50912   5.426   1.799   1.432  0.0467  0.4038  0.0610
16588SOL    HW150913   5.375   1.862   1.373  0.3219  0.5073 -0.0672
16588SOL    HW250914   5.505   1.847   1.471  0.3034  0.1141 -0.1043
16589SOL     OW50915   8.290   6.850   1.655 -0.3871  0.4332 -0.3666
16589SOL    HW150916   8.212   6.882   1.601 -0.6738  0.5315  0.1001
16589SOL    HW250917   8.277   6.753   1.677  0.0962  0.1921 -1.1079
16590SOL     OW50918   2.932   1.586   4.806 -0.2884 -0.3440  0.5616
16590SOL    HW150919   2.997   1.540   4.866  1.4099  0.6741 -0.4471
16590SOL    HW250920   2.841   1.583   4.847  0.4919 -1.2692  2.2928
16591SOL     OW50921   0.504   9.332   4.113 -0.2403 -0.0950 -0.6220
16591SOL    HW150922   0.486   9.234   4.108  0.5328 -0.2180 -1.1343
16591SOL    HW250923   0.503   9.361   4.208 -0.6624 -0.5615 -0.4790
16592SOL     OW50924   4.852   2.207   1.493 -0.5923  0.8192  0.6281
16592SOL    HW150925   4.795   2.195   1.412  0.6087  1.4209 -0.3114
16592SOL    HW250926   4.917   2.132   1.499 -0.4853  0.9324  0.8794
16593SOL     OW50927   0.085   1.528   1.066  0.4009 -0.9309 -0.5495
16593SOL    HW150928  -0.007   1.554   1.097  0.8301 -0.3433  0.2749
16593SOL    HW250929   0.152   1.588   1.110  1.3759 -2.9492  0.8146
16594SOL     OW50930   9.846   1.640   5.097  0.1501  0.5826 -0.0292
16594SOL    HW150931   9.932   1.683   5.125 -0.1433  0.2163  1.4803
16594SOL    HW250932   9.790   1.707   5.047  1.1674  0.9088 -0.7515
16596SOL     OW50933   0.148   0.062   3.241  0.9198  0.4851 -0.3996
16596SOL    HW150934   0.211   0.029   3.171 -1.8352 -1.5015 -2.0363
16596SOL    HW250935   0.090  -0.014   3.272  0.6499  1.8248  2.4916
16597SOL     OW50936   0.460   3.289   1.903 -0.3562  0.3348  0.9851
16597SOL    HW150937   0.488   3.366   1.961 -0.8840  1.1588  0.1579
16597SOL    HW250938   0.409   3.223   1.959 -0.5587  0.9514  1.5463
16598SOL     OW50939   0.130   9.383   2.694 -0.1883 -0.4470 -0.2109
16598SOL    HW150940   0.126   9.457   2.627  1.2771 -1.2221 -1.1745
16598SOL    HW250941   0.064   9.401   2.767  0.2233  1.8468 -0.3678
16599SOL     OW50942   9.152   4.345   4.624 -0.0069 -0.3755  0.4063
16599SOL    HW150943   9.172   4.278   4.696 -2.5070 -0.2293  1.2760
16599SOL    HW250944   9.119   4.429   4.665  1.6465  0.8833 -0.7802
16600SOL     OW50945   3.985   1.437   2.558 -0.5388 -0.5820  0.3120
16600SOL    HW150946   4.040   1.398   2.632 -1.3154 -0.3260  1.0329
16600SOL    HW250947   3.908   1.488   2.597  0.2836  1.4105 -0.6180
16601SOL     OW50948   2.837   0.097   2.940 -0.2207  0.9069  0.1300
16601SOL    HW150949   2.746   0.138   2.954 -0.2919  1.0222 -0.6479
16601SOL    HW250950   2.877   0.134   2.856 -0.1969 -0.4607 -0.4701
16602SOL     OW50951   5.963   0.369   3.134 -0.0167  0.1227  0.6566
16602SOL    HW150952   5.914   0.352   3.049 -1.5685  2.4241  1.0277
16602SOL    HW250953   5.897   0.392   3.206  1.3848 -0.3047  2.0988
16603SOL     OW50954   3.674   7.835   1.745 -0.1082 -0.2065  0.3859
16603SOL    HW150955   3.627   7.900   1.806 -0.5430  0.1366 -0.2978
16603SOL    HW250956   3.714   7.885   1.669 -1.9668 -0.9022 -1.1056
16606SOL     OW50957   9.896   9.059   2.659 -0.5983  0.0178 -0.2515
16606SOL    HW150958   9.806   9.030   2.690 -0.3311 -0.2099  0.3311
16606SOL    HW250959   9.891   9.153   2.625 -1.1877 -0.2348 -0.8575
16607SOL     OW50960   1.275   1.439   3.757  0.0873  0.1816  0.2571
16607SOL    HW150961   1.282   1.340   3.742  0.4483  0.1432  0.6712
16607SOL    HW250962   1.229   1.457   3.844 -0.8695  0.3946 -0.2863
16608SOL     OW50963   2.937   2.960   3.175  0.2513 -0.1884 -0.0465
16608SOL    HW150964   2.913   2.985   3.081  0.6642  0.5973  0.0545
16608SOL    HW250965   2.972   3.040   3.223  2.5979 -1.1838 -0.0374
16609SOL     OW50966   9.190   9.292   1.534 -0.2735 -0.2429  0.4956
16609SOL    HW150967   9.103   9.244   1.533 -0.6498  0.4300 -0.0649
16609SOL    HW250968   9.188   9.365   1.465  0.4727  0.2286  0.9643
16610SOL     OW50969   8.506   0.022   2.417  0.0837 -0.6304 -0.4913
16610SOL    HW150970   8.502  -0.064   2.468  0.6204  0.1448  0.9152
16610SOL    HW250971   8.588   0.073   2.446 -0.8451  0.8647 -0.4586
16611SOL     OW50972   0.607   4.369   0.951 -0.0770  0.0149 -0.8123
16611SOL    HW150973   0.594   4.408   0.860  1.3449  0.8983 -0.6585
16611SOL    HW250974   0.567   4.429   1.019 -0.0653 -0.0451 -0.7524
16612SOL     OW50975   0.237   7.283   5.190  0.1186 -0.2098  0.0672
16612SOL    HW150976   0.273   7.280   5.097  1.2670  2.0249  0.4215
16612SOL    HW250977   0.139   7.305   5.187  0.1583 -0.0983 -0.5840
16613SOL     OW50978   8.500   9.886   2.984 -0.4979 -0.2437  0.3069
16613SOL    HW150979   8.431   9.958   2.997  0.2569  0.4727  0.3669
16613SOL    HW250980   8.484   9.812   3.050  0.0111  0.8553  1.6788
16614SOL     OW50981   3.677   6.762   3.310  0.4977  0.1145  0.1315
16614SOL    HW150982   3.701   6.688   3.246 -0.3077  1.6187 -1.9744
16614SOL    HW250983   3.618   6.726   3.382 -0.0155 -1.2730 -0.9537
16615SOL     OW50984   2.932   2.227   0.195  0.4829 -0.1579  0.3188
16615SOL    HW150985   2.983   2.226   0.109 -2.4004  0.1994 -1.4394
16615SOL    HW250986   2.871   2.149   0.199 -0.3416  0.5364  1.4640
16616SOL     OW50987   0.317   7.958   2.868 -0.4030 -0.1552 -0.0505
16616SOL    HW150988   0.384   8.014   2.916  0.3611 -1.1964  0.1186
16616SOL    HW250989   0.258   7.912   2.934 -1.5884  1.1169 -0.2109
16617SOL     OW50990   3.401   8.519   0.167  0.2944 -0.3278  0.2065
16617SOL    HW150991   3.459   8.512   0.248  1.2946  2.0048 -0.2615
16617SOL    HW250992   3.426   8.601   0.114 -1.8166 -0.5789 -1.2875
16618SOL     OW50993   0.510   3.230   3.974  0.1150  0.2175  0.4971
16618SOL    HW150994   0.540   3.177   3.895 -0.3448 -0.4872  0.7817
16618SOL    HW250995   0.418   3.266   3.958 -0.7572 -1.4883  1.4091
16621SOL     OW50996   0.102   1.716   0.512 -0.1953  0.3306 -0.4530
16621SOL    HW150997   0.027   1.720   0.445  0.4957  1.0533 -1.2022
16621SOL    HW250998   0.083   1.644   0.579 -2.4260  1.6421  0.4059
16623SOL     OW50999   1.408   3.251   1.102 -0.4142  0.0712 -0.2870
16623SOL    HW151000   1.409   3.184   1.177  1.6255  0.7836  0.3650
16623SOL    HW251001   1.327   3.237   1.046 -0.6266 -2.2059  0.5232
16624SOL     OW51002   8.499   7.491   4.420  0.1249 -0.0586 -0.0777
16624SOL    HW151003   8.497   7.428   4.497  2.5628 -1.0305 -0.7916
16624SOL    HW251004   8.527   7.582   4.451  1.7487 -0.6069  0.1047
16625SOL     OW51005   3.291   5.010   1.592 -0.2796 -0.3035  0.5487
16625SOL    HW151006   3.271   4.920   1.554 -2.1127  0.0288  0.7196
16625SOL    HW251007   3.313   5.074   1.518 -0.6420 -0.4604  0.3084
16626SOL     OW51008   2.734   2.203   2.397  0.2106 -0.0742 -0.0955
16626SOL    HW151009   2.804   2.132   2.395 -0.5222 -0.7812 -1.0653
16626SOL    HW251010   2.748   2.266   2.320 -0.4972 -0.4920 -0.5686
16627SOL     OW51011   4.487   2.122   3.673  0.1552 -0.0799 -0.4737
16627SOL    HW151012   4.395   2.095   3.644  0.0251  1.0665 -1.1707
16627SOL    HW251013   4.518   2.199   3.616  1.5196 -0.4271 -0.2045
16628SOL     OW51014   8.589   0.411   0.881  0.3095 -0.2416 -0.1115
16628SOL    HW151015   8.525   0.360   0.939 -1.1813  0.7148 -0.8727
16628SOL    HW251016   8.586   0.508   0.906  1.6835 -0.2231  0.0190
16629SOL     OW51017   1.318   9.921   3.884  0.3672 -0.0146  0.1414
16629SOL    HW151018   1.327   9.829   3.844 -0.1313 -0.1118  0.2431
16629SOL    HW251019   1.316   9.989   3.811  2.7362  0.0983  0.1365
16630SOL     OW51020   4.273   2.564   2.306 -0.1398  0.5210  0.1076
16630SOL    HW151021   4.211   2.488   2.289  1.2593 -0.3608 -1.1745
16630SOL    HW251022   4.248   2.642   2.248  2.0396 -1.0303 -3.0381
16631SOL     OW51023   8.747   6.257   3.137 -0.0591  0.0819  0.2273
16631SOL    HW151024   8.709   6.177   3.090  0.2707 -0.5922  1.0910
16631SOL    HW251025   8.846   6.244   3.150  0.0056  0.6531  0.3392
16632SOL     OW51026   1.474   0.613   0.175  0.0484 -0.0417 -0.2944
16632SOL    HW151027   1.528   0.694   0.153 -0.6172  0.5537  0.2482
16632SOL    HW251028   1.482   0.547   0.101  0.8946  0.3640 -0.5711
16633SOL     OW51029   9.386   3.887   4.733  0.4890  0.3656 -0.7295
16633SOL    HW151030   9.287   3.898   4.719  0.3656 -1.0537 -1.0797
16633SOL    HW251031   9.402   3.815   4.800  1.2956  0.4473 -0.8287
16634SOL     OW51032   7.844   1.554   3.853 -0.1686 -0.7264 -0.2153
16634SOL    HW151033   7.924   1.547   3.912  0.1986 -0.8507 -0.7223
16634SOL    HW251034   7.845   1.480   3.786 -1.0808 -1.1453  0.2237
16636SOL     OW51035   3.003   6.118   3.778 -0.1269 -0.1854  0.4570
16636SOL    HW151036   3.082   6.144   3.834 -0.6231 -1.1716  1.6452
16636SOL    HW251037   3.021   6.030   3.735 -0.3977 -0.1978  0.3710
16638SOL     OW51038   4.508   2.934   3.027 -0.2851 -0.2456  0.0112
16638SOL    HW151039   4.420   2.973   3.002  0.0892  0.3036 -0.4689
16638SOL    HW251040   4.575   3.008   3.040 -0.3379 -0.5468  2.1393
16639SOL     OW51041   1.504   6.168   2.686 -0.0671 -0.3265 -0.0795
16639SOL    HW151042   1.431   6.221   2.730  0.7980  0.6178  0.2630
16639SOL    HW251043   1.466   6.086   2.644 -1.1283 -0.5293  1.2381
16641SOL     OW51044   9.703   7.539   3.882 -0.4159 -0.0422 -0.1712
16641SOL    HW151045   9.687   7.594   3.964 -0.7381 -1.7438  0.9195
16641SOL    HW251046   9.666   7.447   3.895  2.6832 -1.4425 -0.8495
16644SOL     OW51047   4.409   5.556   0.594 -0.0338 -0.0589  0.3110
16644SOL    HW151048   4.435   5.562   0.497  2.3330 -0.6574  0.8947
16644SOL    HW251049   4.394   5.648   0.630  1.9423  0.3647  0.1150
16645SOL     OW51050   1.078   4.338   4.331 -0.6098 -0.0023 -0.2079
16645SOL    HW151051   1.055   4.393   4.411 -3.4793 -0.4025 -0.7076
16645SOL    HW251052   1.140   4.389   4.272 -1.7743  1.9605  0.2314
16647SOL     OW51053   8.713   8.547   2.502 -0.0913  0.0670  0.6884
16647SOL    HW151054   8.749   8.508   2.587  1.3772  0.4922  0.2804
16647SOL    HW251055   8.677   8.473   2.445  2.8113 -0.8070 -0.1393
16648SOL     OW51056   8.452   5.782   1.959  0.2625  0.3577 -0.3498
16648SOL    HW151057   8.506   5.852   2.007  0.4317 -0.3452  0.5120
16648SOL    HW251058   8.356   5.792   1.983  0.6074 -1.3748  1.9549
16649SOL     OW51059   2.073   4.591   4.017 -0.3787  0.3521  0.2147
16649SOL    HW151060   2.053   4.562   4.111  1.2141 -1.7439 -0.0394
16649SOL    HW251061   2.129   4.520   3.972  1.7775  2.8662 -1.2040
16650SOL     OW51062   7.268   1.343   4.224 -0.4393 -0.0984  0.1460
16650SOL    HW151063   7.222   1.256   4.203  0.6514 -0.4265 -0.9004
16650SOL    HW251064   7.217   1.418   4.183  0.3841 -0.5306 -1.7134
16651SOL     OW51065   4.621   3.387   1.923  0.7677  0.1060  0.0060
16651SOL    HW151066   4.720   3.384   1.910  0.7931 -0.9839  0.4297
16651SOL    HW251067   4.595   3.326   1.998 -0.3205 -0.2426 -0.6451
16652SOL     OW51068   8.112   4.150   0.088 -0.0197 -0.0906 -0.2169
16652SOL    HW151069   8.058   4.076   0.127  2.2158 -1.9966 -0.6287
16652SOL    HW251070   8.125   4.134  -0.010  1.1611  0.3995 -0.1576
16653SOL     OW51071   7.154   0.791   2.344 -0.4896 -0.0473 -0.0601
16653SOL    HW151072   7.197   0.723   2.403 -0.4875 -0.7380 -0.8558
16653SOL    HW251073   7.143   0.877   2.395  0.9300 -0.1568  0.4588
16654SOL     OW51074   1.197   5.639   5.192  1.0720  0.4683  0.0186
16654SOL    HW151075   1.287   5.680   5.207  0.7616  1.2886 -0.3264
16654SOL    HW251076   1.152   5.684   5.114  1.5444 -1.8823 -1.6886
16657SOL     OW51077   4.493   0.236   3.189  0.0181  1.0568 -0.1533
16657SOL    HW151078   4.396   0.221   3.166  0.0376 -0.3950  0.6123
16657SOL    HW251079   4.502   0.241   3.288  0.6606  1.6988 -0.2490
16659SOL     OW51080   7.314   9.868   3.127 -0.8525 -0.1243 -0.9684
16659SOL    HW151081   7.383   9.938   3.149 -0.1193 -0.9455 -0.6114
16659SOL    HW251082   7.240   9.910   3.075  0.1518  0.6772 -1.7892
16660SOL     OW51083   9.830   7.663   1.197  0.2590 -0.1327  0.3387
16660SOL    HW151084   9.794   7.680   1.289 -1.0178  1.1327 -0.3546
16660SOL    HW251085   9.753   7.649   1.134  0.9925  1.7386 -1.0203
16662SOL     OW51086   8.209   5.915   0.524 -0.0568 -0.3102  0.1097
16662SOL    HW151087   8.305   5.892   0.541 -0.3038 -0.9667  0.5967
16662SOL    HW251088   8.202   5.963   0.436  0.6766 -0.5481 -0.0801
16663SOL     OW51089   9.701   7.398   4.301 -0.5067 -0.4556 -0.6438
16663SOL    HW151090   9.632   7.471   4.304 -0.3784 -0.2886 -1.4259
16663SOL    HW251091   9.663   7.314   4.337 -1.2949 -0.4932 -1.5434
16664SOL     OW51092   7.167   1.637   1.167  0.0025 -0.1611 -0.2133
16664SOL    HW151093   7.090   1.681   1.120  0.4691  1.4461  0.5004
16664SOL    HW251094   7.141   1.545   1.194 -0.0965 -1.3995 -4.1553
16665SOL     OW51095   0.128   0.141   3.925 -0.6483 -0.3582  0.0172
16665SOL    HW151096   0.140   0.239   3.939 -2.5903  0.2122 -2.0240
16665SOL    HW251097   0.064   0.106   3.993 -2.8988  0.5744 -1.5673
16666SOL     OW51098   8.421   6.026   5.085  1.0041 -0.0774  0.1672
16666SOL    HW151099   8.338   5.984   5.122  0.7603  0.6081  0.4107
16666SOL    HW251100   8.502   5.977   5.119  0.7455 -0.0432  0.8360
16667SOL     OW51101   1.248   3.103   2.102 -0.1905 -0.0985  0.5050
16667SOL    HW151102   1.188   3.164   2.051 -0.7632 -0.6081  0.5690
16667SOL    HW251103   1.335   3.150   2.121 -0.2811  0.3732 -0.2301
16668SOL     OW51104   9.184   4.196   2.243  0.5937 -0.1744  0.4056
16668SOL    HW151105   9.208   4.121   2.305  1.0280 -2.0989 -1.9768
16668SOL    HW251106   9.174   4.160   2.150 -0.3833  2.5547 -0.6075
16669SOL     OW51107   1.900   5.287   4.180 -0.1337 -0.5929  0.5489
16669SOL    HW151108   1.813   5.239   4.179 -0.3655 -0.1652 -0.0889
16669SOL    HW251109   1.975   5.221   4.190 -0.4819 -1.0293  0.2736
16670SOL     OW51110   7.498   3.985   2.282 -0.3031 -0.5691  0.4194
16670SOL    HW151111   7.458   3.901   2.245 -0.5950 -0.6396  0.8939
16670SOL    HW251112   7.574   3.962   2.343 -0.4817 -0.4922  0.6686
16671SOL     OW51113   2.568   8.104   0.047  0.0444  0.3937 -0.1408
16671SOL    HW151114   2.524   8.190   0.071  1.8595  0.9996  1.1913
16671SOL    HW251115   2.531   8.030   0.103  0.2404  0.7861  0.5198
16673SOL     OW51116   1.542   0.191   1.250 -0.6166  0.1817 -0.6283
16673SOL    HW151117   1.530   0.277   1.298 -0.2714  0.3430 -0.8267
16673SOL    HW251118   1.597   0.206   1.168  2.3025 -0.7725  1.0617
16674SOL     OW51119   8.050   4.281   4.409  0.1877 -0.2401 -0.2135
16674SOL    HW151120   8.001   4.198   4.434 -0.1999 -0.4041 -1.4857
16674SOL    HW251121   7.993   4.361   4.431  0.5524 -0.3031  0.9912
16675SOL     OW51122   8.187   8.183   3.225  0.8401  0.1545  0.3862
16675SOL    HW151123   8.099   8.230   3.221  0.2381 -1.0238 -0.2650
16675SOL    HW251124   8.253   8.231   3.167 -0.8288 -1.9902 -3.4764
16677SOL     OW51125   8.758   9.873   3.376  0.2804 -0.1925 -0.4583
16677SOL    HW151126   8.761   9.800   3.308 -2.2397 -1.0522  0.2899
16677SOL    HW251127   8.669   9.918   3.373  1.2879  1.9156  0.0797
16678SOL     OW51128   0.431   4.373   2.810 -0.0780 -0.1715  0.3171
16678SOL    HW151129   0.340   4.414   2.811 -0.3754 -0.8294  1.5443
16678SOL    HW251130   0.471   4.380   2.901  1.9623  1.9748 -0.6874
16680SOL     OW51131   8.368   8.651   4.300  0.1839  0.5544 -0.5239
16680SOL    HW151132   8.324   8.597   4.372 -0.9295  2.9803  0.6789
16680SOL    HW251133   8.467   8.640   4.306  0.0841  0.4411  1.1775
16681SOL     OW51134   1.723   1.174   3.880 -0.2715 -0.4140  0.4177
16681SOL    HW151135   1.814   1.139   3.860 -0.5359  0.3730 -2.3728
16681SOL    HW251136   1.693   1.141   3.970  1.5251 -3.1407  0.0704
16682SOL     OW51137   7.250   7.052   4.693  0.0282  0.0064 -0.1677
16682SOL    HW151138   7.336   7.073   4.647 -0.2592 -0.4426 -0.9104
16682SOL    HW251139   7.261   6.968   4.746  0.2378  0.3056  0.2717
16683SOL     OW51140   2.330   3.682   3.202 -0.6430 -0.0439 -0.0732
16683SOL    HW151141   2.378   3.769   3.207 -0.3409 -0.2046 -0.2092
16683SOL    HW251142   2.316   3.657   3.107  0.6840 -0.9307 -0.0447
16684SOL     OW51143   9.141   8.960   0.324  0.4554 -0.3804 -0.0458
16684SOL    HW151144   9.161   9.016   0.405  0.7881  1.6782 -1.5139
16684SOL    HW251145   9.211   8.890   0.314  1.6107  0.7129  0.2434
16685SOL     OW51146   2.021   3.873   0.021  0.4000 -0.1365  0.5079
16685SOL    HW151147   1.956   3.867   0.096  0.1809  0.8892  0.3986
16685SOL    HW251148   2.067   3.784   0.010 -0.1913 -0.5443  1.2785
16686SOL     OW51149   6.398   0.341   1.534  0.2630  0.4107 -0.4707
16686SOL    HW151150   6.466   0.287   1.584 -0.1530  0.5478  0.2452
16686SOL    HW251151   6.340   0.280   1.480  0.5512  0.2459 -0.6006
16688SOL     OW51152   6.598   7.957   4.590 -0.3673 -0.2293  0.3306
16688SOL    HW151153   6.646   7.874   4.564 -0.2519 -0.8629  2.4728
16688SOL    HW251154   6.511   7.933   4.633 -0.3444  0.7289  0.9372
16689SOL     OW51155   3.650   2.988   3.901 -0.0738 -0.2446 -0.1377
16689SOL    HW151156   3.662   2.892   3.928 -0.8419 -0.1698  0.5056
16689SOL    HW251157   3.573   3.027   3.952 -0.8364  0.2367 -1.6158
16690SOL     OW51158   9.870   3.983   5.051 -0.0500 -0.3640 -0.2867
16690SOL    HW151159   9.822   4.015   4.970 -2.1666 -0.4475  0.9165
16690SOL    HW251160   9.862   3.884   5.058 -3.6377  0.0339  2.3325
16691SOL     OW51161   1.426   2.207   4.891  0.1956  0.3042  0.2689
16691SOL    HW151162   1.480   2.206   4.806  0.6881  2.8686  0.4990
16691SOL    HW251163   1.478   2.254   4.962 -1.0610 -0.0080  1.4017
16692SOL     OW51164   4.877   1.105   2.798  0.5156  0.3911  0.0634
16692SOL    HW151165   4.874   1.160   2.881 -0.4517  0.3300  0.0780
16692SOL    HW251166   4.920   1.017   2.818  2.3353  1.2226 -0.0294
16693SOL     OW51167   7.004   4.382   0.725 -0.7789 -0.3636 -0.2089
16693SOL    HW151168   7.022   4.284   0.713 -0.1139 -0.2154 -0.4349
16693SOL    HW251169   7.091   4.431   0.733 -1.1312  0.0219  1.4420
16696SOL     OW51170   4.947   7.232   2.942  0.0870  0.2666  0.5431
16696SOL    HW151171   5.026   7.186   2.983  1.8459  0.4405 -2.4924
16696SOL    HW251172   4.873   7.166   2.929  1.0496 -0.7473  0.1395
16697SOL     OW51173   1.122   0.522   2.964 -0.0456  0.6988  0.2419
16697SOL    HW151174   1.211   0.501   3.005  0.0327  1.2671  0.3679
16697SOL    HW251175   1.053   0.463   3.004  0.5428 -0.9125 -1.0610
16698SOL     OW51176   3.044   7.479   5.211 -0.6404  0.0060 -0.2289
16698SOL    HW151177   3.141   7.503   5.202 -0.9389  1.4717  0.3309
16698SOL    HW251178   3.015   7.428   5.130  0.2718  0.6678 -0.9833
16699SOL     OW51179   1.072   0.005   0.772  0.3659 -0.2066 -0.3649
16699SOL    HW151180   1.082  -0.086   0.813 -0.0100 -0.9171 -1.7931
16699SOL    HW251181   0.975   0.025   0.760  0.4532  0.3365 -0.1666
16700SOL     OW51182   9.529   8.604   4.494  0.3069 -1.0074  0.0993
16700SOL    HW151183   9.520   8.543   4.572 -0.1126  1.2260  1.8710
16700SOL    HW251184   9.624   8.634   4.485  0.0012  0.3581  1.0959
16704SOL     OW51185   9.159   3.367   2.640  1.0341  0.4892  1.1385
16704SOL    HW151186   9.112   3.359   2.728 -0.0651 -1.3623  0.4348
16704SOL    HW251187   9.237   3.304   2.638  0.6347  0.0123  0.5343
16706SOL     OW51188   0.498   6.029   1.897  0.1921  0.2003  0.3453
16706SOL    HW151189   0.408   6.027   1.855  0.2310 -0.3009  0.2910
16706SOL    HW251190   0.566   5.996   1.831  1.0077  4.4187 -1.1181
16707SOL     OW51191   4.791   4.182   1.475  0.2331  0.7970 -0.3613
16707SOL    HW151192   4.749   4.232   1.551  0.4517  0.9959 -0.3673
16707SOL    HW251193   4.859   4.241   1.431 -0.3958  0.9327 -1.1587
16708SOL     OW51194   7.320   9.353   4.348 -0.0721 -0.2035  0.0639
16708SOL    HW151195   7.363   9.394   4.428  0.0760  1.7744 -0.9901
16708SOL    HW251196   7.220   9.353   4.361 -0.0941  0.7892 -0.0431
16709SOL     OW51197   0.818   3.519   1.685 -0.4024 -0.3862  0.3375
16709SOL    HW151198   0.786   3.557   1.772 -0.3844 -0.4525  0.3727
16709SOL    HW251199   0.879   3.442   1.703  0.9120  0.6220  0.3120
16712SOL     OW51200   1.737   0.205   1.029 -0.5597  0.0634 -0.1379
16712SOL    HW151201   1.661   0.218   0.965  1.6033  1.8421 -2.4375
16712SOL    HW251202   1.760   0.292   1.072  2.7977  0.4624 -2.5702
16713SOL     OW51203   5.867   9.600   2.213  0.3776 -0.2337  0.4793
16713SOL    HW151204   5.855   9.505   2.183  0.3273 -0.5991  1.6292
16713SOL    HW251205   5.838   9.662   2.140 -0.0882 -1.1029 -0.0822
16714SOL     OW51206   4.596   3.980   1.837 -0.2116 -0.5268  0.0734
16714SOL    HW151207   4.528   3.925   1.789 -0.6322  0.8300 -0.9097
16714SOL    HW251208   4.688   3.950   1.812 -0.4278 -2.1337  1.1381
16715SOL     OW51209   0.114   3.451   1.475  0.4364  0.3343 -0.0241
16715SOL    HW151210   0.101   3.513   1.552 -0.1598  0.8324 -0.5157
16715SOL    HW251211   0.025   3.421   1.442  0.7146 -0.4755 -0.0348
16716SOL     OW51212   6.444   1.515   1.525 -0.0202 -0.2820  0.4623
16716SOL    HW151213   6.452   1.514   1.625 -2.6516 -0.6958  0.7217
16716SOL    HW251214   6.424   1.422   1.493 -1.9323  0.2987 -0.1322
16717SOL     OW51215   4.255   0.364   3.497  0.2088 -0.5744 -0.1243
16717SOL    HW151216   4.189   0.343   3.425 -0.9838 -0.9569  1.0624
16717SOL    HW251217   4.347   0.334   3.468 -0.1275 -0.0772 -1.7599
16719SOL     OW51218   8.683   4.180   0.656 -0.5042  0.1050  0.0124
16719SOL    HW151219   8.627   4.250   0.611  0.5707  1.1561  0.2603
16719SOL    HW251220   8.750   4.225   0.715  0.0064 -1.1601  0.4062
16720SOL     OW51221   2.494   4.538   2.557 -0.5232  0.0521  0.3582
16720SOL    HW151222   2.412   4.513   2.507  1.0438 -1.4251 -1.5506
16720SOL    HW251223   2.469   4.593   2.637 -3.3892 -0.9398  0.1940
16721SOL     OW51224   7.108   1.525   4.096  0.1551 -0.3815  0.1196
16721SOL    HW151225   7.126   1.481   4.008  1.6642  0.8097 -0.2028
16721SOL    HW251226   7.111   1.624   4.085 -1.7319 -0.1923  1.1160
16722SOL     OW51227   9.791   6.301   4.489 -0.4805 -0.3539 -0.1657
16722SOL    HW151228   9.855   6.289   4.413 -1.8490  1.5907 -1.6834
16722SOL    HW251229   9.832   6.264   4.573  2.0276 -0.4286 -1.3586
16723SOL     OW51230   5.207   4.030   0.739  0.6499  0.3225  0.6275
16723SOL    HW151231   5.206   3.985   0.828 -1.6825  1.6815  1.3247
16723SOL    HW251232   5.137   4.102   0.737  2.4842  2.1112 -1.3795
16724SOL     OW51233   3.391   4.467   5.251 -0.1456  0.2063 -0.2825
16724SOL    HW151234   3.483   4.439   5.225 -0.0558  0.4185 -0.1884
16724SOL    HW251235   3.386   4.567   5.253 -0.4786  0.2014 -0.6655
16725SOL     OW51236   0.815   9.348   4.306  0.5778 -0.3811 -0.4270
16725SOL    HW151237   0.838   9.281   4.235 -1.9895 -0.9279 -0.7746
16725SOL    HW251238   0.843   9.439   4.276  1.7523 -0.9347 -1.0602
16726SOL     OW51239   3.511   2.161   2.169  0.3854 -0.0472  0.5569
16726SOL    HW151240   3.574   2.149   2.246  0.6841  0.8772  0.4608
16726SOL    HW251241   3.417   2.150   2.202  0.5146  0.2769  1.0345
16727SOL     OW51242   7.215   7.163   4.951  0.4308 -0.1875  0.2186
16727SOL    HW151243   7.210   7.152   4.852 -0.7801 -0.4598  0.2978
16727SOL    HW251244   7.192   7.076   4.996  2.8048 -0.5767  0.7290
16728SOL     OW51245   1.337   0.296   5.137  0.0281  0.0253  0.0686
16728SOL    HW151246   1.297   0.209   5.164  0.1619 -0.3321 -0.8419
16728SOL    HW251247   1.345   0.299   5.037  1.2847  0.5241  0.1728
16730SOL     OW51248   8.433   0.925   4.839  0.3112  0.4761 -0.5491
16730SOL    HW151249   8.357   0.866   4.813  0.0703  0.1202  0.9544
16730SOL    HW251250   8.516   0.870   4.849  0.2647  0.5136  0.0534
16731SOL     OW51251   1.937   5.478   3.337  0.3678 -0.4098  0.3494
16731SOL    HW151252   1.918   5.576   3.326  0.0312 -0.4340  0.7045
16731SOL    HW251253   2.002   5.466   3.413 -0.4259 -0.5408  1.0110
16732SOL     OW51254   7.587   2.338   4.059  0.3978  0.3583  0.3717
16732SOL    HW151255   7.676   2.312   4.097 -0.4079 -1.9064  0.7860
16732SOL    HW251256   7.585   2.318   3.961  0.5788  1.0425  0.2290
16733SOL     OW51257   2.250   2.010   0.871  0.9560  0.2512 -0.6347
16733SOL    HW151258   2.183   1.984   0.941  3.4665  0.3519  1.9136
16733SOL    HW251259   2.227   2.100   0.834 -0.4197  0.1810  0.0016
16734SOL     OW51260   0.957   4.134   2.934  0.6551  0.2869  0.2644
16734SOL    HW151261   1.015   4.162   3.010  0.5878  0.8926  0.0970
16734SOL    HW251262   1.003   4.063   2.881  1.6274  1.3886 -0.3883
16736SOL     OW51263   0.470   0.802   5.010  0.3637  0.4290  0.4973
16736SOL    HW151264   0.465   0.856   4.926 -0.3129 -0.7693 -0.2602
16736SOL    HW251265   0.377   0.781   5.040  0.6197 -0.9049  0.3772
16737SOL     OW51266   6.004   1.082   4.625  0.0530  0.2449 -0.2738
16737SOL    HW151267   5.911   1.119   4.619 -0.4744 -0.8958  0.7493
16737SOL    HW251268   6.066   1.153   4.661 -0.5747  0.7389 -0.1589
16738SOL     OW51269   7.839   5.780   0.909 -0.1730 -0.1751 -0.0263
16738SOL    HW151270   7.842   5.863   0.854 -0.7023 -1.0371 -1.3785
16738SOL    HW251271   7.917   5.779   0.972  0.1217  1.0947 -0.3586
16739SOL     OW51272   6.762   1.442   5.288  0.3324 -0.0987  0.3025
16739SOL    HW151273   6.708   1.488   5.218  0.5949 -1.8914 -1.1312
16739SOL    HW251274   6.704   1.419   5.366 -0.8043 -1.1722 -0.8221
16740SOL     OW51275   8.885   0.350   4.689  0.7977 -0.3590  0.6234
16740SOL    HW151276   8.927   0.382   4.774  1.2351 -0.7574  0.5596
16740SOL    HW251277   8.800   0.399   4.674  1.5941  0.9576  0.3898
16742SOL     OW51278   8.660   7.669   2.046  0.5580 -0.4415 -0.1798
16742SOL    HW151279   8.712   7.692   2.128 -0.7315  0.2388  0.4684
16742SOL    HW251280   8.570   7.633   2.073 -0.3269  0.8992 -1.3026
16743SOL     OW51281   4.331   0.015   0.717 -0.4463 -0.0102 -0.0220
16743SOL    HW151282   4.263  -0.033   0.662  0.4945  1.3040 -2.4568
16743SOL    HW251283   4.319   0.114   0.707  0.3160  0.2507  1.4403
16744SOL     OW51284   8.444   3.335   0.392 -0.2228 -0.2880  0.2215
16744SOL    HW151285   8.396   3.404   0.446 -1.4487 -0.3238 -0.8094
16744SOL    HW251286   8.442   3.248   0.441  0.5085  0.1673  1.0857
16745SOL     OW51287   5.102   9.939   0.801  0.2910  0.2943  0.6105
16745SOL    HW151288   5.164   9.942   0.880  1.6323 -0.2425 -0.4055
16745SOL    HW251289   5.152   9.965   0.719 -1.2102  1.2679 -0.0142
16746SOL     OW51290   5.556   8.609   5.129 -0.0709  0.3051  0.0426
16746SOL    HW151291   5.655   8.597   5.133 -0.1690 -0.0344  2.1720
16746SOL    HW251292   5.523   8.585   5.038  1.7542  0.0736 -0.5790
16748SOL     OW51293   9.252   0.524   3.557  0.2672 -0.9591  0.1708
16748SOL    HW151294   9.167   0.496   3.511 -0.7129 -1.6270  2.3204
16748SOL    HW251295   9.296   0.444   3.596  1.4530 -0.4823 -0.1859
16749SOL     OW51296   8.705   1.582   5.287  0.9118 -0.1271 -0.3774
16749SOL    HW151297   8.658   1.501   5.253  0.2644  0.3595 -0.6392
16749SOL    HW251298   8.667   1.664   5.245 -0.9356  0.6120  2.5655
16750SOL     OW51299   3.971   9.720   3.302  0.2351 -0.1679 -0.4297
16750SOL    HW151300   4.017   9.725   3.213  0.3847  0.5117 -0.3133
16750SOL    HW251301   4.027   9.764   3.371 -0.2745  0.0458 -0.1508
16751SOL     OW51302   1.555   4.325   2.190  0.7859 -0.3807 -0.1414
16751SOL    HW151303   1.594   4.402   2.140 -1.2642 -0.6724 -2.2741
16751SOL    HW251304   1.597   4.320   2.281  3.4767  1.0890 -1.2335
16752SOL     OW51305   7.194   8.619   4.766 -0.1728  0.3159 -0.3048
16752SOL    HW151306   7.139   8.642   4.687  0.5330 -0.2126 -0.9610
16752SOL    HW251307   7.225   8.703   4.811 -0.1183  0.6293 -0.9173
16753SOL     OW51308   1.271   1.277   0.193  0.1258 -0.1388 -0.2367
16753SOL    HW151309   1.219   1.339   0.251  0.7321 -0.2320  0.4191
16753SOL    HW251310   1.248   1.293   0.097 -1.4489 -0.4965  0.0747
16754SOL     OW51311   8.358   3.043   1.361 -0.2670 -0.0533  0.1403
16754SOL    HW151312   8.429   2.992   1.408 -0.4401  0.8989  1.4767
16754SOL    HW251313   8.273   2.991   1.362  0.1031 -0.6845 -0.4461
16756SOL     OW51314   2.777   7.062   0.186 -0.0788 -0.4089  0.0747
16756SOL    HW151315   2.833   7.035   0.264 -1.4364  0.3681  1.3408
16756SOL    HW251316   2.690   7.012   0.188 -1.3324  1.6996  0.7307
16757SOL     OW51317   5.429   9.498   5.297  0.0058 -0.0563  0.7168
16757SOL    HW151318   5.437   9.517   5.199  1.6293  0.4779  0.9428
16757SOL    HW251319   5.339   9.528   5.329 -1.0194 -1.3836 -0.8608
16758SOL     OW51320   5.677   9.459   3.416 -1.1584 -0.0872 -0.5259
16758SOL    HW151321   5.758   9.411   3.448 -1.7018 -0.4427  0.3466
16758SOL    HW251322   5.690   9.489   3.321 -0.6021 -1.4840 -0.8969
16759SOL     OW51323   2.930   1.282   2.352 -0.1848 -0.0024  0.7034
16759SOL    HW151324   2.867   1.358   2.336  0.7624  0.6841  0.2010
16759SOL    HW251325   2.985   1.301   2.433 -0.6714 -0.6427  1.1917
16760SOL     OW51326   1.604   4.550   2.726 -0.0146  0.2575  0.0691
16760SOL    HW151327   1.580   4.603   2.807  0.4019  2.3664 -1.1620
16760SOL    HW251328   1.681   4.592   2.679  0.7306 -1.7887 -0.6128
16761SOL     OW51329   1.187   4.547   0.421  0.0410  0.0144  0.1761
16761SOL    HW151330   1.124   4.480   0.382 -0.5340 -0.4348  1.8521
16761SOL    HW251331   1.149   4.639   0.409 -1.3508 -0.3135  1.8937
16762SOL     OW51332   8.885   2.508   4.062  0.4546  0.1026 -0.0063
16762SOL    HW151333   8.954   2.574   4.032  0.3485 -0.4991 -1.6639
16762SOL    HW251334   8.841   2.541   4.145 -0.3283  2.6514 -1.3762
16763SOL     OW51335   8.091   8.060   2.650 -0.1408  0.5826 -0.4456
16763SOL    HW151336   8.157   8.080   2.723  0.6464 -0.3640 -0.9072
16763SOL    HW251337   8.041   8.144   2.628  1.4000  1.4783 -0.5992
16764SOL     OW51338   7.143   2.908   3.871  0.1551  0.1924 -0.4497
16764SOL    HW151339   7.075   2.863   3.929  1.6779 -0.5539  0.8048
16764SOL    HW251340   7.212   2.841   3.843  1.6209  1.3972  0.1855
16765SOL     OW51341   7.593   5.713   5.309  0.1825  0.0652 -0.0131
16765SOL    HW151342   7.631   5.635   5.260  2.6575  1.2116 -0.0086
16765SOL    HW251343   7.631   5.716   5.402 -1.4632  0.1267  0.6752
16766SOL     OW51344   8.945   5.007   3.344  0.2662  0.1239 -0.6711
16766SOL    HW151345   8.914   4.956   3.264  1.6848  1.6064 -2.2023
16766SOL    HW251346   9.040   4.983   3.365  0.9510  2.0398 -1.4013
16767SOL     OW51347   1.620   7.137   1.470  0.4103  0.5110 -0.0876
16767SOL    HW151348   1.640   7.231   1.441  2.1019 -0.1024 -0.9348
16767SOL    HW251349   1.687   7.075   1.431 -0.8336 -1.1026  0.2909
16768SOL     OW51350   7.603   3.384   3.794 -0.4541  0.3599  0.4770
16768SOL    HW151351   7.532   3.331   3.747 -0.1839 -0.1771  0.6613
16768SOL    HW251352   7.571   3.408   3.886  0.6187 -2.2500  1.6056
16769SOL     OW51353   7.725   2.066   1.215  0.8080 -0.2524  0.4185
16769SOL    HW151354   7.677   2.154   1.211 -2.4832 -2.0055 -1.0611
16769SOL    HW251355   7.725   2.024   1.124  1.4371 -2.2331  1.2999
16770SOL     OW51356   8.791   8.408   2.733  0.5041  0.1942 -0.0956
16770SOL    HW151357   8.869   8.349   2.717  0.2057 -1.1920  3.1213
16770SOL    HW251358   8.706   8.357   2.719  0.2406 -0.0866  2.3070
16771SOL     OW51359   8.870   3.177   3.526  0.1655 -0.1281  0.3413
16771SOL    HW151360   8.866   3.087   3.568 -0.0374 -0.6925 -0.8670
16771SOL    HW251361   8.942   3.231   3.569  0.4812 -0.9686  0.8727
16772SOL     OW51362   6.362   1.475   0.388  0.1169 -0.4053  0.2487
16772SOL    HW151363   6.335   1.543   0.456  2.0589 -1.3109  1.9966
16772SOL    HW251364   6.462   1.470   0.384  0.0048 -2.4649 -0.5737
16773SOL     OW51365   5.718   1.521   1.645 -0.0097 -0.2644  0.4751
16773SOL    HW151366   5.682   1.478   1.727  0.5934  1.0702  1.4573
16773SOL    HW251367   5.803   1.569   1.667  1.4864 -1.9383 -1.4391
16774SOL     OW51368   9.347   9.329   0.380 -0.2545 -0.5998  0.2071
16774SOL    HW151369   9.265   9.279   0.408  1.6007 -2.4749  2.5205
16774SOL    HW251370   9.401   9.272   0.318 -0.3057  0.3485 -0.7303
16775SOL     OW51371   5.948   7.616   4.006 -0.2519 -0.7667  0.0376
16775SOL    HW151372   6.047   7.613   4.015 -0.0654  2.7873 -0.2388
16775SOL    HW251373   5.922   7.616   3.910 -0.3384  1.3984  0.0386
16777SOL     OW51374   1.648   3.690   4.339 -0.5109 -0.1742  0.4823
16777SOL    HW151375   1.656   3.606   4.391  0.3235 -0.2358  0.2531
16777SOL    HW251376   1.723   3.752   4.363 -0.0564 -0.2501 -0.7125
16778SOL     OW51377   2.024   9.270   0.203  0.1235  0.4995  0.5170
16778SOL    HW151378   2.019   9.170   0.208 -1.1310  0.4509 -1.3618
16778SOL    HW251379   2.033   9.306   0.296 -0.2100 -1.3173  1.2959
16779SOL     OW51380   9.431   3.598   4.522 -0.1835 -0.0758  0.0218
16779SOL    HW151381   9.524   3.588   4.557 -0.6110  0.2034  1.2905
16779SOL    HW251382   9.416   3.532   4.449  1.5751  1.0999 -1.4478
16780SOL     OW51383   5.371   8.959   3.407 -0.3657  0.3601 -0.1305
16780SOL    HW151384   5.381   8.898   3.485 -0.7673 -1.2076 -1.2707
16780SOL    HW251385   5.457   9.005   3.389  0.8341 -2.1300 -1.0576
16781SOL     OW51386   0.968   0.973   1.655 -0.6528  0.6025 -0.5219
16781SOL    HW151387   1.021   0.893   1.683 -0.5914  0.6823 -0.4153
16781SOL    HW251388   0.872   0.946   1.646 -0.9988  1.0299  1.6437
16782SOL     OW51389   9.547   9.215   2.653 -0.3179 -0.2598 -0.5474
16782SOL    HW151390   9.630   9.263   2.623  0.5631 -1.8602 -0.7509
16782SOL    HW251391   9.524   9.243   2.746  0.2036  0.5055 -0.6419
16783SOL     OW51392   2.659   6.740   4.754  0.1360  0.0797  0.1666
16783SOL    HW151393   2.620   6.665   4.807 -0.1953 -1.2122 -1.8693
16783SOL    HW251394   2.759   6.731   4.751 -0.0092 -1.2495 -1.4517
16785SOL     OW51395   4.044   2.652   1.121  0.2498  0.0716 -0.4986
16785SOL    HW151396   3.994   2.651   1.034  1.4051  0.3317 -1.1890
16785SOL    HW251397   3.983   2.681   1.195 -0.3294  1.4825 -1.5059
16786SOL     OW51398   9.683   1.799   1.430 -0.0190 -0.0794  0.2631
16786SOL    HW151399   9.704   1.702   1.415  3.8662  0.6951  0.0856
16786SOL    HW251400   9.694   1.849   1.345 -0.2477  0.7846  0.7366
16788SOL     OW51401   6.824   2.101   2.021 -0.3556  0.0315  0.3842
16788SOL    HW151402   6.819   2.009   1.983  2.1979  0.2764 -0.7022
16788SOL    HW251403   6.866   2.163   1.954  0.1611  1.4575  1.9733
16789SOL     OW51404   4.547   0.753   4.218  0.3478 -0.4534 -0.5358
16789SOL    HW151405   4.507   0.765   4.127  0.7647 -1.4888 -0.8654
16789SOL    HW251406   4.627   0.693   4.212  1.6089  1.1191  0.2047
16790SOL     OW51407   4.554   4.707   5.178  0.0134  0.6281  0.3023
16790SOL    HW151408   4.620   4.766   5.131 -0.7720  0.3454 -1.1859
16790SOL    HW251409   4.589   4.684   5.269  2.2096  0.0495 -0.6557
16791SOL     OW51410   3.029   8.724   0.822 -0.0038 -0.2976  0.5005
16791SOL    HW151411   3.034   8.822   0.841  0.7393  0.4904 -3.3656
16791SOL    HW251412   3.122   8.689   0.805 -0.4248 -1.3756  0.3893
16792SOL     OW51413   8.292   0.714   4.093 -0.3457 -0.0013  0.3093
16792SOL    HW151414   8.379   0.694   4.136  0.0561  1.8284  0.4140
16792SOL    HW251415   8.264   0.807   4.117 -2.3181 -0.5624  0.2696
16793SOL     OW51416   7.914   6.167   3.146  0.5297 -0.0861 -0.4011
16793SOL    HW151417   7.965   6.185   3.062 -0.2326  0.0469 -0.8436
16793SOL    HW251418   7.817   6.153   3.124  0.3365 -0.1223  0.4466
16794SOL     OW51419   2.261   4.619   3.040  0.2224 -0.1949 -0.1823
16794SOL    HW151420   2.195   4.690   3.066 -0.3436 -1.2943  1.4927
16794SOL    HW251421   2.353   4.659   3.035 -0.0705  0.6392  0.8847
16795SOL     OW51422   3.033   6.384   1.114 -0.4772  0.4617 -0.0697
16795SOL    HW151423   2.960   6.317   1.103 -0.9677  0.6495  1.8832
16795SOL    HW251424   3.087   6.388   1.030 -2.6111  0.2267 -1.4992
16796SOL     OW51425   0.494   9.471   3.084  0.3137 -0.2401  0.2659
16796SOL    HW151426   0.569   9.481   3.150  0.4932 -0.7095  0.1298
16796SOL    HW251427   0.522   9.409   3.011 -0.5576 -1.1955  0.7340
16797SOL     OW51428   8.101   7.885   2.239 -0.2967  0.3012  0.4996
16797SOL    HW151429   8.042   7.966   2.234 -0.3911  0.0603 -3.2615
16797SOL    HW251430   8.048   7.808   2.275 -1.6744  0.6483 -0.7236
16798SOL     OW51431   5.649   4.402   0.254  0.0026 -0.0900 -0.4079
16798SOL    HW151432   5.660   4.303   0.269 -0.1705 -0.0507 -0.0111
16798SOL    HW251433   5.628   4.447   0.342  1.1186  0.4422 -0.4112
16799SOL     OW51434   5.450   9.543   5.024 -0.4038  0.4978 -0.1889
16799SOL    HW151435   5.434   9.619   4.961  0.1701  0.3209 -0.5507
16799SOL    HW251436   5.421   9.458   4.980  0.8720  0.2600 -0.5833
16800SOL     OW51437   1.581   6.411   2.542  0.1201 -0.2397 -0.2310
16800SOL    HW151438   1.680   6.423   2.532  0.3388 -0.0900  1.9848
16800SOL    HW251439   1.563   6.318   2.574 -0.6092 -0.9132 -2.4783
16801SOL     OW51440   4.642   7.941   5.283  0.1269 -0.0832  0.0070
16801SOL    HW151441   4.556   7.900   5.315  0.6505 -0.2593  1.2136
16801SOL    HW251442   4.714   7.872   5.287  1.3140  1.2764  3.3205
16802SOL     OW51443   2.418   6.212   3.945 -0.0847  0.5954  0.3262
16802SOL    HW151444   2.399   6.117   3.969  0.0250  0.4704 -0.0666
16802SOL    HW251445   2.497   6.245   3.997 -0.7893  0.8219  1.2699
16803SOL     OW51446   9.198   6.171   5.071 -0.2259  0.0721  0.2659
16803SOL    HW151447   9.276   6.231   5.056 -0.9032  1.0162  0.4871
16803SOL    HW251448   9.120   6.203   5.018 -1.1261  0.4547  1.8007
16804SOL     OW51449   9.258   7.078   4.510  0.5476  0.3494  0.2026
16804SOL    HW151450   9.283   7.157   4.566 -1.2994 -0.9395  2.9540
16804SOL    HW251451   9.318   7.001   4.533  1.3522  0.4703 -1.3855
16805SOL     OW51452   7.414   9.690   1.827 -0.5319 -0.4083 -0.5022
16805SOL    HW151453   7.411   9.621   1.754  0.5213 -1.3220  0.2975
16805SOL    HW251454   7.330   9.744   1.825 -0.5661 -0.5007 -2.3052
16806SOL     OW51455   0.500   2.159   2.270  0.5643 -0.1116 -0.0283
16806SOL    HW151456   0.486   2.256   2.249 -0.0334 -0.2565 -0.2897
16806SOL    HW251457   0.431   2.129   2.336  0.7082 -0.3769  0.0006
16807SOL     OW51458   7.386   8.154   4.338 -1.0081  0.1818  0.0541
16807SOL    HW151459   7.314   8.090   4.311 -1.3013  0.1849  0.8174
16807SOL    HW251460   7.344   8.239   4.372 -0.6271  0.8566 -1.1198
16810SOL     OW51461   4.624   5.595   2.549 -0.3196 -0.4033  0.1224
16810SOL    HW151462   4.547   5.581   2.487 -0.4493  0.4696  0.0912
16810SOL    HW251463   4.668   5.507   2.566 -2.1346 -1.1338  1.2167
16811SOL     OW51464   3.901   8.021   3.171  0.1825  0.3004 -0.6609
16811SOL    HW151465   3.804   8.037   3.187  0.4036  1.4014 -0.4049
16811SOL    HW251466   3.945   7.994   3.257  0.6185  2.4418 -0.1892
16812SOL     OW51467   3.575   1.916   1.727  0.2397 -0.4194 -0.1395
16812SOL    HW151468   3.640   1.840   1.726 -1.1463 -1.6266 -0.9009
16812SOL    HW251469   3.552   1.938   1.821  0.1546 -1.3817  0.0754
16813SOL     OW51470   7.087   1.786   1.413 -0.4639 -0.0557  0.6570
16813SOL    HW151471   7.027   1.723   1.364 -1.5641 -0.2154  2.1478
16813SOL    HW251472   7.085   1.763   1.511 -0.8951  2.2725  1.2171
16816SOL     OW51473   3.580   9.932   3.568  0.1055 -0.0871 -0.2831
16816SOL    HW151474   3.607  10.017   3.522 -1.1876  1.2726  1.3823
16816SOL    HW251475   3.662   9.878   3.590  0.9010  0.4584 -1.8273
16817SOL     OW51476   1.391   6.415   0.149  0.5166 -0.4339 -0.3366
16817SOL    HW151477   1.315   6.423   0.085 -0.2259 -0.0795  0.5861
16817SOL    HW251478   1.357   6.388   0.239  1.2657  1.4996  0.5584
16818SOL     OW51479   8.018   6.898   5.290 -0.6274  0.0850  0.0692
16818SOL    HW151480   7.989   6.896   5.195 -0.7930  1.3085  0.0820
16818SOL    HW251481   8.055   6.989   5.311  0.6826 -0.6019  0.7920
16819SOL     OW51482   2.892   5.331   3.385  0.0909  0.0728  0.0861
16819SOL    HW151483   2.914   5.421   3.422  1.9163 -0.0224 -0.7336
16819SOL    HW251484   2.850   5.341   3.295  1.9604  0.0626 -0.8090
16820SOL     OW51485   8.536   6.836   3.545 -0.2999 -0.4899 -0.2831
16820SOL    HW151486   8.598   6.822   3.622 -0.0596 -0.5017 -0.4786
16820SOL    HW251487   8.511   6.748   3.506 -0.4405 -0.4847 -0.2070
16821SOL     OW51488   0.646   3.377   0.476  0.4522 -0.1905 -0.6529
16821SOL    HW151489   0.623   3.302   0.414 -0.1312  0.6191 -1.4174
16821SOL    HW251490   0.741   3.366   0.507  0.1473 -1.6561 -0.1610
16822SOL     OW51491   5.224   7.353   2.831  0.1357 -0.3424  0.6186
16822SOL    HW151492   5.231   7.441   2.783  0.5396  0.0333  1.3578
16822SOL    HW251493   5.130   7.318   2.823  0.0144  0.0737  0.1828
16823SOL     OW51494   0.460   8.068   5.036 -0.6153 -0.3952 -0.3783
16823SOL    HW151495   0.478   8.024   5.124  1.6389  0.0716 -0.5799
16823SOL    HW251496   0.394   8.013   4.984 -1.2900 -1.1297  1.2315
16825SOL     OW51497   8.693   4.510   4.569  0.3109  0.3213  0.5473
16825SOL    HW151498   8.632   4.584   4.597 -1.1937 -0.4934 -0.5103
16825SOL    HW251499   8.714   4.452   4.647  0.2250  0.9590  1.0426
16826SOL     OW51500   9.511   2.505   4.014  0.6020 -0.6336  0.3806
16826SOL    HW151501   9.428   2.548   4.049 -0.5780 -1.5177 -1.2637
16826SOL    HW251502   9.566   2.471   4.091 -0.1797  0.6246  1.5106
16827SOL     OW51503   7.861   6.000   4.275 -0.2282  0.3555 -0.2793
16827SOL    HW151504   7.849   5.998   4.175  0.8309  1.2963 -0.4378
16827SOL    HW251505   7.844   6.093   4.308 -0.2759  0.1119  0.3812
16828SOL     OW51506   5.162   2.308   4.650 -0.0632  0.0805  0.9199
16828SOL    HW151507   5.192   2.313   4.554  0.4070 -3.3352  0.8314
16828SOL    HW251508   5.227   2.356   4.708  1.4870 -0.7041 -0.1281
16829SOL     OW51509   3.467   4.931   0.138  0.7695  0.5213 -0.6430
16829SOL    HW151510   3.487   5.000   0.207 -1.0611  1.4068 -0.9625
16829SOL    HW251511   3.546   4.919   0.079  1.9720  0.5352  0.9315
16830SOL     OW51512   8.461   6.447   2.090  0.0038  0.5638 -0.4133
16830SOL    HW151513   8.460   6.396   2.004 -1.2975 -0.3770  0.1544
16830SOL    HW251514   8.470   6.384   2.167 -3.1255  1.0029  0.3906
16832SOL     OW51515   0.606   4.465   0.696  0.7287  0.2294 -0.1152
16832SOL    HW151516   0.609   4.383   0.639 -2.2899 -0.2030  0.2435
16832SOL    HW251517   0.558   4.538   0.647  1.6784  1.1648  0.3216
16833SOL     OW51518   6.075   8.560   3.688 -0.4059  0.0514  0.2225
16833SOL    HW151519   6.155   8.532   3.740 -0.6057 -2.2679 -0.6612
16833SOL    HW251520   6.061   8.658   3.698  1.5247  0.1843  1.7814
16834SOL     OW51521   0.800   2.717   0.410 -0.2447 -0.2832  0.3046
16834SOL    HW151522   0.867   2.789   0.429 -0.2537 -0.1239 -0.2639
16834SOL    HW251523   0.801   2.696   0.312  0.1434 -1.4316  0.5483
16836SOL     OW51524   0.414   6.684   1.064  0.4263 -0.9660 -0.3923
16836SOL    HW151525   0.321   6.660   1.036 -0.0701  1.1683 -0.6110
16836SOL    HW251526   0.419   6.688   1.164 -0.0547  0.2289 -0.4140
16837SOL     OW51527   4.563   8.055   4.815  0.3902 -0.0048  0.0323
16837SOL    HW151528   4.517   7.966   4.818  0.5752 -0.1128 -0.3292
16837SOL    HW251529   4.584   8.085   4.908  1.8080 -1.0939  0.0714
16838SOL     OW51530   2.803   4.885   2.520  0.6189 -0.3334 -0.3315
16838SOL    HW151531   2.900   4.888   2.547  0.3215 -1.0426  0.8726
16838SOL    HW251532   2.774   4.976   2.489  1.8514 -0.2834 -1.3715
16839SOL     OW51533   2.943   6.524   2.876 -0.4367 -0.0735 -0.1646
16839SOL    HW151534   2.972   6.478   2.792  2.6249  1.9550 -0.3266
16839SOL    HW251535   2.951   6.461   2.953  0.9427 -0.6809 -0.7930
16840SOL     OW51536   5.346   2.013   1.274 -0.6065 -0.4452 -0.3308
16840SOL    HW151537   5.359   2.099   1.323 -0.2613 -0.2590 -0.7454
16840SOL    HW251538   5.284   2.027   1.197 -3.0104 -1.2507  1.4177
16841SOL     OW51539   3.210   7.011   1.735 -0.4488  0.1334 -0.0416
16841SOL    HW151540   3.145   7.066   1.683 -0.8565 -0.7388 -0.4625
16841SOL    HW251541   3.276   7.072   1.779 -0.8209  0.9566 -0.5880
16842SOL     OW51542   9.927   6.929   3.409  0.5811 -0.0356  0.9165
16842SOL    HW151543   9.879   6.848   3.443  2.5539 -3.1048 -3.2235
16842SOL    HW251544   9.868   6.979   3.346  1.5451 -2.0278 -1.6676
16844SOL     OW51545   9.800   3.862   3.247 -0.0133  0.5655  0.0648
16844SOL    HW151546   9.733   3.795   3.279  1.0712 -0.7943 -0.4497
16844SOL    HW251547   9.816   3.931   3.317 -0.7949  0.0102  0.7862
16845SOL     OW51548   9.262   8.180   4.108 -0.2685  0.2389 -0.1840
16845SOL    HW151549   9.201   8.250   4.145  1.1454  0.0847  2.6339
16845SOL    HW251550   9.239   8.091   4.149 -0.3528 -0.4781 -1.7291
16846SOL     OW51551   2.538   5.566   2.383 -0.9223  0.3441  0.2736
16846SOL    HW151552   2.556   5.524   2.472  2.5470 -0.9692 -0.9807
16846SOL    HW251553   2.544   5.665   2.392  1.0403  0.1752  1.2061
16848SOL     OW51554   4.652   2.579   1.971 -0.2898  0.2392  0.3122
16848SOL    HW151555   4.602   2.617   1.893 -0.1774  1.2430  0.7174
16848SOL    HW251556   4.713   2.506   1.940  2.4806  3.0453 -1.1370
16852SOL     OW51557   4.871   2.378   0.775  0.0305 -0.0922 -0.0908
16852SOL    HW151558   4.905   2.341   0.688  1.9267  0.4253  0.4030
16852SOL    HW251559   4.784   2.425   0.759  0.4470  0.1636 -1.7470
16853SOL     OW51560   3.625   6.477   3.601 -0.2528  0.0029 -0.2722
16853SOL    HW151561   3.600   6.570   3.628 -3.0694 -0.2026 -1.8501
16853SOL    HW251562   3.559   6.412   3.639  0.8058 -1.1953 -0.4308
16854SOL     OW51563   5.710   2.241   3.839 -0.4217  0.5385  0.0672
16854SOL    HW151564   5.772   2.317   3.857  0.4178  0.1055 -0.9754
16854SOL    HW251565   5.697   2.188   3.923  1.0036  0.3508  0.1879
16855SOL     OW51566   5.096   0.671   3.137 -0.2518  0.4439 -0.1099
16855SOL    HW151567   5.157   0.748   3.154 -0.4200  0.6416 -0.3995
16855SOL    HW251568   5.002   0.704   3.125 -0.3125  0.2063 -0.3113
16858SOL     OW51569   0.325   5.748   0.314  0.0874  0.6210 -0.5663
16858SOL    HW151570   0.344   5.822   0.379  0.2878  0.1635 -0.0936
16858SOL    HW251571   0.405   5.734   0.256  0.7819 -0.5203  0.6447
16859SOL     OW51572   9.211   6.505   3.141  0.8487  0.2457  0.0437
16859SOL    HW151573   9.279   6.462   3.081 -0.2292 -0.5134 -0.6410
16859SOL    HW251574   9.202   6.602   3.117  1.8906  0.4329  0.3399
16860SOL     OW51575   2.077   7.185   1.560 -0.1617 -0.6114 -0.0017
16860SOL    HW151576   2.021   7.196   1.478 -0.3300  1.1360  0.3183
16860SOL    HW251577   2.155   7.126   1.540  0.8640  1.3366 -1.9784
16861SOL     OW51578   7.900   5.098   1.614  0.0995 -0.2028  0.7102
16861SOL    HW151579   7.942   5.184   1.586 -0.1376 -0.4970 -0.5528
16861SOL    HW251580   7.831   5.116   1.684  0.8216  0.5085  1.2460
16862SOL     OW51581   2.361   5.812   4.962  0.0024  0.6160  0.2191
16862SOL    HW151582   2.361   5.738   5.029 -0.0375 -1.8343 -2.3701
16862SOL    HW251583   2.268   5.847   4.950 -0.8056 -2.0363 -1.7439
16864SOL     OW51584   3.907   3.593   1.434  0.7169  0.4077 -0.6580
16864SOL    HW151585   4.001   3.581   1.465 -0.4105 -3.0706  1.6205
16864SOL    HW251586   3.876   3.511   1.387 -2.7305 -0.4750  2.9194
16865SOL     OW51587   2.419   1.048   4.855  0.3379  0.4843 -0.0834
16865SOL    HW151588   2.513   1.030   4.828  0.5233 -1.1081  1.5526
16865SOL    HW251589   2.382   0.969   4.905 -0.9409  2.1687  1.7197
16866SOL     OW51590   3.568   0.451   1.012  0.1050  0.4041 -0.6141
16866SOL    HW151591   3.503   0.429   0.940 -0.8740  0.4424  0.2399
16866SOL    HW251592   3.560   0.384   1.086 -1.4341  2.3645  1.0756
16867SOL     OW51593   3.324   3.232   4.249  0.0119 -0.6744  0.5069
16867SOL    HW151594   3.415   3.231   4.208 -0.1539 -1.7061  0.1508
16867SOL    HW251595   3.256   3.205   4.181 -0.6199  0.5463  0.6429
16868SOL     OW51596   4.536   0.231   1.620  0.4800 -0.3703 -0.8494
16868SOL    HW151597   4.453   0.272   1.658  1.0455  1.9169 -2.0146
16868SOL    HW251598   4.599   0.208   1.694  0.0700  0.7041 -0.1549
16869SOL     OW51599   2.045   1.354   4.264  0.1105  0.2075  0.2609
16869SOL    HW151600   2.041   1.440   4.214  0.3358  0.3884  0.5484
16869SOL    HW251601   2.124   1.356   4.326  1.3002 -0.9843 -1.1771
16870SOL     OW51602   2.974   0.405   3.455 -0.5500  0.4577 -0.1022
16870SOL    HW151603   3.039   0.470   3.416  1.8130 -1.1006  1.1308
16870SOL    HW251604   2.984   0.402   3.554 -1.8468 -0.5266  0.0176
16871SOL     OW51605   8.170   6.404   2.752  0.6206 -0.1793 -0.0368
16871SOL    HW151606   8.205   6.316   2.722  0.5456 -0.5299  0.9046
16871SOL    HW251607   8.238   6.475   2.735  1.0195 -0.5512  0.0197
16872SOL     OW51608   4.913   1.553   2.593  0.2718  0.5310  0.4668
16872SOL    HW151609   4.862   1.503   2.523 -0.2240  0.8880  0.5703
16872SOL    HW251610   4.850   1.612   2.644  0.8840  1.4781  0.1563
16873SOL     OW51611   3.598   4.428   4.363  0.7931 -0.2977  0.0304
16873SOL    HW151612   3.529   4.470   4.422 -1.0877 -1.6740 -1.1429
16873SOL    HW251613   3.679   4.405   4.418 -0.4319 -0.4428  1.8054
16874SOL     OW51614   9.401   6.657   0.377 -0.2634  0.7660  0.2241
16874SOL    HW151615   9.344   6.604   0.440 -0.9287  0.1726 -0.8497
16874SOL    HW251616   9.342   6.703   0.311  0.4652  0.7146 -0.4643
16875SOL     OW51617   8.313   9.228   5.072 -0.4613  0.2229 -0.1240
16875SOL    HW151618   8.337   9.318   5.034 -2.2614  0.5169 -0.6388
16875SOL    HW251619   8.286   9.167   4.997 -1.8042  0.0820  0.4641
16876SOL     OW51620   0.620   8.516   2.073 -0.0747  0.3010 -0.1226
16876SOL    HW151621   0.554   8.492   2.003  0.9022 -0.0741 -0.9196
16876SOL    HW251622   0.672   8.597   2.045  0.6557 -0.1401 -0.0619
16877SOL     OW51623   3.726   7.562   4.050  0.0877  0.1264 -0.2016
16877SOL    HW151624   3.716   7.662   4.045  1.8705  0.5207  2.7966
16877SOL    HW251625   3.636   7.519   4.045 -0.7274  1.8882 -1.2585
16878SOL     OW51626   4.119   6.108   2.698  0.2427 -0.0460  0.4070
16878SOL    HW151627   4.104   6.025   2.645 -0.3114  0.0172  0.4596
16878SOL    HW251628   4.044   6.121   2.763  0.9463 -0.1537  1.2526
16879SOL     OW51629   9.123   9.862   3.979 -0.3976 -0.2378  0.0148
16879SOL    HW151630   9.052   9.932   3.982 -1.6421 -1.3881 -1.4580
16879SOL    HW251631   9.209   9.903   3.950 -0.8773  0.8515  0.1021
16880SOL     OW51632   8.419   5.572   5.045  0.2679  0.4182  0.0884
16880SOL    HW151633   8.358   5.651   5.035  1.6381  1.8608  2.4284
16880SOL    HW251634   8.391   5.518   5.124  1.2012  0.3537  0.3823
16882SOL     OW51635   8.222   0.098   5.082 -0.4075  0.1873 -0.3250
16882SOL    HW151636   8.213   0.036   5.160  0.8398  0.4890  0.0694
16882SOL    HW251637   8.214   0.193   5.114  3.3167  0.4829  0.0057
16883SOL     OW51638   3.687   5.652   4.357 -0.0080 -0.1519 -0.2973
16883SOL    HW151639   3.609   5.603   4.396  0.3345  0.3571  1.0654
16883SOL    HW251640   3.720   5.604   4.276 -1.3233 -0.7272 -0.4979
16885SOL     OW51641   1.084   2.940   0.907 -0.2088 -0.0764 -0.0150
16885SOL    HW151642   1.181   2.953   0.887 -0.2073  0.6073  0.4391
16885SOL    HW251643   1.068   2.843   0.928  0.1021 -0.4730 -1.5353
16886SOL     OW51644   8.017   9.733   1.591 -0.0230  0.0495  0.3522
16886SOL    HW151645   8.020   9.670   1.513  0.9000 -1.8765  1.9116
16886SOL    HW251646   7.923   9.743   1.621 -0.2187 -0.3204 -0.1215
16887SOL     OW51647   2.096   6.926   4.721 -0.2019 -0.0413 -0.1034
16887SOL    HW151648   2.155   6.915   4.800  0.9049 -2.8080 -1.2536
16887SOL    HW251649   2.064   7.021   4.716  1.7192  0.7749  2.2030
16889SOL     OW51650   9.868   5.837   0.082 -0.0126  0.3458 -0.1380
16889SOL    HW151651   9.933   5.777   0.129 -1.6016 -0.8837  0.5440
16889SOL    HW251652   9.911   5.877   0.001  1.7226 -0.0882  0.5535
16890SOL     OW51653   6.686   8.354   3.168  0.2862  0.5949  0.2781
16890SOL    HW151654   6.725   8.268   3.202 -1.5317 -0.3062  0.1770
16890SOL    HW251655   6.642   8.338   3.080  1.3734  2.0154 -0.5416
16891SOL     OW51656   0.984   1.717   1.233 -0.2383  0.2384 -0.2725
16891SOL    HW151657   1.074   1.692   1.270 -0.4483  0.0991  0.1445
16891SOL    HW251658   0.972   1.816   1.241 -0.4422  0.1585  0.3825
16892SOL     OW51659   2.012   2.802   3.701  0.3126  0.0249  0.3709
16892SOL    HW151660   1.917   2.820   3.726 -0.0269  0.6763 -1.2831
16892SOL    HW251661   2.046   2.723   3.752 -0.9517  0.0894  1.3421
16893SOL     OW51662   9.212   7.274   0.021  0.7094 -0.0455 -0.2916
16893SOL    HW151663   9.309   7.273  -0.003  0.7035 -1.0067 -0.3051
16893SOL    HW251664   9.190   7.359   0.067  1.5733  0.1555 -0.2350
16894SOL     OW51665   0.076   1.657   0.040  0.0141 -0.1361 -0.1571
16894SOL    HW151666   0.024   1.577   0.009 -0.3728 -0.3467  0.9939
16894SOL    HW251667   0.171   1.631   0.057 -0.4166 -0.6887  1.5136
16895SOL     OW51668   8.727   0.831   2.089 -0.2179 -0.0038 -0.1923
16895SOL    HW151669   8.763   0.747   2.049 -1.2741 -0.9928  0.9032
16895SOL    HW251670   8.641   0.855   2.044 -0.2008  0.1845 -0.1240
16897SOL     OW51671   2.293   6.613   4.498  0.0627  0.2065 -0.1015
16897SOL    HW151672   2.234   6.533   4.496  0.1220  0.1703 -0.3966
16897SOL    HW251673   2.269   6.675   4.423 -0.5551  0.8734  0.6457
16898SOL     OW51674   1.942   1.312   4.571 -0.1764 -0.4044  0.0404
16898SOL    HW151675   2.006   1.334   4.497 -0.1965  0.4337  0.2646
16898SOL    HW251676   1.963   1.221   4.607  1.3714  0.1505  0.5917
16899SOL     OW51677   5.023   9.265   2.934  0.0230  0.0582  0.3131
16899SOL    HW151678   5.054   9.177   2.898 -1.2780  0.0531 -0.8267
16899SOL    HW251679   5.086   9.295   3.006  2.2094 -0.3501 -1.3520
16902SOL     OW51680   7.895   3.106   4.594 -0.0215  0.4235  0.2229
16902SOL    HW151681   7.888   3.010   4.566  0.6376 -0.0782  1.7621
16902SOL    HW251682   7.839   3.121   4.675 -1.1843  1.6685 -0.7882
16903SOL     OW51683   2.793   3.951   4.074 -0.4677 -0.7294 -0.2221
16903SOL    HW151684   2.710   4.006   4.077  0.9146  1.5244 -1.4764
16903SOL    HW251685   2.845   3.965   4.159 -0.9808 -1.5111  0.2220
16904SOL     OW51686   3.506   6.869   1.630 -0.4851  0.4097 -0.4950
16904SOL    HW151687   3.430   6.805   1.637  1.6079 -2.1710 -0.5926
16904SOL    HW251688   3.533   6.899   1.721 -0.6029  0.0716 -0.3468
16906SOL     OW51689   1.770   0.146   3.091  0.7140  0.2643  0.7535
16906SOL    HW151690   1.792   0.122   2.996 -0.6779  0.8051  0.2716
16906SOL    HW251691   1.814   0.233   3.114  0.7900  0.2978  0.4881
16907SOL     OW51692   0.865   2.974   5.216  0.5585  0.1287 -0.0249
16907SOL    HW151693   0.933   3.010   5.152 -0.0877 -0.4237 -1.0382
16907SOL    HW251694   0.911   2.943   5.299  1.7006 -1.3094 -1.1605
16908SOL     OW51695   0.175   7.298   2.613  0.1868 -0.5236 -0.3409
16908SOL    HW151696   0.183   7.372   2.679 -1.4647 -1.9421  1.5310
16908SOL    HW251697   0.261   7.246   2.611 -0.3673 -1.6210  2.1779
16909SOL     OW51698   3.116   1.792   4.767  0.1131 -0.1570 -0.6931
16909SOL    HW151699   3.041   1.727   4.769  0.0887 -0.0951  1.9029
16909SOL    HW251700   3.082   1.883   4.793  0.6841  0.3198 -1.5844
16910SOL     OW51701   8.840   8.211   4.561  0.4877  0.0216 -0.4176
16910SOL    HW151702   8.751   8.245   4.590  0.9589 -0.5960  1.8706
16910SOL    HW251703   8.910   8.242   4.625  1.4348 -2.2170 -0.3060
16911SOL     OW51704   5.463   8.876   5.055 -0.2430  0.5318  0.3993
16911SOL    HW151705   5.467   8.962   5.106 -1.8359  1.4596 -0.9792
16911SOL    HW251706   5.490   8.800   5.114 -0.1700  1.8216  2.0409
16912SOL     OW51707   9.919   3.523   3.449  0.1120  0.1387 -0.3508
16912SOL    HW151708   9.878   3.551   3.362 -0.3278 -0.7865 -0.4563
16912SOL    HW251709   9.945   3.427   3.444  1.9941  0.6283 -0.1515
16913SOL     OW51710   1.657   5.356   2.699  0.5207 -0.4179 -0.7580
16913SOL    HW151711   1.611   5.303   2.628 -2.1821  0.2089  0.4742
16913SOL    HW251712   1.638   5.453   2.688  0.3810 -0.2727  0.5746
16915SOL     OW51713   8.126   3.069   3.771  1.1403  0.1396  0.6609
16915SOL    HW151714   8.073   3.106   3.695  0.9656 -1.1308  0.1697
16915SOL    HW251715   8.222   3.062   3.745  1.0834 -0.2793  0.5741
16916SOL     OW51716   2.880   5.335   0.104  0.4140  0.1640 -0.1083
16916SOL    HW151717   2.848   5.322   0.010  0.6721  1.6780 -0.4243
16916SOL    HW251718   2.804   5.325   0.168 -0.1457  1.0744 -0.6362
16917SOL     OW51719   6.907   1.460   0.481  0.2421  0.1268  0.0305
16917SOL    HW151720   6.880   1.437   0.575 -1.5766 -0.9732 -0.7331
16917SOL    HW251721   6.996   1.507   0.483  0.7036 -0.7356  2.2185
16918SOL     OW51722   9.368   9.429   5.009  0.5175  0.1297 -0.1320
16918SOL    HW151723   9.354   9.439   5.107 -0.0910  2.1087 -0.4080
16918SOL    HW251724   9.365   9.332   4.985  0.3191 -0.3446  1.7406
16919SOL     OW51725   0.081   5.716   0.767 -0.1282 -0.6741 -0.2878
16919SOL    HW151726  -0.003   5.664   0.752 -0.4450  0.0284 -1.0194
16919SOL    HW251727   0.061   5.814   0.761  0.7054 -0.4968 -0.2822
16920SOL     OW51728   5.948   9.176   5.202 -0.1911 -0.3241  0.5067
16920SOL    HW151729   5.957   9.085   5.243 -0.9659  0.1005  1.6416
16920SOL    HW251730   5.937   9.244   5.274 -1.0377  0.5043 -0.3908
16922SOL     OW51731   9.601   6.615   1.564  0.3880 -0.1804 -0.4453
16922SOL    HW151732   9.695   6.644   1.582  1.0002 -1.4595 -1.5456
16922SOL    HW251733   9.590   6.519   1.587 -0.2602 -0.4174 -1.6992
16923SOL     OW51734   1.534   9.359   4.915  0.2105  0.1510  0.1146
16923SOL    HW151735   1.607   9.306   4.873 -0.9364 -0.6392 -0.9285
16923SOL    HW251736   1.534   9.343   5.014 -0.8070 -2.7351 -0.2853
16927SOL     OW51737   5.592   1.073   5.297  0.1077 -0.3462 -0.1317
16927SOL    HW151738   5.581   1.154   5.355 -0.9854 -0.1438 -0.6123
16927SOL    HW251739   5.506   1.021   5.295  0.0531 -0.2214 -1.7486
16928SOL     OW51740   5.982   0.616   3.341  0.1564 -0.0262  0.7695
16928SOL    HW151741   5.901   0.617   3.282 -0.0390 -1.3932  1.0108
16928SOL    HW251742   6.058   0.661   3.293 -0.3631  0.0387 -0.0018
16929SOL     OW51743   7.184   9.529   1.598  0.0024  0.6859  0.4474
16929SOL    HW151744   7.110   9.528   1.665  0.5169  0.0930  1.0121
16929SOL    HW251745   7.179   9.614   1.544 -0.6647  0.9659  0.9436
16931SOL     OW51746   4.068   8.299   0.618 -0.3300  0.7607 -0.1239
16931SOL    HW151747   4.016   8.218   0.646  0.9364 -0.3486 -0.9653
16931SOL    HW251748   4.037   8.330   0.528 -0.0584  0.5700 -0.2813
16932SOL     OW51749   9.906   1.246   1.392  0.7984 -0.4732 -0.7005
16932SOL    HW151750   9.816   1.260   1.350 -0.1672  2.2590  2.1150
16932SOL    HW251751   9.977   1.254   1.321 -0.8907  1.9246 -2.2128
16934SOL     OW51752   9.166   4.364   1.923 -0.1595  0.2906 -0.3317
16934SOL    HW151753   9.084   4.354   1.865 -0.1935  0.5006 -0.3215
16934SOL    HW251754   9.183   4.279   1.971 -0.7603  0.4506  0.1741
16936SOL     OW51755   8.060   8.558   3.225 -0.1395 -0.5031  0.4118
16936SOL    HW151756   8.037   8.519   3.315  0.6750 -0.1217  0.7940
16936SOL    HW251757   8.076   8.656   3.236 -1.0515 -0.2634 -0.3420
16937SOL     OW51758   6.018   0.073   1.213  0.8252  0.0526 -0.0995
16937SOL    HW151759   5.973   0.089   1.125  0.2421 -0.8351  0.0308
16937SOL    HW251760   5.949   0.052   1.283  1.4866 -2.6184 -0.1881
16938SOL     OW51761   3.005   1.585   1.093 -0.1634 -0.0599 -0.2836
16938SOL    HW151762   2.962   1.636   1.019 -1.5202 -1.4662 -0.4956
16938SOL    HW251763   3.022   1.491   1.064 -2.6016 -1.2099  1.8526
16939SOL     OW51764   1.667   2.045   0.651  0.3618 -0.3982 -0.2502
16939SOL    HW151765   1.597   1.989   0.696  0.7722 -0.0891  0.7945
16939SOL    HW251766   1.729   1.987   0.599  1.2587 -1.0106  1.4703
16940SOL     OW51767   8.982   7.193   5.017 -0.0874  0.0548 -0.5777
16940SOL    HW151768   9.077   7.169   5.033 -0.5155 -1.8529 -0.8260
16940SOL    HW251769   8.923   7.116   5.040 -1.7526  1.8842  1.5535
16941SOL     OW51770   8.016   0.907   2.499  0.3168 -0.0378  0.0039
16941SOL    HW151771   8.070   0.824   2.490 -1.0801 -0.9072 -0.4731
16941SOL    HW251772   8.058   0.980   2.445 -0.1529 -1.2934 -2.1202
16942SOL     OW51773   3.390   5.844   1.087 -0.6589 -0.5075  0.2744
16942SOL    HW151774   3.400   5.903   1.167 -0.1292  0.3264 -0.4064
16942SOL    HW251775   3.480   5.823   1.049 -0.8434 -1.6665  0.4409
16943SOL     OW51776   9.962   7.563   1.869  0.0006 -0.6874  0.4365
16943SOL    HW151777   9.934   7.472   1.900 -0.9704 -0.0893  1.3790
16943SOL    HW251778  10.055   7.559   1.833  0.5926 -1.7441  2.0108
16944SOL     OW51779   4.719   4.595   1.236  0.1002 -0.2936 -0.3794
16944SOL    HW151780   4.728   4.664   1.164  0.6584 -1.9519 -1.9390
16944SOL    HW251781   4.622   4.573   1.248  0.0435 -0.4631 -1.0909
16945SOL     OW51782   9.916   4.908   0.339 -0.1132  0.5916 -0.1171
16945SOL    HW151783   9.961   4.843   0.400  0.7834 -0.0445 -1.4106
16945SOL    HW251784   9.929   5.001   0.373 -0.2405  0.1865  1.0317
16946SOL     OW51785   9.654   9.016   0.383 -0.0858  0.1622 -0.3216
16946SOL    HW151786   9.573   9.012   0.324 -0.3002 -0.9730  0.0301
16946SOL    HW251787   9.641   8.954   0.461  0.8966  0.3791  0.0178
16947SOL     OW51788   5.792   2.006   3.578  0.5238 -0.6282 -0.5163
16947SOL    HW151789   5.703   2.052   3.575  1.4257  1.2071  0.1287
16947SOL    HW251790   5.811   1.963   3.490  0.1697  1.2465 -1.5333
16948SOL     OW51791   8.292   8.942   2.185  0.0210  0.1524  0.1905
16948SOL    HW151792   8.308   8.847   2.158 -0.5462  0.4286 -1.1978
16948SOL    HW251793   8.332   9.003   2.116  0.1899  0.9106  0.9581
16949SOL     OW51794   2.246   3.517   1.959 -0.3098  0.1253 -0.4876
16949SOL    HW151795   2.262   3.531   1.861  1.8327 -0.2895 -0.2067
16949SOL    HW251796   2.225   3.421   1.976  1.2779 -0.1968 -0.2971
16950SOL     OW51797   1.215   5.064   0.161 -0.2162 -0.7484  0.0834
16950SOL    HW151798   1.162   5.146   0.184  0.8366  0.6460 -2.1900
16950SOL    HW251799   1.204   5.045   0.063  1.6108 -1.8224  0.0761
16951SOL     OW51800   0.862   2.846   4.650  0.3390  0.1002  0.2994
16951SOL    HW151801   0.872   2.931   4.702 -0.1167  0.8074 -0.7739
16951SOL    HW251802   0.778   2.800   4.677  0.3071  0.2624  0.4738
16952SOL     OW51803   0.770   9.507   1.064 -0.3515  0.1333 -0.0172
16952SOL    HW151804   0.755   9.571   1.140 -1.0736  1.2398 -1.0881
16952SOL    HW251805   0.734   9.417   1.090  1.6404 -0.1622  1.9169
16953SOL     OW51806   0.543   7.847   1.439 -0.5754 -0.0401 -0.1265
16953SOL    HW151807   0.600   7.765   1.445 -1.3894 -0.5958  0.2957
16953SOL    HW251808   0.527   7.884   1.531 -1.7123 -0.4847 -0.1323
16954SOL     OW51809   9.395   5.179   4.017 -0.0229 -0.2249  0.1984
16954SOL    HW151810   9.386   5.235   3.934 -0.6629 -0.5589  0.0407
16954SOL    HW251811   9.388   5.082   3.993  0.9393 -0.3733  0.4918
16955SOL     OW51812   8.943   1.197   4.573 -0.1401  0.0790 -0.9112
16955SOL    HW151813   8.946   1.097   4.564 -0.5974  0.0852 -1.1145
16955SOL    HW251814   9.029   1.235   4.540  0.3884 -0.3120 -0.0087
16956SOL     OW51815   2.872   8.141   4.833  0.8054 -0.8252 -0.5487
16956SOL    HW151816   2.941   8.108   4.770  1.9797  2.4472 -1.1050
16956SOL    HW251817   2.806   8.197   4.784  1.3185  1.1612  0.9507
16957SOL     OW51818   1.647   1.369   1.546  0.0931  0.8904  0.0059
16957SOL    HW151819   1.548   1.363   1.560 -0.0283  0.2521 -1.0338
16957SOL    HW251820   1.674   1.464   1.534 -0.5374  0.9832 -0.6670
16958SOL     OW51821   2.332   6.775   2.407  0.2898 -0.3520  0.5754
16958SOL    HW151822   2.341   6.871   2.380 -0.8173  0.5677  3.3587
16958SOL    HW251823   2.236   6.749   2.409  0.5008 -1.1155  1.2521
16959SOL     OW51824   3.353   4.222   0.060 -0.0822 -0.2049  0.3029
16959SOL    HW151825   3.276   4.162   0.043  0.1749 -0.8085  1.2311
16959SOL    HW251826   3.343   4.305   0.005  0.2486 -1.6569 -2.0357
16960SOL     OW51827   2.915   1.248   4.391  0.2604 -0.6406 -0.5511
16960SOL    HW151828   2.864   1.163   4.393  0.1025 -0.5451 -0.5123
16960SOL    HW251829   2.871   1.313   4.330 -0.9383  0.2318  1.2010
16962SOL     OW51830   4.100   7.065   2.277  0.0010  0.1134 -0.8156
16962SOL    HW151831   4.178   7.002   2.273 -0.0251  0.0246 -0.0108
16962SOL    HW251832   4.029   7.034   2.215 -0.2959 -1.0484  0.0857
16963SOL     OW51833   0.656   8.263   1.532  0.0200  0.5537 -0.2990
16963SOL    HW151834   0.592   8.198   1.575  0.6047  1.1324  1.5092
16963SOL    HW251835   0.743   8.217   1.516  0.0735  0.5626 -0.0502
16964SOL     OW51836   9.265   6.635   2.744 -0.7835  0.2888 -0.4533
16964SOL    HW151837   9.358   6.635   2.708 -0.6963  2.5734 -0.2783
16964SOL    HW251838   9.233   6.541   2.755  1.4505 -0.5078 -0.6392
16965SOL     OW51839   3.455   2.640   1.562 -0.3923  0.3004  0.0406
16965SOL    HW151840   3.472   2.592   1.648 -1.4702 -0.6257 -0.2458
16965SOL    HW251841   3.370   2.691   1.568  0.2702  1.4391  0.0119
16966SOL     OW51842   7.944   0.932   2.131 -0.0197 -0.1474 -0.0012
16966SOL    HW151843   7.855   0.975   2.145  0.9447  1.4983  1.2593
16966SOL    HW251844   7.951   0.899   2.037 -2.5090 -1.6332  0.2937
16967SOL     OW51845   2.539   9.727   1.487  0.3575 -0.2598 -0.0459
16967SOL    HW151846   2.567   9.816   1.451 -1.1612 -0.3447 -1.4949
16967SOL    HW251847   2.525   9.735   1.586  0.2736  1.0987 -0.1453
16968SOL     OW51848   0.720   6.744   2.455 -0.1988  0.1195 -0.5603
16968SOL    HW151849   0.696   6.691   2.374 -1.3043  0.1999 -0.2862
16968SOL    HW251850   0.808   6.712   2.490  0.6419  0.5729 -2.2118
16969SOL     OW51851   3.085   0.437   2.843 -0.2313  0.4693  0.1438
16969SOL    HW151852   3.156   0.495   2.802 -0.9529  1.4004  0.2091
16969SOL    HW251853   3.014   0.418   2.775  0.9183 -1.8993 -0.4605
16970SOL     OW51854   0.842   2.171   6.751  0.3086  0.1011 -0.0109
16970SOL    HW151855   0.754   2.193   6.710 -0.2089 -1.2722  0.3034
16970SOL    HW251856   0.884   2.095   6.700  0.5752 -0.2892  0.7795
16971SOL     OW51857   4.399   6.339   2.416  0.1821 -0.2112 -0.8524
16971SOL    HW151858   4.437   6.431   2.427  0.5844 -0.4043 -0.5835
16971SOL    HW251859   4.463   6.283   2.364 -0.1850 -0.2631 -1.2492
16972SOL     OW51860   8.270   6.734   4.532 -0.3577 -0.0053 -0.4180
16972SOL    HW151861   8.179   6.774   4.541 -0.3275 -0.3068  1.5456
16972SOL    HW251862   8.333   6.800   4.492 -0.4089  1.8159  2.3335
16974SOL     OW51863   4.369   2.529   3.388  0.1415 -0.2178  0.0030
16974SOL    HW151864   4.457   2.574   3.409 -0.7130  0.7247  1.7357
16974SOL    HW251865   4.373   2.490   3.297  2.3357 -0.0866 -0.0054
16975SOL     OW51866   2.108   8.230   0.924  0.8264  0.3248  0.0272
16975SOL    HW151867   2.065   8.294   0.860  1.0667 -1.1597 -1.6676
16975SOL    HW251868   2.037   8.177   0.970  0.7425 -0.8409 -1.4082
16976SOL     OW51869   2.058   2.373   1.170  0.1897 -0.0901  0.1795
16976SOL    HW151870   1.989   2.399   1.102  0.3393  1.4666  0.6008
16976SOL    HW251871   2.146   2.360   1.124  0.2757  0.8956  0.0398
16977SOL     OW51872   9.496   9.417   1.207  0.0536  0.4610 -0.3152
16977SOL    HW151873   9.482   9.338   1.148  1.3224  0.5835 -0.8054
16977SOL    HW251874   9.443   9.495   1.174 -2.2798 -0.5420  0.9524
16980SOL     OW51875   9.759   2.464   1.075 -0.1543  0.0124  0.2669
16980SOL    HW151876   9.746   2.530   1.150 -0.5373  1.1050 -0.7464
16980SOL    HW251877   9.716   2.499   0.992  0.1803 -1.2422 -0.4506
16981SOL     OW51878   2.624   2.712   2.353 -0.1312  0.4987 -0.4892
16981SOL    HW151879   2.714   2.693   2.393 -0.3900 -0.3439 -0.3128
16981SOL    HW251880   2.618   2.669   2.263 -0.2965  0.7027 -0.5760
16982SOL     OW51881   4.738   7.606   5.121  0.5992  0.0998 -0.1116
16982SOL    HW151882   4.784   7.668   5.185 -0.8901  0.1564  0.9344
16982SOL    HW251883   4.780   7.615   5.030  1.9079  0.9480  0.5539
16983SOL     OW51884   7.018   7.758   3.079  0.4761 -0.3117 -0.0127
16983SOL    HW151885   6.930   7.735   3.120 -0.8445  1.8236 -1.5450
16983SOL    HW251886   7.024   7.717   2.988 -0.5940  2.6377 -1.4781
16986SOL     OW51887   9.684   8.582   1.461  0.2632 -0.4864 -0.2236
16986SOL    HW151888   9.761   8.530   1.424 -1.2513 -0.5114 -3.4922
16986SOL    HW251889   9.689   8.676   1.427  0.2469  0.2107  1.6527
16987SOL     OW51890   1.554   6.200   2.124  0.0846 -0.5935  0.0768
16987SOL    HW151891   1.631   6.202   2.188 -0.4671  3.2744  0.7194
16987SOL    HW251892   1.581   6.244   2.039 -1.6170  1.4123  0.5582
16988SOL     OW51893   0.835   5.271   3.401  0.3836  0.3988  0.0477
16988SOL    HW151894   0.862   5.265   3.305  1.6338  0.4768  0.3901
16988SOL    HW251895   0.758   5.334   3.410 -0.2457 -0.2032 -1.0028
16989SOL     OW51896   7.468   7.713   3.254  0.3877 -0.3968  0.7262
16989SOL    HW151897   7.499   7.644   3.319  0.8623 -0.1169  0.7989
16989SOL    HW251898   7.541   7.731   3.188  1.4778  2.3670  2.6051
16990SOL     OW51899   2.068   7.059   2.319 -0.0146  0.1765  0.0981
16990SOL    HW151900   2.167   7.053   2.311  0.1037  0.9505  1.0289
16990SOL    HW251901   2.032   6.970   2.346  0.4582  0.0128  0.1962
16991SOL     OW51902   6.216   1.703   4.374  0.3904  0.5012 -0.4482
16991SOL    HW151903   6.139   1.703   4.311 -0.1540  0.9063  0.2188
16991SOL    HW251904   6.210   1.781   4.436 -0.3347 -1.1285  1.6215
16992SOL     OW51905   6.347   7.896   4.687 -0.0381  0.2301 -0.1659
16992SOL    HW151906   6.368   7.913   4.783 -0.2475 -3.3227  0.5700
16992SOL    HW251907   6.256   7.855   4.680  0.9421 -1.7347 -1.6420
16994SOL     OW51908   1.758   4.721   0.242 -0.4025  0.0978  0.2643
16994SOL    HW151909   1.788   4.804   0.196 -0.3441 -0.8923 -1.5203
16994SOL    HW251910   1.717   4.658   0.175 -0.4967 -1.2880  1.5886
16995SOL     OW51911   1.418   7.926   3.453  0.1924 -0.0141  0.0436
16995SOL    HW151912   1.404   7.864   3.530  0.6729  1.3430  1.2423
16995SOL    HW251913   1.505   7.905   3.409  0.5828  0.1203  0.7420
16997SOL     OW51914   0.545   8.908   5.114  0.3450 -0.2551  0.3245
16997SOL    HW151915   0.601   8.928   5.194  0.5651  0.5801 -0.0233
16997SOL    HW251916   0.604   8.900   5.033 -0.0699  1.0817 -0.1216
16998SOL     OW51917   3.271   6.971   3.524  0.0603 -0.0571  0.0176
16998SOL    HW151918   3.209   6.926   3.460  0.3151 -1.5420  0.7850
16998SOL    HW251919   3.286   7.066   3.495  0.7992 -0.9141 -2.5638
16999SOL     OW51920   2.846   6.118   1.413 -0.9088  0.0160  0.4516
16999SOL    HW151921   2.892   6.058   1.347 -2.7566 -0.4809 -0.4102
16999SOL    HW251922   2.759   6.077   1.441 -0.6759  0.7543  2.3624
17000SOL     OW51923   3.584   2.351   5.051  0.0915  0.1895  0.3609
17000SOL    HW151924   3.636   2.293   4.989 -0.4250  1.8735 -1.6820
17000SOL    HW251925   3.487   2.342   5.031 -0.1886 -0.3209  1.8807
17001SOL     OW51926   4.445   4.527   1.222  0.0275 -0.5721  0.1129
17001SOL    HW151927   4.466   4.431   1.205 -0.1443 -0.2306 -2.1298
17001SOL    HW251928   4.346   4.541   1.215 -0.0674 -0.4378  1.5828
17002SOL     OW51929   2.681   3.411   5.315  0.0666 -0.1712  0.0538
17002SOL    HW151930   2.776   3.391   5.288 -0.2877  0.1106 -1.4609
17002SOL    HW251931   2.666   3.510   5.314 -0.2159 -0.2122  0.3501
17003SOL     OW51932   8.342   2.661   1.239  0.0918  0.1493 -0.3848
17003SOL    HW151933   8.278   2.732   1.267  0.6944  0.4638  0.2260
17003SOL    HW251934   8.311   2.619   1.154 -0.3000  1.0962 -0.7153
17004SOL     OW51935   4.822   9.933   0.555  0.4874 -0.2429 -0.1148
17004SOL    HW151936   4.878   9.891   0.626  0.4059  2.3786  1.5842
17004SOL    HW251937   4.734   9.960   0.594 -0.0894 -0.0238 -1.5559
17006SOL     OW51938   2.834   7.267   2.617 -0.1482  0.1289  0.4203
17006SOL    HW151939   2.896   7.189   2.612  0.4819  0.7505 -2.5525
17006SOL    HW251940   2.822   7.295   2.712  4.2817  0.1247  1.0536
17007SOL     OW51941   9.304   8.124   6.752 -0.1871  0.0493  0.3066
17007SOL    HW151942   9.295   8.224   6.750 -3.9584 -0.2543 -0.7429
17007SOL    HW251943   9.343   8.092   6.665  0.0647  0.5282  0.2425
17008SOL     OW51944   2.815   4.686   0.851  0.0399 -0.2473  0.4421
17008SOL    HW151945   2.850   4.779   0.840  0.5182 -0.0831  3.0113
17008SOL    HW251946   2.769   4.657   0.767  1.0708  1.7970 -0.8542
17010SOL     OW51947   9.694   1.739   3.058  0.5608 -0.3764 -0.1224
17010SOL    HW151948   9.786   1.764   3.028  1.2578 -3.2792 -0.5287
17010SOL    HW251949   9.641   1.707   2.980 -0.9345  1.5996  0.0541
17011SOL     OW51950   7.765   2.130   2.470  0.2382  0.0035 -0.1863
17011SOL    HW151951   7.862   2.132   2.496 -0.0356  0.7525  0.8010
17011SOL    HW251952   7.749   2.198   2.399  0.2304  0.6185  0.3993
17013SOL     OW51953   4.670   2.267   1.297 -0.0010  0.5220 -0.1818
17013SOL    HW151954   4.636   2.225   1.381  2.0774  0.1559  0.4968
17013SOL    HW251955   4.614   2.238   1.220  0.6749 -2.5710  0.4373
17014SOL     OW51956   2.350   9.958   1.585  0.0486  0.3260 -0.0266
17014SOL    HW151957   2.366   9.949   1.487 -0.4012  1.3906 -0.2087
17014SOL    HW251958   2.252   9.969   1.603 -0.0050 -1.1193  0.6547
17015SOL     OW51959   7.611   0.052   3.685 -0.3987 -0.0558  0.1352
17015SOL    HW151960   7.684   0.074   3.749  2.0534 -0.6301 -2.3907
17015SOL    HW251961   7.554   0.133   3.670 -0.3481  0.3675  2.1727
17016SOL     OW51962   4.839   9.326   0.458  0.3883  0.4717  0.3106
17016SOL    HW151963   4.844   9.298   0.362  0.2846  0.0655  0.4226
17016SOL    HW251964   4.901   9.270   0.513 -0.2170  0.1005  0.6217
17017SOL     OW51965   9.728   7.954   1.351  0.4652  0.0955 -0.0077
17017SOL    HW151966   9.799   7.955   1.281  1.9524  0.0041  1.4647
17017SOL    HW251967   9.746   7.880   1.416 -0.3812  0.7486  0.9821
17018SOL     OW51968   8.237   1.024   0.011 -0.6261  0.1799  0.0281
17018SOL    HW151969   8.335   1.039   0.024 -0.6861 -0.3897  1.1930
17018SOL    HW251970   8.193   1.110  -0.011  0.3448  0.2159 -1.8737
17019SOL     OW51971   8.582   7.109   0.280  0.1519 -0.0587  0.3475
17019SOL    HW151972   8.571   7.176   0.206  2.0309 -0.7106 -0.5572
17019SOL    HW251973   8.521   7.032   0.265  1.5571 -0.8687 -1.3432
17021SOL     OW51974   9.567   0.676   3.426 -0.5790  0.0499 -0.5023
17021SOL    HW151975   9.538   0.705   3.517  0.1726 -0.7653  0.0034
17021SOL    HW251976   9.502   0.710   3.358 -0.0708  2.3730  0.1175
17022SOL     OW51977   5.619   1.256   2.548  0.0767 -0.1079 -0.3220
17022SOL    HW151978   5.592   1.182   2.611  0.4124  0.4228  0.4555
17022SOL    HW251979   5.714   1.243   2.520  0.7903  1.1536  1.4503
17023SOL     OW51980   4.365   5.048   3.201 -0.2991  0.0182  0.2904
17023SOL    HW151981   4.391   5.144   3.186 -1.3132  0.4642  1.3105
17023SOL    HW251982   4.330   5.010   3.115  1.5254  0.0922 -0.5063
17024SOL     OW51983   4.139   6.028   0.664 -0.2099  0.0344 -0.4530
17024SOL    HW151984   4.070   6.030   0.592  0.3666 -0.1837 -1.0171
17024SOL    HW251985   4.121   5.950   0.725 -0.3861 -0.1036 -0.6787
17025SOL     OW51986   4.040   9.508   3.773  0.0484 -0.6087  0.1941
17025SOL    HW151987   4.008   9.505   3.679  1.3590 -0.6747 -0.2556
17025SOL    HW251988   4.129   9.552   3.777 -0.1515 -0.2931  1.4498
17026SOL     OW51989   3.701   9.463   1.936  0.2080  0.2380  0.5615
17026SOL    HW151990   3.718   9.483   1.839 -0.4140  0.2752  0.4609
17026SOL    HW251991   3.779   9.411   1.973  0.9248  1.1217  0.3191
17028SOL     OW51992   8.688   6.909   0.983  0.5510 -0.1637  0.1848
17028SOL    HW151993   8.686   7.008   0.980  0.3164 -0.1633  0.3456
17028SOL    HW251994   8.719   6.879   1.074  0.3883 -0.2389  0.2160
17030SOL     OW51995   0.679   1.662   4.611  0.1104  0.0782 -0.1616
17030SOL    HW151996   0.771   1.677   4.574  0.7683  0.8841  1.7489
17030SOL    HW251997   0.632   1.750   4.618  0.5104  0.1397  2.1827
17031SOL     OW51998   3.196   7.674   3.069  0.2165 -0.0843 -0.3922
17031SOL    HW151999   3.245   7.590   3.044  0.1807 -1.1147  2.8087
17031SOL    HW252000   3.114   7.682   3.013  0.4429 -1.9574 -1.0268
17032SOL     OW52001   9.441   1.054   4.050  0.5262  1.0436 -0.2071
17032SOL    HW152002   9.475   0.969   4.089 -2.1340  0.4821  0.9799
17032SOL    HW252003   9.498   1.130   4.081  0.7432  0.1343  1.6734
17033SOL     OW52004   1.627   5.481   4.212  0.1144 -0.5139 -0.6118
17033SOL    HW152005   1.723   5.506   4.219  0.5152 -1.6238 -1.8285
17033SOL    HW252006   1.612   5.432   4.126 -1.5327 -0.3770 -0.4177
17035SOL     OW52007   4.612   1.497   1.506 -0.3156  0.3248 -0.7192
17035SOL    HW152008   4.635   1.470   1.599 -2.5550 -0.4311 -0.3690
17035SOL    HW252009   4.629   1.595   1.495  0.2368  0.3649  0.3829
17036SOL     OW52010   2.221   3.775   1.577 -0.2240 -0.3085 -0.3569
17036SOL    HW152011   2.281   3.843   1.619  1.1451 -0.1479 -2.4718
17036SOL    HW252012   2.126   3.803   1.588  0.3048  1.9170 -1.0815
17037SOL     OW52013   3.225   5.924   1.785  0.2746 -0.1291 -0.0956
17037SOL    HW152014   3.168   5.922   1.703 -0.9426 -1.5518  0.7411
17037SOL    HW252015   3.187   5.990   1.850  0.1892 -0.3069  0.0360
17038SOL     OW52016   7.903   7.545   5.190  0.3157 -0.5712  0.2487
17038SOL    HW152017   7.940   7.452   5.193  2.2912  0.2367  1.6663
17038SOL    HW252018   7.856   7.565   5.276  0.7884  0.1063  0.3510
17039SOL     OW52019   0.916   2.705   1.626 -0.2728  0.3419 -0.1869
17039SOL    HW152020   0.865   2.671   1.547 -0.5877 -0.4063  0.3233
17039SOL    HW252021   0.865   2.778   1.670 -0.6139  0.0160 -0.0412
17040SOL     OW52022   1.484   2.255   0.595  0.1810  0.1916  0.3831
17040SOL    HW152023   1.545   2.204   0.656  0.1210  1.0161  1.1521
17040SOL    HW252024   1.492   2.220   0.502  0.3286 -1.0383  0.8595
17041SOL     OW52025   8.737   6.097   1.803  0.2628 -0.3627  0.3212
17041SOL    HW152026   8.822   6.129   1.763  1.0896 -1.9760  0.7470
17041SOL    HW252027   8.671   6.078   1.730  0.8592 -0.7468 -0.1225
17042SOL     OW52028   4.817   9.967   3.601 -0.4533  0.5711 -0.5094
17042SOL    HW152029   4.776   9.878   3.579 -0.5586  0.0644  1.5661
17042SOL    HW252030   4.778  10.001   3.686  3.2447  0.1293  1.4958
17043SOL     OW52031   2.534   3.954   5.297  0.0973 -0.0167 -0.5600
17043SOL    HW152032   2.495   4.027   5.240 -1.3287 -1.5773 -1.6071
17043SOL    HW252033   2.628   3.937   5.268  0.5253  1.5639 -0.1516
17044SOL     OW52034   0.073   9.124   0.206 -0.5609 -0.4953 -0.0402
17044SOL    HW152035   0.023   9.203   0.243  0.0958  0.0389 -0.2938
17044SOL    HW252036   0.008   9.061   0.164 -0.9936  0.3816 -0.7029
17045SOL     OW52037   0.290   5.071   0.397  0.3838 -0.1560 -0.0276
17045SOL    HW152038   0.269   5.031   0.307  0.1928  1.1493 -0.5783
17045SOL    HW252039   0.384   5.103   0.398  0.2736  0.1715  0.0965
17046SOL     OW52040   7.069   1.763   3.256 -0.0371 -0.3232  0.1146
17046SOL    HW152041   6.997   1.775   3.325 -0.5222 -0.3265 -0.3934
17046SOL    HW252042   7.035   1.705   3.182  0.2756  0.2273 -0.4576
17047SOL     OW52043   9.665   9.097   2.000 -0.2401 -0.3686 -0.0337
17047SOL    HW152044   9.744   9.062   2.050 -0.3664  0.9751  1.1512
17047SOL    HW252045   9.681   9.088   1.902  0.8234 -1.2996  0.2084
17048SOL     OW52046   7.790   3.147   5.144 -0.3146  0.5742 -0.2580
17048SOL    HW152047   7.861   3.077   5.136 -0.5154  0.4784 -1.3047
17048SOL    HW252048   7.829   3.237   5.122  0.0119  0.8383  1.3673
17049SOL     OW52049   8.688   5.126   4.777 -0.1940 -0.2199 -0.4978
17049SOL    HW152050   8.663   5.051   4.715 -0.4140  0.6174 -1.4427
17049SOL    HW252051   8.646   5.210   4.745 -1.2838  0.0065  1.4859
17052SOL     OW52052   4.516   0.493   0.812 -0.4806  0.0466  0.0835
17052SOL    HW152053   4.549   0.464   0.723 -1.0506 -0.2543 -0.0340
17052SOL    HW252054   4.462   0.576   0.803 -0.5820 -0.0123  0.1397
17053SOL     OW52055   4.030   4.639   1.479  0.1472  0.4358 -0.4163
17053SOL    HW152056   4.012   4.719   1.422  1.0518  0.5284 -0.5803
17053SOL    HW252057   3.949   4.581   1.481 -0.1297  0.7826 -1.2243
17055SOL     OW52058   9.073   5.788   3.194  0.2800 -0.1866 -0.5018
17055SOL    HW152059   9.139   5.804   3.120 -2.9436 -0.5014 -3.5731
17055SOL    HW252060   9.037   5.876   3.226 -0.7154 -0.1746 -1.6153
17056SOL     OW52061   1.472   3.987   5.003  0.5492  0.1941 -0.2956
17056SOL    HW152062   1.403   3.933   4.955  0.7460 -0.2991 -0.0283
17056SOL    HW252063   1.465   4.083   4.975  2.1310 -0.4253 -3.0076
17057SOL     OW52064   8.686   5.798   0.072 -0.1416 -0.4665 -0.2474
17057SOL    HW152065   8.594   5.760   0.074 -0.9165  1.3602  1.5243
17057SOL    HW252066   8.734   5.773   0.156  0.0501  0.7241  0.0098
17058SOL     OW52067   9.451   3.205   1.150  0.4054 -1.0070  0.2547
17058SOL    HW152068   9.480   3.300   1.137 -0.1907 -0.9327 -0.6102
17058SOL    HW252069   9.430   3.190   1.247 -0.3027 -0.0111  0.2751
17059SOL     OW52070   2.847   2.012   4.504 -0.2348  0.1027  0.5184
17059SOL    HW152071   2.764   1.997   4.450 -0.2291 -0.7792  0.7554
17059SOL    HW252072   2.834   1.979   4.597  0.1862  0.4825  0.7180
17061SOL     OW52073   0.617   1.677   3.877  0.4671 -0.0064  0.0213
17061SOL    HW152074   0.664   1.710   3.795 -0.6468  1.1032 -0.2001
17061SOL    HW252075   0.525   1.718   3.881  0.0731 -0.9765  1.2028
17062SOL     OW52076   9.832   5.463   3.306 -0.7262 -0.2274 -0.4254
17062SOL    HW152077   9.799   5.457   3.400 -0.0395  0.1559 -0.1569
17062SOL    HW252078   9.775   5.405   3.247 -1.4416 -0.1110  0.1437
17063SOL     OW52079   1.773   6.550   0.058  0.1843 -0.4954  0.3110
17063SOL    HW152080   1.697   6.602   0.019 -0.8138 -1.3889  1.0354
17063SOL    HW252081   1.739   6.463   0.094  1.6512 -1.1784  0.1019
17065SOL     OW52082   3.718   8.379   1.363 -0.2394  0.0696  0.4483
17065SOL    HW152083   3.743   8.328   1.281  3.9328  1.1894  0.9282
17065SOL    HW252084   3.695   8.473   1.339  0.0209  0.1315  0.4424
17066SOL     OW52085   2.661   4.566   3.245  0.4157 -0.3796 -0.3927
17066SOL    HW152086   2.610   4.493   3.290 -0.3359  0.5437  0.2877
17066SOL    HW252087   2.759   4.553   3.260  0.1551  0.1757  1.9627
17067SOL     OW52088   2.481   2.206   1.989  0.3684 -0.3044 -0.3482
17067SOL    HW152089   2.488   2.190   1.890  0.1740 -2.6887 -0.0081
17067SOL    HW252090   2.385   2.198   2.017  0.6160 -1.2073  0.2652
17068SOL     OW52091   8.902   3.201   3.237 -0.2112  0.2393 -0.8130
17068SOL    HW152092   8.958   3.271   3.191  0.4197 -0.3497 -0.9505
17068SOL    HW252093   8.907   3.214   3.336  0.7170 -0.2155 -0.7923
17069SOL     OW52094   1.309   3.480   5.215  0.1382 -0.7543  0.4175
17069SOL    HW152095   1.324   3.559   5.275  0.0513 -0.1460 -0.3508
17069SOL    HW252096   1.342   3.397   5.260 -1.3395 -0.5448  1.9651
17070SOL     OW52097   1.969   8.531   3.304  0.0004 -0.6120 -0.5038
17070SOL    HW152098   1.892   8.577   3.349  1.3950  0.7408  0.5535
17070SOL    HW252099   1.990   8.577   3.218  1.0265  0.4170  0.2776
17071SOL     OW52100   2.130   3.121   2.840  0.3912 -0.8555  0.3095
17071SOL    HW152101   2.207   3.186   2.835  0.8675 -1.3410  1.1478
17071SOL    HW252102   2.117   3.093   2.935 -1.0930 -0.4693  0.2344
17072SOL     OW52103   2.125   3.772   3.449 -0.3184  0.1961  0.1415
17072SOL    HW152104   2.050   3.710   3.424 -1.1986  1.7493 -1.1467
17072SOL    HW252105   2.211   3.736   3.413 -0.5607 -1.0903  0.7863
17073SOL     OW52106   2.582   6.041   2.207  0.1366  0.4664 -0.2716
17073SOL    HW152107   2.640   6.056   2.287  0.5507 -0.1026 -0.4701
17073SOL    HW252108   2.638   6.038   2.125  0.1128 -2.5030 -0.2164
17074SOL     OW52109   5.184   0.775   4.207  0.2431  0.4186  0.5965
17074SOL    HW152110   5.161   0.776   4.304  1.6995  1.6897  0.9650
17074SOL    HW252111   5.271   0.727   4.194 -0.3600 -0.4638 -0.1800
17077SOL     OW52112   7.607   9.116   3.509  0.1436  0.1279 -0.3117
17077SOL    HW152113   7.570   9.087   3.420 -0.6353  1.4261 -0.4235
17077SOL    HW252114   7.553   9.076   3.582 -1.2880  1.7001 -0.4706
17078SOL     OW52115   8.711   0.928   3.075  0.2263  0.3267 -0.3666
17078SOL    HW152116   8.779   0.952   3.145  1.2121 -0.6552 -0.9704
17078SOL    HW252117   8.686   1.010   3.024  0.4560  0.8234  0.3113
17079SOL     OW52118   2.255   0.868   0.995  0.3964  0.1538  0.1758
17079SOL    HW152119   2.270   0.849   1.092 -0.6793 -1.6098  0.0325
17079SOL    HW252120   2.334   0.915   0.957  1.6126 -0.8001  1.4775
17080SOL     OW52121   0.594   7.479   4.477 -0.8682 -0.0305  0.4433
17080SOL    HW152122   0.623   7.512   4.387  0.8556 -0.3394  0.8693
17080SOL    HW252123   0.644   7.527   4.549 -1.3709 -0.6229  1.2083
17081SOL     OW52124   2.661   9.343   4.164 -0.0819 -0.2349  0.5714
17081SOL    HW152125   2.754   9.353   4.200 -1.5719  3.3677  3.7391
17081SOL    HW252126   2.615   9.269   4.213  0.4968 -0.7688  0.3239
17082SOL     OW52127   1.414   4.696   3.245  0.2140 -0.5249 -0.0549
17082SOL    HW152128   1.458   4.611   3.216 -1.0918 -0.9669 -0.7671
17082SOL    HW252129   1.383   4.686   3.340 -1.1943 -1.3495 -0.5979
17083SOL     OW52130   8.945   6.025   3.213  0.0471 -0.0257  0.3396
17083SOL    HW152131   8.987   6.114   3.191 -2.1406  1.3660  1.6396
17083SOL    HW252132   8.867   6.010   3.153 -0.2805 -0.5391  0.8987
17085SOL     OW52133   1.974   7.651   4.318  0.6113  0.2513  0.1911
17085SOL    HW152134   1.951   7.678   4.411  0.4654 -0.6384  0.4160
17085SOL    HW252135   1.915   7.700   4.254  1.0089  1.1950  0.5338
17086SOL     OW52136   2.554   9.099   0.726 -0.2292 -0.1504 -0.4248
17086SOL    HW152137   2.462   9.065   0.743 -0.6331  1.3971  0.5317
17086SOL    HW252138   2.595   9.129   0.812  0.5001  0.8226 -1.0981
17088SOL     OW52139   4.909   0.215   4.321 -0.2336 -0.1961 -0.4323
17088SOL    HW152140   4.879   0.146   4.255 -0.2729 -0.4423 -0.1572
17088SOL    HW252141   4.915   0.174   4.412 -1.4188  0.4500 -0.0489
17089SOL     OW52142   6.912   3.744   0.746 -0.0975 -0.9138 -0.1235
17089SOL    HW152143   6.884   3.677   0.815 -2.7681  0.7648  0.5146
17089SOL    HW252144   6.952   3.824   0.791 -0.8636 -0.2706 -0.5656
17090SOL     OW52145   0.854   4.578   0.710  0.2827 -0.1713  0.2159
17090SOL    HW152146   0.772   4.523   0.725  0.7483 -1.3326 -1.2742
17090SOL    HW252147   0.917   4.567   0.787 -0.5263 -0.0784  0.8900
17092SOL     OW52148   1.954   6.949   0.081  0.3652  0.5254  0.7452
17092SOL    HW152149   2.006   6.937  -0.004  0.9678  1.6555  0.9374
17092SOL    HW252150   1.856   6.939   0.062  0.5859 -0.5510  0.1755
17094SOL     OW52151   0.472   9.955   2.214  0.2455 -0.5083 -0.4647
17094SOL    HW152152   0.434   9.869   2.181 -2.3285 -0.0801  1.2647
17094SOL    HW252153   0.425  10.032   2.170 -1.1112  0.0274  1.8516
17095SOL     OW52154   8.925   7.657   4.878  0.1721 -0.3073  0.1670
17095SOL    HW152155   8.884   7.584   4.823 -0.1819 -1.1313  1.4810
17095SOL    HW252156   9.021   7.668   4.853 -0.7410  1.4755 -2.7841
17096SOL     OW52157   5.647   1.133   5.022 -0.2673 -0.3912 -0.0097
17096SOL    HW152158   5.621   1.102   5.113 -2.2050 -0.6807 -0.6315
17096SOL    HW252159   5.633   1.232   5.015  0.1502 -0.3250  0.0974
17098SOL     OW52160   7.574   3.152   0.966  0.1858 -0.6345 -0.1487
17098SOL    HW152161   7.478   3.124   0.966 -0.8252  2.3453 -3.7270
17098SOL    HW252162   7.588   3.223   1.034 -0.0188 -1.3818  0.6843
17099SOL     OW52163   2.861   3.680   3.849  0.1019  0.0949 -0.0173
17099SOL    HW152164   2.810   3.726   3.922 -0.3458 -2.6206  1.4586
17099SOL    HW252165   2.957   3.707   3.853  0.0238  0.2207  1.3923
17100SOL     OW52166   9.461   5.838   4.098 -0.5394  0.4424  0.2721
17100SOL    HW152167   9.503   5.917   4.143 -1.2827  0.9512  0.0846
17100SOL    HW252168   9.523   5.759   4.103  1.0410  1.5606 -1.2599
17101SOL     OW52169   1.058   9.972   5.248  0.0448 -0.1742 -0.4356
17101SOL    HW152170   1.023   9.880   5.234 -0.8904 -0.0162  0.7677
17101SOL    HW252171   1.010  10.014   5.325  1.5292  0.7603 -0.0125
17102SOL     OW52172   8.359   0.767   3.652  0.1688  0.4482  0.3997
17102SOL    HW152173   8.447   0.767   3.700  0.1012  0.2954  0.5238
17102SOL    HW252174   8.366   0.711   3.570 -0.1405 -0.5215  1.0184
17103SOL     OW52175   8.553   9.742   0.866 -0.0475 -0.4319 -0.2299
17103SOL    HW152176   8.579   9.664   0.809 -2.2208 -0.7801 -0.7846
17103SOL    HW252177   8.460   9.730   0.899  0.3138  0.9611  1.3757
17105SOL     OW52178   9.600   9.141   3.223  0.2693  0.6612 -0.0811
17105SOL    HW152179   9.523   9.120   3.283 -0.7843  1.7860 -1.0148
17105SOL    HW252180   9.615   9.064   3.160  2.3569 -1.1956  2.5425
17106SOL     OW52181   6.592   0.868   0.815  0.5390 -0.1368 -0.2156
17106SOL    HW152182   6.610   0.963   0.791  1.0291 -0.2060 -0.1130
17106SOL    HW252183   6.677   0.816   0.816  0.2730 -0.5797 -0.2717
17107SOL     OW52184   3.656   3.272   2.232  0.4840  0.4104 -0.3684
17107SOL    HW152185   3.695   3.333   2.163  0.5843 -1.5091 -2.0599
17107SOL    HW252186   3.726   3.251   2.301  1.0927  0.5282 -0.9432
17108SOL     OW52187   2.354   7.153   4.921  0.3963  0.0024  0.4857
17108SOL    HW152188   2.444   7.128   4.885  0.2642  0.1009  0.0855
17108SOL    HW252189   2.311   7.073   4.963 -0.1056 -0.4908 -0.9562
17109SOL     OW52190   7.731   0.145   2.716  0.2063  0.3862 -0.2603
17109SOL    HW152191   7.800   0.143   2.789  1.7240  1.1508 -1.6390
17109SOL    HW252192   7.683   0.233   2.719  1.1826  0.9586 -0.9850
17110SOL     OW52193   9.242   1.623   0.011  0.6220  0.1669  0.3200
17110SOL    HW152194   9.323   1.592   0.061  0.0926 -1.2398  0.3286
17110SOL    HW252195   9.267   1.700  -0.048  2.0743 -0.5292 -0.0051
17111SOL     OW52196   3.434   1.416   4.001  0.3993 -0.0253  0.0644
17111SOL    HW152197   3.489   1.493   3.968 -0.8082  0.8625  0.0733
17111SOL    HW252198   3.483   1.330   3.984  1.5613  0.7081 -0.3649
17113SOL     OW52199   1.363   8.608   0.330  0.2050 -0.1419  0.6639
17113SOL    HW152200   1.341   8.693   0.379  0.4191 -0.4407  1.2767
17113SOL    HW252201   1.332   8.530   0.383 -2.2069 -0.4077 -1.0016
17115SOL     OW52202   8.841   4.086   5.161 -0.1525  0.4919 -0.4755
17115SOL    HW152203   8.759   4.143   5.175  0.3328  0.8868  0.8454
17115SOL    HW252204   8.867   4.045   5.248  0.3450 -0.6096 -1.1479
17117SOL     OW52205   8.509   0.146   5.072 -0.6461 -0.3195  0.2447
17117SOL    HW152206   8.525   0.061   5.021 -2.2187  0.4300 -1.5497
17117SOL    HW252207   8.422   0.139   5.122 -1.3793  0.6857 -0.8794
17119SOL     OW52208   2.733   4.675   2.241  0.5739 -0.2127  0.2300
17119SOL    HW152209   2.680   4.711   2.318  2.2623 -0.0555  1.3496
17119SOL    HW252210   2.807   4.618   2.275  1.4711  0.0183 -1.2786
17120SOL     OW52211   1.026   2.947   0.106 -0.3566  0.0430 -0.0920
17120SOL    HW152212   1.092   2.939   0.032 -0.0100  0.2585  0.1882
17120SOL    HW252213   1.017   2.858   0.152  0.1904  0.1527  0.2437
17122SOL     OW52214   1.407   6.805   3.070 -0.2263  0.2119  0.3505
17122SOL    HW152215   1.466   6.746   3.126  0.2790  1.2989  0.9697
17122SOL    HW252216   1.430   6.900   3.087 -1.6441  0.6184  0.0146
17123SOL     OW52217   1.695   0.977   0.653  0.1242 -0.1209  0.4166
17123SOL    HW152218   1.607   1.006   0.689  0.4964 -0.0916  1.3149
17123SOL    HW252219   1.759   1.055   0.655  0.9960 -0.8370  2.4149
17124SOL     OW52220   2.448   9.918   2.858  0.1753  0.6642 -0.0631
17124SOL    HW152221   2.500   9.974   2.793 -0.8886  1.2431 -0.4321
17124SOL    HW252222   2.385   9.859   2.807  0.1272  0.3051  0.4085
17125SOL     OW52223   2.919   1.985   2.407 -0.5160  0.6123 -0.0296
17125SOL    HW152224   2.921   1.900   2.460 -0.4187 -0.1988 -1.3320
17125SOL    HW252225   2.904   1.965   2.311  2.7094  1.8058 -0.8518
17126SOL     OW52226   4.610   5.158   2.176 -0.7061 -0.7128 -0.3968
17126SOL    HW152227   4.593   5.102   2.257 -1.4335  1.5601  1.0719
17126SOL    HW252228   4.695   5.210   2.189 -2.6742  2.4111  0.5439
17127SOL     OW52229   3.995   5.150   2.925  0.3344 -0.2658 -0.0139
17127SOL    HW152230   4.000   5.109   3.016 -1.3361  1.7717  1.0651
17127SOL    HW252231   4.066   5.221   2.917  0.5566 -0.5253 -0.3510
17128SOL     OW52232   6.855   1.336   2.256 -0.2839 -0.3077  0.2939
17128SOL    HW152233   6.826   1.431   2.270 -1.0022 -0.5861  0.7244
17128SOL    HW252234   6.829   1.281   2.336  0.4678 -0.7890  0.2086
17129SOL     OW52235   0.287   2.452   4.326  0.3293  0.3120  0.6175
17129SOL    HW152236   0.285   2.480   4.422 -0.5212  0.0264  0.6851
17129SOL    HW252237   0.239   2.519   4.271 -2.1551 -1.2132  0.8432
17130SOL     OW52238   8.586   4.954   3.497  0.1796 -0.2538  0.1217
17130SOL    HW152239   8.611   4.968   3.593 -1.6685 -0.5396  0.6577
17130SOL    HW252240   8.608   4.860   3.471 -1.3522 -0.8693  0.9420
17131SOL     OW52241   3.108   3.440   4.971  0.0617  0.3030 -0.0671
17131SOL    HW152242   3.090   3.537   4.955 -1.6195  0.1953  1.0333
17131SOL    HW252243   3.189   3.431   5.029 -0.6381  1.1136  1.0560
17132SOL     OW52244   2.017   7.621   3.485 -0.2644 -0.0293 -0.0408
17132SOL    HW152245   2.081   7.548   3.508 -1.2329 -0.4902  1.2577
17132SOL    HW252246   2.015   7.635   3.386 -0.6189 -2.2674 -0.3722
17133SOL     OW52247   4.054   6.942   4.910 -0.0832 -0.1149 -0.0477
17133SOL    HW152248   3.973   6.910   4.959 -0.0872 -0.7227 -0.4538
17133SOL    HW252249   4.057   7.042   4.914 -1.2825 -0.0395 -0.7028
17134SOL     OW52250   9.472   3.632   2.460  0.1590 -0.1422  0.3805
17134SOL    HW152251   9.374   3.615   2.473  0.4579 -1.7409  0.6602
17134SOL    HW252252   9.498   3.608   2.367  0.3678 -0.0910  0.4259
17135SOL     OW52253   3.430   0.911   3.807  0.1898 -0.4215  0.4784
17135SOL    HW152254   3.437   0.824   3.855  0.9013 -0.5898  0.0777
17135SOL    HW252255   3.337   0.922   3.772  0.8615 -2.4139 -2.0497
17136SOL     OW52256   2.816   6.452   0.102  0.0591  0.1984  0.2050
17136SOL    HW152257   2.772   6.509   0.172  0.8937  2.0277 -0.7228
17136SOL    HW252258   2.915   6.461   0.109  0.1535  0.2978 -1.1309
17137SOL     OW52259   8.509   7.958   3.002  0.0619 -0.4633  0.0865
17137SOL    HW152260   8.417   7.919   3.003 -0.5017  0.8404  0.6673
17137SOL    HW252261   8.504   8.055   3.026  1.5597 -0.3118 -0.1681
17139SOL     OW52262   9.162   9.793   3.473 -0.4840 -0.6755  0.4469
17139SOL    HW152263   9.091   9.858   3.502  0.6694  0.7859  0.0465
17139SOL    HW252264   9.202   9.823   3.386 -1.7109 -3.3281 -1.0825
17140SOL     OW52265   3.995   5.425   4.999 -0.5032  0.0877  0.4372
17140SOL    HW152266   4.075   5.382   5.042 -0.6005  0.0874  0.6176
17140SOL    HW252267   3.976   5.381   4.912 -0.7954 -0.4459  0.7694
17141SOL     OW52268   8.759   1.084   4.292 -0.0754  0.1336  0.1298
17141SOL    HW152269   8.764   1.174   4.336 -1.4622 -0.1056  0.8045
17141SOL    HW252270   8.665   1.049   4.299  0.3739 -1.2016 -0.4494
17142SOL     OW52271   9.997   2.162   3.004 -0.2915 -0.4904 -0.6393
17142SOL    HW152272  10.071   2.209   3.052 -0.1906  0.6178 -1.8439
17142SOL    HW252273   9.922   2.143   3.067  0.8411 -1.2809  0.5078
17143SOL     OW52274   2.817   1.395   0.934 -0.3724  0.0978  0.5161
17143SOL    HW152275   2.742   1.399   0.867 -1.3011 -0.3230  1.5164
17143SOL    HW252276   2.902   1.424   0.890 -1.6924  3.7218  0.2182
17144SOL     OW52277   8.508   4.379   2.952  0.1648  0.4748  0.0913
17144SOL    HW152278   8.482   4.430   2.869 -0.6387 -0.4413 -0.2251
17144SOL    HW252279   8.426   4.352   3.002  0.5732 -0.6784  0.1556
17145SOL     OW52280   1.117   0.343   2.147  0.5690 -0.0227  0.2871
17145SOL    HW152281   1.066   0.259   2.166  0.3764  0.2341  0.9099
17145SOL    HW252282   1.064   0.422   2.175  0.8380  0.3048 -0.1135
17147SOL     OW52283   6.134   1.214   2.069  0.1197  0.1896 -0.1511
17147SOL    HW152284   6.103   1.253   2.156  3.8332  1.6347  0.5891
17147SOL    HW252285   6.115   1.278   1.995  0.1400  0.4787  0.0952
17148SOL     OW52286   0.473   8.859   4.677 -0.4442 -0.3380 -0.3806
17148SOL    HW152287   0.478   8.799   4.597  0.4171 -0.3959 -0.2898
17148SOL    HW252288   0.492   8.807   4.760 -1.1790 -0.2447 -0.1514
17150SOL     OW52289   4.409   6.686   3.290  0.2864  0.6033 -0.9223
17150SOL    HW152290   4.398   6.587   3.293 -3.5796  0.8810 -2.5144
17150SOL    HW252291   4.325   6.730   3.321  1.6846  3.3779 -0.9273
17151SOL     OW52292   2.001   4.105   5.028  0.2770  0.2688 -0.1159
17151SOL    HW152293   2.083   4.047   5.023  0.0233 -0.1109  0.1629
17151SOL    HW252294   1.947   4.080   5.108  0.0133  0.6921 -0.1604
17152SOL     OW52295   0.547   5.696   0.188 -0.0647 -0.0928 -0.1487
17152SOL    HW152296   0.563   5.599   0.202 -1.6319 -0.2788  0.4336
17152SOL    HW252297   0.627   5.748   0.219  0.9627 -1.1947 -0.8652
17153SOL     OW52298   4.677   3.061   4.806 -0.0746 -0.1574 -0.5194
17153SOL    HW152299   4.690   3.158   4.828 -1.9042 -0.0810  0.2756
17153SOL    HW252300   4.757   3.009   4.837  1.2614  1.1784 -1.6265
17154SOL     OW52301   6.926   9.339   3.547 -0.3954 -0.3832  0.2395
17154SOL    HW152302   6.917   9.240   3.555 -1.6130 -0.3943 -1.0948
17154SOL    HW252303   7.023   9.365   3.547 -0.0954 -1.4931  1.4176
17155SOL     OW52304   4.416   5.629   3.431 -0.1148  0.5897  0.3709
17155SOL    HW152305   4.491   5.571   3.398  1.1660  2.8841 -0.8950
17155SOL    HW252306   4.439   5.663   3.522 -2.2957 -3.3163  2.5277
17156SOL     OW52307   4.840   1.099   5.235 -0.1959  0.3809 -0.9198
17156SOL    HW152308   4.773   1.126   5.167 -1.0069  0.8363  0.0459
17156SOL    HW252309   4.867   1.004   5.220 -2.3313 -0.3536 -0.3176
17157SOL     OW52310   6.015   7.495   2.948  0.1880 -0.4243 -0.1716
17157SOL    HW152311   5.973   7.579   2.983  0.4990 -0.4882  0.3737
17157SOL    HW252312   5.945   7.438   2.904 -0.4203 -0.8022  1.2442
17158SOL     OW52313   5.375   0.574   1.904  0.3938  0.5721  0.4649
17158SOL    HW152314   5.401   0.515   1.828  1.4454  0.4933  0.8716
17158SOL    HW252315   5.289   0.620   1.884  0.4408  0.2015 -0.5780
17159SOL     OW52316   0.754   6.900   3.733 -0.0799 -0.6540  0.6137
17159SOL    HW152317   0.748   6.857   3.823 -0.2780 -0.5927  0.6296
17159SOL    HW252318   0.693   6.979   3.730  1.0253  0.2323  0.9281
17160SOL     OW52319   1.284   9.287   0.415 -0.8332  0.7040  0.2735
17160SOL    HW152320   1.272   9.381   0.385 -1.6925  0.5503  0.1208
17160SOL    HW252321   1.238   9.273   0.503  1.5869  1.1278  1.6557
17161SOL     OW52322   2.057   0.927   2.201 -0.2578  0.1388  0.5620
17161SOL    HW152323   2.019   1.015   2.231  0.0012  0.1962  0.7274
17161SOL    HW252324   1.993   0.882   2.140 -1.1765 -0.3572  1.8630
17162SOL     OW52325   4.881   1.872   4.783  0.6237  0.8612  0.2475
17162SOL    HW152326   4.953   1.913   4.727 -0.0244 -0.4958 -1.6249
17162SOL    HW252327   4.832   1.945   4.832  0.0550  2.2926 -2.3389
17163SOL     OW52328   0.055   8.661   3.658 -0.7647 -0.0909  0.1373
17163SOL    HW152329   0.024   8.609   3.578 -0.4336  2.0362 -1.4018
17163SOL    HW252330  -0.016   8.660   3.728 -1.6985 -0.6331 -0.8142
17164SOL     OW52331   2.973   2.643   0.425  0.3924 -0.0677 -0.3573
17164SOL    HW152332   2.918   2.719   0.390  0.2980 -0.1181 -0.3192
17164SOL    HW252333   2.914   2.578   0.473  0.1845 -1.0777 -1.9302
17166SOL     OW52334   2.203   8.262   4.839  0.7889  0.1007  0.5885
17166SOL    HW152335   2.163   8.314   4.914  0.8834  1.8784 -0.5429
17166SOL    HW252336   2.294   8.230   4.865  0.9371  0.9545  1.1443
17167SOL     OW52337   5.970   1.839   3.001  0.3559  0.6808 -0.5242
17167SOL    HW152338   6.041   1.802   3.060 -0.3780  0.9105  0.5227
17167SOL    HW252339   5.905   1.767   2.977  1.1336  0.3871 -1.7777
17169SOL     OW52340   2.070   3.928   0.458  0.2629  0.3266 -0.1930
17169SOL    HW152341   1.987   3.960   0.413  0.3303  0.4619 -0.2217
17169SOL    HW252342   2.102   3.997   0.522 -1.1114 -0.8248  1.7590
17170SOL     OW52343   9.450   1.330   1.861 -0.2868 -0.4979  0.1575
17170SOL    HW152344   9.483   1.374   1.944  1.1342 -1.8926  0.3693
17170SOL    HW252345   9.524   1.326   1.794  0.1015 -3.7675  0.6685
17171SOL     OW52346   1.546   4.452   3.214  0.0652  0.6564 -0.0551
17171SOL    HW152347   1.500   4.364   3.229 -0.3971  0.7800 -0.7201
17171SOL    HW252348   1.633   4.453   3.263 -1.0409  0.7388  1.9289
17172SOL     OW52349   3.509   0.097   4.892  0.2171  0.0434 -0.0070
17172SOL    HW152350   3.507   0.004   4.857 -2.2930 -0.6263  1.7660
17172SOL    HW252351   3.419   0.121   4.929  1.0450  2.8828  0.3097
17173SOL     OW52352   2.502   8.211   2.817 -0.8989 -0.5645  0.0090
17173SOL    HW152353   2.435   8.183   2.748 -2.1113 -0.4337  1.0989
17173SOL    HW252354   2.492   8.154   2.899  0.8635 -1.0502 -0.1007
17176SOL     OW52355   5.383   7.183   2.626  0.2447 -0.4734 -0.0056
17176SOL    HW152356   5.310   7.207   2.690 -1.3474 -2.5659 -0.9932
17176SOL    HW252357   5.421   7.267   2.587 -0.7483  0.6936  1.4548
17177SOL     OW52358   2.124   8.366   2.696  0.3479 -0.0571  0.6837
17177SOL    HW152359   2.040   8.312   2.690  1.0362 -1.0028 -0.9597
17177SOL    HW252360   2.191   8.331   2.630  0.8990  2.6742 -0.3033
17179SOL     OW52361   2.036   0.514   1.198 -0.2671 -0.4870 -0.4808
17179SOL    HW152362   2.109   0.483   1.259  0.2253  1.9782  0.2236
17179SOL    HW252363   2.073   0.527   1.106  0.0040  0.0228 -0.2999
17180SOL     OW52364   9.320   1.300   4.182 -0.1634 -0.1053  0.2704
17180SOL    HW152365   9.335   1.203   4.166 -0.9851 -0.5909  2.2125
17180SOL    HW252366   9.223   1.321   4.173 -0.1609  0.2776  1.0118
17182SOL     OW52367   0.261   6.809   4.083 -0.5606 -0.7027 -0.1748
17182SOL    HW152368   0.298   6.812   4.176 -2.3115  0.8656  0.5212
17182SOL    HW252369   0.315   6.869   4.024  0.2198 -1.2724 -0.0468
17183SOL     OW52370   9.245   3.702   0.489 -0.2090 -0.0438 -0.0934
17183SOL    HW152371   9.332   3.733   0.525  0.2688 -2.1606  0.6317
17183SOL    HW252372   9.180   3.687   0.564  0.0051 -2.0476 -0.2646
17184SOL     OW52373   3.265   9.714   3.891 -0.4802  0.8078 -0.1742
17184SOL    HW152374   3.326   9.687   3.816 -1.9198 -0.1326 -1.0414
17184SOL    HW252375   3.195   9.776   3.856  0.8623  3.1384  1.1444
17185SOL     OW52376   2.407   2.250   2.357 -0.0850 -0.0029 -0.3852
17185SOL    HW152377   2.425   2.335   2.407 -0.0341  0.2107 -0.7665
17185SOL    HW252378   2.481   2.185   2.375  0.7117  0.6068 -1.3585
17186SOL     OW52379   4.864   6.894   3.270  0.0991 -0.8929  0.1359
17186SOL    HW152380   4.876   6.801   3.305  0.2131 -0.9086  0.0583
17186SOL    HW252381   4.767   6.917   3.268  0.0429 -1.1597 -0.2294
17187SOL     OW52382   0.784   4.217   4.886 -0.2428  0.0204 -0.0601
17187SOL    HW152383   0.779   4.234   4.787  1.6217 -0.2232 -0.2090
17187SOL    HW252384   0.713   4.151   4.912  1.1811 -2.2823 -1.7910
17188SOL     OW52385   2.346   1.184   1.136  0.6765  0.2368 -0.4831
17188SOL    HW152386   2.381   1.151   1.048  2.1627  0.3023  0.0586
17188SOL    HW252387   2.381   1.276   1.154 -1.9307  1.3974 -1.1119
17189SOL     OW52388   6.208   8.003   2.533 -0.2391  0.1099 -0.4708
17189SOL    HW152389   6.197   7.904   2.527  2.4315 -0.2240 -0.7599
17189SOL    HW252390   6.255   8.027   2.618 -0.2848  1.0456 -0.6996
17190SOL     OW52391   0.677   5.083   1.462 -0.0554  0.3344  0.0500
17190SOL    HW152392   0.763   5.117   1.501 -1.2366  1.8754  1.3928
17190SOL    HW252393   0.649   5.142   1.386 -0.8469  0.9257  0.7911
17192SOL     OW52394   9.593   0.080   1.859  0.1593  0.5106  0.1003
17192SOL    HW152395   9.578   0.142   1.781  1.6925  1.3834  0.4731
17192SOL    HW252396   9.680   0.103   1.903 -0.0162 -0.9080  1.2104
17193SOL     OW52397   0.687   9.631   2.412 -0.4160  0.0514 -0.1593
17193SOL    HW152398   0.641   9.685   2.482 -2.4171 -1.1863 -0.4859
17193SOL    HW252399   0.737   9.692   2.351 -1.7020  1.4442  0.1473
17195SOL     OW52400   8.782   3.381   4.891  0.7752 -0.3740  0.1801
17195SOL    HW152401   8.795   3.355   4.795 -1.3695 -0.5165 -0.0938
17195SOL    HW252402   8.809   3.476   4.903  0.1903 -0.0687 -0.7958
17196SOL     OW52403   9.532   4.609   1.358  0.1362 -0.6901  0.1625
17196SOL    HW152404   9.619   4.579   1.396  0.7041  0.8715  0.1383
17196SOL    HW252405   9.542   4.626   1.260 -0.4466 -1.4424 -0.0296
17197SOL     OW52406   2.068   1.298   2.815 -0.3297 -0.2382  0.2181
17197SOL    HW152407   2.043   1.303   2.911 -0.6102  2.5265  0.0513
17197SOL    HW252408   2.164   1.322   2.804 -0.2429 -0.7601 -0.1620
17198SOL     OW52409   8.258   7.249   4.717  0.0887  0.3328 -0.1612
17198SOL    HW152410   8.216   7.225   4.629  1.2018  3.1578 -1.5244
17198SOL    HW252411   8.210   7.327   4.756  2.0338  1.5431 -0.1628
17199SOL     OW52412   1.011   5.536   1.337 -0.8000 -0.2877  0.3380
17199SOL    HW152413   1.084   5.482   1.295  0.2763  0.7230  0.8644
17199SOL    HW252414   0.952   5.573   1.266  0.8029  1.1177 -0.3202
17200SOL     OW52415   1.655   1.877   3.303 -0.1230  0.4719  0.0088
17200SOL    HW152416   1.660   1.802   3.369  1.4097 -0.2404 -0.8759
17200SOL    HW252417   1.574   1.865   3.246 -1.1291  0.7634  1.3466
17201SOL     OW52418   4.259   1.137   2.961 -0.0526 -0.6046  0.0063
17201SOL    HW152419   4.249   1.194   2.879  1.6660 -0.6166 -0.2266
17201SOL    HW252420   4.256   1.195   3.042 -0.8730 -0.4906 -0.0985
17202SOL     OW52421   2.103   4.858   3.467  0.0535  0.5088 -0.2780
17202SOL    HW152422   2.070   4.882   3.558  0.8412  0.0723  0.1290
17202SOL    HW252423   2.097   4.758   3.455 -1.6416  0.7245 -1.3336
17204SOL     OW52424   4.218   0.303   4.745 -0.4690  0.5300  0.1324
17204SOL    HW152425   4.203   0.375   4.678  2.4356  0.5940 -0.5243
17204SOL    HW252426   4.214   0.213   4.701  2.0260  0.5941 -0.3285
17205SOL     OW52427   7.550   9.836   1.508  0.3197 -0.4757 -0.9180
17205SOL    HW152428   7.474   9.894   1.535 -1.1034 -2.3057 -0.9063
17205SOL    HW252429   7.612   9.888   1.449 -1.0613  0.9471 -1.1504
17206SOL     OW52430   3.747   4.608   2.774 -0.1472  0.0731 -0.5197
17206SOL    HW152431   3.779   4.576   2.864 -1.9208  2.3066  0.9450
17206SOL    HW252432   3.817   4.667   2.733  0.9753 -1.5282 -0.9815
17207SOL     OW52433   0.152   6.168   3.999 -0.0436  0.0208 -0.5886
17207SOL    HW152434   0.085   6.176   3.926  0.4611 -0.1265 -1.0666
17207SOL    HW252435   0.142   6.246   4.062  2.2175  2.3944 -3.0443
17208SOL     OW52436   9.917   1.333   4.540  0.1962  0.0094 -0.2005
17208SOL    HW152437   9.838   1.371   4.588  1.4825 -0.6310  2.5181
17208SOL    HW252438   9.912   1.233   4.541 -0.9613 -0.0234 -3.5473
17209SOL     OW52439   5.086   8.846   0.946 -0.2420 -0.1266  0.2735
17209SOL    HW152440   5.033   8.921   0.984  0.1714  0.5015 -0.3783
17209SOL    HW252441   5.089   8.854   0.846 -0.8384 -1.4387  0.1473
17210SOL     OW52442   9.815   6.013   1.977 -0.5871  0.1317 -0.6317
17210SOL    HW152443   9.780   6.013   2.070  0.1465 -0.9036 -0.3516
17210SOL    HW252444   9.845   6.105   1.952 -0.2511  0.2917  0.3629
17211SOL     OW52445   1.409   2.905   2.186  0.0645 -0.0850  0.3150
17211SOL    HW152446   1.336   2.965   2.152 -0.7351 -0.2126  1.7739
17211SOL    HW252447   1.449   2.855   2.109  0.4434  1.9869 -0.8458
17212SOL     OW52448   3.683   2.962   5.038  0.2647  0.3303 -0.4360
17212SOL    HW152449   3.677   2.913   5.125  2.7297  0.2139 -0.2966
17212SOL    HW252450   3.713   2.899   4.966  1.3455  1.1074 -0.6928
17213SOL     OW52451   0.904   9.973   2.548  0.5914 -0.0680 -0.0948
17213SOL    HW152452   0.888  10.042   2.478  0.0446 -0.5158 -0.4199
17213SOL    HW252453   0.877  10.008   2.638  1.3076  0.5126 -0.1095
17215SOL     OW52454   3.172   0.202   4.106 -0.6094 -0.4540 -0.0154
17215SOL    HW152455   3.219   0.125   4.149 -0.4777 -0.3483  0.0287
17215SOL    HW252456   3.192   0.203   4.008 -1.4903 -1.1204 -0.2063
17216SOL     OW52457   8.949   0.246   0.371  0.1689 -0.3963  0.4511
17216SOL    HW152458   8.937   0.322   0.436 -0.6377  0.4320 -0.6578
17216SOL    HW252459   9.005   0.277   0.294 -1.7488 -0.3416 -0.9592
17217SOL     OW52460   5.645   1.952   1.604 -0.0208  0.1234 -0.1347
17217SOL    HW152461   5.702   1.991   1.676  0.0929  0.2508 -0.2928
17217SOL    HW252462   5.701   1.895   1.544  0.0435  0.6559 -0.5891
17218SOL     OW52463   3.356   4.687   4.100 -0.6103 -0.2022 -0.0485
17218SOL    HW152464   3.443   4.648   4.068 -0.7800 -0.8024  0.2019
17218SOL    HW252465   3.280   4.644   4.052 -0.7288  1.0011 -0.9477
17219SOL     OW52466   8.762   2.497   0.398 -0.2742  0.8938  0.3931
17219SOL    HW152467   8.808   2.409   0.397 -1.4857  0.2609 -0.9516
17219SOL    HW252468   8.831   2.570   0.397  0.7436 -0.0195 -2.4453
17220SOL     OW52469   0.479   1.637   2.113  0.5303 -0.4669 -0.2808
17220SOL    HW152470   0.381   1.652   2.118  0.5009 -0.1963 -1.6693
17220SOL    HW252471   0.506   1.573   2.186 -0.5191  0.1645  0.6793
17221SOL     OW52472   8.543   7.195   1.598  0.4136  0.0010  0.2406
17221SOL    HW152473   8.443   7.197   1.598  0.3588 -1.7393 -1.0971
17221SOL    HW252474   8.575   7.146   1.679  0.1970  0.7542  0.7872
17222SOL     OW52475   9.295   4.959   3.707  0.4275 -0.4970 -0.0881
17222SOL    HW152476   9.288   4.859   3.704 -0.3159 -0.4112 -1.3774
17222SOL    HW252477   9.312   4.988   3.802  0.2175 -1.8112  0.3656
17223SOL     OW52478   8.939   6.506   3.915 -0.0657 -0.6798  0.2364
17223SOL    HW152479   8.976   6.587   3.962  0.1609  0.7229 -2.2840
17223SOL    HW252480   8.978   6.423   3.956  0.6462  0.5295  2.0655
17224SOL     OW52481   9.110   8.340   3.293  0.7744 -0.1523  0.8887
17224SOL    HW152482   9.076   8.279   3.365  2.1946 -0.3737  1.3859
17224SOL    HW252483   9.159   8.416   3.335 -0.9553  1.3247  0.2673
17225SOL     OW52484   6.971   1.748   5.165  0.2185 -0.1651 -0.3389
17225SOL    HW152485   6.874   1.724   5.176  1.1643 -3.4532  1.5816
17225SOL    HW252486   6.999   1.729   5.072 -1.0917  1.2937 -1.0557
17226SOL     OW52487   9.936   5.645   1.482 -0.6562 -0.2953  0.5172
17226SOL    HW152488   9.859   5.706   1.467 -1.1054  0.2546  4.4990
17226SOL    HW252489   9.902   5.557   1.517  0.2899 -1.3912 -1.2458
17227SOL     OW52490   1.323   4.426   2.770 -0.1528 -0.4454 -0.0951
17227SOL    HW152491   1.422   4.437   2.778 -0.3337  0.3366  1.2364
17227SOL    HW252492   1.298   4.331   2.788 -0.0325  0.2066  3.9011
17228SOL     OW52493   0.804   5.607   3.602 -0.1982  0.2251  0.0312
17228SOL    HW152494   0.853   5.590   3.687 -0.7963  1.1621  0.5688
17228SOL    HW252495   0.748   5.527   3.580 -0.2452  0.0819  0.6569
17229SOL     OW52496   0.099   4.193   2.494 -0.3108 -0.2937  0.4640
17229SOL    HW152497   0.175   4.245   2.457 -0.1110 -2.1614 -1.8678
17229SOL    HW252498   0.134   4.117   2.550 -0.4768 -0.7269 -0.0192
17230SOL     OW52499   5.342   1.745   2.377 -0.7701 -0.0762  0.9996
17230SOL    HW152500   5.311   1.650   2.369 -1.1080  0.1109 -0.0068
17230SOL    HW252501   5.264   1.804   2.400 -0.5061 -0.0788  1.9135
17231SOL     OW52502   4.642   2.804   2.145 -0.7172 -0.3437 -0.4405
17231SOL    HW152503   4.572   2.776   2.211 -0.0942 -2.2399 -0.5351
17231SOL    HW252504   4.651   2.733   2.075  1.7184 -0.4091 -0.1006
17232SOL     OW52505   2.542   2.398   3.551  0.2252 -0.4649 -0.1369
17232SOL    HW152506   2.574   2.452   3.629  1.7114 -0.8144 -0.4810
17232SOL    HW252507   2.568   2.444   3.466 -1.2918 -0.1415 -0.4340
17235SOL     OW52508   9.056   9.190   0.191  0.0941  0.0414 -0.3222
17235SOL    HW152509   9.078   9.178   0.094 -0.8705 -0.2392 -0.5152
17235SOL    HW252510   9.060   9.101   0.237 -0.0724  0.0779 -0.2371
17237SOL     OW52511   9.095   4.046   1.723  0.5449 -0.2270 -0.2458
17237SOL    HW152512   8.998   4.026   1.740  0.1891 -0.0282 -2.0120
17237SOL    HW252513   9.110   4.058   1.625  2.4686 -0.8005 -0.0391
17239SOL     OW52514   8.070   1.222   1.429 -0.3718 -0.2360  0.1262
17239SOL    HW152515   8.134   1.147   1.444  1.6985  1.2592 -0.8766
17239SOL    HW252516   8.069   1.246   1.332 -2.1327  0.0468  0.2027
17240SOL     OW52517   3.450   0.091   0.434 -0.2141  0.0675 -0.2413
17240SOL    HW152518   3.541   0.110   0.397 -0.0176  0.5064  0.4421
17240SOL    HW252519   3.380   0.120   0.368  0.1412 -0.4112 -0.8319
17241SOL     OW52520   2.436   5.888   1.633 -0.3115 -0.4147 -0.0781
17241SOL    HW152521   2.454   5.790   1.626 -0.3622 -0.4022 -0.3863
17241SOL    HW252522   2.400   5.909   1.724 -0.5102 -0.7149 -0.0876
17242SOL     OW52523   0.107   2.168   3.662 -0.5814  0.5649  0.2542
17242SOL    HW152524   0.031   2.178   3.726 -1.4584 -1.4129 -0.4507
17242SOL    HW252525   0.170   2.245   3.674 -1.1380  0.6634  2.9312
17243SOL     OW52526   2.420   8.136   1.315  0.1439  0.8228  0.1602
17243SOL    HW152527   2.395   8.233   1.311  0.8106  1.0752  1.9828
17243SOL    HW252528   2.460   8.115   1.404 -0.0830 -1.1563 -0.1833
17245SOL     OW52529   9.129   4.133   1.442 -0.0724  0.3732 -0.0982
17245SOL    HW152530   9.110   4.075   1.363  3.3079 -1.9065  0.6609
17245SOL    HW252531   9.110   4.229   1.419 -1.6170 -0.5376 -2.7870
17246SOL     OW52532   0.965   3.308   2.610 -0.0328 -0.1757 -0.1585
17246SOL    HW152533   0.908   3.356   2.677  0.8717  0.1715  0.3696
17246SOL    HW252534   1.028   3.373   2.568  2.1374 -1.1084  1.5406
17247SOL     OW52535   9.551   4.201   5.218  0.1656  0.5332 -0.2710
17247SOL    HW152536   9.649   4.199   5.198 -0.1576 -0.5769 -1.7851
17247SOL    HW252537   9.536   4.182   5.315  1.5537  2.7354  0.4198
17249SOL     OW52538   2.789   7.329   4.264  0.0701 -0.2348 -0.7181
17249SOL    HW152539   2.783   7.235   4.299  1.5256 -0.5488 -1.2900
17249SOL    HW252540   2.718   7.344   4.196 -0.9539 -0.5296  0.2690
17250SOL     OW52541   3.067   6.948   1.154  0.0832  0.2974  0.5382
17250SOL    HW152542   3.043   7.018   1.086 -0.4733 -0.7420 -0.3497
17250SOL    HW252543   3.113   6.992   1.231 -1.9490  1.9144  0.8785
17251SOL     OW52544   9.035   0.567   0.181 -0.4988  0.1027 -0.3078
17251SOL    HW152545   8.961   0.611   0.232 -1.5470  0.1256 -1.8339
17251SOL    HW252546   9.014   0.470   0.169 -1.3259  0.5475 -2.6026
17252SOL     OW52547   8.039   1.216   4.835  0.0460  0.3793  0.0721
17252SOL    HW152548   8.104   1.266   4.776  0.4704  1.1630  1.1929
17252SOL    HW252549   8.089   1.147   4.887 -0.1446  0.4975  0.4068
17253SOL     OW52550   8.932   4.047   4.329 -0.8072 -0.4403 -0.1965
17253SOL    HW152551   8.895   4.017   4.241  1.8068 -0.7097 -1.2538
17253SOL    HW252552   8.974   4.137   4.318  0.2721 -0.8430  0.5966
17258SOL     OW52553   5.370   5.454   1.409  0.1393  0.2543 -0.4552
17258SOL    HW152554   5.449   5.405   1.373  0.9342  1.7200 -0.7179
17258SOL    HW252555   5.400   5.525   1.472 -0.9742  0.7290 -0.4453
17259SOL     OW52556   9.957   5.304   0.734 -0.7398 -0.0669  0.6892
17259SOL    HW152557  10.023   5.321   0.807  0.5540 -0.1470 -0.4444
17259SOL    HW252558   9.927   5.391   0.695  0.5700 -0.0939 -0.4252
17260SOL     OW52559   1.583   9.523   5.276  0.4088  0.6182 -0.1466
17260SOL    HW152560   1.656   9.559   5.332  0.5519 -0.8175  0.6193
17260SOL    HW252561   1.578   9.424   5.287 -1.4747  0.6607 -0.3884
17262SOL     OW52562   6.400   0.063   4.021  0.3089  0.1050 -0.4662
17262SOL    HW152563   6.451  -0.018   4.049 -1.0236 -0.3658  0.6267
17262SOL    HW252564   6.379   0.058   3.923  1.5198 -0.1340 -0.7272
17264SOL     OW52565   7.194   9.820   1.566  0.0981  0.2122  0.4334
17264SOL    HW152566   7.231   9.902   1.609  0.3309  0.7128 -0.6949
17264SOL    HW252567   7.107   9.842   1.522  0.9810  0.2744 -1.3253
17265SOL     OW52568   5.344   4.976   1.473  0.1935 -0.5574  0.2340
17265SOL    HW152569   5.245   4.965   1.473  0.1411 -0.0955 -0.0881
17265SOL    HW252570   5.372   5.027   1.392  0.7192 -0.9005  0.2020
17266SOL     OW52571   2.429   9.319   5.209  0.0905 -0.8564  0.0240
17266SOL    HW152572   2.482   9.280   5.134 -1.1229 -0.4197 -1.0710
17266SOL    HW252573   2.446   9.266   5.292  0.8851 -1.7926 -0.7156
17268SOL     OW52574   9.967   7.298   5.149 -0.4321  0.4295  0.5324
17268SOL    HW152575   9.931   7.271   5.059  0.7447 -3.2259  1.0682
17268SOL    HW252576   9.894   7.293   5.216 -0.3551 -1.1120  0.5270
17270SOL     OW52577   9.099   7.703   4.196  0.3771 -0.1107  0.0012
17270SOL    HW152578   9.192   7.680   4.166  0.6213  1.2564 -0.3638
17270SOL    HW252579   9.035   7.684   4.122  0.1604 -2.4364  0.7684
17271SOL     OW52580   8.560   5.495   2.104  0.6755  0.1532 -0.9940
17271SOL    HW152581   8.562   5.595   2.104  0.4863  0.1585 -1.3501
17271SOL    HW252582   8.504   5.463   2.028  1.3110 -0.2312 -1.3059
17272SOL     OW52583   8.347   6.270   3.837  0.0188 -0.1903  0.2368
17272SOL    HW152584   8.284   6.253   3.913  0.0499 -0.5356  0.1865
17272SOL    HW252585   8.382   6.364   3.843  1.5750 -0.8209  1.8111
17273SOL     OW52586   1.495   7.993   2.783 -0.4062  0.0197  0.2705
17273SOL    HW152587   1.446   7.966   2.700 -0.4793 -1.4937  0.7987
17273SOL    HW252588   1.430   8.018   2.854 -0.4529 -2.1346  1.0212
17274SOL     OW52589   0.696   9.405   3.252 -0.6431 -0.0415 -0.0496
17274SOL    HW152590   0.781   9.358   3.226  0.2532  0.4124  1.9728
17274SOL    HW252591   0.716   9.473   3.322 -2.6711  0.1320  0.3791
17275SOL     OW52592   8.564   7.430   3.824  0.5777 -0.2635  0.8850
17275SOL    HW152593   8.510   7.352   3.856 -0.5171  0.5004  0.9327
17275SOL    HW252594   8.513   7.479   3.754  1.7719 -0.2786 -0.0016
17276SOL     OW52595   8.756   0.727   2.881  0.2790 -0.1422 -0.1789
17276SOL    HW152596   8.738   0.802   2.945 -1.8845 -1.2849  0.5954
17276SOL    HW252597   8.808   0.762   2.803  0.4949  1.8707  0.8151
17278SOL     OW52598   8.459   1.163   2.644 -0.8232 -0.4819  0.0484
17278SOL    HW152599   8.478   1.104   2.566 -0.1223  0.2240 -0.3215
17278SOL    HW252600   8.405   1.113   2.711 -2.2895 -0.7820 -1.3321
17279SOL     OW52601   3.883   6.114   2.861  0.0549 -0.2767 -0.1671
17279SOL    HW152602   3.807   6.085   2.918  0.8821 -1.2336  0.4503
17279SOL    HW252603   3.894   6.213   2.868 -1.5491 -0.0383 -0.7853
17280SOL     OW52604   4.866   9.212   4.468  0.0939 -0.3750  0.1287
17280SOL    HW152605   4.792   9.202   4.401  1.3762  0.7936 -1.5255
17280SOL    HW252606   4.858   9.301   4.513  0.4155 -0.2976  0.0348
17282SOL     OW52607   0.686   8.676   1.712 -0.5240 -0.2599  0.0673
17282SOL    HW152608   0.601   8.725   1.697 -2.4547 -3.6324 -0.5078
17282SOL    HW252609   0.668   8.593   1.765  2.3993 -1.0496 -0.0684
17283SOL     OW52610   5.946   1.662   4.343 -0.1244 -0.3347  0.2821
17283SOL    HW152611   5.958   1.680   4.246  1.3484 -0.2034  0.4850
17283SOL    HW252612   5.922   1.566   4.356 -0.4770 -0.3172 -0.2104
17284SOL     OW52613   3.270   1.764   3.947  0.1320 -0.0059 -0.7500
17284SOL    HW152614   3.171   1.781   3.941  0.0805 -0.3620 -0.9254
17284SOL    HW252615   3.302   1.729   3.859  0.3260 -0.3576 -0.5369
17285SOL     OW52616   9.046   6.263   3.697  0.3411  0.2239  0.7941
17285SOL    HW152617   9.048   6.358   3.665  0.7428 -0.6763 -2.0770
17285SOL    HW252618   8.953   6.228   3.690  0.6493 -0.3576 -0.7234
17286SOL     OW52619   1.192   4.834   0.790  0.6549  0.6080 -0.0047
17286SOL    HW152620   1.200   4.752   0.734  0.1977 -0.3730  1.3492
17286SOL    HW252621   1.097   4.866   0.790 -0.0273 -1.2789  2.8030
17288SOL     OW52622   0.105   2.824   2.380 -0.2589  0.5916 -0.0902
17288SOL    HW152623   0.131   2.763   2.306  1.1149 -0.1000  0.9366
17288SOL    HW252624   0.012   2.803   2.410 -0.2117 -0.2131 -0.5163
17289SOL     OW52625   2.506   0.770   4.260  0.7270 -0.1463 -0.5686
17289SOL    HW152626   2.521   0.788   4.162 -1.1021 -0.5899 -0.9492
17289SOL    HW252627   2.517   0.673   4.278  1.1915 -0.0476 -0.2816
17290SOL     OW52628   8.608   3.893   1.491 -0.4882  0.4858 -0.7131
17290SOL    HW152629   8.611   3.850   1.581 -1.2333 -1.2775 -1.5063
17290SOL    HW252630   8.697   3.933   1.470  0.9803 -2.7684 -0.9260
17291SOL     OW52631   0.524   3.096   2.353  0.0032 -0.3333 -0.1645
17291SOL    HW152632   0.586   3.106   2.275  2.0202  2.2737  1.6884
17291SOL    HW252633   0.430   3.116   2.323  0.5545 -0.7180 -2.2155
17292SOL     OW52634   3.418   6.652   0.172 -0.3175  0.1288 -0.2186
17292SOL    HW152635   3.371   6.734   0.207  2.4589  1.1782  1.1835
17292SOL    HW252636   3.471   6.677   0.091  0.7366 -0.2133  0.3618
17294SOL     OW52637   0.408   2.795   4.716  0.1426 -0.3743  0.0473
17294SOL    HW152638   0.416   2.843   4.629 -0.5426 -1.6187 -0.7175
17294SOL    HW252639   0.498   2.789   4.760  0.5059  0.1661 -0.6285
17295SOL     OW52640   1.247   9.165   0.153 -0.1668  0.2511 -0.4476
17295SOL    HW152641   1.265   9.258   0.123  0.3603  0.1602 -0.4205
17295SOL    HW252642   1.233   9.165   0.252  0.4205  0.2184 -0.3636
17296SOL     OW52643   8.672   0.514   0.409  0.1076  0.0976 -0.3999
17296SOL    HW152644   8.672   0.443   0.338  1.6206  1.2087 -1.5328
17296SOL    HW252645   8.615   0.484   0.486 -0.6514 -1.5996 -1.5988
17297SOL     OW52646   4.555   0.999   1.870  0.4463  0.0787 -0.6260
17297SOL    HW152647   4.480   1.058   1.841  0.4634  0.6202  0.4228
17297SOL    HW252648   4.601   0.961   1.790  0.5251  1.6005 -1.3095
17299SOL     OW52649   1.350   5.621   1.485 -0.1491 -0.6257 -0.0993
17299SOL    HW152650   1.279   5.655   1.545  0.7752  1.6414 -0.2283
17299SOL    HW252651   1.374   5.692   1.418 -0.5171 -2.7613 -2.5472
17300SOL     OW52652   1.773   8.845   1.052  0.1870  0.4373 -0.3771
17300SOL    HW152653   1.739   8.751   1.057 -1.8746  1.0329 -1.9586
17300SOL    HW252654   1.856   8.854   1.106 -0.4325 -1.9151  1.0466
17301SOL     OW52655   2.356   0.904   1.651 -0.2286  0.0850 -0.0704
17301SOL    HW152656   2.298   0.973   1.608 -0.5713 -0.1147  0.0676
17301SOL    HW252657   2.299   0.831   1.689  0.0854  0.1161  0.4741
17302SOL     OW52658   3.579   8.511   0.359 -0.3488 -0.4378 -0.6888
17302SOL    HW152659   3.597   8.586   0.423 -1.8547  0.1654 -0.9270
17302SOL    HW252660   3.615   8.426   0.395  0.2285  0.1810  0.2054
17303SOL     OW52661   8.988   1.395   1.455  0.1163  0.6046  0.3246
17303SOL    HW152662   9.045   1.326   1.410  0.7768  1.6461 -0.4549
17303SOL    HW252663   8.892   1.364   1.455  0.4213 -0.3610  0.0975
17304SOL     OW52664   2.301   7.243   3.352 -0.0473  0.3130  0.0289
17304SOL    HW152665   2.333   7.168   3.410 -0.0456  1.4131  1.4670
17304SOL    HW252666   2.374   7.269   3.289  0.9035  0.8949  1.3529
17305SOL     OW52667   8.316   5.612   1.778 -0.2980 -0.0771 -0.0046
17305SOL    HW152668   8.394   5.665   1.814 -1.1885  1.1232  0.1861
17305SOL    HW252669   8.342   5.515   1.773  1.3125  0.3423 -0.2349
17307SOL     OW52670   3.526   0.591   4.693  0.0184  0.1803  0.3818
17307SOL    HW152671   3.532   0.595   4.593  2.9789  2.5805  0.5725
17307SOL    HW252672   3.548   0.498   4.723 -1.3590 -0.6874 -1.2013
17308SOL     OW52673   4.812   7.735   3.010  0.8795  0.6070  0.0013
17308SOL    HW152674   4.740   7.691   3.064  1.3706 -0.3649 -0.1108
17308SOL    HW252675   4.837   7.675   2.934  0.0437  2.0643 -1.4476
17310SOL     OW52676   3.815   2.155   3.578  0.0950  0.2401  0.0656
17310SOL    HW152677   3.894   2.142   3.639  1.5648  0.2234 -1.7771
17310SOL    HW252678   3.747   2.085   3.596  1.0878 -0.5511  0.8249
17312SOL     OW52679   7.764   3.288   0.773  0.2227 -0.0946 -0.5009
17312SOL    HW152680   7.704   3.251   0.844 -1.3005  0.7912 -1.3067
17312SOL    HW252681   7.802   3.376   0.803  0.9029 -0.5083 -0.1201
17315SOL     OW52682   1.233   6.296   1.439  0.0303 -0.2583  0.9084
17315SOL    HW152683   1.255   6.376   1.494  0.8124  0.7222 -0.7677
17315SOL    HW252684   1.136   6.299   1.412  0.4236  0.9757 -0.4454
17316SOL     OW52685   8.222   4.807   1.728  0.0538 -0.0217  0.3517
17316SOL    HW152686   8.275   4.848   1.654 -0.2947  1.4690  0.9093
17316SOL    HW252687   8.128   4.792   1.697  0.6160 -2.1607 -0.4568
17319SOL     OW52688   0.056   5.761   1.233 -0.0190  0.2034 -0.0331
17319SOL    HW152689   0.023   5.855   1.224  1.3603  0.9214  2.0811
17319SOL    HW252690   0.025   5.722   1.319  2.3541 -0.0137  0.7628
17320SOL     OW52691   0.145   2.656   4.222 -0.0409  0.0360  0.1040
17320SOL    HW152692   0.168   2.741   4.269 -0.3462  1.3737 -2.0636
17320SOL    HW252693   0.046   2.650   4.210  0.0410 -0.2066 -0.4836
17321SOL     OW52694   6.906   1.971   3.004 -0.0164  0.5050 -0.2272
17321SOL    HW152695   6.994   2.019   2.995  1.5208 -2.4464 -1.5696
17321SOL    HW252696   6.846   1.999   2.928  0.7405  0.5271 -0.8224
17322SOL     OW52697   8.304   4.213   5.257  0.1319  0.3063  0.0700
17322SOL    HW152698   8.328   4.130   5.307 -0.0571  0.1989 -0.0191
17322SOL    HW252699   8.236   4.192   5.187 -1.4250  0.8935  1.3621
17323SOL     OW52700   6.247   7.874   4.244  0.1804 -0.3260 -0.0921
17323SOL    HW152701   6.176   7.835   4.303  0.2846  0.1255  0.3407
17323SOL    HW252702   6.219   7.965   4.213  0.1308 -0.5588 -0.7341
17324SOL     OW52703   9.226   0.569   2.038  0.0226 -0.3776  0.1435
17324SOL    HW152704   9.221   0.613   1.949  0.7121  0.6695  0.6052
17324SOL    HW252705   9.158   0.496   2.044 -0.1362 -0.3430 -1.1718
17325SOL     OW52706   3.635   2.209   3.251  0.2739  0.2539 -0.2830
17325SOL    HW152707   3.598   2.258   3.172  0.9034  0.7827 -0.2512
17325SOL    HW252708   3.729   2.239   3.268  0.5282 -0.6723 -0.0174
17326SOL     OW52709   0.060   4.266   0.533  0.1945 -0.5797  0.2250
17326SOL    HW152710   0.129   4.227   0.473  0.8711 -0.0865  0.6743
17326SOL    HW252711   0.041   4.360   0.505  0.1946 -0.4940  0.5122
17327SOL     OW52712   9.478   9.576   4.508  0.1640 -0.0477 -0.0644
17327SOL    HW152713   9.383   9.557   4.483 -0.3616  0.4021  1.4632
17327SOL    HW252714   9.505   9.664   4.469 -1.0647  1.2625  1.9137
17329SOL     OW52715   4.480   2.734   2.354 -0.2210  0.3384 -0.5230
17329SOL    HW152716   4.444   2.778   2.436  1.6829 -1.4550  1.3511
17329SOL    HW252717   4.431   2.649   2.337  0.2803  0.0312 -0.4497
17330SOL     OW52718   5.968   1.439   4.782 -0.4611  0.1883  0.4380
17330SOL    HW152719   5.906   1.435   4.704 -0.9797  0.6692  0.8141
17330SOL    HW252720   6.054   1.393   4.760 -1.2067 -1.0784  0.1396
17331SOL     OW52721   3.925   5.421   0.050 -0.0454 -0.3735  0.3153
17331SOL    HW152722   3.842   5.473   0.073  0.8982  0.7828  1.1445
17331SOL    HW252723   3.997   5.484   0.022  0.7021 -1.3545  0.0072
17332SOL     OW52724   6.768   0.312   2.292  0.4238  0.0229 -0.0826
17332SOL    HW152725   6.849   0.254   2.283  0.7454  0.3098  0.8767
17332SOL    HW252726   6.722   0.292   2.379 -0.2142  0.2561 -0.3634
17334SOL     OW52727   1.237   7.238   0.795  0.3024  0.1624  0.1253
17334SOL    HW152728   1.240   7.263   0.892  1.1824  1.4575 -0.2257
17334SOL    HW252729   1.328   7.215   0.763 -0.4632 -3.4489  0.3876
17335SOL     OW52730   0.664   7.945   2.308 -0.3424  0.0087  0.3504
17335SOL    HW152731   0.591   8.003   2.343  0.2732  1.1720 -0.2978
17335SOL    HW252732   0.630   7.890   2.232 -0.0169  2.0331 -1.2876
17337SOL     OW52733   3.536   0.679   3.935  0.0007 -0.3690  0.5767
17337SOL    HW152734   3.554   0.584   3.963 -0.4833 -0.1363  1.6726
17337SOL    HW252735   3.541   0.739   4.015  1.6409  0.7304 -0.3140
17338SOL     OW52736   4.335   2.276   3.945  0.4849  0.1817  0.6644
17338SOL    HW152737   4.351   2.194   4.000 -0.6586 -1.0917 -0.8465
17338SOL    HW252738   4.260   2.258   3.881  1.1653  1.9580 -0.6486
17339SOL     OW52739   2.101   0.854   5.201  0.4471 -0.1112  0.0009
17339SOL    HW152740   2.063   0.919   5.266 -1.3571  0.2616 -1.3955
17339SOL    HW252741   2.073   0.761   5.226 -0.4920  0.0611 -0.4222
17340SOL     OW52742   7.631   9.085   2.439  0.2390 -0.0129  0.1219
17340SOL    HW152743   7.685   9.169   2.435  0.5327 -0.1640  0.9230
17340SOL    HW252744   7.634   9.039   2.350  0.8299  0.3513 -0.0460
17341SOL     OW52745   0.106   0.507   1.674 -0.1773 -0.1946  0.3182
17341SOL    HW152746   0.182   0.572   1.673  0.4351 -0.8638  1.2535
17341SOL    HW252747   0.034   0.541   1.734 -0.5321  0.3433 -0.4064
17342SOL     OW52748   8.225   5.345   3.461 -0.5404 -0.1470  0.2644
17342SOL    HW152749   8.230   5.366   3.558  0.1494  0.7357  0.0489
17342SOL    HW252750   8.247   5.249   3.447 -0.7791 -0.3117  0.9926
17343SOL     OW52751   3.775   2.479   2.361 -0.2820 -0.0971  0.0441
17343SOL    HW152752   3.691   2.455   2.313 -0.4922 -0.2309  0.4786
17343SOL    HW252753   3.837   2.400   2.361 -0.9540 -0.6557  1.4321
17344SOL     OW52754   3.101   3.352   2.770  0.1512  0.7429 -0.0761
17344SOL    HW152755   3.057   3.290   2.705  0.3647  2.0995 -1.5472
17344SOL    HW252756   3.200   3.335   2.770 -0.0153 -0.3264  1.0853
17345SOL     OW52757   3.925   2.981   1.136 -0.6380  0.1998  0.2365
17345SOL    HW152758   4.013   2.992   1.184  0.5805 -0.0327 -1.8762
17345SOL    HW252759   3.928   3.032   1.050 -2.2517 -0.5654 -0.2818
17346SOL     OW52760   4.407   9.847   3.897 -0.4891 -0.5582 -0.1320
17346SOL    HW152761   4.378   9.876   3.989  1.1979  2.0474 -0.3672
17346SOL    HW252762   4.478   9.778   3.905  2.2403  2.2119  0.6740
17347SOL     OW52763   2.234   0.856   2.854 -0.3900 -0.0988 -0.2461
17347SOL    HW152764   2.315   0.842   2.911 -1.1368  1.0835  1.1224
17347SOL    HW252765   2.249   0.937   2.796 -0.7277  0.3139  0.2451
17349SOL     OW52766   5.233   7.885   4.032  0.1274 -0.1365 -0.0147
17349SOL    HW152767   5.251   7.844   4.122  1.2377  0.3987  0.0210
17349SOL    HW252768   5.260   7.981   4.034 -0.6881  0.1053 -0.6635
17351SOL     OW52769   2.087   5.220   1.343 -0.3742  0.1277  0.1562
17351SOL    HW152770   1.989   5.238   1.345 -0.5298 -0.8515  1.7428
17351SOL    HW252771   2.125   5.224   1.435  1.0431  0.2664 -0.4044
17352SOL     OW52772   5.632   7.459   5.059 -0.5946  0.3861  0.0323
17352SOL    HW152773   5.688   7.453   4.977  0.0422  1.1076  0.4028
17352SOL    HW252774   5.539   7.428   5.039 -0.0238 -0.9912 -0.5506
17353SOL     OW52775   2.547   5.987   3.527  0.1589 -0.4211  0.1563
17353SOL    HW152776   2.614   6.030   3.467  0.2805  0.1930  0.7304
17353SOL    HW252777   2.496   5.918   3.475  1.9248 -1.6166 -0.0098
17354SOL     OW52778   7.016   0.740   0.359 -0.0740  0.0117  0.3692
17354SOL    HW152779   6.973   0.830   0.348  0.9669  0.3710 -0.8369
17354SOL    HW252780   7.014   0.691   0.272  2.5241  0.2921  0.1126
17355SOL     OW52781   4.344   8.646   5.257 -0.0229  0.3419 -0.2452
17355SOL    HW152782   4.254   8.689   5.255 -0.2796 -0.0668  2.0968
17355SOL    HW252783   4.414   8.717   5.268 -0.3421  0.3501  1.9749
17357SOL     OW52784   6.169   1.410   3.386  0.0279 -0.2882  0.7133
17357SOL    HW152785   6.224   1.358   3.450  0.8886  0.2399  0.4071
17357SOL    HW252786   6.151   1.501   3.424  1.2838  0.3410 -0.1581
17358SOL     OW52787   9.834   2.273   0.170  0.5619 -0.0779  0.4807
17358SOL    HW152788   9.925   2.247   0.200  0.3463 -1.4144 -0.0194
17358SOL    HW252789   9.802   2.210   0.099 -1.0574 -0.1072  1.2087
17359SOL     OW52790   5.705   8.900   1.762 -0.6638 -0.1200 -0.0776
17359SOL    HW152791   5.788   8.858   1.800 -0.3693 -0.7656 -1.4250
17359SOL    HW252792   5.711   8.901   1.662 -1.4152  1.6225 -0.1138
17361SOL     OW52793   4.036   7.274   2.496  0.2563 -0.0582 -0.0072
17361SOL    HW152794   3.953   7.235   2.536  1.5938 -1.9150  1.0290
17361SOL    HW252795   4.073   7.211   2.428  1.1381  0.5169 -0.0678
17362SOL     OW52796   1.959   4.010   3.630  0.5084  0.0668  0.1811
17362SOL    HW152797   1.934   3.915   3.612 -1.8996  0.6015  0.4819
17362SOL    HW252798   2.037   4.036   3.572  0.6173 -1.8071 -0.5414
17363SOL     OW52799   4.214   0.846   1.480 -0.5698  0.4737  0.0338
17363SOL    HW152800   4.152   0.925   1.480 -0.4554  0.5645  0.1413
17363SOL    HW252801   4.272   0.850   1.399 -0.1236  0.8492  0.3714
17365SOL     OW52802   8.472   2.522   2.881 -0.1080  0.2257  0.1143
17365SOL    HW152803   8.400   2.528   2.951  0.5404  0.4859  0.7664
17365SOL    HW252804   8.478   2.428   2.848  1.0817 -0.3801  2.0121
17366SOL     OW52805   5.399   9.616   3.919  0.4205 -0.0544  1.0332
17366SOL    HW152806   5.353   9.640   3.833  1.3217 -0.9239  0.2952
17366SOL    HW252807   5.446   9.697   3.955  0.4371  0.2006  0.4519
17368SOL     OW52808   8.237   4.221   3.912  0.2432 -0.6290 -0.0966
17368SOL    HW152809   8.290   4.219   3.997 -0.9352 -0.5938  0.6379
17368SOL    HW252810   8.275   4.292   3.851  0.2337  0.2924  0.9542
17369SOL     OW52811   2.602   2.872   4.134 -0.5518 -0.0865 -0.2296
17369SOL    HW152812   2.638   2.965   4.126  0.8781 -0.5705  0.2309
17369SOL    HW252813   2.582   2.835   4.043 -0.5611  0.4687 -0.4503
17370SOL     OW52814   4.102   9.252   3.881  0.2521  0.5191 -0.3691
17370SOL    HW152815   4.071   9.347   3.885  0.4638  0.5144  2.9797
17370SOL    HW252816   4.027   9.193   3.851 -0.0209  1.6624 -1.9860
17371SOL     OW52817   2.818   0.827   4.966 -0.2817 -0.0043 -0.6747
17371SOL    HW152818   2.856   0.842   5.057 -2.3089  0.8234  0.0698
17371SOL    HW252819   2.831   0.909   4.910 -0.0037 -0.1213 -0.7834
17373SOL     OW52820   7.931   8.914   1.625  0.5794 -0.1451 -0.7319
17373SOL    HW152821   7.998   8.969   1.574 -0.2857  0.1557 -1.5707
17373SOL    HW252822   7.934   8.939   1.722  1.2284  0.3287 -0.8686
17374SOL     OW52823   3.950   7.885   4.148 -0.1191  0.0935  0.3349
17374SOL    HW152824   4.009   7.809   4.120 -1.4297 -1.2117  1.0686
17374SOL    HW252825   3.996   7.972   4.129  0.7605 -0.8427 -1.9259
17375SOL     OW52826   9.626   9.497   2.778  0.1603  0.6253  0.1091
17375SOL    HW152827   9.711   9.509   2.728 -0.6439  1.5955 -1.0654
17375SOL    HW252828   9.646   9.477   2.874  1.7061 -0.2421 -0.3834
17376SOL     OW52829  10.004   6.771   1.842  0.0752  0.6887 -0.0993
17376SOL    HW152830   9.912   6.808   1.827 -0.6510 -1.3469 -0.7725
17376SOL    HW252831  10.014   6.743   1.937  0.1472  1.3192  0.0781
17377SOL     OW52832   5.729   9.095   2.789  0.1823  0.1027  0.5943
17377SOL    HW152833   5.800   9.111   2.720 -0.9842  0.5371 -0.5280
17377SOL    HW252834   5.642   9.076   2.743 -0.4125 -0.5271  1.9533
17378SOL     OW52835   6.437   0.852   0.282 -0.5299 -0.3370 -0.2719
17378SOL    HW152836   6.359   0.799   0.249 -1.1988 -0.0762  0.8621
17378SOL    HW252837   6.474   0.808   0.365 -0.2824  0.2511 -0.0721
17379SOL     OW52838   3.227   1.966   0.228 -0.3675  0.4446 -0.2163
17379SOL    HW152839   3.255   2.062   0.232 -0.4041  0.4444  0.0401
17379SOL    HW252840   3.173   1.943   0.309  0.3671 -0.0223  0.1427
17380SOL     OW52841   3.047   5.024   2.322  0.0720  0.2523  0.0865
17380SOL    HW152842   3.042   5.050   2.225  1.3965  1.6893  0.3783
17380SOL    HW252843   3.130   5.064   2.362 -0.3179 -0.5869  1.7371
17381SOL     OW52844   7.791   1.285   1.143  0.1803 -0.1561 -0.2455
17381SOL    HW152845   7.755   1.228   1.069  1.2944 -2.0075  0.6026
17381SOL    HW252846   7.726   1.288   1.219 -1.1080  2.0058 -1.3796
17382SOL     OW52847   8.463   2.368   1.891 -0.1324 -0.1026 -0.2273
17382SOL    HW152848   8.440   2.381   1.795  1.7435  0.9592 -0.5621
17382SOL    HW252849   8.561   2.385   1.904 -0.9202  2.8695  2.3982
17383SOL     OW52850   0.131   7.679   4.647  0.0864 -0.3450  0.0333
17383SOL    HW152851   0.143   7.779   4.644  0.4033 -0.3750  0.3766
17383SOL    HW252852   0.054   7.657   4.707 -0.9669 -0.2246 -1.2487
17384SOL     OW52853   1.679   2.349   1.153 -0.4462 -0.1983 -0.4227
17384SOL    HW152854   1.624   2.304   1.223  1.6549 -0.5120  1.0666
17384SOL    HW252855   1.689   2.446   1.175  1.0371 -0.4959  0.2687
17385SOL     OW52856   6.776   1.726   0.225  0.1308 -0.0189 -0.1237
17385SOL    HW152857   6.844   1.797   0.244  0.1325 -0.0553  0.0016
17385SOL    HW252858   6.809   1.638   0.258  0.2457 -0.1281 -0.5185
17386SOL     OW52859   3.766   1.182   0.409  0.1160  0.0646  0.0829
17386SOL    HW152860   3.832   1.195   0.335  1.0275 -1.8901  0.5114
17386SOL    HW252861   3.744   1.270   0.450 -1.1625  1.3194 -3.1127
17387SOL     OW52862   1.452   8.635   0.069  0.4212 -0.3150 -0.4922
17387SOL    HW152863   1.501   8.721   0.055  0.5955 -0.1773  0.9496
17387SOL    HW252864   1.411   8.634   0.160 -0.6544 -1.2330 -0.9732
17388SOL     OW52865   3.829   3.735   2.059 -0.6291 -0.4311  0.1899
17388SOL    HW152866   3.828   3.771   2.153 -0.7995 -1.9899  0.8030
17388SOL    HW252867   3.819   3.811   1.995 -1.5509  0.5678  1.4682
17389SOL     OW52868   4.129   2.476   4.549 -0.0456 -1.0268  0.3825
17389SOL    HW152869   4.226   2.486   4.568 -0.3417  1.9583  0.6125
17389SOL    HW252870   4.085   2.424   4.623  1.4368 -2.8957 -0.0214
17390SOL     OW52871   3.761   8.589   2.922 -0.3506 -0.2330 -0.4431
17390SOL    HW152872   3.830   8.522   2.951 -0.8387 -0.2936  0.5982
17390SOL    HW252873   3.688   8.592   2.989  0.3033  2.2867  0.2052
17391SOL     OW52874   6.246   7.395   2.712 -0.0160 -0.1877  0.0626
17391SOL    HW152875   6.190   7.451   2.773 -1.3052 -0.6643 -0.6769
17391SOL    HW252876   6.325   7.449   2.681  0.0339  0.4260  1.2446
17393SOL     OW52877   2.555   4.752   1.666  0.4795  0.2718  0.5996
17393SOL    HW152878   2.504   4.743   1.580  0.4203  1.2906  0.5292
17393SOL    HW252879   2.533   4.674   1.726 -2.1188  1.3136  1.0764
17394SOL     OW52880   7.770   6.604   3.406 -0.3794 -0.0686 -0.3504
17394SOL    HW152881   7.853   6.575   3.453 -0.1363 -1.0398 -1.3525
17394SOL    HW252882   7.717   6.666   3.465  0.5350 -0.2691  0.6834
17395SOL     OW52883   7.829   7.497   2.941  0.1001  0.1393  0.0236
17395SOL    HW152884   7.758   7.488   2.871  2.1252 -1.8124 -1.8262
17395SOL    HW252885   7.910   7.539   2.902  0.6650  0.6051  1.6506
17396SOL     OW52886   1.538   8.179   3.306  0.5214  0.7618  0.2667
17396SOL    HW152887   1.445   8.185   3.268  0.3882  0.6269  0.5681
17396SOL    HW252888   1.561   8.083   3.322  1.8323  0.5583 -2.5414
17397SOL     OW52889   9.973   5.954   2.279 -0.0108 -0.2178  0.1236
17397SOL    HW152890   9.882   5.917   2.296  0.3746 -0.5146  1.5840
17397SOL    HW252891   9.997   6.019   2.351  0.2895  1.0905 -1.1256
17398SOL     OW52892   2.998   4.215   3.857  0.8055 -0.1557 -0.2599
17398SOL    HW152893   2.905   4.182   3.875  0.3265  0.7063 -1.0614
17398SOL    HW252894   3.060   4.184   3.929  0.0369 -1.3466 -0.1005
17399SOL     OW52895   2.637   0.776   3.650  0.4340  1.1664  0.3466
17399SOL    HW152896   2.547   0.775   3.693  1.2316  0.5738  2.0440
17399SOL    HW252897   2.657   0.867   3.615 -1.3951  0.9688 -1.2991
17400SOL     OW52898   1.864   7.370   1.115 -0.1555 -0.2014 -0.1940
17400SOL    HW152899   1.774   7.399   1.081  0.6013 -0.6632 -2.6275
17400SOL    HW252900   1.936   7.418   1.065  0.9946 -0.7779  0.8806
17402SOL     OW52901   4.709   1.524   4.369 -0.0889  0.4279  0.2459
17402SOL    HW152902   4.764   1.596   4.327 -0.0429  0.2656  0.0266
17402SOL    HW252903   4.721   1.438   4.318  0.0072  0.2172  0.6210
17403SOL     OW52904   5.982   0.974   1.936 -0.3302 -0.6816 -0.0110
17403SOL    HW152905   6.042   0.901   1.970 -1.1702 -1.5548 -0.3980
17403SOL    HW252906   6.014   1.062   1.972 -0.1571 -1.3894  1.6103
17405SOL     OW52907   9.224   3.979   2.388  0.1069 -0.3929 -0.6066
17405SOL    HW152908   9.219   3.947   2.482  0.2513 -0.3578 -0.5865
17405SOL    HW252909   9.151   3.938   2.334  0.4694 -0.9829 -0.6489
17407SOL     OW52910   3.757   5.267   3.957 -0.4634 -0.3466  0.1069
17407SOL    HW152911   3.829   5.223   4.009 -0.2288 -0.4319 -0.2861
17407SOL    HW252912   3.760   5.235   3.862 -1.7967 -1.3039  0.3702
17408SOL     OW52913   8.106   4.141   1.898 -0.0262  0.2167  0.4002
17408SOL    HW152914   8.013   4.173   1.883 -0.4094 -0.6620  0.8617
17408SOL    HW252915   8.166   4.219   1.914 -0.7717  0.7561  0.6089
17410SOL     OW52916   9.392   7.873   0.715 -0.4932 -0.0272 -0.1467
17410SOL    HW152917   9.414   7.953   0.770 -2.3285  1.3168 -1.3344
17410SOL    HW252918   9.325   7.817   0.763  0.5949 -0.7428  0.5660
17411SOL     OW52919   2.331   3.543   0.405 -0.7103 -0.1411  0.1700
17411SOL    HW152920   2.404   3.606   0.379  0.7931 -1.4494  1.1297
17411SOL    HW252921   2.351   3.505   0.495 -2.7999 -0.2151  0.6268
17412SOL     OW52922   9.129   1.804   5.182  0.1966 -0.1610  0.5468
17412SOL    HW152923   9.072   1.792   5.264  1.7230 -1.2535  1.4602
17412SOL    HW252924   9.178   1.719   5.162  1.4444  0.7402 -0.2860
17413SOL     OW52925   0.409   4.732   5.093 -0.7870  0.1226  0.3747
17413SOL    HW152926   0.355   4.648   5.097  0.2015 -0.5834 -0.6664
17413SOL    HW252927   0.506   4.708   5.082 -0.4633  1.3920  0.4116
17414SOL     OW52928   8.127   4.440   1.641  0.5295  0.3626 -0.0797
17414SOL    HW152929   8.046   4.385   1.660 -0.0149  1.4238  0.6379
17414SOL    HW252930   8.187   4.389   1.579  0.1474 -1.1557  0.7788
17415SOL     OW52931   1.939   5.163   3.520  0.0054 -0.3280 -0.6162
17415SOL    HW152932   2.032   5.194   3.499 -0.4796  1.5694 -0.0913
17415SOL    HW252933   1.943   5.088   3.586  1.1504  0.0753 -0.2129
17417SOL     OW52934   9.606   1.277   4.528 -0.0741 -0.0976  0.4915
17417SOL    HW152935   9.660   1.211   4.475 -0.6108 -0.5835  0.5532
17417SOL    HW252936   9.597   1.246   4.622 -0.3554  0.0449  0.5132
17420SOL     OW52937   1.505   4.107   0.453 -0.3672 -0.1639 -0.6116
17420SOL    HW152938   1.412   4.113   0.416 -1.2557  1.1445  1.6676
17420SOL    HW252939   1.557   4.188   0.426  0.3310 -1.1934 -2.4055
17421SOL     OW52940   8.789   6.893   3.091 -0.5797  0.2743  0.2909
17421SOL    HW152941   8.731   6.933   3.019 -1.2738 -1.1534  0.0327
17421SOL    HW252942   8.734   6.831   3.147  0.5594 -0.5964  0.4491
17422SOL     OW52943   4.398   3.438   1.570 -0.1210  0.0773 -0.1879
17422SOL    HW152944   4.459   3.359   1.577  0.7894  0.9515  2.2488
17422SOL    HW252945   4.452   3.519   1.548 -0.7824  0.4031 -0.6215
17423SOL     OW52946   2.126   5.965   0.454 -0.1328 -1.0877  0.2994
17423SOL    HW152947   2.069   5.885   0.471 -2.0113 -0.1564 -1.4734
17423SOL    HW252948   2.072   6.048   0.466  1.2504 -0.1393  0.0998
17424SOL     OW52949   0.441   5.100   1.812  0.3608 -0.0284 -0.2977
17424SOL    HW152950   0.507   5.071   1.882 -1.5179  1.2564  2.1181
17424SOL    HW252951   0.376   5.026   1.796 -0.0669  0.1805  0.4272
17426SOL     OW52952   3.621   7.935   1.251  0.0085 -0.0372 -0.5992
17426SOL    HW152953   3.575   7.847   1.262 -1.0512  0.7258  1.2364
17426SOL    HW252954   3.607   7.969   1.158  1.0596 -2.1408 -1.5574
17427SOL     OW52955   1.978   8.685   2.425  0.3674  0.8811 -0.2319
17427SOL    HW152956   1.936   8.775   2.440  2.2130  1.5806  0.9522
17427SOL    HW252957   1.972   8.662   2.328 -0.8905  1.8918 -0.4153
17429SOL     OW52958   9.453   0.974   2.319  0.2184  0.1135  0.0135
17429SOL    HW152959   9.461   0.883   2.279  1.6136 -0.1866  0.9767
17429SOL    HW252960   9.404   1.033   2.255 -1.4793 -1.5180 -0.2612
17430SOL     OW52961   4.281   0.155   3.881  0.8510 -0.1790 -0.1741
17430SOL    HW152962   4.308   0.155   3.784 -0.6406 -2.2301 -0.6228
17430SOL    HW252963   4.219   0.232   3.897 -0.5377 -1.0191 -1.3559
17431SOL     OW52964   4.674   0.721   0.133 -0.1060 -0.0524  0.3631
17431SOL    HW152965   4.628   0.632   0.134 -1.7926  0.7906  0.4393
17431SOL    HW252966   4.628   0.781   0.067  2.7423 -0.1045 -1.7711
17432SOL     OW52967   2.350   7.873   4.147 -0.1768  0.1359  0.0957
17432SOL    HW152968   2.310   7.928   4.220 -2.7736 -0.9276 -0.4902
17432SOL    HW252969   2.331   7.915   4.058 -0.7218 -0.7971 -0.2387
17433SOL     OW52970   8.563   1.612   4.250 -0.3136 -0.0920  0.2951
17433SOL    HW152971   8.552   1.705   4.215  1.3814  0.4893  1.2365
17433SOL    HW252972   8.506   1.549   4.197  0.5356  1.0749 -2.0704
17434SOL     OW52973   6.249   9.550   5.319 -0.2340  0.1588 -0.0183
17434SOL    HW152974   6.206   9.625   5.369 -0.3127  0.7629 -0.9823
17434SOL    HW252975   6.223   9.554   5.222 -0.3196 -1.1737 -0.0590
17435SOL     OW52976   7.687   1.890   2.368 -0.0560  0.6520  0.1633
17435SOL    HW152977   7.610   1.931   2.320 -1.4036  1.5477  2.9738
17435SOL    HW252978   7.724   1.955   2.435  1.2470 -0.7969  0.8985
17436SOL     OW52979   7.846   4.287   0.906 -0.9480 -0.5836  0.2966
17436SOL    HW152980   7.896   4.335   0.978 -1.5985  1.0329 -0.2897
17436SOL    HW252981   7.863   4.332   0.818 -2.5578 -0.6689 -0.0764
17437SOL     OW52982   2.066   5.665   4.482 -0.5259  0.1757  0.4897
17437SOL    HW152983   2.074   5.760   4.450  2.8456  0.1026  0.8914
17437SOL    HW252984   2.057   5.664   4.582 -1.1145  0.0875  0.4366
17438SOL     OW52985   8.607   3.139   0.156 -0.0859 -0.0539 -0.0612
17438SOL    HW152986   8.619   3.221   0.211 -1.2687  0.8709 -1.1714
17438SOL    HW252987   8.658   3.148   0.071 -1.4074  0.1521 -0.8351
17439SOL     OW52988   0.772   2.091   1.796 -0.5247  0.8041 -0.5298
17439SOL    HW152989   0.835   2.049   1.861  0.0948  2.7489  0.1756
17439SOL    HW252990   0.680   2.093   1.834 -0.7753 -0.8953 -1.0321
17441SOL     OW52991   0.980   9.187   1.014  0.1157  0.1710 -0.0408
17441SOL    HW152992   0.893   9.217   1.055 -0.9808  0.0437 -2.1856
17441SOL    HW252993   1.055   9.241   1.052 -0.9605  0.5936  1.5322
17442SOL     OW52994   7.649   1.495   4.054 -0.2647 -0.0644  0.8307
17442SOL    HW152995   7.578   1.425   4.049 -1.7838  1.4912  0.3717
17442SOL    HW252996   7.705   1.491   3.972 -0.8210 -0.2431  0.4595
17443SOL     OW52997   1.230   4.899   3.144 -0.1706 -0.3023 -1.2724
17443SOL    HW152998   1.297   4.828   3.165  1.0778  1.0066 -0.8228
17443SOL    HW252999   1.263   4.955   3.068 -0.5121  0.6659 -0.7139
17444SOL     OW53000   8.581   0.051   2.127 -0.1943  0.4410  0.6842
17444SOL    HW153001   8.554  -0.038   2.091  0.5364  0.6903 -0.5204
17444SOL    HW253002   8.555   0.058   2.223 -1.4242 -0.5669  0.4314
17445SOL     OW53003   3.302   0.846   2.083 -0.3854  0.3809 -0.2498
17445SOL    HW153004   3.272   0.928   2.035  0.8189  1.5689  0.9493
17445SOL    HW253005   3.235   0.773   2.071 -1.3928  1.4869 -1.4780
17446SOL     OW53006   0.761   2.852   3.307 -0.1780  0.3780  0.0758
17446SOL    HW153007   0.727   2.788   3.238 -1.8914  1.8027 -0.4479
17446SOL    HW253008   0.714   2.836   3.394 -0.7851  1.0525 -0.1189
17447SOL     OW53009   1.889   3.055   1.686  0.1570  0.4352  0.4911
17447SOL    HW153010   1.939   3.041   1.771  0.7576  2.6182  0.5291
17447SOL    HW253011   1.794   3.080   1.707  0.2213  0.6615  0.5111
17448SOL     OW53012   7.818   1.150   0.497 -0.2690 -0.2134 -0.3078
17448SOL    HW153013   7.871   1.106   0.425 -0.0703 -1.2041  0.4431
17448SOL    HW253014   7.722   1.155   0.469 -0.3113 -1.2179 -0.3436
17451SOL     OW53015   8.731   4.394   3.148  0.0111  0.4517  0.7627
17451SOL    HW153016   8.657   4.390   3.081  0.7584  0.3727 -0.0710
17451SOL    HW253017   8.811   4.436   3.106  0.2374  1.1438  1.8560
17452SOL     OW53018   5.076   5.715   0.847 -0.4638  0.0771  0.2073
17452SOL    HW153019   5.149   5.652   0.875  0.4174  1.6493  1.5541
17452SOL    HW253020   5.023   5.742   0.927 -2.7930 -1.3011 -0.8075
17453SOL     OW53021   0.803   9.959   1.175  0.0309 -0.8364 -0.0006
17453SOL    HW153022   0.836   9.865   1.180  0.3574 -0.8683 -2.4827
17453SOL    HW253023   0.879  10.022   1.190  0.1233 -0.9441 -0.0197
17454SOL     OW53024   8.298   4.658   1.355  0.0596  0.0298  0.1571
17454SOL    HW153025   8.329   4.721   1.426  3.7492 -1.6599  0.1427
17454SOL    HW253026   8.244   4.707   1.287  1.5474  2.8592  0.9576
17456SOL     OW53027   4.883   7.586   1.599 -0.2615  0.0704  0.0619
17456SOL    HW153028   4.881   7.589   1.699  0.2217  0.1162  0.0679
17456SOL    HW253029   4.928   7.502   1.568  0.3183  0.4506 -0.1200
17457SOL     OW53030   7.500   2.593   0.992 -0.3137 -0.0080  0.3490
17457SOL    HW153031   7.440   2.515   0.975  0.0506 -0.1208 -0.4231
17457SOL    HW253032   7.547   2.618   0.907  1.0175 -0.1691  1.0196
17459SOL     OW53033   9.246   7.716   2.998  0.0405 -0.1150 -0.4052
17459SOL    HW153034   9.293   7.679   3.077 -1.4043 -0.2497  0.4082
17459SOL    HW253035   9.246   7.816   3.003 -0.9687 -0.1460  0.3191
17460SOL     OW53036   5.377   1.210   0.730 -0.2506  0.5615 -0.4369
17460SOL    HW153037   5.385   1.115   0.700  1.1929  0.6861 -0.4564
17460SOL    HW253038   5.342   1.213   0.824 -0.8530  0.0420 -0.6407
17461SOL     OW53039   8.075   1.856   2.839 -0.1458  0.2080  0.2171
17461SOL    HW153040   8.058   1.759   2.825 -1.0710  0.4185 -0.1743
17461SOL    HW253041   7.988   1.903   2.857  0.7083  0.3430  4.4155
17465SOL     OW53042   2.004   6.262   0.377 -0.6926  0.0826 -0.3086
17465SOL    HW153043   1.972   6.330   0.311  0.0656 -1.0049 -1.8276
17465SOL    HW253044   2.073   6.303   0.436 -0.6587  0.8010 -0.8448
17466SOL     OW53045   5.149   4.769   1.394  0.4166  0.1420  0.1232
17466SOL    HW153046   5.060   4.723   1.394 -0.7348  2.2645  1.2681
17466SOL    HW253047   5.219   4.706   1.427 -0.6125 -1.5996 -0.8864
17467SOL     OW53048   0.960   3.928   4.521  0.1190 -0.0437  0.6395
17467SOL    HW153049   1.032   3.965   4.463 -0.2545  0.9205  0.7858
17467SOL    HW253050   0.872   3.966   4.493 -0.2097 -0.4656  1.0984
17471SOL     OW53051   7.667   6.690   4.457  0.6790  0.4292 -0.3161
17471SOL    HW153052   7.581   6.649   4.430 -0.5612  2.4353  0.4494
17471SOL    HW253053   7.743   6.638   4.418 -0.9118  0.1009 -3.1151
17473SOL     OW53054   0.068   1.787   4.034  0.3182  0.5538  0.1715
17473SOL    HW153055  -0.028   1.764   4.024  0.1480  0.7554  1.2527
17473SOL    HW253056   0.120   1.706   4.061  0.4375  0.4642 -0.3253
17474SOL     OW53057   7.519   1.276   5.021  0.5889  0.4256 -0.4960
17474SOL    HW153058   7.499   1.373   5.035 -0.0783  0.2207 -0.0275
17474SOL    HW253059   7.458   1.238   4.952 -1.2457 -0.3881  1.5016
17475SOL     OW53060   7.326   1.113   1.997 -0.3871 -0.2068  0.3407
17475SOL    HW153061   7.338   1.036   2.060  1.3583  1.2769  1.9202
17475SOL    HW253062   7.233   1.148   2.004 -1.3061 -2.3848 -0.6779
17476SOL     OW53063   1.389   7.353   3.829  0.2370  0.1361 -0.0364
17476SOL    HW153064   1.337   7.321   3.909  0.5310  0.3067  0.2196
17476SOL    HW253065   1.358   7.445   3.804 -1.0609 -0.5797 -1.1611
17477SOL     OW53066   3.072   8.871   0.501 -0.7502 -0.0639  0.0583
17477SOL    HW153067   2.996   8.822   0.457 -0.6133 -2.1156  1.9996
17477SOL    HW253068   3.051   8.883   0.599  0.2299  1.8115  0.0580
17478SOL     OW53069   7.112   0.370   1.627  0.0989  0.7552  0.3142
17478SOL    HW153070   7.178   0.340   1.557 -0.2740  0.1073  0.2420
17478SOL    HW253071   7.025   0.390   1.583 -0.5642 -1.0357  0.7869
17479SOL     OW53072   4.073   7.165   2.818  0.3738 -0.2625 -0.3936
17479SOL    HW153073   4.079   7.131   2.724 -0.7054 -0.5837 -0.3529
17479SOL    HW253074   4.089   7.264   2.819  0.9346 -0.3501 -0.8452
17480SOL     OW53075   8.934   8.622   4.802  0.4651 -0.7616 -0.3383
17480SOL    HW153076   8.995   8.574   4.739  0.7836 -1.2160  0.3121
17480SOL    HW253077   8.843   8.581   4.797  0.0857  0.2032 -1.6386
17481SOL     OW53078   9.280   1.094   1.120  0.6001 -0.0952  0.5026
17481SOL    HW153079   9.186   1.130   1.122  0.4605 -0.3841 -0.5388
17481SOL    HW253080   9.278   0.996   1.137  0.6405 -0.2204 -0.1831
17482SOL     OW53081   3.313   1.420   4.552  0.2122 -0.0835  0.1321
17482SOL    HW153082   3.216   1.417   4.527  0.2660  1.2809 -0.2549
17482SOL    HW253083   3.340   1.514   4.568  2.0734 -0.1996 -2.1052
17483SOL     OW53084   9.677   2.966   3.895 -0.4634  0.3605 -0.3000
17483SOL    HW153085   9.613   2.909   3.845 -2.0174  1.5762  0.2455
17483SOL    HW253086   9.682   3.056   3.852 -1.6583  1.3493  1.5194
17484SOL     OW53087   8.704   1.845   1.479 -0.4116 -0.3607 -0.5498
17484SOL    HW153088   8.676   1.938   1.503 -0.6083 -0.3709 -0.7445
17484SOL    HW253089   8.623   1.788   1.463 -0.4439 -1.5879  3.3712
17485SOL     OW53090   9.494   1.665   4.577  0.0372 -0.2927  0.1882
17485SOL    HW153091   9.396   1.663   4.598 -0.3182  2.3304 -1.0287
17485SOL    HW253092   9.510   1.619   4.489 -0.6772  2.4894 -1.4726
17486SOL     OW53093   2.308   3.554   1.690 -0.2433 -0.0920 -0.4506
17486SOL    HW153094   2.264   3.624   1.634  0.5435 -0.4543 -1.5394
17486SOL    HW253095   2.338   3.479   1.632  1.1971 -0.1715  0.3823
17487SOL     OW53096   5.347   1.376   2.094 -0.0714  0.4680 -0.5989
17487SOL    HW153097   5.289   1.433   2.152 -0.8429 -0.4207 -0.4899
17487SOL    HW253098   5.407   1.321   2.150  1.7834  2.2902 -0.7322
17489SOL     OW53099   2.456   5.978   1.161  0.3131 -0.5214  0.2796
17489SOL    HW153100   2.416   5.886   1.153  2.3004 -1.3302 -0.9105
17489SOL    HW253101   2.384   6.044   1.183 -1.4911 -2.0658 -0.7892
17490SOL     OW53102   9.564   7.840   3.887  0.4053 -0.3654 -0.0622
17490SOL    HW153103   9.564   7.937   3.863  0.8745 -0.6937 -1.4337
17490SOL    HW253104   9.646   7.820   3.941 -0.9323  0.4877  2.3900
17491SOL     OW53105   7.398   1.243   3.042 -0.0891  0.0568  0.0838
17491SOL    HW153106   7.373   1.340   3.044 -1.0201 -0.1680 -0.4811
17491SOL    HW253107   7.488   1.232   3.000  0.7366  0.8181  1.5912
17492SOL     OW53108   7.175   1.183   3.463  0.3784 -0.8706 -0.3971
17492SOL    HW153109   7.134   1.211   3.551  2.4736 -1.1711  0.7089
17492SOL    HW253110   7.164   1.085   3.451  0.7921 -0.9583 -0.0794
17493SOL     OW53111   9.666   4.816   0.127  0.1027 -0.0729 -0.1230
17493SOL    HW153112   9.630   4.883   0.062  1.3305 -0.1677 -0.9050
17493SOL    HW253113   9.677   4.858   0.216  0.6376  0.6891 -0.5523
17494SOL     OW53114   9.180   2.384   1.431  0.0192  0.1544 -0.0761
17494SOL    HW153115   9.246   2.315   1.400  0.9934  1.2981 -0.5753
17494SOL    HW253116   9.095   2.374   1.380  0.3176 -0.3790 -0.4742
17495SOL     OW53117   2.871   1.399   3.274 -0.3500 -0.4849 -0.0805
17495SOL    HW153118   2.885   1.411   3.372  0.4697 -2.1264  0.0155
17495SOL    HW253119   2.919   1.471   3.224 -1.4122  0.8155  0.7386
17496SOL     OW53120   8.699   5.564   5.015  0.2598  0.2955  0.7528
17496SOL    HW153121   8.611   5.576   5.061 -0.2917  0.5008 -0.3277
17496SOL    HW253122   8.683   5.553   4.917  1.3775 -0.7048  0.6850
17497SOL     OW53123   0.845   4.888   0.475 -0.3345 -0.5937  0.3710
17497SOL    HW153124   0.847   4.907   0.573  2.1464 -1.1172  0.4580
17497SOL    HW253125   0.848   4.974   0.424  0.4208 -0.3739  0.7722
17498SOL     OW53126   6.837   4.947   1.071  0.2683 -0.3393 -0.3103
17498SOL    HW153127   6.836   4.855   1.033 -0.8076 -0.8127  0.8320
17498SOL    HW253128   6.900   4.950   1.150 -1.2339 -0.6343  0.9205
17499SOL     OW53129   1.030   9.985   2.932 -0.5373  0.3003  0.1162
17499SOL    HW153130   1.072   9.933   3.006  1.8198 -0.6996 -1.8392
17499SOL    HW253131   1.094  10.055   2.900 -1.1637  0.1246 -1.5807
17500SOL     OW53132   2.264   3.749   1.220 -0.2985  0.3033 -0.1911
17500SOL    HW153133   2.193   3.817   1.241  1.0809  1.9734 -0.8284
17500SOL    HW253134   2.238   3.661   1.259 -2.4410  1.0353  0.0859
17502SOL     OW53135   2.040   1.420   2.350 -0.3996 -0.1191  0.2193
17502SOL    HW153136   1.994   1.502   2.387  1.9295  1.0267  0.6762
17502SOL    HW253137   2.108   1.448   2.282  0.9593 -1.6250  0.9398
17503SOL     OW53138   4.272   3.091   2.911 -0.7204 -0.1755 -0.8445
17503SOL    HW153139   4.271   3.157   2.837  0.4802 -0.5039 -1.1660
17503SOL    HW253140   4.192   3.105   2.970  0.0785  2.2969 -0.2683
17506SOL     OW53141   6.375   0.843   2.830 -0.2166  0.6833  0.1619
17506SOL    HW153142   6.310   0.918   2.815 -0.4358 -0.0672 -2.9519
17506SOL    HW253143   6.468   0.878   2.826 -0.3496  1.1766  1.1797
17507SOL     OW53144   2.586   0.686   1.680  0.1213  0.2588 -0.1947
17507SOL    HW153145   2.628   0.776   1.690  0.5129  0.1260 -0.6542
17507SOL    HW253146   2.586   0.659   1.583 -0.6952  0.1040 -0.1597
17508SOL     OW53147   3.299   4.275   3.711 -0.0986  0.1534 -0.2614
17508SOL    HW153148   3.230   4.346   3.699 -1.5915 -1.1561  0.4059
17508SOL    HW253149   3.300   4.215   3.632 -0.5679 -0.5365  0.2503
17509SOL     OW53150   5.189   4.324   1.641  0.2205  0.1583 -0.4919
17509SOL    HW153151   5.182   4.230   1.673  0.9876 -0.6471 -2.6032
17509SOL    HW253152   5.122   4.381   1.688 -0.2254 -1.4407  0.8175
17510SOL     OW53153   1.034   7.118   2.891 -0.3849 -0.2860 -0.0954
17510SOL    HW153154   0.938   7.096   2.909 -0.7414 -0.2230 -1.8456
17510SOL    HW253155   1.086   7.033   2.879 -0.8256 -0.3025 -2.1003
17511SOL     OW53156   3.490   6.879   1.201 -0.3586  0.0004  0.3464
17511SOL    HW153157   3.436   6.855   1.281  0.5597  2.0150  1.6057
17511SOL    HW253158   3.511   6.796   1.149 -1.9782 -1.1704  1.5231
17512SOL     OW53159   9.250   7.978   0.502 -0.3601 -0.1975  0.3508
17512SOL    HW153160   9.269   8.075   0.488 -2.6803  0.2130 -0.2278
17512SOL    HW253161   9.299   7.945   0.582  1.0543  1.2574  0.0968
17513SOL     OW53162   5.425   9.845   1.152 -0.1023 -0.0201 -0.1189
17513SOL    HW153163   5.357   9.794   1.098 -0.7515 -1.0572  1.6334
17513SOL    HW253164   5.391   9.937   1.171 -0.4079 -0.0689 -0.4267
17515SOL     OW53165   1.556   4.349   4.465  0.0340  0.2936 -0.0950
17515SOL    HW153166   1.503   4.266   4.447  0.0547  0.3851 -0.5851
17515SOL    HW253167   1.566   4.361   4.564 -0.6679  0.1567 -0.0046
17516SOL     OW53168   3.815   3.446   1.628  0.0600  0.7884  0.4522
17516SOL    HW153169   3.833   3.500   1.546 -0.0365  1.0750  0.6187
17516SOL    HW253170   3.886   3.377   1.639  0.2646  0.9791  0.3218
17517SOL     OW53171   7.299   9.741   4.147  0.2891 -0.0561 -0.1568
17517SOL    HW153172   7.325   9.765   4.241  1.3839  0.2668 -0.5428
17517SOL    HW253173   7.336   9.808   4.083  1.6088 -1.5945 -1.0462
17518SOL     OW53174   8.364   3.438   5.023  0.1660 -0.2971 -0.8139
17518SOL    HW153175   8.433   3.371   5.048 -0.5593 -0.4675  0.7547
17518SOL    HW253176   8.285   3.392   4.981  0.2694 -0.2829 -1.0213
17519SOL     OW53177   0.104   0.674   1.096 -0.1952 -0.1022 -0.2242
17519SOL    HW153178   0.129   0.737   1.022  0.7497 -0.9369 -0.6263
17519SOL    HW253179   0.072   0.588   1.056 -0.4834 -0.2496  0.3308
17520SOL     OW53180   0.228   6.801   4.433 -0.4160 -0.4824  0.3941
17520SOL    HW153181   0.148   6.754   4.394  0.0227 -0.8052 -0.1240
17520SOL    HW253182   0.307   6.740   4.431  0.0216  0.0794  0.2396
17521SOL     OW53183   3.229   8.690   3.310 -0.1707 -0.5560  0.0437
17521SOL    HW153184   3.279   8.608   3.338 -0.5079 -0.4052  1.1009
17521SOL    HW253185   3.213   8.687   3.211 -1.0106 -2.2295  0.2030
17523SOL     OW53186   3.806   3.823   1.545  0.1689  0.4680  0.1570
17523SOL    HW153187   3.742   3.826   1.621  1.6494  2.6473  1.3526
17523SOL    HW253188   3.829   3.727   1.524  0.3129 -0.1437  2.9267
17524SOL     OW53189   0.725   7.219   4.580 -0.1854  0.4106  0.8153
17524SOL    HW153190   0.665   7.291   4.615  0.5481  1.1788  0.4868
17524SOL    HW253191   0.729   7.224   4.481 -2.4035 -1.8822  0.5541
17525SOL     OW53192   0.129   3.922   0.714 -0.2686  0.9163  0.4590
17525SOL    HW153193   0.116   3.993   0.784  0.2925  0.2233  1.2684
17525SOL    HW253194   0.042   3.904   0.669 -0.8997  0.5398  1.7864
17526SOL     OW53195   1.534   2.538   1.582  0.3757 -0.0544 -0.5537
17526SOL    HW153196   1.621   2.492   1.596  0.4875  0.2703 -0.1538
17526SOL    HW253197   1.544   2.636   1.604 -0.4198 -0.2567  0.8000
17527SOL     OW53198   5.698   8.267   3.895  0.3965 -0.2978  0.0601
17527SOL    HW153199   5.687   8.343   3.959 -0.8941 -0.4360  0.0005
17527SOL    HW253200   5.763   8.293   3.824  0.6377  0.4259  0.5441
17529SOL     OW53201   4.142   3.619   4.134 -0.2717  0.5710  0.2136
17529SOL    HW153202   4.191   3.629   4.220 -1.1002 -0.1901  0.7947
17529SOL    HW253203   4.054   3.666   4.140  0.0060  1.1746 -0.4916
17530SOL     OW53204   3.111   9.310   3.576 -0.3561 -0.0546  0.2683
17530SOL    HW153205   3.095   9.402   3.611  1.9176  0.1595  0.8267
17530SOL    HW253206   3.126   9.313   3.478 -0.9782  0.0676  0.1734
17531SOL     OW53207   0.315   8.651   0.518  0.1947 -0.4776  0.3445
17531SOL    HW153208   0.275   8.559   0.511  0.5240 -0.6535  0.7297
17531SOL    HW253209   0.369   8.670   0.436 -0.4942 -0.3275 -0.0774
17532SOL     OW53210   7.585   1.401   0.655  0.3403 -0.3536 -0.3351
17532SOL    HW153211   7.577   1.308   0.691 -0.1039 -0.9682 -1.9975
17532SOL    HW253212   7.529   1.464   0.711  0.8929 -1.0089  0.9804
17533SOL     OW53213   5.289   1.212   3.618 -0.6053 -0.2622  0.0684
17533SOL    HW153214   5.191   1.224   3.634 -0.3230  1.8904  0.3736
17533SOL    HW253215   5.339   1.286   3.663  1.0552 -0.4917 -1.3430
17534SOL     OW53216   1.809   5.034   3.991 -1.0019 -0.0637 -0.6008
17534SOL    HW153217   1.841   5.126   3.967  0.0796 -0.4376 -0.6378
17534SOL    HW253218   1.821   5.018   4.089 -1.8309  0.0832 -0.4770
17536SOL     OW53219   2.336   6.118   2.879 -0.2598 -0.0145  0.0663
17536SOL    HW153220   2.275   6.196   2.891  0.4681  1.0214 -2.5085
17536SOL    HW253221   2.283   6.033   2.882 -1.6367  0.7970 -0.8467
17537SOL     OW53222   0.268   2.592   3.331  0.4708 -0.0055  0.1917
17537SOL    HW153223   0.205   2.526   3.291  1.1416 -0.4244 -0.1755
17537SOL    HW253224   0.339   2.617   3.264  1.0614 -0.0195  0.7995
17538SOL     OW53225   0.903   1.537   4.258  0.4522 -0.3520 -0.1238
17538SOL    HW153226   0.900   1.588   4.171 -0.7036  0.1763  0.2243
17538SOL    HW253227   0.828   1.472   4.261  0.7793 -0.7113  0.2810
17540SOL     OW53228   4.316   9.743   0.361  0.1519 -0.2882  0.4283
17540SOL    HW153229   4.377   9.673   0.398 -1.2133 -1.5219  0.4216
17540SOL    HW253230   4.257   9.777   0.435 -0.8492 -0.9231 -0.0623
17542SOL     OW53231   9.761   7.989   0.662  0.4855  0.5158 -0.0548
17542SOL    HW153232   9.772   7.954   0.756 -0.3456 -0.8745 -0.4643
17542SOL    HW253233   9.704   8.071   0.664  1.3415  1.1028  0.7710
17543SOL     OW53234   2.442   5.484   3.949  0.2232  0.3302 -0.5450
17543SOL    HW153235   2.374   5.483   4.022 -0.0160  2.7229 -0.7082
17543SOL    HW253236   2.532   5.461   3.987 -0.1639  0.0194  0.1991
17544SOL     OW53237   5.073   3.402   2.813 -0.2523 -0.5127  0.2403
17544SOL    HW153238   5.102   3.306   2.811  0.8700 -0.1712  0.2261
17544SOL    HW253239   5.045   3.427   2.906 -0.9287 -0.9577  0.1641
17545SOL     OW53240   3.884   6.627   0.425  0.0554  0.4138  0.1573
17545SOL    HW153241   3.922   6.573   0.500  1.3568  0.7770 -0.2313
17545SOL    HW253242   3.873   6.570   0.344  0.8636  0.5824 -0.0737
17546SOL     OW53243   1.134   6.068   5.248  0.2408  0.0360  0.5831
17546SOL    HW153244   1.039   6.041   5.233  0.0006 -0.3546  2.6233
17546SOL    HW253245   1.175   6.009   5.317  2.7801 -1.4482 -2.0711
17547SOL     OW53246   2.768   5.897   3.957 -0.5945 -0.7409 -0.2543
17547SOL    HW153247   2.773   5.850   3.869 -0.1269 -2.0319  0.4468
17547SOL    HW253248   2.802   5.991   3.947 -0.0421 -1.0455 -1.3275
17548SOL     OW53249   7.727   0.464   1.836  0.5007  0.4318 -0.3051
17548SOL    HW153250   7.732   0.391   1.903  2.4029  1.0146  0.2210
17548SOL    HW253251   7.757   0.430   1.747  0.1917  0.2451 -0.3366
17549SOL     OW53252   3.915   8.597   0.182  0.4522  0.2014 -0.0369
17549SOL    HW153253   3.921   8.663   0.257  0.4362  1.9402 -1.5233
17549SOL    HW253254   3.820   8.590   0.152  0.2895 -1.3012  0.7922
17550SOL     OW53255   9.965   7.405   4.377  0.1554  0.1617 -0.0465
17550SOL    HW153256   9.877   7.388   4.333 -0.0328 -0.7077  0.6316
17550SOL    HW253257   9.984   7.331   4.442  2.1863 -0.5753 -1.4184
17551SOL     OW53258   8.091   7.488   3.290 -0.4269 -0.3248 -0.3731
17551SOL    HW153259   8.087   7.569   3.230 -1.2993  0.0967  0.2470
17551SOL    HW253260   8.168   7.431   3.262  0.8245  1.2303 -0.1791
17552SOL     OW53261   8.348   0.974   1.156  0.0831  0.0258  0.1465
17552SOL    HW153262   8.291   1.042   1.111 -1.2862 -0.5871  0.9353
17552SOL    HW253263   8.374   0.903   1.090 -1.0196 -0.3031  0.0616
17554SOL     OW53264   9.615   2.082   5.155  0.6747  0.1142 -0.1904
17554SOL    HW153265   9.580   2.110   5.244  2.0942  2.0880 -0.2152
17554SOL    HW253266   9.709   2.050   5.164  0.6273 -0.2387 -0.8966
17555SOL     OW53267   4.769   8.497   4.303  0.3710 -0.3050  0.8114
17555SOL    HW153268   4.783   8.596   4.296 -0.4637 -0.1877  0.8060
17555SOL    HW253269   4.675   8.478   4.329 -0.1964 -1.1866 -1.7604
17556SOL     OW53270   3.921   7.820   2.570 -0.1409 -0.2118 -0.1076
17556SOL    HW153271   3.976   7.736   2.570 -2.5131 -1.7908  0.4830
17556SOL    HW253272   3.904   7.848   2.475  1.1489 -0.0321 -0.3024
17557SOL     OW53273   3.166   9.168   3.217  0.2055  0.5622  0.1131
17557SOL    HW153274   3.080   9.184   3.169  0.0166  0.1475  0.3138
17557SOL    HW253275   3.200   9.254   3.255 -0.7541  0.5127  1.1103
17558SOL     OW53276   1.259   0.036   2.384 -0.5591  0.1076  0.4629
17558SOL    HW153277   1.277  -0.058   2.356  0.1717  0.1752  0.6994
17558SOL    HW253278   1.344   0.089   2.379 -0.5334  0.2482  2.3169
17561SOL     OW53279   4.501   2.846   4.398  0.2273 -0.0245  0.0007
17561SOL    HW153280   4.416   2.836   4.345  1.3835 -0.1863 -1.8572
17561SOL    HW253281   4.560   2.768   4.380  0.6246 -0.1163  1.6159
17562SOL     OW53282   4.323   8.801   1.916  0.3777  0.6394 -0.4167
17562SOL    HW153283   4.409   8.850   1.898  0.0815  1.2873 -0.0763
17562SOL    HW253284   4.323   8.715   1.865  1.2152  0.6542 -0.4524
17563SOL     OW53285   0.543   0.597   3.172 -0.3845  0.9027  0.4588
17563SOL    HW153286   0.468   0.569   3.112 -0.5288  1.1070  0.5427
17563SOL    HW253287   0.567   0.520   3.232  1.7773 -0.3185 -1.8642
17564SOL     OW53288   4.564   3.839   0.823 -0.1401 -0.6823  0.2549
17564SOL    HW153289   4.657   3.819   0.791 -0.2276 -1.2996  0.3828
17564SOL    HW253290   4.544   3.782   0.903 -0.9355 -1.1672 -0.2850
17565SOL     OW53291   2.312   2.041   4.657 -0.1716 -0.0102  0.2148
17565SOL    HW153292   2.261   1.969   4.704 -0.4739  0.2634  0.3099
17565SOL    HW253293   2.405   2.047   4.695 -0.0360 -0.5685 -0.0193
17566SOL     OW53294   4.513   0.505   3.331 -0.8189  0.0873  0.3680
17566SOL    HW153295   4.539   0.446   3.254  2.6201 -0.0493  1.5223
17566SOL    HW253296   4.520   0.600   3.303 -1.5716  0.0092 -0.0843
17567SOL     OW53297   4.520   7.263   2.761 -0.3956 -0.1607  0.1901
17567SOL    HW153298   4.458   7.285   2.686  1.2244  1.9307 -0.5740
17567SOL    HW253299   4.469   7.254   2.846 -1.8877  0.2180 -0.6594
17569SOL     OW53300   9.163   9.877   3.206  0.1991 -0.1465 -0.1673
17569SOL    HW153301   9.105   9.958   3.195 -0.0154 -0.3291 -0.4062
17569SOL    HW253302   9.256   9.898   3.177  0.1237 -0.0092 -0.3061
17570SOL     OW53303   5.333   9.444   2.313  0.3331 -0.4658  0.2984
17570SOL    HW153304   5.419   9.393   2.314  1.7785  1.8783 -1.0228
17570SOL    HW253305   5.297   9.447   2.219  0.9017  1.9533  0.1317
17571SOL     OW53306   2.117   9.494   1.626 -0.3654  0.2165 -0.0614
17571SOL    HW153307   2.031   9.444   1.639 -1.3991  2.2444  1.1242
17571SOL    HW253308   2.184   9.462   1.693 -0.3097 -1.0885 -0.7261
17572SOL     OW53309   0.901   0.841   0.284  0.1596  0.2338 -0.3068
17572SOL    HW153310   0.891   0.786   0.202 -0.2608  2.0856 -1.5296
17572SOL    HW253311   0.838   0.809   0.355 -0.5465 -0.4178 -1.2309
17573SOL     OW53312   4.011   8.808   4.103  0.0193  0.2319 -0.8766
17573SOL    HW153313   4.018   8.721   4.054 -0.9466 -1.3959  1.7696
17573SOL    HW253314   3.921   8.816   4.145  1.1648  1.0105  1.5660
17574SOL     OW53315   4.630   4.727   3.726 -0.6304  0.2812  0.1988
17574SOL    HW153316   4.685   4.649   3.697 -0.6257  0.1129  0.6532
17574SOL    HW253317   4.563   4.698   3.794  2.0753  1.3682  3.4934
17575SOL     OW53318   2.051   4.611   4.653  0.4334  0.4344 -0.1364
17575SOL    HW153319   2.097   4.697   4.631 -0.5725  0.7078 -1.2118
17575SOL    HW253320   2.050   4.598   4.752  1.3403  1.2393 -0.0178
17576SOL     OW53321   3.638   4.890   3.314 -0.1682  0.5437 -0.4265
17576SOL    HW153322   3.724   4.911   3.360  0.0943  1.0898 -1.1551
17576SOL    HW253323   3.576   4.968   3.323 -0.5513  0.1929  0.0048
17577SOL     OW53324   0.274   0.627   2.436 -0.7595 -0.0236 -0.1470
17577SOL    HW153325   0.282   0.727   2.433  0.3116 -0.1298 -1.3717
17577SOL    HW253326   0.187   0.599   2.396  0.5078  0.2443 -3.2123
17579SOL     OW53327   8.829   9.998   3.997  0.1963  0.1881 -0.0404
17579SOL    HW153328   8.813   9.934   3.921  0.1648  2.4686 -2.0145
17579SOL    HW253329   8.799   9.956   4.082 -0.4220 -2.1750 -1.3651
17580SOL     OW53330   7.565   1.515   4.660 -0.4508  0.1302 -0.5092
17580SOL    HW153331   7.577   1.614   4.667 -0.7827  0.0802  0.9215
17580SOL    HW253332   7.549   1.490   4.564 -3.8027  1.9004 -0.5092
17581SOL     OW53333   9.632   6.994   3.649  0.3402  0.4521  0.3119
17581SOL    HW153334   9.684   6.918   3.610 -0.1708  0.4098 -0.3005
17581SOL    HW253335   9.581   7.040   3.576 -2.2061 -0.8534  1.2211
17584SOL     OW53336   9.773   6.883   0.315  0.1492  0.1632  0.1443
17584SOL    HW153337   9.848   6.949   0.312  0.3363 -0.0852 -0.8307
17584SOL    HW253338   9.743   6.863   0.222 -0.1468 -0.8621  0.4579
17586SOL     OW53339   3.354   1.011   2.738 -0.4004  0.2949  0.4111
17586SOL    HW153340   3.271   0.987   2.789  0.1770 -0.1642  1.1561
17586SOL    HW253341   3.432   1.011   2.801  0.0240  1.6216 -0.0981
17587SOL     OW53342   2.214   7.164   0.956  0.7000 -0.2105 -0.2768
17587SOL    HW153343   2.257   7.161   0.866  1.4357 -1.6721  0.0918
17587SOL    HW253344   2.131   7.109   0.954  0.8831 -0.4992  0.0130
17588SOL     OW53345   4.077   1.734   1.383  0.6896 -0.5237 -0.2055
17588SOL    HW153346   4.097   1.779   1.296 -1.9208  0.6114 -0.2629
17588SOL    HW253347   4.093   1.798   1.458  0.3897 -0.6539 -0.0309
17592SOL     OW53348   3.612   2.172   2.422 -0.2399  0.2187 -0.0907
17592SOL    HW153349   3.554   2.242   2.464  0.2407  1.6762 -1.7949
17592SOL    HW253350   3.706   2.185   2.453 -0.3940 -0.5715  0.7091
17593SOL     OW53351   0.466   0.151   0.643  0.0144 -0.8102 -0.6836
17593SOL    HW153352   0.520   0.200   0.711 -2.1331 -0.7016  0.9783
17593SOL    HW253353   0.521   0.139   0.560  1.6469  1.6280 -0.0091
17594SOL     OW53354   6.794   4.381   0.337  0.3559  0.2735  0.1004
17594SOL    HW153355   6.714   4.419   0.292 -1.0426 -0.2773  2.0411
17594SOL    HW253356   6.848   4.454   0.378 -0.3185  0.4841  0.6230
17595SOL     OW53357   3.233   9.233   4.848 -0.0124  0.2060 -0.3472
17595SOL    HW153358   3.204   9.155   4.794 -1.9874  0.0456  0.8711
17595SOL    HW253359   3.259   9.308   4.787  1.3006 -1.1736 -1.5122
17596SOL     OW53360   5.215   5.506   0.954 -0.7645 -0.3462 -0.5200
17596SOL    HW153361   5.237   5.472   0.863 -1.1682 -0.5749 -0.5372
17596SOL    HW253362   5.291   5.489   1.016 -1.0237 -1.4410 -0.4901
17597SOL     OW53363   0.105   5.733   1.876  0.5128  0.4410  0.1140
17597SOL    HW153364   0.116   5.640   1.841 -0.0137  0.6284 -0.5744
17597SOL    HW253365   0.048   5.786   1.812 -2.0187  0.2506  2.1521
17598SOL     OW53366   6.870   2.275   2.392 -0.6991 -0.3296  0.3110
17598SOL    HW153367   6.954   2.243   2.436  1.1130 -1.7068 -3.8359
17598SOL    HW253368   6.828   2.199   2.341 -1.5171  1.5855 -1.9761
17600SOL     OW53369   1.495   5.631   0.034  0.2555 -0.1481  0.2566
17600SOL    HW153370   1.501   5.537  -0.000  1.8189  0.0126  0.0607
17600SOL    HW253371   1.580   5.655   0.081 -0.9002  0.5002  2.0716
17601SOL     OW53372   0.762   4.619   1.482  0.9626  0.8486  0.2174
17601SOL    HW153373   0.779   4.550   1.553 -1.0325 -0.3286 -0.3997
17601SOL    HW253374   0.699   4.688   1.518 -0.8261 -0.2756 -0.6626
17602SOL     OW53375   4.368   4.229   2.330 -0.6073  0.0074 -0.5713
17602SOL    HW153376   4.422   4.263   2.253 -1.1538  3.1250  0.3447
17602SOL    HW253377   4.430   4.203   2.404 -0.2392  1.1054 -0.4841
17603SOL     OW53378   7.963   6.081   5.142  0.3647 -0.0247 -0.5272
17603SOL    HW153379   7.906   6.149   5.097  0.9618  0.7179 -0.1707
17603SOL    HW253380   7.908   6.028   5.206 -0.4733 -1.0184 -2.0128
17604SOL     OW53381   0.427   9.904   4.676 -0.0247  0.2913 -0.0941
17604SOL    HW153382   0.400   9.857   4.760  0.5788 -0.4988 -0.3408
17604SOL    HW253383   0.513   9.866   4.642  0.6753  1.8111 -0.0927
17605SOL     OW53384   6.024   1.581   5.154 -0.1051  0.4358 -0.2572
17605SOL    HW153385   5.953   1.523   5.115  1.0054  1.0901 -3.4729
17605SOL    HW253386   5.998   1.677   5.146  0.9600  0.6653 -1.1478
17606SOL     OW53387   3.442   2.077   2.945 -0.1165  0.0780  0.4115
17606SOL    HW153388   3.444   2.162   2.998  0.1807  0.4149 -0.1412
17606SOL    HW253389   3.367   2.080   2.879 -0.6215 -0.4309  0.9512
17607SOL     OW53390   6.885   0.582   4.465 -0.3018 -0.1435 -0.1247
17607SOL    HW153391   6.966   0.604   4.518  1.0619 -0.1259 -2.1679
17607SOL    HW253392   6.879   0.483   4.451 -1.6627 -0.3296  1.5883
17608SOL     OW53393   9.879   7.902   5.020  0.1015 -0.5128 -0.2153
17608SOL    HW153394   9.947   7.970   5.044  1.1859 -1.2920 -1.0534
17608SOL    HW253395   9.912   7.811   5.045 -0.9143 -0.8354 -0.0030
17609SOL     OW53396   5.628   0.609   4.340  0.0138  0.2249 -0.1817
17609SOL    HW153397   5.673   0.521   4.352 -0.8611  0.0019  1.5557
17609SOL    HW253398   5.698   0.680   4.330  0.7236 -0.5545 -0.9376
17610SOL     OW53399   2.579   1.064   3.008  0.2243 -0.0138  0.2734
17610SOL    HW153400   2.588   1.124   2.929  0.9752 -0.7152 -0.1698
17610SOL    HW253401   2.665   1.061   3.058 -0.9813  2.6057  2.7107
17611SOL     OW53402   3.918   8.408   4.495 -0.2474 -0.7386  0.0524
17611SOL    HW153403   3.996   8.426   4.435 -0.6121 -2.5205 -0.9931
17611SOL    HW253404   3.928   8.461   4.580  2.2659 -1.2198  0.0922
17612SOL     OW53405   2.707   0.836   3.205 -0.3595 -0.5411 -0.4167
17612SOL    HW153406   2.617   0.875   3.183  0.5711  1.8602 -0.1667
17612SOL    HW253407   2.715   0.826   3.304 -0.0045  0.1332 -0.3767
17613SOL     OW53408   0.492   3.116   4.808  0.1764  0.0855 -0.1584
17613SOL    HW153409   0.446   3.193   4.852  0.9671 -1.1852  3.1210
17613SOL    HW253410   0.521   3.051   4.879  2.1875 -1.7551 -2.5917
17614SOL     OW53411   2.168   9.413   3.072 -0.0901  0.3716 -0.3478
17614SOL    HW153412   2.182   9.376   3.164 -0.4902 -0.2428 -0.5336
17614SOL    HW253413   2.244   9.474   3.049 -0.2672  0.9533  0.5996
17615SOL     OW53414   5.231   1.270   3.992  0.1825 -0.1968 -0.4777
17615SOL    HW153415   5.187   1.185   3.966 -1.1164  0.2563  0.1759
17615SOL    HW253416   5.205   1.342   3.927  0.6971 -0.1366 -0.6163
17616SOL     OW53417   8.786   4.883   5.236  0.1457 -0.1969 -0.7897
17616SOL    HW153418   8.755   4.955   5.174 -0.9572  1.1375  1.2417
17616SOL    HW253419   8.738   4.891   5.323  2.3599 -1.3964  0.6100
17617SOL     OW53420   4.995   1.545   0.677 -0.2436  0.1173 -0.0760
17617SOL    HW153421   5.009   1.637   0.714 -0.7152  0.5998 -1.0709
17617SOL    HW253422   4.902   1.537   0.641 -0.1307 -0.6824 -0.2005
17619SOL     OW53423   0.671   2.408   3.749  0.0218 -0.1929 -0.1485
17619SOL    HW153424   0.587   2.462   3.752  0.3302  0.2438  1.0529
17619SOL    HW253425   0.647   2.311   3.734 -0.7567 -0.1930  1.0133
17621SOL     OW53426   2.385   1.440   1.161  0.3898 -0.4072 -0.0516
17621SOL    HW153427   2.345   1.473   1.076  0.6114 -1.0793 -0.4252
17621SOL    HW253428   2.462   1.498   1.187  0.0164  0.0907 -0.0419
17622SOL     OW53429   1.510   9.323   2.974  0.9004 -0.7386 -0.7700
17622SOL    HW153430   1.592   9.269   2.992 -0.1213 -2.1176 -0.1481
17622SOL    HW253431   1.532   9.421   2.984  1.8037 -1.1894  2.3121
17624SOL     OW53432   5.021   1.447   1.732 -0.2843 -0.0275  0.0381
17624SOL    HW153433   5.108   1.470   1.777 -0.2197 -2.5010  1.2277
17624SOL    HW253434   5.039   1.396   1.648 -0.5704  0.9165 -0.6161
17625SOL     OW53435   3.090   4.827   0.686 -0.0540  0.3397 -0.0380
17625SOL    HW153436   3.115   4.834   0.783 -0.2426 -1.6074  0.1756
17625SOL    HW253437   3.040   4.909   0.659  0.3256  1.0735  1.4188
17627SOL     OW53438   3.681   8.566   2.194  0.4314  0.4139  0.2989
17627SOL    HW153439   3.589   8.601   2.179  0.1370  0.5705  2.3558
17627SOL    HW253440   3.708   8.581   2.289  2.3058 -0.2780 -0.0953
17628SOL     OW53441   8.978   1.293   2.508 -0.2654  0.4240 -0.0692
17628SOL    HW153442   9.009   1.388   2.506  1.3163 -0.0859 -0.9950
17628SOL    HW253443   9.055   1.233   2.532 -0.5664 -0.8652 -2.1803
17629SOL     OW53444   4.037   8.342   2.553  0.7512 -0.5487  0.4688
17629SOL    HW153445   4.019   8.304   2.462  2.2607 -0.4392  0.1088
17629SOL    HW253446   3.965   8.407   2.578 -0.1454 -1.2606 -0.2653
17630SOL     OW53447   2.171   1.614   3.757  0.1160 -0.3000 -0.5867
17630SOL    HW153448   2.102   1.592   3.826 -2.1620  1.6616 -2.1934
17630SOL    HW253449   2.186   1.534   3.698 -1.3989 -0.4925 -0.7257
17631SOL     OW53450   2.132   5.038   0.646 -0.5674  0.0716  0.2651
17631SOL    HW153451   2.152   4.975   0.571 -1.2708 -0.2069  0.3135
17631SOL    HW253452   2.218   5.081   0.677 -0.3721  0.7048 -1.1402
17632SOL     OW53453   1.843   0.513   0.756  0.4403 -0.0101  0.5083
17632SOL    HW153454   1.830   0.603   0.713 -3.3382 -1.1533 -0.8442
17632SOL    HW253455   1.822   0.520   0.853 -0.3017  0.4852  0.3177
17634SOL     OW53456   5.193   0.976   3.506  0.1495  0.1781  0.1293
17634SOL    HW153457   5.236   1.065   3.523 -1.1887  0.9955 -0.6695
17634SOL    HW253458   5.161   0.938   3.593 -3.4064  2.6473  0.0276
17635SOL     OW53459   1.140   3.419   0.499 -0.1372 -0.4614 -0.7443
17635SOL    HW153460   1.150   3.490   0.569  0.3194 -1.4140  0.1473
17635SOL    HW253461   1.205   3.345   0.515  0.3401 -0.4547 -2.4779
17637SOL     OW53462   5.109   4.707   3.537  0.0041  0.0835  0.2454
17637SOL    HW153463   5.163   4.789   3.556 -0.8406  0.1087  2.7378
17637SOL    HW253464   5.021   4.733   3.498  0.2242  0.2949 -0.1073
17638SOL     OW53465   8.074   1.884   5.155  0.0919 -0.4506  0.4003
17638SOL    HW153466   8.103   1.792   5.180  1.2249  0.2239  1.6544
17638SOL    HW253467   8.149   1.948   5.171 -0.8867  0.7797  0.1314
17639SOL     OW53468   8.818   5.517   0.737  0.0207 -0.2858 -0.8831
17639SOL    HW153469   8.848   5.535   0.830  1.8221 -1.3384 -1.2381
17639SOL    HW253470   8.760   5.435   0.736  1.1981 -1.1268 -0.8836
17640SOL     OW53471   4.345   1.966   0.345 -0.2025  0.6400 -0.2679
17640SOL    HW153472   4.310   2.056   0.318 -1.9407 -0.0113 -0.2386
17640SOL    HW253473   4.419   1.939   0.283  1.0417  2.5097  0.3299
17641SOL     OW53474   5.286   4.867   1.065 -0.3139 -0.2091  0.1073
17641SOL    HW153475   5.365   4.806   1.070 -0.0754 -0.0737 -1.7656
17641SOL    HW253476   5.303   4.948   1.120  1.0811  0.0744 -0.7225
17642SOL     OW53477   0.917   4.280   3.325  0.8322  0.3902 -0.3621
17642SOL    HW153478   0.998   4.223   3.335  0.0080 -0.5931  0.7840
17642SOL    HW253479   0.915   4.319   3.233  2.0596 -0.4270 -0.7423
17643SOL     OW53480   6.646   8.522   3.385  0.2625  0.2213 -0.5493
17643SOL    HW153481   6.706   8.594   3.420  0.2306 -0.3454  0.6766
17643SOL    HW253482   6.692   8.475   3.309  0.5465  1.0960 -0.9301
17644SOL     OW53483   4.420   1.671   1.297  0.3172 -0.5916  0.0966
17644SOL    HW153484   4.381   1.691   1.207 -0.5997 -0.3434  0.5466
17644SOL    HW253485   4.380   1.586   1.332  0.8356 -0.8034  0.1764
17645SOL     OW53486   8.437   6.247   4.213 -0.3160 -0.3019  0.2084
17645SOL    HW153487   8.360   6.246   4.148  0.1533  0.3478 -0.3600
17645SOL    HW253488   8.522   6.268   4.164  0.1113 -0.2681  0.9598
17646SOL     OW53489   8.337   1.469   2.317  1.1162 -0.0655  0.0289
17646SOL    HW153490   8.275   1.473   2.396  1.9013  0.0393  0.6443
17646SOL    HW253491   8.293   1.513   2.238  0.1937 -0.4606  0.3113
17647SOL     OW53492   1.858   9.102   3.637 -0.4480 -0.0229  0.8359
17647SOL    HW153493   1.892   9.195   3.651 -0.0424 -0.1139  0.4300
17647SOL    HW253494   1.764   9.106   3.601  0.4904  0.2521 -1.6526
17648SOL     OW53495   5.529   9.364   2.684 -0.3454 -0.4542  0.3260
17648SOL    HW153496   5.560   9.459   2.692 -0.2599 -0.4556  0.0107
17648SOL    HW253497   5.591   9.314   2.625 -0.7992 -0.5225 -0.1020
17650SOL     OW53498   5.703   5.239   1.257  0.4548  0.1300  0.1439
17650SOL    HW153499   5.760   5.168   1.216  1.9433  0.3483  1.7913
17650SOL    HW253500   5.717   5.325   1.209 -1.3483 -0.6334 -1.8573
17651SOL     OW53501   2.944   8.667   1.597 -0.2761 -0.1495 -0.0339
17651SOL    HW153502   3.011   8.673   1.671  0.8270  0.1282 -1.0250
17651SOL    HW253503   2.879   8.742   1.605 -0.2501 -0.2073  0.7376
17652SOL     OW53504   3.133   5.394   1.483 -0.3867  0.5469 -0.1114
17652SOL    HW153505   3.152   5.398   1.385  1.1350  1.4357  0.2012
17652SOL    HW253506   3.202   5.447   1.532 -1.4953  0.6281  1.3941
17653SOL     OW53507   2.290   4.020   2.072  0.1570 -0.4414 -0.8845
17653SOL    HW153508   2.331   4.110   2.082  2.1837 -1.0338 -3.4604
17653SOL    HW253509   2.321   3.961   2.147  0.5656  0.3863 -0.3986
17654SOL     OW53510   9.623   1.089   3.574  0.2915  0.2032 -0.2811
17654SOL    HW153511   9.618   1.131   3.665 -0.0180  1.0554 -0.6847
17654SOL    HW253512   9.531   1.072   3.540  0.4142 -2.8208  0.7752
17656SOL     OW53513   7.193   0.535   3.385  0.3960  0.4510 -0.0137
17656SOL    HW153514   7.096   0.549   3.403  0.1044  1.0968 -2.0081
17656SOL    HW253515   7.240   0.510   3.470 -1.2265  1.6676  1.2481
17657SOL     OW53516   2.775   8.999   0.566 -0.6649 -0.0526  0.2834
17657SOL    HW153517   2.718   9.027   0.643  0.1722 -0.0191  0.8990
17657SOL    HW253518   2.718   8.954   0.497 -1.3761 -0.3626  1.0583
17658SOL     OW53519   3.348   0.098   5.112 -0.4733 -0.0939 -0.1481
17658SOL    HW153520   3.261   0.075   5.068 -0.5444 -0.8901  0.3866
17658SOL    HW253521   3.369   0.029   5.181  0.5389  0.1447 -0.2079
17659SOL     OW53522   4.764   0.303   3.984 -0.1999  0.0684  0.2034
17659SOL    HW153523   4.714   0.292   3.898  2.2687 -0.0400 -1.2718
17659SOL    HW253524   4.781   0.214   4.025 -0.0055 -0.0077 -0.0376
17663SOL     OW53525   8.623   8.856   0.386 -0.0227  0.4256 -0.1389
17663SOL    HW153526   8.603   8.770   0.339 -0.3520 -0.0117  0.7926
17663SOL    HW253527   8.573   8.931   0.342 -0.4657 -0.0099 -0.3776
17664SOL     OW53528   5.494   0.276   1.349 -0.0958  0.4326  0.6247
17664SOL    HW153529   5.572   0.332   1.323  0.3671 -0.2572  0.5258
17664SOL    HW253530   5.522   0.211   1.420 -0.3801 -0.3695  0.0018
17666SOL     OW53531   0.170   2.858   2.648  0.1495  0.2005  0.5194
17666SOL    HW153532   0.171   2.868   2.548 -1.0896 -0.7076  0.3991
17666SOL    HW253533   0.242   2.794   2.675 -0.0925 -0.2503  0.1160
17667SOL     OW53534   9.890   3.513   4.938 -0.2457  0.2080  0.2224
17667SOL    HW153535   9.862   3.602   4.974  0.0678  0.8448 -1.0784
17667SOL    HW253536   9.942   3.463   5.008  0.7806  1.6316  0.5005
17668SOL     OW53537   7.791   0.023   3.205 -0.6719 -0.3484 -0.3953
17668SOL    HW153538   7.779   0.016   3.304 -0.7061 -0.5533 -0.4133
17668SOL    HW253539   7.820  -0.065   3.169  0.7429  0.1102 -0.3776
17669SOL     OW53540   3.427   9.379   0.564 -0.2876  0.1622  0.4804
17669SOL    HW153541   3.396   9.303   0.507  1.2445  0.5411 -0.9287
17669SOL    HW253542   3.360   9.398   0.635 -1.5726 -1.2714 -0.3238
17670SOL     OW53543   1.863   6.383   2.804 -0.4496 -0.1207  0.3995
17670SOL    HW153544   1.848   6.406   2.708  0.1939  0.1187  0.3530
17670SOL    HW253545   1.907   6.293   2.810 -1.0071 -0.3926  0.4976
17672SOL     OW53546   1.033   7.210   1.688  0.0129  0.1644 -0.3640
17672SOL    HW153547   1.127   7.217   1.655  0.5770 -1.4201  0.8554
17672SOL    HW253548   0.971   7.200   1.611  0.9612  0.0874 -1.1175
17674SOL     OW53549   2.553   7.987   2.285  0.1920  0.4203  0.1483
17674SOL    HW153550   2.606   7.989   2.200  1.2884  0.0752  0.8103
17674SOL    HW253551   2.458   8.009   2.265  0.5448  0.8913 -1.0933
17675SOL     OW53552   6.829   0.320   1.600  0.1846  0.4704  0.8225
17675SOL    HW153553   6.774   0.241   1.629  1.2336 -1.2404 -1.6824
17675SOL    HW253554   6.797   0.351   1.511  2.5326  0.1829 -0.1363
17676SOL     OW53555   2.998   0.377   3.762 -0.2040 -0.3491 -0.3525
17676SOL    HW153556   3.023   0.291   3.807 -2.6946 -0.9203 -0.0025
17676SOL    HW253557   2.901   0.375   3.737 -0.0060  1.8917 -1.4354
17677SOL     OW53558   2.836   9.535   1.413 -0.1356 -0.3313  0.3872
17677SOL    HW153559   2.847   9.633   1.428  1.0981 -0.5176  0.8028
17677SOL    HW253560   2.831   9.488   1.501 -1.0249 -0.6206  0.1917
17681SOL     OW53561   4.483   1.840   1.496  0.2222 -0.2656 -0.6256
17681SOL    HW153562   4.390   1.867   1.523  0.5234 -1.6980  1.9646
17681SOL    HW253563   4.479   1.782   1.416 -1.0052  0.9166 -1.4422
17682SOL     OW53564   8.896   1.857   5.033  0.1508  0.1197  0.5703
17682SOL    HW153565   8.992   1.853   5.063  0.2285  2.5568  0.6952
17682SOL    HW253566   8.880   1.942   4.983 -1.7010 -0.7573 -0.3651
17684SOL     OW53567   7.616   4.856   1.253 -0.5592  0.7489 -0.2735
17684SOL    HW153568   7.705   4.901   1.251  0.0114 -0.3673 -0.1815
17684SOL    HW253569   7.619   4.773   1.198 -1.7036  0.9927 -0.7257
17686SOL     OW53570   1.229   6.103   3.033  0.5182 -0.3297  0.2701
17686SOL    HW153571   1.195   6.189   3.072 -1.2565 -0.9727  0.1876
17686SOL    HW253572   1.201   6.027   3.092  1.9588 -0.8747  0.2671
17687SOL     OW53573   5.079   3.842   4.302 -0.1860  0.3709 -0.2889
17687SOL    HW153574   5.106   3.915   4.365 -0.0737  1.7131 -1.8654
17687SOL    HW253575   5.112   3.755   4.337 -1.6082  0.8418  2.4070
17688SOL     OW53576   3.702   9.040   2.020 -0.1651 -0.2452  0.4416
17688SOL    HW153577   3.770   9.103   2.058  2.0000 -3.8550  2.7775
17688SOL    HW253578   3.743   8.988   1.945 -1.6906  0.4185 -0.9004
17689SOL     OW53579   4.012   7.494   2.288  0.5327  0.5716  0.0782
17689SOL    HW153580   4.051   7.510   2.198 -0.1504 -0.7327 -0.4573
17689SOL    HW253581   4.060   7.417   2.332  0.0511  0.4042  0.3181
17690SOL     OW53582   9.186   9.579   1.434  0.2130  0.5223 -0.5152
17690SOL    HW153583   9.187   9.596   1.335  0.4131  0.1475 -0.5788
17690SOL    HW253584   9.275   9.605   1.473  1.7665 -3.4394 -1.1460
17691SOL     OW53585   9.096   1.802   3.449  0.1533 -0.0697 -0.1754
17691SOL    HW153586   9.181   1.800   3.501 -1.2948  1.9279  2.4284
17691SOL    HW253587   9.115   1.825   3.354  2.5281  0.1073  0.3201
17692SOL     OW53588   9.186   0.335   1.310 -0.2396  0.2885  0.0137
17692SOL    HW153589   9.106   0.374   1.355  0.1368  1.6382 -0.4591
17692SOL    HW253590   9.264   0.339   1.372  0.2366  1.9858 -0.6750
17693SOL     OW53591   7.641   1.571   2.855  0.2373  0.6042 -0.8149
17693SOL    HW153592   7.674   1.607   2.768  2.3821  2.6577  0.8029
17693SOL    HW253593   7.717   1.531   2.906 -0.9919 -0.5312  0.1804
17694SOL     OW53594   0.919   6.312   1.031  0.1078 -0.6994 -0.2188
17694SOL    HW153595   0.881   6.370   1.103 -3.3670 -2.0373 -0.8450
17694SOL    HW253596   0.930   6.219   1.066 -1.4650 -1.3212 -1.3187
17696SOL     OW53597   3.087   5.785   1.089  0.2848  0.2457  0.2827
17696SOL    HW153598   3.176   5.830   1.090  0.0087  0.8098  0.1714
17696SOL    HW253599   3.058   5.773   0.994 -0.6303  1.8491  0.3337
17697SOL     OW53600   4.886   0.965   4.246  0.2079 -0.3766 -0.1938
17697SOL    HW153601   4.890   0.869   4.276 -0.7809 -0.5821 -0.7019
17697SOL    HW253602   4.977   1.005   4.253  0.1161 -0.5473  2.6088
17698SOL     OW53603   6.907   9.004   5.211  0.0691 -0.5213 -0.3043
17698SOL    HW153604   6.926   9.010   5.113  0.3317  0.4681 -0.2006
17698SOL    HW253605   6.816   8.965   5.225 -0.8588  1.3283 -1.0160
17699SOL     OW53606   4.702   1.301   4.198  0.1078 -0.8004  0.4600
17699SOL    HW153607   4.642   1.344   4.130  0.1965 -0.9050  0.3167
17699SOL    HW253608   4.683   1.203   4.202  2.6646 -1.4625 -2.0889
17700SOL     OW53609   7.107   1.082   1.321 -0.1586  0.0781  0.6677
17700SOL    HW153610   7.068   1.079   1.412 -1.2573 -2.3773  0.1412
17700SOL    HW253611   7.069   1.160   1.270 -0.5933  0.6150  1.8114
17701SOL     OW53612   8.945   6.007   3.989  0.3970  0.0669  0.1738
17701SOL    HW153613   8.915   5.930   4.045 -0.0942  0.8269  0.9649
17701SOL    HW253614   8.968   5.975   3.897 -1.0058 -0.8238  0.1277
17702SOL     OW53615   7.557   2.846   2.008 -0.4789 -0.6079 -0.1305
17702SOL    HW153616   7.630   2.914   1.997  0.8487 -1.7985  1.0482
17702SOL    HW253617   7.584   2.760   1.963 -1.5354 -0.7862 -0.4342
17703SOL     OW53618   3.873   1.508   4.180 -0.1307  0.1393  0.8500
17703SOL    HW153619   3.784   1.553   4.185 -0.2481 -0.1526  1.4716
17703SOL    HW253620   3.941   1.563   4.229  0.0630  0.4439  0.2335
17704SOL     OW53621   2.793   6.360   2.223  0.6850  0.2819 -0.1976
17704SOL    HW153622   2.748   6.357   2.134  1.7247 -0.8901 -0.6972
17704SOL    HW253623   2.806   6.267   2.257  1.3328  0.6726  0.6483
17705SOL     OW53624   8.434   3.712   3.697  0.0155  0.3479  0.5022
17705SOL    HW153625   8.482   3.759   3.623  0.1214  0.7161  0.7992
17705SOL    HW253626   8.479   3.625   3.716  0.1966  0.4095  0.3586
17706SOL     OW53627   0.770   1.394   2.581  0.1526 -0.7463  0.2549
17706SOL    HW153628   0.735   1.329   2.514  0.2781 -0.3141 -0.2387
17706SOL    HW253629   0.736   1.371   2.672  0.9827 -2.0721  0.2337
17707SOL     OW53630   6.106   9.770   3.696 -0.6851  0.1914 -0.2042
17707SOL    HW153631   6.131   9.866   3.700  1.2288 -0.2847  0.1710
17707SOL    HW253632   6.014   9.760   3.660 -1.5732  2.2439  1.4123
17708SOL     OW53633   9.270   7.538   1.485  0.0460  0.5031 -0.5884
17708SOL    HW153634   9.205   7.463   1.498  0.5602 -0.4109 -3.0831
17708SOL    HW253635   9.241   7.594   1.407  1.0518  1.3980 -0.3303
17709SOL     OW53636   5.208   2.763   3.966  0.1841 -0.3683 -0.3725
17709SOL    HW153637   5.135   2.831   3.971 -0.2297 -0.7626 -0.8912
17709SOL    HW253638   5.219   2.718   4.054 -1.0334 -1.1545 -0.6044
17711SOL     OW53639   2.419   9.258   0.950 -0.2553  0.4797 -0.3235
17711SOL    HW153640   2.351   9.206   1.003 -0.0874  0.7110  0.1236
17711SOL    HW253641   2.386   9.270   0.856 -0.4142 -0.2063 -0.3559
17712SOL     OW53642   1.776   2.882   1.224 -0.1067  0.4237 -0.2770
17712SOL    HW153643   1.854   2.943   1.208  0.3926 -0.1704 -0.0946
17712SOL    HW253644   1.708   2.896   1.152 -1.2614  3.2288  1.2829
17713SOL     OW53645   4.984   3.772   3.834 -0.2061  0.8900  0.4109
17713SOL    HW153646   4.987   3.673   3.845  0.2729  1.0455  1.7712
17713SOL    HW253647   4.957   3.795   3.740 -0.8765 -0.5167  0.2556
17715SOL     OW53648   3.908   9.122   4.608 -0.0019  0.0862 -0.1668
17715SOL    HW153649   3.912   9.125   4.508  1.2400  2.1042 -0.1002
17715SOL    HW253650   4.000   9.126   4.645 -0.5034  0.6626  1.0635
17716SOL     OW53651   9.017   4.730   5.249 -0.1206  0.8163 -0.1635
17716SOL    HW153652   8.934   4.786   5.250  0.5360  1.8173 -0.2806
17716SOL    HW253653   9.078   4.761   5.323  0.8498  1.1994 -1.1086
17718SOL     OW53654   2.007   3.574   3.316 -0.1893  0.5127  0.3616
17718SOL    HW153655   2.092   3.521   3.308 -0.0682  0.6435  0.7783
17718SOL    HW253656   1.937   3.518   3.360  0.1668  0.9474  1.5133
17720SOL     OW53657   1.604   2.893   2.821 -0.0449  0.0246 -0.1062
17720SOL    HW153658   1.584   2.826   2.892 -0.8745 -1.1547 -1.4346
17720SOL    HW253659   1.642   2.847   2.741 -0.5706  1.1501 -1.0176
17722SOL     OW53660   8.553   6.445   1.577 -0.0634  0.4100  0.0042
17722SOL    HW153661   8.618   6.496   1.520 -0.4257  0.0586 -0.7310
17722SOL    HW253662   8.598   6.418   1.662  0.3788  1.2385  0.0426
17723SOL     OW53663   9.038   1.090   0.303 -0.9193  0.4224  0.3650
17723SOL    HW153664   9.115   1.142   0.267  0.1678 -1.1518  0.3352
17723SOL    HW253665   9.037   1.098   0.403 -0.6916  0.4389  0.3673
17724SOL     OW53666   3.734   0.384   0.194  0.0656  0.0994  0.0424
17724SOL    HW153667   3.794   0.314   0.234 -0.4045 -1.0102 -1.1627
17724SOL    HW253668   3.638   0.357   0.209 -0.1171  0.5655 -0.3015
17725SOL     OW53669   7.452   9.035   3.756  0.2945 -0.1614 -0.2380
17725SOL    HW153670   7.399   8.970   3.701  0.5473  0.9404 -1.8250
17725SOL    HW253671   7.473   8.994   3.845 -0.8858 -1.6425 -0.6195
17726SOL     OW53672   3.218   3.395   1.609  0.5518  0.6240 -0.1880
17726SOL    HW153673   3.311   3.360   1.602  0.5757  0.4676  0.9507
17726SOL    HW253674   3.180   3.373   1.698 -0.1530  1.7458 -0.1954
17728SOL     OW53675   4.790   9.871   0.304  0.1743 -0.3791  1.4030
17728SOL    HW153676   4.753   9.951   0.257  1.4576  0.2069  1.3586
17728SOL    HW253677   4.818   9.896   0.396  1.9605 -0.4052  0.8845
17729SOL     OW53678   9.484   4.029   1.699 -0.0222 -0.6210  0.0044
17729SOL    HW153679   9.547   4.024   1.777 -0.1599 -0.2866  0.1346
17729SOL    HW253680   9.397   3.986   1.724  0.0960 -0.9333 -0.1203
17731SOL     OW53681   8.563   0.072   2.732 -0.0787 -0.1305 -0.1774
17731SOL    HW153682   8.508   0.025   2.801  0.8600 -1.4227 -0.2783
17731SOL    HW253683   8.594   0.005   2.664  0.7083  0.7694 -0.7103
17732SOL     OW53684   2.979   2.698   3.830  0.2695 -0.1346 -0.4875
17732SOL    HW153685   2.970   2.788   3.873 -1.3612 -0.9851  1.0536
17732SOL    HW253686   3.025   2.635   3.893 -2.3175 -1.4474  0.1749
17733SOL     OW53687   1.040   8.543   0.955  0.5591 -0.2331 -0.3822
17733SOL    HW153688   1.014   8.455   0.916 -1.1426 -0.1212  0.4822
17733SOL    HW253689   1.013   8.547   1.051  0.0414  1.4636 -0.5752
17734SOL     OW53690   2.301   9.121   0.478 -0.3486  0.9489  0.2486
17734SOL    HW153691   2.252   9.072   0.550 -1.3737  2.7637  0.8370
17734SOL    HW253692   2.367   9.184   0.520 -0.3563  1.4097 -0.4111
17736SOL     OW53693   3.861   2.138   5.180 -0.3966 -0.6120 -0.2470
17736SOL    HW153694   3.884   2.231   5.206  0.5480 -0.1717 -2.5292
17736SOL    HW253695   3.892   2.075   5.252  0.9648  0.6339  0.2876
17737SOL     OW53696   1.076   7.628   0.757 -0.2795  0.2975  0.0482
17737SOL    HW153697   1.117   7.574   0.684 -1.9080 -1.5042  0.4467
17737SOL    HW253698   1.000   7.681   0.720  0.2464  1.0565  0.0216
17738SOL     OW53699   9.701   0.097   3.571  0.0889  0.3715 -0.1888
17738SOL    HW153700   9.711   0.180   3.626  1.5709  0.2986 -0.3344
17738SOL    HW253701   9.720   0.118   3.475  2.5985 -0.5357  0.0562
17739SOL     OW53702   5.012   8.599   1.006  0.2790 -0.1575 -0.9858
17739SOL    HW153703   4.914   8.584   0.994  0.1254  0.6837 -0.8592
17739SOL    HW253704   5.034   8.694   0.983  1.2706 -0.6658 -2.1998
17741SOL     OW53705   3.767   1.548   4.804 -0.4144 -0.7711  0.2155
17741SOL    HW153706   3.724   1.535   4.894  0.4252 -1.9885  0.4488
17741SOL    HW253707   3.829   1.627   4.808 -0.1292 -1.0210  0.7980
17743SOL     OW53708   8.395   0.963   0.486  0.0290  0.5708  0.5949
17743SOL    HW153709   8.326   0.897   0.456 -0.2130  0.4556  1.3958
17743SOL    HW253710   8.381   1.050   0.438 -0.9977  0.7085  1.1431
17744SOL     OW53711   2.083   7.206   2.029 -0.2523  0.1317  0.6331
17744SOL    HW153712   2.024   7.223   1.950 -0.8440 -0.5188  0.9342
17744SOL    HW253713   2.137   7.124   2.014  1.1045  1.1006  0.0638
17745SOL     OW53714   7.855   7.997   4.167 -0.3832  0.2449 -0.5549
17745SOL    HW153715   7.766   8.021   4.129 -0.6336 -1.2144 -0.9346
17745SOL    HW253716   7.846   7.915   4.223  0.4425  0.9861  0.6833
17746SOL     OW53717   6.230   9.335   3.225  0.3872 -0.2941  0.2855
17746SOL    HW153718   6.275   9.423   3.241  1.3526 -0.8592  0.7329
17746SOL    HW253719   6.284   9.282   3.160 -1.2665  0.2560 -1.5681
17747SOL     OW53720   4.206   1.014   4.688 -0.0604 -0.2530 -0.4163
17747SOL    HW153721   4.289   0.983   4.736 -0.6438 -0.1394  0.6714
17747SOL    HW253722   4.217   0.997   4.590  1.2070 -0.3546 -0.2755
17748SOL     OW53723   1.788   4.674   0.862 -0.1365  0.2710  0.8270
17748SOL    HW153724   1.754   4.595   0.811 -1.8735  0.7202  1.2500
17748SOL    HW253725   1.824   4.742   0.798  0.6300 -0.5162  0.4140
17749SOL     OW53726   7.702   5.021   0.151 -0.0934 -0.4667 -0.5043
17749SOL    HW153727   7.629   5.088   0.167  0.7349  0.1233  0.9249
17749SOL    HW253728   7.791   5.062   0.172  0.4770 -1.8313 -0.1675
17750SOL     OW53729   5.547   9.361   2.142 -0.3770  0.4551 -0.3184
17750SOL    HW153730   5.596   9.419   2.077 -0.7105  0.4319 -0.5923
17750SOL    HW253731   5.472   9.315   2.095 -0.5609  0.3643  0.0646
17751SOL     OW53732   3.570   2.016   4.582  0.0973 -0.3509 -0.0310
17751SOL    HW153733   3.591   1.958   4.661  1.8574 -0.8431 -0.8513
17751SOL    HW253734   3.497   1.973   4.528 -0.2756 -0.5983  0.6561
17753SOL     OW53735   2.374   0.437   3.688 -0.3596 -0.6032 -0.8345
17753SOL    HW153736   2.456   0.478   3.648 -0.3218 -0.0655 -0.2277
17753SOL    HW253737   2.343   0.361   3.631  1.0220 -1.3205 -0.6437
17754SOL     OW53738   1.794   3.445   5.288 -0.1015  0.0552  0.5522
17754SOL    HW153739   1.812   3.448   5.190 -2.4427 -0.0120  0.0991
17754SOL    HW253740   1.844   3.519   5.333  0.2863  0.6303 -0.7918
17756SOL     OW53741   9.220   7.356   2.027 -0.5330  0.1904 -0.0378
17756SOL    HW153742   9.316   7.380   2.016 -0.7921  1.5037  0.4036
17756SOL    HW253743   9.192   7.374   2.122 -0.4387 -3.1102  0.6942
17757SOL     OW53744   5.609   1.397   3.952 -0.4887  0.5208 -0.0698
17757SOL    HW153745   5.634   1.426   4.045  1.6124  1.9915 -1.0646
17757SOL    HW253746   5.646   1.306   3.935 -1.0716  0.1498  0.5899
17758SOL     OW53747   1.879   8.863   1.681  0.4171 -0.4128  0.3857
17758SOL    HW153748   1.921   8.949   1.712 -0.2989 -0.4082  1.3640
17758SOL    HW253749   1.783   8.861   1.708  0.5962 -1.8130  0.9506
17759SOL     OW53750   8.624   5.043   0.307 -0.0314 -0.4999 -0.0891
17759SOL    HW153751   8.714   5.018   0.273  0.3824 -0.0445  0.6550
17759SOL    HW253752   8.631   5.126   0.363 -1.3469  1.3106 -2.4998
17760SOL     OW53753   0.745   5.473   1.727  0.3942 -0.3059 -0.0024
17760SOL    HW153754   0.784   5.412   1.657  1.0169  0.8130 -0.6570
17760SOL    HW253755   0.682   5.422   1.784  0.9781 -1.5918 -0.4766
17761SOL     OW53756   0.191   7.999   1.156  0.5438 -0.1776 -0.0014
17761SOL    HW153757   0.203   8.080   1.099 -0.3852  0.6313  0.9221
17761SOL    HW253758   0.277   7.948   1.161  1.0047  0.5006 -0.9755
17762SOL     OW53759   1.924   8.903   3.457  0.0981  0.1202  0.4088
17762SOL    HW153760   1.989   8.921   3.383  0.7403 -1.4534  0.5653
17762SOL    HW253761   1.905   8.988   3.506  0.3444  1.0101 -1.0069
17763SOL     OW53762   2.759   7.983   3.757 -0.3809 -0.1826 -0.2355
17763SOL    HW153763   2.840   7.925   3.747  0.4147  0.9171 -0.2659
17763SOL    HW253764   2.773   8.069   3.708 -0.0988  1.5047  2.6471
17766SOL     OW53765   4.741   8.871   2.551 -0.2300 -0.3196  0.4248
17766SOL    HW153766   4.677   8.933   2.595  0.5969 -0.2123  1.4957
17766SOL    HW253767   4.766   8.798   2.615  1.4425  0.1708  0.3576
17767SOL     OW53768   9.037   8.766   3.250  0.3408 -0.0361 -0.3192
17767SOL    HW153769   8.977   8.842   3.275  1.0224  0.3899  0.0595
17767SOL    HW253770   9.035   8.697   3.322 -0.9684 -0.8065 -1.0748
17769SOL     OW53771   1.962   2.888   4.075  0.2774  0.6314  0.2836
17769SOL    HW153772   1.951   2.987   4.088  1.8326  1.0556 -1.3390
17769SOL    HW253773   1.883   2.852   4.025  0.8203  1.5002 -1.2190
17770SOL     OW53774   6.453   1.127   0.429  0.0071  0.0951 -0.5705
17770SOL    HW153775   6.550   1.149   0.428  0.0429 -0.0698 -0.7054
17770SOL    HW253776   6.438   1.037   0.388 -0.1627 -0.0418 -0.2175
17771SOL     OW53777   9.462   5.428   2.698  0.2316  0.5098  0.5700
17771SOL    HW153778   9.393   5.501   2.700 -1.0614 -0.7278  1.4543
17771SOL    HW253779   9.553   5.469   2.685 -0.6957  2.1257 -1.1722
17772SOL     OW53780   6.343   9.438   4.014  0.2984  0.6672 -0.0030
17772SOL    HW153781   6.321   9.528   3.976 -0.5536  0.4992  0.0830
17772SOL    HW253782   6.317   9.435   4.110  0.8945  0.5300  0.1538
17774SOL     OW53783   2.577   1.873   1.266 -0.0811 -0.0307  0.1413
17774SOL    HW153784   2.560   1.897   1.170 -1.9390 -0.6871  0.2851
17774SOL    HW253785   2.623   1.949   1.312  0.7086  0.3343 -1.2397
17775SOL     OW53786   1.432   5.223   0.341  0.4177 -0.3640 -0.1001
17775SOL    HW153787   1.338   5.248   0.318  0.5225  0.0850 -0.0449
17775SOL    HW253788   1.477   5.302   0.383  0.6121 -0.7846  0.4761
17776SOL     OW53789   0.204   3.751   2.488  0.0889  0.2466 -0.6658
17776SOL    HW153790   0.215   3.818   2.561  1.7244 -0.3937 -0.2926
17776SOL    HW253791   0.141   3.786   2.419  1.2895  2.3636 -0.7136
17778SOL     OW53792   0.117   4.854   5.231  0.6026  0.0901 -0.4180
17778SOL    HW153793   0.190   4.910   5.192  2.0631 -0.9451  0.7710
17778SOL    HW253794   0.047   4.837   5.162  1.5260  1.0436 -1.5948
17779SOL     OW53795   3.080   8.281   2.380 -0.2365 -0.3001  0.1190
17779SOL    HW153796   2.994   8.239   2.353 -1.0628  0.6311  1.2529
17779SOL    HW253797   3.133   8.306   2.299 -1.4201 -0.0762 -0.5827
17780SOL     OW53798   2.808   4.708   1.321  0.3186 -0.6911  0.0485
17780SOL    HW153799   2.728   4.731   1.376  0.2900 -1.8852  0.5131
17780SOL    HW253800   2.781   4.647   1.247  0.4502  0.4924 -1.0081
17781SOL     OW53801   9.564   4.728   3.740  0.2544  0.5967  0.0671
17781SOL    HW153802   9.564   4.659   3.813 -0.3694 -0.0662 -0.5610
17781SOL    HW253803   9.658   4.758   3.724  0.5976 -0.5008 -0.0270
17783SOL     OW53804   9.253   9.428   2.031 -0.1874  0.2477 -0.0228
17783SOL    HW153805   9.235   9.387   2.120  1.5254 -1.1150 -0.2687
17783SOL    HW253806   9.193   9.387   1.963 -0.5425  0.3035  0.2542
17784SOL     OW53807   2.306   0.193   3.843 -0.5809  0.4742 -0.1278
17784SOL    HW153808   2.334   0.280   3.803 -3.3046  0.8228 -1.3859
17784SOL    HW253809   2.283   0.129   3.771  0.7815 -1.1110  0.8080
17785SOL     OW53810   2.999   5.141   1.616 -0.2277 -0.0848  0.1413
17785SOL    HW153811   3.055   5.209   1.568  1.5282 -0.1650  1.9772
17785SOL    HW253812   2.987   5.060   1.558  3.2105 -0.8474  0.3814
17787SOL     OW53813   0.002   9.506   1.466  0.4353 -0.7140 -0.4652
17787SOL    HW153814   0.037   9.442   1.398  0.7523 -0.8822 -0.1402
17787SOL    HW253815  -0.020   9.593   1.421  0.5658 -0.8520 -0.7967
17789SOL     OW53816   3.841   8.094   5.175  0.7838 -0.2462 -0.0216
17789SOL    HW153817   3.784   8.155   5.121  1.4989  0.6892  0.2678
17789SOL    HW253818   3.885   8.027   5.115  0.3458 -0.1961 -0.3979
17790SOL     OW53819   7.758   7.366   3.166  0.4149  0.6022  0.3113
17790SOL    HW153820   7.801   7.415   3.089 -2.2355  1.9332 -0.3773
17790SOL    HW253821   7.793   7.404   3.252  0.9217  1.4005 -0.2336
17791SOL     OW53822   3.408   4.692   2.442 -0.0006 -0.6585 -0.3853
17791SOL    HW153823   3.464   4.639   2.379  1.6710  1.1480 -0.4709
17791SOL    HW253824   3.321   4.715   2.398  1.2815  0.8778 -2.2049
17792SOL     OW53825   9.413   4.540   3.925  0.2327 -0.0539  0.0194
17792SOL    HW153826   9.415   4.602   4.004 -0.4225  0.8817 -0.6922
17792SOL    HW253827   9.352   4.464   3.944  0.5755 -0.1777  0.6648
17794SOL     OW53828   9.698   9.600   3.979  0.7200 -0.7534 -0.0554
17794SOL    HW153829   9.682   9.514   4.027  1.0334 -0.6949  0.1591
17794SOL    HW253830   9.648   9.601   3.893 -0.4496 -0.5727  0.6055
17795SOL     OW53831   3.400   1.197   1.509  0.1872 -0.2320  0.1201
17795SOL    HW153832   3.474   1.131   1.524  1.2076  0.6723 -0.8706
17795SOL    HW253833   3.337   1.162   1.441 -1.5633 -2.0007  2.5467
17797SOL     OW53834   4.186   6.318   2.038  0.2270 -0.0729 -0.1679
17797SOL    HW153835   4.104   6.352   1.992  0.2477  0.2148  0.0073
17797SOL    HW253836   4.239   6.395   2.073  0.3319 -0.2769  0.1289
17798SOL     OW53837   5.088   9.587   4.382  0.0402  0.8026 -0.2753
17798SOL    HW153838   5.133   9.582   4.293  2.3907  1.6473  0.8301
17798SOL    HW253839   5.131   9.658   4.438 -1.0907 -0.0295  1.7172
17799SOL     OW53840   2.461   8.185   5.187 -0.1686  0.0325  0.3770
17799SOL    HW153841   2.419   8.095   5.194  0.0129 -0.0005  0.9861
17799SOL    HW253842   2.553   8.184   5.225  0.3961  0.1168 -0.9270
17800SOL     OW53843   5.357   2.139   3.181  0.0775 -0.4979 -0.1290
17800SOL    HW153844   5.357   2.039   3.185  0.2453 -0.4889  0.1711
17800SOL    HW253845   5.316   2.175   3.265 -0.0424 -0.3175 -0.2667
17801SOL     OW53846   3.649   8.671   1.218  0.6621 -0.4277  0.1101
17801SOL    HW153847   3.561   8.648   1.259  1.2045 -0.9334  0.9969
17801SOL    HW253848   3.634   8.730   1.139 -0.4936 -0.7624  0.0695
17802SOL     OW53849   2.286   4.940   2.279  0.1236  0.1104  0.5263
17802SOL    HW153850   2.328   5.025   2.311  2.5752 -0.0693 -2.0175
17802SOL    HW253851   2.317   4.864   2.336  1.7064  0.2790 -0.0795
17803SOL     OW53852   7.423   0.793   2.871  0.3979  0.1544 -0.5595
17803SOL    HW153853   7.477   0.831   2.946 -1.3363 -0.0683  0.8344
17803SOL    HW253854   7.414   0.695   2.883  1.5367 -0.1352 -1.9983
17804SOL     OW53855   0.196   6.988   1.311  0.1216  0.1916 -0.3189
17804SOL    HW153856   0.144   6.983   1.396  0.1244 -1.9883 -0.4119
17804SOL    HW253857   0.135   6.970   1.233  0.9222 -2.3142 -0.4351
17805SOL     OW53858   1.658   3.054   2.289 -0.3163 -0.0969 -0.3995
17805SOL    HW153859   1.584   2.995   2.258  0.6336 -1.7620  0.3950
17805SOL    HW253860   1.738   3.040   2.231  0.3252 -0.5686  0.5771
17807SOL     OW53861   5.218   1.458   2.951  0.4771  0.1064 -0.3334
17807SOL    HW153862   5.251   1.541   2.905  1.8244 -0.5541 -0.5974
17807SOL    HW253863   5.183   1.394   2.883  1.5934 -0.4843 -0.3577
17808SOL     OW53864   3.488   7.897   2.510  0.1561 -0.2362  0.1517
17808SOL    HW153865   3.576   7.940   2.491 -0.0419 -0.3788 -1.0970
17808SOL    HW253866   3.495   7.845   2.596  1.3943 -0.5567 -0.1321
17809SOL     OW53867   3.418   9.133   5.045  0.0628 -0.3142 -0.6010
17809SOL    HW153868   3.328   9.157   5.009  0.3477  1.2219 -0.2962
17809SOL    HW253869   3.474   9.092   4.972 -0.2584  0.3842 -1.2354
17810SOL     OW53870   1.748   6.155   1.161  0.3997  0.0282 -0.1149
17810SOL    HW153871   1.711   6.133   1.252 -0.1645  0.1688 -0.3071
17810SOL    HW253872   1.729   6.079   1.098  2.0500 -0.6948  0.2329
17811SOL     OW53873   5.014   9.259   2.548 -0.2702  0.0646  0.0179
17811SOL    HW153874   4.944   9.297   2.608  0.2010  1.3469 -0.2495
17811SOL    HW253875   4.987   9.271   2.452 -0.9959 -1.9327 -0.0695
17812SOL     OW53876   0.236   2.204   0.600  0.1020 -0.6112  0.2911
17812SOL    HW153877   0.257   2.251   0.514 -1.7649 -1.7213 -0.8015
17812SOL    HW253878   0.143   2.227   0.628 -0.5775 -3.1005  0.1195
17813SOL     OW53879   9.535   4.156   3.913 -0.0687  0.2062  0.0446
17813SOL    HW153880   9.571   4.244   3.882 -1.0109  0.0368 -1.6100
17813SOL    HW253881   9.492   4.167   4.003  1.4643  1.0311  0.6894
17814SOL     OW53882   6.359   1.944   4.862 -0.1489 -0.4908 -0.4519
17814SOL    HW153883   6.267   1.908   4.849  0.2121 -1.4377 -0.3768
17814SOL    HW253884   6.425   1.870   4.859  0.5903  0.1505 -0.2134
17815SOL     OW53885   3.678   0.627   1.767  0.5415  0.4999 -0.2224
17815SOL    HW153886   3.583   0.658   1.756  0.8113  1.6443  0.5755
17815SOL    HW253887   3.733   0.660   1.690  0.0080 -1.3744 -1.4333
17816SOL     OW53888   3.651   2.817   5.266  0.0139  0.3695 -0.0333
17816SOL    HW153889   3.693   2.788   5.352  0.4526  0.3676 -0.2494
17816SOL    HW253890   3.603   2.740   5.224 -2.2541  0.9406  1.4056
17817SOL     OW53891   7.557   0.639   4.681  0.6164 -0.0994 -0.3211
17817SOL    HW153892   7.639   0.690   4.707  0.4413  0.3791 -0.7016
17817SOL    HW253893   7.557   0.550   4.727  2.8070 -1.3104 -2.5718
17818SOL     OW53894   8.952   4.169   0.426  0.4355 -0.2116  0.1141
17818SOL    HW153895   9.031   4.108   0.415 -1.2544 -1.8269 -4.0744
17818SOL    HW253896   8.869   4.114   0.436 -0.5514  1.4739  1.4026
17819SOL     OW53897   0.709   4.092   1.545  0.4168 -0.2985  0.0629
17819SOL    HW153898   0.743   4.000   1.530  2.0881  0.3063  0.1061
17819SOL    HW253899   0.783   4.158   1.532 -0.1000  0.8557  2.6936
17822SOL     OW53900   9.615   7.645   2.771  0.4273  0.4808 -0.4459
17822SOL    HW153901   9.535   7.584   2.772 -0.1217  1.1888 -0.2735
17822SOL    HW253902   9.612   7.703   2.689  0.2959  1.1000 -0.0125
17823SOL     OW53903   0.204   1.109   3.155  0.0252  0.1874  0.6187
17823SOL    HW153904   0.238   1.145   3.068 -1.8692 -1.2065 -0.7751
17823SOL    HW253905   0.233   1.014   3.165 -0.3342  0.1360  1.1780
17824SOL     OW53906   0.231   6.073   2.693 -0.4856  0.1299  0.1211
17824SOL    HW153907   0.323   6.090   2.658  0.1896 -0.8734  1.3646
17824SOL    HW253908   0.237   6.043   2.788 -1.8787 -2.6221 -0.6165
17825SOL     OW53909   3.414   6.433   3.992  0.2500  0.5237  0.4072
17825SOL    HW153910   3.396   6.530   3.976 -0.5153  0.0552 -1.6664
17825SOL    HW253911   3.423   6.386   3.905  2.4848 -0.9513  1.3827
17827SOL     OW53912   0.154   6.904   3.620  0.2752  1.1012 -0.2778
17827SOL    HW153913   0.191   6.993   3.647 -0.6369  2.0220 -1.9816
17827SOL    HW253914   0.078   6.918   3.556 -0.1842 -0.8975 -0.1853
17828SOL     OW53915   3.338   9.467   0.168 -0.2256  0.3974  0.2087
17828SOL    HW153916   3.242   9.449   0.189 -0.1839 -0.1394 -0.0523
17828SOL    HW253917   3.348   9.486   0.070 -0.2410  1.6675  0.4475
17829SOL     OW53918   1.611   6.887   0.909  0.0356  0.2387  0.0180
17829SOL    HW153919   1.608   6.987   0.907  0.0295  0.2173 -3.2850
17829SOL    HW253920   1.530   6.850   0.863 -0.6512 -1.3299  2.4014
17830SOL     OW53921   9.667   3.461   5.173 -0.1260  0.1166  0.1026
17830SOL    HW153922   9.628   3.453   5.081  1.0095  1.7724 -0.5339
17830SOL    HW253923   9.652   3.553   5.208  2.0437  0.3840  0.3910
17831SOL     OW53924   9.772   8.486   0.253 -0.1452  0.2595  0.1631
17831SOL    HW153925   9.831   8.418   0.296  0.5747  0.4499 -0.5280
17831SOL    HW253926   9.825   8.540   0.188 -1.1339  0.2706 -0.6335
17832SOL     OW53927   1.802   2.498   1.611 -0.0858  0.2057 -0.8080
17832SOL    HW153928   1.823   2.579   1.666 -1.5352  0.7387 -1.0080
17832SOL    HW253929   1.856   2.501   1.527 -1.4552  1.9523 -1.6755
17833SOL     OW53930   2.291   2.593   3.149  0.4497  0.0076  0.0272
17833SOL    HW153931   2.311   2.513   3.092  0.0409  1.1095 -1.7080
17833SOL    HW253932   2.365   2.605   3.216  0.6530 -1.6439  0.1210
17834SOL     OW53933   4.108   0.146   2.423  0.3945 -0.4129  0.6740
17834SOL    HW153934   4.204   0.120   2.423  0.4113 -0.4142 -1.2410
17834SOL    HW253935   4.100   0.245   2.411  0.1284 -0.5637 -0.4088
17835SOL     OW53936   2.667   6.230   0.160 -0.1489  0.7006  0.1771
17835SOL    HW153937   2.738   6.293   0.131 -0.3036  1.1697  0.8128
17835SOL    HW253938   2.632   6.257   0.250 -0.8476  0.2391  0.0520
17836SOL     OW53939   9.090   8.928   2.292 -0.2568 -0.0775 -0.5247
17836SOL    HW153940   9.059   8.848   2.343 -0.6946  1.0455  1.0059
17836SOL    HW253941   9.184   8.949   2.316  0.1329 -0.5996 -1.5427
17837SOL     OW53942   4.573   0.518   2.409 -0.1930  0.0332  0.1777
17837SOL    HW153943   4.613   0.524   2.317  0.9287  0.2344  0.6683
17837SOL    HW253944   4.504   0.446   2.410  0.0743 -0.2492 -0.7276
17838SOL     OW53945   0.956   8.510   4.337  0.2503  0.3067  0.3419
17838SOL    HW153946   0.872   8.564   4.343  0.7297  1.0626  0.3647
17838SOL    HW253947   0.978   8.474   4.428 -0.1031  0.0237  0.3161
17839SOL     OW53948   3.761   3.668   3.201  0.0457 -0.1667 -0.5284
17839SOL    HW153949   3.795   3.587   3.249  0.8625 -0.7486 -2.0564
17839SOL    HW253950   3.686   3.709   3.253 -0.0685 -1.6519  0.4905
17840SOL     OW53951   0.815   8.087   2.045 -0.2723  0.1533 -0.6334
17840SOL    HW153952   0.882   8.160   2.033 -1.4508  1.2107 -0.9712
17840SOL    HW253953   0.745   8.118   2.110  0.4554 -1.5651  1.0070
17841SOL     OW53954   0.092   6.676   2.091 -0.2417  0.6167  0.1656
17841SOL    HW153955   0.134   6.764   2.112  0.6848 -0.2106  1.9055
17841SOL    HW253956   0.147   6.603   2.132 -2.3925 -0.6031  0.9322
17842SOL     OW53957   3.103   4.555   2.652  0.3538  0.2400 -0.5938
17842SOL    HW153958   3.146   4.631   2.700 -1.0568  1.8022 -1.7416
17842SOL    HW253959   3.085   4.581   2.557 -1.8294 -0.8655 -0.5145
17844SOL     OW53960   6.623   8.761   3.051  0.2705  0.0139  0.3193
17844SOL    HW153961   6.576   8.844   3.020  0.7381  0.5394  1.0034
17844SOL    HW253962   6.632   8.697   2.974  0.5394  0.8953 -0.3992
17846SOL     OW53963   1.116   3.977   0.013  0.2909  0.1352 -0.9238
17846SOL    HW153964   1.038   4.033   0.041  0.7586 -0.2517  1.2105
17846SOL    HW253965   1.197   4.035   0.004  0.5024  0.0118  0.1180
17847SOL     OW53966   6.137   1.561   2.646  0.0531  0.7648 -0.1678
17847SOL    HW153967   6.223   1.509   2.652 -0.7942 -0.7878 -1.0938
17847SOL    HW253968   6.157   1.659   2.645  1.8935  0.4006 -1.4975
17851SOL     OW53969   4.348   0.389   0.034 -0.1635  0.3535  0.4902
17851SOL    HW153970   4.294   0.468   0.008  0.7000  1.2117  1.2825
17851SOL    HW253971   4.405   0.360  -0.043 -1.1941 -0.1129 -0.1127
17852SOL     OW53972   9.373   9.765   5.290  0.3764  0.2686 -0.4048
17852SOL    HW153973   9.445   9.702   5.319  0.1947  0.0791 -0.3658
17852SOL    HW253974   9.311   9.783   5.367  1.8552  2.4902  0.3250
17853SOL     OW53975   2.688   3.640   1.424 -0.2802 -0.0729 -0.2935
17853SOL    HW153976   2.779   3.681   1.422  0.1536 -0.8711  1.6104
17853SOL    HW253977   2.619   3.712   1.413  0.5317  0.7194 -0.3134
17854SOL     OW53978   3.961   6.147   1.213 -0.0120 -0.5015 -0.2352
17854SOL    HW153979   4.008   6.233   1.232  0.2123 -0.6339 -0.1923
17854SOL    HW253980   3.862   6.162   1.214  0.0610  0.2158 -2.3580
17855SOL     OW53981   2.376   8.400   1.963  0.0221 -0.6056  0.4416
17855SOL    HW153982   2.354   8.393   2.060  0.2350  0.3413  0.5597
17855SOL    HW253983   2.435   8.323   1.937  1.9036  0.3940  1.6038
17856SOL     OW53984   9.392   8.693   3.918 -0.4332 -0.4316 -0.3530
17856SOL    HW153985   9.356   8.762   3.979  0.3215  0.1517 -0.5627
17856SOL    HW253986   9.432   8.737   3.837  0.8707 -1.0570 -0.0570
17857SOL     OW53987   9.565   6.213   4.678  0.2018  0.2648 -0.4072
17857SOL    HW153988   9.638   6.209   4.610 -0.6839  1.6416 -1.4510
17857SOL    HW253989   9.556   6.306   4.713 -1.2582  0.1708 -0.5131
17858SOL     OW53990   2.757   8.018   4.008 -0.3022 -0.2209  0.4734
17858SOL    HW153991   2.687   8.085   4.034 -1.0990 -0.6993 -0.4039
17858SOL    HW253992   2.746   7.995   3.911  1.4302  0.1176  0.1879
17859SOL     OW53993   8.435   1.400   4.974 -0.2138 -0.3908  0.6435
17859SOL    HW153994   8.511   1.446   4.928  0.5065  0.7813  2.9185
17859SOL    HW253995   8.349   1.425   4.929  0.6637 -1.2214 -1.5508
17860SOL     OW53996   3.379   3.227   3.185 -0.1282 -0.0242 -0.5333
17860SOL    HW153997   3.336   3.256   3.270  1.0329  2.1581 -0.6491
17860SOL    HW253998   3.383   3.127   3.182 -1.0883 -0.1520  1.4945
17861SOL     OW53999   4.440   9.647   5.214 -0.3037 -0.0985  0.0674
17861SOL    HW154000   4.509   9.714   5.243  1.4909 -1.5688 -0.6748
17861SOL    HW254001   4.424   9.582   5.287 -0.3668 -0.1674 -0.0072
17862SOL     OW54002   3.714   8.051   2.469  0.2028 -0.6750  0.1680
17862SOL    HW154003   3.804   8.063   2.427 -0.9236 -1.1312 -2.4334
17862SOL    HW254004   3.678   8.139   2.497  0.1644 -0.1413 -1.5348
17863SOL     OW54005   5.168   1.514   4.910  0.5219 -0.4251 -0.1418
17863SOL    HW154006   5.215   1.465   4.836 -0.3263 -2.6590  0.7795
17863SOL    HW254007   5.074   1.535   4.881  0.4927 -0.4408 -0.0559
17866SOL     OW54008   1.883   3.529   3.902 -0.5883  0.6844 -0.6961
17866SOL    HW154009   1.881   3.446   3.958 -0.4132  1.1912  0.0710
17866SOL    HW254010   1.978   3.555   3.884 -0.5906  2.0351  1.0680
17867SOL     OW54011   1.498   4.967   2.215  0.0780  0.1139 -0.1532
17867SOL    HW154012   1.497   4.868   2.203  0.7342 -0.1372  1.7074
17867SOL    HW254013   1.591   4.997   2.237  0.2616  1.3950 -2.4377
17868SOL     OW54014   2.930   1.395   3.624  0.1872 -0.3136 -0.1181
17868SOL    HW154015   2.965   1.366   3.713  0.2462  1.0087  0.2960
17868SOL    HW254016   2.844   1.443   3.635 -0.7630 -1.7613 -0.9643
17869SOL     OW54017   2.722   3.377   4.590  1.1045  0.4231  0.1093
17869SOL    HW154018   2.693   3.288   4.553  1.5797  0.0281  0.6716
17869SOL    HW254019   2.662   3.402   4.667  0.4711  0.9755 -0.5526
17871SOL     OW54020   8.071   0.803   1.299  0.1298 -0.1214 -0.8281
17871SOL    HW154021   8.099   0.889   1.341 -2.0399  0.2188 -0.0013
17871SOL    HW254022   8.028   0.821   1.210 -1.2530 -0.2293 -0.1983
17872SOL     OW54023   9.173   2.575   3.577 -0.2989 -0.0007 -0.2324
17872SOL    HW154024   9.123   2.607   3.496 -0.2706 -0.9221 -0.6163
17872SOL    HW254025   9.271   2.579   3.559 -0.3325 -1.9706 -0.9306
17873SOL     OW54026   0.715   5.336   3.796  0.6236 -0.0799 -0.0754
17873SOL    HW154027   0.711   5.356   3.894  1.8672 -1.7356  0.3515
17873SOL    HW254028   0.622   5.323   3.761  0.2142 -0.6356  1.1613
17875SOL     OW54029   3.784   4.676   0.693  0.3759  0.6087  0.3319
17875SOL    HW154030   3.883   4.690   0.692  0.5982 -0.8190  1.4160
17875SOL    HW254031   3.763   4.581   0.669 -0.6991  0.7559  0.6494
17876SOL     OW54032   1.650   8.938   5.141 -0.3608 -0.2131  0.0942
17876SOL    HW154033   1.634   8.854   5.089 -2.9537 -0.6509  1.4985
17876SOL    HW254034   1.728   8.924   5.203 -0.0228 -1.1669 -0.5300
17877SOL     OW54035   4.342   5.641   5.205  0.3486  0.7289 -0.2669
17877SOL    HW154036   4.421   5.697   5.228  0.4132  0.4109  0.2866
17877SOL    HW254037   4.281   5.693   5.145  1.2343  0.7845 -1.1397
17878SOL     OW54038   1.544   7.147   0.934 -0.5014 -0.6423  0.8672
17878SOL    HW154039   1.566   7.243   0.949  0.5224 -0.9328  1.2341
17878SOL    HW254040   1.484   7.115   1.007 -0.9805 -0.2446  0.6547
17879SOL     OW54041   3.216   9.954   0.917 -0.5478 -0.4314 -0.1714
17879SOL    HW154042   3.197   9.935   0.821 -3.4416 -0.5976  0.4023
17879SOL    HW254043   3.260   9.874   0.958 -0.1622 -0.7150 -1.1141
17880SOL     OW54044   9.262   4.245   0.536  0.3552 -0.0685 -0.6294
17880SOL    HW154045   9.184   4.291   0.577  0.0386 -0.9468 -0.2175
17880SOL    HW254046   9.285   4.164   0.591  1.3873  0.0360 -0.8940
17881SOL     OW54047   8.683   2.889   4.835 -0.0491  0.3544  0.0429
17881SOL    HW154048   8.768   2.858   4.877  0.2560 -1.4900 -1.8550
17881SOL    HW254049   8.606   2.836   4.871  0.1594 -0.9285 -1.3579
17882SOL     OW54050   5.671   0.783   2.299 -0.2447 -0.2445  0.2406
17882SOL    HW154051   5.589   0.728   2.312 -0.1688 -0.6760 -0.9952
17882SOL    HW254052   5.733   0.736   2.235  0.3933  0.6667  0.1757
17883SOL     OW54053   3.674   9.274   4.631  0.4480  0.3576  0.2480
17883SOL    HW154054   3.621   9.260   4.547  0.3783 -3.1452  0.8028
17883SOL    HW254055   3.758   9.220   4.627  0.5390  0.3070  2.3720
17884SOL     OW54056   8.295   4.394   2.503  0.2005 -0.2919 -0.2596
17884SOL    HW154057   8.299   4.347   2.591  1.2115 -1.5256 -0.9463
17884SOL    HW254058   8.221   4.355   2.449  0.1683 -0.1629 -0.3077
17885SOL     OW54059   0.155   2.357   0.255 -0.6625 -0.2078 -0.4942
17885SOL    HW154060   0.166   2.422   0.330  0.1480 -0.1028 -0.7039
17885SOL    HW254061   0.148   2.407   0.169 -1.8470 -0.3133 -0.4789
17887SOL     OW54062   1.420   9.459   2.433 -0.4908  0.5707 -0.4536
17887SOL    HW154063   1.340   9.417   2.392 -0.2170 -2.2212  1.7065
17887SOL    HW254064   1.398   9.490   2.526  0.4718  1.3056 -0.4583
17889SOL     OW54065   3.393   9.630   5.188  0.1193 -0.0167 -0.2348
17889SOL    HW154066   3.296   9.649   5.173 -0.8771 -2.9613  1.9188
17889SOL    HW254067   3.430   9.581   5.109 -1.1169 -2.0647  0.4271
17890SOL     OW54068   4.904   9.836   1.990  0.0872  0.1156 -0.4337
17890SOL    HW154069   4.953   9.921   2.010  0.0421  0.0140  0.1291
17890SOL    HW254070   4.912   9.774   2.069  0.4418 -0.5504 -0.9895
17892SOL     OW54071   9.549   9.748   0.123 -0.3806  0.0236 -0.0275
17892SOL    HW154072   9.605   9.676   0.163  1.3087  0.3091 -1.8023
17892SOL    HW254073   9.608   9.823   0.093 -1.5106 -0.3803 -3.4303
17893SOL     OW54074   2.662   1.457   0.691 -0.4487 -0.7302  0.9099
17893SOL    HW154075   2.592   1.387   0.675 -1.1486 -0.1166  1.2599
17893SOL    HW254076   2.633   1.516   0.767 -0.9927  1.4066 -0.8866
17894SOL     OW54077   0.379   5.391   4.178  0.2578 -0.0568  0.0684
17894SOL    HW154078   0.410   5.317   4.237  1.1035 -0.0075 -0.3053
17894SOL    HW254079   0.345   5.467   4.235 -0.2291 -0.5601  0.4538
17895SOL     OW54080   0.875   5.884   3.032  0.5573 -0.0415  0.5382
17895SOL    HW154081   0.938   5.825   2.980 -0.2719  1.0010 -1.6969
17895SOL    HW254082   0.839   5.955   2.972 -2.3344 -0.2888  1.9345
  10.00000  10.00000   6.74838
